          AutoDock 4.2 Release 4.2.6   
         (C) 1989-2012 The Scripps Research Institute
        AutoDock comes with ABSOLUTELY NO WARRANTY.
        AutoDock is free software, and you are welcome
        to redistribute it under certain conditions;
        for details type 'autodock4 -C'

                     main.cc  $Revision: 1.213 $

                   Compiled on Jul 18 2014 at 15:34:58


This file was created at:			11:55 33" a.m., 10/05/2025
                   on host:		"ACER"
Current Working Directory = "D:\Protein_go_brrr\autodock\final\mut_Y35F\heme"

      ________________________________________________________________

                   SETTING UP DEFAULT PARAMETER LIBRARY
      ________________________________________________________________


Random number generator was seeded with values 189980, 1759658133.
Docking parameter file (DPF) used for this docking:		D:/Protein_go_brrr/autodock/final/mut_Y35F/heme/dock.dpf
DPF> autodock_parameter_version 4.2       # used by autodock to validate parameter set

	Autodock parameter version 4.2.
DPF> outlev 1                             # diagnostic output level

Output Level = 1  ADT-COMPATIBLE OUTPUT DURING DOCKING.
DPF> intelec                              # calculate internal electrostatics

Electrostatic energies will be calculated for all non-bonds between moving atoms.
DPF> seed pid time                        # seeds for random generator

Random number generator was seeded with values 189980, 1759658133.
DPF> ligand_types A C NA OA N HD          # atoms types in ligand

DPF> fld mut_Y35F_m0.maps.fld             # grid_data_file

Opening Grid Map Dimensions file:		mut_Y35F_m0.maps.fld
Grid Point Spacing =				0.447 Angstroms

Even Number of User-specified Grid Points =	126 x-points
						126 y-points
						126 z-points

Coordinates of Central Grid Point of Maps =	(0.620, 0.306, 0.503)
Macromolecule file used to create Grid Maps =	mut_Y35F_m0.pdbqt
Grid Parameter file used to create Grid Maps =	D:/Protein_go_brrr/autodock/final/mut_Y35F/heme/grid.gpf
Minimum coordinates in grid = (-27.541, -27.855, -27.658)
Maximum coordinates in grid = (28.781, 28.467, 28.664)

DPF> map mut_Y35F_m0.A.map                # atom-specific affinity map

DPF> map mut_Y35F_m0.C.map                # atom-specific affinity map

DPF> map mut_Y35F_m0.NA.map               # atom-specific affinity map

DPF> map mut_Y35F_m0.OA.map               # atom-specific affinity map

DPF> map mut_Y35F_m0.N.map                # atom-specific affinity map

DPF> map mut_Y35F_m0.HD.map               # atom-specific affinity map

DPF> elecmap mut_Y35F_m0.e.map            # electrostatics map

DPF> desolvmap mut_Y35F_m0.d.map          # desolvation map

DPF> move heme_opt.pdbqt                  # small molecule

1,4-interactions will be _ignored_ in the non-bonded internal energy calculation.

Ligand PDBQT file = "heme_opt.pdbqt"

INPUT LIGAND PDBQT FILE:
________________________

INPUT-LIGAND-PDBQT: REMARK  13 active torsions:
INPUT-LIGAND-PDBQT: REMARK  status: ('A' for Active; 'I' for Inactive)
INPUT-LIGAND-PDBQT: REMARK    1  A    between atoms: O_3  and  C_38 
INPUT-LIGAND-PDBQT: REMARK    2  A    between atoms: O_4  and  C_40 
INPUT-LIGAND-PDBQT: REMARK    3  A    between atoms: O_7  and  C_46 
INPUT-LIGAND-PDBQT: REMARK    4  A    between atoms: O_9  and  C_48 
INPUT-LIGAND-PDBQT: REMARK    5  A    between atoms: C_15  and  C_20 
INPUT-LIGAND-PDBQT: REMARK    6  A    between atoms: C_16  and  C_23 
INPUT-LIGAND-PDBQT: REMARK    7  A    between atoms: C_20  and  C_38 
INPUT-LIGAND-PDBQT: REMARK    8  A    between atoms: C_23  and  C_40 
INPUT-LIGAND-PDBQT: REMARK    9  A    between atoms: C_32  and  C_41 
INPUT-LIGAND-PDBQT: REMARK   10  A    between atoms: C_37  and  C_45 
INPUT-LIGAND-PDBQT: REMARK   11  A    between atoms: C_41  and  C_44 
INPUT-LIGAND-PDBQT: REMARK   12  A    between atoms: C_44  and  C_46 
INPUT-LIGAND-PDBQT: REMARK   13  A    between atoms: C_47  and  C_48 
INPUT-LIGAND-PDBQT: ROOT
INPUT-LIGAND-PDBQT: ATOM      1  O   UNL d   1      -5.458   1.707   0.620  0.00  0.00    -0.289 OA
INPUT-LIGAND-PDBQT: ATOM      2  O   UNL d   1      -2.504  -4.828  -1.607  0.00  0.00    -0.289 OA
INPUT-LIGAND-PDBQT: ATOM      3  N   UNL d   1      -2.063   1.218   0.259  0.00  0.00    -0.247 NA
INPUT-LIGAND-PDBQT: ATOM      4  N   UNL d   1      -1.851  -1.684  -0.343  0.00  0.00    -0.247 NA
INPUT-LIGAND-PDBQT: ATOM      5  N   UNL d   1       0.972  -1.489   0.166  0.00  0.00    -0.354 N 
INPUT-LIGAND-PDBQT: ATOM      6  N   UNL d   1       0.740   1.517   0.808  0.00  0.00    -0.354 N 
INPUT-LIGAND-PDBQT: ATOM      7  C   UNL d   1      -3.467   3.037   1.112  0.00  0.00     0.084 A 
INPUT-LIGAND-PDBQT: ATOM      8  C   UNL d   1      -3.784  -2.753  -1.388  0.00  0.00     0.084 A 
INPUT-LIGAND-PDBQT: ATOM      9  C   UNL d   1      -3.156  -1.511  -0.747  0.00  0.00     0.058 A 
INPUT-LIGAND-PDBQT: ATOM     10  C   UNL d   1      -2.069   2.485   0.818  0.00  0.00     0.058 A 
INPUT-LIGAND-PDBQT: ATOM     11  C   UNL d   1      -4.251   1.865   0.603  0.00  0.00     0.193 A 
INPUT-LIGAND-PDBQT: ATOM     12  C   UNL d   1      -3.288   0.840   0.089  0.00  0.00     0.109 A 
INPUT-LIGAND-PDBQT: ATOM     13  C   UNL d   1      -2.606  -3.674  -1.239  0.00  0.00     0.193 A 
INPUT-LIGAND-PDBQT: ATOM     14  C   UNL d   1      -3.721   3.188   2.614  0.00  0.00     0.026 C 
INPUT-LIGAND-PDBQT: ATOM     15  C   UNL d   1      -3.838  -0.372  -0.551  0.00  0.00     0.055 C 
INPUT-LIGAND-PDBQT: ATOM     16  C   UNL d   1      -4.060  -2.544  -2.880  0.00  0.00     0.026 C 
INPUT-LIGAND-PDBQT: ATOM     17  C   UNL d   1      -1.503  -2.907  -0.585  0.00  0.00     0.109 A 
INPUT-LIGAND-PDBQT: ATOM     18  C   UNL d   1      -0.964   3.229   1.013  0.00  0.00     0.050 C 
INPUT-LIGAND-PDBQT: ATOM     19  C   UNL d   1       0.360   2.835   0.692  0.00  0.00     0.045 A 
INPUT-LIGAND-PDBQT: ATOM     20  C   UNL d   1       0.841  -2.851   0.084  0.00  0.00     0.045 A 
INPUT-LIGAND-PDBQT: ATOM     21  C   UNL d   1      -0.229  -3.570  -0.270  0.00  0.00     0.057 C 
INPUT-LIGAND-PDBQT: ATOM     22  C   UNL d   1       2.967  -2.353   0.755  0.00  0.00    -0.019 A 
INPUT-LIGAND-PDBQT: ATOM     23  C   UNL d   1       2.221  -1.093   0.564  0.00  0.00     0.045 A 
INPUT-LIGAND-PDBQT: ATOM     24  C   UNL d   1       2.145  -3.390   0.468  0.00  0.00    -0.022 A 
INPUT-LIGAND-PDBQT: ATOM     25  C   UNL d   1       2.081   1.375   0.536  0.00  0.00     0.049 A 
INPUT-LIGAND-PDBQT: ATOM     26  C   UNL d   1       1.473   3.562   0.299  0.00  0.00    -0.018 A 
INPUT-LIGAND-PDBQT: ATOM     27  C   UNL d   1       2.552   2.632   0.183  0.00  0.00     0.003 A 
INPUT-LIGAND-PDBQT: ATOM     28  C   UNL d   1       2.739   0.132   0.742  0.00  0.00     0.052 C 
INPUT-LIGAND-PDBQT: ATOM     29  C   UNL d   1       2.440  -4.851   0.501  0.00  0.00     0.046 C 
INPUT-LIGAND-PDBQT: ATOM     30  C   UNL d   1       1.533   5.030   0.044  0.00  0.00     0.046 C 
INPUT-LIGAND-PDBQT: ATOM     31  H   UNL d   1       0.223  -0.870  -0.125  0.00  0.00     0.166 HD
INPUT-LIGAND-PDBQT: ATOM     32  H   UNL d   1       0.112   0.776   1.096  0.00  0.00     0.166 HD
INPUT-LIGAND-PDBQT: ENDROOT
INPUT-LIGAND-PDBQT: BRANCH   7  33
INPUT-LIGAND-PDBQT: ATOM     33  C   UNL d   1      -3.845   4.310   0.347  0.00  0.00     0.141 C 
INPUT-LIGAND-PDBQT: BRANCH  33  34
INPUT-LIGAND-PDBQT: ATOM     34  C   UNL d   1      -3.538   4.215  -1.123  0.00  0.00     0.306 C 
INPUT-LIGAND-PDBQT: ATOM     35  O   UNL d   1      -3.917   3.340  -1.883  0.00  0.00    -0.251 OA
INPUT-LIGAND-PDBQT: BRANCH  34  36
INPUT-LIGAND-PDBQT: ATOM     36  O   UNL d   1      -2.771   5.230  -1.559  0.00  0.00    -0.481 OA
INPUT-LIGAND-PDBQT: ATOM     37  H   UNL d   1      -2.612   5.030  -2.506  0.00  0.00     0.295 HD
INPUT-LIGAND-PDBQT: ENDBRANCH  34  36
INPUT-LIGAND-PDBQT: ENDBRANCH  33  34
INPUT-LIGAND-PDBQT: ENDBRANCH   7  33
INPUT-LIGAND-PDBQT: BRANCH  27  38
INPUT-LIGAND-PDBQT: ATOM     38  C   UNL d   1       3.894   2.967  -0.187  0.00  0.00     0.017 C 
INPUT-LIGAND-PDBQT: ATOM     39  C   UNL d   1       4.701   2.208  -0.944  0.00  0.00     0.092 C 
INPUT-LIGAND-PDBQT: BRANCH  39  40
INPUT-LIGAND-PDBQT: ATOM     40  C   UNL d   1       6.052   2.675  -1.266  0.00  0.00     0.330 C 
INPUT-LIGAND-PDBQT: ATOM     41  O   UNL d   1       6.568   3.731  -0.953  0.00  0.00    -0.246 OA
INPUT-LIGAND-PDBQT: BRANCH  40  42
INPUT-LIGAND-PDBQT: ATOM     42  O   UNL d   1       6.703   1.746  -1.983  0.00  0.00    -0.477 OA
INPUT-LIGAND-PDBQT: ATOM     43  H   UNL d   1       7.581   2.148  -2.146  0.00  0.00     0.295 HD
INPUT-LIGAND-PDBQT: ENDBRANCH  40  42
INPUT-LIGAND-PDBQT: ENDBRANCH  39  40
INPUT-LIGAND-PDBQT: ENDBRANCH  27  38
INPUT-LIGAND-PDBQT: BRANCH   8  44
INPUT-LIGAND-PDBQT: ATOM     44  C   UNL d   1      -5.015  -3.316  -0.670  0.00  0.00     0.141 C 
INPUT-LIGAND-PDBQT: BRANCH  44  45
INPUT-LIGAND-PDBQT: ATOM     45  C   UNL d   1      -4.806  -3.504   0.809  0.00  0.00     0.306 C 
INPUT-LIGAND-PDBQT: ATOM     46  O   UNL d   1      -3.825  -3.985   1.349  0.00  0.00    -0.251 OA
INPUT-LIGAND-PDBQT: BRANCH  45  47
INPUT-LIGAND-PDBQT: ATOM     47  O   UNL d   1      -5.864  -3.098   1.534  0.00  0.00    -0.481 OA
INPUT-LIGAND-PDBQT: ATOM     48  H   UNL d   1      -5.613  -3.283   2.464  0.00  0.00     0.295 HD
INPUT-LIGAND-PDBQT: ENDBRANCH  45  47
INPUT-LIGAND-PDBQT: ENDBRANCH  44  45
INPUT-LIGAND-PDBQT: ENDBRANCH   8  44
INPUT-LIGAND-PDBQT: BRANCH  22  49
INPUT-LIGAND-PDBQT: ATOM     49  C   UNL d   1       4.395  -2.426   1.210  0.00  0.00     0.048 C 
INPUT-LIGAND-PDBQT: BRANCH  49  50
INPUT-LIGAND-PDBQT: ATOM     50  C   UNL d   1       5.372  -2.242   0.049  0.00  0.00     0.125 C 
INPUT-LIGAND-PDBQT: BRANCH  50  51
INPUT-LIGAND-PDBQT: ATOM     51  C   UNL d   1       6.794  -2.339   0.524  0.00  0.00     0.305 C 
INPUT-LIGAND-PDBQT: ATOM     52  O   UNL d   1       7.189  -2.431   1.673  0.00  0.00    -0.251 OA
INPUT-LIGAND-PDBQT: BRANCH  51  53
INPUT-LIGAND-PDBQT: ATOM     53  O   UNL d   1       7.671  -2.302  -0.499  0.00  0.00    -0.481 OA
INPUT-LIGAND-PDBQT: ATOM     54  H   UNL d   1       8.547  -2.365  -0.064  0.00  0.00     0.295 HD
INPUT-LIGAND-PDBQT: ENDBRANCH  51  53
INPUT-LIGAND-PDBQT: ENDBRANCH  50  51
INPUT-LIGAND-PDBQT: ENDBRANCH  49  50
INPUT-LIGAND-PDBQT: ENDBRANCH  22  49
INPUT-LIGAND-PDBQT: TORSDOF 13
________________________________________________________________________________

Total charge on ligand                               =	-0.002 e
REMARK  13 active torsions:
REMARK  status: ('A' for Active; 'I' for Inactive)
REMARK    1  A    between atoms: O_3  and  C_38 
REMARK    2  A    between atoms: O_4  and  C_40 
REMARK    3  A    between atoms: O_7  and  C_46 
REMARK    4  A    between atoms: O_9  and  C_48 
REMARK    5  A    between atoms: C_15  and  C_20 
REMARK    6  A    between atoms: C_16  and  C_23 
REMARK    7  A    between atoms: C_20  and  C_38 
REMARK    8  A    between atoms: C_23  and  C_40 
REMARK    9  A    between atoms: C_32  and  C_41 
REMARK   10  A    between atoms: C_37  and  C_45 
REMARK   11  A    between atoms: C_41  and  C_44 
REMARK   12  A    between atoms: C_44  and  C_46 
REMARK   13  A    between atoms: C_47  and  C_48 


Number of Rotatable Bonds in Small Molecule =	13 torsions
Number of atoms in ligand:  54

Number of non-hydrogen atoms in ligand:  48

Number of vibrational degrees of freedom of ligand:  156


Number of torsional degrees of freedom = 13
Estimated loss of torsional free energy upon binding = +3.8779 kcal/mol


DPF> about 0.153 0.018 -0.028            # small molecule center

Small molecule center of rotation =	(+0.153, +0.018, -0.028)

DPF> tran0 random                         # initial coordinates/A or random

Initial translation =			(-9.454, 6.534, 11.847) Angstroms
DPF> quaternion0 random                   # initial orientation

Each run will begin with a new, random initial orientation.
Initial quaternion,  (x,y,z,w) =	( 0.018, 0.336, -0.855, 0.394 ),
DPF> dihe0 random                         # initial dihedrals (relative) or random

DPF> torsdof 13                            # torsional degrees of freedom

Number of torsional degrees of freedom = 13
Free energy coefficient for torsional degrees of freedom = 0.2983, the factory default value.

Estimated loss of torsional free energy upon binding = +3.8779 kcal/mol

DPF> rmstol 2.0                           # cluster_tolerance/A

Maximum RMS tolerance for conformational cluster analysis = 2.00 Angstroms
DPF> extnrg 1000.0                        # external grid energy

External grid energy (beyond grid map walls) = 1000.00

DPF> e0max 0.0 10000                      # max initial energy; max number of retries

Using user-specified maximum number of retries for simanneal initialization, 10000 retries.
If the simanneal initial energy is greater than e0max, 0.000,
then a new, random initial state will be created.

DPF> ga_pop_size 150                      # number of individuals in population

A population of 150 individuals will be used
DPF> ga_num_evals 25000000                # maximum number of energy evaluations

There will be at most 25000000 function evaluations used.
DPF> ga_num_generations 27000             # maximum number of generations

The GA will run for at most 27000 generations.
DPF> ga_elitism 1                         # number of top individuals to survive to next generation

The 1 best will be preserved each GA generation.
DPF> ga_mutation_rate 0.02                # rate of gene mutation

The mutation rate is 0.020000.
DPF> ga_crossover_rate 0.8                # rate of crossover

The crossover rate is 0.800000.
DPF> ga_window_size 10                    # 

The GA's selection window is 10 generations.
DPF> ga_cauchy_alpha 0.0                  # Alpha parameter of Cauchy distribution

The alpha parameter (for the Cauchy distribution) is being set to 0.000000.
DPF> ga_cauchy_beta 1.0                   # Beta parameter Cauchy distribution

The beta parameter (for the Cauchy distribution) is being set to 1.000000.
DPF> set_ga                               # set the above parameters for GA or LGA

DPF> sw_max_its 300                       # iterations of Solis & Wets local search

Solis & Wets algorithms will perform at most 300 iterations.
DPF> sw_max_succ 4                        # consecutive successes before changing rho

Solis & Wets algorithms expand rho every 4 in a row successes.
DPF> sw_max_fail 4                        # consecutive failures before changing rho

Solis & Wets algorithms contract rho every 4 in a row failures.
DPF> sw_rho 1.0                           # size of local search space to sample

rho is set to 1.000000.
DPF> sw_lb_rho 0.01                       # lower bound on rho

rho will never get smaller than 0.010000.
DPF> ls_search_freq 0.06                  # probability of performing local search on individual

Local search will be performed with frequency 0.060000.
DPF> set_psw1                             # set the above pseudo-Solis & Wets parameters

Creating a new Local Search object using the pseudo-Solis-Wets algorithm (pSW1) with the current settings.

DPF> unbound_model bound                  # state of unbound ligand

DPF> ga_run 100                           # do this many hybrid GA-LS runs

centering ligand on specified point: 0.153 0.018 -0.028
Furthest true ligand atom from "about" center is 8.726 Angstroms (maxrad).
Number of requested GA dockings = 100 runs
Unbound model to be used is 'same as bound' [AutoDock 4.2 default].

	BEGINNING GENETIC ALGORITHM DOCKING 1 of 100
Run: 1 Seed: 338288606 1068847725 [ Run 1 of 100 GA/GALS ]
Beginning LAMARCKIAN GENETIC ALGORITHM (LGA), with a maximum of 25000000 energy evaluations.

Final-Value: -10.736


	FINAL GENETIC ALGORITHM DOCKED STATE
	_______________________________________________


Detailed state:  trans -18.686 2.629 5.804 quatxyzw 0.772978 -0.504236 -0.325545 0.205600 center 0.153 0.018 -0.028 ntor 13 -99.5930 -112.4861 -103.9652 93.6716 35.5089 -31.0237 160.7397 19.0717 129.7866 -100.3901 124.0334 -3.6360 36.8321
State:	-18.686   2.629   5.804   0.790 -0.515 -0.333 156.271    -99.59 -112.49 -103.97   93.67   35.51  -31.02  160.74   19.07  129.79 -100.39  124.03   -3.64   36.83

DOCKED: MODEL        1
DOCKED: USER    Run = 1
DOCKED: USER    DPF = D:/Protein_go_brrr/autodock/final/mut_Y35F/heme/dock.dpf
DOCKED: USER  
DOCKED: USER    Estimated Free Energy of Binding    =   -3.42 kcal/mol  [=(1)+(2)+(3)-(4)]
DOCKED: USER    Estimated Inhibition Constant, Ki   =    3.12 mM (millimolar)  [Temperature = 298.15 K]
DOCKED: USER    
DOCKED: USER    (1) Final Intermolecular Energy     =   -7.30 kcal/mol
DOCKED: USER        vdW + Hbond + desolv Energy     =   -6.54 kcal/mol
DOCKED: USER        Electrostatic Energy            =   -0.76 kcal/mol
DOCKED: USER    (2) Final Total Internal Energy     =   -3.44 kcal/mol
DOCKED: USER    (3) Torsional Free Energy           =   +3.88 kcal/mol
DOCKED: USER    (4) Unbound System's Energy  [=(2)] =   -3.44 kcal/mol
DOCKED: USER    
DOCKED: USER    
DOCKED: USER    NEWDPF move heme_opt.pdbqt
DOCKED: USER    NEWDPF about 0.153000 0.018000 -0.028000
DOCKED: USER    NEWDPF tran0 -18.685920 2.628921 5.804206
DOCKED: USER    NEWDPF quaternion0 0.772978 -0.504236 -0.325545 0.205600
DOCKED: USER    NEWDPF axisangle0 0.789853 -0.515244 -0.332651 156.270807
DOCKED: USER    NEWDPF quat0 0.789853 -0.515244 -0.332651 156.270807
DOCKED: USER    NEWDPF dihe0 -99.59 -112.49 -103.97 93.67 35.51 -31.02 160.74 19.07 129.79 -100.39 124.03 -3.64 36.83 
DOCKED: USER  keepresnum = 1 
DOCKED: USER  
DOCKED: REMARK  13 active torsions:
DOCKED: REMARK  status: ('A' for Active; 'I' for Inactive)
DOCKED: REMARK    1  A    between atoms: O_3  and  C_38 
DOCKED: REMARK    2  A    between atoms: O_4  and  C_40 
DOCKED: REMARK    3  A    between atoms: O_7  and  C_46 
DOCKED: REMARK    4  A    between atoms: O_9  and  C_48 
DOCKED: REMARK    5  A    between atoms: C_15  and  C_20 
DOCKED: REMARK    6  A    between atoms: C_16  and  C_23 
DOCKED: REMARK    7  A    between atoms: C_20  and  C_38 
DOCKED: REMARK    8  A    between atoms: C_23  and  C_40 
DOCKED: REMARK    9  A    between atoms: C_32  and  C_41 
DOCKED: REMARK   10  A    between atoms: C_37  and  C_45 
DOCKED: REMARK   11  A    between atoms: C_41  and  C_44 
DOCKED: REMARK   12  A    between atoms: C_44  and  C_46 
DOCKED: REMARK   13  A    between atoms: C_47  and  C_48 
DOCKED: USER                              x       y       z     vdW  Elec       q    Type
DOCKED: USER                           _______ _______ _______ _____ _____    ______ ____
DOCKED: ROOT
DOCKED: ATOM      1  O   UNL d   1     -21.989   5.983   9.353 +0.00 -0.02    -0.289 OA
DOCKED: ATOM      2  O   UNL d   1     -14.535   5.296   8.752 -0.24 -0.56    -0.289 OA
DOCKED: ATOM      3  N   UNL d   1     -20.486   3.757   7.190 -0.06 -0.04    -0.247 NA
DOCKED: ATOM      4  N   UNL d   1     -17.598   4.412   7.432 -0.09 -0.11    -0.247 NA
DOCKED: ATOM      5  N   UNL d   1     -17.138   2.839   5.070 -0.08 -0.09    -0.354 N 
DOCKED: ATOM      6  N   UNL d   1     -20.138   2.180   4.815 -0.05 -0.04    -0.354 N 
DOCKED: ATOM      7  C   UNL d   1     -22.793   4.474   7.606 -0.00 +0.01    +0.084 A 
DOCKED: ATOM      8  C   UNL d   1     -16.853   5.420   9.530 -0.09 +0.06    +0.084 A 
DOCKED: ATOM      9  C   UNL d   1     -18.002   4.923   8.645 -0.08 +0.03    +0.058 A 
DOCKED: ATOM     10  C   UNL d   1     -21.811   3.606   6.814 -0.04 +0.00    +0.058 A 
DOCKED: ATOM     11  C   UNL d   1     -21.791   5.129   8.509 -0.00 +0.02    +0.193 A 
DOCKED: ATOM     12  C   UNL d   1     -20.433   4.592   8.176 -0.04 +0.02    +0.109 A 
DOCKED: ATOM     13  C   UNL d   1     -15.727   5.130   8.578 -0.09 +0.23    +0.193 A 
DOCKED: ATOM     14  C   UNL d   1     -23.446   5.547   6.732 -0.00 +0.00    +0.026 C 
DOCKED: ATOM     15  C   UNL d   1     -19.291   5.027   9.004 -0.05 +0.01    +0.055 C 
DOCKED: ATOM     16  C   UNL d   1     -16.679   4.549  10.778 -0.18 +0.02    +0.026 C 
DOCKED: ATOM     17  C   UNL d   1     -16.312   4.529   7.342 -0.15 +0.08    +0.109 A 
DOCKED: ATOM     18  C   UNL d   1     -22.239   2.716   5.899 -0.04 +0.00    +0.050 C 
DOCKED: ATOM     19  C   UNL d   1     -21.414   1.814   5.180 -0.08 +0.00    +0.045 A 
DOCKED: ATOM     20  C   UNL d   1     -15.906   3.425   5.207 -0.15 +0.02    +0.045 A 
DOCKED: ATOM     21  C   UNL d   1     -15.444   4.179   6.208 -0.16 +0.04    +0.057 C 
DOCKED: ATOM     22  C   UNL d   1     -15.965   2.283   3.229 -0.14 -0.00    -0.019 A 
DOCKED: ATOM     23  C   UNL d   1     -17.268   2.128   3.907 -0.14 +0.01    +0.045 A 
DOCKED: ATOM     24  C   UNL d   1     -15.163   3.050   4.004 -0.16 -0.01    -0.022 A 
DOCKED: ATOM     25  C   UNL d   1     -19.553   1.196   4.052 -0.09 +0.01    +0.049 A 
DOCKED: ATOM     26  C   UNL d   1     -21.651   0.546   4.673 -0.09 -0.00    -0.018 A 
DOCKED: ATOM     27  C   UNL d   1     -20.465   0.153   3.978 -0.12 +0.00    +0.003 A 
DOCKED: ATOM     28  C   UNL d   1     -18.295   1.410   3.426 -0.14 +0.01    +0.052 C 
DOCKED: ATOM     29  C   UNL d   1     -13.756   3.476   3.756 -0.26 +0.02    +0.046 C 
DOCKED: ATOM     30  C   UNL d   1     -22.899  -0.255   4.825 -0.05 +0.00    +0.046 C 
DOCKED: ATOM     31  H   UNL d   1     -17.827   2.882   5.813 +0.03 +0.04    +0.166 HD
DOCKED: ATOM     32  H   UNL d   1     -19.722   3.073   5.051 +0.02 +0.02    +0.166 HD
DOCKED: ENDROOT
DOCKED: BRANCH   7  33
DOCKED: ATOM     33  C   UNL d   1     -23.835   3.706   8.426 -0.00 +0.01    +0.141 C 
DOCKED: BRANCH  33  34
DOCKED: ATOM     34  C   UNL d   1     -24.727   4.615   9.227 +0.00 +0.01    +0.306 C 
DOCKED: ATOM     35  O   UNL d   1     -25.781   5.102   8.853 +0.00 -0.01    -0.251 OA
DOCKED: BRANCH  34  36
DOCKED: ATOM     36  O   UNL d   1     -24.246   4.862  10.458 +0.00 -0.02    -0.481 OA
DOCKED: ATOM     37  H   UNL d   1     -23.541   5.529  10.318 +0.00 +0.01    +0.295 HD
DOCKED: ENDBRANCH  34  36
DOCKED: ENDBRANCH  33  34
DOCKED: ENDBRANCH   7  33
DOCKED: BRANCH  27  38
DOCKED: ATOM     38  C   UNL d   1     -20.287  -1.089   3.288 -0.15 +0.00    +0.017 C 
DOCKED: ATOM     39  C   UNL d   1     -19.127  -1.756   3.182 -0.07 +0.02    +0.092 C 
DOCKED: BRANCH  39  40
DOCKED: ATOM     40  C   UNL d   1     -19.082  -3.031   2.461 -0.15 +0.14    +0.330 C 
DOCKED: ATOM     41  O   UNL d   1     -19.955  -3.875   2.386 -0.15 -0.09    -0.246 OA
DOCKED: BRANCH  40  42
DOCKED: ATOM     42  O   UNL d   1     -17.898  -3.170   1.843 -0.20 -0.44    -0.477 OA
DOCKED: ATOM     43  H   UNL d   1     -17.259  -3.263   2.580 -0.44 +0.09    +0.295 HD
DOCKED: ENDBRANCH  40  42
DOCKED: ENDBRANCH  39  40
DOCKED: ENDBRANCH  27  38
DOCKED: BRANCH   8  44
DOCKED: ATOM     44  C   UNL d   1     -16.895   6.908   9.893 -0.03 +0.08    +0.141 C 
DOCKED: BRANCH  44  45
DOCKED: ATOM     45  C   UNL d   1     -15.530   7.508  10.101 -0.04 +0.34    +0.306 C 
DOCKED: ATOM     46  O   UNL d   1     -15.018   8.394   9.440 -0.25 -0.35    -0.251 OA
DOCKED: BRANCH  45  47
DOCKED: ATOM     47  O   UNL d   1     -14.866   6.936  11.122 -0.12 -0.71    -0.481 OA
DOCKED: ATOM     48  H   UNL d   1     -14.574   6.067  10.772 +0.06 +0.44    +0.295 HD
DOCKED: ENDBRANCH  45  47
DOCKED: ENDBRANCH  44  45
DOCKED: ENDBRANCH   8  44
DOCKED: BRANCH  22  49
DOCKED: ATOM     49  C   UNL d   1     -15.634   1.685   1.893 -0.13 +0.01    +0.048 C 
DOCKED: BRANCH  49  50
DOCKED: ATOM     50  C   UNL d   1     -16.057   0.218   1.806 -0.21 +0.03    +0.125 C 
DOCKED: BRANCH  50  51
DOCKED: ATOM     51  C   UNL d   1     -15.453  -0.581   2.926 -0.30 +0.11    +0.305 C 
DOCKED: ATOM     52  O   UNL d   1     -14.903  -0.159   3.928 -0.91 -0.13    -0.251 OA
DOCKED: BRANCH  51  53
DOCKED: ATOM     53  O   UNL d   1     -15.566  -1.908   2.717 -0.31 -0.16    -0.481 OA
DOCKED: ATOM     54  H   UNL d   1     -16.447  -2.133   3.083 -0.31 +0.07    +0.295 HD
DOCKED: ENDBRANCH  51  53
DOCKED: ENDBRANCH  50  51
DOCKED: ENDBRANCH  49  50
DOCKED: ENDBRANCH  22  49
DOCKED: TORSDOF 13
DOCKED: TER
DOCKED: ENDMDL
________________________________________________________________________________


	BEGINNING GENETIC ALGORITHM DOCKING 2 of 100
Run: 2 Seed: 689633852 1311189138 [ Run 2 of 100 GA/GALS ]
Beginning LAMARCKIAN GENETIC ALGORITHM (LGA), with a maximum of 25000000 energy evaluations.

Final-Value: -11.270


	FINAL GENETIC ALGORITHM DOCKED STATE
	_______________________________________________


Detailed state:  trans 11.772 12.807 6.458 quatxyzw -0.711655 -0.426888 0.433549 -0.351211 center 0.153 0.018 -0.028 ntor 13 167.5091 123.5595 108.2764 47.6025 -146.7896 77.1690 -52.0474 77.7087 22.9206 -126.0967 -81.1179 -71.1846 -6.8010
State:	 11.772  12.807   6.458  -0.760 -0.456  0.463 -138.877    167.51  123.56  108.28   47.60 -146.79   77.17  -52.05   77.71   22.92 -126.10  -81.12  -71.18   -6.80

DOCKED: MODEL        2
DOCKED: USER    Run = 2
DOCKED: USER    DPF = D:/Protein_go_brrr/autodock/final/mut_Y35F/heme/dock.dpf
DOCKED: USER  
DOCKED: USER    Estimated Free Energy of Binding    =   -2.75 kcal/mol  [=(1)+(2)+(3)-(4)]
DOCKED: USER    Estimated Inhibition Constant, Ki   =    9.71 mM (millimolar)  [Temperature = 298.15 K]
DOCKED: USER    
DOCKED: USER    (1) Final Intermolecular Energy     =   -6.62 kcal/mol
DOCKED: USER        vdW + Hbond + desolv Energy     =   -6.64 kcal/mol
DOCKED: USER        Electrostatic Energy            =   +0.02 kcal/mol
DOCKED: USER    (2) Final Total Internal Energy     =   -4.65 kcal/mol
DOCKED: USER    (3) Torsional Free Energy           =   +3.88 kcal/mol
DOCKED: USER    (4) Unbound System's Energy  [=(2)] =   -4.65 kcal/mol
DOCKED: USER    
DOCKED: USER    
DOCKED: USER    NEWDPF move heme_opt.pdbqt
DOCKED: USER    NEWDPF about 0.153000 0.018000 -0.028000
DOCKED: USER    NEWDPF tran0 11.771608 12.806729 6.457994
DOCKED: USER    NEWDPF quaternion0 -0.711655 -0.426888 0.433549 -0.351211
DOCKED: USER    NEWDPF axisangle0 -0.760075 -0.455932 0.463047 -138.877167
DOCKED: USER    NEWDPF quat0 -0.760075 -0.455932 0.463047 -138.877167
DOCKED: USER    NEWDPF dihe0 167.51 123.56 108.28 47.60 -146.79 77.17 -52.05 77.71 22.92 -126.10 -81.12 -71.18 -6.80 
DOCKED: USER  keepresnum = 1 
DOCKED: USER  
DOCKED: REMARK  13 active torsions:
DOCKED: REMARK  status: ('A' for Active; 'I' for Inactive)
DOCKED: REMARK    1  A    between atoms: O_3  and  C_38 
DOCKED: REMARK    2  A    between atoms: O_4  and  C_40 
DOCKED: REMARK    3  A    between atoms: O_7  and  C_46 
DOCKED: REMARK    4  A    between atoms: O_9  and  C_48 
DOCKED: REMARK    5  A    between atoms: C_15  and  C_20 
DOCKED: REMARK    6  A    between atoms: C_16  and  C_23 
DOCKED: REMARK    7  A    between atoms: C_20  and  C_38 
DOCKED: REMARK    8  A    between atoms: C_23  and  C_40 
DOCKED: REMARK    9  A    between atoms: C_32  and  C_41 
DOCKED: REMARK   10  A    between atoms: C_37  and  C_45 
DOCKED: REMARK   11  A    between atoms: C_41  and  C_44 
DOCKED: REMARK   12  A    between atoms: C_44  and  C_46 
DOCKED: REMARK   13  A    between atoms: C_47  and  C_48 
DOCKED: USER                              x       y       z     vdW  Elec       q    Type
DOCKED: USER                           _______ _______ _______ _____ _____    ______ ____
DOCKED: ROOT
DOCKED: ATOM      1  O   UNL d   1      10.233   7.116   6.524 -0.13 -0.14    -0.289 OA
DOCKED: ATOM      2  O   UNL d   1      11.061  12.063  12.113 -0.12 -0.18    -0.289 OA
DOCKED: ATOM      3  N   UNL d   1      11.297  10.356   6.009 -0.08 -0.03    -0.247 NA
DOCKED: ATOM      4  N   UNL d   1      11.024  11.600   8.693 -0.10 -0.05    -0.247 NA
DOCKED: ATOM      5  N   UNL d   1      11.350  14.165   7.436 -0.02 -0.01    -0.354 N 
DOCKED: ATOM      6  N   UNL d   1      11.612  12.868   4.652 -0.04 +0.02    -0.354 N 
DOCKED: ATOM      7  C   UNL d   1      10.701   8.479   4.549 -0.26 +0.01    +0.084 A 
DOCKED: ATOM      8  C   UNL d   1      11.157  10.117  10.631 -0.11 +0.03    +0.084 A 
DOCKED: ATOM      9  C   UNL d   1      11.108  10.290   9.109 -0.15 +0.01    +0.058 A 
DOCKED: ATOM     10  C   UNL d   1      11.167   9.930   4.697 -0.21 +0.00    +0.058 A 
DOCKED: ATOM     11  C   UNL d   1      10.609   8.153   6.010 -0.13 +0.05    +0.193 A 
DOCKED: ATOM     12  C   UNL d   1      11.020   9.364   6.790 -0.12 +0.02    +0.109 A 
DOCKED: ATOM     13  C   UNL d   1      11.047  11.569  11.002 -0.12 +0.07    +0.193 A 
DOCKED: ATOM     14  C   UNL d   1       9.304   8.383   3.932 -0.43 +0.00    +0.026 C 
DOCKED: ATOM     15  C   UNL d   1      11.097   9.250   8.261 -0.15 +0.02    +0.055 C 
DOCKED: ATOM     16  C   UNL d   1      12.517   9.590  11.100 -0.04 +0.01    +0.026 C 
DOCKED: ATOM     17  C   UNL d   1      10.966  12.361   9.738 -0.20 +0.03    +0.109 A 
DOCKED: ATOM     18  C   UNL d   1      11.500  10.674   3.626 -0.28 -0.01    +0.050 C 
DOCKED: ATOM     19  C   UNL d   1      12.019  11.994   3.670 -0.22 -0.01    +0.045 A 
DOCKED: ATOM     20  C   UNL d   1      10.978  14.564   8.694 -0.24 +0.00    +0.045 A 
DOCKED: ATOM     21  C   UNL d   1      10.807  13.822   9.792 -0.28 +0.02    +0.057 C 
DOCKED: ATOM     22  C   UNL d   1      11.066  16.397   7.333 -0.18 +0.00    -0.019 A 
DOCKED: ATOM     23  C   UNL d   1      11.429  15.202   6.545 -0.16 -0.00    +0.045 A 
DOCKED: ATOM     24  C   UNL d   1      10.801  16.013   8.604 -0.23 +0.00    -0.022 A 
DOCKED: ATOM     25  C   UNL d   1      12.166  14.111   4.453 -0.11 -0.00    +0.049 A 
DOCKED: ATOM     26  C   UNL d   1      12.888  12.675   2.832 -0.27 +0.00    -0.018 A 
DOCKED: ATOM     27  C   UNL d   1      12.993  14.006   3.343 -0.15 -0.00    +0.003 A 
DOCKED: ATOM     28  C   UNL d   1      11.771  15.221   5.248 -0.14 -0.01    +0.052 C 
DOCKED: ATOM     29  C   UNL d   1      10.405  16.855   9.769 -0.23 +0.00    +0.046 C 
DOCKED: ATOM     30  C   UNL d   1      13.583  12.126   1.632 -0.47 -0.00    +0.046 C 
DOCKED: ATOM     31  H   UNL d   1      11.610  13.203   7.245 +0.04 +0.01    +0.166 HD
DOCKED: ATOM     32  H   UNL d   1      10.960  12.620   5.387 +0.09 -0.00    +0.166 HD
DOCKED: ENDROOT
DOCKED: BRANCH   7  33
DOCKED: ATOM     33  C   UNL d   1      11.691   7.540   3.851 -0.34 +0.01    +0.141 C 
DOCKED: BRANCH  33  34
DOCKED: ATOM     34  C   UNL d   1      12.902   7.244   4.693 -0.16 +0.06    +0.306 C 
DOCKED: ATOM     35  O   UNL d   1      13.959   7.852   4.673 -0.16 -0.05    -0.251 OA
DOCKED: BRANCH  34  36
DOCKED: ATOM     36  O   UNL d   1      12.717   6.198   5.517 -0.13 -0.18    -0.481 OA
DOCKED: ATOM     37  H   UNL d   1      11.746   6.056   5.522 +0.12 +0.13    +0.295 HD
DOCKED: ENDBRANCH  34  36
DOCKED: ENDBRANCH  33  34
DOCKED: ENDBRANCH   7  33
DOCKED: BRANCH  27  38
DOCKED: ATOM     38  C   UNL d   1      13.782  15.052   2.766 -0.14 -0.00    +0.017 C 
DOCKED: ATOM     39  C   UNL d   1      13.455  16.353   2.755 -0.07 -0.03    +0.092 C 
DOCKED: BRANCH  39  40
DOCKED: ATOM     40  C   UNL d   1      14.362  17.329   2.145 -0.04 -0.18    +0.330 C 
DOCKED: ATOM     41  O   UNL d   1      14.551  17.528   0.960 -0.07 +0.28    -0.246 OA
DOCKED: BRANCH  40  42
DOCKED: ATOM     42  O   UNL d   1      14.996  18.030   3.098 +0.01 +0.14    -0.477 OA
DOCKED: ATOM     43  H   UNL d   1      14.268  18.418   3.626 +0.01 -0.07    +0.295 HD
DOCKED: ENDBRANCH  40  42
DOCKED: ENDBRANCH  39  40
DOCKED: ENDBRANCH  27  38
DOCKED: BRANCH   8  44
DOCKED: ATOM     44  C   UNL d   1      10.008   9.306  11.240 -0.07 +0.06    +0.141 C 
DOCKED: BRANCH  44  45
DOCKED: ATOM     45  C   UNL d   1      10.050   9.254  12.744 -0.08 +0.13    +0.306 C 
DOCKED: ATOM     46  O   UNL d   1      10.529   8.365  13.428 -0.03 -0.09    -0.251 OA
DOCKED: BRANCH  45  47
DOCKED: ATOM     47  O   UNL d   1       9.459  10.320  13.313 -0.09 -0.29    -0.481 OA
DOCKED: ATOM     48  H   UNL d   1      10.079  11.062  13.154 +0.06 +0.23    +0.295 HD
DOCKED: ENDBRANCH  45  47
DOCKED: ENDBRANCH  44  45
DOCKED: ENDBRANCH   8  44
DOCKED: BRANCH  22  49
DOCKED: ATOM     49  C   UNL d   1      10.997  17.787   6.772 -0.15 -0.01    +0.048 C 
DOCKED: BRANCH  49  50
DOCKED: ATOM     50  C   UNL d   1      12.335  18.516   6.893 -0.04 -0.01    +0.125 C 
DOCKED: BRANCH  50  51
DOCKED: ATOM     51  C   UNL d   1      13.085  18.480   5.591 -0.00 -0.03    +0.305 C 
DOCKED: ATOM     52  O   UNL d   1      12.824  19.086   4.567 -0.00 +0.04    -0.251 OA
DOCKED: BRANCH  51  53
DOCKED: ATOM     53  O   UNL d   1      14.148  17.653   5.644 +0.00 +0.05    -0.481 OA
DOCKED: ATOM     54  H   UNL d   1      14.878  18.179   5.256 +0.00 -0.03    +0.295 HD
DOCKED: ENDBRANCH  51  53
DOCKED: ENDBRANCH  50  51
DOCKED: ENDBRANCH  49  50
DOCKED: ENDBRANCH  22  49
DOCKED: TORSDOF 13
DOCKED: TER
DOCKED: ENDMDL
________________________________________________________________________________


	BEGINNING GENETIC ALGORITHM DOCKING 3 of 100
Run: 3 Seed: 1506268959 18679452 [ Run 3 of 100 GA/GALS ]
Beginning LAMARCKIAN GENETIC ALGORITHM (LGA), with a maximum of 25000000 energy evaluations.

Final-Value: -11.312


	FINAL GENETIC ALGORITHM DOCKED STATE
	_______________________________________________


Detailed state:  trans -6.259 19.215 5.108 quatxyzw -0.417736 -0.682117 -0.565649 -0.200636 center 0.153 0.018 -0.028 ntor 13 -99.8889 -123.0759 159.0544 -178.6550 -122.1693 57.4380 -56.9095 -38.8660 -150.5058 -159.3520 99.9963 -68.1561 10.1723
State:	 -6.259  19.215   5.108  -0.426 -0.696 -0.577 -156.852    -99.89 -123.08  159.05 -178.66 -122.17   57.44  -56.91  -38.87 -150.51 -159.35  100.00  -68.16   10.17

DOCKED: MODEL        3
DOCKED: USER    Run = 3
DOCKED: USER    DPF = D:/Protein_go_brrr/autodock/final/mut_Y35F/heme/dock.dpf
DOCKED: USER  
DOCKED: USER    Estimated Free Energy of Binding    =   -5.83 kcal/mol  [=(1)+(2)+(3)-(4)]
DOCKED: USER    Estimated Inhibition Constant, Ki   =   52.89 uM (micromolar)  [Temperature = 298.15 K]
DOCKED: USER    
DOCKED: USER    (1) Final Intermolecular Energy     =   -9.71 kcal/mol
DOCKED: USER        vdW + Hbond + desolv Energy     =   -8.96 kcal/mol
DOCKED: USER        Electrostatic Energy            =   -0.75 kcal/mol
DOCKED: USER    (2) Final Total Internal Energy     =   -1.60 kcal/mol
DOCKED: USER    (3) Torsional Free Energy           =   +3.88 kcal/mol
DOCKED: USER    (4) Unbound System's Energy  [=(2)] =   -1.60 kcal/mol
DOCKED: USER    
DOCKED: USER    
DOCKED: USER    NEWDPF move heme_opt.pdbqt
DOCKED: USER    NEWDPF about 0.153000 0.018000 -0.028000
DOCKED: USER    NEWDPF tran0 -6.259382 19.214758 5.108159
DOCKED: USER    NEWDPF quaternion0 -0.417736 -0.682117 -0.565649 -0.200636
DOCKED: USER    NEWDPF axisangle0 -0.426406 -0.696275 -0.577389 -156.851740
DOCKED: USER    NEWDPF quat0 -0.426406 -0.696275 -0.577389 -156.851740
DOCKED: USER    NEWDPF dihe0 -99.89 -123.08 159.05 -178.66 -122.17 57.44 -56.91 -38.87 -150.51 -159.35 100.00 -68.16 10.17 
DOCKED: USER  keepresnum = 1 
DOCKED: USER  
DOCKED: REMARK  13 active torsions:
DOCKED: REMARK  status: ('A' for Active; 'I' for Inactive)
DOCKED: REMARK    1  A    between atoms: O_3  and  C_38 
DOCKED: REMARK    2  A    between atoms: O_4  and  C_40 
DOCKED: REMARK    3  A    between atoms: O_7  and  C_46 
DOCKED: REMARK    4  A    between atoms: O_9  and  C_48 
DOCKED: REMARK    5  A    between atoms: C_15  and  C_20 
DOCKED: REMARK    6  A    between atoms: C_16  and  C_23 
DOCKED: REMARK    7  A    between atoms: C_20  and  C_38 
DOCKED: REMARK    8  A    between atoms: C_23  and  C_40 
DOCKED: REMARK    9  A    between atoms: C_32  and  C_41 
DOCKED: REMARK   10  A    between atoms: C_37  and  C_45 
DOCKED: REMARK   11  A    between atoms: C_41  and  C_44 
DOCKED: REMARK   12  A    between atoms: C_44  and  C_46 
DOCKED: REMARK   13  A    between atoms: C_47  and  C_48 
DOCKED: USER                              x       y       z     vdW  Elec       q    Type
DOCKED: USER                           _______ _______ _______ _____ _____    ______ ____
DOCKED: ROOT
DOCKED: ATOM      1  O   UNL d   1      -1.584  17.918   1.760 -0.20 +0.07    -0.289 OA
DOCKED: ATOM      2  O   UNL d   1      -8.919  16.767   0.639 -0.06 +0.05    -0.289 OA
DOCKED: ATOM      3  N   UNL d   1      -3.982  18.738   4.099 -0.18 +0.07    -0.247 NA
DOCKED: ATOM      4  N   UNL d   1      -6.535  18.213   2.673 -0.14 +0.07    -0.247 NA
DOCKED: ATOM      5  N   UNL d   1      -7.889  19.661   4.755 -0.06 +0.17    -0.354 N 
DOCKED: ATOM      6  N   UNL d   1      -5.233  20.218   6.218 -0.03 +0.19    -0.354 N 
DOCKED: ATOM      7  C   UNL d   1      -1.562  19.078   3.911 -0.18 -0.02    +0.084 A 
DOCKED: ATOM      8  C   UNL d   1      -6.492  16.557   0.876 -0.16 -0.02    +0.084 A 
DOCKED: ATOM      9  C   UNL d   1      -5.733  17.388   1.916 -0.23 -0.01    +0.058 A 
DOCKED: ATOM     10  C   UNL d   1      -2.858  19.275   4.704 -0.22 -0.01    +0.058 A 
DOCKED: ATOM     11  C   UNL d   1      -2.150  18.318   2.761 -0.11 -0.04    +0.193 A 
DOCKED: ATOM     12  C   UNL d   1      -3.618  18.154   3.004 -0.14 -0.03    +0.109 A 
DOCKED: ATOM     13  C   UNL d   1      -7.868  17.090   1.158 -0.07 -0.04    +0.193 A 
DOCKED: ATOM     14  C   UNL d   1      -0.998  20.403   3.393 -0.12 -0.00    +0.026 C 
DOCKED: ATOM     15  C   UNL d   1      -4.397  17.351   2.040 -0.30 -0.01    +0.055 C 
DOCKED: ATOM     16  C   UNL d   1      -6.465  15.063   1.214 -0.28 -0.01    +0.026 C 
DOCKED: ATOM     17  C   UNL d   1      -7.756  18.091   2.261 -0.12 -0.03    +0.109 A 
DOCKED: ATOM     18  C   UNL d   1      -2.856  19.845   5.923 -0.25 -0.02    +0.050 C 
DOCKED: ATOM     19  C   UNL d   1      -3.990  19.993   6.763 -0.22 -0.02    +0.045 A 
DOCKED: ATOM     20  C   UNL d   1      -8.916  19.524   3.857 -0.15 -0.01    +0.045 A 
DOCKED: ATOM     21  C   UNL d   1      -8.949  18.817   2.723 -0.13 -0.01    +0.057 C 
DOCKED: ATOM     22  C   UNL d   1      -9.598  20.889   5.557 -0.13 +0.01    -0.019 A 
DOCKED: ATOM     23  C   UNL d   1      -8.207  20.468   5.815 -0.18 -0.02    +0.045 A 
DOCKED: ATOM     24  C   UNL d   1     -10.013  20.326   4.398 -0.12 +0.01    -0.022 A 
DOCKED: ATOM     25  C   UNL d   1      -6.166  20.421   7.209 -0.10 -0.03    +0.049 A 
DOCKED: ATOM     26  C   UNL d   1      -4.123  20.014   8.143 -0.24 +0.01    -0.018 A 
DOCKED: ATOM     27  C   UNL d   1      -5.503  20.265   8.419 -0.24 -0.00    +0.003 A 
DOCKED: ATOM     28  C   UNL d   1      -7.491  20.826   6.892 -0.19 -0.03    +0.052 C 
DOCKED: ATOM     29  C   UNL d   1     -11.339  20.442   3.726 -0.06 -0.01    +0.046 C 
DOCKED: ATOM     30  C   UNL d   1      -3.038  19.811   9.145 -0.23 -0.03    +0.046 C 
DOCKED: ATOM     31  H   UNL d   1      -7.026  19.138   4.651 -0.47 -0.12    +0.166 HD
DOCKED: ATOM     32  H   UNL d   1      -5.408  20.265   5.221 -0.03 -0.07    +0.166 HD
DOCKED: ENDROOT
DOCKED: BRANCH   7  33
DOCKED: ATOM     33  C   UNL d   1      -0.484  18.244   4.612 -0.12 -0.03    +0.141 C 
DOCKED: BRANCH  33  34
DOCKED: ATOM     34  C   UNL d   1       0.620  19.089   5.188 -0.23 -0.06    +0.306 C 
DOCKED: ATOM     35  O   UNL d   1       1.439  19.733   4.555 -0.34 +0.03    -0.251 OA
DOCKED: BRANCH  34  36
DOCKED: ATOM     36  O   UNL d   1       0.631  19.082   6.533 -0.70 +0.16    -0.481 OA
DOCKED: ATOM     37  H   UNL d   1       1.038  18.222   6.771 -0.24 -0.19    +0.295 HD
DOCKED: ENDBRANCH  34  36
DOCKED: ENDBRANCH  33  34
DOCKED: ENDBRANCH   7  33
DOCKED: BRANCH  27  38
DOCKED: ATOM     38  C   UNL d   1      -6.075  20.381   9.726 -0.24 -0.01    +0.017 C 
DOCKED: ATOM     39  C   UNL d   1      -7.124  21.154  10.046 -0.12 -0.07    +0.092 C 
DOCKED: BRANCH  39  40
DOCKED: ATOM     40  C   UNL d   1      -7.626  21.170  11.423 -0.05 -0.25    +0.330 C 
DOCKED: ATOM     41  O   UNL d   1      -7.003  21.415  12.438 -0.02 +0.12    -0.246 OA
DOCKED: BRANCH  40  42
DOCKED: ATOM     42  O   UNL d   1      -8.935  20.875  11.441 -0.05 +0.51    -0.477 OA
DOCKED: ATOM     43  H   UNL d   1      -8.984  20.002  10.999 -0.39 -0.67    +0.295 HD
DOCKED: ENDBRANCH  40  42
DOCKED: ENDBRANCH  39  40
DOCKED: ENDBRANCH  27  38
DOCKED: BRANCH   8  44
DOCKED: ATOM     44  C   UNL d   1      -6.096  16.803  -0.583 -0.10 -0.05    +0.141 C 
DOCKED: BRANCH  44  45
DOCKED: ATOM     45  C   UNL d   1      -6.290  15.597  -1.463 -0.09 -0.14    +0.306 C 
DOCKED: ATOM     46  O   UNL d   1      -5.426  14.825  -1.840 -0.25 +0.20    -0.251 OA
DOCKED: BRANCH  45  47
DOCKED: ATOM     47  O   UNL d   1      -7.570  15.441  -1.847 +0.02 +0.15    -0.481 OA
DOCKED: ATOM     48  H   UNL d   1      -8.091  15.936  -1.180 +0.05 -0.07    +0.295 HD
DOCKED: ENDBRANCH  45  47
DOCKED: ENDBRANCH  44  45
DOCKED: ENDBRANCH   8  44
DOCKED: BRANCH  22  49
DOCKED: ATOM     49  C   UNL d   1     -10.381  21.805   6.452 -0.06 -0.02    +0.048 C 
DOCKED: BRANCH  49  50
DOCKED: ATOM     50  C   UNL d   1     -10.812  21.109   7.742 -0.09 -0.09    +0.125 C 
DOCKED: BRANCH  50  51
DOCKED: ATOM     51  C   UNL d   1     -12.014  20.239   7.506 -0.07 -0.18    +0.305 C 
DOCKED: ATOM     52  O   UNL d   1     -13.021  20.517   6.880 -0.02 +0.08    -0.251 OA
DOCKED: BRANCH  51  53
DOCKED: ATOM     53  O   UNL d   1     -11.888  19.034   8.097 -0.09 +0.46    -0.481 OA
DOCKED: ATOM     54  H   UNL d   1     -11.016  19.077   8.543 -0.44 -0.68    +0.295 HD
DOCKED: ENDBRANCH  51  53
DOCKED: ENDBRANCH  50  51
DOCKED: ENDBRANCH  49  50
DOCKED: ENDBRANCH  22  49
DOCKED: TORSDOF 13
DOCKED: TER
DOCKED: ENDMDL
________________________________________________________________________________


	BEGINNING GENETIC ALGORITHM DOCKING 4 of 100
Run: 4 Seed: 1903903393 1758222444 [ Run 4 of 100 GA/GALS ]
Beginning LAMARCKIAN GENETIC ALGORITHM (LGA), with a maximum of 25000000 energy evaluations.

Final-Value: -11.417


	FINAL GENETIC ALGORITHM DOCKED STATE
	_______________________________________________


Detailed state:  trans 14.318 16.451 -6.178 quatxyzw 0.107390 0.205067 -0.935580 0.266656 center 0.153 0.018 -0.028 ntor 13 138.1314 -46.9714 -105.8826 128.7185 -136.5884 -4.2040 171.5909 -65.4589 47.6152 20.3578 100.7658 -87.6653 166.5221
State:	 14.318  16.451  -6.178   0.111  0.213 -0.971 149.069    138.13  -46.97 -105.88  128.72 -136.59   -4.20  171.59  -65.46   47.62   20.36  100.77  -87.67  166.52

DOCKED: MODEL        4
DOCKED: USER    Run = 4
DOCKED: USER    DPF = D:/Protein_go_brrr/autodock/final/mut_Y35F/heme/dock.dpf
DOCKED: USER  
DOCKED: USER    Estimated Free Energy of Binding    =   -5.06 kcal/mol  [=(1)+(2)+(3)-(4)]
DOCKED: USER    Estimated Inhibition Constant, Ki   =  195.18 uM (micromolar)  [Temperature = 298.15 K]
DOCKED: USER    
DOCKED: USER    (1) Final Intermolecular Energy     =   -8.94 kcal/mol
DOCKED: USER        vdW + Hbond + desolv Energy     =   -8.52 kcal/mol
DOCKED: USER        Electrostatic Energy            =   -0.41 kcal/mol
DOCKED: USER    (2) Final Total Internal Energy     =   -2.48 kcal/mol
DOCKED: USER    (3) Torsional Free Energy           =   +3.88 kcal/mol
DOCKED: USER    (4) Unbound System's Energy  [=(2)] =   -2.48 kcal/mol
DOCKED: USER    
DOCKED: USER    
DOCKED: USER    NEWDPF move heme_opt.pdbqt
DOCKED: USER    NEWDPF about 0.153000 0.018000 -0.028000
DOCKED: USER    NEWDPF tran0 14.317613 16.451423 -6.178090
DOCKED: USER    NEWDPF quaternion0 0.107390 0.205067 -0.935580 0.266656
DOCKED: USER    NEWDPF axisangle0 0.111425 0.212771 -0.970728 149.069236
DOCKED: USER    NEWDPF quat0 0.111425 0.212771 -0.970728 149.069236
DOCKED: USER    NEWDPF dihe0 138.13 -46.97 -105.88 128.72 -136.59 -4.20 171.59 -65.46 47.62 20.36 100.77 -87.67 166.52 
DOCKED: USER  keepresnum = 1 
DOCKED: USER  
DOCKED: REMARK  13 active torsions:
DOCKED: REMARK  status: ('A' for Active; 'I' for Inactive)
DOCKED: REMARK    1  A    between atoms: O_3  and  C_38 
DOCKED: REMARK    2  A    between atoms: O_4  and  C_40 
DOCKED: REMARK    3  A    between atoms: O_7  and  C_46 
DOCKED: REMARK    4  A    between atoms: O_9  and  C_48 
DOCKED: REMARK    5  A    between atoms: C_15  and  C_20 
DOCKED: REMARK    6  A    between atoms: C_16  and  C_23 
DOCKED: REMARK    7  A    between atoms: C_20  and  C_38 
DOCKED: REMARK    8  A    between atoms: C_23  and  C_40 
DOCKED: REMARK    9  A    between atoms: C_32  and  C_41 
DOCKED: REMARK   10  A    between atoms: C_37  and  C_45 
DOCKED: REMARK   11  A    between atoms: C_41  and  C_44 
DOCKED: REMARK   12  A    between atoms: C_44  and  C_46 
DOCKED: REMARK   13  A    between atoms: C_47  and  C_48 
DOCKED: USER                              x       y       z     vdW  Elec       q    Type
DOCKED: USER                           _______ _______ _______ _____ _____    ______ ____
DOCKED: ROOT
DOCKED: ATOM      1  O   UNL d   1      18.032  11.886  -5.831 -0.20 +0.11    -0.289 OA
DOCKED: ATOM      2  O   UNL d   1      19.230  19.273  -5.208 -0.00 +0.06    -0.289 OA
DOCKED: ATOM      3  N   UNL d   1      15.532  14.226  -6.248 -0.11 +0.09    -0.247 NA
DOCKED: ATOM      4  N   UNL d   1      16.862  16.783  -5.525 -0.08 +0.13    -0.247 NA
DOCKED: ATOM      5  N   UNL d   1      14.259  17.999  -5.415 +0.02 +0.38    -0.354 N 
DOCKED: ATOM      6  N   UNL d   1      12.886  15.338  -6.146 -0.16 +0.16    -0.354 N 
DOCKED: ATOM      7  C   UNL d   1      15.612  11.778  -6.160 -0.37 -0.02    +0.084 A 
DOCKED: ATOM      8  C   UNL d   1      19.287  16.901  -5.810 -0.01 -0.02    +0.084 A 
DOCKED: ATOM      9  C   UNL d   1      17.998  16.072  -5.843 -0.06 -0.02    +0.058 A 
DOCKED: ATOM     10  C   UNL d   1      14.788  13.060  -6.307 -0.31 -0.02    +0.058 A 
DOCKED: ATOM     11  C   UNL d   1      16.958  12.425  -6.026 -0.19 -0.06    +0.193 A 
DOCKED: ATOM     12  C   UNL d   1      16.780  13.909  -6.121 -0.14 -0.03    +0.109 A 
DOCKED: ATOM     13  C   UNL d   1      18.676  18.205  -5.379 -0.01 -0.06    +0.193 A 
DOCKED: ATOM     14  C   UNL d   1      15.289  11.033  -4.862 -0.53 -0.01    +0.026 C 
DOCKED: ATOM     15  C   UNL d   1      17.989  14.757  -6.108 -0.09 -0.02    +0.055 C 
DOCKED: ATOM     16  C   UNL d   1      19.885  17.077  -7.209 -0.01 -0.00    +0.026 C 
DOCKED: ATOM     17  C   UNL d   1      17.203  17.997  -5.234 -0.07 -0.05    +0.109 A 
DOCKED: ATOM     18  C   UNL d   1      13.466  13.021  -6.562 -0.39 -0.01    +0.050 C 
DOCKED: ATOM     19  C   UNL d   1      12.640  14.149  -6.796 -0.31 -0.01    +0.045 A 
DOCKED: ATOM     20  C   UNL d   1      15.014  19.008  -4.876 -0.07 -0.04    +0.045 A 
DOCKED: ATOM     21  C   UNL d   1      16.344  19.099  -4.777 -0.08 -0.04    +0.057 C 
DOCKED: ATOM     22  C   UNL d   1      12.804  19.558  -4.691 -0.08 +0.01    -0.019 A 
DOCKED: ATOM     23  C   UNL d   1      12.913  18.241  -5.349 -0.01 -0.04    +0.045 A 
DOCKED: ATOM     24  C   UNL d   1      14.051  20.008  -4.415 -0.07 +0.02    -0.022 A 
DOCKED: ATOM     25  C   UNL d   1      11.916  16.264  -6.450 -0.16 -0.02    +0.049 A 
DOCKED: ATOM     26  C   UNL d   1      11.502  14.320  -7.570 -0.34 +0.00    -0.018 A 
DOCKED: ATOM     27  C   UNL d   1      11.060  15.663  -7.362 -0.19 -0.00    +0.003 A 
DOCKED: ATOM     28  C   UNL d   1      11.868  17.516  -5.778 -0.19 -0.03    +0.052 C 
DOCKED: ATOM     29  C   UNL d   1      14.459  21.288  -3.768 -0.03 -0.02    +0.046 C 
DOCKED: ATOM     30  C   UNL d   1      10.863  13.300  -8.450 -0.44 -0.01    +0.046 C 
DOCKED: ATOM     31  H   UNL d   1      14.693  17.208  -5.880 +0.00 -0.14    +0.166 HD
DOCKED: ATOM     32  H   UNL d   1      13.658  15.476  -5.505 -0.03 -0.14    +0.166 HD
DOCKED: ENDROOT
DOCKED: BRANCH   7  33
DOCKED: ATOM     33  C   UNL d   1      15.586  10.837  -7.370 -0.29 -0.04    +0.141 C 
DOCKED: BRANCH  33  34
DOCKED: ATOM     34  C   UNL d   1      16.755  11.049  -8.293 -0.26 -0.09    +0.306 C 
DOCKED: ATOM     35  O   UNL d   1      16.844  11.903  -9.158 -0.14 +0.06    -0.251 OA
DOCKED: BRANCH  34  36
DOCKED: ATOM     36  O   UNL d   1      17.752  10.173  -8.076 -0.63 +0.10    -0.481 OA
DOCKED: ATOM     37  H   UNL d   1      17.846  10.143  -7.100 -0.39 -0.17    +0.295 HD
DOCKED: ENDBRANCH  34  36
DOCKED: ENDBRANCH  33  34
DOCKED: ENDBRANCH   7  33
DOCKED: BRANCH  27  38
DOCKED: ATOM     38  C   UNL d   1       9.903  16.253  -7.963 -0.26 +0.00    +0.017 C 
DOCKED: ATOM     39  C   UNL d   1       8.936  16.907  -7.302 -0.17 +0.02    +0.092 C 
DOCKED: BRANCH  39  40
DOCKED: ATOM     40  C   UNL d   1       7.808  17.482  -8.040 -0.13 +0.08    +0.330 C 
DOCKED: ATOM     41  O   UNL d   1       7.660  17.541  -9.246 -0.08 -0.03    -0.246 OA
DOCKED: BRANCH  40  42
DOCKED: ATOM     42  O   UNL d   1       6.891  17.960  -7.184 -0.52 -0.31    -0.477 OA
DOCKED: ATOM     43  H   UNL d   1       6.680  18.848  -7.537 +0.05 +0.13    +0.295 HD
DOCKED: ENDBRANCH  40  42
DOCKED: ENDBRANCH  39  40
DOCKED: ENDBRANCH  27  38
DOCKED: BRANCH   8  44
DOCKED: ATOM     44  C   UNL d   1      20.347  16.434  -4.808 -0.01 -0.03    +0.141 C 
DOCKED: BRANCH  44  45
DOCKED: ATOM     45  C   UNL d   1      19.763  15.755  -3.598 -0.04 -0.08    +0.306 C 
DOCKED: ATOM     46  O   UNL d   1      20.071  14.660  -3.159 -0.07 +0.06    -0.251 OA
DOCKED: BRANCH  45  47
DOCKED: ATOM     47  O   UNL d   1      18.795  16.485  -3.015 -0.05 +0.23    -0.481 OA
DOCKED: ATOM     48  H   UNL d   1      18.029  16.411  -3.623 +0.05 -0.18    +0.295 HD
DOCKED: ENDBRANCH  45  47
DOCKED: ENDBRANCH  44  45
DOCKED: ENDBRANCH   8  44
DOCKED: BRANCH  22  49
DOCKED: ATOM     49  C   UNL d   1      11.504  20.242  -4.383 -0.06 -0.02    +0.048 C 
DOCKED: BRANCH  49  50
DOCKED: ATOM     50  C   UNL d   1      10.892  19.737  -3.077 -0.08 -0.05    +0.125 C 
DOCKED: BRANCH  50  51
DOCKED: ATOM     51  C   UNL d   1      10.218  18.409  -3.278 -0.14 -0.11    +0.305 C 
DOCKED: ATOM     52  O   UNL d   1       9.179  18.186  -3.873 -0.17 -0.02    -0.251 OA
DOCKED: BRANCH  51  53
DOCKED: ATOM     53  O   UNL d   1      10.900  17.404  -2.694 -0.16 +0.43    -0.481 OA
DOCKED: ATOM     54  H   UNL d   1      11.814  17.509  -3.031 -0.31 -0.57    +0.295 HD
DOCKED: ENDBRANCH  51  53
DOCKED: ENDBRANCH  50  51
DOCKED: ENDBRANCH  49  50
DOCKED: ENDBRANCH  22  49
DOCKED: TORSDOF 13
DOCKED: TER
DOCKED: ENDMDL
________________________________________________________________________________


	BEGINNING GENETIC ALGORITHM DOCKING 5 of 100
Run: 5 Seed: 1687007933 1374190979 [ Run 5 of 100 GA/GALS ]
Beginning LAMARCKIAN GENETIC ALGORITHM (LGA), with a maximum of 25000000 energy evaluations.

Final-Value: -10.610


	FINAL GENETIC ALGORITHM DOCKED STATE
	_______________________________________________


Detailed state:  trans 15.303 16.682 -6.333 quatxyzw -0.197665 -0.319094 0.489731 -0.786938 center 0.153 0.018 -0.028 ntor 13 -96.4783 -166.6479 -145.3200 35.6890 47.7482 -55.3002 126.6740 96.6425 138.6644 -18.7693 -43.8485 3.1964 20.3743
State:	 15.303  16.682  -6.333  -0.320 -0.517  0.794 -76.199    -96.48 -166.65 -145.32   35.69   47.75  -55.30  126.67   96.64  138.66  -18.77  -43.85    3.20   20.37

DOCKED: MODEL        5
DOCKED: USER    Run = 5
DOCKED: USER    DPF = D:/Protein_go_brrr/autodock/final/mut_Y35F/heme/dock.dpf
DOCKED: USER  
DOCKED: USER    Estimated Free Energy of Binding    =   -2.79 kcal/mol  [=(1)+(2)+(3)-(4)]
DOCKED: USER    Estimated Inhibition Constant, Ki   =    9.07 mM (millimolar)  [Temperature = 298.15 K]
DOCKED: USER    
DOCKED: USER    (1) Final Intermolecular Energy     =   -6.66 kcal/mol
DOCKED: USER        vdW + Hbond + desolv Energy     =   -6.66 kcal/mol
DOCKED: USER        Electrostatic Energy            =   -0.00 kcal/mol
DOCKED: USER    (2) Final Total Internal Energy     =   -3.95 kcal/mol
DOCKED: USER    (3) Torsional Free Energy           =   +3.88 kcal/mol
DOCKED: USER    (4) Unbound System's Energy  [=(2)] =   -3.95 kcal/mol
DOCKED: USER    
DOCKED: USER    
DOCKED: USER    NEWDPF move heme_opt.pdbqt
DOCKED: USER    NEWDPF about 0.153000 0.018000 -0.028000
DOCKED: USER    NEWDPF tran0 15.303235 16.681910 -6.333082
DOCKED: USER    NEWDPF quaternion0 -0.197665 -0.319094 0.489731 -0.786938
DOCKED: USER    NEWDPF axisangle0 -0.320348 -0.517143 0.793688 -76.199455
DOCKED: USER    NEWDPF quat0 -0.320348 -0.517143 0.793688 -76.199455
DOCKED: USER    NEWDPF dihe0 -96.48 -166.65 -145.32 35.69 47.75 -55.30 126.67 96.64 138.66 -18.77 -43.85 3.20 20.37 
DOCKED: USER  keepresnum = 1 
DOCKED: USER  
DOCKED: REMARK  13 active torsions:
DOCKED: REMARK  status: ('A' for Active; 'I' for Inactive)
DOCKED: REMARK    1  A    between atoms: O_3  and  C_38 
DOCKED: REMARK    2  A    between atoms: O_4  and  C_40 
DOCKED: REMARK    3  A    between atoms: O_7  and  C_46 
DOCKED: REMARK    4  A    between atoms: O_9  and  C_48 
DOCKED: REMARK    5  A    between atoms: C_15  and  C_20 
DOCKED: REMARK    6  A    between atoms: C_16  and  C_23 
DOCKED: REMARK    7  A    between atoms: C_20  and  C_38 
DOCKED: REMARK    8  A    between atoms: C_23  and  C_40 
DOCKED: REMARK    9  A    between atoms: C_32  and  C_41 
DOCKED: REMARK   10  A    between atoms: C_37  and  C_45 
DOCKED: REMARK   11  A    between atoms: C_41  and  C_44 
DOCKED: REMARK   12  A    between atoms: C_44  and  C_46 
DOCKED: REMARK   13  A    between atoms: C_47  and  C_48 
DOCKED: USER                              x       y       z     vdW  Elec       q    Type
DOCKED: USER                           _______ _______ _______ _____ _____    ______ ____
DOCKED: ROOT
DOCKED: ATOM      1  O   UNL d   1      11.987  12.395  -8.653 -0.07 +0.08    -0.289 OA
DOCKED: ATOM      2  O   UNL d   1      18.684  12.158  -5.265 -0.20 +0.10    -0.289 OA
DOCKED: ATOM      3  N   UNL d   1      13.628  15.225  -7.559 -0.06 +0.07    -0.247 NA
DOCKED: ATOM      4  N   UNL d   1      15.985  14.132  -6.116 -0.11 +0.08    -0.247 NA
DOCKED: ATOM      5  N   UNL d   1      16.399  16.750  -5.001 -0.08 +0.28    -0.354 N 
DOCKED: ATOM      6  N   UNL d   1      13.941  17.870  -6.486 -0.04 +0.20    -0.354 N 
DOCKED: ATOM      7  C   UNL d   1      11.417  14.768  -8.514 -0.22 -0.01    +0.084 A 
DOCKED: ATOM      8  C   UNL d   1      16.789  11.927  -6.797 -0.25 -0.03    +0.084 A 
DOCKED: ATOM      9  C   UNL d   1      15.741  13.039  -6.917 -0.18 -0.02    +0.058 A 
DOCKED: ATOM     10  C   UNL d   1      12.421  15.779  -7.950 -0.12 -0.01    +0.058 A 
DOCKED: ATOM     11  C   UNL d   1      12.279  13.548  -8.391 -0.22 -0.04    +0.193 A 
DOCKED: ATOM     12  C   UNL d   1      13.602  13.959  -7.824 -0.17 -0.03    +0.109 A 
DOCKED: ATOM     13  C   UNL d   1      17.652  12.576  -5.752 -0.18 -0.06    +0.193 A 
DOCKED: ATOM     14  C   UNL d   1      10.195  14.605  -7.608 -0.39 -0.00    +0.026 C 
DOCKED: ATOM     15  C   UNL d   1      14.655  12.931  -7.697 -0.24 -0.01    +0.055 C 
DOCKED: ATOM     16  C   UNL d   1      17.605  11.774  -8.084 -0.28 -0.01    +0.026 C 
DOCKED: ATOM     17  C   UNL d   1      17.052  13.904  -5.420 -0.17 -0.03    +0.109 A 
DOCKED: ATOM     18  C   UNL d   1      12.155  17.098  -7.933 -0.09 -0.01    +0.050 C 
DOCKED: ATOM     19  C   UNL d   1      13.052  18.112  -7.509 -0.04 -0.01    +0.045 A 
DOCKED: ATOM     20  C   UNL d   1      17.293  16.030  -4.251 -0.12 -0.03    +0.045 A 
DOCKED: ATOM     21  C   UNL d   1      17.664  14.753  -4.387 -0.20 -0.02    +0.057 C 
DOCKED: ATOM     22  C   UNL d   1      17.178  18.156  -3.424 -0.10 +0.02    -0.019 A 
DOCKED: ATOM     23  C   UNL d   1      16.262  18.045  -4.577 -0.08 -0.04    +0.045 A 
DOCKED: ATOM     24  C   UNL d   1      17.786  16.961  -3.237 -0.11 +0.02    -0.022 A 
DOCKED: ATOM     25  C   UNL d   1      14.647  19.010  -6.179 -0.06 -0.02    +0.049 A 
DOCKED: ATOM     26  C   UNL d   1      13.209  19.432  -7.901 -0.01 +0.00    -0.018 A 
DOCKED: ATOM     27  C   UNL d   1      14.231  19.989  -7.071 -0.01 -0.00    +0.003 A 
DOCKED: ATOM     28  C   UNL d   1      15.513  19.051  -5.053 -0.08 -0.04    +0.052 C 
DOCKED: ATOM     29  C   UNL d   1      18.798  16.579  -2.211 -0.13 -0.02    +0.046 C 
DOCKED: ATOM     30  C   UNL d   1      12.459  20.136  -8.981 -0.00 -0.01    +0.046 C 
DOCKED: ATOM     31  H   UNL d   1      15.965  16.352  -5.827 +0.03 -0.10    +0.166 HD
DOCKED: ATOM     32  H   UNL d   1      14.020  16.979  -6.011 -0.01 -0.13    +0.166 HD
DOCKED: ENDROOT
DOCKED: BRANCH   7  33
DOCKED: ATOM     33  C   UNL d   1      11.009  14.993  -9.974 -0.13 -0.01    +0.141 C 
DOCKED: BRANCH  33  34
DOCKED: ATOM     34  C   UNL d   1       9.913  14.064 -10.419 -0.18 -0.03    +0.306 C 
DOCKED: ATOM     35  O   UNL d   1       8.732  14.345 -10.534 -0.24 -0.00    -0.251 OA
DOCKED: BRANCH  34  36
DOCKED: ATOM     36  O   UNL d   1      10.363  12.827 -10.699 -0.15 +0.09    -0.481 OA
DOCKED: ATOM     37  H   UNL d   1      10.439  12.389  -9.824 -0.12 -0.11    +0.295 HD
DOCKED: ENDBRANCH  34  36
DOCKED: ENDBRANCH  33  34
DOCKED: ENDBRANCH   7  33
DOCKED: BRANCH  27  38
DOCKED: ATOM     38  C   UNL d   1      14.698  21.342  -7.132 -0.00 -0.00    +0.017 C 
DOCKED: ATOM     39  C   UNL d   1      15.978  21.725  -7.013 +0.00 -0.02    +0.092 C 
DOCKED: BRANCH  39  40
DOCKED: ATOM     40  C   UNL d   1      16.327  23.145  -7.112 +0.00 -0.04    +0.330 C 
DOCKED: ATOM     41  O   UNL d   1      16.101  23.904  -8.035 +0.00 +0.02    -0.246 OA
DOCKED: BRANCH  40  42
DOCKED: ATOM     42  O   UNL d   1      16.956  23.544  -5.995 +0.00 +0.06    -0.477 OA
DOCKED: ATOM     43  H   UNL d   1      17.182  22.707  -5.541 +0.00 -0.04    +0.295 HD
DOCKED: ENDBRANCH  40  42
DOCKED: ENDBRANCH  39  40
DOCKED: ENDBRANCH  27  38
DOCKED: BRANCH   8  44
DOCKED: ATOM     44  C   UNL d   1      16.263  10.573  -6.310 -0.35 -0.05    +0.141 C 
DOCKED: BRANCH  44  45
DOCKED: ATOM     45  C   UNL d   1      15.819  10.591  -4.871 -0.27 -0.11    +0.306 C 
DOCKED: ATOM     46  O   UNL d   1      14.741  10.970  -4.448 -0.40 +0.09    -0.251 OA
DOCKED: BRANCH  45  47
DOCKED: ATOM     47  O   UNL d   1      16.775  10.152  -4.033 -0.37 +0.20    -0.481 OA
DOCKED: ATOM     48  H   UNL d   1      17.617  10.448  -4.440 -0.37 -0.17    +0.295 HD
DOCKED: ENDBRANCH  45  47
DOCKED: ENDBRANCH  44  45
DOCKED: ENDBRANCH   8  44
DOCKED: BRANCH  22  49
DOCKED: ATOM     49  C   UNL d   1      17.361  19.404  -2.611 -0.08 -0.03    +0.048 C 
DOCKED: BRANCH  49  50
DOCKED: ATOM     50  C   UNL d   1      17.933  20.549  -3.446 -0.01 -0.04    +0.125 C 
DOCKED: BRANCH  50  51
DOCKED: ATOM     51  C   UNL d   1      17.227  21.840  -3.143 +0.00 -0.08    +0.305 C 
DOCKED: ATOM     52  O   UNL d   1      17.524  22.669  -2.301 +0.00 +0.05    -0.251 OA
DOCKED: BRANCH  51  53
DOCKED: ATOM     53  O   UNL d   1      16.146  22.020  -3.928 +0.01 +0.12    -0.481 OA
DOCKED: ATOM     54  H   UNL d   1      16.125  22.987  -4.085 +0.01 -0.05    +0.295 HD
DOCKED: ENDBRANCH  51  53
DOCKED: ENDBRANCH  50  51
DOCKED: ENDBRANCH  49  50
DOCKED: ENDBRANCH  22  49
DOCKED: TORSDOF 13
DOCKED: TER
DOCKED: ENDMDL
________________________________________________________________________________


	BEGINNING GENETIC ALGORITHM DOCKING 6 of 100
Run: 6 Seed: 50802875 2067061 [ Run 6 of 100 GA/GALS ]
Beginning LAMARCKIAN GENETIC ALGORITHM (LGA), with a maximum of 25000000 energy evaluations.

Final-Value: -12.020


	FINAL GENETIC ALGORITHM DOCKED STATE
	_______________________________________________


Detailed state:  trans 9.192 12.989 -13.196 quatxyzw -0.038284 -0.486957 0.574562 -0.656723 center 0.153 0.018 -0.028 ntor 13 142.8727 85.8242 -115.2886 -151.4508 -137.6452 105.0971 123.7858 18.5600 24.9248 -18.3201 -41.8777 -96.0587 25.8289
State:	  9.192  12.989 -13.196  -0.051 -0.646  0.762 -97.899    142.87   85.82 -115.29 -151.45 -137.65  105.10  123.79   18.56   24.92  -18.32  -41.88  -96.06   25.83

DOCKED: MODEL        6
DOCKED: USER    Run = 6
DOCKED: USER    DPF = D:/Protein_go_brrr/autodock/final/mut_Y35F/heme/dock.dpf
DOCKED: USER  
DOCKED: USER    Estimated Free Energy of Binding    =   -4.03 kcal/mol  [=(1)+(2)+(3)-(4)]
DOCKED: USER    Estimated Inhibition Constant, Ki   =    1.10 mM (millimolar)  [Temperature = 298.15 K]
DOCKED: USER    
DOCKED: USER    (1) Final Intermolecular Energy     =   -7.91 kcal/mol
DOCKED: USER        vdW + Hbond + desolv Energy     =   -7.81 kcal/mol
DOCKED: USER        Electrostatic Energy            =   -0.10 kcal/mol
DOCKED: USER    (2) Final Total Internal Energy     =   -4.11 kcal/mol
DOCKED: USER    (3) Torsional Free Energy           =   +3.88 kcal/mol
DOCKED: USER    (4) Unbound System's Energy  [=(2)] =   -4.11 kcal/mol
DOCKED: USER    
DOCKED: USER    
DOCKED: USER    NEWDPF move heme_opt.pdbqt
DOCKED: USER    NEWDPF about 0.153000 0.018000 -0.028000
DOCKED: USER    NEWDPF tran0 9.192422 12.989102 -13.195675
DOCKED: USER    NEWDPF quaternion0 -0.038284 -0.486957 0.574562 -0.656723
DOCKED: USER    NEWDPF axisangle0 -0.050765 -0.645719 0.761886 -97.899128
DOCKED: USER    NEWDPF quat0 -0.050765 -0.645719 0.761886 -97.899128
DOCKED: USER    NEWDPF dihe0 142.87 85.82 -115.29 -151.45 -137.65 105.10 123.79 18.56 24.92 -18.32 -41.88 -96.06 25.83 
DOCKED: USER  keepresnum = 1 
DOCKED: USER  
DOCKED: REMARK  13 active torsions:
DOCKED: REMARK  status: ('A' for Active; 'I' for Inactive)
DOCKED: REMARK    1  A    between atoms: O_3  and  C_38 
DOCKED: REMARK    2  A    between atoms: O_4  and  C_40 
DOCKED: REMARK    3  A    between atoms: O_7  and  C_46 
DOCKED: REMARK    4  A    between atoms: O_9  and  C_48 
DOCKED: REMARK    5  A    between atoms: C_15  and  C_20 
DOCKED: REMARK    6  A    between atoms: C_16  and  C_23 
DOCKED: REMARK    7  A    between atoms: C_20  and  C_38 
DOCKED: REMARK    8  A    between atoms: C_23  and  C_40 
DOCKED: REMARK    9  A    between atoms: C_32  and  C_41 
DOCKED: REMARK   10  A    between atoms: C_37  and  C_45 
DOCKED: REMARK   11  A    between atoms: C_41  and  C_44 
DOCKED: REMARK   12  A    between atoms: C_44  and  C_46 
DOCKED: REMARK   13  A    between atoms: C_47  and  C_48 
DOCKED: USER                              x       y       z     vdW  Elec       q    Type
DOCKED: USER                           _______ _______ _______ _____ _____    ______ ____
DOCKED: ROOT
DOCKED: ATOM      1  O   UNL d   1       8.292   8.784 -17.229 -0.05 +0.02    -0.289 OA
DOCKED: ATOM      2  O   UNL d   1      14.106  10.057 -12.648 -0.28 +0.10    -0.289 OA
DOCKED: ATOM      3  N   UNL d   1       8.433  11.492 -15.097 -0.04 -0.00    -0.247 NA
DOCKED: ATOM      4  N   UNL d   1      10.898  10.989 -13.516 -0.05 +0.02    -0.247 NA
DOCKED: ATOM      5  N   UNL d   1      10.031  13.031 -11.687 -0.13 +0.03    -0.354 N 
DOCKED: ATOM      6  N   UNL d   1       7.467  13.533 -13.323 -0.13 -0.01    -0.354 N 
DOCKED: ATOM      7  C   UNL d   1       6.734  10.559 -16.597 -0.10 -0.00    +0.084 A 
DOCKED: ATOM      8  C   UNL d   1      12.639   9.631 -14.562 -0.17 -0.02    +0.084 A 
DOCKED: ATOM      9  C   UNL d   1      11.226  10.220 -14.610 -0.14 -0.01    +0.058 A 
DOCKED: ATOM     10  C   UNL d   1       7.143  11.629 -15.581 -0.12 -0.00    +0.058 A 
DOCKED: ATOM     11  C   UNL d   1       8.028   9.802 -16.615 -0.07 -0.01    +0.193 A 
DOCKED: ATOM     12  C   UNL d   1       8.986  10.481 -15.685 +0.02 -0.00    +0.109 A 
DOCKED: ATOM     13  C   UNL d   1      13.040  10.177 -13.220 -0.21 -0.05    +0.193 A 
DOCKED: ATOM     14  C   UNL d   1       5.633   9.643 -16.055 -0.20 -0.00    +0.026 C 
DOCKED: ATOM     15  C   UNL d   1      10.366   9.963 -15.608 -0.12 -0.00    +0.055 C 
DOCKED: ATOM     16  C   UNL d   1      13.547  10.242 -15.634 -0.12 -0.01    +0.026 C 
DOCKED: ATOM     17  C   UNL d   1      11.894  10.976 -12.689 -0.22 -0.02    +0.109 A 
DOCKED: ATOM     18  C   UNL d   1       6.328  12.656 -15.275 -0.16 -0.00    +0.050 C 
DOCKED: ATOM     19  C   UNL d   1       6.652  13.735 -14.414 -0.15 +0.00    +0.045 A 
DOCKED: ATOM     20  C   UNL d   1      11.081  12.511 -10.978 -0.29 -0.01    +0.045 A 
DOCKED: ATOM     21  C   UNL d   1      11.983  11.601 -11.362 -0.18 -0.02    +0.057 C 
DOCKED: ATOM     22  C   UNL d   1       9.980  14.020  -9.664 -0.31 +0.00    -0.019 A 
DOCKED: ATOM     23  C   UNL d   1       9.307  13.951 -10.977 -0.25 -0.00    +0.045 A 
DOCKED: ATOM     24  C   UNL d   1      11.030  13.166  -9.672 -0.33 +0.00    -0.022 A 
DOCKED: ATOM     25  C   UNL d   1       7.574  14.686 -12.580 -0.20 +0.00    +0.049 A 
DOCKED: ATOM     26  C   UNL d   1       6.249  15.062 -14.400 -0.07 +0.00    -0.018 A 
DOCKED: ATOM     27  C   UNL d   1       6.850  15.662 -13.251 -0.10 +0.00    +0.003 A 
DOCKED: ATOM     28  C   UNL d   1       8.236  14.683 -11.322 -0.27 +0.00    +0.052 C 
DOCKED: ATOM     29  C   UNL d   1      12.016  12.891  -8.588 -0.25 -0.01    +0.046 C 
DOCKED: ATOM     30  C   UNL d   1       5.362  15.733 -15.393 -0.03 -0.00    +0.046 C 
DOCKED: ATOM     31  H   UNL d   1       9.886  12.795 -12.663 +0.05 -0.01    +0.166 HD
DOCKED: ATOM     32  H   UNL d   1       7.886  12.640 -13.095 +0.05 +0.01    +0.166 HD
DOCKED: ENDROOT
DOCKED: BRANCH   7  33
DOCKED: ATOM     33  C   UNL d   1       6.395  11.078 -17.998 -0.03 -0.01    +0.141 C 
DOCKED: BRANCH  33  34
DOCKED: ATOM     34  C   UNL d   1       7.613  11.519 -18.763 -0.01 -0.02    +0.306 C 
DOCKED: ATOM     35  O   UNL d   1       8.159  12.607 -18.683 -0.00 +0.01    -0.251 OA
DOCKED: BRANCH  34  36
DOCKED: ATOM     36  O   UNL d   1       8.081  10.566 -19.588 +0.00 +0.03    -0.481 OA
DOCKED: ATOM     37  H   UNL d   1       7.987   9.732 -19.080 +0.01 -0.02    +0.295 HD
DOCKED: ENDBRANCH  34  36
DOCKED: ENDBRANCH  33  34
DOCKED: ENDBRANCH   7  33
DOCKED: BRANCH  27  38
DOCKED: ATOM     38  C   UNL d   1       6.682  17.026 -12.849 -0.06 +0.00    +0.017 C 
DOCKED: ATOM     39  C   UNL d   1       6.177  17.431 -11.674 -0.06 +0.00    +0.092 C 
DOCKED: BRANCH  39  40
DOCKED: ATOM     40  C   UNL d   1       6.074  18.862 -11.378 -0.00 +0.01    +0.330 C 
DOCKED: ATOM     41  O   UNL d   1       5.077  19.558 -11.408 -0.00 -0.01    -0.246 OA
DOCKED: BRANCH  40  42
DOCKED: ATOM     42  O   UNL d   1       7.277  19.351 -11.039 +0.01 -0.01    -0.477 OA
DOCKED: ATOM     43  H   UNL d   1       7.284  19.299 -10.061 +0.03 +0.02    +0.295 HD
DOCKED: ENDBRANCH  40  42
DOCKED: ENDBRANCH  39  40
DOCKED: ENDBRANCH  27  38
DOCKED: BRANCH   8  44
DOCKED: ATOM     44  C   UNL d   1      12.718   8.100 -14.576 -0.27 -0.04    +0.141 C 
DOCKED: BRANCH  44  45
DOCKED: ATOM     45  C   UNL d   1      12.181   7.466 -13.321 -0.33 -0.06    +0.306 C 
DOCKED: ATOM     46  O   UNL d   1      11.009   7.277 -13.046 -0.45 +0.04    -0.251 OA
DOCKED: BRANCH  45  47
DOCKED: ATOM     47  O   UNL d   1      13.156   7.124 -12.459 -0.71 +0.19    -0.481 OA
DOCKED: ATOM     48  H   UNL d   1      13.569   7.976 -12.201 -0.35 -0.17    +0.295 HD
DOCKED: ENDBRANCH  45  47
DOCKED: ENDBRANCH  44  45
DOCKED: ENDBRANCH   8  44
DOCKED: BRANCH  22  49
DOCKED: ATOM     49  C   UNL d   1       9.529  14.895  -8.531 -0.42 +0.00    +0.048 C 
DOCKED: BRANCH  49  50
DOCKED: ATOM     50  C   UNL d   1       9.485  16.369  -8.933 -0.17 +0.00    +0.125 C 
DOCKED: BRANCH  50  51
DOCKED: ATOM     51  C   UNL d   1       8.264  17.042  -8.373 -0.14 +0.05    +0.305 C 
DOCKED: ATOM     52  O   UNL d   1       7.502  16.611  -7.525 -0.30 -0.10    -0.251 OA
DOCKED: BRANCH  51  53
DOCKED: ATOM     53  O   UNL d   1       8.052  18.250  -8.932 +0.00 -0.06    -0.481 OA
DOCKED: ATOM     54  H   UNL d   1       8.445  18.170  -9.826 +0.05 +0.01    +0.295 HD
DOCKED: ENDBRANCH  51  53
DOCKED: ENDBRANCH  50  51
DOCKED: ENDBRANCH  49  50
DOCKED: ENDBRANCH  22  49
DOCKED: TORSDOF 13
DOCKED: TER
DOCKED: ENDMDL
________________________________________________________________________________


	BEGINNING GENETIC ALGORITHM DOCKING 7 of 100
Run: 7 Seed: 1839472758 1560124820 [ Run 7 of 100 GA/GALS ]
Beginning LAMARCKIAN GENETIC ALGORITHM (LGA), with a maximum of 25000000 energy evaluations.

Final-Value: -9.901


	FINAL GENETIC ALGORITHM DOCKED STATE
	_______________________________________________


Detailed state:  trans -7.052 -5.471 18.158 quatxyzw -0.178509 0.954262 0.158957 -0.179585 center 0.153 0.018 -0.028 ntor 13 131.7714 144.8826 -121.6318 -66.9171 -136.2740 -9.5037 121.5109 68.7510 17.7485 -26.0755 82.5098 -37.3143 172.3760
State:	 -7.052  -5.471  18.158  -0.181  0.970  0.162 -159.309    131.77  144.88 -121.63  -66.92 -136.27   -9.50  121.51   68.75   17.75  -26.08   82.51  -37.31  172.38

DOCKED: MODEL        7
DOCKED: USER    Run = 7
DOCKED: USER    DPF = D:/Protein_go_brrr/autodock/final/mut_Y35F/heme/dock.dpf
DOCKED: USER  
DOCKED: USER    Estimated Free Energy of Binding    =   -3.34 kcal/mol  [=(1)+(2)+(3)-(4)]
DOCKED: USER    Estimated Inhibition Constant, Ki   =    3.59 mM (millimolar)  [Temperature = 298.15 K]
DOCKED: USER    
DOCKED: USER    (1) Final Intermolecular Energy     =   -7.21 kcal/mol
DOCKED: USER        vdW + Hbond + desolv Energy     =   -6.52 kcal/mol
DOCKED: USER        Electrostatic Energy            =   -0.70 kcal/mol
DOCKED: USER    (2) Final Total Internal Energy     =   -2.69 kcal/mol
DOCKED: USER    (3) Torsional Free Energy           =   +3.88 kcal/mol
DOCKED: USER    (4) Unbound System's Energy  [=(2)] =   -2.69 kcal/mol
DOCKED: USER    
DOCKED: USER    
DOCKED: USER    NEWDPF move heme_opt.pdbqt
DOCKED: USER    NEWDPF about 0.153000 0.018000 -0.028000
DOCKED: USER    NEWDPF tran0 -7.052262 -5.470966 18.158317
DOCKED: USER    NEWDPF quaternion0 -0.178509 0.954262 0.158957 -0.179585
DOCKED: USER    NEWDPF axisangle0 -0.181459 0.970033 0.161584 -159.308853
DOCKED: USER    NEWDPF quat0 -0.181459 0.970033 0.161584 -159.308853
DOCKED: USER    NEWDPF dihe0 131.77 144.88 -121.63 -66.92 -136.27 -9.50 121.51 68.75 17.75 -26.08 82.51 -37.31 172.38 
DOCKED: USER  keepresnum = 1 
DOCKED: USER  
DOCKED: REMARK  13 active torsions:
DOCKED: REMARK  status: ('A' for Active; 'I' for Inactive)
DOCKED: REMARK    1  A    between atoms: O_3  and  C_38 
DOCKED: REMARK    2  A    between atoms: O_4  and  C_40 
DOCKED: REMARK    3  A    between atoms: O_7  and  C_46 
DOCKED: REMARK    4  A    between atoms: O_9  and  C_48 
DOCKED: REMARK    5  A    between atoms: C_15  and  C_20 
DOCKED: REMARK    6  A    between atoms: C_16  and  C_23 
DOCKED: REMARK    7  A    between atoms: C_20  and  C_38 
DOCKED: REMARK    8  A    between atoms: C_23  and  C_40 
DOCKED: REMARK    9  A    between atoms: C_32  and  C_41 
DOCKED: REMARK   10  A    between atoms: C_37  and  C_45 
DOCKED: REMARK   11  A    between atoms: C_41  and  C_44 
DOCKED: REMARK   12  A    between atoms: C_44  and  C_46 
DOCKED: REMARK   13  A    between atoms: C_47  and  C_48 
DOCKED: USER                              x       y       z     vdW  Elec       q    Type
DOCKED: USER                           _______ _______ _______ _____ _____    ______ ____
DOCKED: ROOT
DOCKED: ATOM      1  O   UNL d   1      -2.647  -2.146  20.231 -0.02 +0.02    -0.289 OA
DOCKED: ATOM      2  O   UNL d   1      -3.260  -9.590  19.458 -0.01 +0.01    -0.289 OA
DOCKED: ATOM      3  N   UNL d   1      -5.516  -3.674  19.077 -0.01 +0.01    -0.247 NA
DOCKED: ATOM      4  N   UNL d   1      -4.718  -6.526  18.830 -0.35 -0.01    -0.247 NA
DOCKED: ATOM      5  N   UNL d   1      -7.111  -6.967  17.299 -0.09 +0.05    -0.354 N 
DOCKED: ATOM      6  N   UNL d   1      -7.921  -4.003  17.543 -0.08 -0.01    -0.354 N 
DOCKED: ATOM      7  C   UNL d   1      -4.771  -1.351  19.318 -0.10 -0.00    +0.084 A 
DOCKED: ATOM      8  C   UNL d   1      -2.907  -7.309  20.272 -0.04 -0.00    +0.084 A 
DOCKED: ATOM      9  C   UNL d   1      -3.765  -6.151  19.751 -0.06 +0.00    +0.058 A 
DOCKED: ATOM     10  C   UNL d   1      -5.855  -2.345  18.888 -0.15 +0.00    +0.058 A 
DOCKED: ATOM     11  C   UNL d   1      -3.767  -2.354  19.801 -0.06 -0.01    +0.193 A 
DOCKED: ATOM     12  C   UNL d   1      -4.346  -3.724  19.626 -0.06 -0.00    +0.109 A 
DOCKED: ATOM     13  C   UNL d   1      -3.525  -8.404  19.449 -0.03 -0.01    +0.193 A 
DOCKED: ATOM     14  C   UNL d   1      -4.180  -0.594  18.126 -0.28 -0.00    +0.026 C 
DOCKED: ATOM     15  C   UNL d   1      -3.567  -4.877  20.122 -0.08 +0.00    +0.055 C 
DOCKED: ATOM     16  C   UNL d   1      -3.176  -7.594  21.752 -0.01 -0.00    +0.026 C 
DOCKED: ATOM     17  C   UNL d   1      -4.604  -7.797  18.613 -0.09 -0.01    +0.109 A 
DOCKED: ATOM     18  C   UNL d   1      -7.058  -1.928  18.452 -0.20 +0.01    +0.050 C 
DOCKED: ATOM     19  C   UNL d   1      -8.147  -2.770  18.112 -0.19 +0.00    +0.045 A 
DOCKED: ATOM     20  C   UNL d   1      -6.479  -8.166  17.098 -0.15 -0.01    +0.045 A 
DOCKED: ATOM     21  C   UNL d   1      -5.361  -8.630  17.667 -0.13 -0.01    +0.057 C 
DOCKED: ATOM     22  C   UNL d   1      -8.338  -8.081  15.774 -0.14 +0.00    -0.019 A 
DOCKED: ATOM     23  C   UNL d   1      -8.244  -6.824  16.542 -0.17 -0.01    +0.045 A 
DOCKED: ATOM     24  C   UNL d   1      -7.291  -8.872  16.108 -0.11 +0.00    -0.022 A 
DOCKED: ATOM     25  C   UNL d   1      -9.112  -4.609  17.214 -0.18 -0.00    +0.049 A 
DOCKED: ATOM     26  C   UNL d   1      -9.519  -2.586  18.190 -0.16 -0.00    -0.018 A 
DOCKED: ATOM     27  C   UNL d   1     -10.123  -3.758  17.639 -0.17 -0.00    +0.003 A 
DOCKED: ATOM     28  C   UNL d   1      -9.132  -5.820  16.471 -0.24 -0.01    +0.052 C 
DOCKED: ATOM     29  C   UNL d   1      -6.958 -10.238  15.612 -0.09 -0.00    +0.046 C 
DOCKED: ATOM     30  C   UNL d   1     -10.228  -1.397  18.742 -0.14 +0.00    +0.046 C 
DOCKED: ATOM     31  H   UNL d   1      -6.788  -6.313  18.004 +0.03 -0.01    +0.166 HD
DOCKED: ATOM     32  H   UNL d   1      -6.997  -4.375  17.361 +0.08 +0.00    +0.166 HD
DOCKED: ENDROOT
DOCKED: BRANCH   7  33
DOCKED: ATOM     33  C   UNL d   1      -5.167  -0.398  20.451 -0.05 +0.00    +0.141 C 
DOCKED: BRANCH  33  34
DOCKED: ATOM     34  C   UNL d   1      -5.414  -1.114  21.751 +0.01 -0.00    +0.306 C 
DOCKED: ATOM     35  O   UNL d   1      -6.442  -1.682  22.076 -0.00 -0.00    -0.251 OA
DOCKED: BRANCH  34  36
DOCKED: ATOM     36  O   UNL d   1      -4.350  -1.078  22.572 +0.01 +0.01    -0.481 OA
DOCKED: ATOM     37  H   UNL d   1      -3.599  -1.380  22.018 +0.01 -0.01    +0.295 HD
DOCKED: ENDBRANCH  34  36
DOCKED: ENDBRANCH  33  34
DOCKED: ENDBRANCH   7  33
DOCKED: BRANCH  27  38
DOCKED: ATOM     38  C   UNL d   1     -11.532  -3.978  17.510 -0.17 -0.00    +0.017 C 
DOCKED: ATOM     39  C   UNL d   1     -12.100  -5.073  16.982 -0.11 -0.03    +0.092 C 
DOCKED: BRANCH  39  40
DOCKED: ATOM     40  C   UNL d   1     -13.560  -5.183  16.924 -0.04 -0.13    +0.330 C 
DOCKED: ATOM     41  O   UNL d   1     -14.381  -4.475  17.476 -0.06 +0.05    -0.246 OA
DOCKED: BRANCH  40  42
DOCKED: ATOM     42  O   UNL d   1     -13.915  -6.211  16.139 -0.04 +0.34    -0.477 OA
DOCKED: ATOM     43  H   UNL d   1     -13.236  -6.213  15.433 -0.27 -0.53    +0.295 HD
DOCKED: ENDBRANCH  40  42
DOCKED: ENDBRANCH  39  40
DOCKED: ENDBRANCH  27  38
DOCKED: BRANCH   8  44
DOCKED: ATOM     44  C   UNL d   1      -1.404  -7.194  19.993 -0.03 -0.01    +0.141 C 
DOCKED: BRANCH  44  45
DOCKED: ATOM     45  C   UNL d   1      -1.040  -7.499  18.565 -0.04 -0.03    +0.306 C 
DOCKED: ATOM     46  O   UNL d   1      -1.181  -6.760  17.605 -0.09 +0.04    -0.251 OA
DOCKED: BRANCH  45  47
DOCKED: ATOM     47  O   UNL d   1      -0.537  -8.738  18.415 +0.01 +0.05    -0.481 OA
DOCKED: ATOM     48  H   UNL d   1      -1.237  -9.332  18.759 +0.02 -0.02    +0.295 HD
DOCKED: ENDBRANCH  45  47
DOCKED: ENDBRANCH  44  45
DOCKED: ENDBRANCH   8  44
DOCKED: BRANCH  22  49
DOCKED: ATOM     49  C   UNL d   1      -9.424  -8.384  14.783 -0.20 +0.01    +0.048 C 
DOCKED: BRANCH  49  50
DOCKED: ATOM     50  C   UNL d   1      -9.063  -7.901  13.379 -0.24 +0.03    +0.125 C 
DOCKED: BRANCH  50  51
DOCKED: ATOM     51  C   UNL d   1      -9.670  -6.554  13.102 -0.35 -0.01    +0.305 C 
DOCKED: ATOM     52  O   UNL d   1      -9.450  -5.506  13.684 -0.99 +0.03    -0.251 OA
DOCKED: BRANCH  51  53
DOCKED: ATOM     53  O   UNL d   1     -10.557  -6.600  12.088 -0.34 -0.06    -0.481 OA
DOCKED: ATOM     54  H   UNL d   1     -11.420  -6.422  12.518 -0.09 -0.43    +0.295 HD
DOCKED: ENDBRANCH  51  53
DOCKED: ENDBRANCH  50  51
DOCKED: ENDBRANCH  49  50
DOCKED: ENDBRANCH  22  49
DOCKED: TORSDOF 13
DOCKED: TER
DOCKED: ENDMDL
________________________________________________________________________________


	BEGINNING GENETIC ALGORITHM DOCKING 8 of 100
Run: 8 Seed: 2086297941 546845355 [ Run 8 of 100 GA/GALS ]
Beginning LAMARCKIAN GENETIC ALGORITHM (LGA), with a maximum of 25000000 energy evaluations.

Final-Value: -12.221


	FINAL GENETIC ALGORITHM DOCKED STATE
	_______________________________________________


Detailed state:  trans 11.096 16.235 6.342 quatxyzw 0.615784 0.096316 -0.682539 -0.381672 center 0.153 0.018 -0.028 ntor 13 180.0000 164.5373 -0.8759 81.7682 -155.0877 34.8389 118.1642 27.5014 8.4138 3.3196 -109.4544 -26.5059 -27.8214
State:	 11.096  16.235   6.342   0.666  0.104 -0.738 -135.125    180.00  164.54   -0.88   81.77 -155.09   34.84  118.16   27.50    8.41    3.32 -109.45  -26.51  -27.82

DOCKED: MODEL        8
DOCKED: USER    Run = 8
DOCKED: USER    DPF = D:/Protein_go_brrr/autodock/final/mut_Y35F/heme/dock.dpf
DOCKED: USER  
DOCKED: USER    Estimated Free Energy of Binding    =   -5.46 kcal/mol  [=(1)+(2)+(3)-(4)]
DOCKED: USER    Estimated Inhibition Constant, Ki   =  100.14 uM (micromolar)  [Temperature = 298.15 K]
DOCKED: USER    
DOCKED: USER    (1) Final Intermolecular Energy     =   -9.33 kcal/mol
DOCKED: USER        vdW + Hbond + desolv Energy     =   -9.11 kcal/mol
DOCKED: USER        Electrostatic Energy            =   -0.22 kcal/mol
DOCKED: USER    (2) Final Total Internal Energy     =   -2.89 kcal/mol
DOCKED: USER    (3) Torsional Free Energy           =   +3.88 kcal/mol
DOCKED: USER    (4) Unbound System's Energy  [=(2)] =   -2.89 kcal/mol
DOCKED: USER    
DOCKED: USER    
DOCKED: USER    NEWDPF move heme_opt.pdbqt
DOCKED: USER    NEWDPF about 0.153000 0.018000 -0.028000
DOCKED: USER    NEWDPF tran0 11.096267 16.234890 6.341770
DOCKED: USER    NEWDPF quaternion0 0.615784 0.096316 -0.682539 -0.381672
DOCKED: USER    NEWDPF axisangle0 0.666219 0.104204 -0.738440 -135.125477
DOCKED: USER    NEWDPF quat0 0.666219 0.104204 -0.738440 -135.125477
DOCKED: USER    NEWDPF dihe0 180.00 164.54 -0.88 81.77 -155.09 34.84 118.16 27.50 8.41 3.32 -109.45 -26.51 -27.82 
DOCKED: USER  keepresnum = 1 
DOCKED: USER  
DOCKED: REMARK  13 active torsions:
DOCKED: REMARK  status: ('A' for Active; 'I' for Inactive)
DOCKED: REMARK    1  A    between atoms: O_3  and  C_38 
DOCKED: REMARK    2  A    between atoms: O_4  and  C_40 
DOCKED: REMARK    3  A    between atoms: O_7  and  C_46 
DOCKED: REMARK    4  A    between atoms: O_9  and  C_48 
DOCKED: REMARK    5  A    between atoms: C_15  and  C_20 
DOCKED: REMARK    6  A    between atoms: C_16  and  C_23 
DOCKED: REMARK    7  A    between atoms: C_20  and  C_38 
DOCKED: REMARK    8  A    between atoms: C_23  and  C_40 
DOCKED: REMARK    9  A    between atoms: C_32  and  C_41 
DOCKED: REMARK   10  A    between atoms: C_37  and  C_45 
DOCKED: REMARK   11  A    between atoms: C_41  and  C_44 
DOCKED: REMARK   12  A    between atoms: C_44  and  C_46 
DOCKED: REMARK   13  A    between atoms: C_47  and  C_48 
DOCKED: USER                              x       y       z     vdW  Elec       q    Type
DOCKED: USER                           _______ _______ _______ _____ _____    ______ ____
DOCKED: ROOT
DOCKED: ATOM      1  O   UNL d   1      11.401  16.937  12.187 -0.09 -0.11    -0.289 OA
DOCKED: ATOM      2  O   UNL d   1       9.076  21.598   6.778 -0.09 +0.03    -0.289 OA
DOCKED: ATOM      3  N   UNL d   1      11.533  16.126   8.838 -0.10 -0.01    -0.247 NA
DOCKED: ATOM      4  N   UNL d   1      10.150  18.405   7.527 -0.07 +0.06    -0.247 NA
DOCKED: ATOM      5  N   UNL d   1      10.024  16.829   5.126 -0.13 +0.10    -0.354 N 
DOCKED: ATOM      6  N   UNL d   1      11.443  14.461   6.499 -0.02 +0.01    -0.354 N 
DOCKED: ATOM      7  C   UNL d   1      11.973  14.922  10.927 -0.12 +0.03    +0.084 A 
DOCKED: ATOM      8  C   UNL d   1      10.171  20.549   8.699 -0.07 -0.01    +0.084 A 
DOCKED: ATOM      9  C   UNL d   1      10.505  19.054   8.689 -0.13 -0.01    +0.058 A 
DOCKED: ATOM     10  C   UNL d   1      11.915  14.918   9.397 -0.14 +0.01    +0.058 A 
DOCKED: ATOM     11  C   UNL d   1      11.575  16.353  11.134 -0.10 +0.05    +0.193 A 
DOCKED: ATOM     12  C   UNL d   1      11.361  16.982   9.792 -0.13 +0.01    +0.109 A 
DOCKED: ATOM     13  C   UNL d   1       9.526  20.621   7.344 -0.10 -0.02    +0.193 A 
DOCKED: ATOM     14  C   UNL d   1      10.905  14.017  11.546 -0.06 +0.02    +0.026 C 
DOCKED: ATOM     15  C   UNL d   1      11.050  18.425   9.741 -0.13 +0.00    +0.055 C 
DOCKED: ATOM     16  C   UNL d   1      11.436  21.414   8.689 -0.02 -0.00    +0.026 C 
DOCKED: ATOM     17  C   UNL d   1       9.570  19.255   6.741 -0.15 -0.03    +0.109 A 
DOCKED: ATOM     18  C   UNL d   1      12.296  13.842   8.682 -0.12 +0.01    +0.050 C 
DOCKED: ATOM     19  C   UNL d   1      12.356  13.774   7.267 -0.10 +0.00    +0.045 A 
DOCKED: ATOM     20  C   UNL d   1       9.209  17.871   4.766 -0.25 -0.01    +0.045 A 
DOCKED: ATOM     21  C   UNL d   1       8.968  19.010   5.422 -0.18 -0.01    +0.057 C 
DOCKED: ATOM     22  C   UNL d   1       9.119  16.268   3.141 -0.30 +0.01    -0.019 A 
DOCKED: ATOM     23  C   UNL d   1      10.034  15.813   4.207 -0.27 -0.01    +0.045 A 
DOCKED: ATOM     24  C   UNL d   1       8.635  17.487   3.478 -0.31 +0.01    -0.022 A 
DOCKED: ATOM     25  C   UNL d   1      11.627  14.183   5.165 -0.09 -0.00    +0.049 A 
DOCKED: ATOM     26  C   UNL d   1      13.178  13.061   6.408 -0.06 -0.00    -0.018 A 
DOCKED: ATOM     27  C   UNL d   1      12.726  13.339   5.081 -0.10 -0.00    +0.003 A 
DOCKED: ATOM     28  C   UNL d   1      10.707  14.652   4.188 -0.25 -0.01    +0.052 C 
DOCKED: ATOM     29  C   UNL d   1       7.690  18.357   2.721 -0.32 -0.01    +0.046 C 
DOCKED: ATOM     30  C   UNL d   1      14.315  12.177   6.793 -0.04 +0.00    +0.046 C 
DOCKED: ATOM     31  H   UNL d   1      10.606  16.878   5.955 -0.01 -0.04    +0.166 HD
DOCKED: ATOM     32  H   UNL d   1      10.717  15.052   6.887 +0.03 -0.02    +0.166 HD
DOCKED: ENDROOT
DOCKED: BRANCH   7  33
DOCKED: ATOM     33  C   UNL d   1      13.355  14.656  11.533 -0.04 +0.03    +0.141 C 
DOCKED: BRANCH  33  34
DOCKED: ATOM     34  C   UNL d   1      14.400  15.620  11.038 -0.00 +0.04    +0.306 C 
DOCKED: ATOM     35  O   UNL d   1      15.233  15.399  10.176 -0.00 -0.02    -0.251 OA
DOCKED: BRANCH  34  36
DOCKED: ATOM     36  O   UNL d   1      14.338  16.813  11.655 +0.01 -0.05    -0.481 OA
DOCKED: ATOM     37  H   UNL d   1      13.568  16.739  12.259 +0.02 +0.05    +0.295 HD
DOCKED: ENDBRANCH  34  36
DOCKED: ENDBRANCH  33  34
DOCKED: ENDBRANCH   7  33
DOCKED: BRANCH  27  38
DOCKED: ATOM     38  C   UNL d   1      13.291  12.790   3.885 -0.19 -0.00    +0.017 C 
DOCKED: ATOM     39  C   UNL d   1      13.001  13.190   2.637 -0.27 -0.02    +0.092 C 
DOCKED: BRANCH  39  40
DOCKED: ATOM     40  C   UNL d   1      13.664  12.556   1.495 -0.30 -0.03    +0.330 C 
DOCKED: ATOM     41  O   UNL d   1      14.030  11.401   1.395 -1.06 -0.01    -0.246 OA
DOCKED: BRANCH  40  42
DOCKED: ATOM     42  O   UNL d   1      13.825  13.445   0.503 -0.38 +0.08    -0.477 OA
DOCKED: ATOM     43  H   UNL d   1      13.225  14.180   0.746 +0.13 -0.12    +0.295 HD
DOCKED: ENDBRANCH  40  42
DOCKED: ENDBRANCH  39  40
DOCKED: ENDBRANCH  27  38
DOCKED: BRANCH   8  44
DOCKED: ATOM     44  C   UNL d   1       9.199  21.001   9.794 -0.08 -0.01    +0.141 C 
DOCKED: BRANCH  44  45
DOCKED: ATOM     45  C   UNL d   1       7.993  20.110   9.922 -0.18 -0.05    +0.306 C 
DOCKED: ATOM     46  O   UNL d   1       7.962  18.994  10.411 -0.26 +0.04    -0.251 OA
DOCKED: BRANCH  45  47
DOCKED: ATOM     47  O   UNL d   1       6.885  20.666   9.398 -0.44 +0.09    -0.481 OA
DOCKED: ATOM     48  H   UNL d   1       6.187  19.986   9.517 -0.43 -0.19    +0.295 HD
DOCKED: ENDBRANCH  45  47
DOCKED: ENDBRANCH  44  45
DOCKED: ENDBRANCH   8  44
DOCKED: BRANCH  22  49
DOCKED: ATOM     49  C   UNL d   1       8.794  15.470   1.913 -0.37 -0.01    +0.048 C 
DOCKED: BRANCH  49  50
DOCKED: ATOM     50  C   UNL d   1       9.376  16.106   0.651 -0.34 -0.04    +0.125 C 
DOCKED: BRANCH  50  51
DOCKED: ATOM     51  C   UNL d   1      10.871  15.959   0.616 -0.16 -0.16    +0.305 C 
DOCKED: ATOM     52  O   UNL d   1      11.552  15.146   1.216 -0.24 +0.11    -0.251 OA
DOCKED: BRANCH  51  53
DOCKED: ATOM     53  O   UNL d   1      11.449  16.875  -0.186 -0.12 +0.40    -0.481 OA
DOCKED: ATOM     54  H   UNL d   1      11.605  16.392  -1.025 -0.38 -0.39    +0.295 HD
DOCKED: ENDBRANCH  51  53
DOCKED: ENDBRANCH  50  51
DOCKED: ENDBRANCH  49  50
DOCKED: ENDBRANCH  22  49
DOCKED: TORSDOF 13
DOCKED: TER
DOCKED: ENDMDL
________________________________________________________________________________


	BEGINNING GENETIC ALGORITHM DOCKING 9 of 100
Run: 9 Seed: 90817775 1089841778 [ Run 9 of 100 GA/GALS ]
Beginning LAMARCKIAN GENETIC ALGORITHM (LGA), with a maximum of 25000000 energy evaluations.

Final-Value: -10.845


	FINAL GENETIC ALGORITHM DOCKED STATE
	_______________________________________________


Detailed state:  trans 16.481 -0.976 5.349 quatxyzw 0.190531 -0.165229 0.775909 0.578241 center 0.153 0.018 -0.028 ntor 13 -146.2015 163.7015 179.7824 -61.0103 -12.7205 15.7369 142.9924 -161.0295 -26.7532 -34.9105 59.3443 -75.4702 127.7034
State:	 16.481  -0.976   5.349   0.234 -0.203  0.951 109.346   -146.20  163.70  179.78  -61.01  -12.72   15.74  142.99 -161.03  -26.75  -34.91   59.34  -75.47  127.70

DOCKED: MODEL        9
DOCKED: USER    Run = 9
DOCKED: USER    DPF = D:/Protein_go_brrr/autodock/final/mut_Y35F/heme/dock.dpf
DOCKED: USER  
DOCKED: USER    Estimated Free Energy of Binding    =   -3.48 kcal/mol  [=(1)+(2)+(3)-(4)]
DOCKED: USER    Estimated Inhibition Constant, Ki   =    2.80 mM (millimolar)  [Temperature = 298.15 K]
DOCKED: USER    
DOCKED: USER    (1) Final Intermolecular Energy     =   -7.36 kcal/mol
DOCKED: USER        vdW + Hbond + desolv Energy     =   -6.89 kcal/mol
DOCKED: USER        Electrostatic Energy            =   -0.48 kcal/mol
DOCKED: USER    (2) Final Total Internal Energy     =   -3.48 kcal/mol
DOCKED: USER    (3) Torsional Free Energy           =   +3.88 kcal/mol
DOCKED: USER    (4) Unbound System's Energy  [=(2)] =   -3.48 kcal/mol
DOCKED: USER    
DOCKED: USER    
DOCKED: USER    NEWDPF move heme_opt.pdbqt
DOCKED: USER    NEWDPF about 0.153000 0.018000 -0.028000
DOCKED: USER    NEWDPF tran0 16.480859 -0.976391 5.348614
DOCKED: USER    NEWDPF quaternion0 0.190531 -0.165229 0.775909 0.578241
DOCKED: USER    NEWDPF axisangle0 0.233532 -0.202520 0.951025 109.346115
DOCKED: USER    NEWDPF quat0 0.233532 -0.202520 0.951025 109.346115
DOCKED: USER    NEWDPF dihe0 -146.20 163.70 179.78 -61.01 -12.72 15.74 142.99 -161.03 -26.75 -34.91 59.34 -75.47 127.70 
DOCKED: USER  keepresnum = 1 
DOCKED: USER  
DOCKED: REMARK  13 active torsions:
DOCKED: REMARK  status: ('A' for Active; 'I' for Inactive)
DOCKED: REMARK    1  A    between atoms: O_3  and  C_38 
DOCKED: REMARK    2  A    between atoms: O_4  and  C_40 
DOCKED: REMARK    3  A    between atoms: O_7  and  C_46 
DOCKED: REMARK    4  A    between atoms: O_9  and  C_48 
DOCKED: REMARK    5  A    between atoms: C_15  and  C_20 
DOCKED: REMARK    6  A    between atoms: C_16  and  C_23 
DOCKED: REMARK    7  A    between atoms: C_20  and  C_38 
DOCKED: REMARK    8  A    between atoms: C_23  and  C_40 
DOCKED: REMARK    9  A    between atoms: C_32  and  C_41 
DOCKED: REMARK   10  A    between atoms: C_37  and  C_45 
DOCKED: REMARK   11  A    between atoms: C_41  and  C_44 
DOCKED: REMARK   12  A    between atoms: C_44  and  C_46 
DOCKED: REMARK   13  A    between atoms: C_47  and  C_48 
DOCKED: USER                              x       y       z     vdW  Elec       q    Type
DOCKED: USER                           _______ _______ _______ _____ _____    ______ ____
DOCKED: ROOT
DOCKED: ATOM      1  O   UNL d   1      19.657   3.921   4.522 -0.12 -0.16    -0.289 OA
DOCKED: ATOM      2  O   UNL d   1      12.356   2.973   6.003 -0.63 -0.23    -0.289 OA
DOCKED: ATOM      3  N   UNL d   1      18.195   0.809   4.795 -0.10 -0.05    -0.247 NA
DOCKED: ATOM      4  N   UNL d   1      15.426   1.430   5.676 -0.13 -0.06    -0.247 NA
DOCKED: ATOM      5  N   UNL d   1      15.106  -1.353   6.322 -0.00 -0.07    -0.354 N 
DOCKED: ATOM      6  N   UNL d   1      17.987  -1.985   5.425 -0.03 -0.05    -0.354 N 
DOCKED: ATOM      7  C   UNL d   1      20.491   1.623   4.526 -0.10 +0.02    +0.084 A 
DOCKED: ATOM      8  C   UNL d   1      14.525   3.620   5.071 -0.30 +0.03    +0.084 A 
DOCKED: ATOM      9  C   UNL d   1      15.711   2.650   5.104 -0.25 +0.02    +0.058 A 
DOCKED: ATOM     10  C   UNL d   1      19.526   0.444   4.678 -0.11 +0.01    +0.058 A 
DOCKED: ATOM     11  C   UNL d   1      19.468   2.719   4.558 -0.11 +0.07    +0.193 A 
DOCKED: ATOM     12  C   UNL d   1      18.114   2.096   4.699 -0.18 +0.03    +0.109 A 
DOCKED: ATOM     13  C   UNL d   1      13.525   2.738   5.763 -0.26 +0.09    +0.193 A 
DOCKED: ATOM     14  C   UNL d   1      21.414   1.771   5.738 -0.04 +0.01    +0.026 C 
DOCKED: ATOM     15  C   UNL d   1      16.933   2.983   4.661 -0.28 +0.02    +0.055 C 
DOCKED: ATOM     16  C   UNL d   1      14.045   3.881   3.640 -0.27 +0.01    +0.026 C 
DOCKED: ATOM     17  C   UNL d   1      14.198   1.443   6.084 -0.27 +0.03    +0.109 A 
DOCKED: ATOM     18  C   UNL d   1      19.956  -0.830   4.610 -0.10 +0.01    +0.050 C 
DOCKED: ATOM     19  C   UNL d   1      19.128  -1.981   4.656 -0.09 +0.01    +0.045 A 
DOCKED: ATOM     20  C   UNL d   1      13.964  -0.847   6.886 -0.24 +0.01    +0.045 A 
DOCKED: ATOM     21  C   UNL d   1      13.468   0.392   6.808 -0.35 +0.02    +0.057 C 
DOCKED: ATOM     22  C   UNL d   1      14.156  -3.051   7.457 -0.20 -0.00    -0.019 A 
DOCKED: ATOM     23  C   UNL d   1      15.307  -2.676   6.611 -0.15 +0.01    +0.045 A 
DOCKED: ATOM     24  C   UNL d   1      13.364  -1.964   7.615 -0.26 -0.00    -0.022 A 
DOCKED: ATOM     25  C   UNL d   1      17.389  -3.224   5.396 -0.08 +0.01    +0.049 A 
DOCKED: ATOM     26  C   UNL d   1      19.256  -3.236   4.082 -0.09 -0.00    -0.018 A 
DOCKED: ATOM     27  C   UNL d   1      18.144  -4.011   4.537 -0.09 +0.00    +0.003 A 
DOCKED: ATOM     28  C   UNL d   1      16.282  -3.519   6.237 -0.13 +0.01    +0.052 C 
DOCKED: ATOM     29  C   UNL d   1      12.084  -1.845   8.371 -0.28 +0.01    +0.046 C 
DOCKED: ATOM     30  C   UNL d   1      20.341  -3.691   3.166 -0.08 +0.01    +0.046 C 
DOCKED: ATOM     31  H   UNL d   1      15.675  -0.794   5.695 +0.13 +0.04    +0.166 HD
DOCKED: ATOM     32  H   UNL d   1      17.671  -1.187   5.964 +0.03 +0.03    +0.166 HD
DOCKED: ENDROOT
DOCKED: BRANCH   7  33
DOCKED: ATOM     33  C   UNL d   1      21.279   1.662   3.212 -0.15 +0.05    +0.141 C 
DOCKED: BRANCH  33  34
DOCKED: ATOM     34  C   UNL d   1      20.627   0.855   2.122 -0.20 +0.09    +0.306 C 
DOCKED: ATOM     35  O   UNL d   1      19.433   0.808   1.875 -0.30 -0.08    -0.251 OA
DOCKED: BRANCH  34  36
DOCKED: ATOM     36  O   UNL d   1      21.514   0.150   1.398 -0.06 -0.13    -0.481 OA
DOCKED: ATOM     37  H   UNL d   1      22.233  -0.065   2.029 +0.06 +0.06    +0.295 HD
DOCKED: ENDBRANCH  34  36
DOCKED: ENDBRANCH  33  34
DOCKED: ENDBRANCH   7  33
DOCKED: BRANCH  27  38
DOCKED: ATOM     38  C   UNL d   1      17.896  -5.379   4.195 -0.07 +0.00    +0.017 C 
DOCKED: ATOM     39  C   UNL d   1      17.418  -6.312   5.032 -0.05 +0.02    +0.092 C 
DOCKED: BRANCH  39  40
DOCKED: ATOM     40  C   UNL d   1      17.192  -7.678   4.551 -0.02 +0.05    +0.330 C 
DOCKED: ATOM     41  O   UNL d   1      17.592  -8.177   3.516 -0.01 -0.02    -0.246 OA
DOCKED: BRANCH  40  42
DOCKED: ATOM     42  O   UNL d   1      16.456  -8.364   5.438 -0.09 -0.15    -0.477 OA
DOCKED: ATOM     43  H   UNL d   1      16.517  -7.831   6.257 +0.03 +0.13    +0.295 HD
DOCKED: ENDBRANCH  40  42
DOCKED: ENDBRANCH  39  40
DOCKED: ENDBRANCH  27  38
DOCKED: BRANCH   8  44
DOCKED: ATOM     44  C   UNL d   1      14.723   4.932   5.837 -0.16 +0.05    +0.141 C 
DOCKED: BRANCH  44  45
DOCKED: ATOM     45  C   UNL d   1      14.410   4.816   7.305 -0.04 +0.14    +0.306 C 
DOCKED: ATOM     46  O   UNL d   1      15.212   4.663   8.210 -0.01 -0.10    -0.251 OA
DOCKED: BRANCH  45  47
DOCKED: ATOM     47  O   UNL d   1      13.089   4.872   7.555 -0.08 -0.42    -0.481 OA
DOCKED: ATOM     48  H   UNL d   1      12.675   4.995   6.674 +0.09 +0.23    +0.295 HD
DOCKED: ENDBRANCH  45  47
DOCKED: ENDBRANCH  44  45
DOCKED: ENDBRANCH   8  44
DOCKED: BRANCH  22  49
DOCKED: ATOM     49  C   UNL d   1      13.947  -4.418   8.038 -0.16 +0.02    +0.048 C 
DOCKED: BRANCH  49  50
DOCKED: ATOM     50  C   UNL d   1      15.236  -4.988   8.629 -0.07 +0.04    +0.125 C 
DOCKED: BRANCH  50  51
DOCKED: ATOM     51  C   UNL d   1      15.621  -6.268   7.943 -0.06 +0.17    +0.305 C 
DOCKED: ATOM     52  O   UNL d   1      16.456  -7.081   8.301 -0.04 -0.09    -0.251 OA
DOCKED: BRANCH  51  53
DOCKED: ATOM     53  O   UNL d   1      14.925  -6.459   6.805 -0.38 -0.61    -0.481 OA
DOCKED: ATOM     54  H   UNL d   1      15.612  -6.477   6.106 +0.05 +0.22    +0.295 HD
DOCKED: ENDBRANCH  51  53
DOCKED: ENDBRANCH  50  51
DOCKED: ENDBRANCH  49  50
DOCKED: ENDBRANCH  22  49
DOCKED: TORSDOF 13
DOCKED: TER
DOCKED: ENDMDL
________________________________________________________________________________


	BEGINNING GENETIC ALGORITHM DOCKING 10 of 100
Run: 10 Seed: 346930495 1646802623 [ Run 10 of 100 GA/GALS ]
Beginning LAMARCKIAN GENETIC ALGORITHM (LGA), with a maximum of 25000000 energy evaluations.

Final-Value: -10.540


	FINAL GENETIC ALGORITHM DOCKED STATE
	_______________________________________________


Detailed state:  trans 7.004 15.881 -9.993 quatxyzw 0.883454 0.162376 0.239139 0.368721 center 0.153 0.018 -0.028 ntor 13 119.6726 108.7295 -135.7689 -66.3443 -131.1707 113.4672 124.2466 -65.1304 31.1404 -21.6024 -68.0752 56.1270 -11.9356
State:	  7.004  15.881  -9.993   0.950  0.175  0.257 136.726    119.67  108.73 -135.77  -66.34 -131.17  113.47  124.25  -65.13   31.14  -21.60  -68.08   56.13  -11.94

DOCKED: MODEL       10
DOCKED: USER    Run = 10
DOCKED: USER    DPF = D:/Protein_go_brrr/autodock/final/mut_Y35F/heme/dock.dpf
DOCKED: USER  
DOCKED: USER    Estimated Free Energy of Binding    =   -3.77 kcal/mol  [=(1)+(2)+(3)-(4)]
DOCKED: USER    Estimated Inhibition Constant, Ki   =    1.73 mM (millimolar)  [Temperature = 298.15 K]
DOCKED: USER    
DOCKED: USER    (1) Final Intermolecular Energy     =   -7.65 kcal/mol
DOCKED: USER        vdW + Hbond + desolv Energy     =   -7.29 kcal/mol
DOCKED: USER        Electrostatic Energy            =   -0.36 kcal/mol
DOCKED: USER    (2) Final Total Internal Energy     =   -2.89 kcal/mol
DOCKED: USER    (3) Torsional Free Energy           =   +3.88 kcal/mol
DOCKED: USER    (4) Unbound System's Energy  [=(2)] =   -2.89 kcal/mol
DOCKED: USER    
DOCKED: USER    
DOCKED: USER    NEWDPF move heme_opt.pdbqt
DOCKED: USER    NEWDPF about 0.153000 0.018000 -0.028000
DOCKED: USER    NEWDPF tran0 7.004160 15.880851 -9.992746
DOCKED: USER    NEWDPF quaternion0 0.883454 0.162376 0.239139 0.368721
DOCKED: USER    NEWDPF axisangle0 0.950421 0.174685 0.257266 136.726432
DOCKED: USER    NEWDPF quat0 0.950421 0.174685 0.257266 136.726432
DOCKED: USER    NEWDPF dihe0 119.67 108.73 -135.77 -66.34 -131.17 113.47 124.25 -65.13 31.14 -21.60 -68.08 56.13 -11.94 
DOCKED: USER  keepresnum = 1 
DOCKED: USER  
DOCKED: REMARK  13 active torsions:
DOCKED: REMARK  status: ('A' for Active; 'I' for Inactive)
DOCKED: REMARK    1  A    between atoms: O_3  and  C_38 
DOCKED: REMARK    2  A    between atoms: O_4  and  C_40 
DOCKED: REMARK    3  A    between atoms: O_7  and  C_46 
DOCKED: REMARK    4  A    between atoms: O_9  and  C_48 
DOCKED: REMARK    5  A    between atoms: C_15  and  C_20 
DOCKED: REMARK    6  A    between atoms: C_16  and  C_23 
DOCKED: REMARK    7  A    between atoms: C_20  and  C_38 
DOCKED: REMARK    8  A    between atoms: C_23  and  C_40 
DOCKED: REMARK    9  A    between atoms: C_32  and  C_41 
DOCKED: REMARK   10  A    between atoms: C_37  and  C_45 
DOCKED: REMARK   11  A    between atoms: C_41  and  C_44 
DOCKED: REMARK   12  A    between atoms: C_44  and  C_46 
DOCKED: REMARK   13  A    between atoms: C_47  and  C_48 
DOCKED: USER                              x       y       z     vdW  Elec       q    Type
DOCKED: USER                           _______ _______ _______ _____ _____    ______ ____
DOCKED: ROOT
DOCKED: ATOM      1  O   UNL d   1       3.309  14.592 -14.402 -0.06 +0.00    -0.289 OA
DOCKED: ATOM      2  O   UNL d   1       2.068  17.709  -7.684 -0.08 -0.07    -0.289 OA
DOCKED: ATOM      3  N   UNL d   1       5.801  15.035 -12.059 -0.16 -0.02    -0.247 NA
DOCKED: ATOM      4  N   UNL d   1       4.451  16.579  -9.909 -0.08 -0.05    -0.247 NA
DOCKED: ATOM      5  N   UNL d   1       7.047  17.131  -8.803 -0.09 -0.09    -0.354 N 
DOCKED: ATOM      6  N   UNL d   1       8.441  15.543 -11.048 -0.07 -0.01    -0.354 N 
DOCKED: ATOM      7  C   UNL d   1       5.733  14.273 -14.388 -0.11 +0.00    +0.084 A 
DOCKED: ATOM      8  C   UNL d   1       2.030  16.325  -9.703 -0.16 +0.00    +0.084 A 
DOCKED: ATOM      9  C   UNL d   1       3.322  16.023 -10.468 -0.18 +0.01    +0.058 A 
DOCKED: ATOM     10  C   UNL d   1       6.552  14.586 -13.133 -0.19 +0.00    +0.058 A 
DOCKED: ATOM     11  C   UNL d   1       4.383  14.607 -13.828 -0.11 +0.00    +0.193 A 
DOCKED: ATOM     12  C   UNL d   1       4.554  15.031 -12.402 -0.20 +0.01    +0.109 A 
DOCKED: ATOM     13  C   UNL d   1       2.629  17.186  -8.627 -0.11 +0.04    +0.193 A 
DOCKED: ATOM     14  C   UNL d   1       6.046  15.238 -15.534 -0.04 -0.00    +0.026 C 
DOCKED: ATOM     15  C   UNL d   1       3.341  15.322 -11.612 -0.24 +0.00    +0.055 C 
DOCKED: ATOM     16  C   UNL d   1       1.445  15.066  -9.057 -0.24 -0.00    +0.026 C 
DOCKED: ATOM     17  C   UNL d   1       4.101  17.267  -8.870 -0.16 +0.03    +0.109 A 
DOCKED: ATOM     18  C   UNL d   1       7.877  14.348 -13.080 -0.21 +0.00    +0.050 C 
DOCKED: ATOM     19  C   UNL d   1       8.700  14.526 -11.939 -0.21 +0.00    +0.045 A 
DOCKED: ATOM     20  C   UNL d   1       6.282  17.976  -8.042 -0.17 +0.02    +0.045 A 
DOCKED: ATOM     21  C   UNL d   1       4.951  18.085  -7.992 -0.12 +0.03    +0.057 C 
DOCKED: ATOM     22  C   UNL d   1       8.487  18.364  -7.587 -0.13 -0.00    -0.019 A 
DOCKED: ATOM     23  C   UNL d   1       8.391  17.291  -8.597 -0.15 +0.01    +0.045 A 
DOCKED: ATOM     24  C   UNL d   1       7.235  18.764  -7.261 -0.12 -0.01    -0.022 A 
DOCKED: ATOM     25  C   UNL d   1       9.409  15.589 -10.072 -0.18 -0.00    +0.049 A 
DOCKED: ATOM     26  C   UNL d   1       9.844  13.872 -11.511 -0.24 +0.00    -0.018 A 
DOCKED: ATOM     27  C   UNL d   1      10.277  14.535 -10.321 -0.23 -0.00    +0.003 A 
DOCKED: ATOM     28  C   UNL d   1       9.444  16.651  -9.128 -0.15 +0.00    +0.052 C 
DOCKED: ATOM     29  C   UNL d   1       6.814  19.808  -6.283 -0.06 +0.02    +0.046 C 
DOCKED: ATOM     30  C   UNL d   1      10.497  12.701 -12.165 -0.19 -0.00    +0.046 C 
DOCKED: ATOM     31  H   UNL d   1       6.622  16.418  -9.386 +0.06 +0.04    +0.166 HD
DOCKED: ATOM     32  H   UNL d   1       7.661  16.184 -11.140 +0.05 +0.01    +0.166 HD
DOCKED: ENDROOT
DOCKED: BRANCH   7  33
DOCKED: ATOM     33  C   UNL d   1       5.776  12.814 -14.854 -0.18 +0.00    +0.141 C 
DOCKED: BRANCH  33  34
DOCKED: ATOM     34  C   UNL d   1       4.872  11.921 -14.047 -0.18 +0.01    +0.306 C 
DOCKED: ATOM     35  O   UNL d   1       5.095  11.494 -12.927 -0.03 -0.03    -0.251 OA
DOCKED: BRANCH  34  36
DOCKED: ATOM     36  O   UNL d   1       3.734  11.616 -14.694 -0.08 +0.01    -0.481 OA
DOCKED: ATOM     37  H   UNL d   1       3.281  12.477 -14.816 +0.09 -0.01    +0.295 HD
DOCKED: ENDBRANCH  34  36
DOCKED: ENDBRANCH  33  34
DOCKED: ENDBRANCH   7  33
DOCKED: BRANCH  27  38
DOCKED: ATOM     38  C   UNL d   1      11.438  14.187  -9.559 -0.26 -0.00    +0.017 C 
DOCKED: ATOM     39  C   UNL d   1      11.475  13.271  -8.579 -0.38 -0.02    +0.092 C 
DOCKED: BRANCH  39  40
DOCKED: ATOM     40  C   UNL d   1      12.736  12.995  -7.885 -0.11 -0.07    +0.330 C 
DOCKED: ATOM     41  O   UNL d   1      13.021  13.252  -6.731 -0.31 +0.06    -0.246 OA
DOCKED: BRANCH  40  42
DOCKED: ATOM     42  O   UNL d   1      13.594  12.380  -8.713 -0.09 +0.17    -0.477 OA
DOCKED: ATOM     43  H   UNL d   1      13.217  11.482  -8.817 -0.39 -0.21    +0.295 HD
DOCKED: ENDBRANCH  40  42
DOCKED: ENDBRANCH  39  40
DOCKED: ENDBRANCH  27  38
DOCKED: BRANCH   8  44
DOCKED: ATOM     44  C   UNL d   1       0.961  17.093 -10.488 -0.05 -0.00    +0.141 C 
DOCKED: BRANCH  44  45
DOCKED: ATOM     45  C   UNL d   1       1.324  18.533 -10.734 -0.00 -0.00    +0.306 C 
DOCKED: ATOM     46  O   UNL d   1       2.073  18.957 -11.597 -0.01 -0.00    -0.251 OA
DOCKED: BRANCH  45  47
DOCKED: ATOM     47  O   UNL d   1       0.741  19.368  -9.854 +0.01 +0.00    -0.481 OA
DOCKED: ATOM     48  H   UNL d   1       0.843  18.923  -8.986 +0.03 +0.00    +0.295 HD
DOCKED: ENDBRANCH  45  47
DOCKED: ENDBRANCH  44  45
DOCKED: ENDBRANCH   8  44
DOCKED: BRANCH  22  49
DOCKED: ATOM     49  C   UNL d   1       9.780  18.903  -7.050 -0.09 +0.00    +0.048 C 
DOCKED: BRANCH  49  50
DOCKED: ATOM     50  C   UNL d   1      10.178  18.225  -5.739 -0.13 -0.01    +0.125 C 
DOCKED: BRANCH  50  51
DOCKED: ATOM     51  C   UNL d   1      11.416  17.393  -5.919 -0.08 -0.11    +0.305 C 
DOCKED: ATOM     52  O   UNL d   1      11.522  16.340  -6.522 -0.15 +0.06    -0.251 OA
DOCKED: BRANCH  51  53
DOCKED: ATOM     53  O   UNL d   1      12.484  17.939  -5.303 -0.06 +0.43    -0.481 OA
DOCKED: ATOM     54  H   UNL d   1      12.693  17.306  -4.585 -0.49 -0.61    +0.295 HD
DOCKED: ENDBRANCH  51  53
DOCKED: ENDBRANCH  50  51
DOCKED: ENDBRANCH  49  50
DOCKED: ENDBRANCH  22  49
DOCKED: TORSDOF 13
DOCKED: TER
DOCKED: ENDMDL
________________________________________________________________________________


	BEGINNING GENETIC ALGORITHM DOCKING 11 of 100
Run: 11 Seed: 1416924443 121037142 [ Run 11 of 100 GA/GALS ]
Beginning LAMARCKIAN GENETIC ALGORITHM (LGA), with a maximum of 25000000 energy evaluations.

Final-Value: -10.331


	FINAL GENETIC ALGORITHM DOCKED STATE
	_______________________________________________


Detailed state:  trans 1.632 14.274 -10.918 quatxyzw 0.853399 0.041612 -0.228065 0.466868 center 0.153 0.018 -0.028 ntor 13 170.3024 -5.2206 179.0469 115.9143 -153.6403 170.4382 145.9704 111.6232 3.6173 -5.9987 101.4919 27.9205 8.7015
State:	  1.632  14.274 -10.918   0.965  0.047 -0.258 124.338    170.30   -5.22  179.05  115.91 -153.64  170.44  145.97  111.62    3.62   -6.00  101.49   27.92    8.70

DOCKED: MODEL       11
DOCKED: USER    Run = 11
DOCKED: USER    DPF = D:/Protein_go_brrr/autodock/final/mut_Y35F/heme/dock.dpf
DOCKED: USER  
DOCKED: USER    Estimated Free Energy of Binding    =   -3.80 kcal/mol  [=(1)+(2)+(3)-(4)]
DOCKED: USER    Estimated Inhibition Constant, Ki   =    1.64 mM (millimolar)  [Temperature = 298.15 K]
DOCKED: USER    
DOCKED: USER    (1) Final Intermolecular Energy     =   -7.68 kcal/mol
DOCKED: USER        vdW + Hbond + desolv Energy     =   -7.32 kcal/mol
DOCKED: USER        Electrostatic Energy            =   -0.35 kcal/mol
DOCKED: USER    (2) Final Total Internal Energy     =   -2.65 kcal/mol
DOCKED: USER    (3) Torsional Free Energy           =   +3.88 kcal/mol
DOCKED: USER    (4) Unbound System's Energy  [=(2)] =   -2.65 kcal/mol
DOCKED: USER    
DOCKED: USER    
DOCKED: USER    NEWDPF move heme_opt.pdbqt
DOCKED: USER    NEWDPF about 0.153000 0.018000 -0.028000
DOCKED: USER    NEWDPF tran0 1.631825 14.273621 -10.917906
DOCKED: USER    NEWDPF quaternion0 0.853399 0.041612 -0.228065 0.466868
DOCKED: USER    NEWDPF axisangle0 0.965026 0.047055 -0.257897 124.337672
DOCKED: USER    NEWDPF quat0 0.965026 0.047055 -0.257897 124.337672
DOCKED: USER    NEWDPF dihe0 170.30 -5.22 179.05 115.91 -153.64 170.44 145.97 111.62 3.62 -6.00 101.49 27.92 8.70 
DOCKED: USER  keepresnum = 1 
DOCKED: USER  
DOCKED: REMARK  13 active torsions:
DOCKED: REMARK  status: ('A' for Active; 'I' for Inactive)
DOCKED: REMARK    1  A    between atoms: O_3  and  C_38 
DOCKED: REMARK    2  A    between atoms: O_4  and  C_40 
DOCKED: REMARK    3  A    between atoms: O_7  and  C_46 
DOCKED: REMARK    4  A    between atoms: O_9  and  C_48 
DOCKED: REMARK    5  A    between atoms: C_15  and  C_20 
DOCKED: REMARK    6  A    between atoms: C_16  and  C_23 
DOCKED: REMARK    7  A    between atoms: C_20  and  C_38 
DOCKED: REMARK    8  A    between atoms: C_23  and  C_40 
DOCKED: REMARK    9  A    between atoms: C_32  and  C_41 
DOCKED: REMARK   10  A    between atoms: C_37  and  C_45 
DOCKED: REMARK   11  A    between atoms: C_41  and  C_44 
DOCKED: REMARK   12  A    between atoms: C_44  and  C_46 
DOCKED: REMARK   13  A    between atoms: C_47  and  C_48 
DOCKED: USER                              x       y       z     vdW  Elec       q    Type
DOCKED: USER                           _______ _______ _______ _____ _____    ______ ____
DOCKED: ROOT
DOCKED: ATOM      1  O   UNL d   1      -3.893  12.237 -10.628 -0.04 +0.05    -0.289 OA
DOCKED: ATOM      2  O   UNL d   1       0.624  15.008  -5.307 -0.19 +0.21    -0.289 OA
DOCKED: ATOM      3  N   UNL d   1      -0.639  13.195 -11.252 -0.13 +0.02    -0.247 NA
DOCKED: ATOM      4  N   UNL d   1       0.220  14.414  -8.682 -0.17 +0.05    -0.247 NA
DOCKED: ATOM      5  N   UNL d   1       2.494  15.502 -10.065 -0.14 -0.02    -0.354 N 
DOCKED: ATOM      6  N   UNL d   1       1.585  14.250 -12.731 -0.11 +0.00    -0.354 N 
DOCKED: ATOM      7  C   UNL d   1      -2.516  12.440 -12.637 -0.08 -0.01    +0.084 A 
DOCKED: ATOM      8  C   UNL d   1      -0.906  13.651  -6.652 -0.32 -0.05    +0.084 A 
DOCKED: ATOM      9  C   UNL d   1      -0.797  13.632  -8.180 -0.26 -0.02    +0.058 A 
DOCKED: ATOM     10  C   UNL d   1      -1.064  12.918 -12.541 -0.15 -0.00    +0.058 A 
DOCKED: ATOM     11  C   UNL d   1      -2.831  12.478 -11.172 -0.07 -0.02    +0.193 A 
DOCKED: ATOM     12  C   UNL d   1      -1.606  12.927 -10.437 -0.17 -0.01    +0.109 A 
DOCKED: ATOM     13  C   UNL d   1       0.212  14.618  -6.382 -0.22 -0.10    +0.193 A 
DOCKED: ATOM     14  C   UNL d   1      -3.407  13.452 -13.362 -0.02 -0.00    +0.026 C 
DOCKED: ATOM     15  C   UNL d   1      -1.651  12.952  -8.961 -0.27 -0.01    +0.055 C 
DOCKED: ATOM     16  C   UNL d   1      -0.544  12.295  -6.039 -0.52 -0.01    +0.026 C 
DOCKED: ATOM     17  C   UNL d   1       0.807  15.010  -7.695 -0.19 -0.02    +0.109 A 
DOCKED: ATOM     18  C   UNL d   1      -0.267  12.966 -13.625 -0.15 -0.00    +0.050 C 
DOCKED: ATOM     19  C   UNL d   1       1.109  13.313 -13.620 -0.10 -0.00    +0.045 A 
DOCKED: ATOM     20  C   UNL d   1       2.605  16.164  -8.870 -0.21 +0.01    +0.045 A 
DOCKED: ATOM     21  C   UNL d   1       1.904  15.988  -7.746 -0.28 +0.01    +0.057 C 
DOCKED: ATOM     22  C   UNL d   1       4.145  17.011 -10.330 -0.14 -0.00    -0.019 A 
DOCKED: ATOM     23  C   UNL d   1       3.382  15.944 -11.009 -0.19 +0.00    +0.045 A 
DOCKED: ATOM     24  C   UNL d   1       3.681  17.136  -9.064 -0.18 -0.00    -0.022 A 
DOCKED: ATOM     25  C   UNL d   1       2.919  14.499 -12.960 -0.16 +0.00    +0.049 A 
DOCKED: ATOM     26  C   UNL d   1       2.167  12.916 -14.422 -0.12 +0.00    -0.018 A 
DOCKED: ATOM     27  C   UNL d   1       3.312  13.654 -13.988 -0.17 +0.00    +0.003 A 
DOCKED: ATOM     28  C   UNL d   1       3.594  15.543 -12.271 -0.20 +0.00    +0.052 C 
DOCKED: ATOM     29  C   UNL d   1       4.138  18.064  -7.990 -0.12 +0.02    +0.046 C 
DOCKED: ATOM     30  C   UNL d   1       2.121  11.912 -15.524 -0.13 -0.00    +0.046 C 
DOCKED: ATOM     31  H   UNL d   1       1.862  14.716 -10.173 +0.03 -0.00    +0.166 HD
DOCKED: ATOM     32  H   UNL d   1       1.006  14.711 -12.039 +0.03 -0.00    +0.166 HD
DOCKED: ENDROOT
DOCKED: BRANCH   7  33
DOCKED: ATOM     33  C   UNL d   1      -2.706  11.024 -13.191 -0.09 -0.01    +0.141 C 
DOCKED: BRANCH  33  34
DOCKED: ATOM     34  C   UNL d   1      -1.852  10.006 -12.485 -0.14 -0.02    +0.306 C 
DOCKED: ATOM     35  O   UNL d   1      -0.790   9.557 -12.882 -0.19 +0.01    -0.251 OA
DOCKED: BRANCH  34  36
DOCKED: ATOM     36  O   UNL d   1      -2.380   9.609 -11.314 -0.11 +0.03    -0.481 OA
DOCKED: ATOM     37  H   UNL d   1      -3.101  10.250 -11.139 +0.10 -0.03    +0.295 HD
DOCKED: ENDBRANCH  34  36
DOCKED: ENDBRANCH  33  34
DOCKED: ENDBRANCH   7  33
DOCKED: BRANCH  27  38
DOCKED: ATOM     38  C   UNL d   1       4.620  13.559 -14.562 -0.18 +0.00    +0.017 C 
DOCKED: ATOM     39  C   UNL d   1       5.712  13.102 -13.929 -0.28 +0.00    +0.092 C 
DOCKED: BRANCH  39  40
DOCKED: ATOM     40  C   UNL d   1       6.993  13.040 -14.636 -0.11 +0.00    +0.330 C 
DOCKED: ATOM     41  O   UNL d   1       8.096  12.841 -14.162 -0.14 -0.00    -0.246 OA
DOCKED: BRANCH  40  42
DOCKED: ATOM     42  O   UNL d   1       6.804  13.231 -15.951 -0.01 +0.01    -0.477 OA
DOCKED: ATOM     43  H   UNL d   1       7.712  13.259 -16.317 +0.03 -0.01    +0.295 HD
DOCKED: ENDBRANCH  40  42
DOCKED: ENDBRANCH  39  40
DOCKED: ENDBRANCH  27  38
DOCKED: BRANCH   8  44
DOCKED: ATOM     44  C   UNL d   1      -2.233  14.176  -6.092 -0.16 -0.12    +0.141 C 
DOCKED: BRANCH  44  45
DOCKED: ATOM     45  C   UNL d   1      -2.581  15.555  -6.584 -0.06 -0.21    +0.306 C 
DOCKED: ATOM     46  O   UNL d   1      -3.385  15.834  -7.457 -0.03 +0.10    -0.251 OA
DOCKED: BRANCH  45  47
DOCKED: ATOM     47  O   UNL d   1      -1.874  16.517  -5.963 +0.02 +0.48    -0.481 OA
DOCKED: ATOM     48  H   UNL d   1      -1.320  16.036  -5.312 -0.44 -0.63    +0.295 HD
DOCKED: ENDBRANCH  45  47
DOCKED: ENDBRANCH  44  45
DOCKED: ENDBRANCH   8  44
DOCKED: BRANCH  22  49
DOCKED: ATOM     49  C   UNL d   1       5.235  17.811 -10.980 -0.08 +0.00    +0.048 C 
DOCKED: BRANCH  49  50
DOCKED: ATOM     50  C   UNL d   1       6.523  17.002 -11.130 -0.10 +0.01    +0.125 C 
DOCKED: BRANCH  50  51
DOCKED: ATOM     51  C   UNL d   1       7.257  16.916  -9.823 -0.09 +0.04    +0.305 C 
DOCKED: ATOM     52  O   UNL d   1       7.339  15.955  -9.078 -0.21 -0.06    -0.251 OA
DOCKED: BRANCH  51  53
DOCKED: ATOM     53  O   UNL d   1       7.859  18.079  -9.504 +0.00 -0.05    -0.481 OA
DOCKED: ATOM     54  H   UNL d   1       8.530  18.200 -10.208 +0.04 +0.01    +0.295 HD
DOCKED: ENDBRANCH  51  53
DOCKED: ENDBRANCH  50  51
DOCKED: ENDBRANCH  49  50
DOCKED: ENDBRANCH  22  49
DOCKED: TORSDOF 13
DOCKED: TER
DOCKED: ENDMDL
________________________________________________________________________________


	BEGINNING GENETIC ALGORITHM DOCKING 12 of 100
Run: 12 Seed: 455613881 509605953 [ Run 12 of 100 GA/GALS ]
Beginning LAMARCKIAN GENETIC ALGORITHM (LGA), with a maximum of 25000000 energy evaluations.

Final-Value: -11.684


	FINAL GENETIC ALGORITHM DOCKED STATE
	_______________________________________________


Detailed state:  trans -5.535 19.492 4.697 quatxyzw -0.459539 -0.254534 0.399151 0.751475 center 0.153 0.018 -0.028 ntor 13 -105.2927 -36.5607 101.9192 87.7439 36.3915 -127.5582 14.7027 130.1110 128.7086 -6.7614 58.7874 -92.3621 9.0050
State:	 -5.535  19.492   4.697  -0.697 -0.386  0.605 82.563   -105.29  -36.56  101.92   87.74   36.39 -127.56   14.70  130.11  128.71   -6.76   58.79  -92.36    9.00

DOCKED: MODEL       12
DOCKED: USER    Run = 12
DOCKED: USER    DPF = D:/Protein_go_brrr/autodock/final/mut_Y35F/heme/dock.dpf
DOCKED: USER  
DOCKED: USER    Estimated Free Energy of Binding    =   -6.05 kcal/mol  [=(1)+(2)+(3)-(4)]
DOCKED: USER    Estimated Inhibition Constant, Ki   =   36.70 uM (micromolar)  [Temperature = 298.15 K]
DOCKED: USER    
DOCKED: USER    (1) Final Intermolecular Energy     =   -9.93 kcal/mol
DOCKED: USER        vdW + Hbond + desolv Energy     =   -9.14 kcal/mol
DOCKED: USER        Electrostatic Energy            =   -0.79 kcal/mol
DOCKED: USER    (2) Final Total Internal Energy     =   -1.75 kcal/mol
DOCKED: USER    (3) Torsional Free Energy           =   +3.88 kcal/mol
DOCKED: USER    (4) Unbound System's Energy  [=(2)] =   -1.75 kcal/mol
DOCKED: USER    
DOCKED: USER    
DOCKED: USER    NEWDPF move heme_opt.pdbqt
DOCKED: USER    NEWDPF about 0.153000 0.018000 -0.028000
DOCKED: USER    NEWDPF tran0 -5.534933 19.491884 4.696999
DOCKED: USER    NEWDPF quaternion0 -0.459539 -0.254534 0.399151 0.751475
DOCKED: USER    NEWDPF axisangle0 -0.696523 -0.385797 0.604993 82.563463
DOCKED: USER    NEWDPF quat0 -0.696523 -0.385797 0.604993 82.563463
DOCKED: USER    NEWDPF dihe0 -105.29 -36.56 101.92 87.74 36.39 -127.56 14.70 130.11 128.71 -6.76 58.79 -92.36 9.00 
DOCKED: USER  keepresnum = 1 
DOCKED: USER  
DOCKED: REMARK  13 active torsions:
DOCKED: REMARK  status: ('A' for Active; 'I' for Inactive)
DOCKED: REMARK    1  A    between atoms: O_3  and  C_38 
DOCKED: REMARK    2  A    between atoms: O_4  and  C_40 
DOCKED: REMARK    3  A    between atoms: O_7  and  C_46 
DOCKED: REMARK    4  A    between atoms: O_9  and  C_48 
DOCKED: REMARK    5  A    between atoms: C_15  and  C_20 
DOCKED: REMARK    6  A    between atoms: C_16  and  C_23 
DOCKED: REMARK    7  A    between atoms: C_20  and  C_38 
DOCKED: REMARK    8  A    between atoms: C_23  and  C_40 
DOCKED: REMARK    9  A    between atoms: C_32  and  C_41 
DOCKED: REMARK   10  A    between atoms: C_37  and  C_45 
DOCKED: REMARK   11  A    between atoms: C_41  and  C_44 
DOCKED: REMARK   12  A    between atoms: C_44  and  C_46 
DOCKED: REMARK   13  A    between atoms: C_47  and  C_48 
DOCKED: USER                              x       y       z     vdW  Elec       q    Type
DOCKED: USER                           _______ _______ _______ _____ _____    ______ ____
DOCKED: ROOT
DOCKED: ATOM      1  O   UNL d   1      -7.212  21.404  10.016 -0.08 +0.21    -0.289 OA
DOCKED: ATOM      2  O   UNL d   1     -11.067  20.621   3.618 -0.02 +0.05    -0.289 OA
DOCKED: ATOM      3  N   UNL d   1      -5.753  20.357   7.071 -0.09 +0.15    -0.247 NA
DOCKED: ATOM      4  N   UNL d   1      -8.065  20.066   5.228 -0.19 +0.12    -0.247 NA
DOCKED: ATOM      5  N   UNL d   1      -6.337  18.628   3.436 -0.12 +0.14    -0.354 N 
DOCKED: ATOM      6  N   UNL d   1      -3.948  18.918   5.362 -0.13 +0.13    -0.354 N 
DOCKED: ATOM      7  C   UNL d   1      -4.997  20.580   9.392 -0.15 -0.05    +0.084 A 
DOCKED: ATOM      8  C   UNL d   1     -10.039  21.431   5.687 -0.06 -0.03    +0.084 A 
DOCKED: ATOM      9  C   UNL d   1      -8.647  20.950   6.109 -0.15 -0.03    +0.058 A 
DOCKED: ATOM     10  C   UNL d   1      -4.691  20.188   7.944 -0.21 -0.03    +0.058 A 
DOCKED: ATOM     11  C   UNL d   1      -6.415  21.018   9.180 -0.12 -0.13    +0.193 A 
DOCKED: ATOM     12  C   UNL d   1      -6.746  20.859   7.729 -0.17 -0.07    +0.109 A 
DOCKED: ATOM     13  C   UNL d   1     -10.155  20.628   4.422 -0.06 -0.05    +0.193 A 
DOCKED: ATOM     14  C   UNL d   1      -4.988  19.369  10.329 -0.26 -0.02    +0.026 C 
DOCKED: ATOM     15  C   UNL d   1      -8.071  21.319   7.263 -0.16 -0.03    +0.055 C 
DOCKED: ATOM     16  C   UNL d   1     -10.041  22.919   5.327 -0.02 -0.01    +0.026 C 
DOCKED: ATOM     17  C   UNL d   1      -8.896  19.838   4.263 -0.14 -0.03    +0.109 A 
DOCKED: ATOM     18  C   UNL d   1      -3.457  19.802   7.566 -0.28 -0.02    +0.050 C 
DOCKED: ATOM     19  C   UNL d   1      -3.060  19.502   6.238 -0.27 -0.02    +0.045 A 
DOCKED: ATOM     20  C   UNL d   1      -7.546  18.397   2.833 -0.18 -0.01    +0.045 A 
DOCKED: ATOM     21  C   UNL d   1      -8.741  18.919   3.126 -0.13 -0.01    +0.057 C 
DOCKED: ATOM     22  C   UNL d   1      -5.947  17.148   1.783 -0.24 +0.00    -0.019 A 
DOCKED: ATOM     23  C   UNL d   1      -5.311  17.918   2.871 -0.27 -0.01    +0.045 A 
DOCKED: ATOM     24  C   UNL d   1      -7.270  17.437   1.765 -0.17 +0.01    -0.022 A 
DOCKED: ATOM     25  C   UNL d   1      -3.331  18.634   4.166 -0.13 -0.01    +0.049 A 
DOCKED: ATOM     26  C   UNL d   1      -1.846  19.634   5.582 -0.23 +0.00    -0.018 A 
DOCKED: ATOM     27  C   UNL d   1      -2.028  19.102   4.268 -0.22 -0.00    +0.003 A 
DOCKED: ATOM     28  C   UNL d   1      -4.001  17.887   3.160 -0.16 -0.01    +0.052 C 
DOCKED: ATOM     29  C   UNL d   1      -8.325  16.921   0.847 -0.11 -0.01    +0.046 C 
DOCKED: ATOM     30  C   UNL d   1      -0.593  20.221   6.138 -0.23 -0.01    +0.046 C 
DOCKED: ATOM     31  H   UNL d   1      -6.238  19.323   4.168 -0.16 -0.08    +0.166 HD
DOCKED: ATOM     32  H   UNL d   1      -4.908  18.699   5.601 -0.46 -0.11    +0.166 HD
DOCKED: ENDROOT
DOCKED: BRANCH   7  33
DOCKED: ATOM     33  C   UNL d   1      -4.156  21.731   9.953 -0.03 -0.05    +0.141 C 
DOCKED: BRANCH  33  34
DOCKED: ATOM     34  C   UNL d   1      -4.566  22.122  11.347 +0.00 -0.10    +0.306 C 
DOCKED: ATOM     35  O   UNL d   1      -4.115  21.669  12.385 -0.00 +0.08    -0.251 OA
DOCKED: BRANCH  34  36
DOCKED: ATOM     36  O   UNL d   1      -5.523  23.068  11.360 +0.01 +0.14    -0.481 OA
DOCKED: ATOM     37  H   UNL d   1      -6.334  22.602  11.065 +0.02 -0.11    +0.295 HD
DOCKED: ENDBRANCH  34  36
DOCKED: ENDBRANCH  33  34
DOCKED: ENDBRANCH   7  33
DOCKED: BRANCH  27  38
DOCKED: ATOM     38  C   UNL d   1      -1.014  19.029   3.260 -0.25 -0.00    +0.017 C 
DOCKED: ATOM     39  C   UNL d   1      -0.632  17.910   2.626 -0.33 -0.02    +0.092 C 
DOCKED: BRANCH  39  40
DOCKED: ATOM     40  C   UNL d   1       0.409  17.972   1.597 -0.25 -0.08    +0.330 C 
DOCKED: ATOM     41  O   UNL d   1       0.370  17.516   0.471 -0.31 +0.06    -0.246 OA
DOCKED: BRANCH  40  42
DOCKED: ATOM     42  O   UNL d   1       1.477  18.640   2.061 -0.12 +0.10    -0.477 OA
DOCKED: ATOM     43  H   UNL d   1       2.239  18.167   1.669 -0.26 -0.12    +0.295 HD
DOCKED: ENDBRANCH  40  42
DOCKED: ENDBRANCH  39  40
DOCKED: ENDBRANCH  27  38
DOCKED: BRANCH   8  44
DOCKED: ATOM     44  C   UNL d   1     -11.177  21.094   6.657 -0.08 -0.06    +0.141 C 
DOCKED: BRANCH  44  45
DOCKED: ATOM     45  C   UNL d   1     -11.295  19.621   6.945 -0.12 -0.20    +0.306 C 
DOCKED: ATOM     46  O   UNL d   1     -10.994  18.707   6.196 -0.37 +0.11    -0.251 OA
DOCKED: BRANCH  45  47
DOCKED: ATOM     47  O   UNL d   1     -11.816  19.374   8.161 -0.05 +0.48    -0.481 OA
DOCKED: ATOM     48  H   UNL d   1     -11.069  19.511   8.783 -0.47 -0.66    +0.295 HD
DOCKED: ENDBRANCH  45  47
DOCKED: ENDBRANCH  44  45
DOCKED: ENDBRANCH   8  44
DOCKED: BRANCH  22  49
DOCKED: ATOM     49  C   UNL d   1      -5.213  16.200   0.881 -0.19 -0.02    +0.048 C 
DOCKED: BRANCH  49  50
DOCKED: ATOM     50  C   UNL d   1      -4.360  16.940  -0.149 -0.21 -0.06    +0.125 C 
DOCKED: BRANCH  50  51
DOCKED: ATOM     51  C   UNL d   1      -4.780  16.586  -1.547 -0.13 -0.22    +0.305 C 
DOCKED: ATOM     52  O   UNL d   1      -5.132  17.346  -2.432 -0.06 +0.14    -0.251 OA
DOCKED: BRANCH  51  53
DOCKED: ATOM     53  O   UNL d   1      -4.747  15.256  -1.762 -0.16 +0.54    -0.481 OA
DOCKED: ATOM     54  H   UNL d   1      -3.853  15.097  -2.131 -0.41 -0.75    +0.295 HD
DOCKED: ENDBRANCH  51  53
DOCKED: ENDBRANCH  50  51
DOCKED: ENDBRANCH  49  50
DOCKED: ENDBRANCH  22  49
DOCKED: TORSDOF 13
DOCKED: TER
DOCKED: ENDMDL
________________________________________________________________________________


	BEGINNING GENETIC ALGORITHM DOCKING 13 of 100
Run: 13 Seed: 1878988181 236366243 [ Run 13 of 100 GA/GALS ]
Beginning LAMARCKIAN GENETIC ALGORITHM (LGA), with a maximum of 25000000 energy evaluations.

Final-Value: -11.560


	FINAL GENETIC ALGORITHM DOCKED STATE
	_______________________________________________


Detailed state:  trans 7.306 16.047 -9.246 quatxyzw -0.877660 -0.184723 -0.335373 -0.288298 center 0.153 0.018 -0.028 ntor 13 -83.5823 -93.3382 99.6803 21.9978 32.6799 13.2108 -43.8180 -19.9370 115.1854 -127.2690 -61.2804 -85.2728 -12.9616
State:	  7.306  16.047  -9.246  -0.917 -0.193 -0.350 -146.488    -83.58  -93.34   99.68   22.00   32.68   13.21  -43.82  -19.94  115.19 -127.27  -61.28  -85.27  -12.96

DOCKED: MODEL       13
DOCKED: USER    Run = 13
DOCKED: USER    DPF = D:/Protein_go_brrr/autodock/final/mut_Y35F/heme/dock.dpf
DOCKED: USER  
DOCKED: USER    Estimated Free Energy of Binding    =   -4.46 kcal/mol  [=(1)+(2)+(3)-(4)]
DOCKED: USER    Estimated Inhibition Constant, Ki   =  534.36 uM (micromolar)  [Temperature = 298.15 K]
DOCKED: USER    
DOCKED: USER    (1) Final Intermolecular Energy     =   -8.34 kcal/mol
DOCKED: USER        vdW + Hbond + desolv Energy     =   -7.92 kcal/mol
DOCKED: USER        Electrostatic Energy            =   -0.42 kcal/mol
DOCKED: USER    (2) Final Total Internal Energy     =   -3.22 kcal/mol
DOCKED: USER    (3) Torsional Free Energy           =   +3.88 kcal/mol
DOCKED: USER    (4) Unbound System's Energy  [=(2)] =   -3.22 kcal/mol
DOCKED: USER    
DOCKED: USER    
DOCKED: USER    NEWDPF move heme_opt.pdbqt
DOCKED: USER    NEWDPF about 0.153000 0.018000 -0.028000
DOCKED: USER    NEWDPF tran0 7.306086 16.047064 -9.246051
DOCKED: USER    NEWDPF quaternion0 -0.877660 -0.184723 -0.335373 -0.288298
DOCKED: USER    NEWDPF axisangle0 -0.916577 -0.192913 -0.350244 -146.487786
DOCKED: USER    NEWDPF quat0 -0.916577 -0.192913 -0.350244 -146.487786
DOCKED: USER    NEWDPF dihe0 -83.58 -93.34 99.68 22.00 32.68 13.21 -43.82 -19.94 115.19 -127.27 -61.28 -85.27 -12.96 
DOCKED: USER  keepresnum = 1 
DOCKED: USER  
DOCKED: REMARK  13 active torsions:
DOCKED: REMARK  status: ('A' for Active; 'I' for Inactive)
DOCKED: REMARK    1  A    between atoms: O_3  and  C_38 
DOCKED: REMARK    2  A    between atoms: O_4  and  C_40 
DOCKED: REMARK    3  A    between atoms: O_7  and  C_46 
DOCKED: REMARK    4  A    between atoms: O_9  and  C_48 
DOCKED: REMARK    5  A    between atoms: C_15  and  C_20 
DOCKED: REMARK    6  A    between atoms: C_16  and  C_23 
DOCKED: REMARK    7  A    between atoms: C_20  and  C_38 
DOCKED: REMARK    8  A    between atoms: C_23  and  C_40 
DOCKED: REMARK    9  A    between atoms: C_32  and  C_41 
DOCKED: REMARK   10  A    between atoms: C_37  and  C_45 
DOCKED: REMARK   11  A    between atoms: C_41  and  C_44 
DOCKED: REMARK   12  A    between atoms: C_44  and  C_46 
DOCKED: REMARK   13  A    between atoms: C_47  and  C_48 
DOCKED: USER                              x       y       z     vdW  Elec       q    Type
DOCKED: USER                           _______ _______ _______ _____ _____    ______ ____
DOCKED: ROOT
DOCKED: ATOM      1  O   UNL d   1       4.527  14.428 -14.187 -0.08 -0.00    -0.289 OA
DOCKED: ATOM      2  O   UNL d   1       2.158  18.414  -8.280 -0.04 -0.05    -0.289 OA
DOCKED: ATOM      3  N   UNL d   1       6.499  15.019 -11.420 -0.07 -0.03    -0.247 NA
DOCKED: ATOM      4  N   UNL d   1       4.857  16.889  -9.797 -0.10 -0.05    -0.247 NA
DOCKED: ATOM      5  N   UNL d   1       7.198  17.430  -8.219 -0.11 -0.11    -0.354 N 
DOCKED: ATOM      6  N   UNL d   1       8.900  15.503  -9.920 -0.10 -0.01    -0.354 N 
DOCKED: ATOM      7  C   UNL d   1       6.860  13.980 -13.610 -0.19 +0.00    +0.084 A 
DOCKED: ATOM      8  C   UNL d   1       2.433  16.796 -10.096 -0.12 +0.01    +0.084 A 
DOCKED: ATOM      9  C   UNL d   1       3.829  16.332 -10.524 -0.15 +0.01    +0.058 A 
DOCKED: ATOM     10  C   UNL d   1       7.420  14.401 -12.249 -0.25 +0.00    +0.058 A 
DOCKED: ATOM     11  C   UNL d   1       5.454  14.454 -13.398 -0.15 +0.01    +0.193 A 
DOCKED: ATOM     12  C   UNL d   1       5.356  15.041 -12.024 -0.18 +0.01    +0.109 A 
DOCKED: ATOM     13  C   UNL d   1       2.861  17.749  -9.016 -0.07 +0.03    +0.193 A 
DOCKED: ATOM     14  C   UNL d   1       7.483  14.778 -14.759 -0.07 -0.00    +0.026 C 
DOCKED: ATOM     15  C   UNL d   1       4.031  15.494 -11.553 -0.22 +0.00    +0.055 C 
DOCKED: ATOM     16  C   UNL d   1       1.627  15.660  -9.459 -0.26 -0.00    +0.026 C 
DOCKED: ATOM     17  C   UNL d   1       4.353  17.719  -8.940 -0.13 +0.03    +0.109 A 
DOCKED: ATOM     18  C   UNL d   1       8.681  14.099 -11.883 -0.28 +0.00    +0.050 C 
DOCKED: ATOM     19  C   UNL d   1       9.258  14.371 -10.617 -0.26 -0.00    +0.045 A 
DOCKED: ATOM     20  C   UNL d   1       6.361  18.404  -7.740 -0.10 +0.02    +0.045 A 
DOCKED: ATOM     21  C   UNL d   1       5.062  18.591  -7.993 -0.11 +0.03    +0.057 C 
DOCKED: ATOM     22  C   UNL d   1       8.445  18.724  -6.860 -0.14 -0.00    -0.019 A 
DOCKED: ATOM     23  C   UNL d   1       8.478  17.541  -7.744 -0.17 +0.01    +0.045 A 
DOCKED: ATOM     24  C   UNL d   1       7.189  19.229  -6.861 -0.09 -0.01    -0.022 A 
DOCKED: ATOM     25  C   UNL d   1       9.643  15.616  -8.768 -0.26 +0.00    +0.049 A 
DOCKED: ATOM     26  C   UNL d   1      10.231  13.713  -9.882 -0.31 +0.00    -0.018 A 
DOCKED: ATOM     27  C   UNL d   1      10.457  14.493  -8.706 -0.37 -0.00    +0.003 A 
DOCKED: ATOM     28  C   UNL d   1       9.564  16.783  -7.961 -0.21 +0.00    +0.052 C 
DOCKED: ATOM     29  C   UNL d   1       6.657  20.407  -6.117 -0.09 +0.02    +0.046 C 
DOCKED: ATOM     30  C   UNL d   1      10.911  12.436 -10.246 -0.25 -0.01    +0.046 C 
DOCKED: ATOM     31  H   UNL d   1       6.849  16.675  -8.799 +0.05 +0.04    +0.166 HD
DOCKED: ATOM     32  H   UNL d   1       8.211  16.170 -10.249 +0.05 +0.01    +0.166 HD
DOCKED: ENDROOT
DOCKED: BRANCH   7  33
DOCKED: ATOM     33  C   UNL d   1       6.883  12.474 -13.894 -0.18 +0.01    +0.141 C 
DOCKED: BRANCH  33  34
DOCKED: ATOM     34  C   UNL d   1       5.971  12.084 -15.026 -0.13 +0.00    +0.306 C 
DOCKED: ATOM     35  O   UNL d   1       6.256  12.080 -16.211 -0.06 +0.01    -0.251 OA
DOCKED: BRANCH  34  36
DOCKED: ATOM     36  O   UNL d   1       4.748  11.717 -14.604 -0.11 -0.00    -0.481 OA
DOCKED: ATOM     37  H   UNL d   1       4.212  12.536 -14.659 +0.10 -0.00    +0.295 HD
DOCKED: ENDBRANCH  34  36
DOCKED: ENDBRANCH  33  34
DOCKED: ENDBRANCH   7  33
DOCKED: BRANCH  27  38
DOCKED: ATOM     38  C   UNL d   1      11.400  14.179  -7.675 -0.41 -0.00    +0.017 C 
DOCKED: ATOM     39  C   UNL d   1      12.290  15.037  -7.153 -0.26 -0.02    +0.092 C 
DOCKED: BRANCH  39  40
DOCKED: ATOM     40  C   UNL d   1      13.192  14.593  -6.087 -0.21 -0.13    +0.330 C 
DOCKED: ATOM     41  O   UNL d   1      13.387  13.456  -5.703 -0.37 +0.09    -0.246 OA
DOCKED: BRANCH  40  42
DOCKED: ATOM     42  O   UNL d   1      13.827  15.647  -5.551 -0.08 +0.41    -0.477 OA
DOCKED: ATOM     43  H   UNL d   1      13.211  15.966  -4.860 -0.44 -0.45    +0.295 HD
DOCKED: ENDBRANCH  40  42
DOCKED: ENDBRANCH  39  40
DOCKED: ENDBRANCH  27  38
DOCKED: BRANCH   8  44
DOCKED: ATOM     44  C   UNL d   1       1.618  17.519 -11.174 -0.04 -0.00    +0.141 C 
DOCKED: BRANCH  44  45
DOCKED: ATOM     45  C   UNL d   1       0.287  18.017 -10.678 -0.00 -0.01    +0.306 C 
DOCKED: ATOM     46  O   UNL d   1      -0.762  17.396 -10.662 -0.01 +0.02    -0.251 OA
DOCKED: BRANCH  45  47
DOCKED: ATOM     47  O   UNL d   1       0.342  19.291 -10.249 +0.01 +0.01    -0.481 OA
DOCKED: ATOM     48  H   UNL d   1       0.703  19.231  -9.339 +0.02 -0.00    +0.295 HD
DOCKED: ENDBRANCH  45  47
DOCKED: ENDBRANCH  44  45
DOCKED: ENDBRANCH   8  44
DOCKED: BRANCH  22  49
DOCKED: ATOM     49  C   UNL d   1       9.636  19.253  -6.117 -0.10 +0.00    +0.048 C 
DOCKED: BRANCH  49  50
DOCKED: ATOM     50  C   UNL d   1       9.681  18.742  -4.677 -0.15 -0.01    +0.125 C 
DOCKED: BRANCH  50  51
DOCKED: ATOM     51  C   UNL d   1      10.936  17.954  -4.426 -0.05 -0.16    +0.305 C 
DOCKED: ATOM     52  O   UNL d   1      11.606  17.345  -5.241 -0.18 +0.16    -0.251 OA
DOCKED: BRANCH  51  53
DOCKED: ATOM     53  O   UNL d   1      11.285  17.964  -3.124 -0.10 +0.50    -0.481 OA
DOCKED: ATOM     54  H   UNL d   1      12.242  17.751  -3.133 -0.38 -0.79    +0.295 HD
DOCKED: ENDBRANCH  51  53
DOCKED: ENDBRANCH  50  51
DOCKED: ENDBRANCH  49  50
DOCKED: ENDBRANCH  22  49
DOCKED: TORSDOF 13
DOCKED: TER
DOCKED: ENDMDL
________________________________________________________________________________


	BEGINNING GENETIC ALGORITHM DOCKING 14 of 100
Run: 14 Seed: 1394203786 1089076151 [ Run 14 of 100 GA/GALS ]
Beginning LAMARCKIAN GENETIC ALGORITHM (LGA), with a maximum of 25000000 energy evaluations.

Final-Value: -10.528


	FINAL GENETIC ALGORITHM DOCKED STATE
	_______________________________________________


Detailed state:  trans 15.681 -1.116 5.760 quatxyzw 0.278759 -0.174994 0.828951 0.452229 center 0.153 0.018 -0.028 ntor 13 93.5282 29.4997 -131.2754 -94.6222 180.0000 -93.3896 122.5544 42.1586 109.6220 -24.9140 105.5741 179.5306 10.6899
State:	 15.681  -1.116   5.760   0.313 -0.196  0.929 126.226     93.53   29.50 -131.28  -94.62  180.00  -93.39  122.55   42.16  109.62  -24.91  105.57  179.53   10.69

DOCKED: MODEL       14
DOCKED: USER    Run = 14
DOCKED: USER    DPF = D:/Protein_go_brrr/autodock/final/mut_Y35F/heme/dock.dpf
DOCKED: USER  
DOCKED: USER    Estimated Free Energy of Binding    =   -4.31 kcal/mol  [=(1)+(2)+(3)-(4)]
DOCKED: USER    Estimated Inhibition Constant, Ki   =  696.00 uM (micromolar)  [Temperature = 298.15 K]
DOCKED: USER    
DOCKED: USER    (1) Final Intermolecular Energy     =   -8.19 kcal/mol
DOCKED: USER        vdW + Hbond + desolv Energy     =   -7.90 kcal/mol
DOCKED: USER        Electrostatic Energy            =   -0.29 kcal/mol
DOCKED: USER    (2) Final Total Internal Energy     =   -2.34 kcal/mol
DOCKED: USER    (3) Torsional Free Energy           =   +3.88 kcal/mol
DOCKED: USER    (4) Unbound System's Energy  [=(2)] =   -2.34 kcal/mol
DOCKED: USER    
DOCKED: USER    
DOCKED: USER    NEWDPF move heme_opt.pdbqt
DOCKED: USER    NEWDPF about 0.153000 0.018000 -0.028000
DOCKED: USER    NEWDPF tran0 15.680517 -1.116165 5.760193
DOCKED: USER    NEWDPF quaternion0 0.278759 -0.174994 0.828951 0.452229
DOCKED: USER    NEWDPF axisangle0 0.312545 -0.196204 0.929419 126.226479
DOCKED: USER    NEWDPF quat0 0.312545 -0.196204 0.929419 126.226479
DOCKED: USER    NEWDPF dihe0 93.53 29.50 -131.28 -94.62 180.00 -93.39 122.55 42.16 109.62 -24.91 105.57 179.53 10.69 
DOCKED: USER  keepresnum = 1 
DOCKED: USER  
DOCKED: REMARK  13 active torsions:
DOCKED: REMARK  status: ('A' for Active; 'I' for Inactive)
DOCKED: REMARK    1  A    between atoms: O_3  and  C_38 
DOCKED: REMARK    2  A    between atoms: O_4  and  C_40 
DOCKED: REMARK    3  A    between atoms: O_7  and  C_46 
DOCKED: REMARK    4  A    between atoms: O_9  and  C_48 
DOCKED: REMARK    5  A    between atoms: C_15  and  C_20 
DOCKED: REMARK    6  A    between atoms: C_16  and  C_23 
DOCKED: REMARK    7  A    between atoms: C_20  and  C_38 
DOCKED: REMARK    8  A    between atoms: C_23  and  C_40 
DOCKED: REMARK    9  A    between atoms: C_32  and  C_41 
DOCKED: REMARK   10  A    between atoms: C_37  and  C_45 
DOCKED: REMARK   11  A    between atoms: C_41  and  C_44 
DOCKED: REMARK   12  A    between atoms: C_44  and  C_46 
DOCKED: REMARK   13  A    between atoms: C_47  and  C_48 
DOCKED: USER                              x       y       z     vdW  Elec       q    Type
DOCKED: USER                           _______ _______ _______ _____ _____    ______ ____
DOCKED: ROOT
DOCKED: ATOM      1  O   UNL d   1      19.628   2.719   3.647 -0.12 -0.14    -0.289 OA
DOCKED: ATOM      2  O   UNL d   1      12.698   3.762   6.344 -0.79 -0.24    -0.289 OA
DOCKED: ATOM      3  N   UNL d   1      17.606   0.115   4.661 +0.06 -0.05    -0.247 NA
DOCKED: ATOM      4  N   UNL d   1      15.248   1.495   5.827 -0.13 -0.06    -0.247 NA
DOCKED: ATOM      5  N   UNL d   1      14.461  -1.019   6.978 -0.09 -0.07    -0.354 N 
DOCKED: ATOM      6  N   UNL d   1      16.921  -2.439   5.781 -0.00 -0.07    -0.354 N 
DOCKED: ATOM      7  C   UNL d   1      19.934   0.309   3.916 -0.15 +0.02    +0.084 A 
DOCKED: ATOM      8  C   UNL d   1      14.744   3.739   5.001 -0.29 +0.03    +0.084 A 
DOCKED: ATOM      9  C   UNL d   1      15.679   2.525   5.021 -0.27 +0.02    +0.058 A 
DOCKED: ATOM     10  C   UNL d   1      18.782  -0.572   4.410 -0.15 +0.01    +0.058 A 
DOCKED: ATOM     11  C   UNL d   1      19.195   1.613   3.915 -0.16 +0.06    +0.193 A 
DOCKED: ATOM     12  C   UNL d   1      17.788   1.360   4.360 -0.21 +0.03    +0.109 A 
DOCKED: ATOM     13  C   UNL d   1      13.723   3.223   5.975 -0.21 +0.09    +0.193 A 
DOCKED: ATOM     14  C   UNL d   1      21.075   0.387   4.934 -0.06 +0.00    +0.026 C 
DOCKED: ATOM     15  C   UNL d   1      16.840   2.492   4.349 -0.33 +0.02    +0.055 C 
DOCKED: ATOM     16  C   UNL d   1      14.075   3.919   3.635 -0.25 +0.01    +0.026 C 
DOCKED: ATOM     17  C   UNL d   1      14.149   1.858   6.407 -0.24 +0.04    +0.109 A 
DOCKED: ATOM     18  C   UNL d   1      18.907  -1.910   4.495 -0.13 +0.01    +0.050 C 
DOCKED: ATOM     19  C   UNL d   1      17.874  -2.811   4.860 -0.08 +0.01    +0.045 A 
DOCKED: ATOM     20  C   UNL d   1      13.579  -0.184   7.613 -0.24 +0.01    +0.045 A 
DOCKED: ATOM     21  C   UNL d   1      13.357   1.117   7.400 -0.28 +0.03    +0.057 C 
DOCKED: ATOM     22  C   UNL d   1      13.394  -2.274   8.514 -0.16 -0.00    -0.019 A 
DOCKED: ATOM     23  C   UNL d   1      14.422  -2.302   7.455 -0.17 +0.01    +0.045 A 
DOCKED: ATOM     24  C   UNL d   1      12.898  -1.018   8.602 -0.20 -0.01    -0.022 A 
DOCKED: ATOM     25  C   UNL d   1      16.076  -3.490   6.052 -0.13 +0.01    +0.049 A 
DOCKED: ATOM     26  C   UNL d   1      17.620  -4.124   4.496 -0.10 -0.00    -0.018 A 
DOCKED: ATOM     27  C   UNL d   1      16.471  -4.542   5.237 -0.14 +0.00    +0.003 A 
DOCKED: ATOM     28  C   UNL d   1      15.106  -3.397   7.087 -0.17 +0.01    +0.052 C 
DOCKED: ATOM     29  C   UNL d   1      11.837  -0.495   9.510 -0.14 +0.02    +0.046 C 
DOCKED: ATOM     30  C   UNL d   1      18.393  -4.943   3.518 -0.08 +0.01    +0.046 C 
DOCKED: ATOM     31  H   UNL d   1      15.011  -0.701   6.187 +0.06 +0.04    +0.166 HD
DOCKED: ATOM     32  H   UNL d   1      16.890  -1.526   6.217 +0.03 +0.03    +0.166 HD
DOCKED: ENDROOT
DOCKED: BRANCH   7  33
DOCKED: ATOM     33  C   UNL d   1      20.454  -0.016   2.512 -0.24 +0.03    +0.141 C 
DOCKED: BRANCH  33  34
DOCKED: ATOM     34  C   UNL d   1      21.157   1.149   1.870 -0.19 +0.10    +0.306 C 
DOCKED: ATOM     35  O   UNL d   1      20.901   1.634   0.781 -0.21 -0.11    -0.251 OA
DOCKED: BRANCH  34  36
DOCKED: ATOM     36  O   UNL d   1      22.144   1.645   2.637 -0.05 -0.15    -0.481 OA
DOCKED: ATOM     37  H   UNL d   1      21.706   2.320   3.197 +0.06 +0.12    +0.295 HD
DOCKED: ENDBRANCH  34  36
DOCKED: ENDBRANCH  33  34
DOCKED: ENDBRANCH   7  33
DOCKED: BRANCH  27  38
DOCKED: ATOM     38  C   UNL d   1      15.876  -5.842   5.173 -0.18 +0.01    +0.017 C 
DOCKED: ATOM     39  C   UNL d   1      16.547  -6.995   5.032 -0.10 +0.03    +0.092 C 
DOCKED: BRANCH  39  40
DOCKED: ATOM     40  C   UNL d   1      15.817  -8.265   4.998 -0.09 +0.12    +0.330 C 
DOCKED: ATOM     41  O   UNL d   1      15.605  -9.026   5.923 -0.23 -0.15    -0.246 OA
DOCKED: BRANCH  40  42
DOCKED: ATOM     42  O   UNL d   1      15.373  -8.510   3.756 -0.09 +0.05    -0.477 OA
DOCKED: ATOM     43  H   UNL d   1      14.559  -9.036   3.897 -0.43 -0.26    +0.295 HD
DOCKED: ENDBRANCH  40  42
DOCKED: ENDBRANCH  39  40
DOCKED: ENDBRANCH  27  38
DOCKED: BRANCH   8  44
DOCKED: ATOM     44  C   UNL d   1      15.359   5.053   5.495 -0.15 +0.04    +0.141 C 
DOCKED: BRANCH  44  45
DOCKED: ATOM     45  C   UNL d   1      15.523   5.108   6.990 -0.01 +0.10    +0.306 C 
DOCKED: ATOM     46  O   UNL d   1      16.402   4.575   7.645 -0.01 -0.07    -0.251 OA
DOCKED: BRANCH  45  47
DOCKED: ATOM     47  O   UNL d   1      14.547   5.813   7.590 +0.02 -0.20    -0.481 OA
DOCKED: ATOM     48  H   UNL d   1      13.716   5.471   7.197 +0.07 +0.16    +0.295 HD
DOCKED: ENDBRANCH  45  47
DOCKED: ENDBRANCH  44  45
DOCKED: ENDBRANCH   8  44
DOCKED: BRANCH  22  49
DOCKED: ATOM     49  C   UNL d   1      13.007  -3.463   9.344 -0.12 +0.01    +0.048 C 
DOCKED: BRANCH  49  50
DOCKED: ATOM     50  C   UNL d   1      12.191  -4.476   8.541 -0.11 +0.05    +0.125 C 
DOCKED: BRANCH  50  51
DOCKED: ATOM     51  C   UNL d   1      10.795  -3.974   8.304 -0.19 +0.07    +0.305 C 
DOCKED: ATOM     52  O   UNL d   1      10.444  -2.825   8.098 -0.28 -0.05    -0.251 OA
DOCKED: BRANCH  51  53
DOCKED: ATOM     53  O   UNL d   1       9.887  -4.968   8.353 -0.12 -0.09    -0.481 OA
DOCKED: ATOM     54  H   UNL d   1       9.681  -5.057   9.307 +0.11 +0.03    +0.295 HD
DOCKED: ENDBRANCH  51  53
DOCKED: ENDBRANCH  50  51
DOCKED: ENDBRANCH  49  50
DOCKED: ENDBRANCH  22  49
DOCKED: TORSDOF 13
DOCKED: TER
DOCKED: ENDMDL
________________________________________________________________________________


	BEGINNING GENETIC ALGORITHM DOCKING 15 of 100
Run: 15 Seed: 115372381 1584580719 [ Run 15 of 100 GA/GALS ]
Beginning LAMARCKIAN GENETIC ALGORITHM (LGA), with a maximum of 25000000 energy evaluations.

Final-Value: -12.395


	FINAL GENETIC ALGORITHM DOCKED STATE
	_______________________________________________


Detailed state:  trans 9.457 18.042 6.444 quatxyzw 0.434026 0.560723 0.655102 -0.260869 center 0.153 0.018 -0.028 ntor 13 131.3099 -147.3195 179.8174 25.6176 -136.3032 -83.1985 140.0551 14.1848 17.4065 -17.5549 -77.3797 -2.5742 0.6529
State:	  9.457  18.042   6.444   0.450  0.581  0.679 -149.757    131.31 -147.32  179.82   25.62 -136.30  -83.20  140.06   14.18   17.41  -17.55  -77.38   -2.57    0.65

DOCKED: MODEL       15
DOCKED: USER    Run = 15
DOCKED: USER    DPF = D:/Protein_go_brrr/autodock/final/mut_Y35F/heme/dock.dpf
DOCKED: USER  
DOCKED: USER    Estimated Free Energy of Binding    =   -3.78 kcal/mol  [=(1)+(2)+(3)-(4)]
DOCKED: USER    Estimated Inhibition Constant, Ki   =    1.69 mM (millimolar)  [Temperature = 298.15 K]
DOCKED: USER    
DOCKED: USER    (1) Final Intermolecular Energy     =   -7.66 kcal/mol
DOCKED: USER        vdW + Hbond + desolv Energy     =   -7.79 kcal/mol
DOCKED: USER        Electrostatic Energy            =   +0.13 kcal/mol
DOCKED: USER    (2) Final Total Internal Energy     =   -4.74 kcal/mol
DOCKED: USER    (3) Torsional Free Energy           =   +3.88 kcal/mol
DOCKED: USER    (4) Unbound System's Energy  [=(2)] =   -4.74 kcal/mol
DOCKED: USER    
DOCKED: USER    
DOCKED: USER    NEWDPF move heme_opt.pdbqt
DOCKED: USER    NEWDPF about 0.153000 0.018000 -0.028000
DOCKED: USER    NEWDPF tran0 9.457005 18.042272 6.444015
DOCKED: USER    NEWDPF quaternion0 0.434026 0.560723 0.655102 -0.260869
DOCKED: USER    NEWDPF axisangle0 0.449594 0.580835 0.678599 -149.756792
DOCKED: USER    NEWDPF quat0 0.449594 0.580835 0.678599 -149.756792
DOCKED: USER    NEWDPF dihe0 131.31 -147.32 179.82 25.62 -136.30 -83.20 140.06 14.18 17.41 -17.55 -77.38 -2.57 0.65 
DOCKED: USER  keepresnum = 1 
DOCKED: USER  
DOCKED: REMARK  13 active torsions:
DOCKED: REMARK  status: ('A' for Active; 'I' for Inactive)
DOCKED: REMARK    1  A    between atoms: O_3  and  C_38 
DOCKED: REMARK    2  A    between atoms: O_4  and  C_40 
DOCKED: REMARK    3  A    between atoms: O_7  and  C_46 
DOCKED: REMARK    4  A    between atoms: O_9  and  C_48 
DOCKED: REMARK    5  A    between atoms: C_15  and  C_20 
DOCKED: REMARK    6  A    between atoms: C_16  and  C_23 
DOCKED: REMARK    7  A    between atoms: C_20  and  C_38 
DOCKED: REMARK    8  A    between atoms: C_23  and  C_40 
DOCKED: REMARK    9  A    between atoms: C_32  and  C_41 
DOCKED: REMARK   10  A    between atoms: C_37  and  C_45 
DOCKED: REMARK   11  A    between atoms: C_41  and  C_44 
DOCKED: REMARK   12  A    between atoms: C_44  and  C_46 
DOCKED: REMARK   13  A    between atoms: C_47  and  C_48 
DOCKED: USER                              x       y       z     vdW  Elec       q    Type
DOCKED: USER                           _______ _______ _______ _____ _____    ______ ____
DOCKED: ROOT
DOCKED: ATOM      1  O   UNL d   1      12.993  13.326   6.514 -0.04 -0.01    -0.289 OA
DOCKED: ATOM      2  O   UNL d   1       8.689  16.178   1.062 -0.25 +0.07    -0.289 OA
DOCKED: ATOM      3  N   UNL d   1      10.958  16.070   6.984 -0.15 +0.04    -0.247 NA
DOCKED: ATOM      4  N   UNL d   1       9.915  16.622   4.257 -0.17 +0.06    -0.247 NA
DOCKED: ATOM      5  N   UNL d   1       9.007  19.174   5.221 -0.11 +0.08    -0.354 N 
DOCKED: ATOM      6  N   UNL d   1      10.108  18.601   8.042 -0.08 +0.07    -0.354 N 
DOCKED: ATOM      7  C   UNL d   1      12.640  14.913   8.340 -0.07 +0.00    +0.084 A 
DOCKED: ATOM      8  C   UNL d   1       9.802  14.741   2.701 -0.35 -0.02    +0.084 A 
DOCKED: ATOM      9  C   UNL d   1      10.228  15.295   4.065 -0.26 -0.01    +0.058 A 
DOCKED: ATOM     10  C   UNL d   1      11.626  16.051   8.197 -0.15 -0.00    +0.058 A 
DOCKED: ATOM     11  C   UNL d   1      12.413  14.280   7.000 -0.07 +0.00    +0.193 A 
DOCKED: ATOM     12  C   UNL d   1      11.353  15.058   6.283 -0.15 -0.01    +0.109 A 
DOCKED: ATOM     13  C   UNL d   1       9.223  16.009   2.141 -0.24 -0.05    +0.193 A 
DOCKED: ATOM     14  C   UNL d   1      14.079  15.430   8.406 -0.03 +0.00    +0.026 C 
DOCKED: ATOM     15  C   UNL d   1      10.894  14.561   4.970 -0.12 -0.01    +0.055 C 
DOCKED: ATOM     16  C   UNL d   1       8.682  13.705   2.834 -0.54 -0.00    +0.026 C 
DOCKED: ATOM     17  C   UNL d   1       9.360  17.075   3.179 -0.21 -0.03    +0.109 A 
DOCKED: ATOM     18  C   UNL d   1      11.363  16.891   9.216 -0.17 +0.00    +0.050 C 
DOCKED: ATOM     19  C   UNL d   1      10.385  17.917   9.205 -0.19 -0.00    +0.045 A 
DOCKED: ATOM     20  C   UNL d   1       8.802  19.344   3.876 -0.17 -0.01    +0.045 A 
DOCKED: ATOM     21  C   UNL d   1       8.915  18.446   2.891 -0.22 -0.01    +0.057 C 
DOCKED: ATOM     22  C   UNL d   1       8.417  21.329   4.938 -0.08 +0.00    -0.019 A 
DOCKED: ATOM     23  C   UNL d   1       8.798  20.318   5.944 -0.08 -0.01    +0.045 A 
DOCKED: ATOM     24  C   UNL d   1       8.420  20.746   3.716 -0.11 +0.00    -0.022 A 
DOCKED: ATOM     25  C   UNL d   1       9.200  19.607   8.277 -0.22 -0.01    +0.049 A 
DOCKED: ATOM     26  C   UNL d   1       9.609  18.469  10.213 -0.23 -0.00    -0.018 A 
DOCKED: ATOM     27  C   UNL d   1       8.849  19.523   9.618 -0.26 -0.00    +0.003 A 
DOCKED: ATOM     28  C   UNL d   1       8.877  20.549   7.263 -0.18 -0.01    +0.052 C 
DOCKED: ATOM     29  C   UNL d   1       8.093  21.351   2.393 -0.08 -0.00    +0.046 C 
DOCKED: ATOM     30  C   UNL d   1       9.573  18.044  11.642 -0.19 +0.01    +0.046 C 
DOCKED: ATOM     31  H   UNL d   1       9.211  18.260   5.610 -0.14 -0.06    +0.166 HD
DOCKED: ATOM     32  H   UNL d   1      10.555  18.401   7.155 +0.00 -0.03    +0.166 HD
DOCKED: ENDROOT
DOCKED: BRANCH   7  33
DOCKED: ATOM     33  C   UNL d   1      12.350  13.911   9.463 -0.10 +0.02    +0.141 C 
DOCKED: BRANCH  33  34
DOCKED: ATOM     34  C   UNL d   1      11.084  13.132   9.231 -0.15 +0.06    +0.306 C 
DOCKED: ATOM     35  O   UNL d   1       9.951  13.507   9.481 -0.30 -0.06    -0.251 OA
DOCKED: BRANCH  34  36
DOCKED: ATOM     36  O   UNL d   1      11.312  11.920   8.694 -0.06 -0.08    -0.481 OA
DOCKED: ATOM     37  H   UNL d   1      11.883  12.099   7.917 +0.06 +0.04    +0.295 HD
DOCKED: ENDBRANCH  34  36
DOCKED: ENDBRANCH  33  34
DOCKED: ENDBRANCH   7  33
DOCKED: BRANCH  27  38
DOCKED: ATOM     38  C   UNL d   1       7.925  20.368  10.312 -0.24 -0.00    +0.017 C 
DOCKED: ATOM     39  C   UNL d   1       6.794  20.870   9.793 -0.14 -0.02    +0.092 C 
DOCKED: BRANCH  39  40
DOCKED: ATOM     40  C   UNL d   1       5.923  21.711  10.618 -0.09 -0.07    +0.330 C 
DOCKED: ATOM     41  O   UNL d   1       5.053  21.350  11.388 -0.12 +0.07    -0.246 OA
DOCKED: BRANCH  40  42
DOCKED: ATOM     42  O   UNL d   1       6.215  23.006  10.426 -0.01 +0.06    -0.477 OA
DOCKED: ATOM     43  H   UNL d   1       6.496  23.047   9.489 +0.04 -0.03    +0.295 HD
DOCKED: ENDBRANCH  40  42
DOCKED: ENDBRANCH  39  40
DOCKED: ENDBRANCH  27  38
DOCKED: BRANCH   8  44
DOCKED: ATOM     44  C   UNL d   1      10.938  14.218   1.816 -0.32 -0.04    +0.141 C 
DOCKED: BRANCH  44  45
DOCKED: ATOM     45  C   UNL d   1      11.868  15.302   1.341 -0.20 -0.14    +0.306 C 
DOCKED: ATOM     46  O   UNL d   1      12.926  15.628   1.850 -0.12 +0.11    -0.251 OA
DOCKED: BRANCH  45  47
DOCKED: ATOM     47  O   UNL d   1      11.398  15.944   0.255 -0.09 +0.35    -0.481 OA
DOCKED: ATOM     48  H   UNL d   1      10.548  15.498   0.053 -0.33 -0.19    +0.295 HD
DOCKED: ENDBRANCH  45  47
DOCKED: ENDBRANCH  44  45
DOCKED: ENDBRANCH   8  44
DOCKED: BRANCH  22  49
DOCKED: ATOM     49  C   UNL d   1       8.103  22.761   5.259 -0.09 -0.00    +0.048 C 
DOCKED: BRANCH  49  50
DOCKED: ATOM     50  C   UNL d   1       6.658  22.934   5.728 -0.08 -0.02    +0.125 C 
DOCKED: BRANCH  50  51
DOCKED: ATOM     51  C   UNL d   1       6.595  23.113   7.218 -0.06 -0.03    +0.305 C 
DOCKED: ATOM     52  O   UNL d   1       7.527  23.260   7.989 -0.10 +0.02    -0.251 OA
DOCKED: BRANCH  51  53
DOCKED: ATOM     53  O   UNL d   1       5.328  23.083   7.677 -0.07 +0.07    -0.481 OA
DOCKED: ATOM     54  H   UNL d   1       5.364  23.597   8.511 +0.04 -0.04    +0.295 HD
DOCKED: ENDBRANCH  51  53
DOCKED: ENDBRANCH  50  51
DOCKED: ENDBRANCH  49  50
DOCKED: ENDBRANCH  22  49
DOCKED: TORSDOF 13
DOCKED: TER
DOCKED: ENDMDL
________________________________________________________________________________


	BEGINNING GENETIC ALGORITHM DOCKING 16 of 100
Run: 16 Seed: 79219624 1649832218 [ Run 16 of 100 GA/GALS ]
Beginning LAMARCKIAN GENETIC ALGORITHM (LGA), with a maximum of 25000000 energy evaluations.

Final-Value: -12.270


	FINAL GENETIC ALGORITHM DOCKED STATE
	_______________________________________________


Detailed state:  trans 12.968 12.947 -11.026 quatxyzw -0.511517 -0.271299 0.522330 0.626034 center 0.153 0.018 -0.028 ntor 13 126.7369 -179.5105 123.3961 -67.4147 -131.9551 -50.1920 -61.9459 89.6057 21.1414 -145.8946 92.6038 -48.3352 178.2027
State:	 12.968  12.947 -11.026  -0.656 -0.348  0.670 102.484    126.74 -179.51  123.40  -67.41 -131.96  -50.19  -61.95   89.61   21.14 -145.89   92.60  -48.34  178.20

DOCKED: MODEL       16
DOCKED: USER    Run = 16
DOCKED: USER    DPF = D:/Protein_go_brrr/autodock/final/mut_Y35F/heme/dock.dpf
DOCKED: USER  
DOCKED: USER    Estimated Free Energy of Binding    =   -5.91 kcal/mol  [=(1)+(2)+(3)-(4)]
DOCKED: USER    Estimated Inhibition Constant, Ki   =   46.74 uM (micromolar)  [Temperature = 298.15 K]
DOCKED: USER    
DOCKED: USER    (1) Final Intermolecular Energy     =   -9.79 kcal/mol
DOCKED: USER        vdW + Hbond + desolv Energy     =   -9.56 kcal/mol
DOCKED: USER        Electrostatic Energy            =   -0.23 kcal/mol
DOCKED: USER    (2) Final Total Internal Energy     =   -2.48 kcal/mol
DOCKED: USER    (3) Torsional Free Energy           =   +3.88 kcal/mol
DOCKED: USER    (4) Unbound System's Energy  [=(2)] =   -2.48 kcal/mol
DOCKED: USER    
DOCKED: USER    
DOCKED: USER    NEWDPF move heme_opt.pdbqt
DOCKED: USER    NEWDPF about 0.153000 0.018000 -0.028000
DOCKED: USER    NEWDPF tran0 12.968038 12.947232 -11.025632
DOCKED: USER    NEWDPF quaternion0 -0.511517 -0.271299 0.522330 0.626034
DOCKED: USER    NEWDPF axisangle0 -0.655963 -0.347911 0.669829 102.483750
DOCKED: USER    NEWDPF quat0 -0.655963 -0.347911 0.669829 102.483750
DOCKED: USER    NEWDPF dihe0 126.74 -179.51 123.40 -67.41 -131.96 -50.19 -61.95 89.61 21.14 -145.89 92.60 -48.34 178.20 
DOCKED: USER  keepresnum = 1 
DOCKED: USER  
DOCKED: REMARK  13 active torsions:
DOCKED: REMARK  status: ('A' for Active; 'I' for Inactive)
DOCKED: REMARK    1  A    between atoms: O_3  and  C_38 
DOCKED: REMARK    2  A    between atoms: O_4  and  C_40 
DOCKED: REMARK    3  A    between atoms: O_7  and  C_46 
DOCKED: REMARK    4  A    between atoms: O_9  and  C_48 
DOCKED: REMARK    5  A    between atoms: C_15  and  C_20 
DOCKED: REMARK    6  A    between atoms: C_16  and  C_23 
DOCKED: REMARK    7  A    between atoms: C_20  and  C_38 
DOCKED: REMARK    8  A    between atoms: C_23  and  C_40 
DOCKED: REMARK    9  A    between atoms: C_32  and  C_41 
DOCKED: REMARK   10  A    between atoms: C_37  and  C_45 
DOCKED: REMARK   11  A    between atoms: C_41  and  C_44 
DOCKED: REMARK   12  A    between atoms: C_44  and  C_46 
DOCKED: REMARK   13  A    between atoms: C_47  and  C_48 
DOCKED: USER                              x       y       z     vdW  Elec       q    Type
DOCKED: USER                           _______ _______ _______ _____ _____    ______ ____
DOCKED: ROOT
DOCKED: ATOM      1  O   UNL d   1      12.692  14.344  -5.305 -0.06 +0.13    -0.289 OA
DOCKED: ATOM      2  O   UNL d   1       7.945  15.740 -10.954 -0.12 -0.02    -0.289 OA
DOCKED: ATOM      3  N   UNL d   1      13.349  13.434  -8.566 -0.12 +0.06    -0.247 NA
DOCKED: ATOM      4  N   UNL d   1      10.828  14.110  -9.986 -0.15 +0.03    -0.247 NA
DOCKED: ATOM      5  N   UNL d   1      11.778  12.564 -12.216 -0.07 +0.06    -0.354 N 
DOCKED: ATOM      6  N   UNL d   1      14.382  11.851 -10.728 -0.09 +0.13    -0.354 N 
DOCKED: ATOM      7  C   UNL d   1      14.447  13.049  -6.408 -0.31 -0.02    +0.084 A 
DOCKED: ATOM      8  C   UNL d   1       9.442  15.877  -9.022 -0.20 +0.00    +0.084 A 
DOCKED: ATOM      9  C   UNL d   1      10.667  14.963  -8.916 -0.24 -0.00    +0.058 A 
DOCKED: ATOM     10  C   UNL d   1      14.419  12.832  -7.924 -0.22 -0.02    +0.058 A 
DOCKED: ATOM     11  C   UNL d   1      13.213  13.895  -6.309 -0.26 -0.06    +0.193 A 
DOCKED: ATOM     12  C   UNL d   1      12.654  14.078  -7.686 -0.24 -0.02    +0.109 A 
DOCKED: ATOM     13  C   UNL d   1       8.917  15.359 -10.331 -0.15 +0.00    +0.193 A 
DOCKED: ATOM     14  C   UNL d   1      14.217  11.746  -5.637 -0.54 -0.01    +0.026 C 
DOCKED: ATOM     15  C   UNL d   1      11.481  14.960  -7.849 -0.28 -0.01    +0.055 C 
DOCKED: ATOM     16  C   UNL d   1       9.843  17.345  -9.198 -0.09 -0.00    +0.026 C 
DOCKED: ATOM     17  C   UNL d   1       9.843  14.287 -10.806 -0.21 -0.01    +0.109 A 
DOCKED: ATOM     18  C   UNL d   1      15.413  12.185  -8.560 -0.25 -0.01    +0.050 C 
DOCKED: ATOM     19  C   UNL d   1      15.516  12.010  -9.964 -0.21 -0.01    +0.045 A 
DOCKED: ATOM     20  C   UNL d   1      10.485  12.783 -12.614 -0.16 -0.00    +0.045 A 
DOCKED: ATOM     21  C   UNL d   1       9.555  13.562 -12.053 -0.24 -0.00    +0.057 C 
DOCKED: ATOM     22  C   UNL d   1      11.471  11.328 -14.074 -0.13 +0.00    -0.019 A 
DOCKED: ATOM     23  C   UNL d   1      12.453  11.698 -13.035 -0.15 -0.01    +0.045 A 
DOCKED: ATOM     24  C   UNL d   1      10.309  11.974 -13.820 -0.02 +0.00    -0.022 A 
DOCKED: ATOM     25  C   UNL d   1      14.715  11.607 -12.040 -0.21 -0.01    +0.049 A 
DOCKED: ATOM     26  C   UNL d   1      16.611  11.904 -10.806 -0.19 +0.00    -0.018 A 
DOCKED: ATOM     27  C   UNL d   1      16.099  11.669 -12.120 -0.17 -0.00    +0.003 A 
DOCKED: ATOM     28  C   UNL d   1      13.719  11.255 -12.992 -0.21 -0.01    +0.052 C 
DOCKED: ATOM     29  C   UNL d   1       9.032  11.933 -14.589 +0.03 -0.00    +0.046 C 
DOCKED: ATOM     30  C   UNL d   1      18.047  12.016 -10.419 -0.18 -0.01    +0.046 C 
DOCKED: ATOM     31  H   UNL d   1      12.181  13.072 -11.436 +0.05 -0.03    +0.166 HD
DOCKED: ATOM     32  H   UNL d   1      13.443  11.872 -10.349 -0.16 -0.08    +0.166 HD
DOCKED: ENDROOT
DOCKED: BRANCH   7  33
DOCKED: ATOM     33  C   UNL d   1      15.665  13.810  -5.875 -0.22 -0.05    +0.141 C 
DOCKED: BRANCH  33  34
DOCKED: ATOM     34  C   UNL d   1      15.671  15.256  -6.289 -0.09 -0.13    +0.306 C 
DOCKED: ATOM     35  O   UNL d   1      15.985  15.691  -7.385 -0.03 +0.07    -0.251 OA
DOCKED: BRANCH  34  36
DOCKED: ATOM     36  O   UNL d   1      15.278  16.080  -5.302 -0.06 +0.43    -0.481 OA
DOCKED: ATOM     37  H   UNL d   1      14.394  15.746  -5.039 -0.12 -0.35    +0.295 HD
DOCKED: ENDBRANCH  34  36
DOCKED: ENDBRANCH  33  34
DOCKED: ENDBRANCH   7  33
DOCKED: BRANCH  27  38
DOCKED: ATOM     38  C   UNL d   1      16.895  11.483 -13.295 +0.04 -0.00    +0.017 C 
DOCKED: ATOM     39  C   UNL d   1      16.438  11.046 -14.479 -0.10 -0.01    +0.092 C 
DOCKED: BRANCH  39  40
DOCKED: ATOM     40  C   UNL d   1      17.357  10.915 -15.612 -0.08 -0.05    +0.330 C 
DOCKED: ATOM     41  O   UNL d   1      18.116  11.756 -16.056 -0.04 +0.03    -0.246 OA
DOCKED: BRANCH  40  42
DOCKED: ATOM     42  O   UNL d   1      17.271   9.682 -16.137 -0.10 +0.12    -0.477 OA
DOCKED: ATOM     43  H   UNL d   1      16.593   9.240 -15.585 -0.39 -0.16    +0.295 HD
DOCKED: ENDBRANCH  40  42
DOCKED: ENDBRANCH  39  40
DOCKED: ENDBRANCH  27  38
DOCKED: BRANCH   8  44
DOCKED: ATOM     44  C   UNL d   1       8.400  15.716  -7.910 -0.29 +0.02    +0.141 C 
DOCKED: BRANCH  44  45
DOCKED: ATOM     45  C   UNL d   1       7.423  16.859  -7.842 -0.18 +0.11    +0.306 C 
DOCKED: ATOM     46  O   UNL d   1       7.395  17.741  -7.002 -0.56 -0.14    -0.251 OA
DOCKED: BRANCH  45  47
DOCKED: ATOM     47  O   UNL d   1       6.508  16.814  -8.828 -0.09 -0.14    -0.481 OA
DOCKED: ATOM     48  H   UNL d   1       7.035  16.818  -9.655 +0.09 +0.05    +0.295 HD
DOCKED: ENDBRANCH  45  47
DOCKED: ENDBRANCH  44  45
DOCKED: ENDBRANCH   8  44
DOCKED: BRANCH  22  49
DOCKED: ATOM     49  C   UNL d   1      11.753  10.375 -15.198 -0.12 -0.01    +0.048 C 
DOCKED: BRANCH  49  50
DOCKED: ATOM     50  C   UNL d   1      11.309   8.952 -14.862 -0.18 -0.02    +0.125 C 
DOCKED: BRANCH  50  51
DOCKED: ATOM     51  C   UNL d   1      12.391   8.212 -14.126 -0.22 -0.07    +0.305 C 
DOCKED: ATOM     52  O   UNL d   1      12.633   8.245 -12.933 -0.86 +0.06    -0.251 OA
DOCKED: BRANCH  51  53
DOCKED: ATOM     53  O   UNL d   1      13.139   7.458 -14.955 -0.14 +0.14    -0.481 OA
DOCKED: ATOM     54  H   UNL d   1      14.017   7.894 -14.946 -0.27 -0.19    +0.295 HD
DOCKED: ENDBRANCH  51  53
DOCKED: ENDBRANCH  50  51
DOCKED: ENDBRANCH  49  50
DOCKED: ENDBRANCH  22  49
DOCKED: TORSDOF 13
DOCKED: TER
DOCKED: ENDMDL
________________________________________________________________________________


	BEGINNING GENETIC ALGORITHM DOCKING 17 of 100
Run: 17 Seed: 580336464 540759648 [ Run 17 of 100 GA/GALS ]
Beginning LAMARCKIAN GENETIC ALGORITHM (LGA), with a maximum of 25000000 energy evaluations.

Final-Value: -12.920


	FINAL GENETIC ALGORITHM DOCKED STATE
	_______________________________________________


Detailed state:  trans 3.179 -16.773 -8.587 quatxyzw -0.509202 -0.384611 -0.174388 -0.749917 center 0.153 0.018 -0.028 ntor 13 180.0000 105.5294 98.0961 26.1336 54.5186 22.8025 -42.3066 -76.4477 158.0495 -116.8524 33.8076 -64.0212 132.6256
State:	  3.179 -16.773  -8.587  -0.770 -0.581 -0.264 -82.834    180.00  105.53   98.10   26.13   54.52   22.80  -42.31  -76.45  158.05 -116.85   33.81  -64.02  132.63

DOCKED: MODEL       17
DOCKED: USER    Run = 17
DOCKED: USER    DPF = D:/Protein_go_brrr/autodock/final/mut_Y35F/heme/dock.dpf
DOCKED: USER  
DOCKED: USER    Estimated Free Energy of Binding    =   -5.70 kcal/mol  [=(1)+(2)+(3)-(4)]
DOCKED: USER    Estimated Inhibition Constant, Ki   =   66.15 uM (micromolar)  [Temperature = 298.15 K]
DOCKED: USER    
DOCKED: USER    (1) Final Intermolecular Energy     =   -9.58 kcal/mol
DOCKED: USER        vdW + Hbond + desolv Energy     =   -9.18 kcal/mol
DOCKED: USER        Electrostatic Energy            =   -0.40 kcal/mol
DOCKED: USER    (2) Final Total Internal Energy     =   -3.34 kcal/mol
DOCKED: USER    (3) Torsional Free Energy           =   +3.88 kcal/mol
DOCKED: USER    (4) Unbound System's Energy  [=(2)] =   -3.34 kcal/mol
DOCKED: USER    
DOCKED: USER    
DOCKED: USER    NEWDPF move heme_opt.pdbqt
DOCKED: USER    NEWDPF about 0.153000 0.018000 -0.028000
DOCKED: USER    NEWDPF tran0 3.179415 -16.773024 -8.586928
DOCKED: USER    NEWDPF quaternion0 -0.509202 -0.384611 -0.174388 -0.749917
DOCKED: USER    NEWDPF axisangle0 -0.769732 -0.581395 -0.263613 -82.833575
DOCKED: USER    NEWDPF quat0 -0.769732 -0.581395 -0.263613 -82.833575
DOCKED: USER    NEWDPF dihe0 180.00 105.53 98.10 26.13 54.52 22.80 -42.31 -76.45 158.05 -116.85 33.81 -64.02 132.63 
DOCKED: USER  keepresnum = 1 
DOCKED: USER  
DOCKED: REMARK  13 active torsions:
DOCKED: REMARK  status: ('A' for Active; 'I' for Inactive)
DOCKED: REMARK    1  A    between atoms: O_3  and  C_38 
DOCKED: REMARK    2  A    between atoms: O_4  and  C_40 
DOCKED: REMARK    3  A    between atoms: O_7  and  C_46 
DOCKED: REMARK    4  A    between atoms: O_9  and  C_48 
DOCKED: REMARK    5  A    between atoms: C_15  and  C_20 
DOCKED: REMARK    6  A    between atoms: C_16  and  C_23 
DOCKED: REMARK    7  A    between atoms: C_20  and  C_38 
DOCKED: REMARK    8  A    between atoms: C_23  and  C_40 
DOCKED: REMARK    9  A    between atoms: C_32  and  C_41 
DOCKED: REMARK   10  A    between atoms: C_37  and  C_45 
DOCKED: REMARK   11  A    between atoms: C_41  and  C_44 
DOCKED: REMARK   12  A    between atoms: C_44  and  C_46 
DOCKED: REMARK   13  A    between atoms: C_47  and  C_48 
DOCKED: USER                              x       y       z     vdW  Elec       q    Type
DOCKED: USER                           _______ _______ _______ _____ _____    ______ ____
DOCKED: ROOT
DOCKED: ATOM      1  O   UNL d   1       0.414 -16.211 -13.763 -0.05 -0.01    -0.289 OA
DOCKED: ATOM      2  O   UNL d   1      -1.065 -20.575  -7.834 -0.09 +0.22    -0.289 OA
DOCKED: ATOM      3  N   UNL d   1       2.423 -16.299 -10.961 -0.13 +0.07    -0.247 NA
DOCKED: ATOM      4  N   UNL d   1       0.904 -18.033  -9.086 -0.16 +0.08    -0.247 NA
DOCKED: ATOM      5  N   UNL d   1       2.644 -17.126  -6.984 +0.05 +0.19    -0.354 N 
DOCKED: ATOM      6  N   UNL d   1       4.202 -15.316  -8.933 -0.06 +0.16    -0.354 N 
DOCKED: ATOM      7  C   UNL d   1       2.368 -14.951 -13.007 -0.13 -0.02    +0.084 A 
DOCKED: ATOM      8  C   UNL d   1      -0.621 -19.672 -10.065 -0.14 -0.01    +0.084 A 
DOCKED: ATOM      9  C   UNL d   1       0.339 -18.492 -10.254 -0.18 -0.01    +0.058 A 
DOCKED: ATOM     10  C   UNL d   1       3.024 -15.265 -11.659 -0.19 -0.02    +0.058 A 
DOCKED: ATOM     11  C   UNL d   1       1.301 -16.003 -12.955 -0.08 -0.02    +0.193 A 
DOCKED: ATOM     12  C   UNL d   1       1.456 -16.770 -11.679 -0.15 -0.01    +0.109 A 
DOCKED: ATOM     13  C   UNL d   1      -0.524 -19.772  -8.569 -0.13 -0.09    +0.193 A 
DOCKED: ATOM     14  C   UNL d   1       1.703 -13.572 -13.015 -0.03 -0.01    +0.026 C 
DOCKED: ATOM     15  C   UNL d   1       0.566 -17.926 -11.449 -0.18 -0.00    +0.055 C 
DOCKED: ATOM     16  C   UNL d   1      -0.066 -20.960 -10.682 -0.05 -0.00    +0.026 C 
DOCKED: ATOM     17  C   UNL d   1       0.426 -18.719  -8.098 -0.22 -0.06    +0.109 A 
DOCKED: ATOM     18  C   UNL d   1       4.143 -14.633 -11.258 -0.26 -0.02    +0.050 C 
DOCKED: ATOM     19  C   UNL d   1       4.865 -14.915 -10.071 -0.21 -0.02    +0.045 A 
DOCKED: ATOM     20  C   UNL d   1       1.703 -17.790  -6.241 -0.28 -0.02    +0.045 A 
DOCKED: ATOM     21  C   UNL d   1       0.686 -18.549  -6.661 -0.28 -0.04    +0.057 C 
DOCKED: ATOM     22  C   UNL d   1       3.128 -16.701  -4.826 -0.28 +0.01    -0.019 A 
DOCKED: ATOM     23  C   UNL d   1       3.548 -16.440  -6.217 -0.08 -0.02    +0.045 A 
DOCKED: ATOM     24  C   UNL d   1       2.037 -17.502  -4.846 -0.26 +0.01    -0.022 A 
DOCKED: ATOM     25  C   UNL d   1       5.081 -15.445  -7.882 -0.21 -0.02    +0.049 A 
DOCKED: ATOM     26  C   UNL d   1       6.213 -14.817  -9.762 -0.13 +0.01    -0.018 A 
DOCKED: ATOM     27  C   UNL d   1       6.346 -15.172  -8.384 -0.15 -0.00    +0.003 A 
DOCKED: ATOM     28  C   UNL d   1       4.610 -15.697  -6.565 -0.25 -0.02    +0.052 C 
DOCKED: ATOM     29  C   UNL d   1       1.259 -18.048  -3.698 -0.26 -0.02    +0.046 C 
DOCKED: ATOM     30  C   UNL d   1       7.313 -14.421 -10.688 -0.08 -0.01    +0.046 C 
DOCKED: ATOM     31  H   UNL d   1       2.683 -17.225  -7.993 -0.22 -0.09    +0.166 HD
DOCKED: ATOM     32  H   UNL d   1       3.199 -15.450  -8.886 -0.42 -0.14    +0.166 HD
DOCKED: ENDROOT
DOCKED: BRANCH   7  33
DOCKED: ATOM     33  C   UNL d   1       3.261 -15.151 -14.236 -0.05 -0.01    +0.141 C 
DOCKED: BRANCH  33  34
DOCKED: ATOM     34  C   UNL d   1       2.846 -14.294 -15.400 -0.02 -0.02    +0.306 C 
DOCKED: ATOM     35  O   UNL d   1       3.447 -13.324 -15.831 -0.05 +0.01    -0.251 OA
DOCKED: BRANCH  34  36
DOCKED: ATOM     36  O   UNL d   1       1.696 -14.706 -15.963 +0.01 +0.00    -0.481 OA
DOCKED: ATOM     37  H   UNL d   1       1.452 -15.513 -15.463 +0.04 +0.00    +0.295 HD
DOCKED: ENDBRANCH  34  36
DOCKED: ENDBRANCH  33  34
DOCKED: ENDBRANCH   7  33
DOCKED: BRANCH  27  38
DOCKED: ATOM     38  C   UNL d   1       7.576 -15.189  -7.651 -0.12 -0.01    +0.017 C 
DOCKED: ATOM     39  C   UNL d   1       7.691 -15.004  -6.327 -0.16 -0.07    +0.092 C 
DOCKED: BRANCH  39  40
DOCKED: ATOM     40  C   UNL d   1       9.011 -15.063  -5.693 -0.03 -0.39    +0.330 C 
DOCKED: ATOM     41  O   UNL d   1      10.097 -14.921  -6.223 -0.10 +0.28    -0.246 OA
DOCKED: BRANCH  40  42
DOCKED: ATOM     42  O   UNL d   1       8.882 -15.298  -4.378 -0.05 +0.57    -0.477 OA
DOCKED: ATOM     43  H   UNL d   1       8.572 -14.442  -4.016 -0.46 -0.64    +0.295 HD
DOCKED: ENDBRANCH  40  42
DOCKED: ENDBRANCH  39  40
DOCKED: ENDBRANCH  27  38
DOCKED: BRANCH   8  44
DOCKED: ATOM     44  C   UNL d   1      -2.067 -19.424 -10.506 -0.30 +0.02    +0.141 C 
DOCKED: BRANCH  44  45
DOCKED: ATOM     45  C   UNL d   1      -3.027 -20.474 -10.012 -0.18 +0.03    +0.306 C 
DOCKED: ATOM     46  O   UNL d   1      -3.288 -21.533 -10.554 -0.12 -0.05    -0.251 OA
DOCKED: BRANCH  45  47
DOCKED: ATOM     47  O   UNL d   1      -3.633 -20.117  -8.865 -0.16 +0.05    -0.481 OA
DOCKED: ATOM     48  H   UNL d   1      -2.990 -20.351  -8.162 +0.08 -0.12    +0.295 HD
DOCKED: ENDBRANCH  45  47
DOCKED: ENDBRANCH  44  45
DOCKED: ENDBRANCH   8  44
DOCKED: BRANCH  22  49
DOCKED: ATOM     49  C   UNL d   1       3.818 -16.137  -3.618 -0.33 -0.01    +0.048 C 
DOCKED: BRANCH  49  50
DOCKED: ATOM     50  C   UNL d   1       4.043 -14.631  -3.743 -0.43 -0.03    +0.125 C 
DOCKED: BRANCH  50  51
DOCKED: ATOM     51  C   UNL d   1       5.334 -14.226  -3.090 -0.31 -0.10    +0.305 C 
DOCKED: ATOM     52  O   UNL d   1       5.531 -14.004  -1.908 -0.71 +0.03    -0.251 OA
DOCKED: BRANCH  51  53
DOCKED: ATOM     53  O   UNL d   1       6.336 -14.104  -3.984 -0.48 +0.31    -0.481 OA
DOCKED: ATOM     54  H   UNL d   1       7.146 -14.262  -3.456 +0.03 -0.30    +0.295 HD
DOCKED: ENDBRANCH  51  53
DOCKED: ENDBRANCH  50  51
DOCKED: ENDBRANCH  49  50
DOCKED: ENDBRANCH  22  49
DOCKED: TORSDOF 13
DOCKED: TER
DOCKED: ENDMDL
________________________________________________________________________________


	BEGINNING GENETIC ALGORITHM DOCKING 18 of 100
Run: 18 Seed: 303411566 1300289677 [ Run 18 of 100 GA/GALS ]
Beginning LAMARCKIAN GENETIC ALGORITHM (LGA), with a maximum of 25000000 energy evaluations.

Final-Value: -11.854


	FINAL GENETIC ALGORITHM DOCKED STATE
	_______________________________________________


Detailed state:  trans -5.728 -9.389 -13.271 quatxyzw 0.010582 -0.070985 0.823276 -0.563086 center 0.153 0.018 -0.028 ntor 13 -113.6754 -168.0126 103.9879 -64.2242 29.1176 100.3363 -58.6222 -105.4758 127.0883 -128.1956 -101.8223 -102.7279 -0.4555
State:	 -5.728  -9.389 -13.271   0.013 -0.086  0.996 -111.461   -113.68 -168.01  103.99  -64.22   29.12  100.34  -58.62 -105.48  127.09 -128.20 -101.82 -102.73   -0.46

DOCKED: MODEL       18
DOCKED: USER    Run = 18
DOCKED: USER    DPF = D:/Protein_go_brrr/autodock/final/mut_Y35F/heme/dock.dpf
DOCKED: USER  
DOCKED: USER    Estimated Free Energy of Binding    =   -3.44 kcal/mol  [=(1)+(2)+(3)-(4)]
DOCKED: USER    Estimated Inhibition Constant, Ki   =    3.03 mM (millimolar)  [Temperature = 298.15 K]
DOCKED: USER    
DOCKED: USER    (1) Final Intermolecular Energy     =   -7.31 kcal/mol
DOCKED: USER        vdW + Hbond + desolv Energy     =   -7.18 kcal/mol
DOCKED: USER        Electrostatic Energy            =   -0.14 kcal/mol
DOCKED: USER    (2) Final Total Internal Energy     =   -4.54 kcal/mol
DOCKED: USER    (3) Torsional Free Energy           =   +3.88 kcal/mol
DOCKED: USER    (4) Unbound System's Energy  [=(2)] =   -4.54 kcal/mol
DOCKED: USER    
DOCKED: USER    
DOCKED: USER    NEWDPF move heme_opt.pdbqt
DOCKED: USER    NEWDPF about 0.153000 0.018000 -0.028000
DOCKED: USER    NEWDPF tran0 -5.728256 -9.389406 -13.271117
DOCKED: USER    NEWDPF quaternion0 0.010582 -0.070985 0.823276 -0.563086
DOCKED: USER    NEWDPF axisangle0 0.012805 -0.085897 0.996222 -111.461096
DOCKED: USER    NEWDPF quat0 0.012805 -0.085897 0.996222 -111.461096
DOCKED: USER    NEWDPF dihe0 -113.68 -168.01 103.99 -64.22 29.12 100.34 -58.62 -105.48 127.09 -128.20 -101.82 -102.73 -0.46 
DOCKED: USER  keepresnum = 1 
DOCKED: USER  
DOCKED: REMARK  13 active torsions:
DOCKED: REMARK  status: ('A' for Active; 'I' for Inactive)
DOCKED: REMARK    1  A    between atoms: O_3  and  C_38 
DOCKED: REMARK    2  A    between atoms: O_4  and  C_40 
DOCKED: REMARK    3  A    between atoms: O_7  and  C_46 
DOCKED: REMARK    4  A    between atoms: O_9  and  C_48 
DOCKED: REMARK    5  A    between atoms: C_15  and  C_20 
DOCKED: REMARK    6  A    between atoms: C_16  and  C_23 
DOCKED: REMARK    7  A    between atoms: C_20  and  C_38 
DOCKED: REMARK    8  A    between atoms: C_23  and  C_40 
DOCKED: REMARK    9  A    between atoms: C_32  and  C_41 
DOCKED: REMARK   10  A    between atoms: C_37  and  C_45 
DOCKED: REMARK   11  A    between atoms: C_41  and  C_44 
DOCKED: REMARK   12  A    between atoms: C_44  and  C_46 
DOCKED: REMARK   13  A    between atoms: C_47  and  C_48 
DOCKED: USER                              x       y       z     vdW  Elec       q    Type
DOCKED: USER                           _______ _______ _______ _____ _____    ______ ____
DOCKED: ROOT
DOCKED: ATOM      1  O   UNL d   1      -5.286 -15.268 -13.353 -0.19 -0.04    -0.289 OA
DOCKED: ATOM      2  O   UNL d   1      -0.158  -9.921 -14.584 -0.19 -0.01    -0.289 OA
DOCKED: ATOM      3  N   UNL d   1      -6.050 -11.905 -13.329 -0.08 +0.02    -0.247 NA
DOCKED: ATOM      4  N   UNL d   1      -3.395 -10.598 -13.599 -0.10 +0.01    -0.247 NA
DOCKED: ATOM      5  N   UNL d   1      -4.640  -8.120 -12.841 -0.04 +0.01    -0.354 N 
DOCKED: ATOM      6  N   UNL d   1      -7.387  -9.487 -12.544 -0.06 +0.05    -0.354 N 
DOCKED: ATOM      7  C   UNL d   1      -7.279 -13.961 -12.812 -0.27 -0.00    +0.084 A 
DOCKED: ATOM      8  C   UNL d   1      -1.630 -11.873 -14.710 -0.10 -0.00    +0.084 A 
DOCKED: ATOM      9  C   UNL d   1      -3.053 -11.816 -14.144 -0.14 -0.00    +0.058 A 
DOCKED: ATOM     10  C   UNL d   1      -7.260 -12.433 -12.909 -0.21 -0.01    +0.058 A 
DOCKED: ATOM     11  C   UNL d   1      -5.873 -14.204 -13.269 -0.17 +0.00    +0.193 A 
DOCKED: ATOM     12  C   UNL d   1      -5.241 -12.882 -13.577 -0.16 -0.00    +0.109 A 
DOCKED: ATOM     13  C   UNL d   1      -1.215 -10.474 -14.351 -0.12 -0.00    +0.193 A 
DOCKED: ATOM     14  C   UNL d   1      -7.421 -14.444 -11.366 -0.51 -0.00    +0.026 C 
DOCKED: ATOM     15  C   UNL d   1      -3.874 -12.878 -14.136 -0.18 +0.00    +0.055 C 
DOCKED: ATOM     16  C   UNL d   1      -1.630 -12.010 -16.235 -0.03 +0.00    +0.026 C 
DOCKED: ATOM     17  C   UNL d   1      -2.372  -9.810 -13.677 -0.17 -0.00    +0.109 A 
DOCKED: ATOM     18  C   UNL d   1      -8.367 -11.700 -12.687 -0.26 -0.00    +0.050 C 
DOCKED: ATOM     19  C   UNL d   1      -8.465 -10.293 -12.834 -0.19 -0.00    +0.045 A 
DOCKED: ATOM     20  C   UNL d   1      -3.323  -7.746 -12.792 -0.08 +0.00    +0.045 A 
DOCKED: ATOM     21  C   UNL d   1      -2.241  -8.435 -13.171 -0.24 -0.00    +0.057 C 
DOCKED: ATOM     22  C   UNL d   1      -4.604  -6.042 -11.973 -0.24 +0.00    -0.019 A 
DOCKED: ATOM     23  C   UNL d   1      -5.490  -7.156 -12.367 -0.18 -0.00    +0.045 A 
DOCKED: ATOM     24  C   UNL d   1      -3.323  -6.397 -12.229 -0.23 -0.00    -0.022 A 
DOCKED: ATOM     25  C   UNL d   1      -7.729  -8.160 -12.668 -0.13 -0.01    +0.049 A 
DOCKED: ATOM     26  C   UNL d   1      -9.522  -9.471 -13.191 -0.17 +0.00    -0.018 A 
DOCKED: ATOM     27  C   UNL d   1      -9.046  -8.126 -13.103 -0.14 -0.00    +0.003 A 
DOCKED: ATOM     28  C   UNL d   1      -6.828  -7.135 -12.269 -0.18 -0.01    +0.052 C 
DOCKED: ATOM     29  C   UNL d   1      -2.076  -5.608 -12.014 -0.15 +0.00    +0.046 C 
DOCKED: ATOM     30  C   UNL d   1     -10.892  -9.905 -13.592 -0.12 +0.00    +0.046 C 
DOCKED: ATOM     31  H   UNL d   1      -4.923  -8.996 -13.267 +0.05 -0.01    +0.166 HD
DOCKED: ATOM     32  H   UNL d   1      -6.487  -9.842 -12.242 +0.08 -0.02    +0.166 HD
DOCKED: ENDROOT
DOCKED: BRANCH   7  33
DOCKED: ATOM     33  C   UNL d   1      -8.276 -14.666 -13.740 -0.15 +0.01    +0.141 C 
DOCKED: BRANCH  33  34
DOCKED: ATOM     34  C   UNL d   1      -8.156 -16.165 -13.687 -0.13 +0.06    +0.306 C 
DOCKED: ATOM     35  O   UNL d   1      -8.670 -16.899 -12.860 -0.19 -0.04    -0.251 OA
DOCKED: BRANCH  34  36
DOCKED: ATOM     36  O   UNL d   1      -7.397 -16.660 -14.680 -0.09 -0.16    -0.481 OA
DOCKED: ATOM     37  H   UNL d   1      -6.504 -16.290 -14.516 +0.07 +0.10    +0.295 HD
DOCKED: ENDBRANCH  34  36
DOCKED: ENDBRANCH  33  34
DOCKED: ENDBRANCH   7  33
DOCKED: BRANCH  27  38
DOCKED: ATOM     38  C   UNL d   1      -9.825  -6.955 -13.374 -0.13 -0.00    +0.017 C 
DOCKED: ATOM     39  C   UNL d   1     -10.174  -6.030 -12.466 -0.11 -0.01    +0.092 C 
DOCKED: BRANCH  39  40
DOCKED: ATOM     40  C   UNL d   1     -10.961  -4.865 -12.878 -0.06 -0.00    +0.330 C 
DOCKED: ATOM     41  O   UNL d   1     -12.163  -4.706 -12.775 -0.03 -0.00    -0.246 OA
DOCKED: BRANCH  40  42
DOCKED: ATOM     42  O   UNL d   1     -10.158  -3.928 -13.405 -0.02 -0.01    -0.477 OA
DOCKED: ATOM     43  H   UNL d   1      -9.306  -4.393 -13.531 +0.02 +0.01    +0.295 HD
DOCKED: ENDBRANCH  40  42
DOCKED: ENDBRANCH  39  40
DOCKED: ENDBRANCH  27  38
DOCKED: BRANCH   8  44
DOCKED: ATOM     44  C   UNL d   1      -0.702 -12.904 -14.060 -0.19 -0.01    +0.141 C 
DOCKED: BRANCH  44  45
DOCKED: ATOM     45  C   UNL d   1       0.696 -12.881 -14.618 -0.10 -0.01    +0.306 C 
DOCKED: ATOM     46  O   UNL d   1       1.174 -13.672 -15.413 -0.03 +0.01    -0.251 OA
DOCKED: BRANCH  45  47
DOCKED: ATOM     47  O   UNL d   1       1.432 -11.870 -14.121 -0.35 -0.00    -0.481 OA
DOCKED: ATOM     48  H   UNL d   1       1.115 -11.075 -14.599 +0.07 +0.04    +0.295 HD
DOCKED: ENDBRANCH  45  47
DOCKED: ENDBRANCH  44  45
DOCKED: ENDBRANCH   8  44
DOCKED: BRANCH  22  49
DOCKED: ATOM     49  C   UNL d   1      -5.087  -4.753 -11.376 -0.31 +0.00    +0.048 C 
DOCKED: BRANCH  49  50
DOCKED: ATOM     50  C   UNL d   1      -5.532  -3.760 -12.450 -0.13 +0.00    +0.125 C 
DOCKED: BRANCH  50  51
DOCKED: ATOM     51  C   UNL d   1      -6.906  -4.097 -12.956 -0.06 +0.02    +0.305 C 
DOCKED: ATOM     52  O   UNL d   1      -7.211  -4.508 -14.062 -0.03 -0.00    -0.251 OA
DOCKED: BRANCH  51  53
DOCKED: ATOM     53  O   UNL d   1      -7.854  -3.882 -12.021 -0.40 -0.11    -0.481 OA
DOCKED: ATOM     54  H   UNL d   1      -8.402  -3.162 -12.399 +0.03 +0.03    +0.295 HD
DOCKED: ENDBRANCH  51  53
DOCKED: ENDBRANCH  50  51
DOCKED: ENDBRANCH  49  50
DOCKED: ENDBRANCH  22  49
DOCKED: TORSDOF 13
DOCKED: TER
DOCKED: ENDMDL
________________________________________________________________________________


	BEGINNING GENETIC ALGORITHM DOCKING 19 of 100
Run: 19 Seed: 1174734707 1852692192 [ Run 19 of 100 GA/GALS ]
Beginning LAMARCKIAN GENETIC ALGORITHM (LGA), with a maximum of 25000000 energy evaluations.

Final-Value: -11.859


	FINAL GENETIC ALGORITHM DOCKED STATE
	_______________________________________________


Detailed state:  trans 2.800 -11.581 8.160 quatxyzw -0.121553 -0.271800 0.335878 0.893608 center 0.153 0.018 -0.028 ntor 13 164.6344 -144.5621 -176.0155 -9.4132 27.0094 -20.1135 142.1859 160.7766 -136.9919 -9.2422 -58.0293 -27.0631 -6.4658
State:	  2.800 -11.581   8.160  -0.271 -0.606  0.748 53.340    164.63 -144.56 -176.02   -9.41   27.01  -20.11  142.19  160.78 -136.99   -9.24  -58.03  -27.06   -6.47

DOCKED: MODEL       19
DOCKED: USER    Run = 19
DOCKED: USER    DPF = D:/Protein_go_brrr/autodock/final/mut_Y35F/heme/dock.dpf
DOCKED: USER  
DOCKED: USER    Estimated Free Energy of Binding    =   -4.16 kcal/mol  [=(1)+(2)+(3)-(4)]
DOCKED: USER    Estimated Inhibition Constant, Ki   =  899.33 uM (micromolar)  [Temperature = 298.15 K]
DOCKED: USER    
DOCKED: USER    (1) Final Intermolecular Energy     =   -8.03 kcal/mol
DOCKED: USER        vdW + Hbond + desolv Energy     =   -7.54 kcal/mol
DOCKED: USER        Electrostatic Energy            =   -0.49 kcal/mol
DOCKED: USER    (2) Final Total Internal Energy     =   -3.83 kcal/mol
DOCKED: USER    (3) Torsional Free Energy           =   +3.88 kcal/mol
DOCKED: USER    (4) Unbound System's Energy  [=(2)] =   -3.83 kcal/mol
DOCKED: USER    
DOCKED: USER    
DOCKED: USER    NEWDPF move heme_opt.pdbqt
DOCKED: USER    NEWDPF about 0.153000 0.018000 -0.028000
DOCKED: USER    NEWDPF tran0 2.799702 -11.581498 8.160436
DOCKED: USER    NEWDPF quaternion0 -0.121553 -0.271800 0.335878 0.893608
DOCKED: USER    NEWDPF axisangle0 -0.270811 -0.605551 0.748311 53.339598
DOCKED: USER    NEWDPF quat0 -0.270811 -0.605551 0.748311 53.339598
DOCKED: USER    NEWDPF dihe0 164.63 -144.56 -176.02 -9.41 27.01 -20.11 142.19 160.78 -136.99 -9.24 -58.03 -27.06 -6.47 
DOCKED: USER  keepresnum = 1 
DOCKED: USER  
DOCKED: REMARK  13 active torsions:
DOCKED: REMARK  status: ('A' for Active; 'I' for Inactive)
DOCKED: REMARK    1  A    between atoms: O_3  and  C_38 
DOCKED: REMARK    2  A    between atoms: O_4  and  C_40 
DOCKED: REMARK    3  A    between atoms: O_7  and  C_46 
DOCKED: REMARK    4  A    between atoms: O_9  and  C_48 
DOCKED: REMARK    5  A    between atoms: C_15  and  C_20 
DOCKED: REMARK    6  A    between atoms: C_16  and  C_23 
DOCKED: REMARK    7  A    between atoms: C_20  and  C_38 
DOCKED: REMARK    8  A    between atoms: C_23  and  C_40 
DOCKED: REMARK    9  A    between atoms: C_32  and  C_41 
DOCKED: REMARK   10  A    between atoms: C_37  and  C_45 
DOCKED: REMARK   11  A    between atoms: C_41  and  C_44 
DOCKED: REMARK   12  A    between atoms: C_44  and  C_46 
DOCKED: REMARK   13  A    between atoms: C_47  and  C_48 
DOCKED: USER                              x       y       z     vdW  Elec       q    Type
DOCKED: USER                           _______ _______ _______ _____ _____    ______ ____
DOCKED: ROOT
DOCKED: ATOM      1  O   UNL d   1       0.671  -7.585  11.936 -0.28 +0.22    -0.289 OA
DOCKED: ATOM      2  O   UNL d   1      -2.733 -13.140   8.201 -0.19 +0.02    -0.289 OA
DOCKED: ATOM      3  N   UNL d   1       2.327  -9.619   9.696 -0.09 +0.03    -0.247 NA
DOCKED: ATOM      4  N   UNL d   1       0.283 -11.653   8.979 -0.08 +0.03    -0.247 NA
DOCKED: ATOM      5  N   UNL d   1       2.387 -13.219   7.803 -0.03 +0.05    -0.354 N 
DOCKED: ATOM      6  N   UNL d   1       4.504 -11.113   8.567 -0.02 +0.03    -0.354 N 
DOCKED: ATOM      7  C   UNL d   1       3.004  -7.855  11.257 -0.20 -0.05    +0.084 A 
DOCKED: ATOM      8  C   UNL d   1      -2.063 -10.998   9.179 -0.23 -0.01    +0.084 A 
DOCKED: ATOM      9  C   UNL d   1      -0.583 -10.665   9.394 -0.22 -0.01    +0.058 A 
DOCKED: ATOM     10  C   UNL d   1       3.393  -8.895  10.203 -0.13 -0.01    +0.058 A 
DOCKED: ATOM     11  C   UNL d   1       1.526  -8.105  11.242 -0.17 -0.10    +0.193 A 
DOCKED: ATOM     12  C   UNL d   1       1.239  -9.178  10.238 -0.05 -0.02    +0.109 A 
DOCKED: ATOM     13  C   UNL d   1      -1.879 -12.373   8.602 -0.15 -0.01    +0.193 A 
DOCKED: ATOM     14  C   UNL d   1       3.552  -8.207  12.642 -0.10 -0.01    +0.026 C 
DOCKED: ATOM     15  C   UNL d   1      -0.172  -9.531   9.981 -0.32 -0.01    +0.055 C 
DOCKED: ATOM     16  C   UNL d   1      -2.700 -10.099   8.116 -0.50 -0.00    +0.026 C 
DOCKED: ATOM     17  C   UNL d   1      -0.412 -12.653   8.540 -0.15 -0.01    +0.109 A 
DOCKED: ATOM     18  C   UNL d   1       4.660  -9.009   9.762 -0.15 -0.01    +0.050 C 
DOCKED: ATOM     19  C   UNL d   1       5.098  -9.882   8.733 -0.13 -0.00    +0.045 A 
DOCKED: ATOM     20  C   UNL d   1       1.364 -14.131   7.763 -0.16 -0.01    +0.045 A 
DOCKED: ATOM     21  C   UNL d   1       0.072 -13.953   8.054 -0.20 -0.00    +0.057 C 
DOCKED: ATOM     22  C   UNL d   1       3.299 -15.164   7.126 -0.12 +0.00    -0.019 A 
DOCKED: ATOM     23  C   UNL d   1       3.594 -13.750   7.436 -0.10 -0.01    +0.045 A 
DOCKED: ATOM     24  C   UNL d   1       1.977 -15.382   7.320 -0.14 +0.00    -0.022 A 
DOCKED: ATOM     25  C   UNL d   1       5.140 -11.826   7.577 -0.10 -0.01    +0.049 A 
DOCKED: ATOM     26  C   UNL d   1       6.121  -9.778   7.803 -0.16 +0.00    -0.018 A 
DOCKED: ATOM     27  C   UNL d   1       6.130 -11.000   7.063 -0.14 -0.00    +0.003 A 
DOCKED: ATOM     28  C   UNL d   1       4.807 -13.186   7.331 -0.10 -0.01    +0.052 C 
DOCKED: ATOM     29  C   UNL d   1       1.202 -16.641   7.129 -0.02 -0.01    +0.046 C 
DOCKED: ATOM     30  C   UNL d   1       7.033  -8.614   7.610 -0.23 -0.01    +0.046 C 
DOCKED: ATOM     31  H   UNL d   1       2.213 -12.242   8.010 +0.06 -0.02    +0.166 HD
DOCKED: ATOM     32  H   UNL d   1       3.733 -11.444   9.135 +0.04 -0.02    +0.166 HD
DOCKED: ENDROOT
DOCKED: BRANCH   7  33
DOCKED: ATOM     33  C   UNL d   1       3.306  -6.399  10.886 -0.06 -0.16    +0.141 C 
DOCKED: BRANCH  33  34
DOCKED: ATOM     34  C   UNL d   1       4.684  -5.968  11.309 -0.16 -0.26    +0.306 C 
DOCKED: ATOM     35  O   UNL d   1       5.724  -6.190  10.711 -0.14 +0.09    -0.251 OA
DOCKED: BRANCH  34  36
DOCKED: ATOM     36  O   UNL d   1       4.680  -5.276  12.462 -0.08 +0.61    -0.481 OA
DOCKED: ATOM     37  H   UNL d   1       3.749  -4.987  12.573 -0.40 -0.83    +0.295 HD
DOCKED: ENDBRANCH  34  36
DOCKED: ENDBRANCH  33  34
DOCKED: ENDBRANCH   7  33
DOCKED: BRANCH  27  38
DOCKED: ATOM     38  C   UNL d   1       7.045 -11.320   6.009 -0.25 -0.00    +0.017 C 
DOCKED: ATOM     39  C   UNL d   1       6.946 -12.381   5.194 -0.29 -0.01    +0.092 C 
DOCKED: BRANCH  39  40
DOCKED: ATOM     40  C   UNL d   1       7.943 -12.586   4.139 -0.24 -0.05    +0.330 C 
DOCKED: ATOM     41  O   UNL d   1       8.669 -11.753   3.630 -0.80 +0.08    -0.246 OA
DOCKED: BRANCH  40  42
DOCKED: ATOM     42  O   UNL d   1       7.974 -13.878   3.778 -0.14 +0.08    -0.477 OA
DOCKED: ATOM     43  H   UNL d   1       7.041 -14.165   3.851 +0.10 -0.06    +0.295 HD
DOCKED: ENDBRANCH  40  42
DOCKED: ENDBRANCH  39  40
DOCKED: ENDBRANCH  27  38
DOCKED: BRANCH   8  44
DOCKED: ATOM     44  C   UNL d   1      -2.920 -11.047  10.449 -0.19 -0.01    +0.141 C 
DOCKED: BRANCH  44  45
DOCKED: ATOM     45  C   UNL d   1      -2.435 -12.058  11.454 -0.04 -0.02    +0.306 C 
DOCKED: ATOM     46  O   UNL d   1      -1.740 -11.836  12.430 -0.03 +0.02    -0.251 OA
DOCKED: BRANCH  45  47
DOCKED: ATOM     47  O   UNL d   1      -2.833 -13.309  11.159 +0.00 +0.02    -0.481 OA
DOCKED: ATOM     48  H   UNL d   1      -3.309 -13.223  10.306 +0.07 -0.01    +0.295 HD
DOCKED: ENDBRANCH  45  47
DOCKED: ENDBRANCH  44  45
DOCKED: ENDBRANCH   8  44
DOCKED: BRANCH  22  49
DOCKED: ATOM     49  C   UNL d   1       4.330 -16.163   6.687 -0.10 -0.01    +0.048 C 
DOCKED: BRANCH  49  50
DOCKED: ATOM     50  C   UNL d   1       4.481 -16.194   5.167 -0.15 -0.04    +0.125 C 
DOCKED: BRANCH  50  51
DOCKED: ATOM     51  C   UNL d   1       5.900 -15.913   4.763 -0.08 -0.06    +0.305 C 
DOCKED: ATOM     52  O   UNL d   1       6.465 -16.261   3.741 -0.09 +0.05    -0.251 OA
DOCKED: BRANCH  51  53
DOCKED: ATOM     53  O   UNL d   1       6.558 -15.199   5.697 +0.01 +0.08    -0.481 OA
DOCKED: ATOM     54  H   UNL d   1       7.492 -15.222   5.401 +0.07 -0.04    +0.295 HD
DOCKED: ENDBRANCH  51  53
DOCKED: ENDBRANCH  50  51
DOCKED: ENDBRANCH  49  50
DOCKED: ENDBRANCH  22  49
DOCKED: TORSDOF 13
DOCKED: TER
DOCKED: ENDMDL
________________________________________________________________________________


	BEGINNING GENETIC ALGORITHM DOCKING 20 of 100
Run: 20 Seed: 708175135 648991466 [ Run 20 of 100 GA/GALS ]
Beginning LAMARCKIAN GENETIC ALGORITHM (LGA), with a maximum of 25000000 energy evaluations.

Final-Value: -11.104


	FINAL GENETIC ALGORITHM DOCKED STATE
	_______________________________________________


Detailed state:  trans 4.226 -10.191 9.085 quatxyzw -0.087349 -0.913303 -0.345631 -0.196944 center 0.153 0.018 -0.028 ntor 13 89.7850 96.6784 114.9463 -156.7213 -138.5147 -32.1482 -180.0000 -11.3239 35.0031 21.7057 -37.2322 -1.3853 29.3024
State:	  4.226 -10.191   9.085  -0.089 -0.932 -0.353 -157.283     89.78   96.68  114.95 -156.72 -138.51  -32.15 -180.00  -11.32   35.00   21.71  -37.23   -1.39   29.30

DOCKED: MODEL       20
DOCKED: USER    Run = 20
DOCKED: USER    DPF = D:/Protein_go_brrr/autodock/final/mut_Y35F/heme/dock.dpf
DOCKED: USER  
DOCKED: USER    Estimated Free Energy of Binding    =   -3.93 kcal/mol  [=(1)+(2)+(3)-(4)]
DOCKED: USER    Estimated Inhibition Constant, Ki   =    1.31 mM (millimolar)  [Temperature = 298.15 K]
DOCKED: USER    
DOCKED: USER    (1) Final Intermolecular Energy     =   -7.81 kcal/mol
DOCKED: USER        vdW + Hbond + desolv Energy     =   -7.70 kcal/mol
DOCKED: USER        Electrostatic Energy            =   -0.11 kcal/mol
DOCKED: USER    (2) Final Total Internal Energy     =   -3.29 kcal/mol
DOCKED: USER    (3) Torsional Free Energy           =   +3.88 kcal/mol
DOCKED: USER    (4) Unbound System's Energy  [=(2)] =   -3.29 kcal/mol
DOCKED: USER    
DOCKED: USER    
DOCKED: USER    NEWDPF move heme_opt.pdbqt
DOCKED: USER    NEWDPF about 0.153000 0.018000 -0.028000
DOCKED: USER    NEWDPF tran0 4.226499 -10.190875 9.085486
DOCKED: USER    NEWDPF quaternion0 -0.087349 -0.913303 -0.345631 -0.196944
DOCKED: USER    NEWDPF axisangle0 -0.089094 -0.931548 -0.352535 -157.283438
DOCKED: USER    NEWDPF quat0 -0.089094 -0.931548 -0.352535 -157.283438
DOCKED: USER    NEWDPF dihe0 89.78 96.68 114.95 -156.72 -138.51 -32.15 -180.00 -11.32 35.00 21.71 -37.23 -1.39 29.30 
DOCKED: USER  keepresnum = 1 
DOCKED: USER  
DOCKED: REMARK  13 active torsions:
DOCKED: REMARK  status: ('A' for Active; 'I' for Inactive)
DOCKED: REMARK    1  A    between atoms: O_3  and  C_38 
DOCKED: REMARK    2  A    between atoms: O_4  and  C_40 
DOCKED: REMARK    3  A    between atoms: O_7  and  C_46 
DOCKED: REMARK    4  A    between atoms: O_9  and  C_48 
DOCKED: REMARK    5  A    between atoms: C_15  and  C_20 
DOCKED: REMARK    6  A    between atoms: C_16  and  C_23 
DOCKED: REMARK    7  A    between atoms: C_20  and  C_38 
DOCKED: REMARK    8  A    between atoms: C_23  and  C_40 
DOCKED: REMARK    9  A    between atoms: C_32  and  C_41 
DOCKED: REMARK   10  A    between atoms: C_37  and  C_45 
DOCKED: REMARK   11  A    between atoms: C_41  and  C_44 
DOCKED: REMARK   12  A    between atoms: C_44  and  C_46 
DOCKED: REMARK   13  A    between atoms: C_47  and  C_48 
DOCKED: USER                              x       y       z     vdW  Elec       q    Type
DOCKED: USER                           _______ _______ _______ _____ _____    ______ ____
DOCKED: ROOT
DOCKED: ATOM      1  O   UNL d   1       9.622  -8.631   7.293 -0.14 +0.03    -0.289 OA
DOCKED: ATOM      2  O   UNL d   1       5.677 -14.919   6.156 -0.04 +0.05    -0.289 OA
DOCKED: ATOM      3  N   UNL d   1       6.506  -9.157   8.675 -0.06 +0.02    -0.247 NA
DOCKED: ATOM      4  N   UNL d   1       5.635 -11.717   7.443 -0.06 +0.03    -0.247 NA
DOCKED: ATOM      5  N   UNL d   1       2.980 -11.166   8.397 -0.05 +0.04    -0.354 N 
DOCKED: ATOM      6  N   UNL d   1       3.887  -8.503   9.655 -0.07 +0.06    -0.354 N 
DOCKED: ATOM      7  C   UNL d   1       8.062  -7.265   8.588 -0.18 -0.00    +0.084 A 
DOCKED: ATOM      8  C   UNL d   1       7.386 -13.255   6.707 -0.05 -0.01    +0.084 A 
DOCKED: ATOM      9  C   UNL d   1       6.991 -11.887   7.274 -0.09 -0.01    +0.058 A 
DOCKED: ATOM     10  C   UNL d   1       6.718  -7.840   9.046 -0.15 -0.01    +0.058 A 
DOCKED: ATOM     11  C   UNL d   1       8.579  -8.496   7.907 -0.16 -0.02    +0.193 A 
DOCKED: ATOM     12  C   UNL d   1       7.556  -9.580   8.051 -0.12 -0.01    +0.109 A 
DOCKED: ATOM     13  C   UNL d   1       6.000 -13.815   6.550 -0.05 -0.03    +0.193 A 
DOCKED: ATOM     14  C   UNL d   1       7.887  -6.158   7.544 -0.42 -0.00    +0.026 C 
DOCKED: ATOM     15  C   UNL d   1       7.888 -10.923   7.533 -0.14 -0.01    +0.055 C 
DOCKED: ATOM     16  C   UNL d   1       8.145 -14.099   7.736 -0.02 -0.00    +0.026 C 
DOCKED: ATOM     17  C   UNL d   1       5.031 -12.782   7.024 -0.09 -0.02    +0.109 A 
DOCKED: ATOM     18  C   UNL d   1       5.878  -7.129   9.821 -0.20 -0.01    +0.050 C 
DOCKED: ATOM     19  C   UNL d   1       4.656  -7.606  10.362 -0.19 -0.01    +0.045 A 
DOCKED: ATOM     20  C   UNL d   1       2.721 -12.240   7.585 -0.17 -0.01    +0.045 A 
DOCKED: ATOM     21  C   UNL d   1       3.585 -13.037   6.949 -0.19 -0.01    +0.057 C 
DOCKED: ATOM     22  C   UNL d   1       0.738 -11.372   8.317 -0.22 +0.00    -0.019 A 
DOCKED: ATOM     23  C   UNL d   1       1.845 -10.577   8.886 -0.20 -0.00    +0.045 A 
DOCKED: ATOM     24  C   UNL d   1       1.263 -12.356   7.549 -0.26 +0.00    -0.022 A 
DOCKED: ATOM     25  C   UNL d   1       2.710  -8.758  10.320 -0.08 -0.01    +0.049 A 
DOCKED: ATOM     26  C   UNL d   1       3.979  -7.299  11.532 -0.19 +0.01    -0.018 A 
DOCKED: ATOM     27  C   UNL d   1       2.760  -8.045  11.509 -0.21 -0.00    +0.003 A 
DOCKED: ATOM     28  C   UNL d   1       1.684  -9.533   9.714 -0.11 -0.01    +0.052 C 
DOCKED: ATOM     29  C   UNL d   1       0.554 -13.417   6.778 -0.15 -0.01    +0.046 C 
DOCKED: ATOM     30  C   UNL d   1       4.435  -6.373  12.608 -0.08 -0.05    +0.046 C 
DOCKED: ATOM     31  H   UNL d   1       3.929 -10.916   8.651 +0.05 -0.02    +0.166 HD
DOCKED: ATOM     32  H   UNL d   1       4.151  -8.878   8.752 +0.06 -0.00    +0.166 HD
DOCKED: ENDROOT
DOCKED: BRANCH   7  33
DOCKED: ATOM     33  C   UNL d   1       9.010  -6.834   9.712 -0.10 +0.01    +0.141 C 
DOCKED: BRANCH  33  34
DOCKED: ATOM     34  C   UNL d   1       9.797  -7.984  10.279 -0.03 +0.03    +0.306 C 
DOCKED: ATOM     35  O   UNL d   1       9.422  -8.755  11.147 -0.01 -0.01    -0.251 OA
DOCKED: BRANCH  34  36
DOCKED: ATOM     36  O   UNL d   1      11.014  -8.105   9.721 -0.04 -0.18    -0.481 OA
DOCKED: ATOM     37  H   UNL d   1      10.886  -8.737   8.982 +0.05 +0.15    +0.295 HD
DOCKED: ENDBRANCH  34  36
DOCKED: ENDBRANCH  33  34
DOCKED: ENDBRANCH   7  33
DOCKED: BRANCH  27  38
DOCKED: ATOM     38  C   UNL d   1       1.752  -8.010  12.526 -0.20 -0.01    +0.017 C 
DOCKED: ATOM     39  C   UNL d   1       1.004  -9.055  12.911 -0.12 -0.03    +0.092 C 
DOCKED: BRANCH  39  40
DOCKED: ATOM     40  C   UNL d   1       0.015  -8.890  13.980 -0.05 -0.10    +0.330 C 
DOCKED: ATOM     41  O   UNL d   1       0.091  -8.173  14.959 -0.09 +0.08    -0.246 OA
DOCKED: BRANCH  40  42
DOCKED: ATOM     42  O   UNL d   1      -1.057  -9.661  13.740 -0.01 +0.08    -0.477 OA
DOCKED: ATOM     43  H   UNL d   1      -1.599  -9.125  13.126 +0.13 -0.05    +0.295 HD
DOCKED: ENDBRANCH  40  42
DOCKED: ENDBRANCH  39  40
DOCKED: ENDBRANCH  27  38
DOCKED: BRANCH   8  44
DOCKED: ATOM     44  C   UNL d   1       8.121 -13.226   5.363 -0.15 -0.02    +0.141 C 
DOCKED: BRANCH  44  45
DOCKED: ATOM     45  C   UNL d   1       7.770 -12.029   4.520 -0.23 -0.04    +0.306 C 
DOCKED: ATOM     46  O   UNL d   1       8.547 -11.326   3.897 -0.81 +0.08    -0.251 OA
DOCKED: BRANCH  45  47
DOCKED: ATOM     47  O   UNL d   1       6.452 -11.763   4.527 -0.71 -0.02    -0.481 OA
DOCKED: ATOM     48  H   UNL d   1       6.041 -12.531   4.077 -0.38 -0.07    +0.295 HD
DOCKED: ENDBRANCH  45  47
DOCKED: ENDBRANCH  44  45
DOCKED: ENDBRANCH   8  44
DOCKED: BRANCH  22  49
DOCKED: ATOM     49  C   UNL d   1      -0.715 -11.090   8.563 -0.27 -0.01    +0.048 C 
DOCKED: BRANCH  49  50
DOCKED: ATOM     50  C   UNL d   1      -1.038 -11.027  10.055 -0.16 -0.01    +0.125 C 
DOCKED: BRANCH  50  51
DOCKED: ATOM     51  C   UNL d   1      -2.076  -9.977  10.335 -0.19 -0.04    +0.305 C 
DOCKED: ATOM     52  O   UNL d   1      -2.414  -9.055   9.614 -0.38 +0.05    -0.251 OA
DOCKED: BRANCH  51  53
DOCKED: ATOM     53  O   UNL d   1      -2.643 -10.140  11.548 -0.00 +0.04    -0.481 OA
DOCKED: ATOM     54  H   UNL d   1      -1.980 -10.655  12.053 +0.09 -0.03    +0.295 HD
DOCKED: ENDBRANCH  51  53
DOCKED: ENDBRANCH  50  51
DOCKED: ENDBRANCH  49  50
DOCKED: ENDBRANCH  22  49
DOCKED: TORSDOF 13
DOCKED: TER
DOCKED: ENDMDL
________________________________________________________________________________


	BEGINNING GENETIC ALGORITHM DOCKING 21 of 100
Run: 21 Seed: 1836991260 1871555646 [ Run 21 of 100 GA/GALS ]
Beginning LAMARCKIAN GENETIC ALGORITHM (LGA), with a maximum of 25000000 energy evaluations.

Final-Value: -10.538


	FINAL GENETIC ALGORITHM DOCKED STATE
	_______________________________________________


Detailed state:  trans -5.438 -14.714 -14.956 quatxyzw -0.339181 -0.074882 -0.281427 0.894510 center 0.153 0.018 -0.028 ntor 13 154.7318 -104.9760 -175.1885 -86.6090 -143.4445 25.0734 141.7849 -13.1485 12.2630 -11.4449 -15.1248 -71.5282 43.8934
State:	 -5.438 -14.714 -14.956  -0.759 -0.168 -0.630 53.109    154.73 -104.98 -175.19  -86.61 -143.44   25.07  141.78  -13.15   12.26  -11.44  -15.12  -71.53   43.89

DOCKED: MODEL       21
DOCKED: USER    Run = 21
DOCKED: USER    DPF = D:/Protein_go_brrr/autodock/final/mut_Y35F/heme/dock.dpf
DOCKED: USER  
DOCKED: USER    Estimated Free Energy of Binding    =   -2.89 kcal/mol  [=(1)+(2)+(3)-(4)]
DOCKED: USER    Estimated Inhibition Constant, Ki   =    7.61 mM (millimolar)  [Temperature = 298.15 K]
DOCKED: USER    
DOCKED: USER    (1) Final Intermolecular Energy     =   -6.77 kcal/mol
DOCKED: USER        vdW + Hbond + desolv Energy     =   -6.32 kcal/mol
DOCKED: USER        Electrostatic Energy            =   -0.45 kcal/mol
DOCKED: USER    (2) Final Total Internal Energy     =   -3.77 kcal/mol
DOCKED: USER    (3) Torsional Free Energy           =   +3.88 kcal/mol
DOCKED: USER    (4) Unbound System's Energy  [=(2)] =   -3.77 kcal/mol
DOCKED: USER    
DOCKED: USER    
DOCKED: USER    NEWDPF move heme_opt.pdbqt
DOCKED: USER    NEWDPF about 0.153000 0.018000 -0.028000
DOCKED: USER    NEWDPF tran0 -5.438238 -14.713825 -14.955559
DOCKED: USER    NEWDPF quaternion0 -0.339181 -0.074882 -0.281427 0.894510
DOCKED: USER    NEWDPF axisangle0 -0.758713 -0.167504 -0.629522 53.108927
DOCKED: USER    NEWDPF quat0 -0.758713 -0.167504 -0.629522 53.108927
DOCKED: USER    NEWDPF dihe0 154.73 -104.98 -175.19 -86.61 -143.44 25.07 141.78 -13.15 12.26 -11.44 -15.12 -71.53 43.89 
DOCKED: USER  keepresnum = 1 
DOCKED: USER  
DOCKED: REMARK  13 active torsions:
DOCKED: REMARK  status: ('A' for Active; 'I' for Inactive)
DOCKED: REMARK    1  A    between atoms: O_3  and  C_38 
DOCKED: REMARK    2  A    between atoms: O_4  and  C_40 
DOCKED: REMARK    3  A    between atoms: O_7  and  C_46 
DOCKED: REMARK    4  A    between atoms: O_9  and  C_48 
DOCKED: REMARK    5  A    between atoms: C_15  and  C_20 
DOCKED: REMARK    6  A    between atoms: C_16  and  C_23 
DOCKED: REMARK    7  A    between atoms: C_20  and  C_38 
DOCKED: REMARK    8  A    between atoms: C_23  and  C_40 
DOCKED: REMARK    9  A    between atoms: C_32  and  C_41 
DOCKED: REMARK   10  A    between atoms: C_37  and  C_45 
DOCKED: REMARK   11  A    between atoms: C_41  and  C_44 
DOCKED: REMARK   12  A    between atoms: C_44  and  C_46 
DOCKED: REMARK   13  A    between atoms: C_47  and  C_48 
DOCKED: USER                              x       y       z     vdW  Elec       q    Type
DOCKED: USER                           _______ _______ _______ _____ _____    ______ ____
DOCKED: ROOT
DOCKED: ATOM      1  O   UNL d   1     -10.652 -17.157 -13.687 -0.03 -0.04    -0.289 OA
DOCKED: ATOM      2  O   UNL d   1      -5.964 -18.258 -19.450 -0.02 -0.10    -0.289 OA
DOCKED: ATOM      3  N   UNL d   1      -7.728 -15.370 -14.085 -0.10 -0.03    -0.247 NA
DOCKED: ATOM      4  N   UNL d   1      -6.434 -16.688 -16.413 -0.08 -0.10    -0.247 NA
DOCKED: ATOM      5  N   UNL d   1      -4.013 -15.291 -15.740 -0.05 -0.07    -0.354 N 
DOCKED: ATOM      6  N   UNL d   1      -5.358 -13.944 -13.315 -0.12 +0.00    -0.354 N 
DOCKED: ATOM      7  C   UNL d   1      -9.441 -15.518 -12.338 -0.25 +0.01    +0.084 A 
DOCKED: ATOM      8  C   UNL d   1      -7.895 -17.823 -18.010 -0.04 +0.03    +0.084 A 
DOCKED: ATOM      9  C   UNL d   1      -7.727 -17.077 -16.682 -0.08 +0.02    +0.058 A 
DOCKED: ATOM     10  C   UNL d   1      -8.125 -14.915 -12.839 -0.27 +0.00    +0.058 A 
DOCKED: ATOM     11  C   UNL d   1      -9.726 -16.382 -13.529 -0.07 +0.02    +0.193 A 
DOCKED: ATOM     12  C   UNL d   1      -8.630 -16.184 -14.529 -0.10 +0.02    +0.109 A 
DOCKED: ATOM     13  C   UNL d   1      -6.451 -17.817 -18.427 -0.04 +0.08    +0.193 A 
DOCKED: ATOM     14  C   UNL d   1      -9.232 -16.414 -11.115 -0.24 -0.00    +0.026 C 
DOCKED: ATOM     15  C   UNL d   1      -8.746 -16.869 -15.833 -0.08 +0.01    +0.055 C 
DOCKED: ATOM     16  C   UNL d   1      -8.703 -17.005 -19.022 -0.01 +0.00    +0.026 C 
DOCKED: ATOM     17  C   UNL d   1      -5.670 -17.106 -17.371 -0.08 +0.05    +0.109 A 
DOCKED: ATOM     18  C   UNL d   1      -7.481 -13.957 -12.146 -0.43 -0.01    +0.050 C 
DOCKED: ATOM     19  C   UNL d   1      -6.308 -13.283 -12.569 -0.28 -0.01    +0.045 A 
DOCKED: ATOM     20  C   UNL d   1      -3.532 -16.150 -16.693 -0.08 +0.01    +0.045 A 
DOCKED: ATOM     21  C   UNL d   1      -4.210 -16.983 -17.489 -0.08 +0.02    +0.057 C 
DOCKED: ATOM     22  C   UNL d   1      -1.774 -15.046 -15.740 -0.06 -0.00    -0.019 A 
DOCKED: ATOM     23  C   UNL d   1      -3.026 -14.581 -15.110 -0.12 +0.01    +0.045 A 
DOCKED: ATOM     24  C   UNL d   1      -2.080 -15.974 -16.677 -0.05 -0.00    -0.022 A 
DOCKED: ATOM     25  C   UNL d   1      -4.268 -13.134 -13.537 -0.19 -0.00    +0.049 A 
DOCKED: ATOM     26  C   UNL d   1      -5.840 -12.000 -12.332 -0.31 +0.00    -0.018 A 
DOCKED: ATOM     27  C   UNL d   1      -4.561 -11.905 -12.963 -0.26 -0.00    +0.003 A 
DOCKED: ATOM     28  C   UNL d   1      -3.092 -13.646 -14.150 -0.19 +0.00    +0.052 C 
DOCKED: ATOM     29  C   UNL d   1      -1.163 -16.722 -17.584 -0.02 +0.01    +0.046 C 
DOCKED: ATOM     30  C   UNL d   1      -6.538 -10.925 -11.570 -0.36 -0.01    +0.046 C 
DOCKED: ATOM     31  H   UNL d   1      -5.010 -15.163 -15.601 +0.03 +0.03    +0.166 HD
DOCKED: ATOM     32  H   UNL d   1      -5.450 -14.908 -13.613 +0.04 +0.02    +0.166 HD
DOCKED: ENDROOT
DOCKED: BRANCH   7  33
DOCKED: ATOM     33  C   UNL d   1     -10.579 -14.517 -12.113 -0.13 +0.02    +0.141 C 
DOCKED: BRANCH  33  34
DOCKED: ATOM     34  C   UNL d   1     -10.955 -13.776 -13.368 -0.08 +0.03    +0.306 C 
DOCKED: ATOM     35  O   UNL d   1     -10.468 -12.729 -13.759 -0.10 -0.02    -0.251 OA
DOCKED: BRANCH  34  36
DOCKED: ATOM     36  O   UNL d   1     -11.923 -14.396 -14.066 -0.03 -0.04    -0.481 OA
DOCKED: ATOM     37  H   UNL d   1     -11.818 -15.346 -13.843 +0.05 +0.03    +0.295 HD
DOCKED: ENDBRANCH  34  36
DOCKED: ENDBRANCH  33  34
DOCKED: ENDBRANCH   7  33
DOCKED: BRANCH  27  38
DOCKED: ATOM     38  C   UNL d   1      -3.718 -10.747 -12.949 -0.28 -0.00    +0.017 C 
DOCKED: ATOM     39  C   UNL d   1      -2.377 -10.766 -12.908 -0.20 -0.01    +0.092 C 
DOCKED: BRANCH  39  40
DOCKED: ATOM     40  C   UNL d   1      -1.629  -9.506 -12.917 -0.13 -0.02    +0.330 C 
DOCKED: ATOM     41  O   UNL d   1      -2.022  -8.406 -12.579 -0.23 +0.00    -0.246 OA
DOCKED: BRANCH  40  42
DOCKED: ATOM     42  O   UNL d   1      -0.379  -9.714 -13.359 -0.19 -0.01    -0.477 OA
DOCKED: ATOM     43  H   UNL d   1      -0.488  -9.832 -14.325 +0.10 +0.01    +0.295 HD
DOCKED: ENDBRANCH  40  42
DOCKED: ENDBRANCH  39  40
DOCKED: ENDBRANCH  27  38
DOCKED: BRANCH   8  44
DOCKED: ATOM     44  C   UNL d   1      -8.429 -19.255 -17.901 -0.05 +0.06    +0.141 C 
DOCKED: BRANCH  44  45
DOCKED: ATOM     45  C   UNL d   1      -7.533 -20.164 -17.103 +0.02 +0.31    +0.306 C 
DOCKED: ATOM     46  O   UNL d   1      -7.660 -20.462 -15.928 -0.08 -0.34    -0.251 OA
DOCKED: BRANCH  45  47
DOCKED: ATOM     47  O   UNL d   1      -6.499 -20.632 -17.826 -0.08 -0.68    -0.481 OA
DOCKED: ATOM     48  H   UNL d   1      -6.582 -20.184 -18.694 +0.01 +0.22    +0.295 HD
DOCKED: ENDBRANCH  45  47
DOCKED: ENDBRANCH  44  45
DOCKED: ENDBRANCH   8  44
DOCKED: BRANCH  22  49
DOCKED: ATOM     49  C   UNL d   1      -0.407 -14.556 -15.361 -0.07 +0.00    +0.048 C 
DOCKED: BRANCH  49  50
DOCKED: ATOM     50  C   UNL d   1      -0.399 -13.053 -15.082 -0.08 -0.00    +0.125 C 
DOCKED: BRANCH  50  51
DOCKED: ATOM     51  C   UNL d   1       0.865 -12.645 -14.380 -0.14 -0.02    +0.305 C 
DOCKED: ATOM     52  O   UNL d   1       1.637 -13.359 -13.765 -0.18 +0.04    -0.251 OA
DOCKED: BRANCH  51  53
DOCKED: ATOM     53  O   UNL d   1       1.092 -11.320 -14.480 -0.54 -0.04    -0.481 OA
DOCKED: ATOM     54  H   UNL d   1       0.683 -10.946 -13.672 +0.09 +0.03    +0.295 HD
DOCKED: ENDBRANCH  51  53
DOCKED: ENDBRANCH  50  51
DOCKED: ENDBRANCH  49  50
DOCKED: ENDBRANCH  22  49
DOCKED: TORSDOF 13
DOCKED: TER
DOCKED: ENDMDL
________________________________________________________________________________


	BEGINNING GENETIC ALGORITHM DOCKING 22 of 100
Run: 22 Seed: 1292825678 2083815559 [ Run 22 of 100 GA/GALS ]
Beginning LAMARCKIAN GENETIC ALGORITHM (LGA), with a maximum of 25000000 energy evaluations.

Final-Value: -13.766


	FINAL GENETIC ALGORITHM DOCKED STATE
	_______________________________________________


Detailed state:  trans 2.952 -16.016 -8.613 quatxyzw 0.735653 -0.001615 0.464979 -0.492552 center 0.153 0.018 -0.028 ntor 13 112.4170 71.0007 -118.6974 -89.1874 -132.1759 -121.1036 121.4694 180.0000 49.4008 -24.1178 -47.0831 -17.6969 144.1333
State:	  2.952 -16.016  -8.613   0.845 -0.002  0.534 -120.983    112.42   71.00 -118.70  -89.19 -132.18 -121.10  121.47  180.00   49.40  -24.12  -47.08  -17.70  144.13

DOCKED: MODEL       22
DOCKED: USER    Run = 22
DOCKED: USER    DPF = D:/Protein_go_brrr/autodock/final/mut_Y35F/heme/dock.dpf
DOCKED: USER  
DOCKED: USER    Estimated Free Energy of Binding    =   -7.37 kcal/mol  [=(1)+(2)+(3)-(4)]
DOCKED: USER    Estimated Inhibition Constant, Ki   =    3.99 uM (micromolar)  [Temperature = 298.15 K]
DOCKED: USER    
DOCKED: USER    (1) Final Intermolecular Energy     =  -11.24 kcal/mol
DOCKED: USER        vdW + Hbond + desolv Energy     =  -10.59 kcal/mol
DOCKED: USER        Electrostatic Energy            =   -0.65 kcal/mol
DOCKED: USER    (2) Final Total Internal Energy     =   -2.52 kcal/mol
DOCKED: USER    (3) Torsional Free Energy           =   +3.88 kcal/mol
DOCKED: USER    (4) Unbound System's Energy  [=(2)] =   -2.52 kcal/mol
DOCKED: USER    
DOCKED: USER    
DOCKED: USER    NEWDPF move heme_opt.pdbqt
DOCKED: USER    NEWDPF about 0.153000 0.018000 -0.028000
DOCKED: USER    NEWDPF tran0 2.952397 -16.015627 -8.612584
DOCKED: USER    NEWDPF quaternion0 0.735653 -0.001615 0.464979 -0.492552
DOCKED: USER    NEWDPF axisangle0 0.845303 -0.001856 0.534285 -120.983128
DOCKED: USER    NEWDPF quat0 0.845303 -0.001856 0.534285 -120.983128
DOCKED: USER    NEWDPF dihe0 112.42 71.00 -118.70 -89.19 -132.18 -121.10 121.47 180.00 49.40 -24.12 -47.08 -17.70 144.13 
DOCKED: USER  keepresnum = 1 
DOCKED: USER  
DOCKED: REMARK  13 active torsions:
DOCKED: REMARK  status: ('A' for Active; 'I' for Inactive)
DOCKED: REMARK    1  A    between atoms: O_3  and  C_38 
DOCKED: REMARK    2  A    between atoms: O_4  and  C_40 
DOCKED: REMARK    3  A    between atoms: O_7  and  C_46 
DOCKED: REMARK    4  A    between atoms: O_9  and  C_48 
DOCKED: REMARK    5  A    between atoms: C_15  and  C_20 
DOCKED: REMARK    6  A    between atoms: C_16  and  C_23 
DOCKED: REMARK    7  A    between atoms: C_20  and  C_38 
DOCKED: REMARK    8  A    between atoms: C_23  and  C_40 
DOCKED: REMARK    9  A    between atoms: C_32  and  C_41 
DOCKED: REMARK   10  A    between atoms: C_37  and  C_45 
DOCKED: REMARK   11  A    between atoms: C_41  and  C_44 
DOCKED: REMARK   12  A    between atoms: C_44  and  C_46 
DOCKED: REMARK   13  A    between atoms: C_47  and  C_48 
DOCKED: USER                              x       y       z     vdW  Elec       q    Type
DOCKED: USER                           _______ _______ _______ _____ _____    ______ ____
DOCKED: ROOT
DOCKED: ATOM      1  O   UNL d   1      -0.568 -19.912 -11.292 -0.06 -0.02    -0.289 OA
DOCKED: ATOM      2  O   UNL d   1       2.598 -13.585 -13.809 -0.15 +0.05    -0.289 OA
DOCKED: ATOM      3  N   UNL d   1       1.338 -17.852  -9.288 -0.14 +0.08    -0.247 NA
DOCKED: ATOM      4  N   UNL d   1       2.384 -15.824 -11.192 -0.15 +0.08    -0.247 NA
DOCKED: ATOM      5  N   UNL d   1       4.244 -15.008  -9.157 -0.10 +0.16    -0.354 N 
DOCKED: ATOM      6  N   UNL d   1       3.166 -17.127  -7.195 -0.02 +0.17    -0.354 N 
DOCKED: ATOM      7  C   UNL d   1       0.286 -20.047  -9.005 -0.09 -0.02    +0.084 A 
DOCKED: ATOM      8  C   UNL d   1       1.065 -15.396 -13.204 -0.13 -0.01    +0.084 A 
DOCKED: ATOM      9  C   UNL d   1       1.288 -16.214 -11.928 -0.20 -0.01    +0.058 A 
DOCKED: ATOM     10  C   UNL d   1       1.133 -18.912  -8.422 -0.15 -0.02    +0.058 A 
DOCKED: ATOM     11  C   UNL d   1       0.033 -19.431 -10.349 -0.07 -0.02    +0.193 A 
DOCKED: ATOM     12  C   UNL d   1       0.701 -18.092 -10.387 -0.17 -0.02    +0.109 A 
DOCKED: ATOM     13  C   UNL d   1       2.260 -14.493 -13.075 -0.13 -0.04    +0.193 A 
DOCKED: ATOM     14  C   UNL d   1       1.097 -21.331  -9.194 -0.03 -0.00    +0.026 C 
DOCKED: ATOM     15  C   UNL d   1       0.510 -17.254 -11.588 -0.22 -0.00    +0.055 C 
DOCKED: ATOM     16  C   UNL d   1      -0.206 -14.545 -13.119 -0.09 -0.00    +0.026 C 
DOCKED: ATOM     17  C   UNL d   1       2.979 -14.860 -11.818 -0.13 -0.04    +0.109 A 
DOCKED: ATOM     18  C   UNL d   1       1.550 -18.934  -7.142 -0.18 -0.02    +0.050 C 
DOCKED: ATOM     19  C   UNL d   1       2.264 -17.894  -6.493 -0.21 -0.02    +0.045 A 
DOCKED: ATOM     20  C   UNL d   1       4.740 -14.307 -10.225 -0.29 -0.02    +0.045 A 
DOCKED: ATOM     21  C   UNL d   1       4.222 -14.167 -11.449 -0.27 -0.02    +0.057 C 
DOCKED: ATOM     22  C   UNL d   1       6.176 -14.081  -8.462 -0.25 +0.01    -0.019 A 
DOCKED: ATOM     23  C   UNL d   1       5.042 -14.931  -8.047 -0.24 -0.02    +0.045 A 
DOCKED: ATOM     24  C   UNL d   1       5.991 -13.714  -9.752 -0.27 +0.01    -0.022 A 
DOCKED: ATOM     25  C   UNL d   1       3.807 -16.245  -6.356 -0.10 -0.02    +0.049 A 
DOCKED: ATOM     26  C   UNL d   1       2.293 -17.476  -5.171 -0.27 +0.01    -0.018 A 
DOCKED: ATOM     27  C   UNL d   1       3.254 -16.421  -5.095 -0.31 -0.00    +0.003 A 
DOCKED: ATOM     28  C   UNL d   1       4.893 -15.455  -6.820 -0.25 -0.02    +0.052 C 
DOCKED: ATOM     29  C   UNL d   1       6.853 -12.851 -10.609 -0.20 -0.02    +0.046 C 
DOCKED: ATOM     30  C   UNL d   1       1.477 -18.019  -4.048 -0.29 -0.02    +0.046 C 
DOCKED: ATOM     31  H   UNL d   1       3.335 -15.456  -9.199 -0.38 -0.11    +0.166 HD
DOCKED: ATOM     32  H   UNL d   1       3.347 -17.241  -8.185 -0.05 -0.07    +0.166 HD
DOCKED: ENDROOT
DOCKED: BRANCH   7  33
DOCKED: ATOM     33  C   UNL d   1      -1.037 -20.319  -8.281 -0.13 -0.08    +0.141 C 
DOCKED: BRANCH  33  34
DOCKED: ATOM     34  C   UNL d   1      -2.209 -19.647  -8.944 -0.23 -0.09    +0.306 C 
DOCKED: ATOM     35  O   UNL d   1      -2.506 -18.468  -8.857 -0.70 +0.07    -0.251 OA
DOCKED: BRANCH  34  36
DOCKED: ATOM     36  O   UNL d   1      -2.944 -20.497  -9.683 -0.11 -0.00    -0.481 OA
DOCKED: ATOM     37  H   UNL d   1      -2.373 -20.713 -10.451 +0.09 +0.03    +0.295 HD
DOCKED: ENDBRANCH  34  36
DOCKED: ENDBRANCH  33  34
DOCKED: ENDBRANCH   7  33
DOCKED: BRANCH  27  38
DOCKED: ATOM     38  C   UNL d   1       3.609 -15.714  -3.902 -0.38 -0.00    +0.017 C 
DOCKED: ATOM     39  C   UNL d   1       4.217 -14.518  -3.862 -0.46 -0.02    +0.092 C 
DOCKED: BRANCH  39  40
DOCKED: ATOM     40  C   UNL d   1       4.511 -13.890  -2.571 -0.33 -0.07    +0.330 C 
DOCKED: ATOM     41  O   UNL d   1       4.155 -12.795  -2.179 -1.05 +0.01    -0.246 OA
DOCKED: BRANCH  40  42
DOCKED: ATOM     42  O   UNL d   1       5.255 -14.713  -1.817 -0.42 +0.12    -0.477 OA
DOCKED: ATOM     43  H   UNL d   1       4.641 -15.005  -1.112 -0.42 -0.16    +0.295 HD
DOCKED: ENDBRANCH  40  42
DOCKED: ENDBRANCH  39  40
DOCKED: ENDBRANCH  27  38
DOCKED: BRANCH   8  44
DOCKED: ATOM     44  C   UNL d   1       1.116 -16.188 -14.515 -0.04 +0.00    +0.141 C 
DOCKED: BRANCH  44  45
DOCKED: ATOM     45  C   UNL d   1       2.510 -16.597 -14.908 +0.00 -0.01    +0.306 C 
DOCKED: ATOM     46  O   UNL d   1       3.160 -17.513 -14.434 -0.00 +0.01    -0.251 OA
DOCKED: BRANCH  45  47
DOCKED: ATOM     47  O   UNL d   1       3.027 -15.807 -15.867 +0.01 +0.01    -0.481 OA
DOCKED: ATOM     48  H   UNL d   1       3.038 -14.910 -15.470 +0.03 -0.01    +0.295 HD
DOCKED: ENDBRANCH  45  47
DOCKED: ENDBRANCH  44  45
DOCKED: ENDBRANCH   8  44
DOCKED: BRANCH  22  49
DOCKED: ATOM     49  C   UNL d   1       7.330 -13.724  -7.573 -0.17 -0.04    +0.048 C 
DOCKED: BRANCH  49  50
DOCKED: ATOM     50  C   UNL d   1       8.095 -14.962  -7.108 -0.12 -0.09    +0.125 C 
DOCKED: BRANCH  50  51
DOCKED: ATOM     51  C   UNL d   1       9.577 -14.764  -7.255 -0.04 -0.28    +0.305 C 
DOCKED: ATOM     52  O   UNL d   1      10.467 -15.508  -6.882 -0.05 +0.17    -0.251 OA
DOCKED: BRANCH  51  53
DOCKED: ATOM     53  O   UNL d   1       9.872 -13.602  -7.871 -0.01 +0.57    -0.481 OA
DOCKED: ATOM     54  H   UNL d   1       9.955 -12.958  -7.136 -0.49 -0.77    +0.295 HD
DOCKED: ENDBRANCH  51  53
DOCKED: ENDBRANCH  50  51
DOCKED: ENDBRANCH  49  50
DOCKED: ENDBRANCH  22  49
DOCKED: TORSDOF 13
DOCKED: TER
DOCKED: ENDMDL
________________________________________________________________________________


	BEGINNING GENETIC ALGORITHM DOCKING 23 of 100
Run: 23 Seed: 266562217 1675001381 [ Run 23 of 100 GA/GALS ]
Beginning LAMARCKIAN GENETIC ALGORITHM (LGA), with a maximum of 25000000 energy evaluations.

Final-Value: -11.410


	FINAL GENETIC ALGORITHM DOCKED STATE
	_______________________________________________


Detailed state:  trans 11.285 11.822 5.627 quatxyzw 0.614194 -0.713929 0.212906 0.260276 center 0.153 0.018 -0.028 ntor 13 -105.1284 19.9934 -175.1237 121.0258 33.4437 79.5688 143.0960 -63.5244 93.0117 -7.4950 52.6825 123.0119 25.0345
State:	 11.285  11.822   5.627   0.636 -0.739  0.221 149.827   -105.13   19.99 -175.12  121.03   33.44   79.57  143.10  -63.52   93.01   -7.49   52.68  123.01   25.03

DOCKED: MODEL       23
DOCKED: USER    Run = 23
DOCKED: USER    DPF = D:/Protein_go_brrr/autodock/final/mut_Y35F/heme/dock.dpf
DOCKED: USER  
DOCKED: USER    Estimated Free Energy of Binding    =   -5.53 kcal/mol  [=(1)+(2)+(3)-(4)]
DOCKED: USER    Estimated Inhibition Constant, Ki   =   88.59 uM (micromolar)  [Temperature = 298.15 K]
DOCKED: USER    
DOCKED: USER    (1) Final Intermolecular Energy     =   -9.41 kcal/mol
DOCKED: USER        vdW + Hbond + desolv Energy     =   -9.00 kcal/mol
DOCKED: USER        Electrostatic Energy            =   -0.41 kcal/mol
DOCKED: USER    (2) Final Total Internal Energy     =   -2.00 kcal/mol
DOCKED: USER    (3) Torsional Free Energy           =   +3.88 kcal/mol
DOCKED: USER    (4) Unbound System's Energy  [=(2)] =   -2.00 kcal/mol
DOCKED: USER    
DOCKED: USER    
DOCKED: USER    NEWDPF move heme_opt.pdbqt
DOCKED: USER    NEWDPF about 0.153000 0.018000 -0.028000
DOCKED: USER    NEWDPF tran0 11.284902 11.821647 5.627462
DOCKED: USER    NEWDPF quaternion0 0.614194 -0.713929 0.212906 0.260276
DOCKED: USER    NEWDPF axisangle0 0.636118 -0.739413 0.220505 149.827175
DOCKED: USER    NEWDPF quat0 0.636118 -0.739413 0.220505 149.827175
DOCKED: USER    NEWDPF dihe0 -105.13 19.99 -175.12 121.03 33.44 79.57 143.10 -63.52 93.01 -7.49 52.68 123.01 25.03 
DOCKED: USER  keepresnum = 1 
DOCKED: USER  
DOCKED: REMARK  13 active torsions:
DOCKED: REMARK  status: ('A' for Active; 'I' for Inactive)
DOCKED: REMARK    1  A    between atoms: O_3  and  C_38 
DOCKED: REMARK    2  A    between atoms: O_4  and  C_40 
DOCKED: REMARK    3  A    between atoms: O_7  and  C_46 
DOCKED: REMARK    4  A    between atoms: O_9  and  C_48 
DOCKED: REMARK    5  A    between atoms: C_15  and  C_20 
DOCKED: REMARK    6  A    between atoms: C_16  and  C_23 
DOCKED: REMARK    7  A    between atoms: C_20  and  C_38 
DOCKED: REMARK    8  A    between atoms: C_23  and  C_40 
DOCKED: REMARK    9  A    between atoms: C_32  and  C_41 
DOCKED: REMARK   10  A    between atoms: C_37  and  C_45 
DOCKED: REMARK   11  A    between atoms: C_41  and  C_44 
DOCKED: REMARK   12  A    between atoms: C_44  and  C_46 
DOCKED: REMARK   13  A    between atoms: C_47  and  C_48 
DOCKED: USER                              x       y       z     vdW  Elec       q    Type
DOCKED: USER                           _______ _______ _______ _____ _____    ______ ____
DOCKED: ROOT
DOCKED: ATOM      1  O   UNL d   1      11.019  17.636   4.690 -0.05 +0.06    -0.289 OA
DOCKED: ATOM      2  O   UNL d   1      14.290  13.671  10.164 -0.01 -0.04    -0.289 OA
DOCKED: ATOM      3  N   UNL d   1      10.791  14.201   4.901 +0.04 +0.02    -0.247 NA
DOCKED: ATOM      4  N   UNL d   1      12.610  13.533   7.153 -0.05 -0.01    -0.247 NA
DOCKED: ATOM      5  N   UNL d   1      12.472  10.782   6.327 -0.03 -0.04    -0.354 N 
DOCKED: ATOM      6  N   UNL d   1      10.601  11.487   3.981 -0.11 +0.04    -0.354 N 
DOCKED: ATOM      7  C   UNL d   1      10.092  15.883   3.261 -0.23 -0.02    +0.084 A 
DOCKED: ATOM      8  C   UNL d   1      12.980  15.260   8.842 -0.05 +0.01    +0.084 A 
DOCKED: ATOM      9  C   UNL d   1      12.365  14.842   7.502 -0.10 +0.00    +0.058 A 
DOCKED: ATOM     10  C   UNL d   1      10.175  14.412   3.679 -0.29 -0.01    +0.058 A 
DOCKED: ATOM     11  C   UNL d   1      10.754  16.468   4.472 -0.12 -0.04    +0.193 A 
DOCKED: ATOM     12  C   UNL d   1      11.108  15.350   5.403 -0.16 -0.01    +0.109 A 
DOCKED: ATOM     13  C   UNL d   1      13.650  13.956   9.171 -0.02 +0.02    +0.193 A 
DOCKED: ATOM     14  C   UNL d   1      10.955  16.181   2.032 -0.22 -0.01    +0.026 C 
DOCKED: ATOM     15  C   UNL d   1      11.692  15.695   6.715 -0.16 -0.00    +0.055 C 
DOCKED: ATOM     16  C   UNL d   1      11.906  15.542   9.896 -0.15 +0.00    +0.026 C 
DOCKED: ATOM     17  C   UNL d   1      13.355  12.996   8.065 -0.04 +0.01    +0.109 A 
DOCKED: ATOM     18  C   UNL d   1       9.607  13.439   2.942 -0.48 -0.01    +0.050 C 
DOCKED: ATOM     19  C   UNL d   1       9.560  12.065   3.290 -0.33 -0.01    +0.045 A 
DOCKED: ATOM     20  C   UNL d   1      13.478  10.699   7.254 -0.04 +0.01    +0.045 A 
DOCKED: ATOM     21  C   UNL d   1      13.923  11.639   8.095 -0.03 +0.01    +0.057 C 
DOCKED: ATOM     22  C   UNL d   1      13.288   8.687   6.191 -0.08 -0.00    -0.019 A 
DOCKED: ATOM     23  C   UNL d   1      12.283   9.616   5.635 -0.12 +0.01    +0.045 A 
DOCKED: ATOM     24  C   UNL d   1      13.991   9.334   7.150 -0.03 -0.00    -0.022 A 
DOCKED: ATOM     25  C   UNL d   1      10.390  10.136   4.132 -0.29 -0.00    +0.049 A 
DOCKED: ATOM     26  C   UNL d   1       8.631  11.072   3.019 -0.47 +0.00    -0.018 A 
DOCKED: ATOM     27  C   UNL d   1       9.152   9.860   3.570 -0.42 -0.00    +0.003 A 
DOCKED: ATOM     28  C   UNL d   1      11.401   9.297   4.676 -0.26 +0.00    +0.052 C 
DOCKED: ATOM     29  C   UNL d   1      15.099   8.817   8.003 -0.01 +0.01    +0.046 C 
DOCKED: ATOM     30  C   UNL d   1       7.339  11.236   2.294 -0.04 +0.00    +0.046 C 
DOCKED: ATOM     31  H   UNL d   1      11.896  11.613   6.249 +0.04 +0.01    +0.166 HD
DOCKED: ATOM     32  H   UNL d   1      11.420  11.997   4.289 +0.06 -0.01    +0.166 HD
DOCKED: ENDROOT
DOCKED: BRANCH   7  33
DOCKED: ATOM     33  C   UNL d   1       8.674  16.442   3.100 -0.08 -0.05    +0.141 C 
DOCKED: BRANCH  33  34
DOCKED: ATOM     34  C   UNL d   1       8.544  17.849   3.615 -0.22 -0.08    +0.306 C 
DOCKED: ATOM     35  O   UNL d   1       8.759  18.870   2.983 -0.12 +0.05    -0.251 OA
DOCKED: BRANCH  34  36
DOCKED: ATOM     36  O   UNL d   1       8.149  17.897   4.900 -0.15 +0.17    -0.481 OA
DOCKED: ATOM     37  H   UNL d   1       8.932  17.600   5.410 -0.30 -0.13    +0.295 HD
DOCKED: ENDBRANCH  34  36
DOCKED: ENDBRANCH  33  34
DOCKED: ENDBRANCH   7  33
DOCKED: BRANCH  27  38
DOCKED: ATOM     38  C   UNL d   1       8.513   8.580   3.499 -0.49 +0.00    +0.017 C 
DOCKED: ATOM     39  C   UNL d   1       7.207   8.379   3.268 -0.46 +0.01    +0.092 C 
DOCKED: BRANCH  39  40
DOCKED: ATOM     40  C   UNL d   1       6.680   7.013   3.203 -0.12 +0.10    +0.330 C 
DOCKED: ATOM     41  O   UNL d   1       6.436   6.265   4.131 -1.26 -0.11    -0.246 OA
DOCKED: BRANCH  40  42
DOCKED: ATOM     42  O   UNL d   1       6.473   6.658   1.926 -0.36 -0.08    -0.477 OA
DOCKED: ATOM     43  H   UNL d   1       5.843   5.911   1.988 +0.19 +0.05    +0.295 HD
DOCKED: ENDBRANCH  40  42
DOCKED: ENDBRANCH  39  40
DOCKED: ENDBRANCH  27  38
DOCKED: BRANCH   8  44
DOCKED: ATOM     44  C   UNL d   1      14.001  16.400   8.773 -0.02 +0.00    +0.141 C 
DOCKED: BRANCH  44  45
DOCKED: ATOM     45  C   UNL d   1      15.156  16.108   7.852 -0.00 +0.00    +0.306 C 
DOCKED: ATOM     46  O   UNL d   1      15.287  16.496   6.704 -0.00 +0.01    -0.251 OA
DOCKED: BRANCH  45  47
DOCKED: ATOM     47  O   UNL d   1      16.081  15.314   8.422 +0.00 -0.01    -0.481 OA
DOCKED: ATOM     48  H   UNL d   1      15.703  15.082   9.297 +0.00 +0.02    +0.295 HD
DOCKED: ENDBRANCH  45  47
DOCKED: ENDBRANCH  44  45
DOCKED: ENDBRANCH   8  44
DOCKED: BRANCH  22  49
DOCKED: ATOM     49  C   UNL d   1      13.474   7.272   5.727 -0.17 +0.01    +0.048 C 
DOCKED: BRANCH  49  50
DOCKED: ATOM     50  C   UNL d   1      12.195   6.450   5.880 -0.15 +0.05    +0.125 C 
DOCKED: BRANCH  50  51
DOCKED: ATOM     51  C   UNL d   1      12.455   5.194   6.663 -0.07 +0.24    +0.305 C 
DOCKED: ATOM     52  O   UNL d   1      13.096   4.219   6.313 -0.76 -0.17    -0.251 OA
DOCKED: BRANCH  51  53
DOCKED: ATOM     53  O   UNL d   1      11.869   5.226   7.877 -0.25 -0.79    -0.481 OA
DOCKED: ATOM     54  H   UNL d   1      12.265   6.010   8.312 +0.05 +0.33    +0.295 HD
DOCKED: ENDBRANCH  51  53
DOCKED: ENDBRANCH  50  51
DOCKED: ENDBRANCH  49  50
DOCKED: ENDBRANCH  22  49
DOCKED: TORSDOF 13
DOCKED: TER
DOCKED: ENDMDL
________________________________________________________________________________


	BEGINNING GENETIC ALGORITHM DOCKING 24 of 100
Run: 24 Seed: 253593465 868559629 [ Run 24 of 100 GA/GALS ]
Beginning LAMARCKIAN GENETIC ALGORITHM (LGA), with a maximum of 25000000 energy evaluations.

Final-Value: -11.382


	FINAL GENETIC ALGORITHM DOCKED STATE
	_______________________________________________


Detailed state:  trans 0.804 -20.172 -0.870 quatxyzw 0.159384 0.778863 -0.303457 -0.525246 center 0.153 0.018 -0.028 ntor 13 -88.6965 176.1216 -79.0042 -34.5639 33.7915 83.9171 163.5871 159.3923 91.5023 -97.1595 69.7698 -109.5457 124.0179
State:	  0.804 -20.172  -0.870   0.187  0.915 -0.357 -116.630    -88.70  176.12  -79.00  -34.56   33.79   83.92  163.59  159.39   91.50  -97.16   69.77 -109.55  124.02

DOCKED: MODEL       24
DOCKED: USER    Run = 24
DOCKED: USER    DPF = D:/Protein_go_brrr/autodock/final/mut_Y35F/heme/dock.dpf
DOCKED: USER  
DOCKED: USER    Estimated Free Energy of Binding    =   -3.92 kcal/mol  [=(1)+(2)+(3)-(4)]
DOCKED: USER    Estimated Inhibition Constant, Ki   =    1.34 mM (millimolar)  [Temperature = 298.15 K]
DOCKED: USER    
DOCKED: USER    (1) Final Intermolecular Energy     =   -7.80 kcal/mol
DOCKED: USER        vdW + Hbond + desolv Energy     =   -7.26 kcal/mol
DOCKED: USER        Electrostatic Energy            =   -0.53 kcal/mol
DOCKED: USER    (2) Final Total Internal Energy     =   -3.59 kcal/mol
DOCKED: USER    (3) Torsional Free Energy           =   +3.88 kcal/mol
DOCKED: USER    (4) Unbound System's Energy  [=(2)] =   -3.59 kcal/mol
DOCKED: USER    
DOCKED: USER    
DOCKED: USER    NEWDPF move heme_opt.pdbqt
DOCKED: USER    NEWDPF about 0.153000 0.018000 -0.028000
DOCKED: USER    NEWDPF tran0 0.804064 -20.171788 -0.869839
DOCKED: USER    NEWDPF quaternion0 0.159384 0.778863 -0.303457 -0.525246
DOCKED: USER    NEWDPF axisangle0 0.187301 0.915286 -0.356610 -116.630435
DOCKED: USER    NEWDPF quat0 0.187301 0.915286 -0.356610 -116.630435
DOCKED: USER    NEWDPF dihe0 -88.70 176.12 -79.00 -34.56 33.79 83.92 163.59 159.39 91.50 -97.16 69.77 -109.55 124.02 
DOCKED: USER  keepresnum = 1 
DOCKED: USER  
DOCKED: REMARK  13 active torsions:
DOCKED: REMARK  status: ('A' for Active; 'I' for Inactive)
DOCKED: REMARK    1  A    between atoms: O_3  and  C_38 
DOCKED: REMARK    2  A    between atoms: O_4  and  C_40 
DOCKED: REMARK    3  A    between atoms: O_7  and  C_46 
DOCKED: REMARK    4  A    between atoms: O_9  and  C_48 
DOCKED: REMARK    5  A    between atoms: C_15  and  C_20 
DOCKED: REMARK    6  A    between atoms: C_16  and  C_23 
DOCKED: REMARK    7  A    between atoms: C_20  and  C_38 
DOCKED: REMARK    8  A    between atoms: C_23  and  C_40 
DOCKED: REMARK    9  A    between atoms: C_32  and  C_41 
DOCKED: REMARK   10  A    between atoms: C_37  and  C_45 
DOCKED: REMARK   11  A    between atoms: C_41  and  C_44 
DOCKED: REMARK   12  A    between atoms: C_44  and  C_46 
DOCKED: REMARK   13  A    between atoms: C_47  and  C_48 
DOCKED: USER                              x       y       z     vdW  Elec       q    Type
DOCKED: USER                           _______ _______ _______ _____ _____    ______ ____
DOCKED: ROOT
DOCKED: ATOM      1  O   UNL d   1       4.459 -18.899   3.577 -0.07 +0.05    -0.289 OA
DOCKED: ATOM      2  O   UNL d   1      -2.027 -22.681   3.457 -0.02 -0.03    -0.289 OA
DOCKED: ATOM      3  N   UNL d   1       2.572 -19.281   0.716 -0.13 -0.00    -0.247 NA
DOCKED: ATOM      4  N   UNL d   1       0.408 -21.131   1.566 -0.10 -0.05    -0.247 NA
DOCKED: ATOM      5  N   UNL d   1      -0.236 -21.507  -1.210 -0.01 -0.19    -0.354 N 
DOCKED: ATOM      6  N   UNL d   1       2.024 -19.602  -2.085 -0.10 +0.01    -0.354 N 
DOCKED: ATOM      7  C   UNL d   1       4.777 -18.337   1.220 -0.16 -0.01    +0.084 A 
DOCKED: ATOM      8  C   UNL d   1      -0.184 -21.144   3.937 -0.08 +0.00    +0.084 A 
DOCKED: ATOM      9  C   UNL d   1       0.733 -20.648   2.814 -0.16 +0.00    +0.058 A 
DOCKED: ATOM     10  C   UNL d   1       3.696 -18.669   0.187 -0.19 -0.01    +0.058 A 
DOCKED: ATOM     11  C   UNL d   1       4.057 -18.852   2.429 -0.15 -0.03    +0.193 A 
DOCKED: ATOM     12  C   UNL d   1       2.722 -19.375   1.997 -0.19 -0.01    +0.109 A 
DOCKED: ATOM     13  C   UNL d   1      -1.067 -22.027   3.101 -0.05 +0.02    +0.193 A 
DOCKED: ATOM     14  C   UNL d   1       6.047 -19.165   1.009 -0.06 -0.00    +0.026 C 
DOCKED: ATOM     15  C   UNL d   1       1.792 -19.854   3.039 -0.22 -0.00    +0.055 C 
DOCKED: ATOM     16  C   UNL d   1      -1.032 -20.009   4.520 -0.19 +0.00    +0.026 C 
DOCKED: ATOM     17  C   UNL d   1      -0.598 -21.936   1.685 -0.09 +0.03    +0.109 A 
DOCKED: ATOM     18  C   UNL d   1       3.820 -18.303  -1.103 -0.21 -0.01    +0.050 C 
DOCKED: ATOM     19  C   UNL d   1       2.839 -18.492  -2.109 -0.24 -0.01    +0.045 A 
DOCKED: ATOM     20  C   UNL d   1      -1.015 -22.487  -0.653 -0.07 +0.02    +0.045 A 
DOCKED: ATOM     21  C   UNL d   1      -1.253 -22.735   0.639 -0.09 +0.02    +0.057 C 
DOCKED: ATOM     22  C   UNL d   1      -1.094 -22.685  -2.927 -0.13 -0.00    -0.019 A 
DOCKED: ATOM     23  C   UNL d   1      -0.221 -21.546  -2.579 -0.16 +0.01    +0.045 A 
DOCKED: ATOM     24  C   UNL d   1      -1.562 -23.237  -1.783 -0.09 -0.01    -0.022 A 
DOCKED: ATOM     25  C   UNL d   1       1.214 -19.631  -3.197 -0.23 -0.01    +0.049 A 
DOCKED: ATOM     26  C   UNL d   1       2.525 -17.763  -3.246 -0.26 +0.00    -0.018 A 
DOCKED: ATOM     27  C   UNL d   1       1.485 -18.476  -3.918 -0.29 -0.00    +0.003 A 
DOCKED: ATOM     28  C   UNL d   1       0.396 -20.760  -3.474 -0.20 -0.01    +0.052 C 
DOCKED: ATOM     29  C   UNL d   1      -2.484 -24.397  -1.616 -0.04 +0.01    +0.046 C 
DOCKED: ATOM     30  C   UNL d   1       3.150 -16.481  -3.681 -0.21 -0.01    +0.046 C 
DOCKED: ATOM     31  H   UNL d   1       0.203 -20.794  -0.637 +0.02 +0.08    +0.166 HD
DOCKED: ATOM     32  H   UNL d   1       2.061 -20.309  -1.361 +0.03 +0.01    +0.166 HD
DOCKED: ENDROOT
DOCKED: BRANCH   7  33
DOCKED: ATOM     33  C   UNL d   1       5.097 -16.847   1.379 -0.12 -0.04    +0.141 C 
DOCKED: BRANCH  33  34
DOCKED: ATOM     34  C   UNL d   1       5.298 -16.448   2.816 -0.22 -0.08    +0.306 C 
DOCKED: ATOM     35  O   UNL d   1       6.349 -16.487   3.434 -0.09 +0.05    -0.251 OA
DOCKED: BRANCH  34  36
DOCKED: ATOM     36  O   UNL d   1       4.165 -16.017   3.398 -0.20 +0.19    -0.481 OA
DOCKED: ATOM     37  H   UNL d   1       3.751 -16.829   3.761 -0.35 -0.14    +0.295 HD
DOCKED: ENDBRANCH  34  36
DOCKED: ENDBRANCH  33  34
DOCKED: ENDBRANCH   7  33
DOCKED: BRANCH  27  38
DOCKED: ATOM     38  C   UNL d   1       0.875 -18.078  -5.151 -0.32 -0.01    +0.017 C 
DOCKED: ATOM     39  C   UNL d   1       1.073 -18.668  -6.339 -0.25 -0.06    +0.092 C 
DOCKED: BRANCH  39  40
DOCKED: ATOM     40  C   UNL d   1       0.371 -18.172  -7.527 -0.22 -0.21    +0.330 C 
DOCKED: ATOM     41  O   UNL d   1       0.676 -17.228  -8.230 -0.28 +0.13    -0.246 OA
DOCKED: BRANCH  40  42
DOCKED: ATOM     42  O   UNL d   1      -0.709 -18.929  -7.774 -0.09 +0.44    -0.477 OA
DOCKED: ATOM     43  H   UNL d   1      -0.658 -19.638  -7.101 -0.46 -0.45    +0.295 HD
DOCKED: ENDBRANCH  40  42
DOCKED: ENDBRANCH  39  40
DOCKED: ENDBRANCH  27  38
DOCKED: BRANCH   8  44
DOCKED: ATOM     44  C   UNL d   1       0.504 -21.947   5.046 -0.03 -0.00    +0.141 C 
DOCKED: BRANCH  44  45
DOCKED: ATOM     45  C   UNL d   1      -0.371 -23.023   5.630 -0.00 -0.00    +0.306 C 
DOCKED: ATOM     46  O   UNL d   1      -0.148 -24.221   5.631 -0.00 +0.00    -0.251 OA
DOCKED: BRANCH  45  47
DOCKED: ATOM     47  O   UNL d   1      -1.504 -22.532   6.164 +0.00 -0.00    -0.481 OA
DOCKED: ATOM     48  H   UNL d   1      -2.190 -22.693   5.481 +0.02 +0.01    +0.295 HD
DOCKED: ENDBRANCH  45  47
DOCKED: ENDBRANCH  44  45
DOCKED: ENDBRANCH   8  44
DOCKED: BRANCH  22  49
DOCKED: ATOM     49  C   UNL d   1      -1.375 -23.133  -4.332 -0.09 -0.01    +0.048 C 
DOCKED: BRANCH  49  50
DOCKED: ATOM     50  C   UNL d   1      -0.122 -23.083  -5.206 -0.04 -0.03    +0.125 C 
DOCKED: BRANCH  50  51
DOCKED: ATOM     51  C   UNL d   1      -0.215 -21.975  -6.216 -0.03 -0.17    +0.305 C 
DOCKED: ATOM     52  O   UNL d   1       0.702 -21.366  -6.738 -0.05 +0.11    -0.251 OA
DOCKED: BRANCH  51  53
DOCKED: ATOM     53  O   UNL d   1      -1.494 -21.674  -6.516 +0.04 +0.44    -0.481 OA
DOCKED: ATOM     54  H   UNL d   1      -1.483 -20.704  -6.660 -0.34 -0.57    +0.295 HD
DOCKED: ENDBRANCH  51  53
DOCKED: ENDBRANCH  50  51
DOCKED: ENDBRANCH  49  50
DOCKED: ENDBRANCH  22  49
DOCKED: TORSDOF 13
DOCKED: TER
DOCKED: ENDMDL
________________________________________________________________________________


	BEGINNING GENETIC ALGORITHM DOCKING 25 of 100
Run: 25 Seed: 2104549323 443322414 [ Run 25 of 100 GA/GALS ]
Beginning LAMARCKIAN GENETIC ALGORITHM (LGA), with a maximum of 25000000 energy evaluations.

Final-Value: -10.964


	FINAL GENETIC ALGORITHM DOCKED STATE
	_______________________________________________


Detailed state:  trans -14.431 -0.715 -4.148 quatxyzw 0.333875 -0.388388 0.848304 -0.134396 center 0.153 0.018 -0.028 ntor 13 -172.6357 12.7879 135.2432 -115.2654 -158.9681 -3.0112 -51.2576 -106.3088 8.3203 -145.1227 -17.5153 -108.7727 -156.4529
State:	-14.431  -0.715  -4.148   0.337 -0.392  0.856 -164.553   -172.64   12.79  135.24 -115.27 -158.97   -3.01  -51.26 -106.31    8.32 -145.12  -17.52 -108.77 -156.45

DOCKED: MODEL       25
DOCKED: USER    Run = 25
DOCKED: USER    DPF = D:/Protein_go_brrr/autodock/final/mut_Y35F/heme/dock.dpf
DOCKED: USER  
DOCKED: USER    Estimated Free Energy of Binding    =   -4.82 kcal/mol  [=(1)+(2)+(3)-(4)]
DOCKED: USER    Estimated Inhibition Constant, Ki   =  291.64 uM (micromolar)  [Temperature = 298.15 K]
DOCKED: USER    
DOCKED: USER    (1) Final Intermolecular Energy     =   -8.70 kcal/mol
DOCKED: USER        vdW + Hbond + desolv Energy     =   -8.27 kcal/mol
DOCKED: USER        Electrostatic Energy            =   -0.43 kcal/mol
DOCKED: USER    (2) Final Total Internal Energy     =   -2.26 kcal/mol
DOCKED: USER    (3) Torsional Free Energy           =   +3.88 kcal/mol
DOCKED: USER    (4) Unbound System's Energy  [=(2)] =   -2.26 kcal/mol
DOCKED: USER    
DOCKED: USER    
DOCKED: USER    NEWDPF move heme_opt.pdbqt
DOCKED: USER    NEWDPF about 0.153000 0.018000 -0.028000
DOCKED: USER    NEWDPF tran0 -14.430595 -0.715081 -4.148133
DOCKED: USER    NEWDPF quaternion0 0.333875 -0.388388 0.848304 -0.134396
DOCKED: USER    NEWDPF axisangle0 0.336932 -0.391944 0.856071 -164.552648
DOCKED: USER    NEWDPF quat0 0.336932 -0.391944 0.856071 -164.552648
DOCKED: USER    NEWDPF dihe0 -172.64 12.79 135.24 -115.27 -158.97 -3.01 -51.26 -106.31 8.32 -145.12 -17.52 -108.77 -156.45 
DOCKED: USER  keepresnum = 1 
DOCKED: USER  
DOCKED: REMARK  13 active torsions:
DOCKED: REMARK  status: ('A' for Active; 'I' for Inactive)
DOCKED: REMARK    1  A    between atoms: O_3  and  C_38 
DOCKED: REMARK    2  A    between atoms: O_4  and  C_40 
DOCKED: REMARK    3  A    between atoms: O_7  and  C_46 
DOCKED: REMARK    4  A    between atoms: O_9  and  C_48 
DOCKED: REMARK    5  A    between atoms: C_15  and  C_20 
DOCKED: REMARK    6  A    between atoms: C_16  and  C_23 
DOCKED: REMARK    7  A    between atoms: C_20  and  C_38 
DOCKED: REMARK    8  A    between atoms: C_23  and  C_40 
DOCKED: REMARK    9  A    between atoms: C_32  and  C_41 
DOCKED: REMARK   10  A    between atoms: C_37  and  C_45 
DOCKED: REMARK   11  A    between atoms: C_41  and  C_44 
DOCKED: REMARK   12  A    between atoms: C_44  and  C_46 
DOCKED: REMARK   13  A    between atoms: C_47  and  C_48 
DOCKED: USER                              x       y       z     vdW  Elec       q    Type
DOCKED: USER                           _______ _______ _______ _____ _____    ______ ____
DOCKED: ROOT
DOCKED: ATOM      1  O   UNL d   1     -10.797  -2.143  -8.566 -0.18 -0.05    -0.289 OA
DOCKED: ATOM      2  O   UNL d   1     -10.830   3.759  -3.923 -0.08 -0.03    -0.289 OA
DOCKED: ATOM      3  N   UNL d   1     -13.241  -1.655  -6.181 -0.11 -0.03    -0.247 NA
DOCKED: ATOM      4  N   UNL d   1     -12.262   0.711  -4.673 -0.13 -0.01    -0.247 NA
DOCKED: ATOM      5  N   UNL d   1     -14.213   0.112  -2.649 -0.09 -0.04    -0.354 N 
DOCKED: ATOM      6  N   UNL d   1     -15.210  -2.352  -4.210 -0.09 -0.05    -0.354 N 
DOCKED: ATOM      7  C   UNL d   1     -12.693  -3.454  -7.753 -0.22 +0.01    +0.084 A 
DOCKED: ATOM      8  C   UNL d   1     -10.791   2.261  -5.859 -0.13 +0.00    +0.084 A 
DOCKED: ATOM      9  C   UNL d   1     -11.566   0.939  -5.839 -0.17 +0.00    +0.058 A 
DOCKED: ATOM     10  C   UNL d   1     -13.596  -2.912  -6.641 -0.20 +0.01    +0.058 A 
DOCKED: ATOM     11  C   UNL d   1     -11.776  -2.273  -7.854 -0.10 +0.03    +0.193 A 
DOCKED: ATOM     12  C   UNL d   1     -12.228  -1.239  -6.869 -0.10 +0.01    +0.109 A 
DOCKED: ATOM     13  C   UNL d   1     -11.147   2.723  -4.473 -0.10 +0.01    +0.193 A 
DOCKED: ATOM     14  C   UNL d   1     -11.884  -4.671  -7.295 -0.36 +0.00    +0.026 C 
DOCKED: ATOM     15  C   UNL d   1     -11.525   0.060  -6.852 -0.17 +0.00    +0.055 C 
DOCKED: ATOM     16  C   UNL d   1     -11.378   3.249  -6.872 -0.06 +0.00    +0.026 C 
DOCKED: ATOM     17  C   UNL d   1     -12.035   1.691  -3.859 -0.17 +0.00    +0.109 A 
DOCKED: ATOM     18  C   UNL d   1     -14.687  -3.586  -6.230 -0.18 +0.01    +0.050 C 
DOCKED: ATOM     19  C   UNL d   1     -15.624  -3.126  -5.270 -0.14 +0.00    +0.045 A 
DOCKED: ATOM     20  C   UNL d   1     -13.490   1.079  -2.000 -0.23 +0.00    +0.045 A 
DOCKED: ATOM     21  C   UNL d   1     -12.511   1.854  -2.477 -0.20 +0.00    +0.057 C 
DOCKED: ATOM     22  C   UNL d   1     -14.998   0.181  -0.539 -0.17 -0.00    -0.019 A 
DOCKED: ATOM     23  C   UNL d   1     -15.148  -0.487  -1.847 -0.15 +0.01    +0.045 A 
DOCKED: ATOM     24  C   UNL d   1     -14.016   1.108  -0.636 -0.23 -0.00    -0.022 A 
DOCKED: ATOM     25  C   UNL d   1     -16.260  -2.096  -3.359 -0.14 +0.01    +0.049 A 
DOCKED: ATOM     26  C   UNL d   1     -16.985  -3.348  -5.124 -0.08 -0.00    -0.018 A 
DOCKED: ATOM     27  C   UNL d   1     -17.385  -2.679  -3.926 -0.09 +0.00    +0.003 A 
DOCKED: ATOM     28  C   UNL d   1     -16.046  -1.448  -2.112 -0.12 +0.02    +0.052 C 
DOCKED: ATOM     29  C   UNL d   1     -13.508   2.041   0.409 -0.25 +0.01    +0.046 C 
DOCKED: ATOM     30  C   UNL d   1     -17.862  -4.131  -6.041 -0.04 +0.00    +0.046 C 
DOCKED: ATOM     31  H   UNL d   1     -14.095  -0.057  -3.642 +0.06 +0.01    +0.166 HD
DOCKED: ATOM     32  H   UNL d   1     -14.250  -2.057  -4.073 +0.06 +0.02    +0.166 HD
DOCKED: ENDROOT
DOCKED: BRANCH   7  33
DOCKED: ATOM     33  C   UNL d   1     -13.387  -3.713  -9.095 -0.10 +0.01    +0.141 C 
DOCKED: BRANCH  33  34
DOCKED: ATOM     34  C   UNL d   1     -14.084  -2.492  -9.631 -0.00 +0.01    +0.306 C 
DOCKED: ATOM     35  O   UNL d   1     -15.287  -2.290  -9.629 -0.00 -0.01    -0.251 OA
DOCKED: BRANCH  34  36
DOCKED: ATOM     36  O   UNL d   1     -13.228  -1.587 -10.139 +0.01 -0.02    -0.481 OA
DOCKED: ATOM     37  H   UNL d   1     -12.351  -2.022 -10.088 +0.05 +0.02    +0.295 HD
DOCKED: ENDBRANCH  34  36
DOCKED: ENDBRANCH  33  34
DOCKED: ENDBRANCH   7  33
DOCKED: BRANCH  27  38
DOCKED: ATOM     38  C   UNL d   1     -18.713  -2.666  -3.393 -0.06 +0.00    +0.017 C 
DOCKED: ATOM     39  C   UNL d   1     -19.114  -3.328  -2.296 -0.08 +0.04    +0.092 C 
DOCKED: BRANCH  39  40
DOCKED: ATOM     40  C   UNL d   1     -20.503  -3.217  -1.843 -0.02 +0.08    +0.330 C 
DOCKED: ATOM     41  O   UNL d   1     -21.379  -2.506  -2.299 -0.00 -0.03    -0.246 OA
DOCKED: BRANCH  40  42
DOCKED: ATOM     42  O   UNL d   1     -20.719  -4.044  -0.810 -0.03 -0.16    -0.477 OA
DOCKED: ATOM     43  H   UNL d   1     -21.694  -4.056  -0.718 +0.02 +0.05    +0.295 HD
DOCKED: ENDBRANCH  40  42
DOCKED: ENDBRANCH  39  40
DOCKED: ENDBRANCH  27  38
DOCKED: BRANCH   8  44
DOCKED: ATOM     44  C   UNL d   1      -9.273   2.135  -6.023 -0.24 -0.01    +0.141 C 
DOCKED: BRANCH  44  45
DOCKED: ATOM     45  C   UNL d   1      -8.605   3.434  -6.387 +0.05 +0.13    +0.306 C 
DOCKED: ATOM     46  O   UNL d   1      -8.320   3.815  -7.509 -0.43 -0.19    -0.251 OA
DOCKED: BRANCH  45  47
DOCKED: ATOM     47  O   UNL d   1      -8.304   4.178  -5.307 -0.76 -0.36    -0.481 OA
DOCKED: ATOM     48  H   UNL d   1      -9.112   4.149  -4.752 +0.12 +0.11    +0.295 HD
DOCKED: ENDBRANCH  45  47
DOCKED: ENDBRANCH  44  45
DOCKED: ENDBRANCH   8  44
DOCKED: BRANCH  22  49
DOCKED: ATOM     49  C   UNL d   1     -15.810  -0.156   0.677 -0.22 +0.01    +0.048 C 
DOCKED: BRANCH  49  50
DOCKED: ATOM     50  C   UNL d   1     -14.931  -0.621   1.838 -0.26 +0.04    +0.125 C 
DOCKED: BRANCH  50  51
DOCKED: ATOM     51  C   UNL d   1     -15.684  -0.565   3.137 -0.28 +0.12    +0.305 C 
DOCKED: ATOM     52  O   UNL d   1     -15.479   0.175   4.083 -0.95 -0.11    -0.251 OA
DOCKED: BRANCH  51  53
DOCKED: ATOM     53  O   UNL d   1     -16.675  -1.477   3.185 -0.35 -0.17    -0.481 OA
DOCKED: ATOM     54  H   UNL d   1     -16.208  -2.338   3.153 -0.35 +0.04    +0.295 HD
DOCKED: ENDBRANCH  51  53
DOCKED: ENDBRANCH  50  51
DOCKED: ENDBRANCH  49  50
DOCKED: ENDBRANCH  22  49
DOCKED: TORSDOF 13
DOCKED: TER
DOCKED: ENDMDL
________________________________________________________________________________


	BEGINNING GENETIC ALGORITHM DOCKING 26 of 100
Run: 26 Seed: 1145374194 614476747 [ Run 26 of 100 GA/GALS ]
Beginning LAMARCKIAN GENETIC ALGORITHM (LGA), with a maximum of 25000000 energy evaluations.

Final-Value: -10.360


	FINAL GENETIC ALGORITHM DOCKED STATE
	_______________________________________________


Detailed state:  trans 3.152 15.422 -10.344 quatxyzw -0.895997 -0.103840 0.115422 -0.416034 center 0.153 0.018 -0.028 ntor 13 -85.5721 -7.1071 -146.9824 149.2463 31.7432 176.1155 128.6140 86.6037 117.3223 -41.4192 175.1216 48.7869 -17.3229
State:	  3.152  15.422 -10.344  -0.985 -0.114  0.127 -130.831    -85.57   -7.11 -146.98  149.25   31.74  176.12  128.61   86.60  117.32  -41.42  175.12   48.79  -17.32

DOCKED: MODEL       26
DOCKED: USER    Run = 26
DOCKED: USER    DPF = D:/Protein_go_brrr/autodock/final/mut_Y35F/heme/dock.dpf
DOCKED: USER  
DOCKED: USER    Estimated Free Energy of Binding    =   -4.01 kcal/mol  [=(1)+(2)+(3)-(4)]
DOCKED: USER    Estimated Inhibition Constant, Ki   =    1.15 mM (millimolar)  [Temperature = 298.15 K]
DOCKED: USER    
DOCKED: USER    (1) Final Intermolecular Energy     =   -7.89 kcal/mol
DOCKED: USER        vdW + Hbond + desolv Energy     =   -7.38 kcal/mol
DOCKED: USER        Electrostatic Energy            =   -0.51 kcal/mol
DOCKED: USER    (2) Final Total Internal Energy     =   -2.47 kcal/mol
DOCKED: USER    (3) Torsional Free Energy           =   +3.88 kcal/mol
DOCKED: USER    (4) Unbound System's Energy  [=(2)] =   -2.47 kcal/mol
DOCKED: USER    
DOCKED: USER    
DOCKED: USER    NEWDPF move heme_opt.pdbqt
DOCKED: USER    NEWDPF about 0.153000 0.018000 -0.028000
DOCKED: USER    NEWDPF tran0 3.151890 15.422182 -10.343771
DOCKED: USER    NEWDPF quaternion0 -0.895997 -0.103840 0.115422 -0.416034
DOCKED: USER    NEWDPF axisangle0 -0.985317 -0.114191 0.126929 -130.831092
DOCKED: USER    NEWDPF quat0 -0.985317 -0.114191 0.126929 -130.831092
DOCKED: USER    NEWDPF dihe0 -85.57 -7.11 -146.98 149.25 31.74 176.12 128.61 86.60 117.32 -41.42 175.12 48.79 -17.32 
DOCKED: USER  keepresnum = 1 
DOCKED: USER  
DOCKED: REMARK  13 active torsions:
DOCKED: REMARK  status: ('A' for Active; 'I' for Inactive)
DOCKED: REMARK    1  A    between atoms: O_3  and  C_38 
DOCKED: REMARK    2  A    between atoms: O_4  and  C_40 
DOCKED: REMARK    3  A    between atoms: O_7  and  C_46 
DOCKED: REMARK    4  A    between atoms: O_9  and  C_48 
DOCKED: REMARK    5  A    between atoms: C_15  and  C_20 
DOCKED: REMARK    6  A    between atoms: C_16  and  C_23 
DOCKED: REMARK    7  A    between atoms: C_20  and  C_38 
DOCKED: REMARK    8  A    between atoms: C_23  and  C_40 
DOCKED: REMARK    9  A    between atoms: C_32  and  C_41 
DOCKED: REMARK   10  A    between atoms: C_37  and  C_45 
DOCKED: REMARK   11  A    between atoms: C_41  and  C_44 
DOCKED: REMARK   12  A    between atoms: C_44  and  C_46 
DOCKED: REMARK   13  A    between atoms: C_47  and  C_48 
DOCKED: USER                              x       y       z     vdW  Elec       q    Type
DOCKED: USER                           _______ _______ _______ _____ _____    ______ ____
DOCKED: ROOT
DOCKED: ATOM      1  O   UNL d   1      -2.227  13.239 -11.374 -0.07 +0.03    -0.289 OA
DOCKED: ATOM      2  O   UNL d   1       0.650  16.597  -5.304 -0.23 +0.12    -0.289 OA
DOCKED: ATOM      3  N   UNL d   1       1.067  14.245 -11.180 -0.20 +0.01    -0.247 NA
DOCKED: ATOM      4  N   UNL d   1       1.184  15.706  -8.595 -0.14 +0.01    -0.247 NA
DOCKED: ATOM      5  N   UNL d   1       3.739  16.746  -9.404 -0.09 -0.07    -0.354 N 
DOCKED: ATOM      6  N   UNL d   1       3.600  15.243 -12.092 -0.12 -0.02    -0.354 N 
DOCKED: ATOM      7  C   UNL d   1      -0.356  13.315 -12.946 -0.15 -0.00    +0.084 A 
DOCKED: ATOM      8  C   UNL d   1      -0.446  15.082  -6.884 -0.19 -0.04    +0.084 A 
DOCKED: ATOM      9  C   UNL d   1       0.076  14.937  -8.318 -0.21 -0.01    +0.058 A 
DOCKED: ATOM     10  C   UNL d   1       1.011  13.846 -12.505 -0.10 -0.00    +0.058 A 
DOCKED: ATOM     11  C   UNL d   1      -1.059  13.467 -11.630 -0.13 -0.02    +0.193 A 
DOCKED: ATOM     12  C   UNL d   1      -0.084  14.016 -10.635 -0.19 -0.01    +0.109 A 
DOCKED: ATOM     13  C   UNL d   1       0.549  16.104  -6.411 -0.14 -0.06    +0.193 A 
DOCKED: ATOM     14  C   UNL d   1      -1.025  14.231 -13.974 -0.06 -0.00    +0.026 C 
DOCKED: ATOM     15  C   UNL d   1      -0.528  14.165  -9.235 -0.26 -0.01    +0.055 C 
DOCKED: ATOM     16  C   UNL d   1      -0.252  13.796  -6.076 -0.45 -0.02    +0.026 C 
DOCKED: ATOM     17  C   UNL d   1       1.476  16.402  -7.544 -0.18 +0.01    +0.109 A 
DOCKED: ATOM     18  C   UNL d   1       2.073  13.828 -13.333 -0.12 -0.00    +0.050 C 
DOCKED: ATOM     19  C   UNL d   1       3.391  14.219 -12.988 -0.10 +0.00    +0.045 A 
DOCKED: ATOM     20  C   UNL d   1       3.516  17.511  -8.289 -0.17 +0.02    +0.045 A 
DOCKED: ATOM     21  C   UNL d   1       2.536  17.408  -7.385 -0.16 +0.02    +0.057 C 
DOCKED: ATOM     22  C   UNL d   1       5.387  18.280  -9.349 -0.09 -0.00    -0.019 A 
DOCKED: ATOM     23  C   UNL d   1       4.847  17.135 -10.109 -0.13 +0.01    +0.045 A 
DOCKED: ATOM     24  C   UNL d   1       4.596  18.497  -8.272 -0.10 -0.01    -0.022 A 
DOCKED: ATOM     25  C   UNL d   1       4.944  15.515 -11.974 -0.19 +0.00    +0.049 A 
DOCKED: ATOM     26  C   UNL d   1       4.631  13.790 -13.435 -0.23 -0.00    -0.018 A 
DOCKED: ATOM     27  C   UNL d   1       5.609  14.598 -12.777 -0.25 +0.00    +0.003 A 
DOCKED: ATOM     28  C   UNL d   1       5.398  16.635 -11.226 -0.15 +0.00    +0.052 C 
DOCKED: ATOM     29  C   UNL d   1       4.735  19.528  -7.204 +0.10 +0.03    +0.046 C 
DOCKED: ATOM     30  C   UNL d   1       4.896  12.695 -14.412 -0.26 +0.00    +0.046 C 
DOCKED: ATOM     31  H   UNL d   1       3.167  15.933  -9.608 +0.04 +0.02    +0.166 HD
DOCKED: ATOM     32  H   UNL d   1       2.852  15.742 -11.627 +0.04 +0.01    +0.166 HD
DOCKED: ENDROOT
DOCKED: BRANCH   7  33
DOCKED: ATOM     33  C   UNL d   1      -0.377  11.851 -13.400 -0.07 -0.01    +0.141 C 
DOCKED: BRANCH  33  34
DOCKED: ATOM     34  C   UNL d   1      -1.770  11.287 -13.473 -0.09 -0.02    +0.306 C 
DOCKED: ATOM     35  O   UNL d   1      -2.532  11.369 -14.422 -0.03 +0.01    -0.251 OA
DOCKED: BRANCH  34  36
DOCKED: ATOM     36  O   UNL d   1      -2.129  10.646 -12.347 -0.06 +0.03    -0.481 OA
DOCKED: ATOM     37  H   UNL d   1      -2.570  11.333 -11.802 +0.08 -0.02    +0.295 HD
DOCKED: ENDBRANCH  34  36
DOCKED: ENDBRANCH  33  34
DOCKED: ENDBRANCH   7  33
DOCKED: BRANCH  27  38
DOCKED: ATOM     38  C   UNL d   1       7.025  14.498 -12.964 -0.24 +0.00    +0.017 C 
DOCKED: ATOM     39  C   UNL d   1       7.859  13.780 -12.196 -0.30 +0.00    +0.092 C 
DOCKED: BRANCH  39  40
DOCKED: ATOM     40  C   UNL d   1       9.290  13.747 -12.506 -0.14 -0.01    +0.330 C 
DOCKED: ATOM     41  O   UNL d   1      10.180  13.230 -11.857 -0.19 +0.02    -0.246 OA
DOCKED: BRANCH  40  42
DOCKED: ATOM     42  O   UNL d   1       9.527  14.382 -13.665 -0.01 +0.02    -0.477 OA
DOCKED: ATOM     43  H   UNL d   1      10.504  14.409 -13.722 +0.04 -0.02    +0.295 HD
DOCKED: ENDBRANCH  40  42
DOCKED: ENDBRANCH  39  40
DOCKED: ENDBRANCH  27  38
DOCKED: BRANCH   8  44
DOCKED: ATOM     44  C   UNL d   1      -1.879  15.609  -6.753 -0.11 -0.09    +0.141 C 
DOCKED: BRANCH  44  45
DOCKED: ATOM     45  C   UNL d   1      -1.952  17.108  -6.633 -0.02 -0.16    +0.306 C 
DOCKED: ATOM     46  O   UNL d   1      -1.955  17.911  -7.550 -0.01 +0.06    -0.251 OA
DOCKED: BRANCH  45  47
DOCKED: ATOM     47  O   UNL d   1      -1.991  17.521  -5.354 -0.01 +0.43    -0.481 OA
DOCKED: ATOM     48  H   UNL d   1      -1.460  16.857  -4.863 -0.45 -0.59    +0.295 HD
DOCKED: ENDBRANCH  45  47
DOCKED: ENDBRANCH  44  45
DOCKED: ENDBRANCH   8  44
DOCKED: BRANCH  22  49
DOCKED: ATOM     49  C   UNL d   1       6.606  19.057  -9.750 -0.04 +0.01    +0.048 C 
DOCKED: BRANCH  49  50
DOCKED: ATOM     50  C   UNL d   1       7.837  18.639  -8.947 -0.06 +0.01    +0.125 C 
DOCKED: BRANCH  50  51
DOCKED: ATOM     51  C   UNL d   1       7.475  17.626  -7.899 -0.14 +0.10    +0.305 C 
DOCKED: ATOM     52  O   UNL d   1       7.308  16.428  -8.049 -0.28 -0.08    -0.251 OA
DOCKED: BRANCH  51  53
DOCKED: ATOM     53  O   UNL d   1       7.325  18.189  -6.683 -0.65 -0.32    -0.481 OA
DOCKED: ATOM     54  H   UNL d   1       7.951  18.943  -6.691 +0.06 +0.10    +0.295 HD
DOCKED: ENDBRANCH  51  53
DOCKED: ENDBRANCH  50  51
DOCKED: ENDBRANCH  49  50
DOCKED: ENDBRANCH  22  49
DOCKED: TORSDOF 13
DOCKED: TER
DOCKED: ENDMDL
________________________________________________________________________________


	BEGINNING GENETIC ALGORITHM DOCKING 27 of 100
Run: 27 Seed: 2056522918 1619486479 [ Run 27 of 100 GA/GALS ]
Beginning LAMARCKIAN GENETIC ALGORITHM (LGA), with a maximum of 25000000 energy evaluations.

Final-Value: -12.741


	FINAL GENETIC ALGORITHM DOCKED STATE
	_______________________________________________


Detailed state:  trans 3.716 -16.180 -8.577 quatxyzw -0.559710 -0.299634 -0.000747 -0.772622 center 0.153 0.018 -0.028 ntor 13 144.6773 117.1903 -166.2530 168.0695 -137.2012 105.5548 -74.7366 31.6573 19.6759 -148.9082 104.7447 -100.0297 56.1679
State:	  3.716 -16.180  -8.577  -0.882 -0.472 -0.001 -78.820    144.68  117.19 -166.25  168.07 -137.20  105.55  -74.74   31.66   19.68 -148.91  104.74 -100.03   56.17

DOCKED: MODEL       27
DOCKED: USER    Run = 27
DOCKED: USER    DPF = D:/Protein_go_brrr/autodock/final/mut_Y35F/heme/dock.dpf
DOCKED: USER  
DOCKED: USER    Estimated Free Energy of Binding    =   -5.67 kcal/mol  [=(1)+(2)+(3)-(4)]
DOCKED: USER    Estimated Inhibition Constant, Ki   =   69.66 uM (micromolar)  [Temperature = 298.15 K]
DOCKED: USER    
DOCKED: USER    (1) Final Intermolecular Energy     =   -9.55 kcal/mol
DOCKED: USER        vdW + Hbond + desolv Energy     =   -8.45 kcal/mol
DOCKED: USER        Electrostatic Energy            =   -1.09 kcal/mol
DOCKED: USER    (2) Final Total Internal Energy     =   -3.19 kcal/mol
DOCKED: USER    (3) Torsional Free Energy           =   +3.88 kcal/mol
DOCKED: USER    (4) Unbound System's Energy  [=(2)] =   -3.19 kcal/mol
DOCKED: USER    
DOCKED: USER    
DOCKED: USER    NEWDPF move heme_opt.pdbqt
DOCKED: USER    NEWDPF about 0.153000 0.018000 -0.028000
DOCKED: USER    NEWDPF tran0 3.715673 -16.180190 -8.577409
DOCKED: USER    NEWDPF quaternion0 -0.559710 -0.299634 -0.000747 -0.772622
DOCKED: USER    NEWDPF axisangle0 -0.881618 -0.471963 -0.001176 -78.820216
DOCKED: USER    NEWDPF quat0 -0.881618 -0.471963 -0.001176 -78.820216
DOCKED: USER    NEWDPF dihe0 144.68 117.19 -166.25 168.07 -137.20 105.55 -74.74 31.66 19.68 -148.91 104.74 -100.03 56.17 
DOCKED: USER  keepresnum = 1 
DOCKED: USER  
DOCKED: REMARK  13 active torsions:
DOCKED: REMARK  status: ('A' for Active; 'I' for Inactive)
DOCKED: REMARK    1  A    between atoms: O_3  and  C_38 
DOCKED: REMARK    2  A    between atoms: O_4  and  C_40 
DOCKED: REMARK    3  A    between atoms: O_7  and  C_46 
DOCKED: REMARK    4  A    between atoms: O_9  and  C_48 
DOCKED: REMARK    5  A    between atoms: C_15  and  C_20 
DOCKED: REMARK    6  A    between atoms: C_16  and  C_23 
DOCKED: REMARK    7  A    between atoms: C_20  and  C_38 
DOCKED: REMARK    8  A    between atoms: C_23  and  C_40 
DOCKED: REMARK    9  A    between atoms: C_32  and  C_41 
DOCKED: REMARK   10  A    between atoms: C_37  and  C_45 
DOCKED: REMARK   11  A    between atoms: C_41  and  C_44 
DOCKED: REMARK   12  A    between atoms: C_44  and  C_46 
DOCKED: REMARK   13  A    between atoms: C_47  and  C_48 
DOCKED: USER                              x       y       z     vdW  Elec       q    Type
DOCKED: USER                           _______ _______ _______ _____ _____    ______ ____
DOCKED: ROOT
DOCKED: ATOM      1  O   UNL d   1      -0.619 -16.864 -12.514 -0.20 -0.05    -0.289 OA
DOCKED: ATOM      2  O   UNL d   1       0.635 -20.244  -5.927 -0.07 +0.25    -0.289 OA
DOCKED: ATOM      3  N   UNL d   1       2.169 -16.224 -10.587 -0.17 +0.08    -0.247 NA
DOCKED: ATOM      4  N   UNL d   1       1.644 -17.758  -8.097 -0.14 +0.11    -0.247 NA
DOCKED: ATOM      5  N   UNL d   1       3.791 -16.301  -6.857 +0.04 +0.17    -0.354 N 
DOCKED: ATOM      6  N   UNL d   1       4.315 -14.701  -9.439 -0.14 +0.15    -0.354 N 
DOCKED: ATOM      7  C   UNL d   1       1.235 -15.276 -12.645 -0.18 -0.01    +0.084 A 
DOCKED: ATOM      8  C   UNL d   1       0.182 -19.708  -8.272 -0.14 -0.04    +0.084 A 
DOCKED: ATOM      9  C   UNL d   1       0.819 -18.479  -8.930 -0.20 -0.02    +0.058 A 
DOCKED: ATOM     10  C   UNL d   1       2.332 -15.270 -11.577 -0.20 -0.02    +0.058 A 
DOCKED: ATOM     11  C   UNL d   1       0.432 -16.416 -12.094 -0.13 -0.01    +0.193 A 
DOCKED: ATOM     12  C   UNL d   1       1.115 -16.922 -10.861 -0.22 -0.02    +0.109 A 
DOCKED: ATOM     13  C   UNL d   1       0.769 -19.529  -6.900 -0.07 -0.14    +0.193 A 
DOCKED: ATOM     14  C   UNL d   1       0.383 -14.005 -12.602 -0.21 -0.01    +0.026 C 
DOCKED: ATOM     15  C   UNL d   1       0.552 -18.112 -10.193 -0.24 -0.01    +0.055 C 
DOCKED: ATOM     16  C   UNL d   1       0.715 -21.013  -8.870 -0.06 -0.01    +0.026 C 
DOCKED: ATOM     17  C   UNL d   1       1.630 -18.308  -6.925 -0.20 -0.05    +0.109 A 
DOCKED: ATOM     18  C   UNL d   1       3.399 -14.454 -11.669 -0.14 -0.02    +0.050 C 
DOCKED: ATOM     19  C   UNL d   1       4.501 -14.436 -10.777 -0.26 -0.02    +0.045 A 
DOCKED: ATOM     20  C   UNL d   1       3.263 -16.925  -5.756 -0.23 -0.02    +0.045 A 
DOCKED: ATOM     21  C   UNL d   1       2.306 -17.857  -5.700 -0.25 -0.02    +0.057 C 
DOCKED: ATOM     22  C   UNL d   1       4.864 -15.447  -5.071 -0.27 +0.01    -0.019 A 
DOCKED: ATOM     23  C   UNL d   1       4.765 -15.392  -6.543 -0.24 -0.02    +0.045 A 
DOCKED: ATOM     24  C   UNL d   1       3.974 -16.358  -4.611 -0.26 +0.01    -0.022 A 
DOCKED: ATOM     25  C   UNL d   1       5.494 -14.541  -8.747 -0.25 -0.02    +0.049 A 
DOCKED: ATOM     26  C   UNL d   1       5.840 -14.132 -10.965 -0.18 +0.01    -0.018 A 
DOCKED: ATOM     27  C   UNL d   1       6.466 -14.220  -9.683 -0.17 -0.00    +0.003 A 
DOCKED: ATOM     28  C   UNL d   1       5.520 -14.607  -7.327 -0.21 -0.02    +0.052 C 
DOCKED: ATOM     29  C   UNL d   1       3.709 -16.776  -3.205 -0.29 -0.01    +0.046 C 
DOCKED: ATOM     30  C   UNL d   1       6.501 -13.785 -12.256 -0.13 -0.01    +0.046 C 
DOCKED: ATOM     31  H   UNL d   1       3.519 -16.572  -7.796 -0.31 -0.09    +0.166 HD
DOCKED: ATOM     32  H   UNL d   1       3.418 -14.938  -9.034 -0.40 -0.11    +0.166 HD
DOCKED: ENDROOT
DOCKED: BRANCH   7  33
DOCKED: ATOM     33  C   UNL d   1       1.707 -15.589 -14.069 -0.06 -0.01    +0.141 C 
DOCKED: BRANCH  33  34
DOCKED: ATOM     34  C   UNL d   1       2.191 -17.006 -14.221 +0.00 -0.01    +0.306 C 
DOCKED: ATOM     35  O   UNL d   1       3.303 -17.421 -13.941 -0.00 +0.01    -0.251 OA
DOCKED: BRANCH  34  36
DOCKED: ATOM     36  O   UNL d   1       1.247 -17.826 -14.715 +0.01 -0.03    -0.481 OA
DOCKED: ATOM     37  H   UNL d   1       0.413 -17.522 -14.298 +0.05 +0.03    +0.295 HD
DOCKED: ENDBRANCH  34  36
DOCKED: ENDBRANCH  33  34
DOCKED: ENDBRANCH   7  33
DOCKED: BRANCH  27  38
DOCKED: ATOM     38  C   UNL d   1       7.851 -13.966  -9.422 -0.12 -0.01    +0.017 C 
DOCKED: ATOM     39  C   UNL d   1       8.324 -12.983  -8.641 -0.17 -0.08    +0.092 C 
DOCKED: BRANCH  39  40
DOCKED: ATOM     40  C   UNL d   1       9.769 -12.841  -8.441 -0.01 -0.34    +0.330 C 
DOCKED: ATOM     41  O   UNL d   1      10.514 -12.024  -8.949 -0.06 +0.19    -0.246 OA
DOCKED: BRANCH  40  42
DOCKED: ATOM     42  O   UNL d   1      10.208 -13.766  -7.573 +0.00 +0.60    -0.477 OA
DOCKED: ATOM     43  H   UNL d   1       9.740 -13.547  -6.741 -0.52 -0.71    +0.295 HD
DOCKED: ENDBRANCH  40  42
DOCKED: ENDBRANCH  39  40
DOCKED: ENDBRANCH  27  38
DOCKED: BRANCH   8  44
DOCKED: ATOM     44  C   UNL d   1      -1.350 -19.708  -8.217 -0.09 -0.10    +0.141 C 
DOCKED: BRANCH  44  45
DOCKED: ATOM     45  C   UNL d   1      -1.936 -21.075  -7.985 -0.06 -0.16    +0.306 C 
DOCKED: ATOM     46  O   UNL d   1      -2.684 -21.682  -8.732 -0.09 +0.04    -0.251 OA
DOCKED: BRANCH  45  47
DOCKED: ATOM     47  O   UNL d   1      -1.567 -21.599  -6.802 -0.01 +0.42    -0.481 OA
DOCKED: ATOM     48  H   UNL d   1      -1.174 -20.847  -6.309 -0.33 -0.60    +0.295 HD
DOCKED: ENDBRANCH  45  47
DOCKED: ENDBRANCH  44  45
DOCKED: ENDBRANCH   8  44
DOCKED: BRANCH  22  49
DOCKED: ATOM     49  C   UNL d   1       5.801 -14.604  -4.257 -0.26 -0.02    +0.048 C 
DOCKED: BRANCH  49  50
DOCKED: ATOM     50  C   UNL d   1       7.045 -14.206  -5.052 -0.03 -0.12    +0.125 C 
DOCKED: BRANCH  50  51
DOCKED: ATOM     51  C   UNL d   1       7.982 -15.371  -5.200 -0.09 -0.26    +0.305 C 
DOCKED: ATOM     52  O   UNL d   1       7.703 -16.557  -5.172 -0.03 +0.12    -0.251 OA
DOCKED: BRANCH  51  53
DOCKED: ATOM     53  O   UNL d   1       9.259 -14.973  -5.367 -0.06 +0.66    -0.481 OA
DOCKED: ATOM     54  H   UNL d   1       9.187 -14.012  -5.547 -0.44 -0.75    +0.295 HD
DOCKED: ENDBRANCH  51  53
DOCKED: ENDBRANCH  50  51
DOCKED: ENDBRANCH  49  50
DOCKED: ENDBRANCH  22  49
DOCKED: TORSDOF 13
DOCKED: TER
DOCKED: ENDMDL
________________________________________________________________________________


	BEGINNING GENETIC ALGORITHM DOCKING 28 of 100
Run: 28 Seed: 729442205 1315034215 [ Run 28 of 100 GA/GALS ]
Beginning LAMARCKIAN GENETIC ALGORITHM (LGA), with a maximum of 25000000 energy evaluations.

Final-Value: -12.921


	FINAL GENETIC ALGORITHM DOCKED STATE
	_______________________________________________


Detailed state:  trans 3.416 -17.518 -6.292 quatxyzw -0.286653 0.609171 0.689777 0.266361 center 0.153 0.018 -0.028 ntor 13 104.3621 -160.0677 -121.0502 180.0000 -137.8173 49.6087 122.8006 -100.1008 25.0939 -22.9665 -59.8651 -137.4807 -166.4419
State:	  3.416 -17.518  -6.292  -0.297  0.632  0.716 149.104    104.36 -160.07 -121.05  180.00 -137.82   49.61  122.80 -100.10   25.09  -22.97  -59.87 -137.48 -166.44

DOCKED: MODEL       28
DOCKED: USER    Run = 28
DOCKED: USER    DPF = D:/Protein_go_brrr/autodock/final/mut_Y35F/heme/dock.dpf
DOCKED: USER  
DOCKED: USER    Estimated Free Energy of Binding    =   -6.51 kcal/mol  [=(1)+(2)+(3)-(4)]
DOCKED: USER    Estimated Inhibition Constant, Ki   =   16.99 uM (micromolar)  [Temperature = 298.15 K]
DOCKED: USER    
DOCKED: USER    (1) Final Intermolecular Energy     =  -10.39 kcal/mol
DOCKED: USER        vdW + Hbond + desolv Energy     =   -9.94 kcal/mol
DOCKED: USER        Electrostatic Energy            =   -0.44 kcal/mol
DOCKED: USER    (2) Final Total Internal Energy     =   -2.54 kcal/mol
DOCKED: USER    (3) Torsional Free Energy           =   +3.88 kcal/mol
DOCKED: USER    (4) Unbound System's Energy  [=(2)] =   -2.54 kcal/mol
DOCKED: USER    
DOCKED: USER    
DOCKED: USER    NEWDPF move heme_opt.pdbqt
DOCKED: USER    NEWDPF about 0.153000 0.018000 -0.028000
DOCKED: USER    NEWDPF tran0 3.415851 -17.518032 -6.291857
DOCKED: USER    NEWDPF quaternion0 -0.286653 0.609171 0.689777 0.266361
DOCKED: USER    NEWDPF axisangle0 -0.297397 0.632003 0.715630 149.104364
DOCKED: USER    NEWDPF quat0 -0.297397 0.632003 0.715630 149.104364
DOCKED: USER    NEWDPF dihe0 104.36 -160.07 -121.05 180.00 -137.82 49.61 122.80 -100.10 25.09 -22.97 -59.87 -137.48 -166.44 
DOCKED: USER  keepresnum = 1 
DOCKED: USER  
DOCKED: REMARK  13 active torsions:
DOCKED: REMARK  status: ('A' for Active; 'I' for Inactive)
DOCKED: REMARK    1  A    between atoms: O_3  and  C_38 
DOCKED: REMARK    2  A    between atoms: O_4  and  C_40 
DOCKED: REMARK    3  A    between atoms: O_7  and  C_46 
DOCKED: REMARK    4  A    between atoms: O_9  and  C_48 
DOCKED: REMARK    5  A    between atoms: C_15  and  C_20 
DOCKED: REMARK    6  A    between atoms: C_16  and  C_23 
DOCKED: REMARK    7  A    between atoms: C_20  and  C_38 
DOCKED: REMARK    8  A    between atoms: C_23  and  C_40 
DOCKED: REMARK    9  A    between atoms: C_32  and  C_41 
DOCKED: REMARK   10  A    between atoms: C_37  and  C_45 
DOCKED: REMARK   11  A    between atoms: C_41  and  C_44 
DOCKED: REMARK   12  A    between atoms: C_44  and  C_46 
DOCKED: REMARK   13  A    between atoms: C_47  and  C_48 
DOCKED: USER                              x       y       z     vdW  Elec       q    Type
DOCKED: USER                           _______ _______ _______ _____ _____    ______ ____
DOCKED: ROOT
DOCKED: ATOM      1  O   UNL d   1       6.873 -13.247  -4.156 -0.38 +0.34    -0.289 OA
DOCKED: ATOM      2  O   UNL d   1       6.308 -16.138 -11.064 -0.01 +0.06    -0.289 OA
DOCKED: ATOM      3  N   UNL d   1       4.768 -15.872  -4.916 -0.15 +0.08    -0.247 NA
DOCKED: ATOM      4  N   UNL d   1       5.002 -16.101  -7.869 -0.10 +0.09    -0.247 NA
DOCKED: ATOM      5  N   UNL d   1       2.681 -17.797  -7.828 -0.05 +0.14    -0.354 N 
DOCKED: ATOM      6  N   UNL d   1       2.434 -17.538  -4.767 -0.11 +0.12    -0.354 N 
DOCKED: ATOM      7  C   UNL d   1       5.162 -14.490  -2.930 -0.39 -0.03    +0.084 A 
DOCKED: ATOM      8  C   UNL d   1       7.076 -15.310  -8.892 -0.06 -0.03    +0.084 A 
DOCKED: ATOM      9  C   UNL d   1       6.201 -15.464  -7.643 -0.15 -0.02    +0.058 A 
DOCKED: ATOM     10  C   UNL d   1       4.393 -15.630  -3.605 -0.29 -0.02    +0.058 A 
DOCKED: ATOM     11  C   UNL d   1       6.051 -14.142  -4.086 +0.02 -0.10    +0.193 A 
DOCKED: ATOM     12  C   UNL d   1       5.734 -15.067  -5.221 -0.14 -0.04    +0.109 A 
DOCKED: ATOM     13  C   UNL d   1       6.135 -15.945  -9.876 -0.02 -0.05    +0.193 A 
DOCKED: ATOM     14  C   UNL d   1       4.259 -13.292  -2.622 -0.67 -0.00    +0.026 C 
DOCKED: ATOM     15  C   UNL d   1       6.554 -14.972  -6.445 -0.20 -0.03    +0.055 C 
DOCKED: ATOM     16  C   UNL d   1       8.345 -16.163  -8.804 -0.03 -0.01    +0.026 C 
DOCKED: ATOM     17  C   UNL d   1       4.912 -16.375  -9.131 -0.10 -0.03    +0.109 A 
DOCKED: ATOM     18  C   UNL d   1       3.500 -16.374  -2.926 -0.30 -0.02    +0.050 C 
DOCKED: ATOM     19  C   UNL d   1       2.805 -17.498  -3.442 -0.24 -0.01    +0.045 A 
DOCKED: ATOM     20  C   UNL d   1       2.806 -17.602  -9.179 -0.12 -0.01    +0.045 A 
DOCKED: ATOM     21  C   UNL d   1       3.790 -16.995  -9.851 -0.12 -0.02    +0.057 C 
DOCKED: ATOM     22  C   UNL d   1       0.857 -18.722  -8.773 -0.19 +0.01    -0.019 A 
DOCKED: ATOM     23  C   UNL d   1       1.535 -18.464  -7.487 -0.20 -0.02    +0.045 A 
DOCKED: ATOM     24  C   UNL d   1       1.615 -18.210  -9.771 -0.15 +0.01    -0.022 A 
DOCKED: ATOM     25  C   UNL d   1       1.697 -18.669  -5.028 -0.21 -0.02    +0.049 A 
DOCKED: ATOM     26  C   UNL d   1       2.329 -18.650  -2.835 -0.24 +0.00    -0.018 A 
DOCKED: ATOM     27  C   UNL d   1       1.647 -19.395  -3.846 -0.21 -0.00    +0.003 A 
DOCKED: ATOM     28  C   UNL d   1       1.069 -18.855  -6.290 -0.23 -0.04    +0.052 C 
DOCKED: ATOM     29  C   UNL d   1       1.360 -18.229 -11.240 -0.11 -0.00    +0.046 C 
DOCKED: ATOM     30  C   UNL d   1       2.498 -19.039  -1.406 -0.22 -0.00    +0.046 C 
DOCKED: ATOM     31  H   UNL d   1       3.421 -17.532  -7.188 +0.02 -0.06    +0.166 HD
DOCKED: ATOM     32  H   UNL d   1       2.649 -16.804  -5.431 +0.04 -0.07    +0.166 HD
DOCKED: ENDROOT
DOCKED: BRANCH   7  33
DOCKED: ATOM     33  C   UNL d   1       5.998 -14.892  -1.711 -0.20 -0.04    +0.141 C 
DOCKED: BRANCH  33  34
DOCKED: ATOM     34  C   UNL d   1       7.232 -15.668  -2.085 -0.12 -0.12    +0.306 C 
DOCKED: ATOM     35  O   UNL d   1       7.291 -16.867  -2.300 -0.06 +0.08    -0.251 OA
DOCKED: BRANCH  34  36
DOCKED: ATOM     36  O   UNL d   1       8.326 -14.891  -2.172 -0.54 +0.33    -0.481 OA
DOCKED: ATOM     37  H   UNL d   1       8.242 -14.442  -3.040 -0.42 -0.47    +0.295 HD
DOCKED: ENDBRANCH  34  36
DOCKED: ENDBRANCH  33  34
DOCKED: ENDBRANCH   7  33
DOCKED: BRANCH  27  38
DOCKED: ATOM     38  C   UNL d   1       0.989 -20.650  -3.643 -0.18 -0.00    +0.017 C 
DOCKED: ATOM     39  C   UNL d   1      -0.228 -20.808  -3.100 -0.17 +0.00    +0.092 C 
DOCKED: BRANCH  39  40
DOCKED: ATOM     40  C   UNL d   1      -0.799 -22.150  -2.964 -0.11 +0.06    +0.330 C 
DOCKED: ATOM     41  O   UNL d   1      -0.260 -23.146  -2.520 -0.05 -0.03    -0.246 OA
DOCKED: BRANCH  40  42
DOCKED: ATOM     42  O   UNL d   1      -2.067 -22.160  -3.403 -0.33 -0.08    -0.477 OA
DOCKED: ATOM     43  H   UNL d   1      -2.124 -21.365  -3.972 -0.15 -0.18    +0.295 HD
DOCKED: ENDBRANCH  40  42
DOCKED: ENDBRANCH  39  40
DOCKED: ENDBRANCH  27  38
DOCKED: BRANCH   8  44
DOCKED: ATOM     44  C   UNL d   1       7.403 -13.869  -9.296 -0.13 -0.07    +0.141 C 
DOCKED: BRANCH  44  45
DOCKED: ATOM     45  C   UNL d   1       6.227 -13.137  -9.886 -0.21 -0.14    +0.306 C 
DOCKED: ATOM     46  O   UNL d   1       5.300 -12.637  -9.273 -0.40 +0.13    -0.251 OA
DOCKED: BRANCH  45  47
DOCKED: ATOM     47  O   UNL d   1       6.268 -13.096 -11.230 -0.08 +0.16    -0.481 OA
DOCKED: ATOM     48  H   UNL d   1       6.292 -14.036 -11.506 +0.07 -0.08    +0.295 HD
DOCKED: ENDBRANCH  45  47
DOCKED: ENDBRANCH  44  45
DOCKED: ENDBRANCH   8  44
DOCKED: BRANCH  22  49
DOCKED: ATOM     49  C   UNL d   1      -0.463 -19.424  -8.904 -0.24 -0.02    +0.048 C 
DOCKED: BRANCH  49  50
DOCKED: ATOM     50  C   UNL d   1      -1.575 -18.469  -9.338 -0.28 -0.03    +0.125 C 
DOCKED: BRANCH  50  51
DOCKED: ATOM     51  C   UNL d   1      -2.195 -18.920 -10.630 -0.17 +0.06    +0.305 C 
DOCKED: ATOM     52  O   UNL d   1      -2.054 -18.426 -11.735 -0.84 -0.11    -0.251 OA
DOCKED: BRANCH  51  53
DOCKED: ATOM     53  O   UNL d   1      -2.995 -19.991 -10.458 -0.15 -0.09    -0.481 OA
DOCKED: ATOM     54  H   UNL d   1      -2.934 -20.182  -9.498 +0.10 -0.01    +0.295 HD
DOCKED: ENDBRANCH  51  53
DOCKED: ENDBRANCH  50  51
DOCKED: ENDBRANCH  49  50
DOCKED: ENDBRANCH  22  49
DOCKED: TORSDOF 13
DOCKED: TER
DOCKED: ENDMDL
________________________________________________________________________________


	BEGINNING GENETIC ALGORITHM DOCKING 29 of 100
Run: 29 Seed: 424598685 969247680 [ Run 29 of 100 GA/GALS ]
Beginning LAMARCKIAN GENETIC ALGORITHM (LGA), with a maximum of 25000000 energy evaluations.

Final-Value: -12.743


	FINAL GENETIC ALGORITHM DOCKED STATE
	_______________________________________________


Detailed state:  trans 11.631 13.633 -10.306 quatxyzw -0.332046 0.808588 0.308224 -0.375405 center 0.153 0.018 -0.028 ntor 13 -80.7021 -148.9391 78.5453 7.8749 29.6290 -94.1121 -57.1993 2.5163 120.9245 -131.4072 -67.7177 2.1189 6.6585
State:	 11.631  13.633 -10.306  -0.358  0.872  0.333 -135.901    -80.70 -148.94   78.55    7.87   29.63  -94.11  -57.20    2.52  120.92 -131.41  -67.72    2.12    6.66

DOCKED: MODEL       29
DOCKED: USER    Run = 29
DOCKED: USER    DPF = D:/Protein_go_brrr/autodock/final/mut_Y35F/heme/dock.dpf
DOCKED: USER  
DOCKED: USER    Estimated Free Energy of Binding    =   -4.45 kcal/mol  [=(1)+(2)+(3)-(4)]
DOCKED: USER    Estimated Inhibition Constant, Ki   =  543.22 uM (micromolar)  [Temperature = 298.15 K]
DOCKED: USER    
DOCKED: USER    (1) Final Intermolecular Energy     =   -8.33 kcal/mol
DOCKED: USER        vdW + Hbond + desolv Energy     =   -8.26 kcal/mol
DOCKED: USER        Electrostatic Energy            =   -0.07 kcal/mol
DOCKED: USER    (2) Final Total Internal Energy     =   -4.41 kcal/mol
DOCKED: USER    (3) Torsional Free Energy           =   +3.88 kcal/mol
DOCKED: USER    (4) Unbound System's Energy  [=(2)] =   -4.41 kcal/mol
DOCKED: USER    
DOCKED: USER    
DOCKED: USER    NEWDPF move heme_opt.pdbqt
DOCKED: USER    NEWDPF about 0.153000 0.018000 -0.028000
DOCKED: USER    NEWDPF tran0 11.631068 13.632726 -10.305514
DOCKED: USER    NEWDPF quaternion0 -0.332046 0.808588 0.308224 -0.375405
DOCKED: USER    NEWDPF axisangle0 -0.358248 0.872394 0.332547 -135.901337
DOCKED: USER    NEWDPF quat0 -0.358248 0.872394 0.332547 -135.901337
DOCKED: USER    NEWDPF dihe0 -80.70 -148.94 78.55 7.87 29.63 -94.11 -57.20 2.52 120.92 -131.41 -67.72 2.12 6.66 
DOCKED: USER  keepresnum = 1 
DOCKED: USER  
DOCKED: REMARK  13 active torsions:
DOCKED: REMARK  status: ('A' for Active; 'I' for Inactive)
DOCKED: REMARK    1  A    between atoms: O_3  and  C_38 
DOCKED: REMARK    2  A    between atoms: O_4  and  C_40 
DOCKED: REMARK    3  A    between atoms: O_7  and  C_46 
DOCKED: REMARK    4  A    between atoms: O_9  and  C_48 
DOCKED: REMARK    5  A    between atoms: C_15  and  C_20 
DOCKED: REMARK    6  A    between atoms: C_16  and  C_23 
DOCKED: REMARK    7  A    between atoms: C_20  and  C_38 
DOCKED: REMARK    8  A    between atoms: C_23  and  C_40 
DOCKED: REMARK    9  A    between atoms: C_32  and  C_41 
DOCKED: REMARK   10  A    between atoms: C_37  and  C_45 
DOCKED: REMARK   11  A    between atoms: C_41  and  C_44 
DOCKED: REMARK   12  A    between atoms: C_44  and  C_46 
DOCKED: REMARK   13  A    between atoms: C_47  and  C_48 
DOCKED: USER                              x       y       z     vdW  Elec       q    Type
DOCKED: USER                           _______ _______ _______ _____ _____    ______ ____
DOCKED: ROOT
DOCKED: ATOM      1  O   UNL d   1      13.386  16.827  -5.672 -0.09 +0.29    -0.289 OA
DOCKED: ATOM      2  O   UNL d   1      16.042  10.407  -8.522 -0.31 +0.08    -0.289 OA
DOCKED: ATOM      3  N   UNL d   1      11.927  15.232  -8.359 -0.08 +0.04    -0.247 NA
DOCKED: ATOM      4  N   UNL d   1      13.809  13.006  -8.936 -0.11 +0.07    -0.247 NA
DOCKED: ATOM      5  N   UNL d   1      12.460  12.639 -11.448 -0.07 +0.08    -0.354 N 
DOCKED: ATOM      6  N   UNL d   1      10.524  14.962 -10.850 -0.03 +0.03    -0.354 N 
DOCKED: ATOM      7  C   UNL d   1      11.571  17.371  -7.217 -0.10 -0.02    +0.084 A 
DOCKED: ATOM      8  C   UNL d   1      15.172  12.185  -7.082 -0.27 -0.02    +0.084 A 
DOCKED: ATOM      9  C   UNL d   1      14.163  13.205  -7.621 -0.22 -0.02    +0.058 A 
DOCKED: ATOM     10  C   UNL d   1      11.182  16.399  -8.334 -0.11 -0.01    +0.058 A 
DOCKED: ATOM     11  C   UNL d   1      12.657  16.539  -6.603 -0.13 -0.08    +0.193 A 
DOCKED: ATOM     12  C   UNL d   1      12.759  15.256  -7.369 -0.17 -0.03    +0.109 A 
DOCKED: ATOM     13  C   UNL d   1      15.354  11.394  -8.346 -0.25 -0.06    +0.193 A 
DOCKED: ATOM     14  C   UNL d   1      12.186  18.661  -7.766 -0.04 -0.00    +0.026 C 
DOCKED: ATOM     15  C   UNL d   1      13.706  14.231  -6.887 -0.29 -0.02    +0.055 C 
DOCKED: ATOM     16  C   UNL d   1      14.549  11.277  -6.018 -0.53 -0.01    +0.026 C 
DOCKED: ATOM     17  C   UNL d   1      14.479  11.998  -9.396 -0.14 -0.04    +0.109 A 
DOCKED: ATOM     18  C   UNL d   1      10.139  16.645  -9.149 -0.12 -0.00    +0.050 C 
DOCKED: ATOM     19  C   UNL d   1       9.653  15.768 -10.152 -0.14 -0.00    +0.045 A 
DOCKED: ATOM     20  C   UNL d   1      13.538  11.815 -11.638 -0.18 -0.01    +0.045 A 
DOCKED: ATOM     21  C   UNL d   1      14.481  11.453 -10.762 -0.22 -0.02    +0.057 C 
DOCKED: ATOM     22  C   UNL d   1      12.368  11.961 -13.594 -0.11 +0.00    -0.019 A 
DOCKED: ATOM     23  C   UNL d   1      11.694  12.789 -12.574 -0.14 -0.01    +0.045 A 
DOCKED: ATOM     24  C   UNL d   1      13.458  11.386 -13.034 -0.18 +0.00    -0.022 A 
DOCKED: ATOM     25  C   UNL d   1       9.856  14.265 -11.830 -0.18 -0.00    +0.049 A 
DOCKED: ATOM     26  C   UNL d   1       8.383  15.563 -10.667 -0.20 -0.00    -0.018 A 
DOCKED: ATOM     27  C   UNL d   1       8.514  14.598 -11.713 -0.24 +0.00    +0.003 A 
DOCKED: ATOM     28  C   UNL d   1      10.566  13.486 -12.783 -0.15 -0.00    +0.052 C 
DOCKED: ATOM     29  C   UNL d   1      14.447  10.459 -13.655 -0.20 -0.01    +0.046 C 
DOCKED: ATOM     30  C   UNL d   1       7.122  16.219 -10.215 -0.16 +0.01    +0.046 C 
DOCKED: ATOM     31  H   UNL d   1      12.240  13.015 -10.532 +0.06 -0.04    +0.166 HD
DOCKED: ATOM     32  H   UNL d   1      11.521  14.933 -10.677 +0.04 -0.02    +0.166 HD
DOCKED: ENDROOT
DOCKED: BRANCH   7  33
DOCKED: ATOM     33  C   UNL d   1      10.474  17.665  -6.189 -0.06 -0.01    +0.141 C 
DOCKED: BRANCH  33  34
DOCKED: ATOM     34  C   UNL d   1      10.992  18.398  -4.981 -0.11 -0.12    +0.306 C 
DOCKED: ATOM     35  O   UNL d   1      11.154  19.603  -4.885 -0.05 +0.08    -0.251 OA
DOCKED: BRANCH  34  36
DOCKED: ATOM     36  O   UNL d   1      11.276  17.574  -3.957 -0.09 +0.44    -0.481 OA
DOCKED: ATOM     37  H   UNL d   1      12.242  17.416  -4.029 -0.47 -0.64    +0.295 HD
DOCKED: ENDBRANCH  34  36
DOCKED: ENDBRANCH  33  34
DOCKED: ENDBRANCH   7  33
DOCKED: BRANCH  27  38
DOCKED: ATOM     38  C   UNL d   1       7.439  14.109 -12.524 -0.31 +0.00    +0.017 C 
DOCKED: ATOM     39  C   UNL d   1       7.295  12.840 -12.935 -0.10 +0.01    +0.092 C 
DOCKED: BRANCH  39  40
DOCKED: ATOM     40  C   UNL d   1       6.137  12.463 -13.749 -0.21 +0.02    +0.330 C 
DOCKED: ATOM     41  O   UNL d   1       5.090  11.974 -13.371 -0.34 -0.02    -0.246 OA
DOCKED: BRANCH  40  42
DOCKED: ATOM     42  O   UNL d   1       6.370  12.744 -15.041 -0.05 -0.00    -0.477 OA
DOCKED: ATOM     43  H   UNL d   1       7.338  12.633 -15.134 +0.07 -0.00    +0.295 HD
DOCKED: ENDBRANCH  40  42
DOCKED: ENDBRANCH  39  40
DOCKED: ENDBRANCH  27  38
DOCKED: BRANCH   8  44
DOCKED: ATOM     44  C   UNL d   1      16.506  12.766  -6.602 -0.20 -0.04    +0.141 C 
DOCKED: BRANCH  44  45
DOCKED: ATOM     45  C   UNL d   1      17.448  11.724  -6.060 -0.18 -0.11    +0.306 C 
DOCKED: ATOM     46  O   UNL d   1      17.664  11.480  -4.886 -0.34 +0.11    -0.251 OA
DOCKED: BRANCH  45  47
DOCKED: ATOM     47  O   UNL d   1      18.093  11.058  -7.034 -0.11 +0.21    -0.481 OA
DOCKED: ATOM     48  H   UNL d   1      17.627  10.197  -7.097 -0.38 -0.15    +0.295 HD
DOCKED: ENDBRANCH  45  47
DOCKED: ENDBRANCH  44  45
DOCKED: ENDBRANCH   8  44
DOCKED: BRANCH  22  49
DOCKED: ATOM     49  C   UNL d   1      11.896  11.822 -15.012 -0.07 -0.01    +0.048 C 
DOCKED: BRANCH  49  50
DOCKED: ATOM     50  C   UNL d   1      10.693  10.885 -15.122 -0.10 -0.01    +0.125 C 
DOCKED: BRANCH  50  51
DOCKED: ATOM     51  C   UNL d   1       9.463  11.639 -15.539 -0.06 -0.01    +0.305 C 
DOCKED: ATOM     52  O   UNL d   1       9.351  12.840 -15.714 -0.04 +0.01    -0.251 OA
DOCKED: BRANCH  51  53
DOCKED: ATOM     53  O   UNL d   1       8.404  10.823 -15.709 -0.03 +0.01    -0.481 OA
DOCKED: ATOM     54  H   UNL d   1       7.714  11.404 -16.092 +0.05 -0.01    +0.295 HD
DOCKED: ENDBRANCH  51  53
DOCKED: ENDBRANCH  50  51
DOCKED: ENDBRANCH  49  50
DOCKED: ENDBRANCH  22  49
DOCKED: TORSDOF 13
DOCKED: TER
DOCKED: ENDMDL
________________________________________________________________________________


	BEGINNING GENETIC ALGORITHM DOCKING 30 of 100
Run: 30 Seed: 148496977 450774759 [ Run 30 of 100 GA/GALS ]
Beginning LAMARCKIAN GENETIC ALGORITHM (LGA), with a maximum of 25000000 energy evaluations.

Final-Value: -13.368


	FINAL GENETIC ALGORITHM DOCKED STATE
	_______________________________________________


Detailed state:  trans 3.280 -15.671 -8.669 quatxyzw -0.750999 0.037122 -0.416906 0.510697 center 0.153 0.018 -0.028 ntor 13 93.4269 -130.5083 -104.5265 -81.6213 -162.2625 -14.8248 120.0974 91.9675 94.3478 -33.7539 47.7197 -75.3474 141.4593
State:	  3.280 -15.671  -8.669  -0.873  0.043 -0.485 118.579     93.43 -130.51 -104.53  -81.62 -162.26  -14.82  120.10   91.97   94.35  -33.75   47.72  -75.35  141.46

DOCKED: MODEL       30
DOCKED: USER    Run = 30
DOCKED: USER    DPF = D:/Protein_go_brrr/autodock/final/mut_Y35F/heme/dock.dpf
DOCKED: USER  
DOCKED: USER    Estimated Free Energy of Binding    =   -6.29 kcal/mol  [=(1)+(2)+(3)-(4)]
DOCKED: USER    Estimated Inhibition Constant, Ki   =   24.39 uM (micromolar)  [Temperature = 298.15 K]
DOCKED: USER    
DOCKED: USER    (1) Final Intermolecular Energy     =  -10.17 kcal/mol
DOCKED: USER        vdW + Hbond + desolv Energy     =   -9.40 kcal/mol
DOCKED: USER        Electrostatic Energy            =   -0.77 kcal/mol
DOCKED: USER    (2) Final Total Internal Energy     =   -3.20 kcal/mol
DOCKED: USER    (3) Torsional Free Energy           =   +3.88 kcal/mol
DOCKED: USER    (4) Unbound System's Energy  [=(2)] =   -3.20 kcal/mol
DOCKED: USER    
DOCKED: USER    
DOCKED: USER    NEWDPF move heme_opt.pdbqt
DOCKED: USER    NEWDPF about 0.153000 0.018000 -0.028000
DOCKED: USER    NEWDPF tran0 3.280404 -15.671319 -8.668830
DOCKED: USER    NEWDPF quaternion0 -0.750999 0.037122 -0.416906 0.510697
DOCKED: USER    NEWDPF axisangle0 -0.873498 0.043177 -0.484910 118.579424
DOCKED: USER    NEWDPF quat0 -0.873498 0.043177 -0.484910 118.579424
DOCKED: USER    NEWDPF dihe0 93.43 -130.51 -104.53 -81.62 -162.26 -14.82 120.10 91.97 94.35 -33.75 47.72 -75.35 141.46 
DOCKED: USER  keepresnum = 1 
DOCKED: USER  
DOCKED: REMARK  13 active torsions:
DOCKED: REMARK  status: ('A' for Active; 'I' for Inactive)
DOCKED: REMARK    1  A    between atoms: O_3  and  C_38 
DOCKED: REMARK    2  A    between atoms: O_4  and  C_40 
DOCKED: REMARK    3  A    between atoms: O_7  and  C_46 
DOCKED: REMARK    4  A    between atoms: O_9  and  C_48 
DOCKED: REMARK    5  A    between atoms: C_15  and  C_20 
DOCKED: REMARK    6  A    between atoms: C_16  and  C_23 
DOCKED: REMARK    7  A    between atoms: C_20  and  C_38 
DOCKED: REMARK    8  A    between atoms: C_23  and  C_40 
DOCKED: REMARK    9  A    between atoms: C_32  and  C_41 
DOCKED: REMARK   10  A    between atoms: C_37  and  C_45 
DOCKED: REMARK   11  A    between atoms: C_41  and  C_44 
DOCKED: REMARK   12  A    between atoms: C_44  and  C_46 
DOCKED: REMARK   13  A    between atoms: C_47  and  C_48 
DOCKED: USER                              x       y       z     vdW  Elec       q    Type
DOCKED: USER                           _______ _______ _______ _____ _____    ______ ____
DOCKED: ROOT
DOCKED: ATOM      1  O   UNL d   1      -0.797 -19.068 -11.237 -0.15 -0.02    -0.289 OA
DOCKED: ATOM      2  O   UNL d   1       2.959 -13.090 -13.794 -0.17 +0.06    -0.289 OA
DOCKED: ATOM      3  N   UNL d   1       1.432 -17.291  -9.295 -0.16 +0.10    -0.247 NA
DOCKED: ATOM      4  N   UNL d   1       2.613 -15.352 -11.211 -0.17 +0.09    -0.247 NA
DOCKED: ATOM      5  N   UNL d   1       4.652 -14.806  -9.260 -0.14 +0.14    -0.354 N 
DOCKED: ATOM      6  N   UNL d   1       3.432 -16.834  -7.285 +0.11 +0.18    -0.354 N 
DOCKED: ATOM      7  C   UNL d   1       0.146 -19.357  -9.000 -0.15 -0.03    +0.084 A 
DOCKED: ATOM      8  C   UNL d   1       1.257 -14.725 -13.145 -0.17 -0.01    +0.084 A 
DOCKED: ATOM      9  C   UNL d   1       1.444 -15.595 -11.898 -0.23 -0.01    +0.058 A 
DOCKED: ATOM     10  C   UNL d   1       1.147 -18.342  -8.439 -0.20 -0.02    +0.058 A 
DOCKED: ATOM     11  C   UNL d   1      -0.099 -18.683 -10.316 -0.15 -0.02    +0.193 A 
DOCKED: ATOM     12  C   UNL d   1       0.718 -17.429 -10.364 -0.23 -0.02    +0.109 A 
DOCKED: ATOM     13  C   UNL d   1       2.554 -13.970 -13.060 -0.12 -0.06    +0.193 A 
DOCKED: ATOM     14  C   UNL d   1       0.791 -20.721  -9.254 -0.05 -0.00    +0.026 C 
DOCKED: ATOM     15  C   UNL d   1       0.568 -16.545 -11.538 -0.27 -0.01    +0.055 C 
DOCKED: ATOM     16  C   UNL d   1       0.100 -13.736 -12.980 -0.29 -0.00    +0.026 C 
DOCKED: ATOM     17  C   UNL d   1       3.286 -14.448 -11.849 -0.08 -0.04    +0.109 A 
DOCKED: ATOM     18  C   UNL d   1       1.621 -18.443  -7.183 -0.23 -0.02    +0.050 C 
DOCKED: ATOM     19  C   UNL d   1       2.482 -17.509  -6.552 -0.17 -0.02    +0.045 A 
DOCKED: ATOM     20  C   UNL d   1       5.175 -14.142 -10.338 -0.27 -0.02    +0.045 A 
DOCKED: ATOM     21  C   UNL d   1       4.618 -13.913 -11.532 -0.27 -0.02    +0.057 C 
DOCKED: ATOM     22  C   UNL d   1       6.711 -14.127  -8.648 -0.20 +0.01    -0.019 A 
DOCKED: ATOM     23  C   UNL d   1       5.507 -14.850  -8.191 -0.24 -0.02    +0.045 A 
DOCKED: ATOM     24  C   UNL d   1       6.507 -13.709  -9.919 -0.20 +0.01    -0.022 A 
DOCKED: ATOM     25  C   UNL d   1       4.211 -16.053  -6.463 -0.18 -0.02    +0.049 A 
DOCKED: ATOM     26  C   UNL d   1       2.624 -17.129  -5.226 -0.28 +0.01    -0.018 A 
DOCKED: ATOM     27  C   UNL d   1       3.704 -16.195  -5.179 -0.30 -0.00    +0.003 A 
DOCKED: ATOM     28  C   UNL d   1       5.358 -15.383  -6.968 -0.25 -0.02    +0.052 C 
DOCKED: ATOM     29  C   UNL d   1       7.422 -12.931 -10.803 -0.15 -0.02    +0.046 C 
DOCKED: ATOM     30  C   UNL d   1       1.806 -17.602  -4.072 -0.15 -0.02    +0.046 C 
DOCKED: ATOM     31  H   UNL d   1       3.696 -15.146  -9.263 -0.25 -0.09    +0.166 HD
DOCKED: ATOM     32  H   UNL d   1       3.550 -16.944  -8.285 -0.10 -0.07    +0.166 HD
DOCKED: ENDROOT
DOCKED: BRANCH   7  33
DOCKED: ATOM     33  C   UNL d   1      -1.163 -19.491  -8.214 -0.14 -0.10    +0.141 C 
DOCKED: BRANCH  33  34
DOCKED: ATOM     34  C   UNL d   1      -2.358 -19.686  -9.107 -0.24 -0.07    +0.306 C 
DOCKED: ATOM     35  O   UNL d   1      -3.232 -18.866  -9.331 -0.50 -0.00    -0.251 OA
DOCKED: BRANCH  34  36
DOCKED: ATOM     36  O   UNL d   1      -2.388 -20.906  -9.674 -0.05 +0.02    -0.481 OA
DOCKED: ATOM     37  H   UNL d   1      -1.883 -20.802 -10.509 +0.08 +0.02    +0.295 HD
DOCKED: ENDBRANCH  34  36
DOCKED: ENDBRANCH  33  34
DOCKED: ENDBRANCH   7  33
DOCKED: BRANCH  27  38
DOCKED: ATOM     38  C   UNL d   1       4.197 -15.563  -3.993 -0.38 -0.00    +0.017 C 
DOCKED: ATOM     39  C   UNL d   1       5.489 -15.318  -3.725 -0.26 -0.03    +0.092 C 
DOCKED: BRANCH  39  40
DOCKED: ATOM     40  C   UNL d   1       5.861 -14.646  -2.478 -0.22 -0.11    +0.330 C 
DOCKED: ATOM     41  O   UNL d   1       5.142 -14.007  -1.734 -0.77 +0.01    -0.246 OA
DOCKED: BRANCH  40  42
DOCKED: ATOM     42  O   UNL d   1       7.166 -14.830  -2.225 -0.11 +0.24    -0.477 OA
DOCKED: ATOM     43  H   UNL d   1       7.604 -14.597  -3.070 -0.05 -0.31    +0.295 HD
DOCKED: ENDBRANCH  40  42
DOCKED: ENDBRANCH  39  40
DOCKED: ENDBRANCH  27  38
DOCKED: BRANCH   8  44
DOCKED: ATOM     44  C   UNL d   1       1.151 -15.486 -14.471 -0.06 -0.00    +0.141 C 
DOCKED: BRANCH  44  45
DOCKED: ATOM     45  C   UNL d   1       2.490 -15.844 -15.060 +0.00 -0.01    +0.306 C 
DOCKED: ATOM     46  O   UNL d   1       3.232 -16.735 -14.687 -0.00 +0.01    -0.251 OA
DOCKED: BRANCH  45  47
DOCKED: ATOM     47  O   UNL d   1       2.837 -15.035 -16.077 +0.01 +0.01    -0.481 OA
DOCKED: ATOM     48  H   UNL d   1       3.097 -14.193 -15.647 +0.04 -0.02    +0.295 HD
DOCKED: ENDBRANCH  45  47
DOCKED: ENDBRANCH  44  45
DOCKED: ENDBRANCH   8  44
DOCKED: BRANCH  22  49
DOCKED: ATOM     49  C   UNL d   1       7.941 -13.927  -7.813 -0.18 -0.04    +0.048 C 
DOCKED: BRANCH  49  50
DOCKED: ATOM     50  C   UNL d   1       8.541 -15.257  -7.356 -0.08 -0.08    +0.125 C 
DOCKED: BRANCH  50  51
DOCKED: ATOM     51  C   UNL d   1       8.832 -15.236  -5.882 -0.06 -0.31    +0.305 C 
DOCKED: ATOM     52  O   UNL d   1       8.067 -15.495  -4.970 -0.11 +0.21    -0.251 OA
DOCKED: BRANCH  51  53
DOCKED: ATOM     53  O   UNL d   1      10.103 -14.867  -5.624 -0.05 +0.65    -0.481 OA
DOCKED: ATOM     54  H   UNL d   1      10.035 -13.913  -5.409 -0.40 -0.86    +0.295 HD
DOCKED: ENDBRANCH  51  53
DOCKED: ENDBRANCH  50  51
DOCKED: ENDBRANCH  49  50
DOCKED: ENDBRANCH  22  49
DOCKED: TORSDOF 13
DOCKED: TER
DOCKED: ENDMDL
________________________________________________________________________________


	BEGINNING GENETIC ALGORITHM DOCKING 31 of 100
Run: 31 Seed: 819459913 2086046917 [ Run 31 of 100 GA/GALS ]
Beginning LAMARCKIAN GENETIC ALGORITHM (LGA), with a maximum of 25000000 energy evaluations.

Final-Value: -11.198


	FINAL GENETIC ALGORITHM DOCKED STATE
	_______________________________________________


Detailed state:  trans 0.356 12.642 -12.136 quatxyzw -0.393183 -0.771249 -0.204373 -0.456962 center 0.153 0.018 -0.028 ntor 13 -119.3790 155.7346 105.6582 -60.0234 63.5883 -27.8845 -39.0629 -91.2481 22.0597 -127.3061 -100.8762 2.5927 -10.7860
State:	  0.356  12.642 -12.136  -0.442 -0.867 -0.230 -125.618   -119.38  155.73  105.66  -60.02   63.59  -27.88  -39.06  -91.25   22.06 -127.31 -100.88    2.59  -10.79

DOCKED: MODEL       31
DOCKED: USER    Run = 31
DOCKED: USER    DPF = D:/Protein_go_brrr/autodock/final/mut_Y35F/heme/dock.dpf
DOCKED: USER  
DOCKED: USER    Estimated Free Energy of Binding    =   -2.89 kcal/mol  [=(1)+(2)+(3)-(4)]
DOCKED: USER    Estimated Inhibition Constant, Ki   =    7.56 mM (millimolar)  [Temperature = 298.15 K]
DOCKED: USER    
DOCKED: USER    (1) Final Intermolecular Energy     =   -6.77 kcal/mol
DOCKED: USER        vdW + Hbond + desolv Energy     =   -6.45 kcal/mol
DOCKED: USER        Electrostatic Energy            =   -0.32 kcal/mol
DOCKED: USER    (2) Final Total Internal Energy     =   -4.43 kcal/mol
DOCKED: USER    (3) Torsional Free Energy           =   +3.88 kcal/mol
DOCKED: USER    (4) Unbound System's Energy  [=(2)] =   -4.43 kcal/mol
DOCKED: USER    
DOCKED: USER    
DOCKED: USER    NEWDPF move heme_opt.pdbqt
DOCKED: USER    NEWDPF about 0.153000 0.018000 -0.028000
DOCKED: USER    NEWDPF tran0 0.355922 12.642311 -12.135625
DOCKED: USER    NEWDPF quaternion0 -0.393183 -0.771249 -0.204373 -0.456962
DOCKED: USER    NEWDPF axisangle0 -0.442034 -0.867072 -0.229765 -125.617543
DOCKED: USER    NEWDPF quat0 -0.442034 -0.867072 -0.229765 -125.617543
DOCKED: USER    NEWDPF dihe0 -119.38 155.73 105.66 -60.02 63.59 -27.88 -39.06 -91.25 22.06 -127.31 -100.88 2.59 -10.79 
DOCKED: USER  keepresnum = 1 
DOCKED: USER  
DOCKED: REMARK  13 active torsions:
DOCKED: REMARK  status: ('A' for Active; 'I' for Inactive)
DOCKED: REMARK    1  A    between atoms: O_3  and  C_38 
DOCKED: REMARK    2  A    between atoms: O_4  and  C_40 
DOCKED: REMARK    3  A    between atoms: O_7  and  C_46 
DOCKED: REMARK    4  A    between atoms: O_9  and  C_48 
DOCKED: REMARK    5  A    between atoms: C_15  and  C_20 
DOCKED: REMARK    6  A    between atoms: C_16  and  C_23 
DOCKED: REMARK    7  A    between atoms: C_20  and  C_38 
DOCKED: REMARK    8  A    between atoms: C_23  and  C_40 
DOCKED: REMARK    9  A    between atoms: C_32  and  C_41 
DOCKED: REMARK   10  A    between atoms: C_37  and  C_45 
DOCKED: REMARK   11  A    between atoms: C_41  and  C_44 
DOCKED: REMARK   12  A    between atoms: C_44  and  C_46 
DOCKED: REMARK   13  A    between atoms: C_47  and  C_48 
DOCKED: USER                              x       y       z     vdW  Elec       q    Type
DOCKED: USER                           _______ _______ _______ _____ _____    ______ ____
DOCKED: ROOT
DOCKED: ATOM      1  O   UNL d   1       2.876  11.750 -17.390 -0.01 +0.01    -0.289 OA
DOCKED: ATOM      2  O   UNL d   1      -1.903   7.519 -13.434 -0.11 +0.01    -0.289 OA
DOCKED: ATOM      3  N   UNL d   1       1.757  12.635 -14.250 -0.08 +0.01    -0.247 NA
DOCKED: ATOM      4  N   UNL d   1      -0.275  10.555 -13.638 -0.09 +0.01    -0.247 NA
DOCKED: ATOM      5  N   UNL d   1      -1.169  12.202 -11.457 -0.02 +0.03    -0.354 N 
DOCKED: ATOM      6  N   UNL d   1       0.930  14.363 -12.111 -0.13 +0.01    -0.354 N 
DOCKED: ATOM      7  C   UNL d   1       3.119  13.725 -15.971 -0.05 -0.00    +0.084 A 
DOCKED: ATOM      8  C   UNL d   1      -0.027   8.390 -14.743 -0.19 -0.01    +0.084 A 
DOCKED: ATOM      9  C   UNL d   1       0.438   9.840 -14.574 -0.19 -0.00    +0.058 A 
DOCKED: ATOM     10  C   UNL d   1       2.460  13.779 -14.590 -0.12 -0.00    +0.058 A 
DOCKED: ATOM     11  C   UNL d   1       2.681  12.341 -16.344 -0.04 -0.01    +0.193 A 
DOCKED: ATOM     12  C   UNL d   1       1.884  11.776 -15.209 -0.12 -0.00    +0.109 A 
DOCKED: ATOM     13  C   UNL d   1      -1.160   8.425 -13.757 -0.13 -0.01    +0.193 A 
DOCKED: ATOM     14  C   UNL d   1       2.491  14.724 -16.947 -0.01 -0.00    +0.026 C 
DOCKED: ATOM     15  C   UNL d   1       1.421  10.378 -15.312 -0.18 -0.00    +0.055 C 
DOCKED: ATOM     16  C   UNL d   1       1.026   7.394 -14.247 -0.35 -0.00    +0.026 C 
DOCKED: ATOM     17  C   UNL d   1      -1.209   9.795 -13.162 -0.17 -0.01    +0.109 A 
DOCKED: ATOM     18  C   UNL d   1       2.642  14.826 -13.763 -0.14 -0.00    +0.050 C 
DOCKED: ATOM     19  C   UNL d   1       2.142  14.926 -12.440 -0.19 +0.00    +0.045 A 
DOCKED: ATOM     20  C   UNL d   1      -2.169  11.264 -11.469 -0.18 -0.00    +0.045 A 
DOCKED: ATOM     21  C   UNL d   1      -2.254  10.140 -12.187 -0.22 -0.00    +0.057 C 
DOCKED: ATOM     22  C   UNL d   1      -2.720  12.912  -9.986 -0.14 +0.00    -0.019 A 
DOCKED: ATOM     23  C   UNL d   1      -1.412  13.235 -10.592 -0.18 -0.01    +0.045 A 
DOCKED: ATOM     24  C   UNL d   1      -3.162  11.743 -10.509 -0.15 +0.00    -0.022 A 
DOCKED: ATOM     25  C   UNL d   1       0.599  14.656 -10.808 -0.23 -0.00    +0.049 A 
DOCKED: ATOM     26  C   UNL d   1       2.629  15.569 -11.312 -0.22 -0.00    -0.018 A 
DOCKED: ATOM     27  C   UNL d   1       1.659  15.379 -10.280 -0.25 -0.00    +0.003 A 
DOCKED: ATOM     28  C   UNL d   1      -0.679  14.316 -10.286 -0.22 -0.01    +0.052 C 
DOCKED: ATOM     29  C   UNL d   1      -4.419  11.002 -10.205 -0.16 -0.01    +0.046 C 
DOCKED: ATOM     30  C   UNL d   1       3.916  16.314 -11.198 -0.19 +0.00    +0.046 C 
DOCKED: ATOM     31  H   UNL d   1      -0.315  12.067 -11.987 +0.06 -0.01    +0.166 HD
DOCKED: ATOM     32  H   UNL d   1       0.357  13.844 -12.765 +0.03 -0.01    +0.166 HD
DOCKED: ENDROOT
DOCKED: BRANCH   7  33
DOCKED: ATOM     33  C   UNL d   1       4.649  13.824 -15.973 -0.05 -0.00    +0.141 C 
DOCKED: BRANCH  33  34
DOCKED: ATOM     34  C   UNL d   1       5.309  12.597 -15.403 -0.09 -0.00    +0.306 C 
DOCKED: ATOM     35  O   UNL d   1       6.059  11.841 -15.997 -0.08 +0.01    -0.251 OA
DOCKED: BRANCH  34  36
DOCKED: ATOM     36  O   UNL d   1       4.991  12.389 -14.113 -0.13 -0.01    -0.481 OA
DOCKED: ATOM     37  H   UNL d   1       4.012  12.316 -14.109 +0.11 +0.00    +0.295 HD
DOCKED: ENDBRANCH  34  36
DOCKED: ENDBRANCH  33  34
DOCKED: ENDBRANCH   7  33
DOCKED: BRANCH  27  38
DOCKED: ATOM     38  C   UNL d   1       1.760  15.896  -8.948 -0.25 +0.00    +0.017 C 
DOCKED: ATOM     39  C   UNL d   1       1.394  15.243  -7.834 -0.16 -0.01    +0.092 C 
DOCKED: BRANCH  39  40
DOCKED: ATOM     40  C   UNL d   1       1.566  15.880  -6.526 -0.18 +0.03    +0.330 C 
DOCKED: ATOM     41  O   UNL d   1       2.411  16.691  -6.198 -0.14 -0.17    -0.246 OA
DOCKED: BRANCH  40  42
DOCKED: ATOM     42  O   UNL d   1       0.621  15.449  -5.675 -0.09 +0.27    -0.477 OA
DOCKED: ATOM     43  H   UNL d   1      -0.110  15.164  -6.261 +0.09 -0.20    +0.295 HD
DOCKED: ENDBRANCH  40  42
DOCKED: ENDBRANCH  39  40
DOCKED: ENDBRANCH  27  38
DOCKED: BRANCH   8  44
DOCKED: ATOM     44  C   UNL d   1      -0.528   8.016 -16.142 -0.07 -0.01    +0.141 C 
DOCKED: BRANCH  44  45
DOCKED: ATOM     45  C   UNL d   1      -1.039   6.602 -16.231 -0.04 -0.01    +0.306 C 
DOCKED: ATOM     46  O   UNL d   1      -0.371   5.597 -16.399 -0.04 +0.01    -0.251 OA
DOCKED: BRANCH  45  47
DOCKED: ATOM     47  O   UNL d   1      -2.379   6.532 -16.132 +0.00 +0.01    -0.481 OA
DOCKED: ATOM     48  H   UNL d   1      -2.564   6.676 -15.179 +0.04 -0.00    +0.295 HD
DOCKED: ENDBRANCH  45  47
DOCKED: ENDBRANCH  44  45
DOCKED: ENDBRANCH   8  44
DOCKED: BRANCH  22  49
DOCKED: ATOM     49  C   UNL d   1      -3.415  13.774  -8.974 -0.11 -0.01    +0.048 C 
DOCKED: BRANCH  49  50
DOCKED: ATOM     50  C   UNL d   1      -3.103  13.335  -7.543 -0.11 -0.06    +0.125 C 
DOCKED: BRANCH  50  51
DOCKED: ATOM     51  C   UNL d   1      -1.763  13.853  -7.103 -0.16 -0.15    +0.305 C 
DOCKED: ATOM     52  O   UNL d   1      -0.699  13.259  -7.108 -0.30 +0.10    -0.251 OA
DOCKED: BRANCH  51  53
DOCKED: ATOM     53  O   UNL d   1      -1.835  15.122  -6.656 -0.04 +0.35    -0.481 OA
DOCKED: ATOM     54  H   UNL d   1      -1.531  15.065  -5.726 -0.28 -0.44    +0.295 HD
DOCKED: ENDBRANCH  51  53
DOCKED: ENDBRANCH  50  51
DOCKED: ENDBRANCH  49  50
DOCKED: ENDBRANCH  22  49
DOCKED: TORSDOF 13
DOCKED: TER
DOCKED: ENDMDL
________________________________________________________________________________


	BEGINNING GENETIC ALGORITHM DOCKING 32 of 100
Run: 32 Seed: 1274061188 326811590 [ Run 32 of 100 GA/GALS ]
Beginning LAMARCKIAN GENETIC ALGORITHM (LGA), with a maximum of 25000000 energy evaluations.

Final-Value: -10.854


	FINAL GENETIC ALGORITHM DOCKED STATE
	_______________________________________________


Detailed state:  trans 13.195 15.160 -7.195 quatxyzw 0.033513 -0.931856 -0.309132 0.186970 center 0.153 0.018 -0.028 ntor 13 147.1140 -148.5742 -166.9164 85.8176 -118.1549 49.7907 139.3669 52.4898 -110.2851 -46.6749 -53.8444 -39.8382 -152.1936
State:	 13.195  15.160  -7.195   0.034 -0.949 -0.315 158.448    147.11 -148.57 -166.92   85.82 -118.15   49.79  139.37   52.49 -110.29  -46.67  -53.84  -39.84 -152.19

DOCKED: MODEL       32
DOCKED: USER    Run = 32
DOCKED: USER    DPF = D:/Protein_go_brrr/autodock/final/mut_Y35F/heme/dock.dpf
DOCKED: USER  
DOCKED: USER    Estimated Free Energy of Binding    =   -5.53 kcal/mol  [=(1)+(2)+(3)-(4)]
DOCKED: USER    Estimated Inhibition Constant, Ki   =   88.04 uM (micromolar)  [Temperature = 298.15 K]
DOCKED: USER    
DOCKED: USER    (1) Final Intermolecular Energy     =   -9.41 kcal/mol
DOCKED: USER        vdW + Hbond + desolv Energy     =   -8.65 kcal/mol
DOCKED: USER        Electrostatic Energy            =   -0.76 kcal/mol
DOCKED: USER    (2) Final Total Internal Energy     =   -1.44 kcal/mol
DOCKED: USER    (3) Torsional Free Energy           =   +3.88 kcal/mol
DOCKED: USER    (4) Unbound System's Energy  [=(2)] =   -1.44 kcal/mol
DOCKED: USER    
DOCKED: USER    
DOCKED: USER    NEWDPF move heme_opt.pdbqt
DOCKED: USER    NEWDPF about 0.153000 0.018000 -0.028000
DOCKED: USER    NEWDPF tran0 13.194884 15.159954 -7.194626
DOCKED: USER    NEWDPF quaternion0 0.033513 -0.931856 -0.309132 0.186970
DOCKED: USER    NEWDPF axisangle0 0.034114 -0.948584 -0.314681 158.448008
DOCKED: USER    NEWDPF quat0 0.034114 -0.948584 -0.314681 158.448008
DOCKED: USER    NEWDPF dihe0 147.11 -148.57 -166.92 85.82 -118.15 49.79 139.37 52.49 -110.29 -46.67 -53.84 -39.84 -152.19 
DOCKED: USER  keepresnum = 1 
DOCKED: USER  
DOCKED: REMARK  13 active torsions:
DOCKED: REMARK  status: ('A' for Active; 'I' for Inactive)
DOCKED: REMARK    1  A    between atoms: O_3  and  C_38 
DOCKED: REMARK    2  A    between atoms: O_4  and  C_40 
DOCKED: REMARK    3  A    between atoms: O_7  and  C_46 
DOCKED: REMARK    4  A    between atoms: O_9  and  C_48 
DOCKED: REMARK    5  A    between atoms: C_15  and  C_20 
DOCKED: REMARK    6  A    between atoms: C_16  and  C_23 
DOCKED: REMARK    7  A    between atoms: C_20  and  C_38 
DOCKED: REMARK    8  A    between atoms: C_23  and  C_40 
DOCKED: REMARK    9  A    between atoms: C_32  and  C_41 
DOCKED: REMARK   10  A    between atoms: C_37  and  C_45 
DOCKED: REMARK   11  A    between atoms: C_41  and  C_44 
DOCKED: REMARK   12  A    between atoms: C_44  and  C_46 
DOCKED: REMARK   13  A    between atoms: C_47  and  C_48 
DOCKED: USER                              x       y       z     vdW  Elec       q    Type
DOCKED: USER                           _______ _______ _______ _____ _____    ______ ____
DOCKED: ROOT
DOCKED: ATOM      1  O   UNL d   1      18.313  16.606  -4.650 -0.06 +0.12    -0.289 OA
DOCKED: ATOM      2  O   UNL d   1      16.006  10.180  -7.778 -0.07 +0.08    -0.289 OA
DOCKED: ATOM      3  N   UNL d   1      15.131  16.179  -5.912 -0.10 +0.17    -0.247 NA
DOCKED: ATOM      4  N   UNL d   1      15.254  13.495  -7.181 -0.07 +0.07    -0.247 NA
DOCKED: ATOM      5  N   UNL d   1      12.767  14.102  -8.490 -0.07 +0.07    -0.354 N 
DOCKED: ATOM      6  N   UNL d   1      12.657  16.892  -7.184 -0.04 +0.11    -0.354 N 
DOCKED: ATOM      7  C   UNL d   1      16.390  18.074  -4.999 -0.09 -0.06    +0.084 A 
DOCKED: ATOM      8  C   UNL d   1      16.895  11.915  -6.298 -0.28 -0.03    +0.084 A 
DOCKED: ATOM      9  C   UNL d   1      16.302  13.328  -6.303 -0.19 -0.02    +0.058 A 
DOCKED: ATOM     10  C   UNL d   1      15.095  17.530  -5.609 -0.04 -0.05    +0.058 A 
DOCKED: ATOM     11  C   UNL d   1      17.159  16.787  -4.994 -0.10 -0.11    +0.193 A 
DOCKED: ATOM     12  C   UNL d   1      16.280  15.709  -5.547 -0.12 -0.06    +0.109 A 
DOCKED: ATOM     13  C   UNL d   1      16.015  11.322  -7.362 -0.26 -0.06    +0.193 A 
DOCKED: ATOM     14  C   UNL d   1      17.091  19.066  -5.930 -0.03 -0.01    +0.026 C 
DOCKED: ATOM     15  C   UNL d   1      16.796  14.325  -5.555 -0.20 -0.02    +0.055 C 
DOCKED: ATOM     16  C   UNL d   1      16.625  11.191  -4.976 -0.52 -0.01    +0.026 C 
DOCKED: ATOM     17  C   UNL d   1      15.070  12.385  -7.820 -0.20 -0.03    +0.109 A 
DOCKED: ATOM     18  C   UNL d   1      14.001  18.303  -5.742 -0.09 -0.04    +0.050 C 
DOCKED: ATOM     19  C   UNL d   1      12.737  17.867  -6.215 -0.12 -0.02    +0.045 A 
DOCKED: ATOM     20  C   UNL d   1      13.104  12.948  -9.148 -0.21 -0.01    +0.045 A 
DOCKED: ATOM     21  C   UNL d   1      14.109  12.103  -8.897 -0.10 -0.02    +0.057 C 
DOCKED: ATOM     22  C   UNL d   1      11.263  13.858 -10.148 -0.23 +0.00    -0.019 A 
DOCKED: ATOM     23  C   UNL d   1      11.668  14.722  -9.022 -0.18 -0.01    +0.045 A 
DOCKED: ATOM     24  C   UNL d   1      12.116  12.809 -10.217 -0.26 +0.01    -0.022 A 
DOCKED: ATOM     25  C   UNL d   1      11.349  16.689  -7.558 -0.13 -0.01    +0.049 A 
DOCKED: ATOM     26  C   UNL d   1      11.446  18.281  -5.926 -0.13 +0.01    -0.018 A 
DOCKED: ATOM     27  C   UNL d   1      10.573  17.520  -6.763 -0.13 -0.00    +0.003 A 
DOCKED: ATOM     28  C   UNL d   1      11.028  15.843  -8.654 -0.17 -0.00    +0.052 C 
DOCKED: ATOM     29  C   UNL d   1      12.113  11.665 -11.174 -0.09 -0.02    +0.046 C 
DOCKED: ATOM     30  C   UNL d   1      11.046  19.318  -4.933 -0.11 -0.02    +0.046 C 
DOCKED: ATOM     31  H   UNL d   1      13.256  14.390  -7.649 +0.07 -0.04    +0.166 HD
DOCKED: ATOM     32  H   UNL d   1      13.466  16.431  -7.583 +0.04 -0.05    +0.166 HD
DOCKED: ENDROOT
DOCKED: BRANCH   7  33
DOCKED: ATOM     33  C   UNL d   1      16.263  18.630  -3.577 -0.04 -0.16    +0.141 C 
DOCKED: BRANCH  33  34
DOCKED: ATOM     34  C   UNL d   1      15.340  19.816  -3.499 -0.06 -0.27    +0.306 C 
DOCKED: ATOM     35  O   UNL d   1      15.508  20.897  -4.037 -0.02 +0.11    -0.251 OA
DOCKED: BRANCH  34  36
DOCKED: ATOM     36  O   UNL d   1      14.250  19.576  -2.748 -0.05 +0.62    -0.481 OA
DOCKED: ATOM     37  H   UNL d   1      14.035  18.634  -2.918 -0.51 -0.83    +0.295 HD
DOCKED: ENDBRANCH  34  36
DOCKED: ENDBRANCH  33  34
DOCKED: ENDBRANCH   7  33
DOCKED: BRANCH  27  38
DOCKED: ATOM     38  C   UNL d   1       9.147  17.644  -6.796 -0.16 +0.00    +0.017 C 
DOCKED: ATOM     39  C   UNL d   1       8.330  16.973  -7.623 -0.25 +0.02    +0.092 C 
DOCKED: BRANCH  39  40
DOCKED: ATOM     40  C   UNL d   1       6.882  17.179  -7.544 -0.12 +0.17    +0.330 C 
DOCKED: ATOM     41  O   UNL d   1       6.282  18.236  -7.500 -0.42 -0.16    -0.246 OA
DOCKED: BRANCH  40  42
DOCKED: ATOM     42  O   UNL d   1       6.248  15.996  -7.534 -0.17 -0.26    -0.477 OA
DOCKED: ATOM     43  H   UNL d   1       6.877  15.396  -7.083 -0.34 +0.10    +0.295 HD
DOCKED: ENDBRANCH  40  42
DOCKED: ENDBRANCH  39  40
DOCKED: ENDBRANCH  27  38
DOCKED: BRANCH   8  44
DOCKED: ATOM     44  C   UNL d   1      18.373  11.818  -6.691 -0.18 -0.05    +0.141 C 
DOCKED: BRANCH  44  45
DOCKED: ATOM     45  C   UNL d   1      18.580  11.473  -8.142 -0.18 -0.09    +0.306 C 
DOCKED: ATOM     46  O   UNL d   1      18.771  12.256  -9.056 -0.08 +0.06    -0.251 OA
DOCKED: BRANCH  45  47
DOCKED: ATOM     47  O   UNL d   1      18.509  10.149  -8.371 -0.79 +0.13    -0.481 OA
DOCKED: ATOM     48  H   UNL d   1      18.139   9.774  -7.544 -0.39 -0.11    +0.295 HD
DOCKED: ENDBRANCH  45  47
DOCKED: ENDBRANCH  44  45
DOCKED: ENDBRANCH   8  44
DOCKED: BRANCH  22  49
DOCKED: ATOM     49  C   UNL d   1      10.100  14.143 -11.053 -0.25 -0.00    +0.048 C 
DOCKED: BRANCH  49  50
DOCKED: ATOM     50  C   UNL d   1      10.519  14.185 -12.522 -0.10 -0.01    +0.125 C 
DOCKED: BRANCH  50  51
DOCKED: ATOM     51  C   UNL d   1       9.668  13.264 -13.350 -0.10 -0.01    +0.305 C 
DOCKED: ATOM     52  O   UNL d   1       8.455  13.152 -13.326 -0.16 -0.01    -0.251 OA
DOCKED: BRANCH  51  53
DOCKED: ATOM     53  O   UNL d   1      10.409  12.502 -14.179 -0.04 +0.03    -0.481 OA
DOCKED: ATOM     54  H   UNL d   1      10.409  12.999 -15.023 +0.04 -0.02    +0.295 HD
DOCKED: ENDBRANCH  51  53
DOCKED: ENDBRANCH  50  51
DOCKED: ENDBRANCH  49  50
DOCKED: ENDBRANCH  22  49
DOCKED: TORSDOF 13
DOCKED: TER
DOCKED: ENDMDL
________________________________________________________________________________


	BEGINNING GENETIC ALGORITHM DOCKING 33 of 100
Run: 33 Seed: 871476606 111157846 [ Run 33 of 100 GA/GALS ]
Beginning LAMARCKIAN GENETIC ALGORITHM (LGA), with a maximum of 25000000 energy evaluations.

Final-Value: -10.601


	FINAL GENETIC ALGORITHM DOCKED STATE
	_______________________________________________


Detailed state:  trans 1.055 13.681 -11.365 quatxyzw -0.729773 -0.370280 -0.029262 -0.573993 center 0.153 0.018 -0.028 ntor 13 113.0261 49.3624 94.9390 -100.5575 -180.0000 132.6502 -46.2049 -72.1085 -20.7385 -137.1838 -59.8218 92.5374 -144.6246
State:	  1.055  13.681 -11.365  -0.891 -0.452 -0.036 -109.942    113.03   49.36   94.94 -100.56 -180.00  132.65  -46.20  -72.11  -20.74 -137.18  -59.82   92.54 -144.62

DOCKED: MODEL       33
DOCKED: USER    Run = 33
DOCKED: USER    DPF = D:/Protein_go_brrr/autodock/final/mut_Y35F/heme/dock.dpf
DOCKED: USER  
DOCKED: USER    Estimated Free Energy of Binding    =   -4.64 kcal/mol  [=(1)+(2)+(3)-(4)]
DOCKED: USER    Estimated Inhibition Constant, Ki   =  395.45 uM (micromolar)  [Temperature = 298.15 K]
DOCKED: USER    
DOCKED: USER    (1) Final Intermolecular Energy     =   -8.52 kcal/mol
DOCKED: USER        vdW + Hbond + desolv Energy     =   -8.14 kcal/mol
DOCKED: USER        Electrostatic Energy            =   -0.38 kcal/mol
DOCKED: USER    (2) Final Total Internal Energy     =   -2.08 kcal/mol
DOCKED: USER    (3) Torsional Free Energy           =   +3.88 kcal/mol
DOCKED: USER    (4) Unbound System's Energy  [=(2)] =   -2.08 kcal/mol
DOCKED: USER    
DOCKED: USER    
DOCKED: USER    NEWDPF move heme_opt.pdbqt
DOCKED: USER    NEWDPF about 0.153000 0.018000 -0.028000
DOCKED: USER    NEWDPF tran0 1.055027 13.681230 -11.365465
DOCKED: USER    NEWDPF quaternion0 -0.729773 -0.370280 -0.029262 -0.573993
DOCKED: USER    NEWDPF axisangle0 -0.891206 -0.452189 -0.035735 -109.941689
DOCKED: USER    NEWDPF quat0 -0.891206 -0.452189 -0.035735 -109.941689
DOCKED: USER    NEWDPF dihe0 113.03 49.36 94.94 -100.56 -180.00 132.65 -46.20 -72.11 -20.74 -137.18 -59.82 92.54 -144.62 
DOCKED: USER  keepresnum = 1 
DOCKED: USER  
DOCKED: REMARK  13 active torsions:
DOCKED: REMARK  status: ('A' for Active; 'I' for Inactive)
DOCKED: REMARK    1  A    between atoms: O_3  and  C_38 
DOCKED: REMARK    2  A    between atoms: O_4  and  C_40 
DOCKED: REMARK    3  A    between atoms: O_7  and  C_46 
DOCKED: REMARK    4  A    between atoms: O_9  and  C_48 
DOCKED: REMARK    5  A    between atoms: C_15  and  C_20 
DOCKED: REMARK    6  A    between atoms: C_16  and  C_23 
DOCKED: REMARK    7  A    between atoms: C_20  and  C_38 
DOCKED: REMARK    8  A    between atoms: C_23  and  C_40 
DOCKED: REMARK    9  A    between atoms: C_32  and  C_41 
DOCKED: REMARK   10  A    between atoms: C_37  and  C_45 
DOCKED: REMARK   11  A    between atoms: C_41  and  C_44 
DOCKED: REMARK   12  A    between atoms: C_44  and  C_46 
DOCKED: REMARK   13  A    between atoms: C_47  and  C_48 
DOCKED: USER                              x       y       z     vdW  Elec       q    Type
DOCKED: USER                           _______ _______ _______ _____ _____    ______ ____
DOCKED: ROOT
DOCKED: ATOM      1  O   UNL d   1      -2.286  11.281 -15.589 -0.01 +0.01    -0.289 OA
DOCKED: ATOM      2  O   UNL d   1      -3.047  11.301  -8.118 -0.20 +0.16    -0.289 OA
DOCKED: ATOM      3  N   UNL d   1       0.030  12.724 -13.479 -0.11 +0.01    -0.247 NA
DOCKED: ATOM      4  N   UNL d   1      -1.253  12.509 -10.807 -0.10 +0.03    -0.247 NA
DOCKED: ATOM      5  N   UNL d   1       0.709  14.364  -9.818 -0.14 +0.03    -0.354 N 
DOCKED: ATOM      6  N   UNL d   1       2.021  14.597 -12.598 -0.11 +0.00    -0.354 N 
DOCKED: ATOM      7  C   UNL d   1      -0.269  12.624 -15.910 -0.04 -0.00    +0.084 A 
DOCKED: ATOM      8  C   UNL d   1      -2.866  10.702 -10.484 -0.21 -0.01    +0.084 A 
DOCKED: ATOM      9  C   UNL d   1      -1.944  11.488 -11.422 -0.15 -0.01    +0.058 A 
DOCKED: ATOM     10  C   UNL d   1       0.539  13.117 -14.705 -0.10 -0.00    +0.058 A 
DOCKED: ATOM     11  C   UNL d   1      -1.315  11.868 -15.147 -0.04 -0.01    +0.193 A 
DOCKED: ATOM     12  C   UNL d   1      -1.009  11.983 -13.686 -0.11 -0.01    +0.109 A 
DOCKED: ATOM     13  C   UNL d   1      -2.599  11.489  -9.232 -0.21 -0.05    +0.193 A 
DOCKED: ATOM     14  C   UNL d   1      -0.941  13.776 -16.661 -0.01 -0.00    +0.026 C 
DOCKED: ATOM     15  C   UNL d   1      -1.859  11.235 -12.737 -0.17 -0.00    +0.055 C 
DOCKED: ATOM     16  C   UNL d   1      -2.376   9.266 -10.278 -0.30 -0.00    +0.026 C 
DOCKED: ATOM     17  C   UNL d   1      -1.610  12.559  -9.564 -0.16 -0.02    +0.109 A 
DOCKED: ATOM     18  C   UNL d   1       1.691  13.795 -14.862 -0.11 -0.00    +0.050 C 
DOCKED: ATOM     19  C   UNL d   1       2.547  14.217 -13.812 -0.15 -0.00    +0.045 A 
DOCKED: ATOM     20  C   UNL d   1      -0.137  14.318  -8.740 -0.23 -0.01    +0.045 A 
DOCKED: ATOM     21  C   UNL d   1      -1.189  13.519  -8.534 -0.28 -0.01    +0.057 C 
DOCKED: ATOM     22  C   UNL d   1       1.432  15.939  -8.380 -0.22 +0.00    -0.019 A 
DOCKED: ATOM     23  C   UNL d   1       1.688  15.312  -9.692 -0.21 -0.00    +0.045 A 
DOCKED: ATOM     24  C   UNL d   1       0.351  15.345  -7.821 -0.21 +0.00    -0.022 A 
DOCKED: ATOM     25  C   UNL d   1       3.014  15.052 -11.762 -0.21 +0.00    +0.049 A 
DOCKED: ATOM     26  C   UNL d   1       3.920  14.394 -13.751 -0.17 -0.00    -0.018 A 
DOCKED: ATOM     27  C   UNL d   1       4.212  14.904 -12.448 -0.23 +0.00    +0.003 A 
DOCKED: ATOM     28  C   UNL d   1       2.698  15.646 -10.510 -0.23 +0.00    +0.052 C 
DOCKED: ATOM     29  C   UNL d   1      -0.286  15.621  -6.502 -0.18 -0.03    +0.046 C 
DOCKED: ATOM     30  C   UNL d   1       4.904  14.108 -14.835 -0.12 -0.00    +0.046 C 
DOCKED: ATOM     31  H   UNL d   1       0.633  13.693 -10.575 +0.02 -0.01    +0.166 HD
DOCKED: ATOM     32  H   UNL d   1       1.031  14.576 -12.385 +0.03 -0.00    +0.166 HD
DOCKED: ENDROOT
DOCKED: BRANCH   7  33
DOCKED: ATOM     33  C   UNL d   1       0.481  11.690 -16.866 -0.03 -0.01    +0.141 C 
DOCKED: BRANCH  33  34
DOCKED: ATOM     34  C   UNL d   1       1.580  10.923 -16.182 -0.05 -0.02    +0.306 C 
DOCKED: ATOM     35  O   UNL d   1       2.750  10.884 -16.523 -0.05 +0.01    -0.251 OA
DOCKED: BRANCH  34  36
DOCKED: ATOM     36  O   UNL d   1       1.147  10.247 -15.104 -0.05 +0.03    -0.481 OA
DOCKED: ATOM     37  H   UNL d   1       0.934  10.942 -14.446 +0.09 -0.02    +0.295 HD
DOCKED: ENDBRANCH  34  36
DOCKED: ENDBRANCH  33  34
DOCKED: ENDBRANCH   7  33
DOCKED: BRANCH  27  38
DOCKED: ATOM     38  C   UNL d   1       5.517  15.244 -11.968 -0.22 +0.00    +0.017 C 
DOCKED: ATOM     39  C   UNL d   1       6.597  14.449 -12.030 -0.28 +0.01    +0.092 C 
DOCKED: BRANCH  39  40
DOCKED: ATOM     40  C   UNL d   1       7.884  14.924 -11.517 -0.15 +0.02    +0.330 C 
DOCKED: ATOM     41  O   UNL d   1       8.640  14.348 -10.758 -0.25 -0.00    -0.246 OA
DOCKED: BRANCH  40  42
DOCKED: ATOM     42  O   UNL d   1       8.160  16.139 -12.016 -0.01 -0.01    -0.477 OA
DOCKED: ATOM     43  H   UNL d   1       9.078  16.054 -12.347 +0.05 -0.01    +0.295 HD
DOCKED: ENDBRANCH  40  42
DOCKED: ENDBRANCH  39  40
DOCKED: ENDBRANCH  27  38
DOCKED: BRANCH   8  44
DOCKED: ATOM     44  C   UNL d   1      -4.355  10.733 -10.844 -0.10 -0.02    +0.141 C 
DOCKED: BRANCH  44  45
DOCKED: ATOM     45  C   UNL d   1      -5.192   9.817  -9.992 -0.08 -0.02    +0.306 C 
DOCKED: ATOM     46  O   UNL d   1      -5.460   8.651 -10.225 -0.32 -0.08    -0.251 OA
DOCKED: BRANCH  45  47
DOCKED: ATOM     47  O   UNL d   1      -5.673  10.430  -8.895 -0.12 +0.21    -0.481 OA
DOCKED: ATOM     48  H   UNL d   1      -4.958  10.344  -8.229 -0.38 -0.41    +0.295 HD
DOCKED: ENDBRANCH  45  47
DOCKED: ENDBRANCH  44  45
DOCKED: ENDBRANCH   8  44
DOCKED: BRANCH  22  49
DOCKED: ATOM     49  C   UNL d   1       2.250  17.059  -7.807 -0.20 +0.01    +0.048 C 
DOCKED: BRANCH  49  50
DOCKED: ATOM     50  C   UNL d   1       1.372  18.192  -7.278 -0.08 +0.02    +0.125 C 
DOCKED: BRANCH  50  51
DOCKED: ATOM     51  C   UNL d   1       1.622  18.428  -5.816 -0.01 +0.14    +0.305 C 
DOCKED: ATOM     52  O   UNL d   1       1.202  17.776  -4.876 -0.63 -0.09    -0.251 OA
DOCKED: BRANCH  51  53
DOCKED: ATOM     53  O   UNL d   1       2.399  19.508  -5.605 -0.62 -0.31    -0.481 OA
DOCKED: ATOM     54  H   UNL d   1       1.786  20.266  -5.703 +0.03 +0.07    +0.295 HD
DOCKED: ENDBRANCH  51  53
DOCKED: ENDBRANCH  50  51
DOCKED: ENDBRANCH  49  50
DOCKED: ENDBRANCH  22  49
DOCKED: TORSDOF 13
DOCKED: TER
DOCKED: ENDMDL
________________________________________________________________________________


	BEGINNING GENETIC ALGORITHM DOCKING 34 of 100
Run: 34 Seed: 1840729174 1655048452 [ Run 34 of 100 GA/GALS ]
Beginning LAMARCKIAN GENETIC ALGORITHM (LGA), with a maximum of 25000000 energy evaluations.

Final-Value: -12.479


	FINAL GENETIC ALGORITHM DOCKED STATE
	_______________________________________________


Detailed state:  trans 3.468 -16.736 -7.793 quatxyzw 0.339024 -0.491514 -0.781416 -0.181290 center 0.153 0.018 -0.028 ntor 13 80.0758 113.5434 105.1707 -76.1284 -142.6104 42.1339 -47.1030 153.9532 51.0240 -123.8528 26.7332 -56.3459 95.5771
State:	  3.468 -16.736  -7.793   0.345 -0.500 -0.795 -159.110     80.08  113.54  105.17  -76.13 -142.61   42.13  -47.10  153.95   51.02 -123.85   26.73  -56.35   95.58

DOCKED: MODEL       34
DOCKED: USER    Run = 34
DOCKED: USER    DPF = D:/Protein_go_brrr/autodock/final/mut_Y35F/heme/dock.dpf
DOCKED: USER  
DOCKED: USER    Estimated Free Energy of Binding    =   -6.10 kcal/mol  [=(1)+(2)+(3)-(4)]
DOCKED: USER    Estimated Inhibition Constant, Ki   =   33.75 uM (micromolar)  [Temperature = 298.15 K]
DOCKED: USER    
DOCKED: USER    (1) Final Intermolecular Energy     =   -9.98 kcal/mol
DOCKED: USER        vdW + Hbond + desolv Energy     =   -9.67 kcal/mol
DOCKED: USER        Electrostatic Energy            =   -0.31 kcal/mol
DOCKED: USER    (2) Final Total Internal Energy     =   -2.50 kcal/mol
DOCKED: USER    (3) Torsional Free Energy           =   +3.88 kcal/mol
DOCKED: USER    (4) Unbound System's Energy  [=(2)] =   -2.50 kcal/mol
DOCKED: USER    
DOCKED: USER    
DOCKED: USER    NEWDPF move heme_opt.pdbqt
DOCKED: USER    NEWDPF about 0.153000 0.018000 -0.028000
DOCKED: USER    NEWDPF tran0 3.468333 -16.736098 -7.792820
DOCKED: USER    NEWDPF quaternion0 0.339024 -0.491514 -0.781416 -0.181290
DOCKED: USER    NEWDPF axisangle0 0.344737 -0.499795 -0.794582 -159.110199
DOCKED: USER    NEWDPF quat0 0.344737 -0.499795 -0.794582 -159.110199
DOCKED: USER    NEWDPF dihe0 80.08 113.54 105.17 -76.13 -142.61 42.13 -47.10 153.95 51.02 -123.85 26.73 -56.35 95.58 
DOCKED: USER  keepresnum = 1 
DOCKED: USER  
DOCKED: REMARK  13 active torsions:
DOCKED: REMARK  status: ('A' for Active; 'I' for Inactive)
DOCKED: REMARK    1  A    between atoms: O_3  and  C_38 
DOCKED: REMARK    2  A    between atoms: O_4  and  C_40 
DOCKED: REMARK    3  A    between atoms: O_7  and  C_46 
DOCKED: REMARK    4  A    between atoms: O_9  and  C_48 
DOCKED: REMARK    5  A    between atoms: C_15  and  C_20 
DOCKED: REMARK    6  A    between atoms: C_16  and  C_23 
DOCKED: REMARK    7  A    between atoms: C_20  and  C_38 
DOCKED: REMARK    8  A    between atoms: C_23  and  C_40 
DOCKED: REMARK    9  A    between atoms: C_32  and  C_41 
DOCKED: REMARK   10  A    between atoms: C_37  and  C_45 
DOCKED: REMARK   11  A    between atoms: C_41  and  C_44 
DOCKED: REMARK   12  A    between atoms: C_44  and  C_46 
DOCKED: REMARK   13  A    between atoms: C_47  and  C_48 
DOCKED: USER                              x       y       z     vdW  Elec       q    Type
DOCKED: USER                           _______ _______ _______ _____ _____    ______ ____
DOCKED: ROOT
DOCKED: ATOM      1  O   UNL d   1       6.878 -13.620  -4.129 -0.48 +0.32    -0.289 OA
DOCKED: ATOM      2  O   UNL d   1       6.700 -13.931 -11.630 -0.07 +0.07    -0.289 OA
DOCKED: ATOM      3  N   UNL d   1       4.766 -15.726  -5.862 -0.19 +0.08    -0.247 NA
DOCKED: ATOM      4  N   UNL d   1       5.188 -14.936  -8.695 -0.16 +0.10    -0.247 NA
DOCKED: ATOM      5  N   UNL d   1       2.829 -16.436  -9.368 +0.23 +0.18    -0.354 N 
DOCKED: ATOM      6  N   UNL d   1       2.388 -17.235  -6.424 -0.09 +0.17    -0.354 N 
DOCKED: ATOM      7  C   UNL d   1       5.060 -15.130  -3.503 -0.29 -0.03    +0.084 A 
DOCKED: ATOM      8  C   UNL d   1       7.343 -13.936  -9.268 -0.12 -0.04    +0.084 A 
DOCKED: ATOM      9  C   UNL d   1       6.385 -14.470  -8.198 -0.19 -0.03    +0.058 A 
DOCKED: ATOM     10  C   UNL d   1       4.311 -15.933  -4.570 -0.26 -0.02    +0.058 A 
DOCKED: ATOM     11  C   UNL d   1       6.031 -14.447  -4.417 -0.08 -0.09    +0.193 A 
DOCKED: ATOM     12  C   UNL d   1       5.768 -14.910  -5.817 -0.10 -0.04    +0.109 A 
DOCKED: ATOM     13  C   UNL d   1       6.454 -14.151 -10.460 -0.09 -0.06    +0.193 A 
DOCKED: ATOM     14  C   UNL d   1       4.168 -14.073  -2.848 -0.59 -0.01    +0.026 C 
DOCKED: ATOM     15  C   UNL d   1       6.669 -14.437  -6.887 -0.17 -0.03    +0.055 C 
DOCKED: ATOM     16  C   UNL d   1       8.583 -14.823  -9.413 -0.05 -0.01    +0.026 C 
DOCKED: ATOM     17  C   UNL d   1       5.175 -14.755  -9.977 -0.19 -0.04    +0.109 A 
DOCKED: ATOM     18  C   UNL d   1       3.358 -16.824  -4.240 -0.28 -0.01    +0.050 C 
DOCKED: ATOM     19  C   UNL d   1       2.672 -17.670  -5.149 -0.22 -0.02    +0.045 A 
DOCKED: ATOM     20  C   UNL d   1       3.048 -15.794 -10.559 -0.20 -0.02    +0.045 A 
DOCKED: ATOM     21  C   UNL d   1       4.088 -15.038 -10.925 -0.24 -0.02    +0.057 C 
DOCKED: ATOM     22  C   UNL d   1       1.050 -16.896 -10.670 -0.27 +0.00    -0.019 A 
DOCKED: ATOM     23  C   UNL d   1       1.648 -17.128  -9.340 -0.14 -0.02    +0.045 A 
DOCKED: ATOM     24  C   UNL d   1       1.884 -16.107 -11.388 -0.23 +0.01    -0.022 A 
DOCKED: ATOM     25  C   UNL d   1       1.643 -18.173  -7.100 -0.23 -0.02    +0.049 A 
DOCKED: ATOM     26  C   UNL d   1       2.130 -18.938  -5.005 -0.16 +0.01    -0.018 A 
DOCKED: ATOM     27  C   UNL d   1       1.499 -19.258  -6.247 -0.16 -0.00    +0.003 A 
DOCKED: ATOM     28  C   UNL d   1       1.096 -17.885  -8.380 -0.27 -0.02    +0.052 C 
DOCKED: ATOM     29  C   UNL d   1       1.726 -15.609 -12.784 -0.17 -0.01    +0.046 C 
DOCKED: ATOM     30  C   UNL d   1       2.195 -19.801  -3.791 -0.14 -0.01    +0.046 C 
DOCKED: ATOM     31  H   UNL d   1       3.532 -16.441  -8.637 -0.25 -0.09    +0.166 HD
DOCKED: ATOM     32  H   UNL d   1       2.664 -16.328  -6.780 -0.39 -0.13    +0.166 HD
DOCKED: ENDROOT
DOCKED: BRANCH   7  33
DOCKED: ATOM     33  C   UNL d   1       5.805 -15.965  -2.455 -0.21 -0.05    +0.141 C 
DOCKED: BRANCH  33  34
DOCKED: ATOM     34  C   UNL d   1       7.273 -16.098  -2.757 -0.09 -0.13    +0.306 C 
DOCKED: ATOM     35  O   UNL d   1       7.792 -16.961  -3.444 -0.03 +0.09    -0.251 OA
DOCKED: BRANCH  34  36
DOCKED: ATOM     36  O   UNL d   1       8.010 -15.134  -2.178 -0.37 +0.28    -0.481 OA
DOCKED: ATOM     37  H   UNL d   1       8.209 -14.506  -2.905 -0.35 -0.41    +0.295 HD
DOCKED: ENDBRANCH  34  36
DOCKED: ENDBRANCH  33  34
DOCKED: ENDBRANCH   7  33
DOCKED: BRANCH  27  38
DOCKED: ATOM     38  C   UNL d   1       0.798 -20.476  -6.526 -0.09 -0.01    +0.017 C 
DOCKED: ATOM     39  C   UNL d   1      -0.096 -20.646  -7.512 -0.08 -0.06    +0.092 C 
DOCKED: BRANCH  39  40
DOCKED: ATOM     40  C   UNL d   1      -0.731 -21.952  -7.703 -0.04 -0.13    +0.330 C 
DOCKED: ATOM     41  O   UNL d   1      -1.128 -22.719  -6.846 -0.05 +0.09    -0.246 OA
DOCKED: BRANCH  40  42
DOCKED: ATOM     42  O   UNL d   1      -0.844 -22.224  -9.013 +0.01 +0.07    -0.477 OA
DOCKED: ATOM     43  H   UNL d   1      -1.483 -21.557  -9.337 +0.07 -0.04    +0.295 HD
DOCKED: ENDBRANCH  40  42
DOCKED: ENDBRANCH  39  40
DOCKED: ENDBRANCH  27  38
DOCKED: BRANCH   8  44
DOCKED: ATOM     44  C   UNL d   1       7.730 -12.460  -9.131 -0.21 -0.10    +0.141 C 
DOCKED: BRANCH  44  45
DOCKED: ATOM     45  C   UNL d   1       8.544 -11.949 -10.289 -0.07 -0.14    +0.306 C 
DOCKED: ATOM     46  O   UNL d   1       9.760 -11.942 -10.375 -0.03 +0.11    -0.251 OA
DOCKED: BRANCH  45  47
DOCKED: ATOM     47  O   UNL d   1       7.779 -11.445 -11.274 -0.45 +0.09    -0.481 OA
DOCKED: ATOM     48  H   UNL d   1       7.406 -12.232 -11.725 +0.07 -0.05    +0.295 HD
DOCKED: ENDBRANCH  45  47
DOCKED: ENDBRANCH  44  45
DOCKED: ENDBRANCH   8  44
DOCKED: BRANCH  22  49
DOCKED: ATOM     49  C   UNL d   1      -0.274 -17.450 -11.107 -0.28 -0.00    +0.048 C 
DOCKED: BRANCH  49  50
DOCKED: ATOM     50  C   UNL d   1      -1.064 -18.028  -9.933 -0.26 -0.02    +0.125 C 
DOCKED: BRANCH  50  51
DOCKED: ATOM     51  C   UNL d   1      -1.991 -19.117 -10.394 -0.25 +0.03    +0.305 C 
DOCKED: ATOM     52  O   UNL d   1      -2.337 -20.109  -9.776 -0.20 +0.01    -0.251 OA
DOCKED: BRANCH  51  53
DOCKED: ATOM     53  O   UNL d   1      -2.438 -18.902 -11.647 -0.57 -0.22    -0.481 OA
DOCKED: ATOM     54  H   UNL d   1      -1.913 -19.522 -12.196 +0.08 +0.11    +0.295 HD
DOCKED: ENDBRANCH  51  53
DOCKED: ENDBRANCH  50  51
DOCKED: ENDBRANCH  49  50
DOCKED: ENDBRANCH  22  49
DOCKED: TORSDOF 13
DOCKED: TER
DOCKED: ENDMDL
________________________________________________________________________________


	BEGINNING GENETIC ALGORITHM DOCKING 35 of 100
Run: 35 Seed: 716589527 1436476287 [ Run 35 of 100 GA/GALS ]
Beginning LAMARCKIAN GENETIC ALGORITHM (LGA), with a maximum of 25000000 energy evaluations.

Final-Value: -10.975


	FINAL GENETIC ALGORITHM DOCKED STATE
	_______________________________________________


Detailed state:  trans 3.443 -16.543 5.380 quatxyzw -0.765760 -0.533051 0.163278 -0.320637 center 0.153 0.018 -0.028 ntor 13 151.2652 -81.0781 179.8335 -69.2498 -139.3930 -165.3598 143.4139 -101.7870 17.8771 -9.1600 47.9251 -34.4195 16.3528
State:	  3.443 -16.543   5.380  -0.808 -0.563  0.172 -142.597    151.27  -81.08  179.83  -69.25 -139.39 -165.36  143.41 -101.79   17.88   -9.16   47.93  -34.42   16.35

DOCKED: MODEL       35
DOCKED: USER    Run = 35
DOCKED: USER    DPF = D:/Protein_go_brrr/autodock/final/mut_Y35F/heme/dock.dpf
DOCKED: USER  
DOCKED: USER    Estimated Free Energy of Binding    =   -4.50 kcal/mol  [=(1)+(2)+(3)-(4)]
DOCKED: USER    Estimated Inhibition Constant, Ki   =  499.94 uM (micromolar)  [Temperature = 298.15 K]
DOCKED: USER    
DOCKED: USER    (1) Final Intermolecular Energy     =   -8.38 kcal/mol
DOCKED: USER        vdW + Hbond + desolv Energy     =   -8.39 kcal/mol
DOCKED: USER        Electrostatic Energy            =   +0.01 kcal/mol
DOCKED: USER    (2) Final Total Internal Energy     =   -2.59 kcal/mol
DOCKED: USER    (3) Torsional Free Energy           =   +3.88 kcal/mol
DOCKED: USER    (4) Unbound System's Energy  [=(2)] =   -2.59 kcal/mol
DOCKED: USER    
DOCKED: USER    
DOCKED: USER    NEWDPF move heme_opt.pdbqt
DOCKED: USER    NEWDPF about 0.153000 0.018000 -0.028000
DOCKED: USER    NEWDPF tran0 3.443356 -16.543084 5.380163
DOCKED: USER    NEWDPF quaternion0 -0.765760 -0.533051 0.163278 -0.320637
DOCKED: USER    NEWDPF axisangle0 -0.808444 -0.562764 0.172379 -142.597115
DOCKED: USER    NEWDPF quat0 -0.808444 -0.562764 0.172379 -142.597115
DOCKED: USER    NEWDPF dihe0 151.27 -81.08 179.83 -69.25 -139.39 -165.36 143.41 -101.79 17.88 -9.16 47.93 -34.42 16.35 
DOCKED: USER  keepresnum = 1 
DOCKED: USER  
DOCKED: REMARK  13 active torsions:
DOCKED: REMARK  status: ('A' for Active; 'I' for Inactive)
DOCKED: REMARK    1  A    between atoms: O_3  and  C_38 
DOCKED: REMARK    2  A    between atoms: O_4  and  C_40 
DOCKED: REMARK    3  A    between atoms: O_7  and  C_46 
DOCKED: REMARK    4  A    between atoms: O_9  and  C_48 
DOCKED: REMARK    5  A    between atoms: C_15  and  C_20 
DOCKED: REMARK    6  A    between atoms: C_16  and  C_23 
DOCKED: REMARK    7  A    between atoms: C_20  and  C_38 
DOCKED: REMARK    8  A    between atoms: C_23  and  C_40 
DOCKED: REMARK    9  A    between atoms: C_32  and  C_41 
DOCKED: REMARK   10  A    between atoms: C_37  and  C_45 
DOCKED: REMARK   11  A    between atoms: C_41  and  C_44 
DOCKED: REMARK   12  A    between atoms: C_44  and  C_46 
DOCKED: REMARK   13  A    between atoms: C_47  and  C_48 
DOCKED: USER                              x       y       z     vdW  Elec       q    Type
DOCKED: USER                           _______ _______ _______ _____ _____    ______ ____
DOCKED: ROOT
DOCKED: ATOM      1  O   UNL d   1       2.139 -21.888   3.262 -0.02 +0.00    -0.289 OA
DOCKED: ATOM      2  O   UNL d   1      -0.076 -18.395   9.530 -0.01 +0.01    -0.289 OA
DOCKED: ATOM      3  N   UNL d   1       3.289 -18.765   4.166 -0.08 +0.07    -0.247 NA
DOCKED: ATOM      4  N   UNL d   1       1.660 -18.104   6.562 -0.05 +0.05    -0.247 NA
DOCKED: ATOM      5  N   UNL d   1       2.566 -15.386   6.314 -0.01 +0.11    -0.354 N 
DOCKED: ATOM      6  N   UNL d   1       4.237 -16.076   3.817 -0.17 +0.14    -0.354 N 
DOCKED: ATOM      7  C   UNL d   1       3.547 -20.199   2.195 -0.10 -0.01    +0.084 A 
DOCKED: ATOM      8  C   UNL d   1       0.787 -19.974   7.870 -0.02 -0.00    +0.084 A 
DOCKED: ATOM      9  C   UNL d   1       1.529 -19.473   6.626 -0.07 -0.01    +0.058 A 
DOCKED: ATOM     10  C   UNL d   1       3.858 -18.879   2.908 -0.18 -0.01    +0.058 A 
DOCKED: ATOM     11  C   UNL d   1       2.718 -20.817   3.280 -0.06 -0.01    +0.193 A 
DOCKED: ATOM     12  C   UNL d   1       2.657 -19.861   4.431 -0.10 -0.02    +0.109 A 
DOCKED: ATOM     13  C   UNL d   1       0.489 -18.633   8.480 -0.02 -0.01    +0.193 A 
DOCKED: ATOM     14  C   UNL d   1       2.670 -19.991   0.958 -0.20 -0.00    +0.026 C 
DOCKED: ATOM     15  C   UNL d   1       1.965 -20.297   5.661 -0.08 -0.01    +0.055 C 
DOCKED: ATOM     16  C   UNL d   1       1.714 -20.748   8.811 -0.01 -0.00    +0.026 C 
DOCKED: ATOM     17  C   UNL d   1       1.065 -17.584   7.586 -0.09 -0.01    +0.109 A 
DOCKED: ATOM     18  C   UNL d   1       4.690 -17.968   2.370 -0.23 -0.01    +0.050 C 
DOCKED: ATOM     19  C   UNL d   1       5.100 -16.761   2.992 -0.26 -0.01    +0.045 A 
DOCKED: ATOM     20  C   UNL d   1       1.596 -15.225   7.269 -0.12 -0.01    +0.045 A 
DOCKED: ATOM     21  C   UNL d   1       0.889 -16.160   7.911 -0.12 -0.00    +0.057 C 
DOCKED: ATOM     22  C   UNL d   1       2.357 -13.167   6.635 -0.30 +0.00    -0.019 A 
DOCKED: ATOM     23  C   UNL d   1       3.085 -14.199   5.870 -0.29 -0.01    +0.045 A 
DOCKED: ATOM     24  C   UNL d   1       1.478 -13.781   7.462 -0.21 +0.00    -0.022 A 
DOCKED: ATOM     25  C   UNL d   1       4.805 -14.895   4.237 -0.25 -0.02    +0.049 A 
DOCKED: ATOM     26  C   UNL d   1       6.271 -16.025   2.902 -0.25 +0.00    -0.018 A 
DOCKED: ATOM     27  C   UNL d   1       6.087 -14.858   3.705 -0.26 -0.00    +0.003 A 
DOCKED: ATOM     28  C   UNL d   1       4.047 -13.943   4.971 -0.28 -0.02    +0.052 C 
DOCKED: ATOM     29  C   UNL d   1       0.530 -13.168   8.437 -0.17 -0.00    +0.046 C 
DOCKED: ATOM     30  C   UNL d   1       7.490 -16.382   2.120 -0.18 -0.01    +0.046 C 
DOCKED: ATOM     31  H   UNL d   1       2.895 -16.309   6.049 -0.36 -0.07    +0.166 HD
DOCKED: ATOM     32  H   UNL d   1       3.302 -16.396   4.039 -0.42 -0.13    +0.166 HD
DOCKED: ENDROOT
DOCKED: BRANCH   7  33
DOCKED: ATOM     33  C   UNL d   1       4.763 -21.077   1.881 -0.03 -0.01    +0.141 C 
DOCKED: BRANCH  33  34
DOCKED: ATOM     34  C   UNL d   1       5.442 -21.592   3.121 -0.00 -0.02    +0.306 C 
DOCKED: ATOM     35  O   UNL d   1       6.288 -21.007   3.775 -0.00 +0.02    -0.251 OA
DOCKED: BRANCH  34  36
DOCKED: ATOM     36  O   UNL d   1       5.016 -22.819   3.473 +0.00 +0.02    -0.481 OA
DOCKED: ATOM     37  H   UNL d   1       4.081 -22.849   3.179 +0.01 -0.01    +0.295 HD
DOCKED: ENDBRANCH  34  36
DOCKED: ENDBRANCH  33  34
DOCKED: ENDBRANCH   7  33
DOCKED: BRANCH  27  38
DOCKED: ATOM     38  C   UNL d   1       7.052 -13.814   3.880 -0.31 -0.00    +0.017 C 
DOCKED: ATOM     39  C   UNL d   1       6.896 -12.739   4.667 -0.32 -0.01    +0.092 C 
DOCKED: BRANCH  39  40
DOCKED: ATOM     40  C   UNL d   1       7.971 -11.749   4.772 -0.24 -0.06    +0.330 C 
DOCKED: ATOM     41  O   UNL d   1       8.078 -10.850   5.584 -0.30 +0.08    -0.246 OA
DOCKED: BRANCH  40  42
DOCKED: ATOM     42  O   UNL d   1       8.891 -11.963   3.818 -0.43 +0.18    -0.477 OA
DOCKED: ATOM     43  H   UNL d   1       8.660 -11.316   3.120 -0.34 -0.11    +0.295 HD
DOCKED: ENDBRANCH  40  42
DOCKED: ENDBRANCH  39  40
DOCKED: ENDBRANCH  27  38
DOCKED: BRANCH   8  44
DOCKED: ATOM     44  C   UNL d   1      -0.505 -20.753   7.599 -0.01 -0.00    +0.141 C 
DOCKED: BRANCH  44  45
DOCKED: ATOM     45  C   UNL d   1      -1.526 -19.960   6.828 -0.02 -0.01    +0.306 C 
DOCKED: ATOM     46  O   UNL d   1      -1.747 -20.029   5.631 -0.06 +0.00    -0.251 OA
DOCKED: BRANCH  45  47
DOCKED: ATOM     47  O   UNL d   1      -2.203 -19.097   7.607 +0.01 +0.01    -0.481 OA
DOCKED: ATOM     48  H   UNL d   1      -1.840 -19.238   8.507 +0.03 -0.01    +0.295 HD
DOCKED: ENDBRANCH  45  47
DOCKED: ENDBRANCH  44  45
DOCKED: ENDBRANCH   8  44
DOCKED: BRANCH  22  49
DOCKED: ATOM     49  C   UNL d   1       2.576 -11.691   6.478 -0.40 -0.01    +0.048 C 
DOCKED: BRANCH  49  50
DOCKED: ATOM     50  C   UNL d   1       3.963 -11.267   6.961 -0.19 -0.02    +0.125 C 
DOCKED: BRANCH  50  51
DOCKED: ATOM     51  C   UNL d   1       3.873 -10.080   7.877 -0.13 -0.01    +0.305 C 
DOCKED: ATOM     52  O   UNL d   1       4.204  -8.931   7.640 -0.76 -0.04    -0.251 OA
DOCKED: BRANCH  51  53
DOCKED: ATOM     53  O   UNL d   1       3.367 -10.411   9.082 -0.02 +0.04    -0.481 OA
DOCKED: ATOM     54  H   UNL d   1       4.129 -10.323   9.692 +0.07 -0.03    +0.295 HD
DOCKED: ENDBRANCH  51  53
DOCKED: ENDBRANCH  50  51
DOCKED: ENDBRANCH  49  50
DOCKED: ENDBRANCH  22  49
DOCKED: TORSDOF 13
DOCKED: TER
DOCKED: ENDMDL
________________________________________________________________________________


	BEGINNING GENETIC ALGORITHM DOCKING 36 of 100
Run: 36 Seed: 269213184 703481395 [ Run 36 of 100 GA/GALS ]
Beginning LAMARCKIAN GENETIC ALGORITHM (LGA), with a maximum of 25000000 energy evaluations.

Final-Value: -12.129


	FINAL GENETIC ALGORITHM DOCKED STATE
	_______________________________________________


Detailed state:  trans 14.369 8.974 -15.804 quatxyzw 0.026462 -0.576538 0.700574 0.419642 center 0.153 0.018 -0.028 ntor 13 139.1921 148.7051 -121.0503 -81.3403 -136.4931 111.2236 131.7837 -14.2209 18.6413 -10.6778 -71.6721 -128.3336 16.8020
State:	 14.369   8.974 -15.804   0.029 -0.635  0.772 130.376    139.19  148.71 -121.05  -81.34 -136.49  111.22  131.78  -14.22   18.64  -10.68  -71.67 -128.33   16.80

DOCKED: MODEL       36
DOCKED: USER    Run = 36
DOCKED: USER    DPF = D:/Protein_go_brrr/autodock/final/mut_Y35F/heme/dock.dpf
DOCKED: USER  
DOCKED: USER    Estimated Free Energy of Binding    =   -3.54 kcal/mol  [=(1)+(2)+(3)-(4)]
DOCKED: USER    Estimated Inhibition Constant, Ki   =    2.56 mM (millimolar)  [Temperature = 298.15 K]
DOCKED: USER    
DOCKED: USER    (1) Final Intermolecular Energy     =   -7.41 kcal/mol
DOCKED: USER        vdW + Hbond + desolv Energy     =   -7.36 kcal/mol
DOCKED: USER        Electrostatic Energy            =   -0.05 kcal/mol
DOCKED: USER    (2) Final Total Internal Energy     =   -4.72 kcal/mol
DOCKED: USER    (3) Torsional Free Energy           =   +3.88 kcal/mol
DOCKED: USER    (4) Unbound System's Energy  [=(2)] =   -4.72 kcal/mol
DOCKED: USER    
DOCKED: USER    
DOCKED: USER    NEWDPF move heme_opt.pdbqt
DOCKED: USER    NEWDPF about 0.153000 0.018000 -0.028000
DOCKED: USER    NEWDPF tran0 14.369033 8.974251 -15.803882
DOCKED: USER    NEWDPF quaternion0 0.026462 -0.576538 0.700574 0.419642
DOCKED: USER    NEWDPF axisangle0 0.029153 -0.635171 0.771821 130.376032
DOCKED: USER    NEWDPF quat0 0.029153 -0.635171 0.771821 130.376032
DOCKED: USER    NEWDPF dihe0 139.19 148.71 -121.05 -81.34 -136.49 111.22 131.78 -14.22 18.64 -10.68 -71.67 -128.33 16.80 
DOCKED: USER  keepresnum = 1 
DOCKED: USER  
DOCKED: REMARK  13 active torsions:
DOCKED: REMARK  status: ('A' for Active; 'I' for Inactive)
DOCKED: REMARK    1  A    between atoms: O_3  and  C_38 
DOCKED: REMARK    2  A    between atoms: O_4  and  C_40 
DOCKED: REMARK    3  A    between atoms: O_7  and  C_46 
DOCKED: REMARK    4  A    between atoms: O_9  and  C_48 
DOCKED: REMARK    5  A    between atoms: C_15  and  C_20 
DOCKED: REMARK    6  A    between atoms: C_16  and  C_23 
DOCKED: REMARK    7  A    between atoms: C_20  and  C_38 
DOCKED: REMARK    8  A    between atoms: C_23  and  C_40 
DOCKED: REMARK    9  A    between atoms: C_32  and  C_41 
DOCKED: REMARK   10  A    between atoms: C_37  and  C_45 
DOCKED: REMARK   11  A    between atoms: C_41  and  C_44 
DOCKED: REMARK   12  A    between atoms: C_44  and  C_46 
DOCKED: REMARK   13  A    between atoms: C_47  and  C_48 
DOCKED: USER                              x       y       z     vdW  Elec       q    Type
DOCKED: USER                           _______ _______ _______ _____ _____    ______ ____
DOCKED: ROOT
DOCKED: ATOM      1  O   UNL d   1      19.275  11.964 -14.482 -0.05 +0.04    -0.289 OA
DOCKED: ATOM      2  O   UNL d   1      12.562  11.776 -11.122 -0.15 +0.11    -0.289 OA
DOCKED: ATOM      3  N   UNL d   1      16.620  10.140 -15.714 -0.09 +0.07    -0.247 NA
DOCKED: ATOM      4  N   UNL d   1      14.552  10.432 -13.601 -0.14 +0.07    -0.247 NA
DOCKED: ATOM      5  N   UNL d   1      13.101   8.290 -14.854 -0.10 +0.11    -0.354 N 
DOCKED: ATOM      6  N   UNL d   1      15.261   7.980 -17.031 -0.06 +0.11    -0.354 N 
DOCKED: ATOM      7  C   UNL d   1      18.986  10.369 -16.312 -0.10 -0.01    +0.084 A 
DOCKED: ATOM      8  C   UNL d   1      14.661  12.431 -12.199 -0.10 -0.02    +0.084 A 
DOCKED: ATOM      9  C   UNL d   1      15.281  11.560 -13.296 -0.15 -0.01    +0.058 A 
DOCKED: ATOM     10  C   UNL d   1      17.621   9.726 -16.576 -0.15 -0.01    +0.058 A 
DOCKED: ATOM     11  C   UNL d   1      18.574  11.234 -15.159 -0.05 -0.02    +0.193 A 
DOCKED: ATOM     12  C   UNL d   1      17.112  11.025 -14.910 -0.06 -0.02    +0.109 A 
DOCKED: ATOM     13  C   UNL d   1      13.463  11.569 -11.911 -0.15 -0.06    +0.193 A 
DOCKED: ATOM     14  C   UNL d   1      20.017   9.349 -15.822 -0.14 -0.00    +0.026 C 
DOCKED: ATOM     15  C   UNL d   1      16.459  11.847 -13.872 -0.13 -0.01    +0.055 C 
DOCKED: ATOM     16  C   UNL d   1      14.178  13.777 -12.747 -0.04 -0.00    +0.026 C 
DOCKED: ATOM     17  C   UNL d   1      13.519  10.386 -12.822 -0.26 -0.03    +0.109 A 
DOCKED: ATOM     18  C   UNL d   1      17.423   8.902 -17.623 -0.14 -0.01    +0.050 C 
DOCKED: ATOM     19  C   UNL d   1      16.181   8.328 -17.994 -0.12 -0.01    +0.045 A 
DOCKED: ATOM     20  C   UNL d   1      12.383   8.412 -13.693 -0.35 -0.01    +0.045 A 
DOCKED: ATOM     21  C   UNL d   1      12.490   9.340 -12.736 -0.29 -0.01    +0.057 C 
DOCKED: ATOM     22  C   UNL d   1      11.636   6.578 -14.832 -0.36 +0.00    -0.019 A 
DOCKED: ATOM     23  C   UNL d   1      12.721   7.211 -15.608 -0.26 -0.01    +0.045 A 
DOCKED: ATOM     24  C   UNL d   1      11.440   7.295 -13.700 -0.44 +0.00    -0.022 A 
DOCKED: ATOM     25  C   UNL d   1      14.173   7.362 -17.603 -0.16 -0.01    +0.049 A 
DOCKED: ATOM     26  C   UNL d   1      15.662   7.961 -19.226 -0.05 +0.00    -0.018 A 
DOCKED: ATOM     27  C   UNL d   1      14.385   7.369 -18.975 -0.07 -0.00    +0.003 A 
DOCKED: ATOM     28  C   UNL d   1      13.162   6.772 -16.797 -0.24 -0.01    +0.052 C 
DOCKED: ATOM     29  C   UNL d   1      10.452   7.061 -12.608 -0.49 -0.01    +0.046 C 
DOCKED: ATOM     30  C   UNL d   1      16.309   8.149 -20.557 -0.02 -0.00    +0.046 C 
DOCKED: ATOM     31  H   UNL d   1      13.778   8.992 -15.130 -0.18 -0.07    +0.166 HD
DOCKED: ATOM     32  H   UNL d   1      15.404   8.129 -16.040 -0.51 -0.13    +0.166 HD
DOCKED: ENDROOT
DOCKED: BRANCH   7  33
DOCKED: ATOM     33  C   UNL d   1      19.541  11.225 -17.455 -0.02 -0.02    +0.141 C 
DOCKED: BRANCH  33  34
DOCKED: ATOM     34  C   UNL d   1      18.720  12.461 -17.704 -0.00 -0.03    +0.306 C 
DOCKED: ATOM     35  O   UNL d   1      17.696  12.525 -18.363 -0.00 +0.02    -0.251 OA
DOCKED: BRANCH  34  36
DOCKED: ATOM     36  O   UNL d   1      19.232  13.553 -17.108 +0.00 +0.04    -0.481 OA
DOCKED: ATOM     37  H   UNL d   1      19.491  13.246 -16.213 +0.01 -0.03    +0.295 HD
DOCKED: ENDBRANCH  34  36
DOCKED: ENDBRANCH  33  34
DOCKED: ENDBRANCH   7  33
DOCKED: BRANCH  27  38
DOCKED: ATOM     38  C   UNL d   1      13.512   6.835 -19.976 -0.04 -0.00    +0.017 C 
DOCKED: ATOM     39  C   UNL d   1      13.537   5.574 -20.433 -0.04 -0.01    +0.092 C 
DOCKED: BRANCH  39  40
DOCKED: ATOM     40  C   UNL d   1      12.573   5.147 -21.451 -0.01 -0.02    +0.330 C 
DOCKED: ATOM     41  O   UNL d   1      12.791   4.888 -22.619 -0.00 +0.02    -0.246 OA
DOCKED: BRANCH  40  42
DOCKED: ATOM     42  O   UNL d   1      11.345   5.059 -20.916 -0.00 +0.03    -0.477 OA
DOCKED: ATOM     43  H   UNL d   1      11.512   4.802 -19.986 +0.03 -0.02    +0.295 HD
DOCKED: ENDBRANCH  40  42
DOCKED: ENDBRANCH  39  40
DOCKED: ENDBRANCH  27  38
DOCKED: BRANCH   8  44
DOCKED: ATOM     44  C   UNL d   1      15.517  12.618 -10.942 -0.11 -0.03    +0.141 C 
DOCKED: BRANCH  44  45
DOCKED: ATOM     45  C   UNL d   1      15.834  11.325 -10.241 -0.21 -0.09    +0.306 C 
DOCKED: ATOM     46  O   UNL d   1      16.778  10.587 -10.468 -0.26 +0.07    -0.251 OA
DOCKED: BRANCH  45  47
DOCKED: ATOM     47  O   UNL d   1      14.924  11.011  -9.301 -0.12 +0.23    -0.481 OA
DOCKED: ATOM     48  H   UNL d   1      14.072  10.969  -9.785 -0.39 -0.24    +0.295 HD
DOCKED: ENDBRANCH  45  47
DOCKED: ENDBRANCH  44  45
DOCKED: ENDBRANCH   8  44
DOCKED: BRANCH  22  49
DOCKED: ATOM     49  C   UNL d   1      10.909   5.336 -15.257 -0.25 -0.00    +0.048 C 
DOCKED: BRANCH  49  50
DOCKED: ATOM     50  C   UNL d   1      10.072   5.570 -16.514 -0.20 -0.01    +0.125 C 
DOCKED: BRANCH  50  51
DOCKED: ATOM     51  C   UNL d   1      10.672   4.867 -17.698 -0.08 -0.02    +0.305 C 
DOCKED: ATOM     52  O   UNL d   1      11.821   4.483 -17.830 -0.07 +0.01    -0.251 OA
DOCKED: BRANCH  51  53
DOCKED: ATOM     53  O   UNL d   1       9.774   4.687 -18.687 -0.01 +0.03    -0.481 OA
DOCKED: ATOM     54  H   UNL d   1       9.953   5.424 -19.308 +0.03 -0.02    +0.295 HD
DOCKED: ENDBRANCH  51  53
DOCKED: ENDBRANCH  50  51
DOCKED: ENDBRANCH  49  50
DOCKED: ENDBRANCH  22  49
DOCKED: TORSDOF 13
DOCKED: TER
DOCKED: ENDMDL
________________________________________________________________________________


	BEGINNING GENETIC ALGORITHM DOCKING 37 of 100
Run: 37 Seed: 1755477922 181643144 [ Run 37 of 100 GA/GALS ]
Beginning LAMARCKIAN GENETIC ALGORITHM (LGA), with a maximum of 25000000 energy evaluations.

Final-Value: -11.853


	FINAL GENETIC ALGORITHM DOCKED STATE
	_______________________________________________


Detailed state:  trans 12.202 12.060 6.526 quatxyzw -0.289907 0.664688 0.432023 0.536189 center 0.153 0.018 -0.028 ntor 13 131.3438 -162.7688 82.1625 43.6258 -133.4894 74.2631 133.4161 -111.2388 24.6533 11.0340 -84.2490 -97.2777 -5.5282
State:	 12.202  12.060   6.526  -0.343  0.787  0.512 115.151    131.34 -162.77   82.16   43.63 -133.49   74.26  133.42 -111.24   24.65   11.03  -84.25  -97.28   -5.53

DOCKED: MODEL       37
DOCKED: USER    Run = 37
DOCKED: USER    DPF = D:/Protein_go_brrr/autodock/final/mut_Y35F/heme/dock.dpf
DOCKED: USER  
DOCKED: USER    Estimated Free Energy of Binding    =   -3.83 kcal/mol  [=(1)+(2)+(3)-(4)]
DOCKED: USER    Estimated Inhibition Constant, Ki   =    1.55 mM (millimolar)  [Temperature = 298.15 K]
DOCKED: USER    
DOCKED: USER    (1) Final Intermolecular Energy     =   -7.71 kcal/mol
DOCKED: USER        vdW + Hbond + desolv Energy     =   -7.23 kcal/mol
DOCKED: USER        Electrostatic Energy            =   -0.48 kcal/mol
DOCKED: USER    (2) Final Total Internal Energy     =   -4.14 kcal/mol
DOCKED: USER    (3) Torsional Free Energy           =   +3.88 kcal/mol
DOCKED: USER    (4) Unbound System's Energy  [=(2)] =   -4.14 kcal/mol
DOCKED: USER    
DOCKED: USER    
DOCKED: USER    NEWDPF move heme_opt.pdbqt
DOCKED: USER    NEWDPF about 0.153000 0.018000 -0.028000
DOCKED: USER    NEWDPF tran0 12.202005 12.060095 6.525927
DOCKED: USER    NEWDPF quaternion0 -0.289907 0.664688 0.432023 0.536189
DOCKED: USER    NEWDPF axisangle0 -0.343452 0.787454 0.511817 115.150793
DOCKED: USER    NEWDPF quat0 -0.343452 0.787454 0.511817 115.150793
DOCKED: USER    NEWDPF dihe0 131.34 -162.77 82.16 43.63 -133.49 74.26 133.42 -111.24 24.65 11.03 -84.25 -97.28 -5.53 
DOCKED: USER  keepresnum = 1 
DOCKED: USER  
DOCKED: REMARK  13 active torsions:
DOCKED: REMARK  status: ('A' for Active; 'I' for Inactive)
DOCKED: REMARK    1  A    between atoms: O_3  and  C_38 
DOCKED: REMARK    2  A    between atoms: O_4  and  C_40 
DOCKED: REMARK    3  A    between atoms: O_7  and  C_46 
DOCKED: REMARK    4  A    between atoms: O_9  and  C_48 
DOCKED: REMARK    5  A    between atoms: C_15  and  C_20 
DOCKED: REMARK    6  A    between atoms: C_16  and  C_23 
DOCKED: REMARK    7  A    between atoms: C_20  and  C_38 
DOCKED: REMARK    8  A    between atoms: C_23  and  C_40 
DOCKED: REMARK    9  A    between atoms: C_32  and  C_41 
DOCKED: REMARK   10  A    between atoms: C_37  and  C_45 
DOCKED: REMARK   11  A    between atoms: C_41  and  C_44 
DOCKED: REMARK   12  A    between atoms: C_44  and  C_46 
DOCKED: REMARK   13  A    between atoms: C_47  and  C_48 
DOCKED: USER                              x       y       z     vdW  Elec       q    Type
DOCKED: USER                           _______ _______ _______ _____ _____    ______ ____
DOCKED: ROOT
DOCKED: ATOM      1  O   UNL d   1      13.151  17.767   5.394 -0.01 +0.03    -0.289 OA
DOCKED: ATOM      2  O   UNL d   1      14.028  11.677   1.090 -0.95 -0.02    -0.289 OA
DOCKED: ATOM      3  N   UNL d   1      12.588  14.567   6.549 -0.05 +0.00    -0.247 NA
DOCKED: ATOM      4  N   UNL d   1      12.888  12.897   4.109 -0.07 +0.02    -0.247 NA
DOCKED: ATOM      5  N   UNL d   1      11.687  10.725   5.561 -0.04 -0.02    -0.354 N 
DOCKED: ATOM      6  N   UNL d   1      11.363  12.470   8.081 +0.04 -0.04    -0.354 N 
DOCKED: ATOM      7  C   UNL d   1      12.269  16.817   7.466 -0.07 -0.00    +0.084 A 
DOCKED: ATOM      8  C   UNL d   1      14.308  13.772   2.323 -0.25 -0.01    +0.084 A 
DOCKED: ATOM      9  C   UNL d   1      13.626  13.978   3.680 -0.09 -0.01    +0.058 A 
DOCKED: ATOM     10  C   UNL d   1      12.150  15.300   7.639 -0.11 -0.00    +0.058 A 
DOCKED: ATOM     11  C   UNL d   1      12.869  16.811   6.092 -0.02 -0.02    +0.193 A 
DOCKED: ATOM     12  C   UNL d   1      13.037  15.388   5.657 -0.04 -0.01    +0.109 A 
DOCKED: ATOM     13  C   UNL d   1      13.790  12.389   2.045 -0.32 -0.02    +0.193 A 
DOCKED: ATOM     14  C   UNL d   1      10.899  17.498   7.404 -0.17 -0.00    +0.026 C 
DOCKED: ATOM     15  C   UNL d   1      13.701  15.131   4.363 -0.05 -0.01    +0.055 C 
DOCKED: ATOM     16  C   UNL d   1      15.832  13.709   2.458 -0.24 -0.00    +0.026 C 
DOCKED: ATOM     17  C   UNL d   1      12.936  11.977   3.200 -0.23 -0.01    +0.109 A 
DOCKED: ATOM     18  C   UNL d   1      11.736  14.755   8.798 -0.18 +0.00    +0.050 C 
DOCKED: ATOM     19  C   UNL d   1      11.675  13.366   9.078 -0.16 +0.01    +0.045 A 
DOCKED: ATOM     20  C   UNL d   1      11.694  10.190   4.299 -0.23 -0.00    +0.045 A 
DOCKED: ATOM     21  C   UNL d   1      12.254  10.675   3.186 -0.27 -0.01    +0.057 C 
DOCKED: ATOM     22  C   UNL d   1      10.540   8.791   5.688 -0.21 -0.00    -0.019 A 
DOCKED: ATOM     23  C   UNL d   1      11.014   9.951   6.468 -0.13 +0.01    +0.045 A 
DOCKED: ATOM     24  C   UNL d   1      10.947   8.937   4.404 -0.29 -0.00    -0.022 A 
DOCKED: ATOM     25  C   UNL d   1      11.269  11.195   8.589 -0.15 +0.01    +0.049 A 
DOCKED: ATOM     26  C   UNL d   1      11.824  12.651  10.256 -0.14 -0.00    -0.018 A 
DOCKED: ATOM     27  C   UNL d   1      11.586  11.279   9.938 -0.14 +0.00    +0.003 A 
DOCKED: ATOM     28  C   UNL d   1      10.805  10.121   7.783 -0.17 +0.01    +0.052 C 
DOCKED: ATOM     29  C   UNL d   1      10.726   8.025   3.246 -0.42 +0.00    +0.046 C 
DOCKED: ATOM     30  C   UNL d   1      12.169  13.206  11.597 -0.12 +0.02    +0.046 C 
DOCKED: ATOM     31  H   UNL d   1      12.208  11.568   5.777 +0.04 +0.01    +0.166 HD
DOCKED: ATOM     32  H   UNL d   1      11.189  12.739   7.120 +0.11 +0.01    +0.166 HD
DOCKED: ENDROOT
DOCKED: BRANCH   7  33
DOCKED: ATOM     33  C   UNL d   1      13.202  17.520   8.458 -0.02 -0.00    +0.141 C 
DOCKED: BRANCH  33  34
DOCKED: ATOM     34  C   UNL d   1      14.655  17.241   8.183 -0.00 -0.00    +0.306 C 
DOCKED: ATOM     35  O   UNL d   1      15.266  16.232   8.492 -0.00 -0.00    -0.251 OA
DOCKED: BRANCH  34  36
DOCKED: ATOM     36  O   UNL d   1      15.262  18.248   7.531 +0.00 +0.02    -0.481 OA
DOCKED: ATOM     37  H   UNL d   1      14.682  18.429   6.761 +0.00 -0.02    +0.295 HD
DOCKED: ENDBRANCH  34  36
DOCKED: ENDBRANCH  33  34
DOCKED: ENDBRANCH   7  33
DOCKED: BRANCH  27  38
DOCKED: ATOM     38  C   UNL d   1      11.624  10.196  10.874 -0.11 +0.01    +0.017 C 
DOCKED: ATOM     39  C   UNL d   1      10.594   9.385  11.163 -0.13 +0.04    +0.092 C 
DOCKED: BRANCH  39  40
DOCKED: ATOM     40  C   UNL d   1      10.769   8.299  12.130 -0.05 +0.15    +0.330 C 
DOCKED: ATOM     41  O   UNL d   1      10.884   8.390  13.338 -0.03 -0.09    -0.246 OA
DOCKED: BRANCH  40  42
DOCKED: ATOM     42  O   UNL d   1      10.780   7.115  11.499 -0.05 -0.36    -0.477 OA
DOCKED: ATOM     43  H   UNL d   1      10.947   7.350  10.563 +0.05 +0.24    +0.295 HD
DOCKED: ENDBRANCH  40  42
DOCKED: ENDBRANCH  39  40
DOCKED: ENDBRANCH  27  38
DOCKED: BRANCH   8  44
DOCKED: ATOM     44  C   UNL d   1      13.888  14.748   1.219 -0.29 -0.07    +0.141 C 
DOCKED: BRANCH  44  45
DOCKED: ATOM     45  C   UNL d   1      12.420  15.077   1.243 -0.23 -0.15    +0.306 C 
DOCKED: ATOM     46  O   UNL d   1      11.887  15.982   1.861 -0.10 +0.10    -0.251 OA
DOCKED: BRANCH  45  47
DOCKED: ATOM     47  O   UNL d   1      11.689  14.225   0.501 -0.19 +0.23    -0.481 OA
DOCKED: ATOM     48  H   UNL d   1      11.547  14.694  -0.349 -0.40 -0.31    +0.295 HD
DOCKED: ENDBRANCH  45  47
DOCKED: ENDBRANCH  44  45
DOCKED: ENDBRANCH   8  44
DOCKED: BRANCH  22  49
DOCKED: ATOM     49  C   UNL d   1       9.729   7.665   6.260 -0.23 +0.02    +0.048 C 
DOCKED: BRANCH  49  50
DOCKED: ATOM     50  C   UNL d   1      10.616   6.550   6.814 -0.09 +0.09    +0.125 C 
DOCKED: BRANCH  50  51
DOCKED: ATOM     51  C   UNL d   1      10.805   6.702   8.296 -0.04 +0.35    +0.305 C 
DOCKED: ATOM     52  O   UNL d   1      11.848   6.895   8.896 -0.08 -0.22    -0.251 OA
DOCKED: BRANCH  51  53
DOCKED: ATOM     53  O   UNL d   1       9.641   6.588   8.967 -0.17 -0.66    -0.481 OA
DOCKED: ATOM     54  H   UNL d   1       9.677   7.308   9.631 +0.08 +0.26    +0.295 HD
DOCKED: ENDBRANCH  51  53
DOCKED: ENDBRANCH  50  51
DOCKED: ENDBRANCH  49  50
DOCKED: ENDBRANCH  22  49
DOCKED: TORSDOF 13
DOCKED: TER
DOCKED: ENDMDL
________________________________________________________________________________


	BEGINNING GENETIC ALGORITHM DOCKING 38 of 100
Run: 38 Seed: 1391783069 476165374 [ Run 38 of 100 GA/GALS ]
Beginning LAMARCKIAN GENETIC ALGORITHM (LGA), with a maximum of 25000000 energy evaluations.

Final-Value: -11.322


	FINAL GENETIC ALGORITHM DOCKED STATE
	_______________________________________________


Detailed state:  trans -4.027 -11.774 -13.874 quatxyzw -0.061774 -0.064467 -0.069925 0.993548 center 0.153 0.018 -0.028 ntor 13 107.3357 163.7481 -145.5665 144.1943 -133.2505 121.5195 126.6629 81.2013 37.9284 -21.7389 -114.0927 -115.3629 -3.9767
State:	 -4.027 -11.774 -13.874  -0.545 -0.568 -0.617 13.024    107.34  163.75 -145.57  144.19 -133.25  121.52  126.66   81.20   37.93  -21.74 -114.09 -115.36   -3.98

DOCKED: MODEL       38
DOCKED: USER    Run = 38
DOCKED: USER    DPF = D:/Protein_go_brrr/autodock/final/mut_Y35F/heme/dock.dpf
DOCKED: USER  
DOCKED: USER    Estimated Free Energy of Binding    =   -3.79 kcal/mol  [=(1)+(2)+(3)-(4)]
DOCKED: USER    Estimated Inhibition Constant, Ki   =    1.66 mM (millimolar)  [Temperature = 298.15 K]
DOCKED: USER    
DOCKED: USER    (1) Final Intermolecular Energy     =   -7.67 kcal/mol
DOCKED: USER        vdW + Hbond + desolv Energy     =   -7.44 kcal/mol
DOCKED: USER        Electrostatic Energy            =   -0.23 kcal/mol
DOCKED: USER    (2) Final Total Internal Energy     =   -3.65 kcal/mol
DOCKED: USER    (3) Torsional Free Energy           =   +3.88 kcal/mol
DOCKED: USER    (4) Unbound System's Energy  [=(2)] =   -3.65 kcal/mol
DOCKED: USER    
DOCKED: USER    
DOCKED: USER    NEWDPF move heme_opt.pdbqt
DOCKED: USER    NEWDPF about 0.153000 0.018000 -0.028000
DOCKED: USER    NEWDPF tran0 -4.026642 -11.774470 -13.874197
DOCKED: USER    NEWDPF quaternion0 -0.061774 -0.064467 -0.069925 0.993548
DOCKED: USER    NEWDPF axisangle0 -0.544704 -0.568446 -0.616577 13.023754
DOCKED: USER    NEWDPF quat0 -0.544704 -0.568446 -0.616577 13.023754
DOCKED: USER    NEWDPF dihe0 107.34 163.75 -145.57 144.19 -133.25 121.52 126.66 81.20 37.93 -21.74 -114.09 -115.36 -3.98 
DOCKED: USER  keepresnum = 1 
DOCKED: USER  
DOCKED: REMARK  13 active torsions:
DOCKED: REMARK  status: ('A' for Active; 'I' for Inactive)
DOCKED: REMARK    1  A    between atoms: O_3  and  C_38 
DOCKED: REMARK    2  A    between atoms: O_4  and  C_40 
DOCKED: REMARK    3  A    between atoms: O_7  and  C_46 
DOCKED: REMARK    4  A    between atoms: O_9  and  C_48 
DOCKED: REMARK    5  A    between atoms: C_15  and  C_20 
DOCKED: REMARK    6  A    between atoms: C_16  and  C_23 
DOCKED: REMARK    7  A    between atoms: C_20  and  C_38 
DOCKED: REMARK    8  A    between atoms: C_23  and  C_40 
DOCKED: REMARK    9  A    between atoms: C_32  and  C_41 
DOCKED: REMARK   10  A    between atoms: C_37  and  C_45 
DOCKED: REMARK   11  A    between atoms: C_41  and  C_44 
DOCKED: REMARK   12  A    between atoms: C_44  and  C_46 
DOCKED: REMARK   13  A    between atoms: C_47  and  C_48 
DOCKED: USER                              x       y       z     vdW  Elec       q    Type
DOCKED: USER                           _______ _______ _______ _____ _____    ______ ____
DOCKED: ROOT
DOCKED: ATOM      1  O   UNL d   1      -9.669 -11.013 -12.344 -0.21 +0.01    -0.289 OA
DOCKED: ATOM      2  O   UNL d   1      -6.217 -16.747 -15.749 -0.11 -0.13    -0.289 OA
DOCKED: ATOM      3  N   UNL d   1      -6.320 -10.954 -13.169 -0.06 +0.02    -0.247 NA
DOCKED: ATOM      4  N   UNL d   1      -5.815 -13.705 -14.169 -0.10 -0.01    -0.247 NA
DOCKED: ATOM      5  N   UNL d   1      -2.999 -13.157 -13.980 -0.08 -0.01    -0.354 N 
DOCKED: ATOM      6  N   UNL d   1      -3.532 -10.310 -12.924 -0.10 +0.03    -0.354 N 
DOCKED: ATOM      7  C   UNL d   1      -7.821  -9.470 -11.922 -0.24 -0.02    +0.084 A 
DOCKED: ATOM      8  C   UNL d   1      -7.715 -14.921 -15.107 -0.07 +0.01    +0.084 A 
DOCKED: ATOM      9  C   UNL d   1      -7.174 -13.681 -14.388 -0.10 +0.00    +0.058 A 
DOCKED: ATOM     10  C   UNL d   1      -6.416  -9.773 -12.451 -0.19 -0.01    +0.058 A 
DOCKED: ATOM     11  C   UNL d   1      -8.507 -10.678 -12.484 -0.18 -0.02    +0.193 A 
DOCKED: ATOM     12  C   UNL d   1      -7.497 -11.486 -13.240 -0.12 -0.01    +0.109 A 
DOCKED: ATOM     13  C   UNL d   1      -6.418 -15.670 -15.223 -0.11 +0.05    +0.193 A 
DOCKED: ATOM     14  C   UNL d   1      -7.885  -9.529 -10.394 -0.28 -0.01    +0.026 C 
DOCKED: ATOM     15  C   UNL d   1      -7.966 -12.685 -13.963 -0.12 -0.00    +0.055 C 
DOCKED: ATOM     16  C   UNL d   1      -8.218 -14.586 -16.515 -0.03 +0.00    +0.026 C 
DOCKED: ATOM     17  C   UNL d   1      -5.346 -14.828 -14.610 -0.17 +0.02    +0.109 A 
DOCKED: ATOM     18  C   UNL d   1      -5.402  -8.902 -12.293 -0.20 -0.00    +0.050 C 
DOCKED: ATOM     19  C   UNL d   1      -4.094  -9.058 -12.819 -0.10 -0.00    +0.045 A 
DOCKED: ATOM     20  C   UNL d   1      -2.960 -14.505 -14.224 -0.17 +0.01    +0.045 A 
DOCKED: ATOM     21  C   UNL d   1      -3.965 -15.329 -14.539 -0.23 +0.01    +0.057 C 
DOCKED: ATOM     22  C   UNL d   1      -0.846 -13.780 -13.752 -0.18 -0.00    -0.019 A 
DOCKED: ATOM     23  C   UNL d   1      -1.770 -12.630 -13.685 -0.22 -0.00    +0.045 A 
DOCKED: ATOM     24  C   UNL d   1      -1.556 -14.887 -14.073 -0.12 -0.00    -0.022 A 
DOCKED: ATOM     25  C   UNL d   1      -2.234 -10.222 -13.371 -0.23 -0.00    +0.049 A 
DOCKED: ATOM     26  C   UNL d   1      -3.150  -8.135 -13.243 -0.16 +0.00    -0.018 A 
DOCKED: ATOM     27  C   UNL d   1      -1.985  -8.878 -13.609 -0.22 -0.00    +0.003 A 
DOCKED: ATOM     28  C   UNL d   1      -1.397 -11.370 -13.410 -0.30 -0.01    +0.052 C 
DOCKED: ATOM     29  C   UNL d   1      -1.071 -16.283 -14.268 -0.16 +0.01    +0.046 C 
DOCKED: ATOM     30  C   UNL d   1      -3.318  -6.655 -13.308 -0.16 +0.00    +0.046 C 
DOCKED: ATOM     31  H   UNL d   1      -3.855 -12.626 -14.095 +0.05 -0.00    +0.166 HD
DOCKED: ATOM     32  H   UNL d   1      -4.012 -11.164 -12.663 +0.07 -0.02    +0.166 HD
DOCKED: ENDROOT
DOCKED: BRANCH   7  33
DOCKED: ATOM     33  C   UNL d   1      -8.463  -8.187 -12.462 -0.05 -0.03    +0.141 C 
DOCKED: BRANCH  33  34
DOCKED: ATOM     34  C   UNL d   1      -9.169  -8.401 -13.774 -0.06 -0.02    +0.306 C 
DOCKED: ATOM     35  O   UNL d   1      -8.643  -8.474 -14.871 -0.02 +0.01    -0.251 OA
DOCKED: BRANCH  34  36
DOCKED: ATOM     36  O   UNL d   1     -10.502  -8.514 -13.633 -0.04 +0.02    -0.481 OA
DOCKED: ATOM     37  H   UNL d   1     -10.636  -9.414 -13.266 +0.07 -0.00    +0.295 HD
DOCKED: ENDBRANCH  34  36
DOCKED: ENDBRANCH  33  34
DOCKED: ENDBRANCH   7  33
DOCKED: BRANCH  27  38
DOCKED: ATOM     38  C   UNL d   1      -0.761  -8.309 -14.089 -0.22 +0.00    +0.017 C 
DOCKED: ATOM     39  C   UNL d   1       0.348  -8.126 -13.356 -0.25 +0.01    +0.092 C 
DOCKED: BRANCH  39  40
DOCKED: ATOM     40  C   UNL d   1       1.544  -7.548 -13.974 -0.13 +0.07    +0.330 C 
DOCKED: ATOM     41  O   UNL d   1       2.116  -6.519 -13.667 -0.49 -0.12    -0.246 OA
DOCKED: BRANCH  40  42
DOCKED: ATOM     42  O   UNL d   1       1.971  -8.332 -14.976 -0.15 -0.08    -0.477 OA
DOCKED: ATOM     43  H   UNL d   1       1.514  -9.183 -14.819 +0.07 +0.06    +0.295 HD
DOCKED: ENDBRANCH  40  42
DOCKED: ENDBRANCH  39  40
DOCKED: ENDBRANCH  27  38
DOCKED: BRANCH   8  44
DOCKED: ATOM     44  C   UNL d   1      -8.752 -15.737 -14.328 -0.10 +0.02    +0.141 C 
DOCKED: BRANCH  44  45
DOCKED: ATOM     45  C   UNL d   1      -8.163 -16.492 -13.167 -0.14 +0.06    +0.306 C 
DOCKED: ATOM     46  O   UNL d   1      -7.928 -16.049 -12.056 -0.25 -0.02    -0.251 OA
DOCKED: BRANCH  45  47
DOCKED: ATOM     47  O   UNL d   1      -7.874 -17.769 -13.477 -0.06 -0.19    -0.481 OA
DOCKED: ATOM     48  H   UNL d   1      -7.603 -17.740 -14.419 +0.05 +0.15    +0.295 HD
DOCKED: ENDBRANCH  45  47
DOCKED: ENDBRANCH  44  45
DOCKED: ENDBRANCH   8  44
DOCKED: BRANCH  22  49
DOCKED: ATOM     49  C   UNL d   1       0.628 -13.694 -13.485 -0.26 -0.01    +0.048 C 
DOCKED: BRANCH  49  50
DOCKED: ATOM     50  C   UNL d   1       1.415 -13.332 -14.744 -0.13 -0.01    +0.125 C 
DOCKED: BRANCH  50  51
DOCKED: ATOM     51  C   UNL d   1       1.094 -11.935 -15.194 -0.09 +0.00    +0.305 C 
DOCKED: ATOM     52  O   UNL d   1       1.472 -10.889 -14.696 -0.66 -0.05    -0.251 OA
DOCKED: BRANCH  51  53
DOCKED: ATOM     53  O   UNL d   1       0.282 -11.925 -16.271 +0.01 -0.00    -0.481 OA
DOCKED: ATOM     54  H   UNL d   1       0.578 -12.696 -16.798 +0.03 +0.00    +0.295 HD
DOCKED: ENDBRANCH  51  53
DOCKED: ENDBRANCH  50  51
DOCKED: ENDBRANCH  49  50
DOCKED: ENDBRANCH  22  49
DOCKED: TORSDOF 13
DOCKED: TER
DOCKED: ENDMDL
________________________________________________________________________________


	BEGINNING GENETIC ALGORITHM DOCKING 39 of 100
Run: 39 Seed: 981894734 1930479532 [ Run 39 of 100 GA/GALS ]
Beginning LAMARCKIAN GENETIC ALGORITHM (LGA), with a maximum of 25000000 energy evaluations.

Final-Value: -11.773


	FINAL GENETIC ALGORITHM DOCKED STATE
	_______________________________________________


Detailed state:  trans 10.803 12.838 -11.905 quatxyzw 0.279187 0.806699 0.518579 -0.048654 center 0.153 0.018 -0.028 ntor 13 91.8216 82.0338 103.7560 -52.2032 -133.1622 160.0335 -45.9153 2.6327 52.9485 -125.3302 -72.9762 -132.0064 27.1006
State:	 10.803  12.838 -11.905   0.280  0.808  0.519 -174.422     91.82   82.03  103.76  -52.20 -133.16  160.03  -45.92    2.63   52.95 -125.33  -72.98 -132.01   27.10

DOCKED: MODEL       39
DOCKED: USER    Run = 39
DOCKED: USER    DPF = D:/Protein_go_brrr/autodock/final/mut_Y35F/heme/dock.dpf
DOCKED: USER  
DOCKED: USER    Estimated Free Energy of Binding    =   -4.11 kcal/mol  [=(1)+(2)+(3)-(4)]
DOCKED: USER    Estimated Inhibition Constant, Ki   =  974.06 uM (micromolar)  [Temperature = 298.15 K]
DOCKED: USER    
DOCKED: USER    (1) Final Intermolecular Energy     =   -7.99 kcal/mol
DOCKED: USER        vdW + Hbond + desolv Energy     =   -7.79 kcal/mol
DOCKED: USER        Electrostatic Energy            =   -0.20 kcal/mol
DOCKED: USER    (2) Final Total Internal Energy     =   -3.79 kcal/mol
DOCKED: USER    (3) Torsional Free Energy           =   +3.88 kcal/mol
DOCKED: USER    (4) Unbound System's Energy  [=(2)] =   -3.79 kcal/mol
DOCKED: USER    
DOCKED: USER    
DOCKED: USER    NEWDPF move heme_opt.pdbqt
DOCKED: USER    NEWDPF about 0.153000 0.018000 -0.028000
DOCKED: USER    NEWDPF tran0 10.803161 12.838347 -11.905451
DOCKED: USER    NEWDPF quaternion0 0.279187 0.806699 0.518579 -0.048654
DOCKED: USER    NEWDPF axisangle0 0.279518 0.807655 0.519194 -174.422454
DOCKED: USER    NEWDPF quat0 0.279518 0.807655 0.519194 -174.422454
DOCKED: USER    NEWDPF dihe0 91.82 82.03 103.76 -52.20 -133.16 160.03 -45.92 2.63 52.95 -125.33 -72.98 -132.01 27.10 
DOCKED: USER  keepresnum = 1 
DOCKED: USER  
DOCKED: REMARK  13 active torsions:
DOCKED: REMARK  status: ('A' for Active; 'I' for Inactive)
DOCKED: REMARK    1  A    between atoms: O_3  and  C_38 
DOCKED: REMARK    2  A    between atoms: O_4  and  C_40 
DOCKED: REMARK    3  A    between atoms: O_7  and  C_46 
DOCKED: REMARK    4  A    between atoms: O_9  and  C_48 
DOCKED: REMARK    5  A    between atoms: C_15  and  C_20 
DOCKED: REMARK    6  A    between atoms: C_16  and  C_23 
DOCKED: REMARK    7  A    between atoms: C_20  and  C_38 
DOCKED: REMARK    8  A    between atoms: C_23  and  C_40 
DOCKED: REMARK    9  A    between atoms: C_32  and  C_41 
DOCKED: REMARK   10  A    between atoms: C_37  and  C_45 
DOCKED: REMARK   11  A    between atoms: C_41  and  C_44 
DOCKED: REMARK   12  A    between atoms: C_44  and  C_46 
DOCKED: REMARK   13  A    between atoms: C_47  and  C_48 
DOCKED: USER                              x       y       z     vdW  Elec       q    Type
DOCKED: USER                           _______ _______ _______ _____ _____    ______ ____
DOCKED: ROOT
DOCKED: ATOM      1  O   UNL d   1      16.427  11.070 -11.927 -0.05 +0.04    -0.289 OA
DOCKED: ATOM      2  O   UNL d   1      10.514   8.745 -15.930 -0.07 +0.03    -0.289 OA
DOCKED: ATOM      3  N   UNL d   1      13.249  12.328 -11.468 -0.09 +0.07    -0.247 NA
DOCKED: ATOM      4  N   UNL d   1      11.689  11.058 -13.655 -0.10 +0.03    -0.247 NA
DOCKED: ATOM      5  N   UNL d   1       9.584  12.944 -13.123 -0.06 +0.01    -0.354 N 
DOCKED: ATOM      6  N   UNL d   1      11.218  14.268 -10.869 -0.04 +0.04    -0.354 N 
DOCKED: ATOM      7  C   UNL d   1      15.469  12.873 -10.583 -0.09 -0.02    +0.084 A 
DOCKED: ATOM      8  C   UNL d   1      12.499   8.917 -14.508 -0.21 -0.02    +0.084 A 
DOCKED: ATOM      9  C   UNL d   1      12.704  10.131 -13.596 -0.23 -0.01    +0.058 A 
DOCKED: ATOM     10  C   UNL d   1      13.966  13.166 -10.630 -0.11 -0.01    +0.058 A 
DOCKED: ATOM     11  C   UNL d   1      15.471  11.709 -11.528 -0.16 -0.05    +0.193 A 
DOCKED: ATOM     12  C   UNL d   1      14.063  11.461 -11.975 -0.20 -0.03    +0.109 A 
DOCKED: ATOM     13  C   UNL d   1      11.197   9.345 -15.123 -0.10 -0.02    +0.193 A 
DOCKED: ATOM     14  C   UNL d   1      16.295  14.007 -11.193 -0.03 -0.00    +0.026 C 
DOCKED: ATOM     15  C   UNL d   1      13.805  10.296 -12.845 -0.32 -0.02    +0.055 C 
DOCKED: ATOM     16  C   UNL d   1      12.265   7.635 -13.703 -0.48 -0.01    +0.026 C 
DOCKED: ATOM     17  C   UNL d   1      10.818  10.662 -14.527 -0.09 -0.01    +0.109 A 
DOCKED: ATOM     18  C   UNL d   1      13.408  14.105  -9.844 -0.11 -0.01    +0.050 C 
DOCKED: ATOM     19  C   UNL d   1      12.021  14.388  -9.758 -0.14 -0.01    +0.045 A 
DOCKED: ATOM     20  C   UNL d   1       9.119  12.395 -14.290 -0.06 -0.00    +0.045 A 
DOCKED: ATOM     21  C   UNL d   1       9.600  11.352 -14.975 -0.05 -0.00    +0.057 C 
DOCKED: ATOM     22  C   UNL d   1       7.781  14.156 -13.718 -0.15 -0.00    -0.019 A 
DOCKED: ATOM     23  C   UNL d   1       8.841  14.013 -12.699 -0.19 -0.00    +0.045 A 
DOCKED: ATOM     24  C   UNL d   1       7.951  13.194 -14.656 -0.14 +0.00    -0.022 A 
DOCKED: ATOM     25  C   UNL d   1       9.935  14.676 -10.584 -0.21 -0.00    +0.049 A 
DOCKED: ATOM     26  C   UNL d   1      11.233  14.850  -8.715 -0.24 +0.00    -0.018 A 
DOCKED: ATOM     27  C   UNL d   1       9.913  15.011  -9.238 -0.29 -0.00    +0.003 A 
DOCKED: ATOM     28  C   UNL d   1       8.962  14.792 -11.613 -0.22 -0.00    +0.052 C 
DOCKED: ATOM     29  C   UNL d   1       7.131  12.921 -15.871 -0.10 -0.00    +0.046 C 
DOCKED: ATOM     30  C   UNL d   1      11.676  15.123  -7.318 -0.27 -0.01    +0.046 C 
DOCKED: ATOM     31  H   UNL d   1      10.354  12.523 -12.613 +0.05 -0.01    +0.166 HD
DOCKED: ATOM     32  H   UNL d   1      11.554  13.960 -11.773 +0.04 -0.02    +0.166 HD
DOCKED: ENDROOT
DOCKED: BRANCH   7  33
DOCKED: ATOM     33  C   UNL d   1      16.014  12.454  -9.213 -0.15 -0.04    +0.141 C 
DOCKED: BRANCH  33  34
DOCKED: ATOM     34  C   UNL d   1      16.208  10.966  -9.097 -0.26 -0.09    +0.306 C 
DOCKED: ATOM     35  O   UNL d   1      15.337  10.140  -8.888 -0.18 +0.10    -0.251 OA
DOCKED: BRANCH  34  36
DOCKED: ATOM     36  O   UNL d   1      17.492  10.598  -9.255 -0.65 +0.13    -0.481 OA
DOCKED: ATOM     37  H   UNL d   1      17.584  10.428 -10.217 +0.11 -0.10    +0.295 HD
DOCKED: ENDBRANCH  34  36
DOCKED: ENDBRANCH  33  34
DOCKED: ENDBRANCH   7  33
DOCKED: BRANCH  27  38
DOCKED: ATOM     38  C   UNL d   1       8.784  15.487  -8.496 -0.38 +0.00    +0.017 C 
DOCKED: ATOM     39  C   UNL d   1       8.473  16.777  -8.302 -0.23 +0.01    +0.092 C 
DOCKED: BRANCH  39  40
DOCKED: ATOM     40  C   UNL d   1       7.275  17.132  -7.535 -0.12 +0.15    +0.330 C 
DOCKED: ATOM     41  O   UNL d   1       7.043  18.180  -6.962 -0.65 -0.17    -0.246 OA
DOCKED: BRANCH  40  42
DOCKED: ATOM     42  O   UNL d   1       6.404  16.112  -7.542 -0.20 -0.25    -0.477 OA
DOCKED: ATOM     43  H   UNL d   1       5.769  16.350  -8.249 +0.12 +0.13    +0.295 HD
DOCKED: ENDBRANCH  40  42
DOCKED: ENDBRANCH  39  40
DOCKED: ENDBRANCH  27  38
DOCKED: BRANCH   8  44
DOCKED: ATOM     44  C   UNL d   1      13.571   8.709 -15.583 -0.04 -0.05    +0.141 C 
DOCKED: BRANCH  44  45
DOCKED: ATOM     45  C   UNL d   1      13.258   7.576 -16.524 -0.13 -0.06    +0.306 C 
DOCKED: ATOM     46  O   UNL d   1      13.579   6.409 -16.388 -0.21 +0.03    -0.251 OA
DOCKED: BRANCH  45  47
DOCKED: ATOM     47  O   UNL d   1      12.575   7.983 -17.609 -0.00 +0.06    -0.481 OA
DOCKED: ATOM     48  H   UNL d   1      11.655   8.107 -17.291 +0.06 -0.03    +0.295 HD
DOCKED: ENDBRANCH  45  47
DOCKED: ENDBRANCH  44  45
DOCKED: ENDBRANCH   8  44
DOCKED: BRANCH  22  49
DOCKED: ATOM     49  C   UNL d   1       6.721  15.217 -13.688 -0.11 +0.00    +0.048 C 
DOCKED: BRANCH  49  50
DOCKED: ATOM     50  C   UNL d   1       5.924  15.188 -12.383 -0.20 +0.01    +0.125 C 
DOCKED: BRANCH  50  51
DOCKED: ATOM     51  C   UNL d   1       6.275  16.362 -11.514 -0.08 +0.02    +0.305 C 
DOCKED: ATOM     52  O   UNL d   1       7.117  17.217 -11.725 -0.04 -0.01    -0.251 OA
DOCKED: BRANCH  51  53
DOCKED: ATOM     53  O   UNL d   1       5.537  16.393 -10.386 -0.04 -0.08    -0.481 OA
DOCKED: ATOM     54  H   UNL d   1       6.202  16.461  -9.669 +0.10 +0.07    +0.295 HD
DOCKED: ENDBRANCH  51  53
DOCKED: ENDBRANCH  50  51
DOCKED: ENDBRANCH  49  50
DOCKED: ENDBRANCH  22  49
DOCKED: TORSDOF 13
DOCKED: TER
DOCKED: ENDMDL
________________________________________________________________________________


	BEGINNING GENETIC ALGORITHM DOCKING 40 of 100
Run: 40 Seed: 1516223056 161885551 [ Run 40 of 100 GA/GALS ]
Beginning LAMARCKIAN GENETIC ALGORITHM (LGA), with a maximum of 25000000 energy evaluations.

Final-Value: -13.444


	FINAL GENETIC ALGORITHM DOCKED STATE
	_______________________________________________


Detailed state:  trans 2.781 -17.059 -8.022 quatxyzw -0.325158 0.453397 0.805036 0.201546 center 0.153 0.018 -0.028 ntor 13 -83.0024 -179.8004 13.1324 -70.0240 30.6553 -41.8142 173.4962 -92.2265 126.6273 142.9613 -112.5299 20.7233 -2.8659
State:	  2.781 -17.059  -8.022  -0.332  0.463  0.822 156.745    -83.00 -179.80   13.13  -70.02   30.66  -41.81  173.50  -92.23  126.63  142.96 -112.53   20.72   -2.87

DOCKED: MODEL       40
DOCKED: USER    Run = 40
DOCKED: USER    DPF = D:/Protein_go_brrr/autodock/final/mut_Y35F/heme/dock.dpf
DOCKED: USER  
DOCKED: USER    Estimated Free Energy of Binding    =   -5.74 kcal/mol  [=(1)+(2)+(3)-(4)]
DOCKED: USER    Estimated Inhibition Constant, Ki   =   61.81 uM (micromolar)  [Temperature = 298.15 K]
DOCKED: USER    
DOCKED: USER    (1) Final Intermolecular Energy     =   -9.62 kcal/mol
DOCKED: USER        vdW + Hbond + desolv Energy     =   -9.36 kcal/mol
DOCKED: USER        Electrostatic Energy            =   -0.26 kcal/mol
DOCKED: USER    (2) Final Total Internal Energy     =   -3.82 kcal/mol
DOCKED: USER    (3) Torsional Free Energy           =   +3.88 kcal/mol
DOCKED: USER    (4) Unbound System's Energy  [=(2)] =   -3.82 kcal/mol
DOCKED: USER    
DOCKED: USER    
DOCKED: USER    NEWDPF move heme_opt.pdbqt
DOCKED: USER    NEWDPF about 0.153000 0.018000 -0.028000
DOCKED: USER    NEWDPF tran0 2.781488 -17.059198 -8.021814
DOCKED: USER    NEWDPF quaternion0 -0.325158 0.453397 0.805036 0.201546
DOCKED: USER    NEWDPF axisangle0 -0.331971 0.462896 0.821902 156.745199
DOCKED: USER    NEWDPF quat0 -0.331971 0.462896 0.821902 156.745199
DOCKED: USER    NEWDPF dihe0 -83.00 -179.80 13.13 -70.02 30.66 -41.81 173.50 -92.23 126.63 142.96 -112.53 20.72 -2.87 
DOCKED: USER  keepresnum = 1 
DOCKED: USER  
DOCKED: REMARK  13 active torsions:
DOCKED: REMARK  status: ('A' for Active; 'I' for Inactive)
DOCKED: REMARK    1  A    between atoms: O_3  and  C_38 
DOCKED: REMARK    2  A    between atoms: O_4  and  C_40 
DOCKED: REMARK    3  A    between atoms: O_7  and  C_46 
DOCKED: REMARK    4  A    between atoms: O_9  and  C_48 
DOCKED: REMARK    5  A    between atoms: C_15  and  C_20 
DOCKED: REMARK    6  A    between atoms: C_16  and  C_23 
DOCKED: REMARK    7  A    between atoms: C_20  and  C_38 
DOCKED: REMARK    8  A    between atoms: C_23  and  C_40 
DOCKED: REMARK    9  A    between atoms: C_32  and  C_41 
DOCKED: REMARK   10  A    between atoms: C_37  and  C_45 
DOCKED: REMARK   11  A    between atoms: C_41  and  C_44 
DOCKED: REMARK   12  A    between atoms: C_44  and  C_46 
DOCKED: REMARK   13  A    between atoms: C_47  and  C_48 
DOCKED: USER                              x       y       z     vdW  Elec       q    Type
DOCKED: USER                           _______ _______ _______ _____ _____    ______ ____
DOCKED: ROOT
DOCKED: ATOM      1  O   UNL d   1       6.343 -14.053  -4.411 -0.68 +0.18    -0.289 OA
DOCKED: ATOM      2  O   UNL d   1       5.632 -13.899 -11.885 -0.12 +0.08    -0.289 OA
DOCKED: ATOM      3  N   UNL d   1       4.182 -16.124  -6.125 -0.16 +0.09    -0.247 NA
DOCKED: ATOM      4  N   UNL d   1       4.371 -15.143  -8.923 -0.13 +0.11    -0.247 NA
DOCKED: ATOM      5  N   UNL d   1       2.021 -16.685  -9.525 +0.04 +0.17    -0.354 N 
DOCKED: ATOM      6  N   UNL d   1       1.820 -17.683  -6.616 -0.14 +0.18    -0.354 N 
DOCKED: ATOM      7  C   UNL d   1       4.626 -15.667  -3.758 -0.25 -0.03    +0.084 A 
DOCKED: ATOM      8  C   UNL d   1       6.445 -14.029  -9.580 -0.17 -0.03    +0.084 A 
DOCKED: ATOM      9  C   UNL d   1       5.584 -14.664  -8.482 -0.24 -0.02    +0.058 A 
DOCKED: ATOM     10  C   UNL d   1       3.829 -16.429  -4.821 -0.24 -0.02    +0.058 A 
DOCKED: ATOM     11  C   UNL d   1       5.506 -14.891  -4.693 -0.15 -0.07    +0.193 A 
DOCKED: ATOM     12  C   UNL d   1       5.157 -15.275  -6.097 -0.20 -0.04    +0.109 A 
DOCKED: ATOM     13  C   UNL d   1       5.479 -14.202 -10.718 -0.16 -0.06    +0.193 A 
DOCKED: ATOM     14  C   UNL d   1       3.750 -14.687  -2.975 -0.45 -0.01    +0.026 C 
DOCKED: ATOM     15  C   UNL d   1       5.962 -14.703  -7.195 -0.21 -0.03    +0.055 C 
DOCKED: ATOM     16  C   UNL d   1       7.700 -14.857  -9.869 -0.06 -0.01    +0.026 C 
DOCKED: ATOM     17  C   UNL d   1       4.259 -14.882 -10.186 -0.22 -0.04    +0.109 A 
DOCKED: ATOM     18  C   UNL d   1       2.932 -17.374  -4.483 -0.26 -0.01    +0.050 C 
DOCKED: ATOM     19  C   UNL d   1       2.210 -18.186  -5.395 -0.21 -0.02    +0.045 A 
DOCKED: ATOM     20  C   UNL d   1       2.131 -15.962 -10.684 -0.26 -0.02    +0.045 A 
DOCKED: ATOM     21  C   UNL d   1       3.116 -15.146 -11.072 -0.21 -0.02    +0.057 C 
DOCKED: ATOM     22  C   UNL d   1       0.168 -17.130 -10.727 -0.29 +0.00    -0.019 A 
DOCKED: ATOM     23  C   UNL d   1       0.868 -17.421  -9.460 -0.26 -0.01    +0.045 A 
DOCKED: ATOM     24  C   UNL d   1       0.921 -16.266 -11.448 -0.27 +0.00    -0.022 A 
DOCKED: ATOM     25  C   UNL d   1       1.060 -18.604  -7.297 -0.23 -0.03    +0.049 A 
DOCKED: ATOM     26  C   UNL d   1       1.722 -19.480  -5.297 -0.14 +0.01    -0.018 A 
DOCKED: ATOM     27  C   UNL d   1       1.013 -19.746  -6.509 -0.12 -0.00    +0.003 A 
DOCKED: ATOM     28  C   UNL d   1       0.412 -18.258  -8.514 -0.31 -0.02    +0.052 C 
DOCKED: ATOM     29  C   UNL d   1       0.646 -15.687 -12.794 -0.21 -0.00    +0.046 C 
DOCKED: ATOM     30  C   UNL d   1       1.903 -20.415  -4.149 -0.12 -0.01    +0.046 C 
DOCKED: ATOM     31  H   UNL d   1       2.774 -16.710  -8.847 -0.32 -0.09    +0.166 HD
DOCKED: ATOM     32  H   UNL d   1       2.039 -16.745  -6.931 -0.43 -0.12    +0.166 HD
DOCKED: ENDROOT
DOCKED: BRANCH   7  33
DOCKED: ATOM     33  C   UNL d   1       5.472 -16.537  -2.822 -0.16 -0.04    +0.141 C 
DOCKED: BRANCH  33  34
DOCKED: ATOM     34  C   UNL d   1       6.333 -15.723  -1.895 -0.16 -0.10    +0.306 C 
DOCKED: ATOM     35  O   UNL d   1       5.991 -15.249  -0.825 -0.26 +0.06    -0.251 OA
DOCKED: BRANCH  34  36
DOCKED: ATOM     36  O   UNL d   1       7.581 -15.551  -2.364 -0.12 +0.23    -0.481 OA
DOCKED: ATOM     37  H   UNL d   1       7.553 -14.689  -2.830 +0.02 -0.26    +0.295 HD
DOCKED: ENDBRANCH  34  36
DOCKED: ENDBRANCH  33  34
DOCKED: ENDBRANCH   7  33
DOCKED: BRANCH  27  38
DOCKED: ATOM     38  C   UNL d   1       0.335 -20.968  -6.817 -0.07 -0.01    +0.017 C 
DOCKED: ATOM     39  C   UNL d   1       0.580 -21.741  -7.886 -0.04 -0.03    +0.092 C 
DOCKED: BRANCH  39  40
DOCKED: ATOM     40  C   UNL d   1      -0.175 -22.982  -8.079 -0.00 -0.05    +0.330 C 
DOCKED: ATOM     41  O   UNL d   1      -0.449 -23.823  -7.243 -0.01 +0.03    -0.246 OA
DOCKED: BRANCH  40  42
DOCKED: ATOM     42  O   UNL d   1      -0.564 -23.093  -9.358 +0.01 +0.03    -0.477 OA
DOCKED: ATOM     43  H   UNL d   1      -0.209 -22.284  -9.782 +0.04 -0.02    +0.295 HD
DOCKED: ENDBRANCH  40  42
DOCKED: ENDBRANCH  39  40
DOCKED: ENDBRANCH  27  38
DOCKED: BRANCH   8  44
DOCKED: ATOM     44  C   UNL d   1       6.791 -12.550  -9.374 -0.27 -0.08    +0.141 C 
DOCKED: BRANCH  44  45
DOCKED: ATOM     45  C   UNL d   1       8.110 -12.341  -8.678 -0.12 -0.27    +0.306 C 
DOCKED: ATOM     46  O   UNL d   1       9.017 -11.615  -9.043 -0.13 +0.22    -0.251 OA
DOCKED: BRANCH  45  47
DOCKED: ATOM     47  O   UNL d   1       8.227 -13.084  -7.562 -0.08 +0.64    -0.481 OA
DOCKED: ATOM     48  H   UNL d   1       9.013 -12.719  -7.103 -0.41 -0.78    +0.295 HD
DOCKED: ENDBRANCH  45  47
DOCKED: ENDBRANCH  44  45
DOCKED: ENDBRANCH   8  44
DOCKED: BRANCH  22  49
DOCKED: ATOM     49  C   UNL d   1      -1.166 -17.704 -11.105 -0.21 +0.01    +0.048 C 
DOCKED: BRANCH  49  50
DOCKED: ATOM     50  C   UNL d   1      -1.026 -19.068 -11.781 -0.20 +0.02    +0.125 C 
DOCKED: BRANCH  50  51
DOCKED: ATOM     51  C   UNL d   1      -0.539 -20.103 -10.807 -0.05 +0.00    +0.305 C 
DOCKED: ATOM     52  O   UNL d   1       0.601 -20.506 -10.660 -0.02 +0.01    -0.251 OA
DOCKED: BRANCH  51  53
DOCKED: ATOM     53  O   UNL d   1      -1.542 -20.600 -10.056 -0.02 +0.01    -0.481 OA
DOCKED: ATOM     54  H   UNL d   1      -1.652 -21.518 -10.384 +0.07 +0.01    +0.295 HD
DOCKED: ENDBRANCH  51  53
DOCKED: ENDBRANCH  50  51
DOCKED: ENDBRANCH  49  50
DOCKED: ENDBRANCH  22  49
DOCKED: TORSDOF 13
DOCKED: TER
DOCKED: ENDMDL
________________________________________________________________________________


	BEGINNING GENETIC ALGORITHM DOCKING 41 of 100
Run: 41 Seed: 105833727 2043584641 [ Run 41 of 100 GA/GALS ]
Beginning LAMARCKIAN GENETIC ALGORITHM (LGA), with a maximum of 25000000 energy evaluations.

Final-Value: -10.666


	FINAL GENETIC ALGORITHM DOCKED STATE
	_______________________________________________


Detailed state:  trans 2.899 -9.533 9.726 quatxyzw 0.890082 -0.141488 -0.280230 0.330463 center 0.153 0.018 -0.028 ntor 13 119.2748 112.5056 -166.7681 -41.4099 -134.1293 -120.1043 -75.5591 93.4506 22.8898 -150.6875 -179.6894 -11.3587 0.2107
State:	  2.899  -9.533   9.726   0.943 -0.150 -0.297 141.406    119.27  112.51 -166.77  -41.41 -134.13 -120.10  -75.56   93.45   22.89 -150.69 -179.69  -11.36    0.21

DOCKED: MODEL       41
DOCKED: USER    Run = 41
DOCKED: USER    DPF = D:/Protein_go_brrr/autodock/final/mut_Y35F/heme/dock.dpf
DOCKED: USER  
DOCKED: USER    Estimated Free Energy of Binding    =   -4.08 kcal/mol  [=(1)+(2)+(3)-(4)]
DOCKED: USER    Estimated Inhibition Constant, Ki   =    1.03 mM (millimolar)  [Temperature = 298.15 K]
DOCKED: USER    
DOCKED: USER    (1) Final Intermolecular Energy     =   -7.95 kcal/mol
DOCKED: USER        vdW + Hbond + desolv Energy     =   -7.63 kcal/mol
DOCKED: USER        Electrostatic Energy            =   -0.32 kcal/mol
DOCKED: USER    (2) Final Total Internal Energy     =   -2.71 kcal/mol
DOCKED: USER    (3) Torsional Free Energy           =   +3.88 kcal/mol
DOCKED: USER    (4) Unbound System's Energy  [=(2)] =   -2.71 kcal/mol
DOCKED: USER    
DOCKED: USER    
DOCKED: USER    NEWDPF move heme_opt.pdbqt
DOCKED: USER    NEWDPF about 0.153000 0.018000 -0.028000
DOCKED: USER    NEWDPF tran0 2.899161 -9.533203 9.726008
DOCKED: USER    NEWDPF quaternion0 0.890082 -0.141488 -0.280230 0.330463
DOCKED: USER    NEWDPF axisangle0 0.943065 -0.149910 -0.296911 141.406293
DOCKED: USER    NEWDPF quat0 0.943065 -0.149910 -0.296911 141.406293
DOCKED: USER    NEWDPF dihe0 119.27 112.51 -166.77 -41.41 -134.13 -120.10 -75.56 93.45 22.89 -150.69 -179.69 -11.36 0.21 
DOCKED: USER  keepresnum = 1 
DOCKED: USER  
DOCKED: REMARK  13 active torsions:
DOCKED: REMARK  status: ('A' for Active; 'I' for Inactive)
DOCKED: REMARK    1  A    between atoms: O_3  and  C_38 
DOCKED: REMARK    2  A    between atoms: O_4  and  C_40 
DOCKED: REMARK    3  A    between atoms: O_7  and  C_46 
DOCKED: REMARK    4  A    between atoms: O_9  and  C_48 
DOCKED: REMARK    5  A    between atoms: C_15  and  C_20 
DOCKED: REMARK    6  A    between atoms: C_16  and  C_23 
DOCKED: REMARK    7  A    between atoms: C_20  and  C_38 
DOCKED: REMARK    8  A    between atoms: C_23  and  C_40 
DOCKED: REMARK    9  A    between atoms: C_32  and  C_41 
DOCKED: REMARK   10  A    between atoms: C_37  and  C_45 
DOCKED: REMARK   11  A    between atoms: C_41  and  C_44 
DOCKED: REMARK   12  A    between atoms: C_44  and  C_46 
DOCKED: REMARK   13  A    between atoms: C_47  and  C_48 
DOCKED: USER                              x       y       z     vdW  Elec       q    Type
DOCKED: USER                           _______ _______ _______ _____ _____    ______ ____
DOCKED: ROOT
DOCKED: ATOM      1  O   UNL d   1      -2.607  -9.979  11.785 +0.00 +0.02    -0.289 OA
DOCKED: ATOM      2  O   UNL d   1       3.524  -6.817  14.753 -0.06 +0.22    -0.289 OA
DOCKED: ATOM      3  N   UNL d   1       0.479 -10.084  10.249 -0.10 +0.04    -0.247 NA
DOCKED: ATOM      4  N   UNL d   1       2.162  -8.348  11.976 -0.11 +0.14    -0.247 NA
DOCKED: ATOM      5  N   UNL d   1       4.137  -8.341   9.887 -0.08 +0.07    -0.354 N 
DOCKED: ATOM      6  N   UNL d   1       2.376 -10.126   8.093 -0.12 +0.01    -0.354 N 
DOCKED: ATOM      7  C   UNL d   1      -1.789 -10.770   9.622 -0.21 -0.01    +0.084 A 
DOCKED: ATOM      8  C   UNL d   1       1.501  -8.124  14.318 -0.08 -0.05    +0.084 A 
DOCKED: ATOM      9  C   UNL d   1       1.202  -8.659  12.913 -0.13 -0.03    +0.058 A 
DOCKED: ATOM     10  C   UNL d   1      -0.306 -10.650   9.258 -0.23 -0.01    +0.058 A 
DOCKED: ATOM     11  C   UNL d   1      -1.700 -10.188  11.001 -0.13 -0.03    +0.193 A 
DOCKED: ATOM     12  C   UNL d   1      -0.270  -9.835  11.273 -0.15 -0.02    +0.109 A 
DOCKED: ATOM     13  C   UNL d   1       2.789  -7.420  13.996 -0.01 -0.17    +0.193 A 
DOCKED: ATOM     14  C   UNL d   1      -2.668  -9.862   8.757 -0.49 -0.00    +0.026 C 
DOCKED: ATOM     15  C   UNL d   1       0.077  -9.327  12.615 -0.16 -0.02    +0.055 C 
DOCKED: ATOM     16  C   UNL d   1       1.792  -9.256  15.307 -0.03 -0.01    +0.026 C 
DOCKED: ATOM     17  C   UNL d   1       3.074  -7.626  12.544 -0.05 -0.10    +0.109 A 
DOCKED: ATOM     18  C   UNL d   1       0.177 -11.145   8.103 -0.18 -0.01    +0.050 C 
DOCKED: ATOM     19  C   UNL d   1       1.542 -11.155   7.720 -0.25 -0.01    +0.045 A 
DOCKED: ATOM     20  C   UNL d   1       4.660  -7.377  10.709 -0.19 -0.02    +0.045 A 
DOCKED: ATOM     21  C   UNL d   1       4.259  -7.009  11.930 -0.18 -0.04    +0.057 C 
DOCKED: ATOM     22  C   UNL d   1       5.877  -7.440   8.777 -0.25 +0.00    -0.019 A 
DOCKED: ATOM     23  C   UNL d   1       4.805  -8.452   8.697 -0.23 -0.00    +0.045 A 
DOCKED: ATOM     24  C   UNL d   1       5.787  -6.808   9.971 -0.18 +0.00    -0.022 A 
DOCKED: ATOM     25  C   UNL d   1       3.625 -10.291   7.541 -0.22 -0.00    +0.049 A 
DOCKED: ATOM     26  C   UNL d   1       2.277 -12.031   6.936 -0.30 +0.00    -0.018 A 
DOCKED: ATOM     27  C   UNL d   1       3.597 -11.491   6.843 -0.26 -0.00    +0.003 A 
DOCKED: ATOM     28  C   UNL d   1       4.614  -9.276   7.655 -0.18 +0.00    +0.052 C 
DOCKED: ATOM     29  C   UNL d   1       6.649  -5.722  10.519 -0.17 -0.01    +0.046 C 
DOCKED: ATOM     30  C   UNL d   1       1.787 -13.294   6.313 -0.36 -0.01    +0.046 C 
DOCKED: ATOM     31  H   UNL d   1       3.383  -8.944  10.197 +0.05 -0.03    +0.166 HD
DOCKED: ATOM     32  H   UNL d   1       2.079  -9.342   8.663 +0.10 +0.00    +0.166 HD
DOCKED: ENDROOT
DOCKED: BRANCH   7  33
DOCKED: ATOM     33  C   UNL d   1      -2.339 -12.199   9.676 -0.13 -0.01    +0.141 C 
DOCKED: BRANCH  33  34
DOCKED: ATOM     34  C   UNL d   1      -1.813 -12.978  10.851 -0.02 -0.02    +0.306 C 
DOCKED: ATOM     35  O   UNL d   1      -0.724 -13.521  10.925 -0.01 +0.02    -0.251 OA
DOCKED: BRANCH  34  36
DOCKED: ATOM     36  O   UNL d   1      -2.687 -13.029  11.871 +0.01 +0.03    -0.481 OA
DOCKED: ATOM     37  H   UNL d   1      -2.791 -12.096  12.154 +0.05 -0.02    +0.295 HD
DOCKED: ENDBRANCH  34  36
DOCKED: ENDBRANCH  33  34
DOCKED: ENDBRANCH   7  33
DOCKED: BRANCH  27  38
DOCKED: ATOM     38  C   UNL d   1       4.678 -12.076   6.108 -0.24 -0.00    +0.017 C 
DOCKED: ATOM     39  C   UNL d   1       5.981 -11.892   6.370 -0.19 -0.01    +0.092 C 
DOCKED: BRANCH  39  40
DOCKED: ATOM     40  C   UNL d   1       6.993 -12.564   5.550 -0.15 -0.05    +0.330 C 
DOCKED: ATOM     41  O   UNL d   1       7.864 -13.327   5.922 -0.06 +0.04    -0.246 OA
DOCKED: BRANCH  40  42
DOCKED: ATOM     42  O   UNL d   1       6.836 -12.232   4.260 -0.72 +0.01    -0.477 OA
DOCKED: ATOM     43  H   UNL d   1       5.984 -12.646   4.012 -0.44 -0.09    +0.295 HD
DOCKED: ENDBRANCH  40  42
DOCKED: ENDBRANCH  39  40
DOCKED: ENDBRANCH  27  38
DOCKED: BRANCH   8  44
DOCKED: ATOM     44  C   UNL d   1       0.467  -7.145  14.885 -0.17 -0.08    +0.141 C 
DOCKED: BRANCH  44  45
DOCKED: ATOM     45  C   UNL d   1       0.521  -7.027  16.385 -0.05 -0.10    +0.306 C 
DOCKED: ATOM     46  O   UNL d   1      -0.378  -7.283  17.167 -0.06 +0.05    -0.251 OA
DOCKED: BRANCH  45  47
DOCKED: ATOM     47  O   UNL d   1       1.706  -6.563  16.823 +0.00 +0.17    -0.481 OA
DOCKED: ATOM     48  H   UNL d   1       2.156  -6.233  16.016 +0.05 -0.17    +0.295 HD
DOCKED: ENDBRANCH  45  47
DOCKED: ENDBRANCH  44  45
DOCKED: ENDBRANCH   8  44
DOCKED: BRANCH  22  49
DOCKED: ATOM     49  C   UNL d   1       6.871  -7.177   7.684 -0.26 -0.00    +0.048 C 
DOCKED: BRANCH  49  50
DOCKED: ATOM     50  C   UNL d   1       8.044  -8.157   7.733 -0.25 -0.01    +0.125 C 
DOCKED: BRANCH  50  51
DOCKED: ATOM     51  C   UNL d   1       7.871  -9.144   8.853 -0.05 -0.02    +0.305 C 
DOCKED: ATOM     52  O   UNL d   1       7.273 -10.205   8.823 -0.04 +0.02    -0.251 OA
DOCKED: BRANCH  51  53
DOCKED: ATOM     53  O   UNL d   1       8.465  -8.727   9.989 +0.01 +0.01    -0.481 OA
DOCKED: ATOM     54  H   UNL d   1       7.820  -8.952  10.692 +0.04 -0.02    +0.295 HD
DOCKED: ENDBRANCH  51  53
DOCKED: ENDBRANCH  50  51
DOCKED: ENDBRANCH  49  50
DOCKED: ENDBRANCH  22  49
DOCKED: TORSDOF 13
DOCKED: TER
DOCKED: ENDMDL
________________________________________________________________________________


	BEGINNING GENETIC ALGORITHM DOCKING 42 of 100
Run: 42 Seed: 410194908 1660756458 [ Run 42 of 100 GA/GALS ]
Beginning LAMARCKIAN GENETIC ALGORITHM (LGA), with a maximum of 25000000 energy evaluations.

Final-Value: -10.044


	FINAL GENETIC ALGORITHM DOCKED STATE
	_______________________________________________


Detailed state:  trans 21.393 -3.783 -5.008 quatxyzw 0.238433 0.553728 0.201179 0.772051 center 0.153 0.018 -0.028 ntor 13 -93.5099 167.2441 -134.9010 -85.1048 26.6691 19.1025 123.3280 -38.6752 123.2036 -27.0403 -52.4746 -74.8061 26.7537
State:	 21.393  -3.783  -5.008   0.375  0.871  0.317 78.923    -93.51  167.24 -134.90  -85.10   26.67   19.10  123.33  -38.68  123.20  -27.04  -52.47  -74.81   26.75

DOCKED: MODEL       42
DOCKED: USER    Run = 42
DOCKED: USER    DPF = D:/Protein_go_brrr/autodock/final/mut_Y35F/heme/dock.dpf
DOCKED: USER  
DOCKED: USER    Estimated Free Energy of Binding    =   -1.64 kcal/mol  [=(1)+(2)+(3)-(4)]
DOCKED: USER    Estimated Inhibition Constant, Ki   =   63.02 mM (millimolar)  [Temperature = 298.15 K]
DOCKED: USER    
DOCKED: USER    (1) Final Intermolecular Energy     =   -5.52 kcal/mol
DOCKED: USER        vdW + Hbond + desolv Energy     =   -5.45 kcal/mol
DOCKED: USER        Electrostatic Energy            =   -0.07 kcal/mol
DOCKED: USER    (2) Final Total Internal Energy     =   -4.53 kcal/mol
DOCKED: USER    (3) Torsional Free Energy           =   +3.88 kcal/mol
DOCKED: USER    (4) Unbound System's Energy  [=(2)] =   -4.53 kcal/mol
DOCKED: USER    
DOCKED: USER    
DOCKED: USER    NEWDPF move heme_opt.pdbqt
DOCKED: USER    NEWDPF about 0.153000 0.018000 -0.028000
DOCKED: USER    NEWDPF tran0 21.392837 -3.782579 -5.008437
DOCKED: USER    NEWDPF quaternion0 0.238433 0.553728 0.201179 0.772051
DOCKED: USER    NEWDPF axisangle0 0.375153 0.871243 0.316538 78.923161
DOCKED: USER    NEWDPF quat0 0.375153 0.871243 0.316538 78.923161
DOCKED: USER    NEWDPF dihe0 -93.51 167.24 -134.90 -85.10 26.67 19.10 123.33 -38.68 123.20 -27.04 -52.47 -74.81 26.75 
DOCKED: USER  keepresnum = 1 
DOCKED: USER  
DOCKED: REMARK  13 active torsions:
DOCKED: REMARK  status: ('A' for Active; 'I' for Inactive)
DOCKED: REMARK    1  A    between atoms: O_3  and  C_38 
DOCKED: REMARK    2  A    between atoms: O_4  and  C_40 
DOCKED: REMARK    3  A    between atoms: O_7  and  C_46 
DOCKED: REMARK    4  A    between atoms: O_9  and  C_48 
DOCKED: REMARK    5  A    between atoms: C_15  and  C_20 
DOCKED: REMARK    6  A    between atoms: C_16  and  C_23 
DOCKED: REMARK    7  A    between atoms: C_20  and  C_38 
DOCKED: REMARK    8  A    between atoms: C_23  and  C_40 
DOCKED: REMARK    9  A    between atoms: C_32  and  C_41 
DOCKED: REMARK   10  A    between atoms: C_37  and  C_45 
DOCKED: REMARK   11  A    between atoms: C_41  and  C_44 
DOCKED: REMARK   12  A    between atoms: C_44  and  C_46 
DOCKED: REMARK   13  A    between atoms: C_47  and  C_48 
DOCKED: USER                              x       y       z     vdW  Elec       q    Type
DOCKED: USER                           _______ _______ _______ _____ _____    ______ ____
DOCKED: ROOT
DOCKED: ATOM      1  O   UNL d   1      20.156  -1.778 -10.413 -0.19 +0.06    -0.289 OA
DOCKED: ATOM      2  O   UNL d   1      18.994  -8.495  -7.262 -0.01 -0.11    -0.289 OA
DOCKED: ATOM      3  N   UNL d   1      21.187  -2.543  -7.212 -0.10 -0.01    -0.247 NA
DOCKED: ATOM      4  N   UNL d   1      20.041  -5.246  -6.753 -0.12 -0.15    -0.247 NA
DOCKED: ATOM      5  N   UNL d   1      20.630  -4.920  -3.958 -0.09 -0.17    -0.354 N 
DOCKED: ATOM      6  N   UNL d   1      21.799  -2.109  -4.440 -0.12 -0.02    -0.354 N 
DOCKED: ATOM      7  C   UNL d   1      21.155  -0.509  -8.578 -0.22 -0.01    +0.084 A 
DOCKED: ATOM      8  C   UNL d   1      19.629  -6.635  -8.721 -0.04 +0.02    +0.084 A 
DOCKED: ATOM      9  C   UNL d   1      20.048  -5.285  -8.129 -0.11 +0.02    +0.058 A 
DOCKED: ATOM     10  C   UNL d   1      21.489  -1.192  -7.249 -0.18 -0.00    +0.058 A 
DOCKED: ATOM     11  C   UNL d   1      20.628  -1.717  -9.293 -0.14 -0.01    +0.193 A 
DOCKED: ATOM     12  C   UNL d   1      20.724  -2.891  -8.368 -0.09 +0.01    +0.109 A 
DOCKED: ATOM     13  C   UNL d   1      19.347  -7.343  -7.426 -0.04 +0.10    +0.193 A 
DOCKED: ATOM     14  C   UNL d   1      20.024   0.512  -8.432 -0.28 -0.01    +0.026 C 
DOCKED: ATOM     15  C   UNL d   1      20.345  -4.220  -8.890 -0.13 +0.01    +0.055 C 
DOCKED: ATOM     16  C   UNL d   1      20.797  -7.335  -9.421 -0.00 +0.00    +0.026 C 
DOCKED: ATOM     17  C   UNL d   1      19.628  -6.390  -6.310 -0.07 +0.10    +0.109 A 
DOCKED: ATOM     18  C   UNL d   1      22.106  -0.529  -6.253 -0.21 -0.00    +0.050 C 
DOCKED: ATOM     19  C   UNL d   1      22.529  -1.098  -5.024 -0.17 +0.00    +0.045 A 
DOCKED: ATOM     20  C   UNL d   1      19.869  -6.059  -3.907 -0.14 +0.04    +0.045 A 
DOCKED: ATOM     21  C   UNL d   1      19.398  -6.797  -4.916 -0.03 +0.06    +0.057 C 
DOCKED: ATOM     22  C   UNL d   1      20.296  -5.360  -1.774 -0.14 -0.01    -0.019 A 
DOCKED: ATOM     23  C   UNL d   1      20.937  -4.424  -2.719 -0.19 +0.01    +0.045 A 
DOCKED: ATOM     24  C   UNL d   1      19.667  -6.327  -2.483 -0.13 -0.01    -0.022 A 
DOCKED: ATOM     25  C   UNL d   1      22.334  -2.446  -3.218 -0.12 +0.01    +0.049 A 
DOCKED: ATOM     26  C   UNL d   1      23.585  -0.797  -4.179 -0.11 -0.00    -0.018 A 
DOCKED: ATOM     27  C   UNL d   1      23.469  -1.664  -3.049 -0.12 +0.00    +0.003 A 
DOCKED: ATOM     28  C   UNL d   1      21.665  -3.356  -2.356 -0.12 +0.01    +0.052 C 
DOCKED: ATOM     29  C   UNL d   1      18.893  -7.498  -1.981 -0.09 +0.02    +0.046 C 
DOCKED: ATOM     30  C   UNL d   1      24.641   0.232  -4.405 -0.06 +0.00    +0.046 C 
DOCKED: ATOM     31  H   UNL d   1      20.978  -4.558  -4.839 +0.03 +0.06    +0.166 HD
DOCKED: ATOM     32  H   UNL d   1      20.963  -2.506  -4.851 -0.30 -0.01    +0.166 HD
DOCKED: ENDROOT
DOCKED: BRANCH   7  33
DOCKED: ATOM     33  C   UNL d   1      22.352   0.082  -9.332 -0.09 -0.02    +0.141 C 
DOCKED: BRANCH  33  34
DOCKED: ATOM     34  C   UNL d   1      21.994   0.540 -10.720 -0.07 -0.08    +0.306 C 
DOCKED: ATOM     35  O   UNL d   1      21.458   1.595 -11.014 -0.16 +0.09    -0.251 OA
DOCKED: BRANCH  34  36
DOCKED: ATOM     36  O   UNL d   1      22.332  -0.355 -11.665 +0.00 +0.10    -0.481 OA
DOCKED: ATOM     37  H   UNL d   1      21.584  -0.988 -11.684 +0.08 -0.06    +0.295 HD
DOCKED: ENDBRANCH  34  36
DOCKED: ENDBRANCH  33  34
DOCKED: ENDBRANCH   7  33
DOCKED: BRANCH  27  38
DOCKED: ATOM     38  C   UNL d   1      24.352  -1.676  -1.923 -0.09 +0.00    +0.017 C 
DOCKED: ATOM     39  C   UNL d   1      23.979  -1.860  -0.648 -0.09 +0.01    +0.092 C 
DOCKED: BRANCH  39  40
DOCKED: ATOM     40  C   UNL d   1      24.988  -1.867   0.415 -0.02 +0.03    +0.330 C 
DOCKED: ATOM     41  O   UNL d   1      26.129  -1.448   0.360 -0.01 -0.01    -0.246 OA
DOCKED: BRANCH  40  42
DOCKED: ATOM     42  O   UNL d   1      24.480  -2.414   1.530 -0.00 -0.04    -0.477 OA
DOCKED: ATOM     43  H   UNL d   1      23.518  -2.453   1.355 +0.03 +0.03    +0.295 HD
DOCKED: ENDBRANCH  40  42
DOCKED: ENDBRANCH  39  40
DOCKED: ENDBRANCH  27  38
DOCKED: BRANCH   8  44
DOCKED: ATOM     44  C   UNL d   1      18.384  -6.606  -9.614 -0.05 +0.03    +0.141 C 
DOCKED: BRANCH  44  45
DOCKED: ATOM     45  C   UNL d   1      17.097  -6.512  -8.837 -0.08 +0.15    +0.306 C 
DOCKED: ATOM     46  O   UNL d   1      16.620  -5.506  -8.342 -0.77 -0.22    -0.251 OA
DOCKED: BRANCH  45  47
DOCKED: ATOM     47  O   UNL d   1      16.490  -7.704  -8.700 -0.02 -0.17    -0.481 OA
DOCKED: ATOM     48  H   UNL d   1      17.212  -8.325  -8.463 +0.03 +0.09    +0.295 HD
DOCKED: ENDBRANCH  45  47
DOCKED: ENDBRANCH  44  45
DOCKED: ENDBRANCH   8  44
DOCKED: BRANCH  22  49
DOCKED: ATOM     49  C   UNL d   1      20.346  -5.217  -0.281 -0.13 +0.01    +0.048 C 
DOCKED: BRANCH  49  50
DOCKED: ATOM     50  C   UNL d   1      21.783  -5.165   0.238 -0.06 +0.02    +0.125 C 
DOCKED: BRANCH  50  51
DOCKED: ATOM     51  C   UNL d   1      21.988  -3.973   1.130 -0.05 +0.04    +0.305 C 
DOCKED: ATOM     52  O   UNL d   1      21.619  -2.828   0.937 -0.07 -0.05    -0.251 OA
DOCKED: BRANCH  51  53
DOCKED: ATOM     53  O   UNL d   1      22.677  -4.290   2.244 -0.00 -0.04    -0.481 OA
DOCKED: ATOM     54  H   UNL d   1      23.607  -4.082   2.017 +0.02 +0.02    +0.295 HD
DOCKED: ENDBRANCH  51  53
DOCKED: ENDBRANCH  50  51
DOCKED: ENDBRANCH  49  50
DOCKED: ENDBRANCH  22  49
DOCKED: TORSDOF 13
DOCKED: TER
DOCKED: ENDMDL
________________________________________________________________________________


	BEGINNING GENETIC ALGORITHM DOCKING 43 of 100
Run: 43 Seed: 46003596 1785751871 [ Run 43 of 100 GA/GALS ]
Beginning LAMARCKIAN GENETIC ALGORITHM (LGA), with a maximum of 25000000 energy evaluations.

Final-Value: -10.624


	FINAL GENETIC ALGORITHM DOCKED STATE
	_______________________________________________


Detailed state:  trans 5.701 -9.508 8.542 quatxyzw 0.946031 0.146267 -0.036354 0.286898 center 0.153 0.018 -0.028 ntor 13 103.6233 -93.7347 155.9283 -86.9994 -132.9011 5.6906 86.7379 83.1726 29.6909 103.9398 -26.4005 -179.5709 -155.4267
State:	  5.701  -9.508   8.542   0.988  0.153 -0.038 146.655    103.62  -93.73  155.93  -87.00 -132.90    5.69   86.74   83.17   29.69  103.94  -26.40 -179.57 -155.43

DOCKED: MODEL       43
DOCKED: USER    Run = 43
DOCKED: USER    DPF = D:/Protein_go_brrr/autodock/final/mut_Y35F/heme/dock.dpf
DOCKED: USER  
DOCKED: USER    Estimated Free Energy of Binding    =   -5.19 kcal/mol  [=(1)+(2)+(3)-(4)]
DOCKED: USER    Estimated Inhibition Constant, Ki   =  157.16 uM (micromolar)  [Temperature = 298.15 K]
DOCKED: USER    
DOCKED: USER    (1) Final Intermolecular Energy     =   -9.07 kcal/mol
DOCKED: USER        vdW + Hbond + desolv Energy     =   -8.62 kcal/mol
DOCKED: USER        Electrostatic Energy            =   -0.45 kcal/mol
DOCKED: USER    (2) Final Total Internal Energy     =   -1.56 kcal/mol
DOCKED: USER    (3) Torsional Free Energy           =   +3.88 kcal/mol
DOCKED: USER    (4) Unbound System's Energy  [=(2)] =   -1.56 kcal/mol
DOCKED: USER    
DOCKED: USER    
DOCKED: USER    NEWDPF move heme_opt.pdbqt
DOCKED: USER    NEWDPF about 0.153000 0.018000 -0.028000
DOCKED: USER    NEWDPF tran0 5.700737 -9.508436 8.542178
DOCKED: USER    NEWDPF quaternion0 0.946031 0.146267 -0.036354 0.286898
DOCKED: USER    NEWDPF axisangle0 0.987546 0.152686 -0.037950 146.655326
DOCKED: USER    NEWDPF quat0 0.987546 0.152686 -0.037950 146.655326
DOCKED: USER    NEWDPF dihe0 103.62 -93.73 155.93 -87.00 -132.90 5.69 86.74 83.17 29.69 103.94 -26.40 -179.57 -155.43 
DOCKED: USER  keepresnum = 1 
DOCKED: USER  
DOCKED: REMARK  13 active torsions:
DOCKED: REMARK  status: ('A' for Active; 'I' for Inactive)
DOCKED: REMARK    1  A    between atoms: O_3  and  C_38 
DOCKED: REMARK    2  A    between atoms: O_4  and  C_40 
DOCKED: REMARK    3  A    between atoms: O_7  and  C_46 
DOCKED: REMARK    4  A    between atoms: O_9  and  C_48 
DOCKED: REMARK    5  A    between atoms: C_15  and  C_20 
DOCKED: REMARK    6  A    between atoms: C_16  and  C_23 
DOCKED: REMARK    7  A    between atoms: C_20  and  C_38 
DOCKED: REMARK    8  A    between atoms: C_23  and  C_40 
DOCKED: REMARK    9  A    between atoms: C_32  and  C_41 
DOCKED: REMARK   10  A    between atoms: C_37  and  C_45 
DOCKED: REMARK   11  A    between atoms: C_41  and  C_44 
DOCKED: REMARK   12  A    between atoms: C_44  and  C_46 
DOCKED: REMARK   13  A    between atoms: C_47  and  C_48 
DOCKED: USER                              x       y       z     vdW  Elec       q    Type
DOCKED: USER                           _______ _______ _______ _____ _____    ______ ____
DOCKED: ROOT
DOCKED: ATOM      1  O   UNL d   1       0.678 -12.172   6.983 -0.20 +0.05    -0.289 OA
DOCKED: ATOM      2  O   UNL d   1       2.166  -7.299  12.499 -0.02 +0.37    -0.289 OA
DOCKED: ATOM      3  N   UNL d   1       3.849 -10.966   7.605 -0.11 +0.02    -0.247 NA
DOCKED: ATOM      4  N   UNL d   1       3.400  -8.923   9.716 -0.08 +0.03    -0.247 NA
DOCKED: ATOM      5  N   UNL d   1       6.067  -7.967   9.227 -0.05 +0.04    -0.354 N 
DOCKED: ATOM      6  N   UNL d   1       6.517 -10.077   7.025 -0.01 +0.04    -0.354 N 
DOCKED: ATOM      7  C   UNL d   1       2.844 -12.372   5.867 -0.38 -0.02    +0.084 A 
DOCKED: ATOM      8  C   UNL d   1       1.441  -9.208  11.149 -0.16 -0.02    +0.084 A 
DOCKED: ATOM      9  C   UNL d   1       2.261  -9.664   9.937 -0.13 -0.01    +0.058 A 
DOCKED: ATOM     10  C   UNL d   1       4.082 -11.675   6.439 -0.18 -0.01    +0.058 A 
DOCKED: ATOM     11  C   UNL d   1       1.873 -11.947   6.928 -0.23 -0.04    +0.193 A 
DOCKED: ATOM     12  C   UNL d   1       2.609 -11.122   7.938 -0.19 -0.01    +0.109 A 
DOCKED: ATOM     13  C   UNL d   1       2.307  -8.048  11.552 -0.15 -0.12    +0.193 A 
DOCKED: ATOM     14  C   UNL d   1       2.410 -11.768   4.529 -0.34 -0.01    +0.026 C 
DOCKED: ATOM     15  C   UNL d   1       1.871 -10.665   9.133 -0.20 -0.01    +0.055 C 
DOCKED: ATOM     16  C   UNL d   1       1.459 -10.249  12.271 -0.06 -0.01    +0.026 C 
DOCKED: ATOM     17  C   UNL d   1       3.457  -7.979  10.600 -0.16 -0.04    +0.109 A 
DOCKED: ATOM     18  C   UNL d   1       5.297 -11.832   5.881 -0.14 -0.01    +0.050 C 
DOCKED: ATOM     19  C   UNL d   1       6.509 -11.296   6.387 -0.16 -0.01    +0.045 A 
DOCKED: ATOM     20  C   UNL d   1       5.606  -6.970  10.047 -0.18 -0.01    +0.045 A 
DOCKED: ATOM     21  C   UNL d   1       4.455  -6.907  10.724 -0.27 -0.03    +0.057 C 
DOCKED: ATOM     22  C   UNL d   1       7.661  -6.375   9.245 -0.18 +0.00    -0.019 A 
DOCKED: ATOM     23  C   UNL d   1       7.300  -7.697   8.695 -0.17 -0.00    +0.045 A 
DOCKED: ATOM     24  C   UNL d   1       6.654  -5.950  10.046 -0.13 +0.00    -0.022 A 
DOCKED: ATOM     25  C   UNL d   1       7.802  -9.710   7.351 -0.19 -0.01    +0.049 A 
DOCKED: ATOM     26  C   UNL d   1       7.818 -11.751   6.328 -0.19 +0.00    -0.018 A 
DOCKED: ATOM     27  C   UNL d   1       8.627 -10.754   6.956 -0.20 -0.00    +0.003 A 
DOCKED: ATOM     28  C   UNL d   1       8.081  -8.419   7.877 -0.25 -0.01    +0.052 C 
DOCKED: ATOM     29  C   UNL d   1       6.557  -4.687  10.831 -0.20 -0.01    +0.046 C 
DOCKED: ATOM     30  C   UNL d   1       8.290 -13.032   5.729 -0.15 -0.01    +0.046 C 
DOCKED: ATOM     31  H   UNL d   1       5.555  -8.835   9.115 +0.06 -0.02    +0.166 HD
DOCKED: ATOM     32  H   UNL d   1       5.684  -9.523   7.186 +0.07 -0.01    +0.166 HD
DOCKED: ENDROOT
DOCKED: BRANCH   7  33
DOCKED: ATOM     33  C   UNL d   1       2.925 -13.900   5.794 -0.32 -0.04    +0.141 C 
DOCKED: BRANCH  33  34
DOCKED: ATOM     34  C   UNL d   1       2.710 -14.557   7.131 -0.10 -0.05    +0.306 C 
DOCKED: ATOM     35  O   UNL d   1       3.533 -14.655   8.026 -0.03 +0.03    -0.251 OA
DOCKED: BRANCH  34  36
DOCKED: ATOM     36  O   UNL d   1       1.468 -15.052   7.271 -0.07 +0.06    -0.481 OA
DOCKED: ATOM     37  H   UNL d   1       0.913 -14.272   7.483 +0.10 -0.03    +0.295 HD
DOCKED: ENDBRANCH  34  36
DOCKED: ENDBRANCH  33  34
DOCKED: ENDBRANCH   7  33
DOCKED: BRANCH  27  38
DOCKED: ATOM     38  C   UNL d   1      10.051 -10.817   7.099 -0.20 -0.00    +0.017 C 
DOCKED: ATOM     39  C   UNL d   1      10.899 -11.317   6.188 -0.16 -0.04    +0.092 C 
DOCKED: BRANCH  39  40
DOCKED: ATOM     40  C   UNL d   1      12.341 -11.307   6.449 -0.05 -0.03    +0.330 C 
DOCKED: ATOM     41  O   UNL d   1      12.910 -10.940   7.460 -0.37 -0.11    -0.246 OA
DOCKED: BRANCH  40  42
DOCKED: ATOM     42  O   UNL d   1      13.006 -11.785   5.387 -0.06 +0.22    -0.477 OA
DOCKED: ATOM     43  H   UNL d   1      13.127 -11.001   4.813 -0.26 -0.43    +0.295 HD
DOCKED: ENDBRANCH  40  42
DOCKED: ENDBRANCH  39  40
DOCKED: ENDBRANCH  27  38
DOCKED: BRANCH   8  44
DOCKED: ATOM     44  C   UNL d   1       0.012  -8.746  10.844 -0.22 -0.04    +0.141 C 
DOCKED: BRANCH  44  45
DOCKED: ATOM     45  C   UNL d   1      -0.793  -9.767  10.086 -0.19 -0.05    +0.306 C 
DOCKED: ATOM     46  O   UNL d   1      -0.824 -10.968  10.293 -0.08 +0.03    -0.251 OA
DOCKED: BRANCH  45  47
DOCKED: ATOM     47  O   UNL d   1      -1.503  -9.221   9.082 -0.21 +0.09    -0.481 OA
DOCKED: ATOM     48  H   UNL d   1      -1.631  -8.286   9.349 -0.30 -0.14    +0.295 HD
DOCKED: ENDBRANCH  45  47
DOCKED: ENDBRANCH  44  45
DOCKED: ENDBRANCH   8  44
DOCKED: BRANCH  22  49
DOCKED: ATOM     49  C   UNL d   1       8.936  -5.650   8.928 -0.27 +0.00    +0.048 C 
DOCKED: BRANCH  49  50
DOCKED: ATOM     50  C   UNL d   1       8.671  -4.283   8.298 -0.39 +0.00    +0.125 C 
DOCKED: BRANCH  50  51
DOCKED: ATOM     51  C   UNL d   1       9.818  -3.346   8.549 -0.20 +0.04    +0.305 C 
DOCKED: ATOM     52  O   UNL d   1      10.899  -3.327   7.986 -0.31 -0.05    -0.251 OA
DOCKED: BRANCH  51  53
DOCKED: ATOM     53  O   UNL d   1       9.544  -2.463   9.530 -0.10 -0.08    -0.481 OA
DOCKED: ATOM     54  H   UNL d   1       9.887  -2.894  10.341 +0.09 +0.04    +0.295 HD
DOCKED: ENDBRANCH  51  53
DOCKED: ENDBRANCH  50  51
DOCKED: ENDBRANCH  49  50
DOCKED: ENDBRANCH  22  49
DOCKED: TORSDOF 13
DOCKED: TER
DOCKED: ENDMDL
________________________________________________________________________________


	BEGINNING GENETIC ALGORITHM DOCKING 44 of 100
Run: 44 Seed: 112160131 688497915 [ Run 44 of 100 GA/GALS ]
Beginning LAMARCKIAN GENETIC ALGORITHM (LGA), with a maximum of 25000000 energy evaluations.

Final-Value: -11.846


	FINAL GENETIC ALGORITHM DOCKED STATE
	_______________________________________________


Detailed state:  trans 0.955 3.569 -14.325 quatxyzw -0.828868 -0.501486 0.247972 -0.000084 center 0.153 0.018 -0.028 ntor 13 155.8722 179.7977 -91.2165 35.2539 -148.2653 -98.5688 122.7298 21.0232 7.3160 -35.7670 -82.9546 35.4241 1.8056
State:	  0.955   3.569 -14.325  -0.829 -0.501  0.248 -179.990    155.87  179.80  -91.22   35.25 -148.27  -98.57  122.73   21.02    7.32  -35.77  -82.95   35.42    1.81

DOCKED: MODEL       44
DOCKED: USER    Run = 44
DOCKED: USER    DPF = D:/Protein_go_brrr/autodock/final/mut_Y35F/heme/dock.dpf
DOCKED: USER  
DOCKED: USER    Estimated Free Energy of Binding    =   -3.16 kcal/mol  [=(1)+(2)+(3)-(4)]
DOCKED: USER    Estimated Inhibition Constant, Ki   =    4.85 mM (millimolar)  [Temperature = 298.15 K]
DOCKED: USER    
DOCKED: USER    (1) Final Intermolecular Energy     =   -7.04 kcal/mol
DOCKED: USER        vdW + Hbond + desolv Energy     =   -6.93 kcal/mol
DOCKED: USER        Electrostatic Energy            =   -0.11 kcal/mol
DOCKED: USER    (2) Final Total Internal Energy     =   -4.81 kcal/mol
DOCKED: USER    (3) Torsional Free Energy           =   +3.88 kcal/mol
DOCKED: USER    (4) Unbound System's Energy  [=(2)] =   -4.81 kcal/mol
DOCKED: USER    
DOCKED: USER    
DOCKED: USER    NEWDPF move heme_opt.pdbqt
DOCKED: USER    NEWDPF about 0.153000 0.018000 -0.028000
DOCKED: USER    NEWDPF tran0 0.955399 3.569281 -14.325123
DOCKED: USER    NEWDPF quaternion0 -0.828868 -0.501486 0.247972 -0.000084
DOCKED: USER    NEWDPF axisangle0 -0.828868 -0.501486 0.247972 -179.990428
DOCKED: USER    NEWDPF quat0 -0.828868 -0.501486 0.247972 -179.990428
DOCKED: USER    NEWDPF dihe0 155.87 179.80 -91.22 35.25 -148.27 -98.57 122.73 21.02 7.32 -35.77 -82.95 35.42 1.81 
DOCKED: USER  keepresnum = 1 
DOCKED: USER  
DOCKED: REMARK  13 active torsions:
DOCKED: REMARK  status: ('A' for Active; 'I' for Inactive)
DOCKED: REMARK    1  A    between atoms: O_3  and  C_38 
DOCKED: REMARK    2  A    between atoms: O_4  and  C_40 
DOCKED: REMARK    3  A    between atoms: O_7  and  C_46 
DOCKED: REMARK    4  A    between atoms: O_9  and  C_48 
DOCKED: REMARK    5  A    between atoms: C_15  and  C_20 
DOCKED: REMARK    6  A    between atoms: C_16  and  C_23 
DOCKED: REMARK    7  A    between atoms: C_20  and  C_38 
DOCKED: REMARK    8  A    between atoms: C_23  and  C_40 
DOCKED: REMARK    9  A    between atoms: C_32  and  C_41 
DOCKED: REMARK   10  A    between atoms: C_37  and  C_45 
DOCKED: REMARK   11  A    between atoms: C_41  and  C_44 
DOCKED: REMARK   12  A    between atoms: C_44  and  C_46 
DOCKED: REMARK   13  A    between atoms: C_47  and  C_48 
DOCKED: USER                              x       y       z     vdW  Elec       q    Type
DOCKED: USER                           _______ _______ _______ _____ _____    ______ ____
DOCKED: ROOT
DOCKED: ATOM      1  O   UNL d   1      -0.006  -2.096 -13.008 -0.10 -0.05    -0.289 OA
DOCKED: ATOM      2  O   UNL d   1      -3.418   4.161 -10.642 -0.18 -0.05    -0.289 OA
DOCKED: ATOM      3  N   UNL d   1       1.006   1.059 -13.965 -0.10 -0.02    -0.247 NA
DOCKED: ATOM      4  N   UNL d   1      -1.080   2.827 -12.802 -0.13 -0.01    -0.247 NA
DOCKED: ATOM      5  N   UNL d   1      -0.071   4.951 -14.457 -0.09 +0.01    -0.354 N 
DOCKED: ATOM      6  N   UNL d   1       2.077   3.104 -15.673 -0.05 +0.00    -0.354 N 
DOCKED: ATOM      7  C   UNL d   1       1.642  -1.224 -14.588 -0.08 +0.01    +0.084 A 
DOCKED: ATOM      8  C   UNL d   1      -2.262   2.011 -10.825 -0.28 +0.01    +0.084 A 
DOCKED: ATOM      9  C   UNL d   1      -1.258   1.757 -11.954 -0.23 +0.00    +0.058 A 
DOCKED: ATOM     10  C   UNL d   1       1.827   0.286 -14.768 -0.11 +0.01    +0.058 A 
DOCKED: ATOM     11  C   UNL d   1       0.584  -1.167 -13.528 -0.09 +0.03    +0.193 A 
DOCKED: ATOM     12  C   UNL d   1       0.304   0.271 -13.218 -0.15 +0.01    +0.109 A 
DOCKED: ATOM     13  C   UNL d   1      -2.648   3.412 -11.210 -0.14 +0.02    +0.193 A 
DOCKED: ATOM     14  C   UNL d   1       1.055  -1.884 -15.839 -0.03 +0.00    +0.026 C 
DOCKED: ATOM     15  C   UNL d   1      -0.647   0.575 -12.129 -0.24 +0.00    +0.055 C 
DOCKED: ATOM     16  C   UNL d   1      -1.578   2.049  -9.455 -0.51 +0.00    +0.026 C 
DOCKED: ATOM     17  C   UNL d   1      -1.867   3.785 -12.428 -0.07 +0.00    +0.109 A 
DOCKED: ATOM     18  C   UNL d   1       2.779   0.786 -15.578 -0.13 +0.00    +0.050 C 
DOCKED: ATOM     19  C   UNL d   1       3.079   2.162 -15.743 -0.10 +0.00    +0.045 A 
DOCKED: ATOM     20  C   UNL d   1      -1.218   5.539 -13.992 -0.15 -0.00    +0.045 A 
DOCKED: ATOM     21  C   UNL d   1      -2.071   5.095 -13.063 -0.12 +0.00    +0.057 C 
DOCKED: ATOM     22  C   UNL d   1      -0.285   6.893 -15.578 -0.14 +0.00    -0.019 A 
DOCKED: ATOM     23  C   UNL d   1       0.562   5.694 -15.418 -0.18 -0.00    +0.045 A 
DOCKED: ATOM     24  C   UNL d   1      -1.336   6.796 -14.731 -0.14 +0.00    -0.022 A 
DOCKED: ATOM     25  C   UNL d   1       2.573   4.358 -15.950 -0.11 -0.00    +0.049 A 
DOCKED: ATOM     26  C   UNL d   1       4.261   2.824 -16.036 -0.18 +0.00    -0.018 A 
DOCKED: ATOM     27  C   UNL d   1       3.939   4.212 -16.147 -0.23 -0.00    +0.003 A 
DOCKED: ATOM     28  C   UNL d   1       1.701   5.471 -16.092 -0.19 -0.00    +0.052 C 
DOCKED: ATOM     29  C   UNL d   1      -2.454   7.759 -14.517 -0.10 -0.00    +0.046 C 
DOCKED: ATOM     30  C   UNL d   1       5.608   2.208 -16.203 -0.20 -0.00    +0.046 C 
DOCKED: ATOM     31  H   UNL d   1       0.283   4.093 -14.048 +0.05 -0.00    +0.166 HD
DOCKED: ATOM     32  H   UNL d   1       1.108   2.879 -15.483 +0.03 +0.00    +0.166 HD
DOCKED: ENDROOT
DOCKED: BRANCH   7  33
DOCKED: ATOM     33  C   UNL d   1       2.874  -1.981 -14.079 -0.12 +0.06    +0.141 C 
DOCKED: BRANCH  33  34
DOCKED: ATOM     34  C   UNL d   1       3.410  -1.415 -12.792 -0.08 +0.18    +0.306 C 
DOCKED: ATOM     35  O   UNL d   1       4.299  -0.588 -12.683 -0.27 -0.09    -0.251 OA
DOCKED: BRANCH  34  36
DOCKED: ATOM     36  O   UNL d   1       2.795  -1.920 -11.708 -0.67 -0.42    -0.481 OA
DOCKED: ATOM     37  H   UNL d   1       1.904  -2.179 -12.027 +0.14 +0.18    +0.295 HD
DOCKED: ENDBRANCH  34  36
DOCKED: ENDBRANCH  33  34
DOCKED: ENDBRANCH   7  33
DOCKED: BRANCH  27  38
DOCKED: ATOM     38  C   UNL d   1       4.872   5.253 -16.457 -0.27 -0.00    +0.017 C 
DOCKED: ATOM     39  C   UNL d   1       5.325   6.170 -15.589 -0.31 -0.02    +0.092 C 
DOCKED: BRANCH  39  40
DOCKED: ATOM     40  C   UNL d   1       6.295   7.176 -16.031 -0.19 -0.07    +0.330 C 
DOCKED: ATOM     41  O   UNL d   1       7.498   7.178 -15.851 -0.20 +0.06    -0.246 OA
DOCKED: BRANCH  40  42
DOCKED: ATOM     42  O   UNL d   1       5.672   8.154 -16.706 -0.05 +0.06    -0.477 OA
DOCKED: ATOM     43  H   UNL d   1       4.731   7.882 -16.698 +0.08 -0.04    +0.295 HD
DOCKED: ENDBRANCH  40  42
DOCKED: ENDBRANCH  39  40
DOCKED: ENDBRANCH  27  38
DOCKED: BRANCH   8  44
DOCKED: ATOM     44  C   UNL d   1      -3.485   1.089 -10.808 -0.22 +0.01    +0.141 C 
DOCKED: BRANCH  44  45
DOCKED: ATOM     45  C   UNL d   1      -4.602   1.568 -11.697 -0.05 +0.02    +0.306 C 
DOCKED: ATOM     46  O   UNL d   1      -4.668   1.453 -12.908 -0.02 -0.01    -0.251 OA
DOCKED: BRANCH  45  47
DOCKED: ATOM     47  O   UNL d   1      -5.573   2.198 -11.010 -0.02 -0.06    -0.481 OA
DOCKED: ATOM     48  H   UNL d   1      -5.284   3.135 -10.975 +0.08 +0.05    +0.295 HD
DOCKED: ENDBRANCH  45  47
DOCKED: ENDBRANCH  44  45
DOCKED: ENDBRANCH   8  44
DOCKED: BRANCH  22  49
DOCKED: ATOM     49  C   UNL d   1       0.001   8.003 -16.546 -0.07 -0.00    +0.048 C 
DOCKED: BRANCH  49  50
DOCKED: ATOM     50  C   UNL d   1       1.031   8.988 -15.993 -0.12 -0.01    +0.125 C 
DOCKED: BRANCH  50  51
DOCKED: ATOM     51  C   UNL d   1       2.403   8.684 -16.522 -0.07 -0.03    +0.305 C 
DOCKED: ATOM     52  O   UNL d   1       2.695   7.967 -17.463 -0.04 +0.02    -0.251 OA
DOCKED: BRANCH  51  53
DOCKED: ATOM     53  O   UNL d   1       3.366   9.306 -15.813 -0.06 +0.06    -0.481 OA
DOCKED: ATOM     54  H   UNL d   1       4.048   9.529 -16.481 +0.08 -0.03    +0.295 HD
DOCKED: ENDBRANCH  51  53
DOCKED: ENDBRANCH  50  51
DOCKED: ENDBRANCH  49  50
DOCKED: ENDBRANCH  22  49
DOCKED: TORSDOF 13
DOCKED: TER
DOCKED: ENDMDL
________________________________________________________________________________


	BEGINNING GENETIC ALGORITHM DOCKING 45 of 100
Run: 45 Seed: 1280658300 433394067 [ Run 45 of 100 GA/GALS ]
Beginning LAMARCKIAN GENETIC ALGORITHM (LGA), with a maximum of 25000000 energy evaluations.

Final-Value: -13.025


	FINAL GENETIC ALGORITHM DOCKED STATE
	_______________________________________________


Detailed state:  trans 11.184 14.060 -10.349 quatxyzw -0.216823 0.458965 -0.369290 0.778437 center 0.153 0.018 -0.028 ntor 13 -85.4165 -118.9196 -138.7307 -68.6080 -129.6989 -68.9582 124.6908 -138.1747 -128.6212 -22.3429 -98.5623 -3.7876 -7.8295
State:	 11.184  14.060 -10.349  -0.345  0.731 -0.588 77.765    -85.42 -118.92 -138.73  -68.61 -129.70  -68.96  124.69 -138.17 -128.62  -22.34  -98.56   -3.79   -7.83

DOCKED: MODEL       45
DOCKED: USER    Run = 45
DOCKED: USER    DPF = D:/Protein_go_brrr/autodock/final/mut_Y35F/heme/dock.dpf
DOCKED: USER  
DOCKED: USER    Estimated Free Energy of Binding    =   -5.18 kcal/mol  [=(1)+(2)+(3)-(4)]
DOCKED: USER    Estimated Inhibition Constant, Ki   =  159.61 uM (micromolar)  [Temperature = 298.15 K]
DOCKED: USER    
DOCKED: USER    (1) Final Intermolecular Energy     =   -9.06 kcal/mol
DOCKED: USER        vdW + Hbond + desolv Energy     =   -8.68 kcal/mol
DOCKED: USER        Electrostatic Energy            =   -0.38 kcal/mol
DOCKED: USER    (2) Final Total Internal Energy     =   -3.97 kcal/mol
DOCKED: USER    (3) Torsional Free Energy           =   +3.88 kcal/mol
DOCKED: USER    (4) Unbound System's Energy  [=(2)] =   -3.97 kcal/mol
DOCKED: USER    
DOCKED: USER    
DOCKED: USER    NEWDPF move heme_opt.pdbqt
DOCKED: USER    NEWDPF about 0.153000 0.018000 -0.028000
DOCKED: USER    NEWDPF tran0 11.184483 14.060389 -10.349480
DOCKED: USER    NEWDPF quaternion0 -0.216823 0.458965 -0.369290 0.778437
DOCKED: USER    NEWDPF axisangle0 -0.345412 0.731158 -0.588301 77.764655
DOCKED: USER    NEWDPF quat0 -0.345412 0.731158 -0.588301 77.764655
DOCKED: USER    NEWDPF dihe0 -85.42 -118.92 -138.73 -68.61 -129.70 -68.96 124.69 -138.17 -128.62 -22.34 -98.56 -3.79 -7.83 
DOCKED: USER  keepresnum = 1 
DOCKED: USER  
DOCKED: REMARK  13 active torsions:
DOCKED: REMARK  status: ('A' for Active; 'I' for Inactive)
DOCKED: REMARK    1  A    between atoms: O_3  and  C_38 
DOCKED: REMARK    2  A    between atoms: O_4  and  C_40 
DOCKED: REMARK    3  A    between atoms: O_7  and  C_46 
DOCKED: REMARK    4  A    between atoms: O_9  and  C_48 
DOCKED: REMARK    5  A    between atoms: C_15  and  C_20 
DOCKED: REMARK    6  A    between atoms: C_16  and  C_23 
DOCKED: REMARK    7  A    between atoms: C_20  and  C_38 
DOCKED: REMARK    8  A    between atoms: C_23  and  C_40 
DOCKED: REMARK    9  A    between atoms: C_32  and  C_41 
DOCKED: REMARK   10  A    between atoms: C_37  and  C_45 
DOCKED: REMARK   11  A    between atoms: C_41  and  C_44 
DOCKED: REMARK   12  A    between atoms: C_44  and  C_46 
DOCKED: REMARK   13  A    between atoms: C_47  and  C_48 
DOCKED: USER                              x       y       z     vdW  Elec       q    Type
DOCKED: USER                           _______ _______ _______ _____ _____    ______ ____
DOCKED: ROOT
DOCKED: ATOM      1  O   UNL d   1       7.801  12.582 -14.946 -0.10 -0.00    -0.289 OA
DOCKED: ATOM      2  O   UNL d   1      14.998  11.061 -13.432 -0.15 +0.06    -0.289 OA
DOCKED: ATOM      3  N   UNL d   1       9.419  13.793 -12.150 -0.15 +0.01    -0.247 NA
DOCKED: ATOM      4  N   UNL d   1      12.063  12.442 -12.253 -0.10 +0.04    -0.247 NA
DOCKED: ATOM      5  N   UNL d   1      12.494  13.283  -9.537 -0.10 +0.08    -0.354 N 
DOCKED: ATOM      6  N   UNL d   1       9.740  14.665  -9.433 -0.15 +0.01    -0.354 N 
DOCKED: ATOM      7  C   UNL d   1       7.108  13.840 -12.968 -0.26 +0.00    +0.084 A 
DOCKED: ATOM      8  C   UNL d   1      12.879  11.746 -14.448 -0.06 -0.01    +0.084 A 
DOCKED: ATOM      9  C   UNL d   1      11.754  12.335 -13.590 -0.10 -0.01    +0.058 A 
DOCKED: ATOM     10  C   UNL d   1       8.126  14.215 -11.886 -0.26 +0.00    +0.058 A 
DOCKED: ATOM     11  C   UNL d   1       8.058  13.148 -13.898 -0.12 +0.00    +0.193 A 
DOCKED: ATOM     12  C   UNL d   1       9.431  13.208 -13.304 -0.12 -0.00    +0.109 A 
DOCKED: ATOM     13  C   UNL d   1      13.869  11.505 -13.344 -0.10 -0.04    +0.193 A 
DOCKED: ATOM     14  C   UNL d   1       6.081  12.824 -12.462 -0.35 +0.00    +0.026 C 
DOCKED: ATOM     15  C   UNL d   1      10.555  12.667 -14.093 -0.12 -0.00    +0.055 C 
DOCKED: ATOM     16  C   UNL d   1      13.460  12.784 -15.413 -0.03 -0.00    +0.026 C 
DOCKED: ATOM     17  C   UNL d   1      13.250  11.963 -12.064 -0.15 -0.03    +0.109 A 
DOCKED: ATOM     18  C   UNL d   1       7.780  14.969 -10.827 -0.14 +0.00    +0.050 C 
DOCKED: ATOM     19  C   UNL d   1       8.668  15.435  -9.823 -0.23 +0.00    +0.045 A 
DOCKED: ATOM     20  C   UNL d   1      13.553  12.427  -9.689 -0.12 -0.02    +0.045 A 
DOCKED: ATOM     21  C   UNL d   1      13.979  11.809 -10.796 -0.12 -0.02    +0.057 C 
DOCKED: ATOM     22  C   UNL d   1      13.446  13.087  -7.505 -0.31 +0.00    -0.019 A 
DOCKED: ATOM     23  C   UNL d   1      12.349  13.734  -8.252 -0.29 -0.01    +0.045 A 
DOCKED: ATOM     24  C   UNL d   1      14.157  12.316  -8.362 -0.25 +0.01    -0.022 A 
DOCKED: ATOM     25  C   UNL d   1      10.411  15.263  -8.392 -0.27 -0.00    +0.049 A 
DOCKED: ATOM     26  C   UNL d   1       8.664  16.580  -9.041 -0.19 -0.00    -0.018 A 
DOCKED: ATOM     27  C   UNL d   1       9.778  16.475  -8.153 -0.21 +0.00    +0.003 A 
DOCKED: ATOM     28  C   UNL d   1      11.461  14.584  -7.714 -0.34 -0.01    +0.052 C 
DOCKED: ATOM     29  C   UNL d   1      15.359  11.479  -8.086 -0.38 -0.01    +0.046 C 
DOCKED: ATOM     30  C   UNL d   1       7.688  17.704  -9.115 -0.13 +0.01    +0.046 C 
DOCKED: ATOM     31  H   UNL d   1      11.947  13.590 -10.334 +0.06 -0.03    +0.166 HD
DOCKED: ATOM     32  H   UNL d   1       9.962  13.765  -9.842 +0.03 -0.02    +0.166 HD
DOCKED: ENDROOT
DOCKED: BRANCH   7  33
DOCKED: ATOM     33  C   UNL d   1       6.432  15.022 -13.671 -0.11 +0.00    +0.141 C 
DOCKED: BRANCH  33  34
DOCKED: ATOM     34  C   UNL d   1       5.294  15.597 -12.871 -0.09 +0.01    +0.306 C 
DOCKED: ATOM     35  O   UNL d   1       4.186  15.106 -12.739 -0.15 -0.01    -0.251 OA
DOCKED: BRANCH  34  36
DOCKED: ATOM     36  O   UNL d   1       5.614  16.761 -12.278 -0.01 -0.02    -0.481 OA
DOCKED: ATOM     37  H   UNL d   1       5.342  17.449 -12.922 +0.03 +0.00    +0.295 HD
DOCKED: ENDBRANCH  34  36
DOCKED: ENDBRANCH  33  34
DOCKED: ENDBRANCH   7  33
DOCKED: BRANCH  27  38
DOCKED: ATOM     38  C   UNL d   1      10.135  17.442  -7.158 -0.17 -0.00    +0.017 C 
DOCKED: ATOM     39  C   UNL d   1      11.387  17.725  -6.768 -0.12 -0.02    +0.092 C 
DOCKED: BRANCH  39  40
DOCKED: ATOM     40  C   UNL d   1      11.619  18.753  -5.749 -0.06 -0.13    +0.330 C 
DOCKED: ATOM     41  O   UNL d   1      11.488  19.956  -5.864 -0.02 +0.06    -0.246 OA
DOCKED: BRANCH  40  42
DOCKED: ATOM     42  O   UNL d   1      12.008  18.183  -4.598 -0.03 +0.49    -0.477 OA
DOCKED: ATOM     43  H   UNL d   1      12.841  17.725  -4.833 -0.43 -0.47    +0.295 HD
DOCKED: ENDBRANCH  40  42
DOCKED: ENDBRANCH  39  40
DOCKED: ENDBRANCH  27  38
DOCKED: BRANCH   8  44
DOCKED: ATOM     44  C   UNL d   1      12.540  10.441 -15.176 -0.09 -0.02    +0.141 C 
DOCKED: BRANCH  44  45
DOCKED: ATOM     45  C   UNL d   1      12.444   9.254 -14.255 -0.16 -0.07    +0.306 C 
DOCKED: ATOM     46  O   UNL d   1      11.492   8.949 -13.559 -0.27 +0.04    -0.251 OA
DOCKED: BRANCH  45  47
DOCKED: ATOM     47  O   UNL d   1      13.574   8.523 -14.239 +0.04 +0.21    -0.481 OA
DOCKED: ATOM     48  H   UNL d   1      14.298   9.185 -14.247 -0.29 -0.17    +0.295 HD
DOCKED: ENDBRANCH  45  47
DOCKED: ENDBRANCH  44  45
DOCKED: ENDBRANCH   8  44
DOCKED: BRANCH  22  49
DOCKED: ATOM     49  C   UNL d   1      13.688  13.270  -6.036 -0.44 -0.02    +0.048 C 
DOCKED: BRANCH  49  50
DOCKED: ATOM     50  C   UNL d   1      14.646  14.428  -5.756 -0.21 -0.06    +0.125 C 
DOCKED: BRANCH  50  51
DOCKED: ATOM     51  C   UNL d   1      13.919  15.742  -5.775 -0.10 -0.23    +0.305 C 
DOCKED: ATOM     52  O   UNL d   1      14.333  16.815  -6.177 -0.11 +0.18    -0.251 OA
DOCKED: BRANCH  51  53
DOCKED: ATOM     53  O   UNL d   1      12.677  15.639  -5.261 -0.12 +0.39    -0.481 OA
DOCKED: ATOM     54  H   UNL d   1      12.725  16.140  -4.420 -0.47 -0.59    +0.295 HD
DOCKED: ENDBRANCH  51  53
DOCKED: ENDBRANCH  50  51
DOCKED: ENDBRANCH  49  50
DOCKED: ENDBRANCH  22  49
DOCKED: TORSDOF 13
DOCKED: TER
DOCKED: ENDMDL
________________________________________________________________________________


	BEGINNING GENETIC ALGORITHM DOCKING 46 of 100
Run: 46 Seed: 847184893 903788792 [ Run 46 of 100 GA/GALS ]
Beginning LAMARCKIAN GENETIC ALGORITHM (LGA), with a maximum of 25000000 energy evaluations.

Final-Value: -10.979


	FINAL GENETIC ALGORITHM DOCKED STATE
	_______________________________________________


Detailed state:  trans 2.874 -9.510 10.162 quatxyzw -0.901120 0.105440 0.193005 -0.373649 center 0.153 0.018 -0.028 ntor 13 39.8823 147.9960 148.8831 74.3378 32.2573 41.6833 -57.5492 16.6426 -123.5750 -93.8370 23.1614 180.0000 -139.0343
State:	  2.874  -9.510  10.162  -0.971  0.114  0.208 -136.118     39.88  148.00  148.88   74.34   32.26   41.68  -57.55   16.64 -123.57  -93.84   23.16  180.00 -139.03

DOCKED: MODEL       46
DOCKED: USER    Run = 46
DOCKED: USER    DPF = D:/Protein_go_brrr/autodock/final/mut_Y35F/heme/dock.dpf
DOCKED: USER  
DOCKED: USER    Estimated Free Energy of Binding    =   -6.05 kcal/mol  [=(1)+(2)+(3)-(4)]
DOCKED: USER    Estimated Inhibition Constant, Ki   =   36.69 uM (micromolar)  [Temperature = 298.15 K]
DOCKED: USER    
DOCKED: USER    (1) Final Intermolecular Energy     =   -9.93 kcal/mol
DOCKED: USER        vdW + Hbond + desolv Energy     =   -9.50 kcal/mol
DOCKED: USER        Electrostatic Energy            =   -0.42 kcal/mol
DOCKED: USER    (2) Final Total Internal Energy     =   -1.05 kcal/mol
DOCKED: USER    (3) Torsional Free Energy           =   +3.88 kcal/mol
DOCKED: USER    (4) Unbound System's Energy  [=(2)] =   -1.05 kcal/mol
DOCKED: USER    
DOCKED: USER    
DOCKED: USER    NEWDPF move heme_opt.pdbqt
DOCKED: USER    NEWDPF about 0.153000 0.018000 -0.028000
DOCKED: USER    NEWDPF tran0 2.873904 -9.509862 10.162091
DOCKED: USER    NEWDPF quaternion0 -0.901120 0.105440 0.193005 -0.373649
DOCKED: USER    NEWDPF axisangle0 -0.971485 0.113674 0.208076 -136.118359
DOCKED: USER    NEWDPF quat0 -0.971485 0.113674 0.208076 -136.118359
DOCKED: USER    NEWDPF dihe0 39.88 148.00 148.88 74.34 32.26 41.68 -57.55 16.64 -123.57 -93.84 23.16 180.00 -139.03 
DOCKED: USER  keepresnum = 1 
DOCKED: USER  
DOCKED: REMARK  13 active torsions:
DOCKED: REMARK  status: ('A' for Active; 'I' for Inactive)
DOCKED: REMARK    1  A    between atoms: O_3  and  C_38 
DOCKED: REMARK    2  A    between atoms: O_4  and  C_40 
DOCKED: REMARK    3  A    between atoms: O_7  and  C_46 
DOCKED: REMARK    4  A    between atoms: O_9  and  C_48 
DOCKED: REMARK    5  A    between atoms: C_15  and  C_20 
DOCKED: REMARK    6  A    between atoms: C_16  and  C_23 
DOCKED: REMARK    7  A    between atoms: C_20  and  C_38 
DOCKED: REMARK    8  A    between atoms: C_23  and  C_40 
DOCKED: REMARK    9  A    between atoms: C_32  and  C_41 
DOCKED: REMARK   10  A    between atoms: C_37  and  C_45 
DOCKED: REMARK   11  A    between atoms: C_41  and  C_44 
DOCKED: REMARK   12  A    between atoms: C_44  and  C_46 
DOCKED: REMARK   13  A    between atoms: C_47  and  C_48 
DOCKED: USER                              x       y       z     vdW  Elec       q    Type
DOCKED: USER                           _______ _______ _______ _____ _____    ______ ____
DOCKED: ROOT
DOCKED: ATOM      1  O   UNL d   1      -2.933  -9.970  11.069 -0.15 +0.03    -0.289 OA
DOCKED: ATOM      2  O   UNL d   1       2.519  -7.131  15.382 -0.05 +0.17    -0.289 OA
DOCKED: ATOM      3  N   UNL d   1       0.394 -10.042  10.163 -0.12 +0.04    -0.247 NA
DOCKED: ATOM      4  N   UNL d   1       1.717  -8.454  12.298 -0.11 +0.13    -0.247 NA
DOCKED: ATOM      5  N   UNL d   1       4.065  -8.356  10.641 -0.05 +0.10    -0.354 N 
DOCKED: ATOM      6  N   UNL d   1       2.678  -9.987   8.423 -0.10 +0.01    -0.354 N 
DOCKED: ATOM      7  C   UNL d   1      -1.712 -10.639   9.060 -0.27 -0.01    +0.084 A 
DOCKED: ATOM      8  C   UNL d   1       0.610  -8.365  14.474 -0.10 -0.03    +0.084 A 
DOCKED: ATOM      9  C   UNL d   1       0.590  -8.804  13.006 -0.14 -0.02    +0.058 A 
DOCKED: ATOM     10  C   UNL d   1      -0.185 -10.527   9.002 -0.26 -0.01    +0.058 A 
DOCKED: ATOM     11  C   UNL d   1      -1.891 -10.148  10.465 -0.18 -0.03    +0.193 A 
DOCKED: ATOM     12  C   UNL d   1      -0.540  -9.843  11.034 -0.17 -0.02    +0.109 A 
DOCKED: ATOM     13  C   UNL d   1       1.942  -7.669  14.458 -0.05 -0.13    +0.193 A 
DOCKED: ATOM     14  C   UNL d   1      -2.396  -9.660   8.102 -0.45 -0.00    +0.026 C 
DOCKED: ATOM     15  C   UNL d   1      -0.460  -9.428  12.450 -0.16 -0.01    +0.055 C 
DOCKED: ATOM     16  C   UNL d   1       0.692  -9.564  15.424 -0.04 -0.01    +0.026 C 
DOCKED: ATOM     17  C   UNL d   1       2.506  -7.789  13.079 -0.07 -0.09    +0.109 A 
DOCKED: ATOM     18  C   UNL d   1       0.512 -10.958   7.934 +0.04 -0.01    +0.050 C 
DOCKED: ATOM     19  C   UNL d   1       1.926 -10.973   7.826 -0.26 -0.00    +0.045 A 
DOCKED: ATOM     20  C   UNL d   1       4.424  -7.457  11.611 -0.14 -0.02    +0.045 A 
DOCKED: ATOM     21  C   UNL d   1       3.793  -7.159  12.752 -0.08 -0.05    +0.057 C 
DOCKED: ATOM     22  C   UNL d   1       5.998  -7.423   9.956 -0.15 +0.00    -0.019 A 
DOCKED: ATOM     23  C   UNL d   1       4.954  -8.406   9.600 -0.16 -0.01    +0.045 A 
DOCKED: ATOM     24  C   UNL d   1       5.679  -6.866  11.148 -0.13 +0.01    -0.022 A 
DOCKED: ATOM     25  C   UNL d   1       4.010 -10.143   8.116 -0.19 -0.00    +0.049 A 
DOCKED: ATOM     26  C   UNL d   1       2.794 -11.812   7.145 -0.26 +0.00    -0.018 A 
DOCKED: ATOM     27  C   UNL d   1       4.110 -11.295   7.348 -0.19 -0.00    +0.003 A 
DOCKED: ATOM     28  C   UNL d   1       4.964  -9.158   8.489 -0.22 -0.00    +0.052 C 
DOCKED: ATOM     29  C   UNL d   1       6.425  -5.836  11.925 -0.10 -0.02    +0.046 C 
DOCKED: ATOM     30  C   UNL d   1       2.426 -13.023   6.356 -0.37 -0.01    +0.046 C 
DOCKED: ATOM     31  H   UNL d   1       3.260  -8.962  10.757 +0.05 -0.04    +0.166 HD
DOCKED: ATOM     32  H   UNL d   1       2.281  -9.235   8.974 +0.09 -0.00    +0.166 HD
DOCKED: ENDROOT
DOCKED: BRANCH   7  33
DOCKED: ATOM     33  C   UNL d   1      -2.273 -12.057   8.910 -0.20 -0.01    +0.141 C 
DOCKED: BRANCH  33  34
DOCKED: ATOM     34  C   UNL d   1      -2.233 -12.549   7.488 -0.26 -0.02    +0.306 C 
DOCKED: ATOM     35  O   UNL d   1      -1.293 -13.102   6.944 -0.33 +0.02    -0.251 OA
DOCKED: BRANCH  34  36
DOCKED: ATOM     36  O   UNL d   1      -3.382 -12.319   6.828 -0.24 +0.02    -0.481 OA
DOCKED: ATOM     37  H   UNL d   1      -3.502 -13.110   6.260 -0.38 -0.06    +0.295 HD
DOCKED: ENDBRANCH  34  36
DOCKED: ENDBRANCH  33  34
DOCKED: ENDBRANCH   7  33
DOCKED: BRANCH  27  38
DOCKED: ATOM     38  C   UNL d   1       5.310 -11.855   6.803 -0.20 -0.00    +0.017 C 
DOCKED: ATOM     39  C   UNL d   1       5.422 -12.413   5.588 -0.25 -0.02    +0.092 C 
DOCKED: BRANCH  39  40
DOCKED: ATOM     40  C   UNL d   1       6.715 -12.935   5.140 -0.17 -0.06    +0.330 C 
DOCKED: ATOM     41  O   UNL d   1       7.538 -13.545   5.796 -0.07 +0.04    -0.246 OA
DOCKED: BRANCH  40  42
DOCKED: ATOM     42  O   UNL d   1       6.901 -12.657   3.841 -0.60 +0.03    -0.477 OA
DOCKED: ATOM     43  H   UNL d   1       5.997 -12.678   3.465 -0.43 -0.11    +0.295 HD
DOCKED: ENDBRANCH  40  42
DOCKED: ENDBRANCH  39  40
DOCKED: ENDBRANCH  27  38
DOCKED: BRANCH   8  44
DOCKED: ATOM     44  C   UNL d   1      -0.507  -7.403  14.891 -0.19 -0.05    +0.141 C 
DOCKED: BRANCH  44  45
DOCKED: ATOM     45  C   UNL d   1      -0.059  -6.370  15.891 -0.07 -0.13    +0.306 C 
DOCKED: ATOM     46  O   UNL d   1      -0.265  -6.384  17.092 -0.08 +0.06    -0.251 OA
DOCKED: BRANCH  45  47
DOCKED: ATOM     47  O   UNL d   1       0.607  -5.352  15.316 -0.11 +0.40    -0.481 OA
DOCKED: ATOM     48  H   UNL d   1       1.068  -5.758  14.551 -0.14 -0.45    +0.295 HD
DOCKED: ENDBRANCH  45  47
DOCKED: ENDBRANCH  44  45
DOCKED: ENDBRANCH   8  44
DOCKED: BRANCH  22  49
DOCKED: ATOM     49  C   UNL d   1       7.189  -7.113   9.099 -0.20 -0.00    +0.048 C 
DOCKED: BRANCH  49  50
DOCKED: ATOM     50  C   UNL d   1       7.472  -5.612   9.040 -0.10 -0.00    +0.125 C 
DOCKED: BRANCH  50  51
DOCKED: ATOM     51  C   UNL d   1       8.234  -5.258   7.794 -0.23 -0.02    +0.305 C 
DOCKED: ATOM     52  O   UNL d   1       8.455  -5.970   6.831 -0.32 +0.03    -0.251 OA
DOCKED: BRANCH  51  53
DOCKED: ATOM     53  O   UNL d   1       8.700  -3.993   7.831 -0.18 +0.02    -0.481 OA
DOCKED: ATOM     54  H   UNL d   1       8.117  -3.507   7.211 -0.21 -0.07    +0.295 HD
DOCKED: ENDBRANCH  51  53
DOCKED: ENDBRANCH  50  51
DOCKED: ENDBRANCH  49  50
DOCKED: ENDBRANCH  22  49
DOCKED: TORSDOF 13
DOCKED: TER
DOCKED: ENDMDL
________________________________________________________________________________


	BEGINNING GENETIC ALGORITHM DOCKING 47 of 100
Run: 47 Seed: 2007304541 1857210754 [ Run 47 of 100 GA/GALS ]
Beginning LAMARCKIAN GENETIC ALGORITHM (LGA), with a maximum of 25000000 energy evaluations.

Final-Value: -12.798


	FINAL GENETIC ALGORITHM DOCKED STATE
	_______________________________________________


Detailed state:  trans 10.699 16.677 6.017 quatxyzw 0.626522 0.112102 -0.700923 -0.321884 center 0.153 0.018 -0.028 ntor 13 -100.6900 -155.7388 178.2114 -19.7342 22.3070 -67.2036 145.6550 -166.7451 122.5855 -9.9277 -82.8357 18.7312 -29.7884
State:	 10.699  16.677   6.017   0.662  0.118 -0.740 -142.446   -100.69 -155.74  178.21  -19.73   22.31  -67.20  145.65 -166.75  122.59   -9.93  -82.84   18.73  -29.79

DOCKED: MODEL       47
DOCKED: USER    Run = 47
DOCKED: USER    DPF = D:/Protein_go_brrr/autodock/final/mut_Y35F/heme/dock.dpf
DOCKED: USER  
DOCKED: USER    Estimated Free Energy of Binding    =   -5.16 kcal/mol  [=(1)+(2)+(3)-(4)]
DOCKED: USER    Estimated Inhibition Constant, Ki   =  164.87 uM (micromolar)  [Temperature = 298.15 K]
DOCKED: USER    
DOCKED: USER    (1) Final Intermolecular Energy     =   -9.04 kcal/mol
DOCKED: USER        vdW + Hbond + desolv Energy     =   -8.89 kcal/mol
DOCKED: USER        Electrostatic Energy            =   -0.15 kcal/mol
DOCKED: USER    (2) Final Total Internal Energy     =   -3.76 kcal/mol
DOCKED: USER    (3) Torsional Free Energy           =   +3.88 kcal/mol
DOCKED: USER    (4) Unbound System's Energy  [=(2)] =   -3.76 kcal/mol
DOCKED: USER    
DOCKED: USER    
DOCKED: USER    NEWDPF move heme_opt.pdbqt
DOCKED: USER    NEWDPF about 0.153000 0.018000 -0.028000
DOCKED: USER    NEWDPF tran0 10.699038 16.677399 6.016639
DOCKED: USER    NEWDPF quaternion0 0.626522 0.112102 -0.700923 -0.321884
DOCKED: USER    NEWDPF axisangle0 0.661741 0.118404 -0.740324 -142.446181
DOCKED: USER    NEWDPF quat0 0.661741 0.118404 -0.740324 -142.446181
DOCKED: USER    NEWDPF dihe0 -100.69 -155.74 178.21 -19.73 22.31 -67.20 145.65 -166.75 122.59 -9.93 -82.84 18.73 -29.79 
DOCKED: USER  keepresnum = 1 
DOCKED: USER  
DOCKED: REMARK  13 active torsions:
DOCKED: REMARK  status: ('A' for Active; 'I' for Inactive)
DOCKED: REMARK    1  A    between atoms: O_3  and  C_38 
DOCKED: REMARK    2  A    between atoms: O_4  and  C_40 
DOCKED: REMARK    3  A    between atoms: O_7  and  C_46 
DOCKED: REMARK    4  A    between atoms: O_9  and  C_48 
DOCKED: REMARK    5  A    between atoms: C_15  and  C_20 
DOCKED: REMARK    6  A    between atoms: C_16  and  C_23 
DOCKED: REMARK    7  A    between atoms: C_20  and  C_38 
DOCKED: REMARK    8  A    between atoms: C_23  and  C_40 
DOCKED: REMARK    9  A    between atoms: C_32  and  C_41 
DOCKED: REMARK   10  A    between atoms: C_37  and  C_45 
DOCKED: REMARK   11  A    between atoms: C_41  and  C_44 
DOCKED: REMARK   12  A    between atoms: C_44  and  C_46 
DOCKED: REMARK   13  A    between atoms: C_47  and  C_48 
DOCKED: USER                              x       y       z     vdW  Elec       q    Type
DOCKED: USER                           _______ _______ _______ _____ _____    ______ ____
DOCKED: ROOT
DOCKED: ATOM      1  O   UNL d   1      11.219  16.761  11.888 -0.11 -0.11    -0.289 OA
DOCKED: ATOM      2  O   UNL d   1       9.125  22.108   7.049 -0.06 +0.02    -0.289 OA
DOCKED: ATOM      3  N   UNL d   1      11.195  16.284   8.473 -0.13 +0.01    -0.247 NA
DOCKED: ATOM      4  N   UNL d   1       9.961  18.783   7.443 -0.10 +0.06    -0.247 NA
DOCKED: ATOM      5  N   UNL d   1       9.645  17.471   4.904 -0.14 +0.10    -0.354 N 
DOCKED: ATOM      6  N   UNL d   1      10.908  14.876   5.986 -0.03 +0.03    -0.354 N 
DOCKED: ATOM      7  C   UNL d   1      11.594  14.846  10.417 -0.15 +0.02    +0.084 A 
DOCKED: ATOM      8  C   UNL d   1      10.186  20.790   8.818 -0.05 -0.01    +0.084 A 
DOCKED: ATOM      9  C   UNL d   1      10.399  19.282   8.649 -0.12 -0.01    +0.058 A 
DOCKED: ATOM     10  C   UNL d   1      11.494  15.000   8.896 -0.18 +0.01    +0.058 A 
DOCKED: ATOM     11  C   UNL d   1      11.317  16.274  10.777 -0.12 +0.05    +0.193 A 
DOCKED: ATOM     12  C   UNL d   1      11.118  17.050   9.512 -0.15 +0.01    +0.109 A 
DOCKED: ATOM     13  C   UNL d   1       9.512  21.048   7.500 -0.08 -0.02    +0.193 A 
DOCKED: ATOM     14  C   UNL d   1      10.475  13.967  10.981 +0.11 +0.01    +0.026 C 
DOCKED: ATOM     15  C   UNL d   1      10.921  18.510   9.615 -0.13 -0.00    +0.055 C 
DOCKED: ATOM     16  C   UNL d   1      11.515  21.552   8.849 -0.02 -0.00    +0.026 C 
DOCKED: ATOM     17  C   UNL d   1       9.430  19.750   6.765 -0.16 -0.02    +0.109 A 
DOCKED: ATOM     18  C   UNL d   1      11.768  13.976   8.066 -0.15 +0.00    +0.050 C 
DOCKED: ATOM     19  C   UNL d   1      11.784  14.047   6.650 -0.04 -0.00    +0.045 A 
DOCKED: ATOM     20  C   UNL d   1       8.906  18.603   4.678 -0.24 -0.01    +0.045 A 
DOCKED: ATOM     21  C   UNL d   1       8.774  19.686   5.450 -0.05 -0.01    +0.057 C 
DOCKED: ATOM     22  C   UNL d   1       8.643  17.184   2.907 -0.28 +0.01    -0.019 A 
DOCKED: ATOM     23  C   UNL d   1       9.548  16.556   3.890 -0.28 -0.01    +0.045 A 
DOCKED: ATOM     24  C   UNL d   1       8.267  18.397   3.378 -0.28 +0.00    -0.022 A 
DOCKED: ATOM     25  C   UNL d   1      11.032  14.720   4.625 -0.17 -0.01    +0.049 A 
DOCKED: ATOM     26  C   UNL d   1      12.522  13.363   5.697 -0.09 +0.00    -0.018 A 
DOCKED: ATOM     27  C   UNL d   1      12.057  13.807   4.420 -0.14 -0.00    +0.003 A 
DOCKED: ATOM     28  C   UNL d   1      10.126  15.355   3.733 -0.31 -0.01    +0.052 C 
DOCKED: ATOM     29  C   UNL d   1       7.374  19.408   2.745 -0.22 -0.01    +0.046 C 
DOCKED: ATOM     30  C   UNL d   1      13.596  12.361   5.953 -0.07 +0.00    +0.046 C 
DOCKED: ATOM     31  H   UNL d   1      10.251  17.392   5.713 -0.04 -0.05    +0.166 HD
DOCKED: ATOM     32  H   UNL d   1      10.242  15.478   6.456 -0.05 -0.03    +0.166 HD
DOCKED: ENDROOT
DOCKED: BRANCH   7  33
DOCKED: ATOM     33  C   UNL d   1      12.967  14.415  10.944 -0.05 +0.03    +0.141 C 
DOCKED: BRANCH  33  34
DOCKED: ATOM     34  C   UNL d   1      13.067  14.508  12.443 -0.03 +0.11    +0.306 C 
DOCKED: ATOM     35  O   UNL d   1      12.586  13.727  13.247 -0.10 -0.15    -0.251 OA
DOCKED: BRANCH  34  36
DOCKED: ATOM     36  O   UNL d   1      13.771  15.579  12.850 +0.00 -0.12    -0.481 OA
DOCKED: ATOM     37  H   UNL d   1      13.156  16.335  12.738 +0.02 +0.08    +0.295 HD
DOCKED: ENDBRANCH  34  36
DOCKED: ENDBRANCH  33  34
DOCKED: ENDBRANCH   7  33
DOCKED: BRANCH  27  38
DOCKED: ATOM     38  C   UNL d   1      12.543  13.340   3.157 -0.24 -0.00    +0.017 C 
DOCKED: ATOM     39  C   UNL d   1      13.033  14.119   2.180 -0.27 -0.02    +0.092 C 
DOCKED: BRANCH  39  40
DOCKED: ATOM     40  C   UNL d   1      13.516  13.513   0.936 -0.29 -0.08    +0.330 C 
DOCKED: ATOM     41  O   UNL d   1      14.506  12.823   0.781 -0.59 -0.02    -0.246 OA
DOCKED: BRANCH  40  42
DOCKED: ATOM     42  O   UNL d   1      12.688  13.813  -0.076 -0.77 +0.18    -0.477 OA
DOCKED: ATOM     43  H   UNL d   1      12.251  14.640   0.216 -0.11 -0.19    +0.295 HD
DOCKED: ENDBRANCH  40  42
DOCKED: ENDBRANCH  39  40
DOCKED: ENDBRANCH  27  38
DOCKED: BRANCH   8  44
DOCKED: ATOM     44  C   UNL d   1       9.284  21.203   9.986 -0.06 -0.01    +0.141 C 
DOCKED: BRANCH  44  45
DOCKED: ATOM     45  C   UNL d   1       7.893  20.634   9.891 -0.15 -0.04    +0.306 C 
DOCKED: ATOM     46  O   UNL d   1       7.456  19.676  10.504 -0.20 +0.06    -0.251 OA
DOCKED: BRANCH  45  47
DOCKED: ATOM     47  O   UNL d   1       7.128  21.292   9.002 -0.60 +0.01    -0.481 OA
DOCKED: ATOM     48  H   UNL d   1       7.698  22.020   8.674 +0.06 -0.01    +0.295 HD
DOCKED: ENDBRANCH  45  47
DOCKED: ENDBRANCH  44  45
DOCKED: ENDBRANCH   8  44
DOCKED: BRANCH  22  49
DOCKED: ATOM     49  C   UNL d   1       8.222  16.541   1.618 -0.34 -0.01    +0.048 C 
DOCKED: BRANCH  49  50
DOCKED: ATOM     50  C   UNL d   1       8.779  17.284   0.404 -0.26 -0.02    +0.125 C 
DOCKED: BRANCH  50  51
DOCKED: ATOM     51  C   UNL d   1      10.021  16.615  -0.112 -0.13 -0.14    +0.305 C 
DOCKED: ATOM     52  O   UNL d   1      10.772  17.013  -0.985 -0.19 +0.19    -0.251 OA
DOCKED: BRANCH  51  53
DOCKED: ATOM     53  O   UNL d   1      10.254  15.440   0.507 -0.15 +0.21    -0.481 OA
DOCKED: ATOM     54  H   UNL d   1      10.851  14.963  -0.107 -0.40 -0.25    +0.295 HD
DOCKED: ENDBRANCH  51  53
DOCKED: ENDBRANCH  50  51
DOCKED: ENDBRANCH  49  50
DOCKED: ENDBRANCH  22  49
DOCKED: TORSDOF 13
DOCKED: TER
DOCKED: ENDMDL
________________________________________________________________________________


	BEGINNING GENETIC ALGORITHM DOCKING 48 of 100
Run: 48 Seed: 1918594393 1603451325 [ Run 48 of 100 GA/GALS ]
Beginning LAMARCKIAN GENETIC ALGORITHM (LGA), with a maximum of 25000000 energy evaluations.

Final-Value: -10.951


	FINAL GENETIC ALGORITHM DOCKED STATE
	_______________________________________________


Detailed state:  trans 3.334 -17.189 -5.997 quatxyzw -0.186979 0.756172 -0.610957 -0.141328 center 0.153 0.018 -0.028 ntor 13 -2.1079 -131.5461 -100.3384 121.3134 18.3710 -179.4539 119.0499 -148.4049 -13.7761 -40.1861 58.5201 -155.6634 177.2207
State:	  3.334 -17.189  -5.997  -0.189  0.764 -0.617 -163.751     -2.11 -131.55 -100.34  121.31   18.37 -179.45  119.05 -148.40  -13.78  -40.19   58.52 -155.66  177.22

DOCKED: MODEL       48
DOCKED: USER    Run = 48
DOCKED: USER    DPF = D:/Protein_go_brrr/autodock/final/mut_Y35F/heme/dock.dpf
DOCKED: USER  
DOCKED: USER    Estimated Free Energy of Binding    =   -5.20 kcal/mol  [=(1)+(2)+(3)-(4)]
DOCKED: USER    Estimated Inhibition Constant, Ki   =  155.19 uM (micromolar)  [Temperature = 298.15 K]
DOCKED: USER    
DOCKED: USER    (1) Final Intermolecular Energy     =   -9.07 kcal/mol
DOCKED: USER        vdW + Hbond + desolv Energy     =   -8.63 kcal/mol
DOCKED: USER        Electrostatic Energy            =   -0.45 kcal/mol
DOCKED: USER    (2) Final Total Internal Energy     =   -1.88 kcal/mol
DOCKED: USER    (3) Torsional Free Energy           =   +3.88 kcal/mol
DOCKED: USER    (4) Unbound System's Energy  [=(2)] =   -1.88 kcal/mol
DOCKED: USER    
DOCKED: USER    
DOCKED: USER    NEWDPF move heme_opt.pdbqt
DOCKED: USER    NEWDPF about 0.153000 0.018000 -0.028000
DOCKED: USER    NEWDPF tran0 3.333541 -17.188788 -5.997291
DOCKED: USER    NEWDPF quaternion0 -0.186979 0.756172 -0.610957 -0.141328
DOCKED: USER    NEWDPF axisangle0 -0.188875 0.763839 -0.617151 -163.750595
DOCKED: USER    NEWDPF quat0 -0.188875 0.763839 -0.617151 -163.750595
DOCKED: USER    NEWDPF dihe0 -2.11 -131.55 -100.34 121.31 18.37 -179.45 119.05 -148.40 -13.78 -40.19 58.52 -155.66 177.22 
DOCKED: USER  keepresnum = 1 
DOCKED: USER  
DOCKED: REMARK  13 active torsions:
DOCKED: REMARK  status: ('A' for Active; 'I' for Inactive)
DOCKED: REMARK    1  A    between atoms: O_3  and  C_38 
DOCKED: REMARK    2  A    between atoms: O_4  and  C_40 
DOCKED: REMARK    3  A    between atoms: O_7  and  C_46 
DOCKED: REMARK    4  A    between atoms: O_9  and  C_48 
DOCKED: REMARK    5  A    between atoms: C_15  and  C_20 
DOCKED: REMARK    6  A    between atoms: C_16  and  C_23 
DOCKED: REMARK    7  A    between atoms: C_20  and  C_38 
DOCKED: REMARK    8  A    between atoms: C_23  and  C_40 
DOCKED: REMARK    9  A    between atoms: C_32  and  C_41 
DOCKED: REMARK   10  A    between atoms: C_37  and  C_45 
DOCKED: REMARK   11  A    between atoms: C_41  and  C_44 
DOCKED: REMARK   12  A    between atoms: C_44  and  C_46 
DOCKED: REMARK   13  A    between atoms: C_47  and  C_48 
DOCKED: USER                              x       y       z     vdW  Elec       q    Type
DOCKED: USER                           _______ _______ _______ _____ _____    ______ ____
DOCKED: ROOT
DOCKED: ATOM      1  O   UNL d   1       8.429 -14.888  -7.868 -0.06 +0.19    -0.289 OA
DOCKED: ATOM      2  O   UNL d   1       5.534 -15.493  -0.966 -0.25 +0.10    -0.289 OA
DOCKED: ATOM      3  N   UNL d   1       5.301 -16.209  -7.263 -0.08 +0.09    -0.247 NA
DOCKED: ATOM      4  N   UNL d   1       5.165 -16.314  -4.297 -0.07 +0.08    -0.247 NA
DOCKED: ATOM      5  N   UNL d   1       2.856 -18.007  -4.555 -0.06 +0.10    -0.354 N 
DOCKED: ATOM      6  N   UNL d   1       3.016 -17.909  -7.631 -0.05 +0.13    -0.354 N 
DOCKED: ATOM      7  C   UNL d   1       6.728 -15.979  -9.243 -0.03 -0.03    +0.084 A 
DOCKED: ATOM      8  C   UNL d   1       6.542 -14.719  -3.058 -0.28 -0.05    +0.084 A 
DOCKED: ATOM      9  C   UNL d   1       6.129 -15.336  -4.399 -0.19 -0.03    +0.058 A 
DOCKED: ATOM     10  C   UNL d   1       5.414 -16.461  -8.621 -0.09 -0.02    +0.058 A 
DOCKED: ATOM     11  C   UNL d   1       7.329 -15.394  -8.001 -0.05 -0.09    +0.193 A 
DOCKED: ATOM     12  C   UNL d   1       6.358 -15.573  -6.876 -0.12 -0.05    +0.109 A 
DOCKED: ATOM     13  C   UNL d   1       5.660 -15.555  -2.173 -0.21 -0.06    +0.193 A 
DOCKED: ATOM     14  C   UNL d   1       7.601 -17.144  -9.715 -0.01 -0.01    +0.026 C 
DOCKED: ATOM     15  C   UNL d   1       6.698 -14.987  -5.563 -0.21 -0.03    +0.055 C 
DOCKED: ATOM     16  C   UNL d   1       6.105 -13.256  -2.948 -0.49 -0.01    +0.026 C 
DOCKED: ATOM     17  C   UNL d   1       4.883 -16.486  -3.046 -0.17 -0.03    +0.109 A 
DOCKED: ATOM     18  C   UNL d   1       4.435 -16.998  -9.373 -0.11 -0.01    +0.050 C 
DOCKED: ATOM     19  C   UNL d   1       3.158 -17.393  -8.900 -0.10 -0.02    +0.045 A 
DOCKED: ATOM     20  C   UNL d   1       3.086 -18.126  -3.209 -0.20 -0.01    +0.045 A 
DOCKED: ATOM     21  C   UNL d   1       3.962 -17.463  -2.446 -0.24 -0.01    +0.057 C 
DOCKED: ATOM     22  C   UNL d   1       1.436 -19.588  -3.807 -0.20 +0.01    -0.019 A 
DOCKED: ATOM     23  C   UNL d   1       1.877 -18.850  -5.008 -0.18 -0.02    +0.045 A 
DOCKED: ATOM     24  C   UNL d   1       2.155 -19.154  -2.745 -0.21 +0.00    -0.022 A 
DOCKED: ATOM     25  C   UNL d   1       1.717 -18.309  -7.415 -0.19 -0.02    +0.049 A 
DOCKED: ATOM     26  C   UNL d   1       1.913 -17.424  -9.510 -0.18 +0.01    -0.018 A 
DOCKED: ATOM     27  C   UNL d   1       1.004 -17.985  -8.560 -0.26 -0.00    +0.003 A 
DOCKED: ATOM     28  C   UNL d   1       1.360 -19.016  -6.235 -0.20 -0.03    +0.052 C 
DOCKED: ATOM     29  C   UNL d   1       2.068 -19.585  -1.320 -0.20 +0.00    +0.046 C 
DOCKED: ATOM     30  C   UNL d   1       1.585 -16.960 -10.888 -0.23 -0.01    +0.046 C 
DOCKED: ATOM     31  H   UNL d   1       3.326 -17.299  -5.108 +0.06 -0.05    +0.166 HD
DOCKED: ATOM     32  H   UNL d   1       3.784 -18.010  -6.978 +0.04 -0.05    +0.166 HD
DOCKED: ENDROOT
DOCKED: BRANCH   7  33
DOCKED: ATOM     33  C   UNL d   1       6.586 -14.907 -10.329 -0.07 -0.04    +0.141 C 
DOCKED: BRANCH  33  34
DOCKED: ATOM     34  C   UNL d   1       5.439 -13.967 -10.069 -0.20 -0.12    +0.306 C 
DOCKED: ATOM     35  O   UNL d   1       5.400 -13.099  -9.213 -0.36 +0.12    -0.251 OA
DOCKED: BRANCH  34  36
DOCKED: ATOM     36  O   UNL d   1       4.404 -14.170 -10.902 -0.14 +0.19    -0.481 OA
DOCKED: ATOM     37  H   UNL d   1       3.707 -13.557 -10.583 -0.29 -0.19    +0.295 HD
DOCKED: ENDBRANCH  34  36
DOCKED: ENDBRANCH  33  34
DOCKED: ENDBRANCH   7  33
DOCKED: BRANCH  27  38
DOCKED: ATOM     38  C   UNL d   1      -0.391 -18.213  -8.789 -0.33 -0.01    +0.017 C 
DOCKED: ATOM     39  C   UNL d   1      -0.900 -19.018  -9.734 -0.29 -0.02    +0.092 C 
DOCKED: BRANCH  39  40
DOCKED: ATOM     40  C   UNL d   1      -2.352 -19.178  -9.853 -0.27 -0.00    +0.330 C 
DOCKED: ATOM     41  O   UNL d   1      -2.962 -19.846 -10.666 -0.25 -0.06    -0.246 OA
DOCKED: BRANCH  40  42
DOCKED: ATOM     42  O   UNL d   1      -2.974 -18.469  -8.898 -0.41 +0.06    -0.477 OA
DOCKED: ATOM     43  H   UNL d   1      -2.550 -17.587  -8.947 -0.34 -0.15    +0.295 HD
DOCKED: ENDBRANCH  40  42
DOCKED: ENDBRANCH  39  40
DOCKED: ENDBRANCH  27  38
DOCKED: BRANCH   8  44
DOCKED: ATOM     44  C   UNL d   1       8.017 -14.888  -2.680 -0.02 -0.13    +0.141 C 
DOCKED: BRANCH  44  45
DOCKED: ATOM     45  C   UNL d   1       8.290 -16.144  -1.897 -0.09 -0.11    +0.306 C 
DOCKED: ATOM     46  O   UNL d   1       8.328 -17.280  -2.337 -0.03 +0.07    -0.251 OA
DOCKED: BRANCH  45  47
DOCKED: ATOM     47  O   UNL d   1       8.475 -15.905  -0.586 -0.22 +0.08    -0.481 OA
DOCKED: ATOM     48  H   UNL d   1       7.570 -15.787  -0.226 +0.09 -0.04    +0.295 HD
DOCKED: ENDBRANCH  45  47
DOCKED: ENDBRANCH  44  45
DOCKED: ENDBRANCH   8  44
DOCKED: BRANCH  22  49
DOCKED: ATOM     49  C   UNL d   1       0.374 -20.648  -3.812 -0.17 -0.02    +0.048 C 
DOCKED: BRANCH  49  50
DOCKED: ATOM     50  C   UNL d   1       0.968 -22.048  -3.967 -0.07 -0.02    +0.125 C 
DOCKED: BRANCH  50  51
DOCKED: ATOM     51  C   UNL d   1       0.431 -22.726  -5.195 -0.02 -0.08    +0.305 C 
DOCKED: ATOM     52  O   UNL d   1       0.337 -23.923  -5.401 -0.00 +0.03    -0.251 OA
DOCKED: BRANCH  51  53
DOCKED: ATOM     53  O   UNL d   1       0.040 -21.838  -6.131 -0.03 +0.26    -0.481 OA
DOCKED: ATOM     54  H   UNL d   1      -0.647 -21.304  -5.680 -0.26 -0.36    +0.295 HD
DOCKED: ENDBRANCH  51  53
DOCKED: ENDBRANCH  50  51
DOCKED: ENDBRANCH  49  50
DOCKED: ENDBRANCH  22  49
DOCKED: TORSDOF 13
DOCKED: TER
DOCKED: ENDMDL
________________________________________________________________________________


	BEGINNING GENETIC ALGORITHM DOCKING 49 of 100
Run: 49 Seed: 2033330862 389494416 [ Run 49 of 100 GA/GALS ]
Beginning LAMARCKIAN GENETIC ALGORITHM (LGA), with a maximum of 25000000 energy evaluations.

Final-Value: -13.210


	FINAL GENETIC ALGORITHM DOCKED STATE
	_______________________________________________


Detailed state:  trans 2.946 -16.526 -8.003 quatxyzw -0.054281 0.835524 -0.440074 -0.324481 center 0.153 0.018 -0.028 ntor 13 -150.6734 169.3151 98.3131 22.5886 -26.7683 37.2959 -60.0027 45.2793 -132.5960 -131.1573 -63.1021 -85.7598 5.1231
State:	  2.946 -16.526  -8.003  -0.057  0.883 -0.465 -142.132   -150.67  169.32   98.31   22.59  -26.77   37.30  -60.00   45.28 -132.60 -131.16  -63.10  -85.76    5.12

DOCKED: MODEL       49
DOCKED: USER    Run = 49
DOCKED: USER    DPF = D:/Protein_go_brrr/autodock/final/mut_Y35F/heme/dock.dpf
DOCKED: USER  
DOCKED: USER    Estimated Free Energy of Binding    =   -5.58 kcal/mol  [=(1)+(2)+(3)-(4)]
DOCKED: USER    Estimated Inhibition Constant, Ki   =   80.60 uM (micromolar)  [Temperature = 298.15 K]
DOCKED: USER    
DOCKED: USER    (1) Final Intermolecular Energy     =   -9.46 kcal/mol
DOCKED: USER        vdW + Hbond + desolv Energy     =   -9.31 kcal/mol
DOCKED: USER        Electrostatic Energy            =   -0.15 kcal/mol
DOCKED: USER    (2) Final Total Internal Energy     =   -3.75 kcal/mol
DOCKED: USER    (3) Torsional Free Energy           =   +3.88 kcal/mol
DOCKED: USER    (4) Unbound System's Energy  [=(2)] =   -3.75 kcal/mol
DOCKED: USER    
DOCKED: USER    
DOCKED: USER    NEWDPF move heme_opt.pdbqt
DOCKED: USER    NEWDPF about 0.153000 0.018000 -0.028000
DOCKED: USER    NEWDPF tran0 2.945997 -16.525967 -8.002815
DOCKED: USER    NEWDPF quaternion0 -0.054281 0.835524 -0.440074 -0.324481
DOCKED: USER    NEWDPF axisangle0 -0.057386 0.883318 -0.465248 -142.131760
DOCKED: USER    NEWDPF quat0 -0.057386 0.883318 -0.465248 -142.131760
DOCKED: USER    NEWDPF dihe0 -150.67 169.32 98.31 22.59 -26.77 37.30 -60.00 45.28 -132.60 -131.16 -63.10 -85.76 5.12 
DOCKED: USER  keepresnum = 1 
DOCKED: USER  
DOCKED: REMARK  13 active torsions:
DOCKED: REMARK  status: ('A' for Active; 'I' for Inactive)
DOCKED: REMARK    1  A    between atoms: O_3  and  C_38 
DOCKED: REMARK    2  A    between atoms: O_4  and  C_40 
DOCKED: REMARK    3  A    between atoms: O_7  and  C_46 
DOCKED: REMARK    4  A    between atoms: O_9  and  C_48 
DOCKED: REMARK    5  A    between atoms: C_15  and  C_20 
DOCKED: REMARK    6  A    between atoms: C_16  and  C_23 
DOCKED: REMARK    7  A    between atoms: C_20  and  C_38 
DOCKED: REMARK    8  A    between atoms: C_23  and  C_40 
DOCKED: REMARK    9  A    between atoms: C_32  and  C_41 
DOCKED: REMARK   10  A    between atoms: C_37  and  C_45 
DOCKED: REMARK   11  A    between atoms: C_41  and  C_44 
DOCKED: REMARK   12  A    between atoms: C_44  and  C_46 
DOCKED: REMARK   13  A    between atoms: C_47  and  C_48 
DOCKED: USER                              x       y       z     vdW  Elec       q    Type
DOCKED: USER                           _______ _______ _______ _____ _____    ______ ____
DOCKED: ROOT
DOCKED: ATOM      1  O   UNL d   1       8.054 -13.843  -6.791 -0.14 +0.38    -0.289 OA
DOCKED: ATOM      2  O   UNL d   1       3.152 -17.361  -2.320 -0.22 +0.07    -0.289 OA
DOCKED: ATOM      3  N   UNL d   1       5.085 -15.165  -7.947 -0.17 +0.10    -0.247 NA
DOCKED: ATOM      4  N   UNL d   1       3.999 -16.584  -5.574 -0.13 +0.08    -0.247 NA
DOCKED: ATOM      5  N   UNL d   1       2.125 -17.884  -7.324 -0.08 +0.16    -0.354 N 
DOCKED: ATOM      6  N   UNL d   1       3.271 -16.423  -9.784 -0.07 +0.14    -0.354 N 
DOCKED: ATOM      7  C   UNL d   1       7.043 -14.130  -8.998 -0.14 -0.04    +0.084 A 
DOCKED: ATOM      8  C   UNL d   1       4.688 -15.774  -3.374 -0.25 -0.03    +0.084 A 
DOCKED: ATOM      9  C   UNL d   1       4.817 -15.705  -4.899 -0.24 -0.02    +0.058 A 
DOCKED: ATOM     10  C   UNL d   1       5.667 -14.785  -9.145 -0.20 -0.02    +0.058 A 
DOCKED: ATOM     11  C   UNL d   1       7.129 -14.190  -7.502 -0.13 -0.14    +0.193 A 
DOCKED: ATOM     12  C   UNL d   1       5.871 -14.814  -6.982 -0.15 -0.05    +0.109 A 
DOCKED: ATOM     13  C   UNL d   1       3.674 -16.880  -3.307 -0.17 -0.05    +0.193 A 
DOCKED: ATOM     14  C   UNL d   1       8.158 -14.995  -9.592 -0.05 -0.01    +0.026 C 
DOCKED: ATOM     15  C   UNL d   1       5.688 -14.895  -5.519 -0.16 -0.02    +0.055 C 
DOCKED: ATOM     16  C   UNL d   1       4.065 -14.498  -2.799 -0.51 -0.01    +0.026 C 
DOCKED: ATOM     17  C   UNL d   1       3.345 -17.288  -4.706 -0.18 -0.03    +0.109 A 
DOCKED: ATOM     18  C   UNL d   1       5.061 -14.886 -10.344 -0.22 -0.02    +0.050 C 
DOCKED: ATOM     19  C   UNL d   1       3.758 -15.399 -10.565 -0.21 -0.02    +0.045 A 
DOCKED: ATOM     20  C   UNL d   1       1.914 -18.604  -6.177 -0.18 -0.02    +0.045 A 
DOCKED: ATOM     21  C   UNL d   1       2.403 -18.390  -4.952 -0.20 -0.02    +0.057 C 
DOCKED: ATOM     22  C   UNL d   1       0.741 -19.572  -7.882 -0.14 +0.01    -0.019 A 
DOCKED: ATOM     23  C   UNL d   1       1.458 -18.393  -8.407 -0.18 -0.02    +0.045 A 
DOCKED: ATOM     24  C   UNL d   1       1.014 -19.691  -6.561 -0.12 +0.01    -0.022 A 
DOCKED: ATOM     25  C   UNL d   1       2.033 -16.823 -10.229 -0.21 -0.02    +0.049 A 
DOCKED: ATOM     26  C   UNL d   1       2.795 -15.101 -11.518 -0.18 +0.01    -0.018 A 
DOCKED: ATOM     27  C   UNL d   1       1.700 -15.990 -11.288 -0.27 -0.00    +0.003 A 
DOCKED: ATOM     28  C   UNL d   1       1.396 -17.969  -9.679 -0.21 -0.01    +0.052 C 
DOCKED: ATOM     29  C   UNL d   1       0.517 -20.711  -5.594 +0.08 -0.04    +0.046 C 
DOCKED: ATOM     30  C   UNL d   1       2.884 -14.055 -12.576 -0.09 -0.02    +0.046 C 
DOCKED: ATOM     31  H   UNL d   1       2.661 -17.023  -7.314 -0.29 -0.10    +0.166 HD
DOCKED: ATOM     32  H   UNL d   1       3.789 -16.838  -9.019 -0.00 -0.06    +0.166 HD
DOCKED: ENDROOT
DOCKED: BRANCH   7  33
DOCKED: ATOM     33  C   UNL d   1       7.136 -12.680  -9.484 -0.24 -0.08    +0.141 C 
DOCKED: BRANCH  33  34
DOCKED: ATOM     34  C   UNL d   1       7.400 -12.581 -10.962 -0.06 -0.10    +0.306 C 
DOCKED: ATOM     35  O   UNL d   1       7.087 -13.402 -11.807 -0.10 +0.06    -0.251 OA
DOCKED: BRANCH  34  36
DOCKED: ATOM     36  O   UNL d   1       8.043 -11.448 -11.299 -0.47 +0.10    -0.481 OA
DOCKED: ATOM     37  H   UNL d   1       8.545 -11.201 -10.493 +0.09 -0.13    +0.295 HD
DOCKED: ENDBRANCH  34  36
DOCKED: ENDBRANCH  33  34
DOCKED: ENDBRANCH   7  33
DOCKED: BRANCH  27  38
DOCKED: ATOM     38  C   UNL d   1       0.496 -16.033 -12.061 -0.23 -0.00    +0.017 C 
DOCKED: ATOM     39  C   UNL d   1      -0.058 -17.143 -12.572 -0.18 +0.01    +0.092 C 
DOCKED: BRANCH  39  40
DOCKED: ATOM     40  C   UNL d   1      -1.307 -17.053 -13.333 -0.14 +0.09    +0.330 C 
DOCKED: ATOM     41  O   UNL d   1      -1.661 -16.158 -14.077 -0.16 -0.06    -0.246 OA
DOCKED: BRANCH  40  42
DOCKED: ATOM     42  O   UNL d   1      -2.062 -18.140 -13.112 -0.39 -0.23    -0.477 OA
DOCKED: ATOM     43  H   UNL d   1      -1.461 -18.751 -12.637 +0.08 +0.10    +0.295 HD
DOCKED: ENDBRANCH  40  42
DOCKED: ENDBRANCH  39  40
DOCKED: ENDBRANCH  27  38
DOCKED: BRANCH   8  44
DOCKED: ATOM     44  C   UNL d   1       5.967 -16.155  -2.620 -0.18 -0.05    +0.141 C 
DOCKED: BRANCH  44  45
DOCKED: ATOM     45  C   UNL d   1       5.788 -16.188  -1.126 -0.13 -0.10    +0.306 C 
DOCKED: ATOM     46  O   UNL d   1       6.174 -15.351  -0.329 -0.22 +0.06    -0.251 OA
DOCKED: BRANCH  45  47
DOCKED: ATOM     47  O   UNL d   1       5.150 -17.297  -0.708 -0.06 +0.15    -0.481 OA
DOCKED: ATOM     48  H   UNL d   1       4.198 -17.098  -0.837 -0.46 -0.14    +0.295 HD
DOCKED: ENDBRANCH  45  47
DOCKED: ENDBRANCH  44  45
DOCKED: ENDBRANCH   8  44
DOCKED: BRANCH  22  49
DOCKED: ATOM     49  C   UNL d   1      -0.124 -20.472  -8.715 -0.12 -0.02    +0.048 C 
DOCKED: BRANCH  49  50
DOCKED: ATOM     50  C   UNL d   1      -1.498 -19.857  -8.978 -0.25 -0.04    +0.125 C 
DOCKED: BRANCH  50  51
DOCKED: ATOM     51  C   UNL d   1      -1.713 -19.633 -10.448 -0.19 +0.02    +0.305 C 
DOCKED: ATOM     52  O   UNL d   1      -1.379 -20.360 -11.367 -0.10 -0.04    -0.251 OA
DOCKED: BRANCH  51  53
DOCKED: ATOM     53  O   UNL d   1      -2.345 -18.468 -10.694 -0.51 -0.16    -0.481 OA
DOCKED: ATOM     54  H   UNL d   1      -2.743 -18.596 -11.580 +0.09 +0.18    +0.295 HD
DOCKED: ENDBRANCH  51  53
DOCKED: ENDBRANCH  50  51
DOCKED: ENDBRANCH  49  50
DOCKED: ENDBRANCH  22  49
DOCKED: TORSDOF 13
DOCKED: TER
DOCKED: ENDMDL
________________________________________________________________________________


	BEGINNING GENETIC ALGORITHM DOCKING 50 of 100
Run: 50 Seed: 1613670949 1968961664 [ Run 50 of 100 GA/GALS ]
Beginning LAMARCKIAN GENETIC ALGORITHM (LGA), with a maximum of 25000000 energy evaluations.

Final-Value: -10.628


	FINAL GENETIC ALGORITHM DOCKED STATE
	_______________________________________________


Detailed state:  trans -0.130 12.168 -11.810 quatxyzw 0.890958 -0.023989 -0.390693 0.230169 center 0.153 0.018 -0.028 ntor 13 29.1133 -179.1231 -153.3699 145.1728 -143.0375 38.3267 130.7376 132.7786 165.7455 -43.1009 145.8700 61.6472 19.3592
State:	 -0.130  12.168 -11.810   0.916 -0.025 -0.401 153.386     29.11 -179.12 -153.37  145.17 -143.04   38.33  130.74  132.78  165.75  -43.10  145.87   61.65   19.36

DOCKED: MODEL       50
DOCKED: USER    Run = 50
DOCKED: USER    DPF = D:/Protein_go_brrr/autodock/final/mut_Y35F/heme/dock.dpf
DOCKED: USER  
DOCKED: USER    Estimated Free Energy of Binding    =   -4.83 kcal/mol  [=(1)+(2)+(3)-(4)]
DOCKED: USER    Estimated Inhibition Constant, Ki   =  289.09 uM (micromolar)  [Temperature = 298.15 K]
DOCKED: USER    
DOCKED: USER    (1) Final Intermolecular Energy     =   -8.71 kcal/mol
DOCKED: USER        vdW + Hbond + desolv Energy     =   -8.35 kcal/mol
DOCKED: USER        Electrostatic Energy            =   -0.35 kcal/mol
DOCKED: USER    (2) Final Total Internal Energy     =   -1.92 kcal/mol
DOCKED: USER    (3) Torsional Free Energy           =   +3.88 kcal/mol
DOCKED: USER    (4) Unbound System's Energy  [=(2)] =   -1.92 kcal/mol
DOCKED: USER    
DOCKED: USER    
DOCKED: USER    NEWDPF move heme_opt.pdbqt
DOCKED: USER    NEWDPF about 0.153000 0.018000 -0.028000
DOCKED: USER    NEWDPF tran0 -0.129683 12.168214 -11.809618
DOCKED: USER    NEWDPF quaternion0 0.890958 -0.023989 -0.390693 0.230169
DOCKED: USER    NEWDPF axisangle0 0.915539 -0.024651 -0.401473 153.385936
DOCKED: USER    NEWDPF quat0 0.915539 -0.024651 -0.401473 153.385936
DOCKED: USER    NEWDPF dihe0 29.11 -179.12 -153.37 145.17 -143.04 38.33 130.74 132.78 165.75 -43.10 145.87 61.65 19.36 
DOCKED: USER  keepresnum = 1 
DOCKED: USER  
DOCKED: REMARK  13 active torsions:
DOCKED: REMARK  status: ('A' for Active; 'I' for Inactive)
DOCKED: REMARK    1  A    between atoms: O_3  and  C_38 
DOCKED: REMARK    2  A    between atoms: O_4  and  C_40 
DOCKED: REMARK    3  A    between atoms: O_7  and  C_46 
DOCKED: REMARK    4  A    between atoms: O_9  and  C_48 
DOCKED: REMARK    5  A    between atoms: C_15  and  C_20 
DOCKED: REMARK    6  A    between atoms: C_16  and  C_23 
DOCKED: REMARK    7  A    between atoms: C_20  and  C_38 
DOCKED: REMARK    8  A    between atoms: C_23  and  C_40 
DOCKED: REMARK    9  A    between atoms: C_32  and  C_41 
DOCKED: REMARK   10  A    between atoms: C_37  and  C_45 
DOCKED: REMARK   11  A    between atoms: C_41  and  C_44 
DOCKED: REMARK   12  A    between atoms: C_44  and  C_46 
DOCKED: REMARK   13  A    between atoms: C_47  and  C_48 
DOCKED: USER                              x       y       z     vdW  Elec       q    Type
DOCKED: USER                           _______ _______ _______ _____ _____    ______ ____
DOCKED: ROOT
DOCKED: ATOM      1  O   UNL d   1      -4.841  10.169  -8.884 -0.22 +0.16    -0.289 OA
DOCKED: ATOM      2  O   UNL d   1       0.188  15.454  -7.104 -0.13 +0.09    -0.289 OA
DOCKED: ATOM      3  N   UNL d   1      -2.130  10.916 -10.881 -0.16 +0.03    -0.247 NA
DOCKED: ATOM      4  N   UNL d   1      -0.925  13.278  -9.541 -0.15 +0.04    -0.247 NA
DOCKED: ATOM      5  N   UNL d   1       0.641  13.709 -11.913 -0.11 +0.01    -0.354 N 
DOCKED: ATOM      6  N   UNL d   1      -0.629  11.269 -13.304 -0.04 +0.02    -0.354 N 
DOCKED: ATOM      7  C   UNL d   1      -4.093   9.465 -11.102 -0.13 -0.00    +0.084 A 
DOCKED: ATOM      8  C   UNL d   1      -1.312  13.519  -7.140 -0.28 -0.04    +0.084 A 
DOCKED: ATOM      9  C   UNL d   1      -1.592  12.771  -8.448 -0.27 -0.02    +0.058 A 
DOCKED: ATOM     10  C   UNL d   1      -2.800  10.024 -11.702 -0.18 -0.00    +0.058 A 
DOCKED: ATOM     11  C   UNL d   1      -4.028  10.186  -9.789 -0.17 -0.04    +0.193 A 
DOCKED: ATOM     12  C   UNL d   1      -2.779  11.013  -9.767 -0.24 -0.02    +0.109 A 
DOCKED: ATOM     13  C   UNL d   1      -0.392  14.567  -7.700 -0.17 -0.06    +0.193 A 
DOCKED: ATOM     14  C   UNL d   1      -5.332   9.940 -11.866 -0.05 -0.00    +0.026 C 
DOCKED: ATOM     15  C   UNL d   1      -2.453  11.745  -8.527 -0.34 -0.02    +0.055 C 
DOCKED: ATOM     16  C   UNL d   1      -0.527  12.655  -6.148 -0.52 -0.01    +0.026 C 
DOCKED: ATOM     17  C   UNL d   1      -0.246  14.314  -9.166 -0.21 -0.02    +0.109 A 
DOCKED: ATOM     18  C   UNL d   1      -2.332   9.594 -12.889 -0.19 -0.00    +0.050 C 
DOCKED: ATOM     19  C   UNL d   1      -1.106   9.990 -13.482 -0.19 -0.00    +0.045 A 
DOCKED: ATOM     20  C   UNL d   1       0.909  14.872 -11.239 -0.22 -0.00    +0.045 A 
DOCKED: ATOM     21  C   UNL d   1       0.570  15.216  -9.993 -0.24 -0.00    +0.057 C 
DOCKED: ATOM     22  C   UNL d   1       1.813  15.007 -13.333 -0.13 +0.00    -0.019 A 
DOCKED: ATOM     23  C   UNL d   1       1.146  13.698 -13.186 -0.13 -0.00    +0.045 A 
DOCKED: ATOM     24  C   UNL d   1       1.671  15.697 -12.177 -0.14 +0.00    -0.022 A 
DOCKED: ATOM     25  C   UNL d   1       0.519  11.463 -14.036 +0.09 -0.00    +0.049 A 
DOCKED: ATOM     26  C   UNL d   1      -0.227   9.325 -14.323 -0.21 +0.00    -0.018 A 
DOCKED: ATOM     27  C   UNL d   1       0.808  10.254 -14.654 -0.19 -0.00    +0.003 A 
DOCKED: ATOM     28  C   UNL d   1       1.111  12.751 -14.136 -0.10 -0.00    +0.052 C 
DOCKED: ATOM     29  C   UNL d   1       2.178  17.056 -11.833 -0.07 +0.00    +0.046 C 
DOCKED: ATOM     30  C   UNL d   1      -0.338   7.913 -14.790 -0.21 -0.00    +0.046 C 
DOCKED: ATOM     31  H   UNL d   1       0.183  12.929 -11.454 +0.04 -0.01    +0.166 HD
DOCKED: ATOM     32  H   UNL d   1      -1.097  11.968 -12.739 +0.03 -0.01    +0.166 HD
DOCKED: ENDROOT
DOCKED: BRANCH   7  33
DOCKED: ATOM     33  C   UNL d   1      -4.115   7.949 -10.883 -0.19 +0.02    +0.141 C 
DOCKED: BRANCH  33  34
DOCKED: ATOM     34  C   UNL d   1      -5.483   7.354 -11.080 -0.07 +0.09    +0.306 C 
DOCKED: ATOM     35  O   UNL d   1      -6.344   7.228 -10.225 -0.65 -0.20    -0.251 OA
DOCKED: BRANCH  34  36
DOCKED: ATOM     36  O   UNL d   1      -5.696   6.952 -12.345 +0.01 -0.06    -0.481 OA
DOCKED: ATOM     37  H   UNL d   1      -6.669   7.005 -12.460 +0.03 +0.04    +0.295 HD
DOCKED: ENDBRANCH  34  36
DOCKED: ENDBRANCH  33  34
DOCKED: ENDBRANCH   7  33
DOCKED: BRANCH  27  38
DOCKED: ATOM     38  C   UNL d   1       1.917   9.980 -15.516 -0.20 -0.00    +0.017 C 
DOCKED: ATOM     39  C   UNL d   1       3.042   9.344 -15.153 -0.29 -0.01    +0.092 C 
DOCKED: BRANCH  39  40
DOCKED: ATOM     40  C   UNL d   1       4.099   9.110 -16.140 -0.12 -0.04    +0.330 C 
DOCKED: ATOM     41  O   UNL d   1       4.446   9.844 -17.046 -0.05 +0.02    -0.246 OA
DOCKED: BRANCH  40  42
DOCKED: ATOM     42  O   UNL d   1       4.688   7.925 -15.915 -0.10 +0.10    -0.477 OA
DOCKED: ATOM     43  H   UNL d   1       4.204   7.566 -15.143 -0.32 -0.13    +0.295 HD
DOCKED: ENDBRANCH  40  42
DOCKED: ENDBRANCH  39  40
DOCKED: ENDBRANCH  27  38
DOCKED: BRANCH   8  44
DOCKED: ATOM     44  C   UNL d   1      -2.532  14.161  -6.472 -0.17 -0.10    +0.141 C 
DOCKED: BRANCH  44  45
DOCKED: ATOM     45  C   UNL d   1      -2.745  15.596  -6.876 -0.06 -0.18    +0.306 C 
DOCKED: ATOM     46  O   UNL d   1      -3.363  15.992  -7.849 -0.02 +0.08    -0.251 OA
DOCKED: BRANCH  45  47
DOCKED: ATOM     47  O   UNL d   1      -2.141  16.461  -6.042 -0.00 +0.44    -0.481 OA
DOCKED: ATOM     48  H   UNL d   1      -1.399  15.952  -5.652 -0.40 -0.47    +0.295 HD
DOCKED: ENDBRANCH  45  47
DOCKED: ENDBRANCH  44  45
DOCKED: ENDBRANCH   8  44
DOCKED: BRANCH  22  49
DOCKED: ATOM     49  C   UNL d   1       2.508  15.463 -14.582 -0.06 -0.00    +0.048 C 
DOCKED: BRANCH  49  50
DOCKED: ATOM     50  C   UNL d   1       3.720  14.591 -14.909 -0.08 -0.00    +0.125 C 
DOCKED: BRANCH  50  51
DOCKED: ATOM     51  C   UNL d   1       4.382  14.099 -13.653 -0.13 +0.01    +0.305 C 
DOCKED: ATOM     52  O   UNL d   1       4.646  12.947 -13.355 -0.21 -0.01    -0.251 OA
DOCKED: BRANCH  51  53
DOCKED: ATOM     53  O   UNL d   1       4.673  15.107 -12.808 -0.07 -0.02    -0.481 OA
DOCKED: ATOM     54  H   UNL d   1       4.916  15.851 -13.399 +0.06 +0.00    +0.295 HD
DOCKED: ENDBRANCH  51  53
DOCKED: ENDBRANCH  50  51
DOCKED: ENDBRANCH  49  50
DOCKED: ENDBRANCH  22  49
DOCKED: TORSDOF 13
DOCKED: TER
DOCKED: ENDMDL
________________________________________________________________________________


	BEGINNING GENETIC ALGORITHM DOCKING 51 of 100
Run: 51 Seed: 433915014 177200639 [ Run 51 of 100 GA/GALS ]
Beginning LAMARCKIAN GENETIC ALGORITHM (LGA), with a maximum of 25000000 energy evaluations.

Final-Value: -11.585


	FINAL GENETIC ALGORITHM DOCKED STATE
	_______________________________________________


Detailed state:  trans 10.907 12.974 -11.616 quatxyzw -0.290441 -0.789212 -0.538443 0.053552 center 0.153 0.018 -0.028 ntor 13 83.8472 -117.9069 -147.1118 -122.8268 179.7325 123.3972 -40.1116 79.3673 105.7023 15.2533 132.7814 -91.2267 1.5320
State:	 10.907  12.974 -11.616  -0.291 -0.790 -0.539 173.860     83.85 -117.91 -147.11 -122.83  179.73  123.40  -40.11   79.37  105.70   15.25  132.78  -91.23    1.53

DOCKED: MODEL       51
DOCKED: USER    Run = 51
DOCKED: USER    DPF = D:/Protein_go_brrr/autodock/final/mut_Y35F/heme/dock.dpf
DOCKED: USER  
DOCKED: USER    Estimated Free Energy of Binding    =   -5.85 kcal/mol  [=(1)+(2)+(3)-(4)]
DOCKED: USER    Estimated Inhibition Constant, Ki   =   51.24 uM (micromolar)  [Temperature = 298.15 K]
DOCKED: USER    
DOCKED: USER    (1) Final Intermolecular Energy     =   -9.73 kcal/mol
DOCKED: USER        vdW + Hbond + desolv Energy     =   -9.35 kcal/mol
DOCKED: USER        Electrostatic Energy            =   -0.38 kcal/mol
DOCKED: USER    (2) Final Total Internal Energy     =   -1.85 kcal/mol
DOCKED: USER    (3) Torsional Free Energy           =   +3.88 kcal/mol
DOCKED: USER    (4) Unbound System's Energy  [=(2)] =   -1.85 kcal/mol
DOCKED: USER    
DOCKED: USER    
DOCKED: USER    NEWDPF move heme_opt.pdbqt
DOCKED: USER    NEWDPF about 0.153000 0.018000 -0.028000
DOCKED: USER    NEWDPF tran0 10.906759 12.973912 -11.615779
DOCKED: USER    NEWDPF quaternion0 -0.290441 -0.789212 -0.538443 0.053552
DOCKED: USER    NEWDPF axisangle0 -0.290859 -0.790346 -0.539216 173.860443
DOCKED: USER    NEWDPF quat0 -0.290859 -0.790346 -0.539216 173.860443
DOCKED: USER    NEWDPF dihe0 83.85 -117.91 -147.11 -122.83 179.73 123.40 -40.11 79.37 105.70 15.25 132.78 -91.23 1.53 
DOCKED: USER  keepresnum = 1 
DOCKED: USER  
DOCKED: REMARK  13 active torsions:
DOCKED: REMARK  status: ('A' for Active; 'I' for Inactive)
DOCKED: REMARK    1  A    between atoms: O_3  and  C_38 
DOCKED: REMARK    2  A    between atoms: O_4  and  C_40 
DOCKED: REMARK    3  A    between atoms: O_7  and  C_46 
DOCKED: REMARK    4  A    between atoms: O_9  and  C_48 
DOCKED: REMARK    5  A    between atoms: C_15  and  C_20 
DOCKED: REMARK    6  A    between atoms: C_16  and  C_23 
DOCKED: REMARK    7  A    between atoms: C_20  and  C_38 
DOCKED: REMARK    8  A    between atoms: C_23  and  C_40 
DOCKED: REMARK    9  A    between atoms: C_32  and  C_41 
DOCKED: REMARK   10  A    between atoms: C_37  and  C_45 
DOCKED: REMARK   11  A    between atoms: C_41  and  C_44 
DOCKED: REMARK   12  A    between atoms: C_44  and  C_46 
DOCKED: REMARK   13  A    between atoms: C_47  and  C_48 
DOCKED: USER                              x       y       z     vdW  Elec       q    Type
DOCKED: USER                           _______ _______ _______ _____ _____    ______ ____
DOCKED: ROOT
DOCKED: ATOM      1  O   UNL d   1      16.473  11.033 -11.677 -0.09 +0.05    -0.289 OA
DOCKED: ATOM      2  O   UNL d   1      10.531   9.091 -15.837 -0.07 +0.03    -0.289 OA
DOCKED: ATOM      3  N   UNL d   1      13.331  12.367 -11.183 -0.10 +0.07    -0.247 NA
DOCKED: ATOM      4  N   UNL d   1      11.754  11.254 -13.442 -0.10 +0.03    -0.247 NA
DOCKED: ATOM      5  N   UNL d   1       9.704  13.177 -12.837 -0.08 +0.01    -0.354 N 
DOCKED: ATOM      6  N   UNL d   1      11.355  14.338 -10.508 -0.04 +0.04    -0.354 N 
DOCKED: ATOM      7  C   UNL d   1      15.558  12.798 -10.255 -0.10 -0.02    +0.084 A 
DOCKED: ATOM      8  C   UNL d   1      12.506   9.132 -14.392 -0.21 -0.02    +0.084 A 
DOCKED: ATOM      9  C   UNL d   1      12.740  10.293 -13.420 -0.24 -0.01    +0.058 A 
DOCKED: ATOM     10  C   UNL d   1      14.066  13.140 -10.300 -0.11 -0.01    +0.058 A 
DOCKED: ATOM     11  C   UNL d   1      15.533  11.682 -11.255 -0.17 -0.05    +0.193 A 
DOCKED: ATOM     12  C   UNL d   1      14.123  11.500 -11.725 -0.20 -0.03    +0.109 A 
DOCKED: ATOM     13  C   UNL d   1      11.224   9.630 -14.996 -0.09 -0.02    +0.193 A 
DOCKED: ATOM     14  C   UNL d   1      16.425  13.935 -10.802 -0.04 -0.00    +0.026 C 
DOCKED: ATOM     15  C   UNL d   1      13.837  10.388 -12.654 -0.33 -0.02    +0.055 C 
DOCKED: ATOM     16  C   UNL d   1      12.225   7.820 -13.653 -0.46 -0.01    +0.026 C 
DOCKED: ATOM     17  C   UNL d   1      10.880  10.928 -14.340 -0.10 -0.01    +0.109 A 
DOCKED: ATOM     18  C   UNL d   1      13.529  14.057  -9.473 -0.12 -0.01    +0.050 C 
DOCKED: ATOM     19  C   UNL d   1      12.151  14.379  -9.385 -0.15 -0.01    +0.045 A 
DOCKED: ATOM     20  C   UNL d   1       9.233  12.699 -14.033 -0.07 -0.00    +0.045 A 
DOCKED: ATOM     21  C   UNL d   1       9.688  11.676 -14.764 -0.08 -0.00    +0.057 C 
DOCKED: ATOM     22  C   UNL d   1       7.945  14.471 -13.387 -0.15 -0.00    -0.019 A 
DOCKED: ATOM     23  C   UNL d   1       8.989  14.247 -12.368 -0.19 -0.00    +0.045 A 
DOCKED: ATOM     24  C   UNL d   1       8.093  13.551 -14.369 -0.13 +0.00    -0.022 A 
DOCKED: ATOM     25  C   UNL d   1      10.083  14.772 -10.214 -0.21 -0.00    +0.049 A 
DOCKED: ATOM     26  C   UNL d   1      11.367  14.814  -8.328 -0.26 +0.00    -0.018 A 
DOCKED: ATOM     27  C   UNL d   1      10.058  15.042  -8.853 -0.31 -0.00    +0.003 A 
DOCKED: ATOM     28  C   UNL d   1       9.123  14.968 -11.244 -0.22 -0.00    +0.052 C 
DOCKED: ATOM     29  C   UNL d   1       7.278  13.363 -15.603 -0.09 -0.00    +0.046 C 
DOCKED: ATOM     30  C   UNL d   1      11.805  15.005  -6.915 -0.22 -0.01    +0.046 C 
DOCKED: ATOM     31  H   UNL d   1      10.455  12.707 -12.342 +0.05 -0.01    +0.166 HD
DOCKED: ATOM     32  H   UNL d   1      11.691  14.064 -11.423 +0.04 -0.02    +0.166 HD
DOCKED: ENDROOT
DOCKED: BRANCH   7  33
DOCKED: ATOM     33  C   UNL d   1      16.076  12.297  -8.902 -0.17 -0.04    +0.141 C 
DOCKED: BRANCH  33  34
DOCKED: ATOM     34  C   UNL d   1      17.283  11.408  -9.038 -0.21 -0.08    +0.306 C 
DOCKED: ATOM     35  O   UNL d   1      17.404  10.284  -8.581 -0.79 +0.05    -0.251 OA
DOCKED: BRANCH  34  36
DOCKED: ATOM     36  O   UNL d   1      18.273  11.981  -9.745 -0.04 +0.13    -0.481 OA
DOCKED: ATOM     37  H   UNL d   1      18.180  11.608 -10.647 +0.09 -0.08    +0.295 HD
DOCKED: ENDBRANCH  34  36
DOCKED: ENDBRANCH  33  34
DOCKED: ENDBRANCH   7  33
DOCKED: BRANCH  27  38
DOCKED: ATOM     38  C   UNL d   1       8.937  15.516  -8.098 -0.40 +0.00    +0.017 C 
DOCKED: ATOM     39  C   UNL d   1       8.194  16.590  -8.406 -0.26 +0.02    +0.092 C 
DOCKED: BRANCH  39  40
DOCKED: ATOM     40  C   UNL d   1       7.059  16.960  -7.558 -0.12 +0.16    +0.330 C 
DOCKED: ATOM     41  O   UNL d   1       6.880  18.011  -6.971 -0.63 -0.19    -0.246 OA
DOCKED: BRANCH  40  42
DOCKED: ATOM     42  O   UNL d   1       6.176  15.951  -7.501 -0.15 -0.26    -0.477 OA
DOCKED: ATOM     43  H   UNL d   1       6.681  15.220  -7.090 -0.34 +0.09    +0.295 HD
DOCKED: ENDBRANCH  40  42
DOCKED: ENDBRANCH  39  40
DOCKED: ENDBRANCH  27  38
DOCKED: BRANCH   8  44
DOCKED: ATOM     44  C   UNL d   1      13.582   8.943 -15.467 -0.04 -0.05    +0.141 C 
DOCKED: BRANCH  44  45
DOCKED: ATOM     45  C   UNL d   1      14.183  10.239 -15.940 -0.06 -0.07    +0.306 C 
DOCKED: ATOM     46  O   UNL d   1      13.734  10.977 -16.800 -0.02 +0.04    -0.251 OA
DOCKED: BRANCH  45  47
DOCKED: ATOM     47  O   UNL d   1      15.341  10.527 -15.320 -0.06 +0.13    -0.481 OA
DOCKED: ATOM     48  H   UNL d   1      15.747   9.653 -15.136 -0.51 -0.17    +0.295 HD
DOCKED: ENDBRANCH  45  47
DOCKED: ENDBRANCH  44  45
DOCKED: ENDBRANCH   8  44
DOCKED: BRANCH  22  49
DOCKED: ATOM     49  C   UNL d   1       6.917  15.562 -13.314 -0.11 +0.00    +0.048 C 
DOCKED: BRANCH  49  50
DOCKED: ATOM     50  C   UNL d   1       5.741  15.177 -12.417 -0.20 +0.01    +0.125 C 
DOCKED: BRANCH  50  51
DOCKED: ATOM     51  C   UNL d   1       5.263  13.787 -12.727 -0.17 +0.03    +0.305 C 
DOCKED: ATOM     52  O   UNL d   1       5.812  12.734 -12.454 -0.48 -0.04    -0.251 OA
DOCKED: BRANCH  51  53
DOCKED: ATOM     53  O   UNL d   1       4.092  13.793 -13.396 -0.09 -0.02    -0.481 OA
DOCKED: ATOM     54  H   UNL d   1       4.276  14.334 -14.192 +0.08 +0.00    +0.295 HD
DOCKED: ENDBRANCH  51  53
DOCKED: ENDBRANCH  50  51
DOCKED: ENDBRANCH  49  50
DOCKED: ENDBRANCH  22  49
DOCKED: TORSDOF 13
DOCKED: TER
DOCKED: ENDMDL
________________________________________________________________________________


	BEGINNING GENETIC ALGORITHM DOCKING 52 of 100
Run: 52 Seed: 382254563 977137088 [ Run 52 of 100 GA/GALS ]
Beginning LAMARCKIAN GENETIC ALGORITHM (LGA), with a maximum of 25000000 energy evaluations.

Final-Value: -11.049


	FINAL GENETIC ALGORITHM DOCKED STATE
	_______________________________________________


Detailed state:  trans -5.923 -16.435 -14.945 quatxyzw -0.754117 -0.482280 -0.060461 -0.441654 center 0.153 0.018 -0.028 ntor 13 168.4928 128.5620 -105.6376 3.4295 -149.5963 87.8984 173.3077 -163.0253 8.6936 19.6863 63.4730 -98.8567 116.5682
State:	 -5.923 -16.435 -14.945  -0.841 -0.538 -0.067 -127.581    168.49  128.56 -105.64    3.43 -149.60   87.90  173.31 -163.03    8.69   19.69   63.47  -98.86  116.57

DOCKED: MODEL       52
DOCKED: USER    Run = 52
DOCKED: USER    DPF = D:/Protein_go_brrr/autodock/final/mut_Y35F/heme/dock.dpf
DOCKED: USER  
DOCKED: USER    Estimated Free Energy of Binding    =   -3.12 kcal/mol  [=(1)+(2)+(3)-(4)]
DOCKED: USER    Estimated Inhibition Constant, Ki   =    5.15 mM (millimolar)  [Temperature = 298.15 K]
DOCKED: USER    
DOCKED: USER    (1) Final Intermolecular Energy     =   -7.00 kcal/mol
DOCKED: USER        vdW + Hbond + desolv Energy     =   -6.69 kcal/mol
DOCKED: USER        Electrostatic Energy            =   -0.31 kcal/mol
DOCKED: USER    (2) Final Total Internal Energy     =   -4.05 kcal/mol
DOCKED: USER    (3) Torsional Free Energy           =   +3.88 kcal/mol
DOCKED: USER    (4) Unbound System's Energy  [=(2)] =   -4.05 kcal/mol
DOCKED: USER    
DOCKED: USER    
DOCKED: USER    NEWDPF move heme_opt.pdbqt
DOCKED: USER    NEWDPF about 0.153000 0.018000 -0.028000
DOCKED: USER    NEWDPF tran0 -5.923018 -16.434754 -14.944777
DOCKED: USER    NEWDPF quaternion0 -0.754117 -0.482280 -0.060461 -0.441654
DOCKED: USER    NEWDPF axisangle0 -0.840536 -0.537548 -0.067390 -127.581066
DOCKED: USER    NEWDPF quat0 -0.840536 -0.537548 -0.067390 -127.581066
DOCKED: USER    NEWDPF dihe0 168.49 128.56 -105.64 3.43 -149.60 87.90 173.31 -163.03 8.69 19.69 63.47 -98.86 116.57 
DOCKED: USER  keepresnum = 1 
DOCKED: USER  
DOCKED: REMARK  13 active torsions:
DOCKED: REMARK  status: ('A' for Active; 'I' for Inactive)
DOCKED: REMARK    1  A    between atoms: O_3  and  C_38 
DOCKED: REMARK    2  A    between atoms: O_4  and  C_40 
DOCKED: REMARK    3  A    between atoms: O_7  and  C_46 
DOCKED: REMARK    4  A    between atoms: O_9  and  C_48 
DOCKED: REMARK    5  A    between atoms: C_15  and  C_20 
DOCKED: REMARK    6  A    between atoms: C_16  and  C_23 
DOCKED: REMARK    7  A    between atoms: C_20  and  C_38 
DOCKED: REMARK    8  A    between atoms: C_23  and  C_40 
DOCKED: REMARK    9  A    between atoms: C_32  and  C_41 
DOCKED: REMARK   10  A    between atoms: C_37  and  C_45 
DOCKED: REMARK   11  A    between atoms: C_41  and  C_44 
DOCKED: REMARK   12  A    between atoms: C_44  and  C_46 
DOCKED: REMARK   13  A    between atoms: C_47  and  C_48 
DOCKED: USER                              x       y       z     vdW  Elec       q    Type
DOCKED: USER                           _______ _______ _______ _____ _____    ______ ____
DOCKED: ROOT
DOCKED: ATOM      1  O   UNL d   1      -7.781 -19.991 -19.264 -0.01 -0.11    -0.289 OA
DOCKED: ATOM      2  O   UNL d   1     -10.580 -18.668 -12.422 -0.04 -0.04    -0.289 OA
DOCKED: ATOM      3  N   UNL d   1      -6.251 -17.894 -16.993 -0.01 -0.17    -0.247 NA
DOCKED: ATOM      4  N   UNL d   1      -8.204 -17.767 -14.757 -0.11 -0.10    -0.247 NA
DOCKED: ATOM      5  N   UNL d   1      -6.733 -15.524 -13.722 -0.12 -0.06    -0.354 N 
DOCKED: ATOM      6  N   UNL d   1      -4.723 -15.650 -16.056 -0.05 -0.09    -0.354 N 
DOCKED: ATOM      7  C   UNL d   1      -5.857 -18.486 -19.339 -0.04 +0.03    +0.084 A 
DOCKED: ATOM      8  C   UNL d   1      -9.708 -19.673 -14.477 -0.07 +0.03    +0.084 A 
DOCKED: ATOM      9  C   UNL d   1      -8.622 -18.965 -15.294 -0.11 +0.03    +0.058 A 
DOCKED: ATOM     10  C   UNL d   1      -5.452 -17.676 -18.103 -0.07 +0.03    +0.058 A 
DOCKED: ATOM     11  C   UNL d   1      -7.015 -19.213 -18.725 -0.05 +0.10    +0.193 A 
DOCKED: ATOM     12  C   UNL d   1      -7.136 -18.788 -17.295 -0.03 +0.08    +0.109 A 
DOCKED: ATOM     13  C   UNL d   1      -9.856 -18.637 -13.398 -0.07 +0.04    +0.193 A 
DOCKED: ATOM     14  C   UNL d   1      -6.376 -17.590 -20.467 -0.01 +0.00    +0.026 C 
DOCKED: ATOM     15  C   UNL d   1      -8.158 -19.447 -16.457 -0.10 +0.04    +0.055 C 
DOCKED: ATOM     16  C   UNL d   1      -9.191 -20.970 -13.848 -0.11 +0.01    +0.026 C 
DOCKED: ATOM     17  C   UNL d   1      -8.894 -17.531 -13.688 -0.14 +0.03    +0.109 A 
DOCKED: ATOM     18  C   UNL d   1      -4.354 -16.898 -18.101 -0.06 +0.02    +0.050 C 
DOCKED: ATOM     19  C   UNL d   1      -3.855 -16.181 -16.984 -0.07 +0.01    +0.045 A 
DOCKED: ATOM     20  C   UNL d   1      -7.838 -15.475 -12.913 -0.27 +0.00    +0.045 A 
DOCKED: ATOM     21  C   UNL d   1      -8.845 -16.348 -12.816 -0.25 +0.01    +0.057 C 
DOCKED: ATOM     22  C   UNL d   1      -6.552 -13.628 -12.520 -0.33 +0.00    -0.019 A 
DOCKED: ATOM     23  C   UNL d   1      -5.898 -14.451 -13.557 -0.24 +0.00    +0.045 A 
DOCKED: ATOM     24  C   UNL d   1      -7.699 -14.240 -12.142 -0.40 +0.00    -0.022 A 
DOCKED: ATOM     25  C   UNL d   1      -4.035 -14.923 -15.112 -0.15 +0.01    +0.049 A 
DOCKED: ATOM     26  C   UNL d   1      -2.569 -15.821 -16.613 -0.06 -0.00    -0.018 A 
DOCKED: ATOM     27  C   UNL d   1      -2.687 -15.043 -15.420 -0.11 +0.00    +0.003 A 
DOCKED: ATOM     28  C   UNL d   1      -4.728 -14.151 -14.141 -0.23 +0.00    +0.052 C 
DOCKED: ATOM     29  C   UNL d   1      -8.695 -13.806 -11.121 -0.27 -0.00    +0.046 C 
DOCKED: ATOM     30  C   UNL d   1      -1.306 -16.178 -17.321 -0.02 +0.01    +0.046 C 
DOCKED: ATOM     31  H   UNL d   1      -6.547 -16.329 -14.310 +0.03 +0.06    +0.166 HD
DOCKED: ATOM     32  H   UNL d   1      -5.729 -15.758 -16.104 +0.02 +0.04    +0.166 HD
DOCKED: ENDROOT
DOCKED: BRANCH   7  33
DOCKED: ATOM     33  C   UNL d   1      -4.806 -19.479 -19.847 -0.03 +0.06    +0.141 C 
DOCKED: BRANCH  33  34
DOCKED: ATOM     34  C   UNL d   1      -4.379 -20.461 -18.790 +0.00 +0.31    +0.306 C 
DOCKED: ATOM     35  O   UNL d   1      -3.404 -20.360 -18.065 -0.36 -0.30    -0.251 OA
DOCKED: BRANCH  34  36
DOCKED: ATOM     36  O   UNL d   1      -5.205 -21.518 -18.701 -0.53 -0.57    -0.481 OA
DOCKED: ATOM     37  H   UNL d   1      -6.003 -21.251 -19.204 +0.01 +0.21    +0.295 HD
DOCKED: ENDBRANCH  34  36
DOCKED: ENDBRANCH  33  34
DOCKED: ENDBRANCH   7  33
DOCKED: BRANCH  27  38
DOCKED: ATOM     38  C   UNL d   1      -1.594 -14.455 -14.707 -0.14 +0.00    +0.017 C 
DOCKED: ATOM     39  C   UNL d   1      -1.415 -13.140 -14.511 -0.14 +0.00    +0.092 C 
DOCKED: BRANCH  39  40
DOCKED: ATOM     40  C   UNL d   1      -0.258 -12.667 -13.745 -0.17 -0.03    +0.330 C 
DOCKED: ATOM     41  O   UNL d   1       0.864 -12.442 -14.156 -0.22 +0.02    -0.246 OA
DOCKED: BRANCH  40  42
DOCKED: ATOM     42  O   UNL d   1      -0.598 -12.488 -12.459 -0.13 +0.13    -0.477 OA
DOCKED: ATOM     43  H   UNL d   1      -1.400 -11.927 -12.504 -0.22 -0.09    +0.295 HD
DOCKED: ENDBRANCH  40  42
DOCKED: ENDBRANCH  39  40
DOCKED: ENDBRANCH  27  38
DOCKED: BRANCH   8  44
DOCKED: ATOM     44  C   UNL d   1     -11.037 -19.901 -15.204 -0.01 +0.03    +0.141 C 
DOCKED: BRANCH  44  45
DOCKED: ATOM     45  C   UNL d   1     -11.336 -18.849 -16.240 +0.00 +0.04    +0.306 C 
DOCKED: ATOM     46  O   UNL d   1     -11.654 -19.042 -17.400 -0.00 -0.03    -0.251 OA
DOCKED: BRANCH  45  47
DOCKED: ATOM     47  O   UNL d   1     -11.192 -17.600 -15.761 +0.01 -0.06    -0.481 OA
DOCKED: ATOM     48  H   UNL d   1     -10.222 -17.473 -15.688 +0.03 +0.05    +0.295 HD
DOCKED: ENDBRANCH  45  47
DOCKED: ENDBRANCH  44  45
DOCKED: ENDBRANCH   8  44
DOCKED: BRANCH  22  49
DOCKED: ATOM     49  C   UNL d   1      -6.008 -12.325 -12.011 -0.36 -0.01    +0.048 C 
DOCKED: BRANCH  49  50
DOCKED: ATOM     50  C   UNL d   1      -5.266 -11.554 -13.103 -0.19 -0.01    +0.125 C 
DOCKED: BRANCH  50  51
DOCKED: ATOM     51  C   UNL d   1      -3.809 -11.414 -12.764 -0.19 -0.04    +0.305 C 
DOCKED: ATOM     52  O   UNL d   1      -2.982 -10.711 -13.318 -0.17 +0.02    -0.251 OA
DOCKED: BRANCH  51  53
DOCKED: ATOM     53  O   UNL d   1      -3.455 -12.196 -11.725 -0.06 +0.13    -0.481 OA
DOCKED: ATOM     54  H   UNL d   1      -2.511 -11.980 -11.575 -0.25 -0.18    +0.295 HD
DOCKED: ENDBRANCH  51  53
DOCKED: ENDBRANCH  50  51
DOCKED: ENDBRANCH  49  50
DOCKED: ENDBRANCH  22  49
DOCKED: TORSDOF 13
DOCKED: TER
DOCKED: ENDMDL
________________________________________________________________________________


	BEGINNING GENETIC ALGORITHM DOCKING 53 of 100
Run: 53 Seed: 1712376561 1797044025 [ Run 53 of 100 GA/GALS ]
Beginning LAMARCKIAN GENETIC ALGORITHM (LGA), with a maximum of 25000000 energy evaluations.

Final-Value: -11.248


	FINAL GENETIC ALGORITHM DOCKED STATE
	_______________________________________________


Detailed state:  trans 11.553 12.462 6.416 quatxyzw -0.190557 -0.582373 -0.369163 0.698748 center 0.153 0.018 -0.028 ntor 13 -46.0427 -155.5799 -90.1107 139.5976 -26.5091 -81.8747 121.4923 27.9820 119.1804 -43.3781 -103.9722 23.0726 -23.9899
State:	 11.553  12.462   6.416  -0.266 -0.814 -0.516 91.347    -46.04 -155.58  -90.11  139.60  -26.51  -81.87  121.49   27.98  119.18  -43.38 -103.97   23.07  -23.99

DOCKED: MODEL       53
DOCKED: USER    Run = 53
DOCKED: USER    DPF = D:/Protein_go_brrr/autodock/final/mut_Y35F/heme/dock.dpf
DOCKED: USER  
DOCKED: USER    Estimated Free Energy of Binding    =   -4.61 kcal/mol  [=(1)+(2)+(3)-(4)]
DOCKED: USER    Estimated Inhibition Constant, Ki   =  414.22 uM (micromolar)  [Temperature = 298.15 K]
DOCKED: USER    
DOCKED: USER    (1) Final Intermolecular Energy     =   -8.49 kcal/mol
DOCKED: USER        vdW + Hbond + desolv Energy     =   -8.15 kcal/mol
DOCKED: USER        Electrostatic Energy            =   -0.34 kcal/mol
DOCKED: USER    (2) Final Total Internal Energy     =   -2.76 kcal/mol
DOCKED: USER    (3) Torsional Free Energy           =   +3.88 kcal/mol
DOCKED: USER    (4) Unbound System's Energy  [=(2)] =   -2.76 kcal/mol
DOCKED: USER    
DOCKED: USER    
DOCKED: USER    NEWDPF move heme_opt.pdbqt
DOCKED: USER    NEWDPF about 0.153000 0.018000 -0.028000
DOCKED: USER    NEWDPF tran0 11.553476 12.461995 6.416257
DOCKED: USER    NEWDPF quaternion0 -0.190557 -0.582373 -0.369163 0.698748
DOCKED: USER    NEWDPF axisangle0 -0.266376 -0.814088 -0.516046 91.346758
DOCKED: USER    NEWDPF quat0 -0.266376 -0.814088 -0.516046 91.346758
DOCKED: USER    NEWDPF dihe0 -46.04 -155.58 -90.11 139.60 -26.51 -81.87 121.49 27.98 119.18 -43.38 -103.97 23.07 -23.99 
DOCKED: USER  keepresnum = 1 
DOCKED: USER  
DOCKED: REMARK  13 active torsions:
DOCKED: REMARK  status: ('A' for Active; 'I' for Inactive)
DOCKED: REMARK    1  A    between atoms: O_3  and  C_38 
DOCKED: REMARK    2  A    between atoms: O_4  and  C_40 
DOCKED: REMARK    3  A    between atoms: O_7  and  C_46 
DOCKED: REMARK    4  A    between atoms: O_9  and  C_48 
DOCKED: REMARK    5  A    between atoms: C_15  and  C_20 
DOCKED: REMARK    6  A    between atoms: C_16  and  C_23 
DOCKED: REMARK    7  A    between atoms: C_20  and  C_38 
DOCKED: REMARK    8  A    between atoms: C_23  and  C_40 
DOCKED: REMARK    9  A    between atoms: C_32  and  C_41 
DOCKED: REMARK   10  A    between atoms: C_37  and  C_45 
DOCKED: REMARK   11  A    between atoms: C_41  and  C_44 
DOCKED: REMARK   12  A    between atoms: C_44  and  C_46 
DOCKED: REMARK   13  A    between atoms: C_47  and  C_48 
DOCKED: USER                              x       y       z     vdW  Elec       q    Type
DOCKED: USER                           _______ _______ _______ _____ _____    ______ ____
DOCKED: ROOT
DOCKED: ATOM      1  O   UNL d   1      11.400   9.534  11.531 -0.05 -0.10    -0.289 OA
DOCKED: ATOM      2  O   UNL d   1      11.340   7.070   4.437 -0.15 -0.04    -0.289 OA
DOCKED: ATOM      3  N   UNL d   1      11.366  11.660   8.815 -0.10 -0.05    -0.247 NA
DOCKED: ATOM      4  N   UNL d   1      11.655   9.817   6.502 -0.07 -0.04    -0.247 NA
DOCKED: ATOM      5  N   UNL d   1      12.222  12.111   4.864 -0.04 +0.01    -0.354 N 
DOCKED: ATOM      6  N   UNL d   1      11.940  14.014   7.273 -0.05 -0.01    -0.354 N 
DOCKED: ATOM      7  C   UNL d   1      11.576  11.954  11.239 -0.12 +0.03    +0.084 A 
DOCKED: ATOM      8  C   UNL d   1      10.876   7.520   6.798 -0.16 +0.04    +0.084 A 
DOCKED: ATOM      9  C   UNL d   1      11.154   8.902   7.400 -0.12 +0.02    +0.058 A 
DOCKED: ATOM     10  C   UNL d   1      11.527  12.576   9.840 -0.16 +0.01    +0.058 A 
DOCKED: ATOM     11  C   UNL d   1      11.397  10.525  10.824 -0.08 +0.06    +0.193 A 
DOCKED: ATOM     12  C   UNL d   1      11.255  10.480   9.334 -0.13 +0.03    +0.109 A 
DOCKED: ATOM     13  C   UNL d   1      11.347   7.810   5.401 -0.14 +0.04    +0.193 A 
DOCKED: ATOM     14  C   UNL d   1      12.953  12.112  11.889 -0.05 +0.01    +0.026 C 
DOCKED: ATOM     15  C   UNL d   1      10.973   9.176   8.701 -0.16 +0.02    +0.055 C 
DOCKED: ATOM     16  C   UNL d   1       9.377   7.209   6.758 -0.26 +0.01    +0.026 C 
DOCKED: ATOM     17  C   UNL d   1      11.800   9.234   5.356 -0.13 +0.01    +0.109 A 
DOCKED: ATOM     18  C   UNL d   1      11.548  13.911   9.663 -0.20 +0.01    +0.050 C 
DOCKED: ATOM     19  C   UNL d   1      11.423  14.577   8.418 -0.19 +0.00    +0.045 A 
DOCKED: ATOM     20  C   UNL d   1      12.538  11.109   3.983 -0.22 -0.00    +0.045 A 
DOCKED: ATOM     21  C   UNL d   1      12.358   9.791   4.115 -0.27 +0.00    +0.057 C 
DOCKED: ATOM     22  C   UNL d   1      13.136  13.114   3.066 -0.22 +0.00    -0.019 A 
DOCKED: ATOM     23  C   UNL d   1      12.547  13.357   4.398 -0.12 -0.00    +0.045 A 
DOCKED: ATOM     24  C   UNL d   1      13.127  11.781   2.826 -0.33 +0.00    -0.022 A 
DOCKED: ATOM     25  C   UNL d   1      11.788  14.865   6.204 -0.13 -0.00    +0.049 A 
DOCKED: ATOM     26  C   UNL d   1      10.889  15.810   8.077 -0.24 +0.00    -0.018 A 
DOCKED: ATOM     27  C   UNL d   1      11.104  15.978   6.674 -0.20 -0.00    +0.003 A 
DOCKED: ATOM     28  C   UNL d   1      12.382  14.571   4.947 -0.10 -0.00    +0.052 C 
DOCKED: ATOM     29  C   UNL d   1      13.602  11.048   1.618 -0.31 -0.00    +0.046 C 
DOCKED: ATOM     30  C   UNL d   1      10.217  16.774   8.995 -0.11 -0.00    +0.046 C 
DOCKED: ATOM     31  H   UNL d   1      11.725  11.916   5.727 +0.04 +0.00    +0.166 HD
DOCKED: ATOM     32  H   UNL d   1      12.402  13.112   7.252 +0.03 +0.01    +0.166 HD
DOCKED: ENDROOT
DOCKED: BRANCH   7  33
DOCKED: ATOM     33  C   UNL d   1      10.453  12.384  12.189 -0.17 +0.12    +0.141 C 
DOCKED: BRANCH  33  34
DOCKED: ATOM     34  C   UNL d   1      10.370  11.517  13.417 -0.11 +0.29    +0.306 C 
DOCKED: ATOM     35  O   UNL d   1      11.292  10.908  13.932 -0.05 -0.15    -0.251 OA
DOCKED: BRANCH  34  36
DOCKED: ATOM     36  O   UNL d   1       9.129  11.467  13.932 -0.59 -0.69    -0.481 OA
DOCKED: ATOM     37  H   UNL d   1       8.959  10.511  14.073 +0.06 +0.22    +0.295 HD
DOCKED: ENDBRANCH  34  36
DOCKED: ENDBRANCH  33  34
DOCKED: ENDBRANCH   7  33
DOCKED: BRANCH  27  38
DOCKED: ATOM     38  C   UNL d   1      10.719  17.127   5.912 -0.19 -0.00    +0.017 C 
DOCKED: ATOM     39  C   UNL d   1       9.877  17.117   4.867 -0.25 -0.02    +0.092 C 
DOCKED: BRANCH  39  40
DOCKED: ATOM     40  C   UNL d   1       9.550  18.369   4.180 -0.13 -0.07    +0.330 C 
DOCKED: ATOM     41  O   UNL d   1       8.705  19.188   4.490 -0.18 +0.05    -0.246 OA
DOCKED: BRANCH  40  42
DOCKED: ATOM     42  O   UNL d   1      10.341  18.528   3.108 +0.01 +0.10    -0.477 OA
DOCKED: ATOM     43  H   UNL d   1      10.611  17.616   2.878 +0.09 -0.07    +0.295 HD
DOCKED: ENDBRANCH  40  42
DOCKED: ENDBRANCH  39  40
DOCKED: ENDBRANCH  27  38
DOCKED: BRANCH   8  44
DOCKED: ATOM     44  C   UNL d   1      11.667   6.361   7.414 -0.16 +0.12    +0.141 C 
DOCKED: BRANCH  44  45
DOCKED: ATOM     45  C   UNL d   1      12.950   6.063   6.685 -0.10 +0.16    +0.306 C 
DOCKED: ATOM     46  O   UNL d   1      13.991   6.693   6.759 -0.04 -0.09    -0.251 OA
DOCKED: BRANCH  45  47
DOCKED: ATOM     47  O   UNL d   1      12.845   4.995   5.873 -0.46 -0.31    -0.481 OA
DOCKED: ATOM     48  H   UNL d   1      12.538   5.363   5.018 +0.14 +0.14    +0.295 HD
DOCKED: ENDBRANCH  45  47
DOCKED: ENDBRANCH  44  45
DOCKED: ENDBRANCH   8  44
DOCKED: BRANCH  22  49
DOCKED: ATOM     49  C   UNL d   1      13.662  14.194   2.167 -0.28 -0.01    +0.048 C 
DOCKED: BRANCH  49  50
DOCKED: ATOM     50  C   UNL d   1      12.742  14.437   0.971 -0.40 -0.06    +0.125 C 
DOCKED: BRANCH  50  51
DOCKED: ATOM     51  C   UNL d   1      11.532  15.229   1.376 -0.20 -0.12    +0.305 C 
DOCKED: ATOM     52  O   UNL d   1      11.410  15.954   2.348 -0.09 +0.07    -0.251 OA
DOCKED: BRANCH  51  53
DOCKED: ATOM     53  O   UNL d   1      10.505  15.055   0.521 -0.13 +0.22    -0.481 OA
DOCKED: ATOM     54  H   UNL d   1      10.929  15.059  -0.363 -0.40 -0.32    +0.295 HD
DOCKED: ENDBRANCH  51  53
DOCKED: ENDBRANCH  50  51
DOCKED: ENDBRANCH  49  50
DOCKED: ENDBRANCH  22  49
DOCKED: TORSDOF 13
DOCKED: TER
DOCKED: ENDMDL
________________________________________________________________________________


	BEGINNING GENETIC ALGORITHM DOCKING 54 of 100
Run: 54 Seed: 1868814202 316418531 [ Run 54 of 100 GA/GALS ]
Beginning LAMARCKIAN GENETIC ALGORITHM (LGA), with a maximum of 25000000 energy evaluations.

Final-Value: -10.603


	FINAL GENETIC ALGORITHM DOCKED STATE
	_______________________________________________


Detailed state:  trans 10.240 17.651 5.810 quatxyzw 0.577119 -0.143237 -0.516307 -0.616315 center 0.153 0.018 -0.028 ntor 13 135.8470 85.5480 98.7061 32.3665 -136.3513 -133.8742 -45.2851 -129.2258 17.8235 -124.5674 95.4429 -75.8830 19.4172
State:	 10.240  17.651   5.810   0.733 -0.182 -0.656 -103.905    135.85   85.55   98.71   32.37 -136.35 -133.87  -45.29 -129.23   17.82 -124.57   95.44  -75.88   19.42

DOCKED: MODEL       54
DOCKED: USER    Run = 54
DOCKED: USER    DPF = D:/Protein_go_brrr/autodock/final/mut_Y35F/heme/dock.dpf
DOCKED: USER  
DOCKED: USER    Estimated Free Energy of Binding    =   -4.17 kcal/mol  [=(1)+(2)+(3)-(4)]
DOCKED: USER    Estimated Inhibition Constant, Ki   =  884.95 uM (micromolar)  [Temperature = 298.15 K]
DOCKED: USER    
DOCKED: USER    (1) Final Intermolecular Energy     =   -8.04 kcal/mol
DOCKED: USER        vdW + Hbond + desolv Energy     =   -7.92 kcal/mol
DOCKED: USER        Electrostatic Energy            =   -0.12 kcal/mol
DOCKED: USER    (2) Final Total Internal Energy     =   -2.56 kcal/mol
DOCKED: USER    (3) Torsional Free Energy           =   +3.88 kcal/mol
DOCKED: USER    (4) Unbound System's Energy  [=(2)] =   -2.56 kcal/mol
DOCKED: USER    
DOCKED: USER    
DOCKED: USER    NEWDPF move heme_opt.pdbqt
DOCKED: USER    NEWDPF about 0.153000 0.018000 -0.028000
DOCKED: USER    NEWDPF tran0 10.240365 17.650562 5.810440
DOCKED: USER    NEWDPF quaternion0 0.577119 -0.143237 -0.516307 -0.616315
DOCKED: USER    NEWDPF axisangle0 0.732849 -0.181888 -0.655628 -103.904956
DOCKED: USER    NEWDPF quat0 0.732849 -0.181888 -0.655628 -103.904956
DOCKED: USER    NEWDPF dihe0 135.85 85.55 98.71 32.37 -136.35 -133.87 -45.29 -129.23 17.82 -124.57 95.44 -75.88 19.42 
DOCKED: USER  keepresnum = 1 
DOCKED: USER  
DOCKED: REMARK  13 active torsions:
DOCKED: REMARK  status: ('A' for Active; 'I' for Inactive)
DOCKED: REMARK    1  A    between atoms: O_3  and  C_38 
DOCKED: REMARK    2  A    between atoms: O_4  and  C_40 
DOCKED: REMARK    3  A    between atoms: O_7  and  C_46 
DOCKED: REMARK    4  A    between atoms: O_9  and  C_48 
DOCKED: REMARK    5  A    between atoms: C_15  and  C_20 
DOCKED: REMARK    6  A    between atoms: C_16  and  C_23 
DOCKED: REMARK    7  A    between atoms: C_20  and  C_38 
DOCKED: REMARK    8  A    between atoms: C_23  and  C_40 
DOCKED: REMARK    9  A    between atoms: C_32  and  C_41 
DOCKED: REMARK   10  A    between atoms: C_37  and  C_45 
DOCKED: REMARK   11  A    between atoms: C_41  and  C_44 
DOCKED: REMARK   12  A    between atoms: C_44  and  C_46 
DOCKED: REMARK   13  A    between atoms: C_47  and  C_48 
DOCKED: USER                              x       y       z     vdW  Elec       q    Type
DOCKED: USER                           _______ _______ _______ _____ _____    ______ ____
DOCKED: ROOT
DOCKED: ATOM      1  O   UNL d   1       8.146  21.447   9.805 -0.11 +0.03    -0.289 OA
DOCKED: ATOM      2  O   UNL d   1       8.046  21.636   2.298 -0.03 +0.03    -0.289 OA
DOCKED: ATOM      3  N   UNL d   1       9.640  19.026   7.855 -0.13 +0.06    -0.247 NA
DOCKED: ATOM      4  N   UNL d   1       8.829  19.774   5.096 -0.09 +0.05    -0.247 NA
DOCKED: ATOM      5  N   UNL d   1       9.729  17.185   4.229 -0.12 +0.09    -0.354 N 
DOCKED: ATOM      6  N   UNL d   1      10.551  16.410   7.097 -0.04 +0.09    -0.354 N 
DOCKED: ATOM      7  C   UNL d   1       9.240  19.309  10.257 -0.19 -0.00    +0.084 A 
DOCKED: ATOM      8  C   UNL d   1       8.309  22.126   4.682 -0.08 -0.01    +0.084 A 
DOCKED: ATOM      9  C   UNL d   1       8.666  21.013   5.674 -0.10 -0.01    +0.058 A 
DOCKED: ATOM     10  C   UNL d   1       9.803  18.464   9.110 -0.18 -0.01    +0.058 A 
DOCKED: ATOM     11  C   UNL d   1       8.748  20.458   9.429 -0.14 -0.02    +0.193 A 
DOCKED: ATOM     12  C   UNL d   1       9.072  20.180   7.994 -0.17 -0.01    +0.109 A 
DOCKED: ATOM     13  C   UNL d   1       8.262  21.281   3.440 -0.07 -0.02    +0.193 A 
DOCKED: ATOM     14  C   UNL d   1       8.043  18.636  10.933 -0.17 -0.00    +0.026 C 
DOCKED: ATOM     15  C   UNL d   1       8.761  21.223   6.996 -0.14 -0.00    +0.055 C 
DOCKED: ATOM     16  C   UNL d   1       9.443  23.146   4.541 -0.03 -0.00    +0.026 C 
DOCKED: ATOM     17  C   UNL d   1       8.588  19.875   3.828 -0.11 -0.02    +0.109 A 
DOCKED: ATOM     18  C   UNL d   1      10.473  17.320   9.343 -0.23 +0.00    +0.050 C 
DOCKED: ATOM     19  C   UNL d   1      11.099  16.518   8.355 -0.19 -0.00    +0.045 A 
DOCKED: ATOM     20  C   UNL d   1       9.095  17.608   3.089 -0.24 -0.01    +0.045 A 
DOCKED: ATOM     21  C   UNL d   1       8.574  18.808   2.817 -0.22 -0.01    +0.057 C 
DOCKED: ATOM     22  C   UNL d   1       9.717  15.426   2.822 -0.33 +0.00    -0.019 A 
DOCKED: ATOM     23  C   UNL d   1      10.140  15.880   4.162 -0.26 -0.01    +0.045 A 
DOCKED: ATOM     24  C   UNL d   1       9.100  16.453   2.192 -0.30 +0.01    -0.022 A 
DOCKED: ATOM     25  C   UNL d   1      11.265  15.517   6.333 -0.18 -0.01    +0.049 A 
DOCKED: ATOM     26  C   UNL d   1      12.219  15.702   8.398 -0.11 -0.00    -0.018 A 
DOCKED: ATOM     27  C   UNL d   1      12.330  15.087   7.112 -0.11 -0.00    +0.003 A 
DOCKED: ATOM     28  C   UNL d   1      10.800  15.121   5.049 -0.22 -0.01    +0.052 C 
DOCKED: ATOM     29  C   UNL d   1       8.512  16.489   0.822 -0.35 -0.01    +0.046 C 
DOCKED: ATOM     30  C   UNL d   1      13.133  15.505   9.559 -0.05 +0.00    +0.046 C 
DOCKED: ATOM     31  H   UNL d   1       9.927  17.826   4.990 +0.03 -0.04    +0.166 HD
DOCKED: ATOM     32  H   UNL d   1       9.712  16.899   6.808 -0.43 -0.11    +0.166 HD
DOCKED: ENDROOT
DOCKED: BRANCH   7  33
DOCKED: ATOM     33  C   UNL d   1      10.270  19.789  11.285 -0.06 +0.01    +0.141 C 
DOCKED: BRANCH  33  34
DOCKED: ATOM     34  C   UNL d   1      11.267  20.753  10.700 -0.00 -0.00    +0.306 C 
DOCKED: ATOM     35  O   UNL d   1      12.266  20.459  10.065 -0.01 +0.00    -0.251 OA
DOCKED: BRANCH  34  36
DOCKED: ATOM     36  O   UNL d   1      10.950  22.037  10.943 +0.01 +0.01    -0.481 OA
DOCKED: ATOM     37  H   UNL d   1       9.996  22.102  10.725 +0.02 -0.01    +0.295 HD
DOCKED: ENDBRANCH  34  36
DOCKED: ENDBRANCH  33  34
DOCKED: ENDBRANCH   7  33
DOCKED: BRANCH  27  38
DOCKED: ATOM     38  C   UNL d   1      13.345  14.153   6.729 -0.06 +0.00    +0.017 C 
DOCKED: ATOM     39  C   UNL d   1      13.151  13.069   5.963 -0.07 +0.00    +0.092 C 
DOCKED: BRANCH  39  40
DOCKED: ATOM     40  C   UNL d   1      14.281  12.199   5.628 -0.03 +0.03    +0.330 C 
DOCKED: ATOM     41  O   UNL d   1      14.552  11.715   4.545 -0.12 -0.03    -0.246 OA
DOCKED: BRANCH  40  42
DOCKED: ATOM     42  O   UNL d   1      15.040  11.989   6.714 +0.00 -0.05    -0.477 OA
DOCKED: ATOM     43  H   UNL d   1      15.740  12.670   6.647 +0.02 +0.03    +0.295 HD
DOCKED: ENDBRANCH  40  42
DOCKED: ENDBRANCH  39  40
DOCKED: ENDBRANCH  27  38
DOCKED: BRANCH   8  44
DOCKED: ATOM     44  C   UNL d   1       6.965  22.820   4.925 -0.10 -0.02    +0.141 C 
DOCKED: BRANCH  44  45
DOCKED: ATOM     45  C   UNL d   1       6.602  23.805   3.846 -0.03 -0.03    +0.306 C 
DOCKED: ATOM     46  O   UNL d   1       6.891  24.989   3.815 -0.01 +0.02    -0.251 OA
DOCKED: BRANCH  45  47
DOCKED: ATOM     47  O   UNL d   1       5.864  23.249   2.869 -0.01 +0.04    -0.481 OA
DOCKED: ATOM     48  H   UNL d   1       6.517  22.810   2.283 +0.03 -0.02    +0.295 HD
DOCKED: ENDBRANCH  45  47
DOCKED: ENDBRANCH  44  45
DOCKED: ENDBRANCH   8  44
DOCKED: BRANCH  22  49
DOCKED: ATOM     49  C   UNL d   1       9.939  14.039   2.294 -0.46 -0.01    +0.048 C 
DOCKED: BRANCH  49  50
DOCKED: ATOM     50  C   UNL d   1      11.426  13.718   2.146 -0.27 -0.03    +0.125 C 
DOCKED: BRANCH  50  51
DOCKED: ATOM     51  C   UNL d   1      11.961  14.239   0.842 -0.19 -0.13    +0.305 C 
DOCKED: ATOM     52  O   UNL d   1      12.692  13.663   0.056 -0.95 +0.08    -0.251 OA
DOCKED: BRANCH  51  53
DOCKED: ATOM     53  O   UNL d   1      11.546  15.497   0.594 -0.14 +0.29    -0.481 OA
DOCKED: ATOM     54  H   UNL d   1      11.477  15.536  -0.383 -0.42 -0.32    +0.295 HD
DOCKED: ENDBRANCH  51  53
DOCKED: ENDBRANCH  50  51
DOCKED: ENDBRANCH  49  50
DOCKED: ENDBRANCH  22  49
DOCKED: TORSDOF 13
DOCKED: TER
DOCKED: ENDMDL
________________________________________________________________________________


	BEGINNING GENETIC ALGORITHM DOCKING 55 of 100
Run: 55 Seed: 957665761 1320210072 [ Run 55 of 100 GA/GALS ]
Beginning LAMARCKIAN GENETIC ALGORITHM (LGA), with a maximum of 25000000 energy evaluations.

Final-Value: -11.624


	FINAL GENETIC ALGORITHM DOCKED STATE
	_______________________________________________


Detailed state:  trans -4.327 -12.582 -13.750 quatxyzw 0.030717 -0.246102 0.943055 0.221671 center 0.153 0.018 -0.028 ntor 13 57.4159 -180.0000 -150.8102 -119.2555 23.2256 31.1395 23.3105 -29.5724 -5.2923 130.1863 60.9990 -92.2376 128.5429
State:	 -4.327 -12.582 -13.750   0.032 -0.252  0.967 154.386     57.42 -180.00 -150.81 -119.26   23.23   31.14   23.31  -29.57   -5.29  130.19   61.00  -92.24  128.54

DOCKED: MODEL       55
DOCKED: USER    Run = 55
DOCKED: USER    DPF = D:/Protein_go_brrr/autodock/final/mut_Y35F/heme/dock.dpf
DOCKED: USER  
DOCKED: USER    Estimated Free Energy of Binding    =   -5.08 kcal/mol  [=(1)+(2)+(3)-(4)]
DOCKED: USER    Estimated Inhibition Constant, Ki   =  187.42 uM (micromolar)  [Temperature = 298.15 K]
DOCKED: USER    
DOCKED: USER    (1) Final Intermolecular Energy     =   -8.96 kcal/mol
DOCKED: USER        vdW + Hbond + desolv Energy     =   -8.72 kcal/mol
DOCKED: USER        Electrostatic Energy            =   -0.24 kcal/mol
DOCKED: USER    (2) Final Total Internal Energy     =   -2.66 kcal/mol
DOCKED: USER    (3) Torsional Free Energy           =   +3.88 kcal/mol
DOCKED: USER    (4) Unbound System's Energy  [=(2)] =   -2.66 kcal/mol
DOCKED: USER    
DOCKED: USER    
DOCKED: USER    NEWDPF move heme_opt.pdbqt
DOCKED: USER    NEWDPF about 0.153000 0.018000 -0.028000
DOCKED: USER    NEWDPF tran0 -4.327488 -12.582494 -13.750023
DOCKED: USER    NEWDPF quaternion0 0.030717 -0.246102 0.943055 0.221671
DOCKED: USER    NEWDPF axisangle0 0.031500 -0.252381 0.967115 154.385644
DOCKED: USER    NEWDPF quat0 0.031500 -0.252381 0.967115 154.385644
DOCKED: USER    NEWDPF dihe0 57.42 -180.00 -150.81 -119.26 23.23 31.14 23.31 -29.57 -5.29 130.19 61.00 -92.24 128.54 
DOCKED: USER  keepresnum = 1 
DOCKED: USER  
DOCKED: REMARK  13 active torsions:
DOCKED: REMARK  status: ('A' for Active; 'I' for Inactive)
DOCKED: REMARK    1  A    between atoms: O_3  and  C_38 
DOCKED: REMARK    2  A    between atoms: O_4  and  C_40 
DOCKED: REMARK    3  A    between atoms: O_7  and  C_46 
DOCKED: REMARK    4  A    between atoms: O_9  and  C_48 
DOCKED: REMARK    5  A    between atoms: C_15  and  C_20 
DOCKED: REMARK    6  A    between atoms: C_16  and  C_23 
DOCKED: REMARK    7  A    between atoms: C_20  and  C_38 
DOCKED: REMARK    8  A    between atoms: C_23  and  C_40 
DOCKED: REMARK    9  A    between atoms: C_32  and  C_41 
DOCKED: REMARK   10  A    between atoms: C_37  and  C_45 
DOCKED: REMARK   11  A    between atoms: C_41  and  C_44 
DOCKED: REMARK   12  A    between atoms: C_44  and  C_46 
DOCKED: REMARK   13  A    between atoms: C_47  and  C_48 
DOCKED: USER                              x       y       z     vdW  Elec       q    Type
DOCKED: USER                           _______ _______ _______ _____ _____    ______ ____
DOCKED: ROOT
DOCKED: ATOM      1  O   UNL d   1       1.510 -11.762 -13.702 -0.36 +0.00    -0.289 OA
DOCKED: ATOM      2  O   UNL d   1      -4.153  -6.937 -12.683 -0.10 +0.00    -0.289 OA
DOCKED: ATOM      3  N   UNL d   1      -1.802 -12.689 -13.958 -0.12 +0.01    -0.247 NA
DOCKED: ATOM      4  N   UNL d   1      -3.263 -10.244 -13.111 -0.14 +0.02    -0.247 NA
DOCKED: ATOM      5  N   UNL d   1      -5.639 -11.848 -12.902 -0.08 +0.04    -0.354 N 
DOCKED: ATOM      6  N   UNL d   1      -4.112 -14.384 -13.763 -0.11 -0.04    -0.354 N 
DOCKED: ATOM      7  C   UNL d   1       0.337 -13.885 -14.007 -0.15 -0.00    +0.084 A 
DOCKED: ATOM      8  C   UNL d   1      -2.129  -8.101 -13.417 -0.18 +0.00    +0.084 A 
DOCKED: ATOM      9  C   UNL d   1      -2.086  -9.632 -13.481 -0.21 -0.00    +0.058 A 
DOCKED: ATOM     10  C   UNL d   1      -1.193 -13.927 -14.073 -0.14 +0.00    +0.058 A 
DOCKED: ATOM     11  C   UNL d   1       0.485 -12.401 -13.854 -0.20 -0.02    +0.193 A 
DOCKED: ATOM     12  C   UNL d   1      -0.880 -11.786 -13.864 -0.22 -0.01    +0.109 A 
DOCKED: ATOM     13  C   UNL d   1      -3.535  -7.960 -12.907 -0.07 -0.00    +0.193 A 
DOCKED: ATOM     14  C   UNL d   1       0.877 -14.569 -12.749 -0.27 -0.00    +0.026 C 
DOCKED: ATOM     15  C   UNL d   1      -0.981 -10.313 -13.818 -0.27 -0.00    +0.055 C 
DOCKED: ATOM     16  C   UNL d   1      -2.045  -7.472 -14.811 -0.07 +0.00    +0.026 C 
DOCKED: ATOM     17  C   UNL d   1      -4.109  -9.331 -12.756 -0.08 -0.00    +0.109 A 
DOCKED: ATOM     18  C   UNL d   1      -1.855 -15.074 -14.314 -0.18 +0.01    +0.050 C 
DOCKED: ATOM     19  C   UNL d   1      -3.258 -15.195 -14.475 -0.20 +0.01    +0.045 A 
DOCKED: ATOM     20  C   UNL d   1      -6.084 -10.691 -12.316 -0.24 -0.01    +0.045 A 
DOCKED: ATOM     21  C   UNL d   1      -5.470  -9.507 -12.228 -0.24 -0.01    +0.057 C 
DOCKED: ATOM     22  C   UNL d   1      -7.684 -12.304 -12.074 -0.32 +0.00    -0.019 A 
DOCKED: ATOM     23  C   UNL d   1      -6.537 -12.878 -12.806 -0.26 -0.01    +0.045 A 
DOCKED: ATOM     24  C   UNL d   1      -7.410 -11.009 -11.789 -0.26 +0.01    -0.022 A 
DOCKED: ATOM     25  C   UNL d   1      -5.421 -14.731 -14.002 -0.22 +0.01    +0.049 A 
DOCKED: ATOM     26  C   UNL d   1      -4.033 -16.068 -15.224 -0.15 -0.01    -0.018 A 
DOCKED: ATOM     27  C   UNL d   1      -5.398 -15.757 -14.937 -0.15 +0.00    +0.003 A 
DOCKED: ATOM     28  C   UNL d   1      -6.480 -14.139 -13.262 -0.29 -0.00    +0.052 C 
DOCKED: ATOM     29  C   UNL d   1      -8.259 -10.011 -11.077 -0.45 -0.02    +0.046 C 
DOCKED: ATOM     30  C   UNL d   1      -3.538 -17.125 -16.152 -0.08 +0.02    +0.046 C 
DOCKED: ATOM     31  H   UNL d   1      -4.765 -11.876 -13.414 +0.06 -0.01    +0.166 HD
DOCKED: ATOM     32  H   UNL d   1      -3.797 -13.663 -13.124 +0.06 +0.01    +0.166 HD
DOCKED: ENDROOT
DOCKED: BRANCH   7  33
DOCKED: ATOM     33  C   UNL d   1       1.062 -14.370 -15.267 -0.04 -0.00    +0.141 C 
DOCKED: BRANCH  33  34
DOCKED: ATOM     34  C   UNL d   1       0.423 -13.867 -16.533 +0.00 +0.00    +0.306 C 
DOCKED: ATOM     35  O   UNL d   1       0.532 -12.746 -16.999 -0.01 -0.00    -0.251 OA
DOCKED: BRANCH  34  36
DOCKED: ATOM     36  O   UNL d   1      -0.318 -14.806 -17.148 +0.01 -0.03    -0.481 OA
DOCKED: ATOM     37  H   UNL d   1       0.043 -14.848 -18.059 +0.01 +0.01    +0.295 HD
DOCKED: ENDBRANCH  34  36
DOCKED: ENDBRANCH  33  34
DOCKED: ENDBRANCH   7  33
DOCKED: BRANCH  27  38
DOCKED: ATOM     38  C   UNL d   1      -6.532 -16.433 -15.490 -0.14 +0.01    +0.017 C 
DOCKED: ATOM     39  C   UNL d   1      -7.511 -17.012 -14.778 -0.12 +0.03    +0.092 C 
DOCKED: BRANCH  39  40
DOCKED: ATOM     40  C   UNL d   1      -8.630 -17.659 -15.469 -0.07 +0.11    +0.330 C 
DOCKED: ATOM     41  O   UNL d   1      -8.623 -18.187 -16.564 -0.05 -0.09    -0.246 OA
DOCKED: BRANCH  40  42
DOCKED: ATOM     42  O   UNL d   1      -9.733 -17.611 -14.706 -0.01 -0.10    -0.477 OA
DOCKED: ATOM     43  H   UNL d   1      -9.439 -17.144 -13.897 +0.07 +0.05    +0.295 HD
DOCKED: ENDBRANCH  40  42
DOCKED: ENDBRANCH  39  40
DOCKED: ENDBRANCH  27  38
DOCKED: BRANCH   8  44
DOCKED: ATOM     44  C   UNL d   1      -1.128  -7.452 -12.456 -0.32 -0.00    +0.141 C 
DOCKED: BRANCH  44  45
DOCKED: ATOM     45  C   UNL d   1       0.259  -7.339 -13.029 -0.20 +0.03    +0.306 C 
DOCKED: ATOM     46  O   UNL d   1       0.720  -7.989 -13.951 -0.21 -0.03    -0.251 OA
DOCKED: BRANCH  45  47
DOCKED: ATOM     47  O   UNL d   1       1.008  -6.423 -12.388 -0.19 -0.11    -0.481 OA
DOCKED: ATOM     48  H   UNL d   1       0.650  -6.405 -11.475 -0.08 -0.02    +0.295 HD
DOCKED: ENDBRANCH  45  47
DOCKED: ENDBRANCH  44  45
DOCKED: ENDBRANCH   8  44
DOCKED: BRANCH  22  49
DOCKED: ATOM     49  C   UNL d   1      -8.923 -13.070 -11.714 -0.35 -0.00    +0.048 C 
DOCKED: BRANCH  49  50
DOCKED: ATOM     50  C   UNL d   1      -8.592 -14.449 -11.142 -0.40 -0.01    +0.125 C 
DOCKED: BRANCH  50  51
DOCKED: ATOM     51  C   UNL d   1      -9.157 -15.538 -12.009 -0.24 +0.02    +0.305 C 
DOCKED: ATOM     52  O   UNL d   1     -10.209 -15.529 -12.624 -0.12 -0.02    -0.251 OA
DOCKED: BRANCH  51  53
DOCKED: ATOM     53  O   UNL d   1      -8.352 -16.619 -12.049 -0.14 -0.04    -0.481 OA
DOCKED: ATOM     54  H   UNL d   1      -8.298 -16.910 -11.115 -0.46 -0.05    +0.295 HD
DOCKED: ENDBRANCH  51  53
DOCKED: ENDBRANCH  50  51
DOCKED: ENDBRANCH  49  50
DOCKED: ENDBRANCH  22  49
DOCKED: TORSDOF 13
DOCKED: TER
DOCKED: ENDMDL
________________________________________________________________________________


	BEGINNING GENETIC ALGORITHM DOCKING 56 of 100
Run: 56 Seed: 683593756 1888277962 [ Run 56 of 100 GA/GALS ]
Beginning LAMARCKIAN GENETIC ALGORITHM (LGA), with a maximum of 25000000 energy evaluations.

Final-Value: -10.587


	FINAL GENETIC ALGORITHM DOCKED STATE
	_______________________________________________


Detailed state:  trans 8.836 10.146 -15.570 quatxyzw -0.055814 -0.081865 0.133652 0.986063 center 0.153 0.018 -0.028 ntor 13 173.3307 -10.0809 -83.1813 114.4385 -150.6815 -172.2370 167.9932 94.6266 13.0595 -104.4704 141.2281 -85.7296 179.5598
State:	  8.836  10.146 -15.570  -0.335 -0.492  0.803 19.154    173.33  -10.08  -83.18  114.44 -150.68 -172.24  167.99   94.63   13.06 -104.47  141.23  -85.73  179.56

DOCKED: MODEL       56
DOCKED: USER    Run = 56
DOCKED: USER    DPF = D:/Protein_go_brrr/autodock/final/mut_Y35F/heme/dock.dpf
DOCKED: USER  
DOCKED: USER    Estimated Free Energy of Binding    =   -4.15 kcal/mol  [=(1)+(2)+(3)-(4)]
DOCKED: USER    Estimated Inhibition Constant, Ki   =  908.99 uM (micromolar)  [Temperature = 298.15 K]
DOCKED: USER    
DOCKED: USER    (1) Final Intermolecular Energy     =   -8.03 kcal/mol
DOCKED: USER        vdW + Hbond + desolv Energy     =   -7.90 kcal/mol
DOCKED: USER        Electrostatic Energy            =   -0.13 kcal/mol
DOCKED: USER    (2) Final Total Internal Energy     =   -2.56 kcal/mol
DOCKED: USER    (3) Torsional Free Energy           =   +3.88 kcal/mol
DOCKED: USER    (4) Unbound System's Energy  [=(2)] =   -2.56 kcal/mol
DOCKED: USER    
DOCKED: USER    
DOCKED: USER    NEWDPF move heme_opt.pdbqt
DOCKED: USER    NEWDPF about 0.153000 0.018000 -0.028000
DOCKED: USER    NEWDPF tran0 8.835636 10.145647 -15.570112
DOCKED: USER    NEWDPF quaternion0 -0.055814 -0.081865 0.133652 0.986063
DOCKED: USER    NEWDPF axisangle0 -0.335478 -0.492055 0.803328 19.153992
DOCKED: USER    NEWDPF quat0 -0.335478 -0.492055 0.803328 19.153992
DOCKED: USER    NEWDPF dihe0 173.33 -10.08 -83.18 114.44 -150.68 -172.24 167.99 94.63 13.06 -104.47 141.23 -85.73 179.56 
DOCKED: USER  keepresnum = 1 
DOCKED: USER  
DOCKED: REMARK  13 active torsions:
DOCKED: REMARK  status: ('A' for Active; 'I' for Inactive)
DOCKED: REMARK    1  A    between atoms: O_3  and  C_38 
DOCKED: REMARK    2  A    between atoms: O_4  and  C_40 
DOCKED: REMARK    3  A    between atoms: O_7  and  C_46 
DOCKED: REMARK    4  A    between atoms: O_9  and  C_48 
DOCKED: REMARK    5  A    between atoms: C_15  and  C_20 
DOCKED: REMARK    6  A    between atoms: C_16  and  C_23 
DOCKED: REMARK    7  A    between atoms: C_20  and  C_38 
DOCKED: REMARK    8  A    between atoms: C_23  and  C_40 
DOCKED: REMARK    9  A    between atoms: C_32  and  C_41 
DOCKED: REMARK   10  A    between atoms: C_37  and  C_45 
DOCKED: REMARK   11  A    between atoms: C_41  and  C_44 
DOCKED: REMARK   12  A    between atoms: C_44  and  C_46 
DOCKED: REMARK   13  A    between atoms: C_47  and  C_48 
DOCKED: USER                              x       y       z     vdW  Elec       q    Type
DOCKED: USER                           _______ _______ _______ _____ _____    ______ ____
DOCKED: ROOT
DOCKED: ATOM      1  O   UNL d   1       4.056  13.106 -13.796 -0.16 -0.01    -0.289 OA
DOCKED: ATOM      2  O   UNL d   1       4.756   6.387 -17.077 -0.08 +0.04    -0.289 OA
DOCKED: ATOM      3  N   UNL d   1       7.098  11.821 -14.792 -0.07 -0.01    -0.247 NA
DOCKED: ATOM      4  N   UNL d   1       6.420   9.067 -15.676 -0.03 +0.02    -0.247 NA
DOCKED: ATOM      5  N   UNL d   1       9.232   8.468 -15.657 -0.04 +0.04    -0.354 N 
DOCKED: ATOM      6  N   UNL d   1       9.925  11.322 -14.722 -0.04 +0.01    -0.354 N 
DOCKED: ATOM      7  C   UNL d   1       6.384  13.809 -13.548 -0.23 +0.00    +0.084 A 
DOCKED: ATOM      8  C   UNL d   1       4.137   8.672 -16.453 -0.15 -0.01    +0.084 A 
DOCKED: ATOM      9  C   UNL d   1       5.167   9.618 -15.826 -0.19 -0.00    +0.058 A 
DOCKED: ATOM     10  C   UNL d   1       7.520  12.963 -14.131 -0.18 +0.00    +0.058 A 
DOCKED: ATOM     11  C   UNL d   1       5.244  12.952 -14.012 -0.20 +0.01    +0.193 A 
DOCKED: ATOM     12  C   UNL d   1       5.805  11.793 -14.776 -0.19 +0.00    +0.109 A 
DOCKED: ATOM     13  C   UNL d   1       5.028   7.470 -16.596 -0.14 -0.03    +0.193 A 
DOCKED: ATOM     14  C   UNL d   1       6.404  13.820 -12.017 -0.30 +0.00    +0.026 C 
DOCKED: ATOM     15  C   UNL d   1       4.858  10.856 -15.413 -0.23 -0.00    +0.055 C 
DOCKED: ATOM     16  C   UNL d   1       3.713   9.139 -17.849 -0.05 -0.00    +0.026 C 
DOCKED: ATOM     17  C   UNL d   1       6.382   7.838 -16.082 -0.21 -0.02    +0.109 A 
DOCKED: ATOM     18  C   UNL d   1       8.802  13.369 -14.069 -0.15 -0.00    +0.050 C 
DOCKED: ATOM     19  C   UNL d   1       9.906  12.697 -14.652 -0.10 -0.00    +0.045 A 
DOCKED: ATOM     20  C   UNL d   1       8.724   7.207 -15.835 -0.21 -0.01    +0.045 A 
DOCKED: ATOM     21  C   UNL d   1       7.458   6.837 -16.056 -0.26 -0.01    +0.057 C 
DOCKED: ATOM     22  C   UNL d   1      10.980   7.055 -15.508 -0.24 +0.00    -0.019 A 
DOCKED: ATOM     23  C   UNL d   1      10.586   8.477 -15.452 -0.16 -0.01    +0.045 A 
DOCKED: ATOM     24  C   UNL d   1       9.873   6.308 -15.736 -0.26 +0.00    -0.022 A 
DOCKED: ATOM     25  C   UNL d   1      11.122  10.881 -15.238 -0.09 -0.00    +0.049 A 
DOCKED: ATOM     26  C   UNL d   1      11.105  13.162 -15.170 -0.04 +0.00    -0.018 A 
DOCKED: ATOM     27  C   UNL d   1      11.861  12.012 -15.556 -0.04 -0.00    +0.003 A 
DOCKED: ATOM     28  C   UNL d   1      11.439   9.495 -15.261 -0.15 -0.01    +0.052 C 
DOCKED: ATOM     29  C   UNL d   1       9.760   4.829 -15.884 -0.23 -0.00    +0.046 C 
DOCKED: ATOM     30  C   UNL d   1      11.525  14.587 -15.301 -0.01 -0.00    +0.046 C 
DOCKED: ATOM     31  H   UNL d   1       8.646   9.290 -15.756 +0.04 -0.01    +0.166 HD
DOCKED: ATOM     32  H   UNL d   1       9.168  10.734 -14.394 +0.08 +0.01    +0.166 HD
DOCKED: ENDROOT
DOCKED: BRANCH   7  33
DOCKED: ATOM     33  C   UNL d   1       6.260  15.225 -14.119 -0.07 +0.00    +0.141 C 
DOCKED: BRANCH  33  34
DOCKED: ATOM     34  C   UNL d   1       5.996  15.232 -15.600 -0.01 -0.01    +0.306 C 
DOCKED: ATOM     35  O   UNL d   1       6.830  15.361 -16.480 -0.01 +0.01    -0.251 OA
DOCKED: BRANCH  34  36
DOCKED: ATOM     36  O   UNL d   1       4.693  15.071 -15.895 +0.01 +0.01    -0.481 OA
DOCKED: ATOM     37  H   UNL d   1       4.273  14.841 -15.040 +0.05 -0.00    +0.295 HD
DOCKED: ENDBRANCH  34  36
DOCKED: ENDBRANCH  33  34
DOCKED: ENDBRANCH   7  33
DOCKED: BRANCH  27  38
DOCKED: ATOM     38  C   UNL d   1      13.174  12.040 -16.126 -0.03 -0.00    +0.017 C 
DOCKED: ATOM     39  C   UNL d   1      14.214  11.300 -15.711 -0.07 -0.02    +0.092 C 
DOCKED: BRANCH  39  40
DOCKED: ATOM     40  C   UNL d   1      15.506  11.411 -16.394 -0.04 -0.05    +0.330 C 
DOCKED: ATOM     41  O   UNL d   1      16.507  10.746 -16.203 -0.10 +0.05    -0.246 OA
DOCKED: BRANCH  40  42
DOCKED: ATOM     42  O   UNL d   1      15.458  12.382 -17.318 +0.00 +0.05    -0.477 OA
DOCKED: ATOM     43  H   UNL d   1      16.392  12.491 -17.593 +0.01 -0.03    +0.295 HD
DOCKED: ENDBRANCH  40  42
DOCKED: ENDBRANCH  39  40
DOCKED: ENDBRANCH  27  38
DOCKED: BRANCH   8  44
DOCKED: ATOM     44  C   UNL d   1       2.918   8.351 -15.582 -0.22 -0.03    +0.141 C 
DOCKED: BRANCH  44  45
DOCKED: ATOM     45  C   UNL d   1       2.284   7.027 -15.913 -0.14 -0.05    +0.306 C 
DOCKED: ATOM     46  O   UNL d   1       2.087   6.103 -15.142 -0.23 +0.05    -0.251 OA
DOCKED: BRANCH  45  47
DOCKED: ATOM     47  O   UNL d   1       1.953   6.925 -17.212 -0.01 +0.04    -0.481 OA
DOCKED: ATOM     48  H   UNL d   1       2.708   6.454 -17.625 +0.05 -0.02    +0.295 HD
DOCKED: ENDBRANCH  45  47
DOCKED: ENDBRANCH  44  45
DOCKED: ENDBRANCH   8  44
DOCKED: BRANCH  22  49
DOCKED: ATOM     49  C   UNL d   1      12.384   6.561 -15.320 -0.34 -0.01    +0.048 C 
DOCKED: BRANCH  49  50
DOCKED: ATOM     50  C   UNL d   1      12.643   6.117 -13.881 -0.45 -0.02    +0.125 C 
DOCKED: BRANCH  50  51
DOCKED: ATOM     51  C   UNL d   1      11.947   7.023 -12.906 -0.37 -0.05    +0.305 C 
DOCKED: ATOM     52  O   UNL d   1      10.810   6.921 -12.478 -0.50 +0.04    -0.251 OA
DOCKED: BRANCH  51  53
DOCKED: ATOM     53  O   UNL d   1      12.734   8.046 -12.518 -0.76 +0.10    -0.481 OA
DOCKED: ATOM     54  H   UNL d   1      13.456   7.614 -12.016 -0.36 -0.18    +0.295 HD
DOCKED: ENDBRANCH  51  53
DOCKED: ENDBRANCH  50  51
DOCKED: ENDBRANCH  49  50
DOCKED: ENDBRANCH  22  49
DOCKED: TORSDOF 13
DOCKED: TER
DOCKED: ENDMDL
________________________________________________________________________________


	BEGINNING GENETIC ALGORITHM DOCKING 57 of 100
Run: 57 Seed: 1642096683 757897606 [ Run 57 of 100 GA/GALS ]
Beginning LAMARCKIAN GENETIC ALGORITHM (LGA), with a maximum of 25000000 energy evaluations.

Final-Value: -12.197


	FINAL GENETIC ALGORITHM DOCKED STATE
	_______________________________________________


Detailed state:  trans 8.105 7.187 5.920 quatxyzw -0.754605 -0.034682 -0.356998 0.549474 center 0.153 0.018 -0.028 ntor 13 99.2119 -11.5793 158.0373 120.1806 -136.5723 -121.9754 -55.3394 119.5907 54.8916 -156.4439 71.4934 0.4922 -41.4323
State:	  8.105   7.187   5.920  -0.903 -0.042 -0.427 113.338     99.21  -11.58  158.04  120.18 -136.57 -121.98  -55.34  119.59   54.89 -156.44   71.49    0.49  -41.43

DOCKED: MODEL       57
DOCKED: USER    Run = 57
DOCKED: USER    DPF = D:/Protein_go_brrr/autodock/final/mut_Y35F/heme/dock.dpf
DOCKED: USER  
DOCKED: USER    Estimated Free Energy of Binding    =   -6.05 kcal/mol  [=(1)+(2)+(3)-(4)]
DOCKED: USER    Estimated Inhibition Constant, Ki   =   36.94 uM (micromolar)  [Temperature = 298.15 K]
DOCKED: USER    
DOCKED: USER    (1) Final Intermolecular Energy     =   -9.92 kcal/mol
DOCKED: USER        vdW + Hbond + desolv Energy     =   -9.76 kcal/mol
DOCKED: USER        Electrostatic Energy            =   -0.17 kcal/mol
DOCKED: USER    (2) Final Total Internal Energy     =   -2.27 kcal/mol
DOCKED: USER    (3) Torsional Free Energy           =   +3.88 kcal/mol
DOCKED: USER    (4) Unbound System's Energy  [=(2)] =   -2.27 kcal/mol
DOCKED: USER    
DOCKED: USER    
DOCKED: USER    NEWDPF move heme_opt.pdbqt
DOCKED: USER    NEWDPF about 0.153000 0.018000 -0.028000
DOCKED: USER    NEWDPF tran0 8.105211 7.187286 5.919665
DOCKED: USER    NEWDPF quaternion0 -0.754605 -0.034682 -0.356998 0.549474
DOCKED: USER    NEWDPF axisangle0 -0.903165 -0.041509 -0.427281 113.338131
DOCKED: USER    NEWDPF quat0 -0.903165 -0.041509 -0.427281 113.338131
DOCKED: USER    NEWDPF dihe0 99.21 -11.58 158.04 120.18 -136.57 -121.98 -55.34 119.59 54.89 -156.44 71.49 0.49 -41.43 
DOCKED: USER  keepresnum = 1 
DOCKED: USER  
DOCKED: REMARK  13 active torsions:
DOCKED: REMARK  status: ('A' for Active; 'I' for Inactive)
DOCKED: REMARK    1  A    between atoms: O_3  and  C_38 
DOCKED: REMARK    2  A    between atoms: O_4  and  C_40 
DOCKED: REMARK    3  A    between atoms: O_7  and  C_46 
DOCKED: REMARK    4  A    between atoms: O_9  and  C_48 
DOCKED: REMARK    5  A    between atoms: C_15  and  C_20 
DOCKED: REMARK    6  A    between atoms: C_16  and  C_23 
DOCKED: REMARK    7  A    between atoms: C_20  and  C_38 
DOCKED: REMARK    8  A    between atoms: C_23  and  C_40 
DOCKED: REMARK    9  A    between atoms: C_32  and  C_41 
DOCKED: REMARK   10  A    between atoms: C_37  and  C_45 
DOCKED: REMARK   11  A    between atoms: C_41  and  C_44 
DOCKED: REMARK   12  A    between atoms: C_44  and  C_46 
DOCKED: REMARK   13  A    between atoms: C_47  and  C_48 
DOCKED: USER                              x       y       z     vdW  Elec       q    Type
DOCKED: USER                           _______ _______ _______ _____ _____    ______ ____
DOCKED: ROOT
DOCKED: ATOM      1  O   UNL d   1       3.738   3.506   4.461 -0.23 -0.02    -0.289 OA
DOCKED: ATOM      2  O   UNL d   1       6.868   9.184   0.674 -0.25 -0.02    -0.289 OA
DOCKED: ATOM      3  N   UNL d   1       6.217   5.499   5.794 -0.27 -0.07    -0.247 NA
DOCKED: ATOM      4  N   UNL d   1       7.014   7.220   3.507 -0.56 -0.07    -0.247 NA
DOCKED: ATOM      5  N   UNL d   1       9.338   7.989   5.015 -0.11 -0.06    -0.354 N 
DOCKED: ATOM      6  N   UNL d   1       8.514   6.186   7.376 -0.15 -0.27    -0.354 N 
DOCKED: ATOM      7  C   UNL d   1       5.048   3.472   6.525 -0.40 +0.01    +0.084 A 
DOCKED: ATOM      8  C   UNL d   1       5.339   7.622   1.774 -0.39 +0.01    +0.084 A 
DOCKED: ATOM      9  C   UNL d   1       5.753   6.896   3.059 -0.15 +0.02    +0.058 A 
DOCKED: ATOM     10  C   UNL d   1       6.104   4.547   6.795 -0.37 +0.02    +0.058 A 
DOCKED: ATOM     11  C   UNL d   1       4.570   3.994   5.203 -0.21 +0.03    +0.193 A 
DOCKED: ATOM     12  C   UNL d   1       5.338   5.239   4.882 -0.19 +0.03    +0.109 A 
DOCKED: ATOM     13  C   UNL d   1       6.613   8.388   1.556 -0.04 +0.01    +0.193 A 
DOCKED: ATOM     14  C   UNL d   1       5.674   2.091   6.314 +0.07 +0.00    +0.026 C 
DOCKED: ATOM     15  C   UNL d   1       4.972   5.987   3.662 +0.09 +0.01    +0.055 C 
DOCKED: ATOM     16  C   UNL d   1       4.202   8.617   2.025 -0.38 +0.00    +0.026 C 
DOCKED: ATOM     17  C   UNL d   1       7.548   8.051   2.671 -0.31 +0.01    +0.109 A 
DOCKED: ATOM     18  C   UNL d   1       6.784   4.589   7.956 -0.37 +0.03    +0.050 C 
DOCKED: ATOM     19  C   UNL d   1       7.717   5.591   8.327 -0.28 +0.04    +0.045 A 
DOCKED: ATOM     20  C   UNL d   1       9.656   8.533   3.798 -0.37 +0.00    +0.045 A 
DOCKED: ATOM     21  C   UNL d   1       8.902   8.625   2.698 -0.31 -0.00    +0.057 C 
DOCKED: ATOM     22  C   UNL d   1      11.453   8.742   5.193 -0.20 -0.00    -0.019 A 
DOCKED: ATOM     23  C   UNL d   1      10.360   8.068   5.923 -0.21 +0.01    +0.045 A 
DOCKED: ATOM     24  C   UNL d   1      11.029   9.016   3.936 -0.33 -0.00    -0.022 A 
DOCKED: ATOM     25  C   UNL d   1       9.401   7.057   7.964 -0.23 +0.04    +0.049 A 
DOCKED: ATOM     26  C   UNL d   1       8.069   6.116   9.561 -0.15 -0.02    -0.018 A 
DOCKED: ATOM     27  C   UNL d   1       9.120   7.055   9.323 -0.13 +0.00    +0.003 A 
DOCKED: ATOM     28  C   UNL d   1      10.431   7.673   7.203 -0.21 +0.03    +0.052 C 
DOCKED: ATOM     29  C   UNL d   1      11.764   9.696   2.832 -0.19 -0.01    +0.046 C 
DOCKED: ATOM     30  C   UNL d   1       7.468   5.770  10.881 -0.15 +0.04    +0.046 C 
DOCKED: ATOM     31  H   UNL d   1       8.403   7.646   5.210 +0.08 +0.03    +0.166 HD
DOCKED: ATOM     32  H   UNL d   1       8.465   5.966   6.388 +0.08 +0.09    +0.166 HD
DOCKED: ENDROOT
DOCKED: BRANCH   7  33
DOCKED: ATOM     33  C   UNL d   1       3.893   3.418   7.531 -0.02 +0.02    +0.141 C 
DOCKED: BRANCH  33  34
DOCKED: ATOM     34  C   UNL d   1       2.633   4.047   7.000 -0.20 +0.02    +0.306 C 
DOCKED: ATOM     35  O   UNL d   1       2.367   5.237   6.998 -0.38 -0.01    -0.251 OA
DOCKED: BRANCH  34  36
DOCKED: ATOM     36  O   UNL d   1       1.774   3.142   6.497 -0.18 -0.01    -0.481 OA
DOCKED: ATOM     37  H   UNL d   1       2.089   2.985   5.582 +0.23 +0.01    +0.295 HD
DOCKED: ENDBRANCH  34  36
DOCKED: ENDBRANCH  33  34
DOCKED: ENDBRANCH   7  33
DOCKED: BRANCH  27  38
DOCKED: ATOM     38  C   UNL d   1       9.789   7.818  10.334 -0.06 +0.01    +0.017 C 
DOCKED: ATOM     39  C   UNL d   1      10.202   9.087  10.200 -0.12 +0.04    +0.092 C 
DOCKED: BRANCH  39  40
DOCKED: ATOM     40  C   UNL d   1      10.862   9.763  11.320 -0.07 +0.12    +0.330 C 
DOCKED: ATOM     41  O   UNL d   1      10.540  10.808  11.852 -0.12 -0.11    -0.246 OA
DOCKED: BRANCH  40  42
DOCKED: ATOM     42  O   UNL d   1      11.924   9.051  11.727 +0.00 -0.17    -0.477 OA
DOCKED: ATOM     43  H   UNL d   1      12.398   9.660  12.330 +0.03 +0.09    +0.295 HD
DOCKED: ENDBRANCH  40  42
DOCKED: ENDBRANCH  39  40
DOCKED: ENDBRANCH  27  38
DOCKED: BRANCH   8  44
DOCKED: ATOM     44  C   UNL d   1       5.030   6.719   0.576 -0.39 +0.01    +0.141 C 
DOCKED: BRANCH  44  45
DOCKED: ATOM     45  C   UNL d   1       4.075   7.341  -0.408 -0.33 +0.02    +0.306 C 
DOCKED: ATOM     46  O   UNL d   1       2.878   7.127  -0.494 -0.44 -0.01    -0.251 OA
DOCKED: BRANCH  45  47
DOCKED: ATOM     47  O   UNL d   1       4.688   8.187  -1.255 -0.17 -0.04    -0.481 OA
DOCKED: ATOM     48  H   UNL d   1       5.507   8.457  -0.787 +0.26 +0.02    +0.295 HD
DOCKED: ENDBRANCH  45  47
DOCKED: ENDBRANCH  44  45
DOCKED: ENDBRANCH   8  44
DOCKED: BRANCH  22  49
DOCKED: ATOM     49  C   UNL d   1      12.801   9.040   5.781 -0.12 +0.01    +0.048 C 
DOCKED: BRANCH  49  50
DOCKED: ATOM     50  C   UNL d   1      13.154  10.523   5.673 -0.09 +0.01    +0.125 C 
DOCKED: BRANCH  50  51
DOCKED: ATOM     51  C   UNL d   1      14.218  10.747   4.638 -0.06 +0.05    +0.305 C 
DOCKED: ATOM     52  O   UNL d   1      14.111  11.338   3.577 -0.16 -0.02    -0.251 OA
DOCKED: BRANCH  51  53
DOCKED: ATOM     53  O   UNL d   1      15.394  10.191   4.994 -0.56 -0.21    -0.481 OA
DOCKED: ATOM     54  H   UNL d   1      15.624  10.640   5.834 +0.04 +0.07    +0.295 HD
DOCKED: ENDBRANCH  51  53
DOCKED: ENDBRANCH  50  51
DOCKED: ENDBRANCH  49  50
DOCKED: ENDBRANCH  22  49
DOCKED: TORSDOF 13
DOCKED: TER
DOCKED: ENDMDL
________________________________________________________________________________


	BEGINNING GENETIC ALGORITHM DOCKING 58 of 100
Run: 58 Seed: 1999207939 1608218733 [ Run 58 of 100 GA/GALS ]
Beginning LAMARCKIAN GENETIC ALGORITHM (LGA), with a maximum of 25000000 energy evaluations.

Final-Value: -11.622


	FINAL GENETIC ALGORITHM DOCKED STATE
	_______________________________________________


Detailed state:  trans 16.521 12.081 -11.770 quatxyzw 0.268952 -0.631944 0.577164 -0.441806 center 0.153 0.018 -0.028 ntor 13 131.9149 111.6849 -107.2277 -48.8519 -134.5099 113.3578 128.5970 40.4260 22.0209 -36.4358 -83.2403 -100.6978 1.7443
State:	 16.521  12.081 -11.770   0.300 -0.704  0.643 -127.562    131.91  111.68 -107.23  -48.85 -134.51  113.36  128.60   40.43   22.02  -36.44  -83.24 -100.70    1.74

DOCKED: MODEL       58
DOCKED: USER    Run = 58
DOCKED: USER    DPF = D:/Protein_go_brrr/autodock/final/mut_Y35F/heme/dock.dpf
DOCKED: USER  
DOCKED: USER    Estimated Free Energy of Binding    =   -2.87 kcal/mol  [=(1)+(2)+(3)-(4)]
DOCKED: USER    Estimated Inhibition Constant, Ki   =    7.91 mM (millimolar)  [Temperature = 298.15 K]
DOCKED: USER    
DOCKED: USER    (1) Final Intermolecular Energy     =   -6.75 kcal/mol
DOCKED: USER        vdW + Hbond + desolv Energy     =   -6.71 kcal/mol
DOCKED: USER        Electrostatic Energy            =   -0.04 kcal/mol
DOCKED: USER    (2) Final Total Internal Energy     =   -4.88 kcal/mol
DOCKED: USER    (3) Torsional Free Energy           =   +3.88 kcal/mol
DOCKED: USER    (4) Unbound System's Energy  [=(2)] =   -4.88 kcal/mol
DOCKED: USER    
DOCKED: USER    
DOCKED: USER    NEWDPF move heme_opt.pdbqt
DOCKED: USER    NEWDPF about 0.153000 0.018000 -0.028000
DOCKED: USER    NEWDPF tran0 16.521154 12.081007 -11.770323
DOCKED: USER    NEWDPF quaternion0 0.268952 -0.631944 0.577164 -0.441806
DOCKED: USER    NEWDPF axisangle0 0.299798 -0.704422 0.643359 -127.561663
DOCKED: USER    NEWDPF quat0 0.299798 -0.704422 0.643359 -127.561663
DOCKED: USER    NEWDPF dihe0 131.91 111.68 -107.23 -48.85 -134.51 113.36 128.60 40.43 22.02 -36.44 -83.24 -100.70 1.74 
DOCKED: USER  keepresnum = 1 
DOCKED: USER  
DOCKED: REMARK  13 active torsions:
DOCKED: REMARK  status: ('A' for Active; 'I' for Inactive)
DOCKED: REMARK    1  A    between atoms: O_3  and  C_38 
DOCKED: REMARK    2  A    between atoms: O_4  and  C_40 
DOCKED: REMARK    3  A    between atoms: O_7  and  C_46 
DOCKED: REMARK    4  A    between atoms: O_9  and  C_48 
DOCKED: REMARK    5  A    between atoms: C_15  and  C_20 
DOCKED: REMARK    6  A    between atoms: C_16  and  C_23 
DOCKED: REMARK    7  A    between atoms: C_20  and  C_38 
DOCKED: REMARK    8  A    between atoms: C_23  and  C_40 
DOCKED: REMARK    9  A    between atoms: C_32  and  C_41 
DOCKED: REMARK   10  A    between atoms: C_37  and  C_45 
DOCKED: REMARK   11  A    between atoms: C_41  and  C_44 
DOCKED: REMARK   12  A    between atoms: C_44  and  C_46 
DOCKED: REMARK   13  A    between atoms: C_47  and  C_48 
DOCKED: USER                              x       y       z     vdW  Elec       q    Type
DOCKED: USER                           _______ _______ _______ _____ _____    ______ ____
DOCKED: ROOT
DOCKED: ATOM      1  O   UNL d   1      17.534  10.819 -17.439 -0.03 +0.04    -0.289 OA
DOCKED: ATOM      2  O   UNL d   1      22.267  12.240 -11.785 -0.01 +0.06    -0.289 OA
DOCKED: ATOM      3  N   UNL d   1      16.460  11.653 -14.270 -0.09 +0.03    -0.247 NA
DOCKED: ATOM      4  N   UNL d   1      18.978  11.723 -12.692 +0.09 +0.04    -0.247 NA
DOCKED: ATOM      5  N   UNL d   1      17.373  11.748 -10.307 -0.10 +0.09    -0.354 N 
DOCKED: ATOM      6  N   UNL d   1      14.767  11.656 -11.950 -0.10 +0.09    -0.354 N 
DOCKED: ATOM      7  C   UNL d   1      15.356  10.934 -16.336 -0.08 -0.02    +0.084 A 
DOCKED: ATOM      8  C   UNL d   1      21.044  12.203 -13.905 -0.03 -0.01    +0.084 A 
DOCKED: ATOM      9  C   UNL d   1      19.537  11.925 -13.934 -0.07 -0.01    +0.058 A 
DOCKED: ATOM     10  C   UNL d   1      15.248  11.351 -14.866 -0.11 -0.01    +0.058 A 
DOCKED: ATOM     11  C   UNL d   1      16.843  11.071 -16.469 -0.07 -0.03    +0.193 A 
DOCKED: ATOM     12  C   UNL d   1      17.393  11.538 -15.158 -0.10 -0.01    +0.109 A 
DOCKED: ATOM     13  C   UNL d   1      21.242  12.085 -12.420 -0.03 -0.04    +0.193 A 
DOCKED: ATOM     14  C   UNL d   1      14.973   9.466 -16.546 -0.06 -0.01    +0.026 C 
DOCKED: ATOM     15  C   UNL d   1      18.838  11.834 -15.076 -0.08 -0.01    +0.055 C 
DOCKED: ATOM     16  C   UNL d   1      21.365  13.638 -14.332 -0.01 -0.00    +0.026 C 
DOCKED: ATOM     17  C   UNL d   1      19.915  11.785 -11.802 -0.08 -0.03    +0.109 A 
DOCKED: ATOM     18  C   UNL d   1      14.053  11.491 -14.261 -0.12 -0.01    +0.050 C 
DOCKED: ATOM     19  C   UNL d   1      13.852  11.953 -12.935 -0.12 -0.01    +0.045 A 
DOCKED: ATOM     20  C   UNL d   1      18.612  11.547  -9.755 -0.23 -0.01    +0.045 A 
DOCKED: ATOM     21  C   UNL d   1      19.808  11.572 -10.351 -0.19 -0.02    +0.057 C 
DOCKED: ATOM     22  C   UNL d   1      17.034  11.354  -8.115 -0.33 +0.01    -0.019 A 
DOCKED: ATOM     23  C   UNL d   1      16.357  11.650  -9.394 -0.26 -0.01    +0.045 A 
DOCKED: ATOM     24  C   UNL d   1      18.369  11.296  -8.335 -0.30 +0.01    -0.022 A 
DOCKED: ATOM     25  C   UNL d   1      14.332  12.120 -10.731 -0.17 -0.02    +0.049 A 
DOCKED: ATOM     26  C   UNL d   1      12.814  12.659 -12.348 -0.12 +0.00    -0.018 A 
DOCKED: ATOM     27  C   UNL d   1      13.132  12.779 -10.960 -0.16 -0.00    +0.003 A 
DOCKED: ATOM     28  C   UNL d   1      15.031  11.798  -9.536 -0.27 -0.02    +0.052 C 
DOCKED: ATOM     29  C   UNL d   1      19.465  11.038  -7.359 -0.15 -0.02    +0.046 C 
DOCKED: ATOM     30  C   UNL d   1      11.602  13.194 -13.032 -0.11 -0.00    +0.046 C 
DOCKED: ATOM     31  H   UNL d   1      17.267  12.019 -11.278 +0.04 -0.03    +0.166 HD
DOCKED: ATOM     32  H   UNL d   1      15.617  11.130 -12.115 +0.05 -0.03    +0.166 HD
DOCKED: ENDROOT
DOCKED: BRANCH   7  33
DOCKED: ATOM     33  C   UNL d   1      14.639  11.850 -17.334 -0.02 -0.02    +0.141 C 
DOCKED: BRANCH  33  34
DOCKED: ATOM     34  C   UNL d   1      15.307  13.191 -17.471 -0.00 -0.03    +0.306 C 
DOCKED: ATOM     35  O   UNL d   1      15.188  14.136 -16.709 -0.00 +0.02    -0.251 OA
DOCKED: BRANCH  34  36
DOCKED: ATOM     36  O   UNL d   1      16.092  13.271 -18.560 +0.00 +0.04    -0.481 OA
DOCKED: ATOM     37  H   UNL d   1      16.663  12.475 -18.511 +0.01 -0.03    +0.295 HD
DOCKED: ENDBRANCH  34  36
DOCKED: ENDBRANCH  33  34
DOCKED: ENDBRANCH   7  33
DOCKED: BRANCH  27  38
DOCKED: ATOM     38  C   UNL d   1      12.315  13.429  -9.979 -0.24 -0.00    +0.017 C 
DOCKED: ATOM     39  C   UNL d   1      11.735  12.824  -8.931 -0.29 -0.02    +0.092 C 
DOCKED: BRANCH  39  40
DOCKED: ATOM     40  C   UNL d   1      10.934  13.609  -7.987 -0.27 -0.04    +0.330 C 
DOCKED: ATOM     41  O   UNL d   1       9.731  13.564  -7.817 -0.58 +0.01    -0.246 OA
DOCKED: BRANCH  40  42
DOCKED: ATOM     42  O   UNL d   1      11.727  14.428  -7.280 -0.13 +0.08    -0.477 OA
DOCKED: ATOM     43  H   UNL d   1      12.249  13.821  -6.717 +0.16 -0.07    +0.295 HD
DOCKED: ENDBRANCH  40  42
DOCKED: ENDBRANCH  39  40
DOCKED: ENDBRANCH  27  38
DOCKED: BRANCH   8  44
DOCKED: ATOM     44  C   UNL d   1      21.917  11.193 -14.657 -0.03 -0.02    +0.141 C 
DOCKED: BRANCH  44  45
DOCKED: ATOM     45  C   UNL d   1      22.295   9.998 -13.823 -0.05 -0.08    +0.306 C 
DOCKED: ATOM     46  O   UNL d   1      21.630   8.991 -13.651 -0.68 +0.06    -0.251 OA
DOCKED: BRANCH  45  47
DOCKED: ATOM     47  O   UNL d   1      23.490  10.147 -13.223 +0.00 +0.13    -0.481 OA
DOCKED: ATOM     48  H   UNL d   1      23.333  10.811 -12.519 +0.03 -0.08    +0.295 HD
DOCKED: ENDBRANCH  45  47
DOCKED: ENDBRANCH  44  45
DOCKED: ENDBRANCH   8  44
DOCKED: BRANCH  22  49
DOCKED: ATOM     49  C   UNL d   1      16.319  11.143  -6.813 -0.43 -0.02    +0.048 C 
DOCKED: BRANCH  49  50
DOCKED: ATOM     50  C   UNL d   1      15.958  12.468  -6.141 -0.30 -0.04    +0.125 C 
DOCKED: BRANCH  50  51
DOCKED: ATOM     51  C   UNL d   1      14.534  12.847  -6.432 -0.23 -0.09    +0.305 C 
DOCKED: ATOM     52  O   UNL d   1      13.580  12.102  -6.569 -0.34 +0.06    -0.251 OA
DOCKED: BRANCH  51  53
DOCKED: ATOM     53  O   UNL d   1      14.382  14.181  -6.552 -0.06 +0.16    -0.481 OA
DOCKED: ATOM     54  H   UNL d   1      13.881  14.289  -7.388 +0.12 -0.08    +0.295 HD
DOCKED: ENDBRANCH  51  53
DOCKED: ENDBRANCH  50  51
DOCKED: ENDBRANCH  49  50
DOCKED: ENDBRANCH  22  49
DOCKED: TORSDOF 13
DOCKED: TER
DOCKED: ENDMDL
________________________________________________________________________________


	BEGINNING GENETIC ALGORITHM DOCKING 59 of 100
Run: 59 Seed: 431838533 316814053 [ Run 59 of 100 GA/GALS ]
Beginning LAMARCKIAN GENETIC ALGORITHM (LGA), with a maximum of 25000000 energy evaluations.

Final-Value: -10.147


	FINAL GENETIC ALGORITHM DOCKED STATE
	_______________________________________________


Detailed state:  trans -0.235 13.247 -11.875 quatxyzw -0.359539 0.298446 -0.823298 0.322245 center 0.153 0.018 -0.028 ntor 13 111.4451 -139.0362 -145.9545 130.9987 179.2297 -9.6682 129.5554 142.4753 -20.7080 -12.6935 72.0789 -152.2916 175.8282
State:	 -0.235  13.247 -11.875  -0.380  0.315 -0.870 142.403    111.45 -139.04 -145.95  131.00  179.23   -9.67  129.56  142.48  -20.71  -12.69   72.08 -152.29  175.83

DOCKED: MODEL       59
DOCKED: USER    Run = 59
DOCKED: USER    DPF = D:/Protein_go_brrr/autodock/final/mut_Y35F/heme/dock.dpf
DOCKED: USER  
DOCKED: USER    Estimated Free Energy of Binding    =   -3.83 kcal/mol  [=(1)+(2)+(3)-(4)]
DOCKED: USER    Estimated Inhibition Constant, Ki   =    1.55 mM (millimolar)  [Temperature = 298.15 K]
DOCKED: USER    
DOCKED: USER    (1) Final Intermolecular Energy     =   -7.71 kcal/mol
DOCKED: USER        vdW + Hbond + desolv Energy     =   -7.12 kcal/mol
DOCKED: USER        Electrostatic Energy            =   -0.59 kcal/mol
DOCKED: USER    (2) Final Total Internal Energy     =   -2.44 kcal/mol
DOCKED: USER    (3) Torsional Free Energy           =   +3.88 kcal/mol
DOCKED: USER    (4) Unbound System's Energy  [=(2)] =   -2.44 kcal/mol
DOCKED: USER    
DOCKED: USER    
DOCKED: USER    NEWDPF move heme_opt.pdbqt
DOCKED: USER    NEWDPF about 0.153000 0.018000 -0.028000
DOCKED: USER    NEWDPF tran0 -0.235009 13.246834 -11.874544
DOCKED: USER    NEWDPF quaternion0 -0.359539 0.298446 -0.823298 0.322245
DOCKED: USER    NEWDPF axisangle0 -0.379798 0.315263 -0.869691 142.402527
DOCKED: USER    NEWDPF quat0 -0.379798 0.315263 -0.869691 142.402527
DOCKED: USER    NEWDPF dihe0 111.45 -139.04 -145.95 131.00 179.23 -9.67 129.56 142.48 -20.71 -12.69 72.08 -152.29 175.83 
DOCKED: USER  keepresnum = 1 
DOCKED: USER  
DOCKED: REMARK  13 active torsions:
DOCKED: REMARK  status: ('A' for Active; 'I' for Inactive)
DOCKED: REMARK    1  A    between atoms: O_3  and  C_38 
DOCKED: REMARK    2  A    between atoms: O_4  and  C_40 
DOCKED: REMARK    3  A    between atoms: O_7  and  C_46 
DOCKED: REMARK    4  A    between atoms: O_9  and  C_48 
DOCKED: REMARK    5  A    between atoms: C_15  and  C_20 
DOCKED: REMARK    6  A    between atoms: C_16  and  C_23 
DOCKED: REMARK    7  A    between atoms: C_20  and  C_38 
DOCKED: REMARK    8  A    between atoms: C_23  and  C_40 
DOCKED: REMARK    9  A    between atoms: C_32  and  C_41 
DOCKED: REMARK   10  A    between atoms: C_37  and  C_45 
DOCKED: REMARK   11  A    between atoms: C_41  and  C_44 
DOCKED: REMARK   12  A    between atoms: C_44  and  C_46 
DOCKED: REMARK   13  A    between atoms: C_47  and  C_48 
DOCKED: USER                              x       y       z     vdW  Elec       q    Type
DOCKED: USER                           _______ _______ _______ _____ _____    ______ ____
DOCKED: ROOT
DOCKED: ATOM      1  O   UNL d   1       1.760   9.968 -16.349 -0.05 +0.02    -0.289 OA
DOCKED: ATOM      2  O   UNL d   1       4.163  16.525 -13.590 -0.03 -0.00    -0.289 OA
DOCKED: ATOM      3  N   UNL d   1       0.168  11.602 -13.763 -0.07 +0.01    -0.247 NA
DOCKED: ATOM      4  N   UNL d   1       1.977  13.887 -13.182 -0.10 +0.00    -0.247 NA
DOCKED: ATOM      5  N   UNL d   1       0.528  14.291 -10.731 -0.16 +0.02    -0.354 N 
DOCKED: ATOM      6  N   UNL d   1      -1.331  11.907 -11.332 +0.04 +0.03    -0.354 N 
DOCKED: ATOM      7  C   UNL d   1      -0.097   9.424 -14.856 -0.16 -0.01    +0.084 A 
DOCKED: ATOM      8  C   UNL d   1       3.388  14.688 -15.009 -0.06 -0.00    +0.084 A 
DOCKED: ATOM      9  C   UNL d   1       2.383  13.660 -14.478 -0.13 -0.00    +0.058 A 
DOCKED: ATOM     10  C   UNL d   1      -0.549  10.418 -13.782 -0.16 -0.00    +0.058 A 
DOCKED: ATOM     11  C   UNL d   1       0.992  10.264 -15.453 -0.10 -0.01    +0.193 A 
DOCKED: ATOM     12  C   UNL d   1       1.036  11.570 -14.721 -0.11 -0.00    +0.109 A 
DOCKED: ATOM     13  C   UNL d   1       3.505  15.518 -13.762 -0.07 -0.00    +0.193 A 
DOCKED: ATOM     14  C   UNL d   1       0.526   8.165 -14.248 -0.33 -0.00    +0.026 C 
DOCKED: ATOM     15  C   UNL d   1       1.977  12.603 -15.198 -0.13 -0.00    +0.055 C 
DOCKED: ATOM     16  C   UNL d   1       2.783  15.551 -16.120 -0.02 -0.00    +0.026 C 
DOCKED: ATOM     17  C   UNL d   1       2.606  14.923 -12.728 -0.16 +0.00    +0.109 A 
DOCKED: ATOM     18  C   UNL d   1      -1.616  10.169 -12.998 -0.22 -0.00    +0.050 C 
DOCKED: ATOM     19  C   UNL d   1      -2.157  11.061 -12.038 -0.17 -0.00    +0.045 A 
DOCKED: ATOM     20  C   UNL d   1       1.581  15.145 -10.527 -0.24 -0.00    +0.045 A 
DOCKED: ATOM     21  C   UNL d   1       2.546  15.505 -11.379 -0.24 +0.00    +0.057 C 
DOCKED: ATOM     22  C   UNL d   1       0.343  15.026  -8.611 -0.23 +0.00    -0.019 A 
DOCKED: ATOM     23  C   UNL d   1      -0.274  14.155  -9.630 -0.24 -0.01    +0.045 A 
DOCKED: ATOM     24  C   UNL d   1       1.440  15.611  -9.148 -0.23 +0.00    -0.022 A 
DOCKED: ATOM     25  C   UNL d   1      -2.050  12.615 -10.397 -0.18 -0.01    +0.049 A 
DOCKED: ATOM     26  C   UNL d   1      -3.450  11.251 -11.575 -0.10 +0.00    -0.018 A 
DOCKED: ATOM     27  C   UNL d   1      -3.379  12.247 -10.553 -0.11 -0.00    +0.003 A 
DOCKED: ATOM     28  C   UNL d   1      -1.393  13.437  -9.442 -0.23 -0.01    +0.052 C 
DOCKED: ATOM     29  C   UNL d   1       2.384  16.577  -8.518 -0.23 +0.01    +0.046 C 
DOCKED: ATOM     30  C   UNL d   1      -4.678  10.553 -12.053 -0.05 -0.00    +0.046 C 
DOCKED: ATOM     31  H   UNL d   1       0.351  13.884 -11.644 +0.03 -0.01    +0.166 HD
DOCKED: ATOM     32  H   UNL d   1      -0.329  11.956 -11.470 +0.15 -0.01    +0.166 HD
DOCKED: ENDROOT
DOCKED: BRANCH   7  33
DOCKED: ATOM     33  C   UNL d   1      -1.150   9.076 -15.914 -0.05 -0.01    +0.141 C 
DOCKED: BRANCH  33  34
DOCKED: ATOM     34  C   UNL d   1      -2.154  10.178 -16.115 -0.01 -0.01    +0.306 C 
DOCKED: ATOM     35  O   UNL d   1      -3.367  10.066 -16.057 -0.01 +0.01    -0.251 OA
DOCKED: BRANCH  34  36
DOCKED: ATOM     36  O   UNL d   1      -1.578  11.364 -16.377 +0.00 +0.02    -0.481 OA
DOCKED: ATOM     37  H   UNL d   1      -1.170  11.634 -15.526 +0.03 -0.01    +0.295 HD
DOCKED: ENDBRANCH  34  36
DOCKED: ENDBRANCH  33  34
DOCKED: ENDBRANCH   7  33
DOCKED: BRANCH  27  38
DOCKED: ATOM     38  C   UNL d   1      -4.493  12.733  -9.796 -0.10 -0.00    +0.017 C 
DOCKED: ATOM     39  C   UNL d   1      -5.232  12.000  -8.949 -0.14 -0.04    +0.092 C 
DOCKED: BRANCH  39  40
DOCKED: ATOM     40  C   UNL d   1      -6.339  12.624  -8.218 -0.07 -0.15    +0.330 C 
DOCKED: ATOM     41  O   UNL d   1      -6.589  13.810  -8.119 -0.04 +0.08    -0.246 OA
DOCKED: BRANCH  40  42
DOCKED: ATOM     42  O   UNL d   1      -7.101  11.682  -7.642 -0.12 +0.30    -0.477 OA
DOCKED: ATOM     43  H   UNL d   1      -6.452  11.034  -7.297 -0.06 -0.43    +0.295 HD
DOCKED: ENDBRANCH  40  42
DOCKED: ENDBRANCH  39  40
DOCKED: ENDBRANCH  27  38
DOCKED: BRANCH   8  44
DOCKED: ATOM     44  C   UNL d   1       4.752  14.126 -15.424 -0.06 -0.00    +0.141 C 
DOCKED: BRANCH  44  45
DOCKED: ATOM     45  C   UNL d   1       5.506  13.495 -14.284 -0.13 +0.00    +0.306 C 
DOCKED: ATOM     46  O   UNL d   1       5.396  12.349 -13.885 -0.27 -0.01    -0.251 OA
DOCKED: BRANCH  45  47
DOCKED: ATOM     47  O   UNL d   1       6.346  14.358 -13.684 -0.04 -0.01    -0.481 OA
DOCKED: ATOM     48  H   UNL d   1       5.898  15.228 -13.750 +0.07 +0.00    +0.295 HD
DOCKED: ENDBRANCH  45  47
DOCKED: ENDBRANCH  44  45
DOCKED: ENDBRANCH   8  44
DOCKED: BRANCH  22  49
DOCKED: ATOM     49  C   UNL d   1      -0.183  15.193  -7.215 -0.24 -0.02    +0.048 C 
DOCKED: BRANCH  49  50
DOCKED: ATOM     50  C   UNL d   1       0.469  14.213  -6.240 -0.34 -0.06    +0.125 C 
DOCKED: BRANCH  50  51
DOCKED: ATOM     51  C   UNL d   1      -0.493  13.128  -5.847 -0.33 -0.19    +0.305 C 
DOCKED: ATOM     52  O   UNL d   1      -0.271  11.933  -5.760 -0.92 +0.12    -0.251 OA
DOCKED: BRANCH  51  53
DOCKED: ATOM     53  O   UNL d   1      -1.723  13.614  -5.588 -0.06 +0.48    -0.481 OA
DOCKED: ATOM     54  H   UNL d   1      -1.560  14.362  -4.976 -0.14 -0.67    +0.295 HD
DOCKED: ENDBRANCH  51  53
DOCKED: ENDBRANCH  50  51
DOCKED: ENDBRANCH  49  50
DOCKED: ENDBRANCH  22  49
DOCKED: TORSDOF 13
DOCKED: TER
DOCKED: ENDMDL
________________________________________________________________________________


	BEGINNING GENETIC ALGORITHM DOCKING 60 of 100
Run: 60 Seed: 1826339805 1465868711 [ Run 60 of 100 GA/GALS ]
Beginning LAMARCKIAN GENETIC ALGORITHM (LGA), with a maximum of 25000000 energy evaluations.

Final-Value: -11.343


	FINAL GENETIC ALGORITHM DOCKED STATE
	_______________________________________________


Detailed state:  trans -7.617 12.194 -3.728 quatxyzw 0.530201 0.498193 0.265840 -0.632471 center 0.153 0.018 -0.028 ntor 13 113.1307 180.0000 81.6339 -16.4826 178.8149 11.6301 -45.6441 -32.6628 -20.5604 -106.9607 81.5542 -84.1861 154.0186
State:	 -7.617  12.194  -3.728   0.684  0.643  0.343 -101.535    113.13  180.00   81.63  -16.48  178.81   11.63  -45.64  -32.66  -20.56 -106.96   81.55  -84.19  154.02

DOCKED: MODEL       60
DOCKED: USER    Run = 60
DOCKED: USER    DPF = D:/Protein_go_brrr/autodock/final/mut_Y35F/heme/dock.dpf
DOCKED: USER  
DOCKED: USER    Estimated Free Energy of Binding    =   -4.38 kcal/mol  [=(1)+(2)+(3)-(4)]
DOCKED: USER    Estimated Inhibition Constant, Ki   =  616.24 uM (micromolar)  [Temperature = 298.15 K]
DOCKED: USER    
DOCKED: USER    (1) Final Intermolecular Energy     =   -8.26 kcal/mol
DOCKED: USER        vdW + Hbond + desolv Energy     =   -7.90 kcal/mol
DOCKED: USER        Electrostatic Energy            =   -0.36 kcal/mol
DOCKED: USER    (2) Final Total Internal Energy     =   -3.09 kcal/mol
DOCKED: USER    (3) Torsional Free Energy           =   +3.88 kcal/mol
DOCKED: USER    (4) Unbound System's Energy  [=(2)] =   -3.09 kcal/mol
DOCKED: USER    
DOCKED: USER    
DOCKED: USER    NEWDPF move heme_opt.pdbqt
DOCKED: USER    NEWDPF about 0.153000 0.018000 -0.028000
DOCKED: USER    NEWDPF tran0 -7.616752 12.193636 -3.727859
DOCKED: USER    NEWDPF quaternion0 0.530201 0.498193 0.265840 -0.632471
DOCKED: USER    NEWDPF axisangle0 0.684498 0.643175 0.343204 -101.534613
DOCKED: USER    NEWDPF quat0 0.684498 0.643175 0.343204 -101.534613
DOCKED: USER    NEWDPF dihe0 113.13 180.00 81.63 -16.48 178.81 11.63 -45.64 -32.66 -20.56 -106.96 81.55 -84.19 154.02 
DOCKED: USER  keepresnum = 1 
DOCKED: USER  
DOCKED: REMARK  13 active torsions:
DOCKED: REMARK  status: ('A' for Active; 'I' for Inactive)
DOCKED: REMARK    1  A    between atoms: O_3  and  C_38 
DOCKED: REMARK    2  A    between atoms: O_4  and  C_40 
DOCKED: REMARK    3  A    between atoms: O_7  and  C_46 
DOCKED: REMARK    4  A    between atoms: O_9  and  C_48 
DOCKED: REMARK    5  A    between atoms: C_15  and  C_20 
DOCKED: REMARK    6  A    between atoms: C_16  and  C_23 
DOCKED: REMARK    7  A    between atoms: C_20  and  C_38 
DOCKED: REMARK    8  A    between atoms: C_23  and  C_40 
DOCKED: REMARK    9  A    between atoms: C_32  and  C_41 
DOCKED: REMARK   10  A    between atoms: C_37  and  C_45 
DOCKED: REMARK   11  A    between atoms: C_41  and  C_44 
DOCKED: REMARK   12  A    between atoms: C_44  and  C_46 
DOCKED: REMARK   13  A    between atoms: C_47  and  C_48 
DOCKED: USER                              x       y       z     vdW  Elec       q    Type
DOCKED: USER                           _______ _______ _______ _____ _____    ______ ____
DOCKED: ROOT
DOCKED: ATOM      1  O   UNL d   1      -8.734   7.580  -0.231 -0.20 +0.07    -0.289 OA
DOCKED: ATOM      2  O   UNL d   1     -10.950   9.101  -7.244 -0.03 -0.03    -0.289 OA
DOCKED: ATOM      3  N   UNL d   1      -7.927  10.517  -1.850 -0.13 +0.12    -0.247 NA
DOCKED: ATOM      4  N   UNL d   1      -8.957  10.084  -4.604 -0.13 +0.09    -0.247 NA
DOCKED: ATOM      5  N   UNL d   1      -7.432  12.376  -5.434 -0.04 +0.34    -0.354 N 
DOCKED: ATOM      6  N   UNL d   1      -6.354  12.806  -2.579 -0.14 +0.29    -0.354 N 
DOCKED: ATOM      7  C   UNL d   1      -7.309   9.496   0.291 -0.34 -0.02    +0.084 A 
DOCKED: ATOM      8  C   UNL d   1     -10.815   8.520  -4.869 -0.08 +0.01    +0.084 A 
DOCKED: ATOM      9  C   UNL d   1      -9.765   9.171  -3.964 -0.06 -0.00    +0.058 A 
DOCKED: ATOM     10  C   UNL d   1      -7.176  10.661  -0.696 -0.30 -0.02    +0.058 A 
DOCKED: ATOM     11  C   UNL d   1      -8.282   8.678  -0.503 -0.19 -0.04    +0.193 A 
DOCKED: ATOM     12  C   UNL d   1      -8.599   9.415  -1.767 -0.17 -0.03    +0.109 A 
DOCKED: ATOM     13  C   UNL d   1     -10.430   9.205  -6.150 -0.08 +0.02    +0.193 A 
DOCKED: ATOM     14  C   UNL d   1      -6.002   8.712   0.432 -0.65 -0.01    +0.026 C 
DOCKED: ATOM     15  C   UNL d   1      -9.614   8.840  -2.672 -0.12 -0.00    +0.055 C 
DOCKED: ATOM     16  C   UNL d   1     -12.236   8.949  -4.490 -0.02 +0.00    +0.026 C 
DOCKED: ATOM     17  C   UNL d   1      -9.286  10.121  -5.855 -0.15 -0.02    +0.109 A 
DOCKED: ATOM     18  C   UNL d   1      -6.455  11.757  -0.396 -0.30 -0.02    +0.050 C 
DOCKED: ATOM     19  C   UNL d   1      -6.344  12.915  -1.207 -0.31 -0.02    +0.045 A 
DOCKED: ATOM     20  C   UNL d   1      -7.816  11.893  -6.658 -0.14 -0.03    +0.045 A 
DOCKED: ATOM     21  C   UNL d   1      -8.665  10.898  -6.937 -0.18 -0.02    +0.057 C 
DOCKED: ATOM     22  C   UNL d   1      -6.338  13.606  -6.972 -0.11 +0.01    -0.019 A 
DOCKED: ATOM     23  C   UNL d   1      -6.541  13.412  -5.522 -0.10 -0.03    +0.045 A 
DOCKED: ATOM     24  C   UNL d   1      -7.097  12.704  -7.639 -0.12 +0.01    -0.022 A 
DOCKED: ATOM     25  C   UNL d   1      -6.143  14.034  -3.163 -0.21 -0.03    +0.049 A 
DOCKED: ATOM     26  C   UNL d   1      -6.160  14.253  -0.891 -0.28 +0.01    -0.018 A 
DOCKED: ATOM     27  C   UNL d   1      -6.053  14.957  -2.130 -0.21 -0.00    +0.003 A 
DOCKED: ATOM     28  C   UNL d   1      -5.956  14.151  -4.567 -0.18 -0.04    +0.052 C 
DOCKED: ATOM     29  C   UNL d   1      -7.241  12.513  -9.111 -0.06 -0.01    +0.046 C 
DOCKED: ATOM     30  C   UNL d   1      -6.089  14.843   0.476 -0.22 -0.01    +0.046 C 
DOCKED: ATOM     31  H   UNL d   1      -7.850  12.030  -4.577 -0.05 -0.16    +0.166 HD
DOCKED: ATOM     32  H   UNL d   1      -6.461  11.927  -3.070 -0.47 -0.24    +0.166 HD
DOCKED: ENDROOT
DOCKED: BRANCH   7  33
DOCKED: ATOM     33  C   UNL d   1      -7.899   9.857   1.658 -0.32 -0.03    +0.141 C 
DOCKED: BRANCH  33  34
DOCKED: ATOM     34  C   UNL d   1      -8.811  11.052   1.598 -0.14 -0.04    +0.306 C 
DOCKED: ATOM     35  O   UNL d   1      -8.734  12.053   2.290 -0.61 +0.00    -0.251 OA
DOCKED: BRANCH  34  36
DOCKED: ATOM     36  O   UNL d   1      -9.772  10.925   0.666 -0.01 +0.08    -0.481 OA
DOCKED: ATOM     37  H   UNL d   1      -9.295  10.978  -0.190 +0.10 -0.06    +0.295 HD
DOCKED: ENDBRANCH  34  36
DOCKED: ENDBRANCH  33  34
DOCKED: ENDBRANCH   7  33
DOCKED: BRANCH  27  38
DOCKED: ATOM     38  C   UNL d   1      -5.840  16.367  -2.263 -0.13 -0.01    +0.017 C 
DOCKED: ATOM     39  C   UNL d   1      -4.936  16.941  -3.071 -0.12 -0.06    +0.092 C 
DOCKED: BRANCH  39  40
DOCKED: ATOM     40  C   UNL d   1      -4.830  18.401  -3.127 -0.02 -0.14    +0.330 C 
DOCKED: ATOM     41  O   UNL d   1      -5.366  19.214  -2.398 -0.01 +0.07    -0.246 OA
DOCKED: BRANCH  40  42
DOCKED: ATOM     42  O   UNL d   1      -4.017  18.767  -4.130 -0.00 +0.20    -0.477 OA
DOCKED: ATOM     43  H   UNL d   1      -3.736  17.917  -4.526 +0.04 -0.18    +0.295 HD
DOCKED: ENDBRANCH  40  42
DOCKED: ENDBRANCH  39  40
DOCKED: ENDBRANCH  27  38
DOCKED: BRANCH   8  44
DOCKED: ATOM     44  C   UNL d   1     -10.715   6.998  -5.009 -0.08 +0.03    +0.141 C 
DOCKED: BRANCH  44  45
DOCKED: ATOM     45  C   UNL d   1     -11.346   6.474  -6.272 -0.05 +0.07    +0.306 C 
DOCKED: ATOM     46  O   UNL d   1     -12.506   6.125  -6.414 -0.01 -0.03    -0.251 OA
DOCKED: BRANCH  45  47
DOCKED: ATOM     47  O   UNL d   1     -10.471   6.391  -7.289 -0.05 -0.19    -0.481 OA
DOCKED: ATOM     48  H   UNL d   1     -10.634   7.197  -7.823 +0.04 +0.09    +0.295 HD
DOCKED: ENDBRANCH  45  47
DOCKED: ENDBRANCH  44  45
DOCKED: ENDBRANCH   8  44
DOCKED: BRANCH  22  49
DOCKED: ATOM     49  C   UNL d   1      -5.420  14.634  -7.564 -0.07 -0.02    +0.048 C 
DOCKED: BRANCH  49  50
DOCKED: ATOM     50  C   UNL d   1      -3.950  14.285  -7.332 -0.11 -0.06    +0.125 C 
DOCKED: BRANCH  50  51
DOCKED: ATOM     51  C   UNL d   1      -3.404  15.025  -6.144 -0.10 -0.23    +0.305 C 
DOCKED: ATOM     52  O   UNL d   1      -3.638  16.174  -5.813 -0.09 +0.18    -0.251 OA
DOCKED: BRANCH  51  53
DOCKED: ATOM     53  O   UNL d   1      -2.559  14.264  -5.421 -0.03 +0.60    -0.481 OA
DOCKED: ATOM     54  H   UNL d   1      -2.072  14.909  -4.867 -0.34 -0.81    +0.295 HD
DOCKED: ENDBRANCH  51  53
DOCKED: ENDBRANCH  50  51
DOCKED: ENDBRANCH  49  50
DOCKED: ENDBRANCH  22  49
DOCKED: TORSDOF 13
DOCKED: TER
DOCKED: ENDMDL
________________________________________________________________________________


	BEGINNING GENETIC ALGORITHM DOCKING 61 of 100
Run: 61 Seed: 1528087414 1852957313 [ Run 61 of 100 GA/GALS ]
Beginning LAMARCKIAN GENETIC ALGORITHM (LGA), with a maximum of 25000000 energy evaluations.

Final-Value: -13.734


	FINAL GENETIC ALGORITHM DOCKED STATE
	_______________________________________________


Detailed state:  trans 2.985 -16.009 -8.626 quatxyzw 0.728333 -0.008741 0.477177 -0.491687 center 0.153 0.018 -0.028 ntor 13 119.2858 91.1881 -112.6679 -156.7983 -139.6983 -117.7058 120.6960 89.1533 47.4504 -30.3182 62.7087 -20.8185 -155.3169
State:	  2.985 -16.009  -8.626   0.836 -0.010  0.548 -121.097    119.29   91.19 -112.67 -156.80 -139.70 -117.71  120.70   89.15   47.45  -30.32   62.71  -20.82 -155.32

DOCKED: MODEL       61
DOCKED: USER    Run = 61
DOCKED: USER    DPF = D:/Protein_go_brrr/autodock/final/mut_Y35F/heme/dock.dpf
DOCKED: USER  
DOCKED: USER    Estimated Free Energy of Binding    =   -7.33 kcal/mol  [=(1)+(2)+(3)-(4)]
DOCKED: USER    Estimated Inhibition Constant, Ki   =    4.27 uM (micromolar)  [Temperature = 298.15 K]
DOCKED: USER    
DOCKED: USER    (1) Final Intermolecular Energy     =  -11.20 kcal/mol
DOCKED: USER        vdW + Hbond + desolv Energy     =  -10.51 kcal/mol
DOCKED: USER        Electrostatic Energy            =   -0.69 kcal/mol
DOCKED: USER    (2) Final Total Internal Energy     =   -2.53 kcal/mol
DOCKED: USER    (3) Torsional Free Energy           =   +3.88 kcal/mol
DOCKED: USER    (4) Unbound System's Energy  [=(2)] =   -2.53 kcal/mol
DOCKED: USER    
DOCKED: USER    
DOCKED: USER    NEWDPF move heme_opt.pdbqt
DOCKED: USER    NEWDPF about 0.153000 0.018000 -0.028000
DOCKED: USER    NEWDPF tran0 2.985023 -16.008942 -8.626298
DOCKED: USER    NEWDPF quaternion0 0.728333 -0.008741 0.477177 -0.491687
DOCKED: USER    NEWDPF axisangle0 0.836423 -0.010038 0.547993 -121.096976
DOCKED: USER    NEWDPF quat0 0.836423 -0.010038 0.547993 -121.096976
DOCKED: USER    NEWDPF dihe0 119.29 91.19 -112.67 -156.80 -139.70 -117.71 120.70 89.15 47.45 -30.32 62.71 -20.82 -155.32 
DOCKED: USER  keepresnum = 1 
DOCKED: USER  
DOCKED: REMARK  13 active torsions:
DOCKED: REMARK  status: ('A' for Active; 'I' for Inactive)
DOCKED: REMARK    1  A    between atoms: O_3  and  C_38 
DOCKED: REMARK    2  A    between atoms: O_4  and  C_40 
DOCKED: REMARK    3  A    between atoms: O_7  and  C_46 
DOCKED: REMARK    4  A    between atoms: O_9  and  C_48 
DOCKED: REMARK    5  A    between atoms: C_15  and  C_20 
DOCKED: REMARK    6  A    between atoms: C_16  and  C_23 
DOCKED: REMARK    7  A    between atoms: C_20  and  C_38 
DOCKED: REMARK    8  A    between atoms: C_23  and  C_40 
DOCKED: REMARK    9  A    between atoms: C_32  and  C_41 
DOCKED: REMARK   10  A    between atoms: C_37  and  C_45 
DOCKED: REMARK   11  A    between atoms: C_41  and  C_44 
DOCKED: REMARK   12  A    between atoms: C_44  and  C_46 
DOCKED: REMARK   13  A    between atoms: C_47  and  C_48 
DOCKED: USER                              x       y       z     vdW  Elec       q    Type
DOCKED: USER                           _______ _______ _______ _____ _____    ______ ____
DOCKED: ROOT
DOCKED: ATOM      1  O   UNL d   1      -0.439 -19.912 -11.419 -0.05 -0.02    -0.289 OA
DOCKED: ATOM      2  O   UNL d   1       2.790 -13.576 -13.830 -0.14 +0.05    -0.289 OA
DOCKED: ATOM      3  N   UNL d   1       1.397 -17.848  -9.354 -0.13 +0.08    -0.247 NA
DOCKED: ATOM      4  N   UNL d   1       2.498 -15.817 -11.222 -0.14 +0.08    -0.247 NA
DOCKED: ATOM      5  N   UNL d   1       4.290 -14.998  -9.129 -0.10 +0.16    -0.354 N 
DOCKED: ATOM      6  N   UNL d   1       3.156 -17.121  -7.203 -0.01 +0.17    -0.354 N 
DOCKED: ATOM      7  C   UNL d   1       0.342 -20.046  -9.106 -0.08 -0.02    +0.084 A 
DOCKED: ATOM      8  C   UNL d   1       1.243 -15.390 -13.275 -0.12 -0.01    +0.084 A 
DOCKED: ATOM      9  C   UNL d   1       1.427 -16.209 -11.993 -0.18 -0.01    +0.058 A 
DOCKED: ATOM     10  C   UNL d   1       1.167 -18.910  -8.495 -0.14 -0.02    +0.058 A 
DOCKED: ATOM     11  C   UNL d   1       0.130 -19.430 -10.456 -0.06 -0.02    +0.193 A 
DOCKED: ATOM     12  C   UNL d   1       0.796 -18.089 -10.473 -0.16 -0.02    +0.109 A 
DOCKED: ATOM     13  C   UNL d   1       2.431 -14.485 -13.107 -0.12 -0.04    +0.193 A 
DOCKED: ATOM     14  C   UNL d   1       1.162 -21.329  -9.270 -0.02 -0.00    +0.026 C 
DOCKED: ATOM     15  C   UNL d   1       0.641 -17.251 -11.679 -0.21 -0.00    +0.055 C 
DOCKED: ATOM     16  C   UNL d   1      -0.032 -14.543 -13.230 -0.19 -0.00    +0.026 C 
DOCKED: ATOM     17  C   UNL d   1       3.111 -14.851 -11.828 -0.14 -0.04    +0.109 A 
DOCKED: ATOM     18  C   UNL d   1       1.544 -18.931  -7.203 -0.18 -0.02    +0.050 C 
DOCKED: ATOM     19  C   UNL d   1       2.234 -17.891  -6.531 -0.21 -0.02    +0.045 A 
DOCKED: ATOM     20  C   UNL d   1       4.819 -14.295 -10.180 -0.28 -0.02    +0.045 A 
DOCKED: ATOM     21  C   UNL d   1       4.340 -14.155 -11.420 -0.27 -0.02    +0.057 C 
DOCKED: ATOM     22  C   UNL d   1       6.197 -14.067  -8.372 -0.25 +0.01    -0.019 A 
DOCKED: ATOM     23  C   UNL d   1       5.053 -14.920  -7.994 -0.24 -0.02    +0.045 A 
DOCKED: ATOM     24  C   UNL d   1       6.053 -13.699  -9.667 -0.27 +0.01    -0.022 A 
DOCKED: ATOM     25  C   UNL d   1       3.768 -16.238  -6.343 -0.09 -0.02    +0.049 A 
DOCKED: ATOM     26  C   UNL d   1       2.220 -17.473  -5.209 -0.27 +0.01    -0.018 A 
DOCKED: ATOM     27  C   UNL d   1       3.176 -16.416  -5.101 -0.31 -0.00    +0.003 A 
DOCKED: ATOM     28  C   UNL d   1       4.867 -15.445  -6.773 -0.26 -0.02    +0.052 C 
DOCKED: ATOM     29  C   UNL d   1       6.940 -12.834 -10.496 -0.21 -0.02    +0.046 C 
DOCKED: ATOM     30  C   UNL d   1       1.370 -18.019  -4.112 -0.29 -0.02    +0.046 C 
DOCKED: ATOM     31  H   UNL d   1       3.385 -15.448  -9.200 -0.37 -0.10    +0.166 HD
DOCKED: ATOM     32  H   UNL d   1       3.369 -17.233  -8.187 -0.05 -0.07    +0.166 HD
DOCKED: ENDROOT
DOCKED: BRANCH   7  33
DOCKED: ATOM     33  C   UNL d   1      -1.003 -20.322  -8.424 -0.15 -0.07    +0.141 C 
DOCKED: BRANCH  33  34
DOCKED: ATOM     34  C   UNL d   1      -2.149 -19.614  -9.096 -0.24 -0.08    +0.306 C 
DOCKED: ATOM     35  O   UNL d   1      -2.511 -18.469  -8.885 -0.72 +0.07    -0.251 OA
DOCKED: BRANCH  34  36
DOCKED: ATOM     36  O   UNL d   1      -2.776 -20.386 -10.000 -0.11 -0.03    -0.481 OA
DOCKED: ATOM     37  H   UNL d   1      -2.096 -20.569 -10.683 +0.09 +0.04    +0.295 HD
DOCKED: ENDBRANCH  34  36
DOCKED: ENDBRANCH  33  34
DOCKED: ENDBRANCH   7  33
DOCKED: BRANCH  27  38
DOCKED: ATOM     38  C   UNL d   1       3.491 -15.709  -3.897 -0.36 -0.00    +0.017 C 
DOCKED: ATOM     39  C   UNL d   1       4.147 -14.540  -3.834 -0.46 -0.02    +0.092 C 
DOCKED: BRANCH  39  40
DOCKED: ATOM     40  C   UNL d   1       4.392 -13.908  -2.535 -0.32 -0.07    +0.330 C 
DOCKED: ATOM     41  O   UNL d   1       4.014 -12.816  -2.156 -1.01 +0.01    -0.246 OA
DOCKED: BRANCH  40  42
DOCKED: ATOM     42  O   UNL d   1       5.119 -14.723  -1.755 -0.45 +0.13    -0.477 OA
DOCKED: ATOM     43  H   UNL d   1       4.447 -15.266  -1.293 -0.40 -0.19    +0.295 HD
DOCKED: ENDBRANCH  40  42
DOCKED: ENDBRANCH  39  40
DOCKED: ENDBRANCH  27  38
DOCKED: BRANCH   8  44
DOCKED: ATOM     44  C   UNL d   1       1.337 -16.182 -14.584 -0.03 +0.00    +0.141 C 
DOCKED: BRANCH  44  45
DOCKED: ATOM     45  C   UNL d   1       2.754 -16.459 -15.010 +0.00 -0.01    +0.306 C 
DOCKED: ATOM     46  O   UNL d   1       3.504 -17.298 -14.540 -0.00 +0.01    -0.251 OA
DOCKED: BRANCH  45  47
DOCKED: ATOM     47  O   UNL d   1       3.165 -15.640 -15.995 +0.01 +0.01    -0.481 OA
DOCKED: ATOM     48  H   UNL d   1       3.193 -14.750 -15.583 +0.03 -0.01    +0.295 HD
DOCKED: ENDBRANCH  45  47
DOCKED: ENDBRANCH  44  45
DOCKED: ENDBRANCH   8  44
DOCKED: BRANCH  22  49
DOCKED: ATOM     49  C   UNL d   1       7.322 -13.708  -7.447 -0.13 -0.04    +0.048 C 
DOCKED: BRANCH  49  50
DOCKED: ATOM     50  C   UNL d   1       8.676 -14.161  -7.994 -0.11 -0.10    +0.125 C 
DOCKED: BRANCH  50  51
DOCKED: ATOM     51  C   UNL d   1       9.302 -15.187  -7.092 -0.05 -0.24    +0.305 C 
DOCKED: ATOM     52  O   UNL d   1       9.085 -16.385  -7.066 -0.02 +0.12    -0.251 OA
DOCKED: BRANCH  51  53
DOCKED: ATOM     53  O   UNL d   1      10.186 -14.634  -6.237 -0.02 +0.65    -0.481 OA
DOCKED: ATOM     54  H   UNL d   1       9.910 -13.695  -6.184 -0.50 -0.85    +0.295 HD
DOCKED: ENDBRANCH  51  53
DOCKED: ENDBRANCH  50  51
DOCKED: ENDBRANCH  49  50
DOCKED: ENDBRANCH  22  49
DOCKED: TORSDOF 13
DOCKED: TER
DOCKED: ENDMDL
________________________________________________________________________________


	BEGINNING GENETIC ALGORITHM DOCKING 62 of 100
Run: 62 Seed: 1188540379 1482698261 [ Run 62 of 100 GA/GALS ]
Beginning LAMARCKIAN GENETIC ALGORITHM (LGA), with a maximum of 25000000 energy evaluations.

Final-Value: -12.007


	FINAL GENETIC ALGORITHM DOCKED STATE
	_______________________________________________


Detailed state:  trans -0.055 12.407 -11.715 quatxyzw 0.882255 -0.002949 -0.390722 0.262590 center 0.153 0.018 -0.028 ntor 13 -134.3451 168.2506 180.0000 57.7098 61.6388 -107.3743 140.5062 61.4447 159.7449 -31.6831 -97.8012 51.0878 7.3789
State:	 -0.055  12.407 -11.715   0.914 -0.003 -0.405 149.552   -134.35  168.25  180.00   57.71   61.64 -107.37  140.51   61.44  159.74  -31.68  -97.80   51.09    7.38

DOCKED: MODEL       62
DOCKED: USER    Run = 62
DOCKED: USER    DPF = D:/Protein_go_brrr/autodock/final/mut_Y35F/heme/dock.dpf
DOCKED: USER  
DOCKED: USER    Estimated Free Energy of Binding    =   -3.83 kcal/mol  [=(1)+(2)+(3)-(4)]
DOCKED: USER    Estimated Inhibition Constant, Ki   =    1.56 mM (millimolar)  [Temperature = 298.15 K]
DOCKED: USER    
DOCKED: USER    (1) Final Intermolecular Energy     =   -7.71 kcal/mol
DOCKED: USER        vdW + Hbond + desolv Energy     =   -7.29 kcal/mol
DOCKED: USER        Electrostatic Energy            =   -0.42 kcal/mol
DOCKED: USER    (2) Final Total Internal Energy     =   -4.30 kcal/mol
DOCKED: USER    (3) Torsional Free Energy           =   +3.88 kcal/mol
DOCKED: USER    (4) Unbound System's Energy  [=(2)] =   -4.30 kcal/mol
DOCKED: USER    
DOCKED: USER    
DOCKED: USER    NEWDPF move heme_opt.pdbqt
DOCKED: USER    NEWDPF about 0.153000 0.018000 -0.028000
DOCKED: USER    NEWDPF tran0 -0.055162 12.406643 -11.714738
DOCKED: USER    NEWDPF quaternion0 0.882255 -0.002949 -0.390722 0.262590
DOCKED: USER    NEWDPF axisangle0 0.914342 -0.003056 -0.404932 149.552456
DOCKED: USER    NEWDPF quat0 0.914342 -0.003056 -0.404932 149.552456
DOCKED: USER    NEWDPF dihe0 -134.35 168.25 180.00 57.71 61.64 -107.37 140.51 61.44 159.74 -31.68 -97.80 51.09 7.38 
DOCKED: USER  keepresnum = 1 
DOCKED: USER  
DOCKED: REMARK  13 active torsions:
DOCKED: REMARK  status: ('A' for Active; 'I' for Inactive)
DOCKED: REMARK    1  A    between atoms: O_3  and  C_38 
DOCKED: REMARK    2  A    between atoms: O_4  and  C_40 
DOCKED: REMARK    3  A    between atoms: O_7  and  C_46 
DOCKED: REMARK    4  A    between atoms: O_9  and  C_48 
DOCKED: REMARK    5  A    between atoms: C_15  and  C_20 
DOCKED: REMARK    6  A    between atoms: C_16  and  C_23 
DOCKED: REMARK    7  A    between atoms: C_20  and  C_38 
DOCKED: REMARK    8  A    between atoms: C_23  and  C_40 
DOCKED: REMARK    9  A    between atoms: C_32  and  C_41 
DOCKED: REMARK   10  A    between atoms: C_37  and  C_45 
DOCKED: REMARK   11  A    between atoms: C_41  and  C_44 
DOCKED: REMARK   12  A    between atoms: C_44  and  C_46 
DOCKED: REMARK   13  A    between atoms: C_47  and  C_48 
DOCKED: USER                              x       y       z     vdW  Elec       q    Type
DOCKED: USER                           _______ _______ _______ _____ _____    ______ ____
DOCKED: ROOT
DOCKED: ATOM      1  O   UNL d   1      -4.754  10.130  -8.977 -0.22 +0.15    -0.289 OA
DOCKED: ATOM      2  O   UNL d   1       0.205  15.318  -6.765 -0.15 +0.11    -0.289 OA
DOCKED: ATOM      3  N   UNL d   1      -2.044  11.063 -10.897 -0.15 +0.03    -0.247 NA
DOCKED: ATOM      4  N   UNL d   1      -0.872  13.326  -9.370 -0.15 +0.05    -0.247 NA
DOCKED: ATOM      5  N   UNL d   1       0.697  13.960 -11.694 -0.13 +0.01    -0.354 N 
DOCKED: ATOM      6  N   UNL d   1      -0.538  11.621 -13.277 -0.03 +0.02    -0.354 N 
DOCKED: ATOM      7  C   UNL d   1      -3.989   9.611 -11.240 -0.12 -0.00    +0.084 A 
DOCKED: ATOM      8  C   UNL d   1      -1.271  13.375  -6.960 -0.30 -0.04    +0.084 A 
DOCKED: ATOM      9  C   UNL d   1      -1.537  12.728  -8.323 -0.28 -0.02    +0.058 A 
DOCKED: ATOM     10  C   UNL d   1      -2.700  10.229 -11.788 -0.18 -0.00    +0.058 A 
DOCKED: ATOM     11  C   UNL d   1      -3.937  10.227  -9.875 -0.17 -0.04    +0.193 A 
DOCKED: ATOM     12  C   UNL d   1      -2.699  11.064  -9.781 -0.24 -0.02    +0.109 A 
DOCKED: ATOM     13  C   UNL d   1      -0.362  14.474  -7.432 -0.18 -0.07    +0.193 A 
DOCKED: ATOM     14  C   UNL d   1      -5.231  10.129 -11.970 -0.05 -0.00    +0.026 C 
DOCKED: ATOM     15  C   UNL d   1      -2.386  11.701  -8.486 -0.35 -0.02    +0.055 C 
DOCKED: ATOM     16  C   UNL d   1      -0.481  12.445  -6.035 -0.52 -0.01    +0.026 C 
DOCKED: ATOM     17  C   UNL d   1      -0.207  14.338  -8.912 -0.21 -0.02    +0.109 A 
DOCKED: ATOM     18  C   UNL d   1      -2.223   9.900 -13.003 -0.18 -0.00    +0.050 C 
DOCKED: ATOM     19  C   UNL d   1      -0.999  10.355 -13.557 -0.17 -0.00    +0.045 A 
DOCKED: ATOM     20  C   UNL d   1       0.949  15.070 -10.930 -0.23 -0.00    +0.045 A 
DOCKED: ATOM     21  C   UNL d   1       0.601  15.311  -9.662 -0.23 -0.00    +0.057 C 
DOCKED: ATOM     22  C   UNL d   1       1.860  15.378 -13.002 -0.13 +0.00    -0.019 A 
DOCKED: ATOM     23  C   UNL d   1       1.208  14.054 -12.961 -0.16 -0.00    +0.045 A 
DOCKED: ATOM     24  C   UNL d   1       1.704  15.974 -11.796 -0.14 +0.00    -0.022 A 
DOCKED: ATOM     25  C   UNL d   1       0.611  11.885 -13.987 +0.06 -0.00    +0.049 A 
DOCKED: ATOM     26  C   UNL d   1      -0.109   9.768 -14.443 -0.20 +0.00    -0.018 A 
DOCKED: ATOM     27  C   UNL d   1       0.916  10.731 -14.695 -0.17 -0.00    +0.003 A 
DOCKED: ATOM     28  C   UNL d   1       1.188  13.184 -13.983 -0.13 -0.00    +0.052 C 
DOCKED: ATOM     29  C   UNL d   1       2.194  17.308 -11.345 -0.07 +0.00    +0.046 C 
DOCKED: ATOM     30  C   UNL d   1      -0.201   8.395 -15.019 -0.19 -0.00    +0.046 C 
DOCKED: ATOM     31  H   UNL d   1       0.247  13.141 -11.300 +0.03 -0.01    +0.166 HD
DOCKED: ATOM     32  H   UNL d   1      -1.016  12.268 -12.662 +0.03 -0.01    +0.166 HD
DOCKED: ENDROOT
DOCKED: BRANCH   7  33
DOCKED: ATOM     33  C   UNL d   1      -3.993   8.082 -11.140 -0.17 +0.01    +0.141 C 
DOCKED: BRANCH  33  34
DOCKED: ATOM     34  C   UNL d   1      -5.376   7.498 -11.246 -0.07 +0.07    +0.306 C 
DOCKED: ATOM     35  O   UNL d   1      -5.783   6.767 -12.132 -0.03 -0.04    -0.251 OA
DOCKED: BRANCH  34  36
DOCKED: ATOM     36  O   UNL d   1      -6.173   7.865 -10.227 -0.45 -0.34    -0.481 OA
DOCKED: ATOM     37  H   UNL d   1      -5.994   8.822 -10.105 +0.07 +0.12    +0.295 HD
DOCKED: ENDBRANCH  34  36
DOCKED: ENDBRANCH  33  34
DOCKED: ENDBRANCH   7  33
DOCKED: BRANCH  27  38
DOCKED: ATOM     38  C   UNL d   1       2.032  10.539 -15.571 -0.18 -0.00    +0.017 C 
DOCKED: ATOM     39  C   UNL d   1       3.235  10.070 -15.202 -0.26 -0.01    +0.092 C 
DOCKED: BRANCH  39  40
DOCKED: ATOM     40  C   UNL d   1       4.292   9.903 -16.203 -0.10 -0.03    +0.330 C 
DOCKED: ATOM     41  O   UNL d   1       4.743   8.862 -16.640 -0.10 +0.03    -0.246 OA
DOCKED: BRANCH  40  42
DOCKED: ATOM     42  O   UNL d   1       4.729  11.102 -16.617 -0.01 +0.02    -0.477 OA
DOCKED: ATOM     43  H   UNL d   1       4.067  11.730 -16.260 +0.06 -0.01    +0.295 HD
DOCKED: ENDBRANCH  40  42
DOCKED: ENDBRANCH  39  40
DOCKED: ENDBRANCH  27  38
DOCKED: BRANCH   8  44
DOCKED: ATOM     44  C   UNL d   1      -2.502  13.948  -6.249 -0.04 -0.10    +0.141 C 
DOCKED: BRANCH  44  45
DOCKED: ATOM     45  C   UNL d   1      -2.891  15.315  -6.745 -0.07 -0.19    +0.306 C 
DOCKED: ATOM     46  O   UNL d   1      -3.738  15.570  -7.584 -0.03 +0.09    -0.251 OA
DOCKED: BRANCH  45  47
DOCKED: ATOM     47  O   UNL d   1      -2.168  16.295  -6.174 -0.02 +0.42    -0.481 OA
DOCKED: ATOM     48  H   UNL d   1      -1.567  15.831  -5.553 -0.41 -0.53    +0.295 HD
DOCKED: ENDBRANCH  45  47
DOCKED: ENDBRANCH  44  45
DOCKED: ENDBRANCH   8  44
DOCKED: BRANCH  22  49
DOCKED: ATOM     49  C   UNL d   1       2.554  15.938 -14.208 -0.06 -0.00    +0.048 C 
DOCKED: BRANCH  49  50
DOCKED: ATOM     50  C   UNL d   1       3.926  15.299 -14.424 -0.07 -0.00    +0.125 C 
DOCKED: BRANCH  50  51
DOCKED: ATOM     51  C   UNL d   1       3.799  13.992 -15.155 -0.05 -0.00    +0.305 C 
DOCKED: ATOM     52  O   UNL d   1       3.259  13.791 -16.228 -0.02 +0.01    -0.251 OA
DOCKED: BRANCH  51  53
DOCKED: ATOM     53  O   UNL d   1       4.365  12.976 -14.473 -0.06 -0.00    -0.481 OA
DOCKED: ATOM     54  H   UNL d   1       5.027  12.611 -15.097 +0.09 -0.00    +0.295 HD
DOCKED: ENDBRANCH  51  53
DOCKED: ENDBRANCH  50  51
DOCKED: ENDBRANCH  49  50
DOCKED: ENDBRANCH  22  49
DOCKED: TORSDOF 13
DOCKED: TER
DOCKED: ENDMDL
________________________________________________________________________________


	BEGINNING GENETIC ALGORITHM DOCKING 63 of 100
Run: 63 Seed: 636913273 2082708260 [ Run 63 of 100 GA/GALS ]
Beginning LAMARCKIAN GENETIC ALGORITHM (LGA), with a maximum of 25000000 energy evaluations.

Final-Value: -11.914


	FINAL GENETIC ALGORITHM DOCKED STATE
	_______________________________________________


Detailed state:  trans 0.784 3.524 -14.252 quatxyzw -0.820709 -0.511356 0.254755 -0.007194 center 0.153 0.018 -0.028 ntor 13 162.0925 170.8449 -87.8552 22.2957 -149.2144 -75.7844 123.4306 87.0832 7.1334 -39.4940 -93.5511 35.2286 -5.7221
State:	  0.784   3.524 -14.252  -0.821 -0.511  0.255 -179.176    162.09  170.84  -87.86   22.30 -149.21  -75.78  123.43   87.08    7.13  -39.49  -93.55   35.23   -5.72

DOCKED: MODEL       63
DOCKED: USER    Run = 63
DOCKED: USER    DPF = D:/Protein_go_brrr/autodock/final/mut_Y35F/heme/dock.dpf
DOCKED: USER  
DOCKED: USER    Estimated Free Energy of Binding    =   -3.41 kcal/mol  [=(1)+(2)+(3)-(4)]
DOCKED: USER    Estimated Inhibition Constant, Ki   =    3.15 mM (millimolar)  [Temperature = 298.15 K]
DOCKED: USER    
DOCKED: USER    (1) Final Intermolecular Energy     =   -7.29 kcal/mol
DOCKED: USER        vdW + Hbond + desolv Energy     =   -7.19 kcal/mol
DOCKED: USER        Electrostatic Energy            =   -0.10 kcal/mol
DOCKED: USER    (2) Final Total Internal Energy     =   -4.62 kcal/mol
DOCKED: USER    (3) Torsional Free Energy           =   +3.88 kcal/mol
DOCKED: USER    (4) Unbound System's Energy  [=(2)] =   -4.62 kcal/mol
DOCKED: USER    
DOCKED: USER    
DOCKED: USER    NEWDPF move heme_opt.pdbqt
DOCKED: USER    NEWDPF about 0.153000 0.018000 -0.028000
DOCKED: USER    NEWDPF tran0 0.784197 3.524108 -14.251588
DOCKED: USER    NEWDPF quaternion0 -0.820709 -0.511356 0.254755 -0.007194
DOCKED: USER    NEWDPF axisangle0 -0.820730 -0.511369 0.254761 -179.175652
DOCKED: USER    NEWDPF quat0 -0.820730 -0.511369 0.254761 -179.175652
DOCKED: USER    NEWDPF dihe0 162.09 170.84 -87.86 22.30 -149.21 -75.78 123.43 87.08 7.13 -39.49 -93.55 35.23 -5.72 
DOCKED: USER  keepresnum = 1 
DOCKED: USER  
DOCKED: REMARK  13 active torsions:
DOCKED: REMARK  status: ('A' for Active; 'I' for Inactive)
DOCKED: REMARK    1  A    between atoms: O_3  and  C_38 
DOCKED: REMARK    2  A    between atoms: O_4  and  C_40 
DOCKED: REMARK    3  A    between atoms: O_7  and  C_46 
DOCKED: REMARK    4  A    between atoms: O_9  and  C_48 
DOCKED: REMARK    5  A    between atoms: C_15  and  C_20 
DOCKED: REMARK    6  A    between atoms: C_16  and  C_23 
DOCKED: REMARK    7  A    between atoms: C_20  and  C_38 
DOCKED: REMARK    8  A    between atoms: C_23  and  C_40 
DOCKED: REMARK    9  A    between atoms: C_32  and  C_41 
DOCKED: REMARK   10  A    between atoms: C_37  and  C_45 
DOCKED: REMARK   11  A    between atoms: C_41  and  C_44 
DOCKED: REMARK   12  A    between atoms: C_44  and  C_46 
DOCKED: REMARK   13  A    between atoms: C_47  and  C_48 
DOCKED: USER                              x       y       z     vdW  Elec       q    Type
DOCKED: USER                           _______ _______ _______ _____ _____    ______ ____
DOCKED: ROOT
DOCKED: ATOM      1  O   UNL d   1      -0.028  -2.173 -12.970 -0.10 -0.05    -0.289 OA
DOCKED: ATOM      2  O   UNL d   1      -3.516   3.988 -10.466 -0.21 -0.06    -0.289 OA
DOCKED: ATOM      3  N   UNL d   1       0.895   1.012 -13.918 -0.10 -0.02    -0.247 NA
DOCKED: ATOM      4  N   UNL d   1      -1.200   2.725 -12.691 -0.13 -0.01    -0.247 NA
DOCKED: ATOM      5  N   UNL d   1      -0.273   4.885 -14.346 -0.11 +0.01    -0.354 N 
DOCKED: ATOM      6  N   UNL d   1       1.885   3.096 -15.628 -0.05 +0.00    -0.354 N 
DOCKED: ATOM      7  C   UNL d   1       1.565  -1.251 -14.579 -0.08 +0.01    +0.084 A 
DOCKED: ATOM      8  C   UNL d   1      -2.320   1.865 -10.696 -0.29 +0.01    +0.084 A 
DOCKED: ATOM      9  C   UNL d   1      -1.337   1.643 -11.850 -0.23 +0.00    +0.058 A 
DOCKED: ATOM     10  C   UNL d   1       1.714   0.264 -14.747 -0.11 +0.01    +0.058 A 
DOCKED: ATOM     11  C   UNL d   1       0.530  -1.226 -13.494 -0.09 +0.03    +0.193 A 
DOCKED: ATOM     12  C   UNL d   1       0.227   0.202 -13.164 -0.15 +0.01    +0.109 A 
DOCKED: ATOM     13  C   UNL d   1      -2.744   3.260 -11.059 -0.16 +0.02    +0.193 A 
DOCKED: ATOM     14  C   UNL d   1       0.964  -1.911 -15.822 -0.03 +0.00    +0.026 C 
DOCKED: ATOM     15  C   UNL d   1      -0.705   0.476 -12.051 -0.24 +0.00    +0.055 C 
DOCKED: ATOM     16  C   UNL d   1      -1.606   1.904  -9.342 -0.49 +0.00    +0.026 C 
DOCKED: ATOM     17  C   UNL d   1      -1.998   3.662 -12.290 -0.09 +0.00    +0.109 A 
DOCKED: ATOM     18  C   UNL d   1       2.637   0.792 -15.573 -0.12 +0.00    +0.050 C 
DOCKED: ATOM     19  C   UNL d   1       2.904   2.176 -15.730 -0.11 +0.00    +0.045 A 
DOCKED: ATOM     20  C   UNL d   1      -1.422   5.445 -13.850 -0.15 -0.00    +0.045 A 
DOCKED: ATOM     21  C   UNL d   1      -2.244   4.973 -12.907 -0.13 +0.00    +0.057 C 
DOCKED: ATOM     22  C   UNL d   1      -0.553   6.832 -15.443 -0.13 +0.00    -0.019 A 
DOCKED: ATOM     23  C   UNL d   1       0.322   5.650 -15.314 -0.18 -0.00    +0.045 A 
DOCKED: ATOM     24  C   UNL d   1      -1.583   6.705 -14.573 -0.14 +0.00    -0.022 A 
DOCKED: ATOM     25  C   UNL d   1       2.348   4.362 -15.904 -0.07 -0.00    +0.049 A 
DOCKED: ATOM     26  C   UNL d   1       4.065   2.865 -16.044 -0.18 +0.00    -0.018 A 
DOCKED: ATOM     27  C   UNL d   1       3.712   4.247 -16.133 -0.22 -0.00    +0.003 A 
DOCKED: ATOM     28  C   UNL d   1       1.450   5.458 -16.015 -0.18 -0.00    +0.052 C 
DOCKED: ATOM     29  C   UNL d   1      -2.716   7.643 -14.325 -0.10 -0.00    +0.046 C 
DOCKED: ATOM     30  C   UNL d   1       5.421   2.279 -16.246 -0.19 -0.00    +0.046 C 
DOCKED: ATOM     31  H   UNL d   1       0.108   4.031 -13.954 +0.04 -0.00    +0.166 HD
DOCKED: ATOM     32  H   UNL d   1       0.925   2.848 -15.419 +0.03 +0.00    +0.166 HD
DOCKED: ENDROOT
DOCKED: BRANCH   7  33
DOCKED: ATOM     33  C   UNL d   1       2.823  -1.987 -14.104 -0.12 +0.06    +0.141 C 
DOCKED: BRANCH  33  34
DOCKED: ATOM     34  C   UNL d   1       3.379  -1.419 -12.826 -0.08 +0.18    +0.306 C 
DOCKED: ATOM     35  O   UNL d   1       4.265  -0.587 -12.733 -0.27 -0.09    -0.251 OA
DOCKED: BRANCH  34  36
DOCKED: ATOM     36  O   UNL d   1       2.786  -1.929 -11.732 -0.67 -0.42    -0.481 OA
DOCKED: ATOM     37  H   UNL d   1       1.932  -2.285 -12.057 +0.14 +0.19    +0.295 HD
DOCKED: ENDBRANCH  34  36
DOCKED: ENDBRANCH  33  34
DOCKED: ENDBRANCH   7  33
DOCKED: BRANCH  27  38
DOCKED: ATOM     38  C   UNL d   1       4.615   5.311 -16.453 -0.26 -0.00    +0.017 C 
DOCKED: ATOM     39  C   UNL d   1       5.066   6.231 -15.587 -0.26 -0.02    +0.092 C 
DOCKED: BRANCH  39  40
DOCKED: ATOM     40  C   UNL d   1       6.005   7.261 -16.040 -0.19 -0.07    +0.330 C 
DOCKED: ATOM     41  O   UNL d   1       7.200   7.144 -16.236 -0.17 +0.05    -0.246 OA
DOCKED: BRANCH  40  42
DOCKED: ATOM     42  O   UNL d   1       5.359   8.421 -16.235 -0.08 +0.07    -0.477 OA
DOCKED: ATOM     43  H   UNL d   1       4.414   8.179 -16.156 +0.09 -0.05    +0.295 HD
DOCKED: ENDBRANCH  40  42
DOCKED: ENDBRANCH  39  40
DOCKED: ENDBRANCH  27  38
DOCKED: BRANCH   8  44
DOCKED: ATOM     44  C   UNL d   1      -3.523   0.917 -10.662 -0.23 +0.01    +0.141 C 
DOCKED: BRANCH  44  45
DOCKED: ATOM     45  C   UNL d   1      -4.702   1.425 -11.449 -0.06 +0.03    +0.306 C 
DOCKED: ATOM     46  O   UNL d   1      -4.847   1.371 -12.658 -0.02 -0.01    -0.251 OA
DOCKED: BRANCH  45  47
DOCKED: ATOM     47  O   UNL d   1      -5.632   2.003 -10.667 -0.04 -0.07    -0.481 OA
DOCKED: ATOM     48  H   UNL d   1      -5.383   2.952 -10.647 +0.09 +0.06    +0.295 HD
DOCKED: ENDBRANCH  45  47
DOCKED: ENDBRANCH  44  45
DOCKED: ENDBRANCH   8  44
DOCKED: BRANCH  22  49
DOCKED: ATOM     49  C   UNL d   1      -0.312   7.958 -16.406 -0.07 -0.00    +0.048 C 
DOCKED: BRANCH  49  50
DOCKED: ATOM     50  C   UNL d   1       0.563   9.052 -15.794 -0.12 -0.01    +0.125 C 
DOCKED: BRANCH  50  51
DOCKED: ATOM     51  C   UNL d   1       2.021   8.749 -15.998 -0.10 -0.04    +0.305 C 
DOCKED: ATOM     52  O   UNL d   1       2.687   8.945 -16.999 -0.04 +0.02    -0.251 OA
DOCKED: BRANCH  51  53
DOCKED: ATOM     53  O   UNL d   1       2.577   8.188 -14.906 -0.04 +0.15    -0.481 OA
DOCKED: ATOM     54  H   UNL d   1       3.535   8.367 -15.008 -0.14 -0.10    +0.295 HD
DOCKED: ENDBRANCH  51  53
DOCKED: ENDBRANCH  50  51
DOCKED: ENDBRANCH  49  50
DOCKED: ENDBRANCH  22  49
DOCKED: TORSDOF 13
DOCKED: TER
DOCKED: ENDMDL
________________________________________________________________________________


	BEGINNING GENETIC ALGORITHM DOCKING 64 of 100
Run: 64 Seed: 958802140 2117981691 [ Run 64 of 100 GA/GALS ]
Beginning LAMARCKIAN GENETIC ALGORITHM (LGA), with a maximum of 25000000 energy evaluations.

Final-Value: -10.399


	FINAL GENETIC ALGORITHM DOCKED STATE
	_______________________________________________


Detailed state:  trans -11.121 -17.982 -4.664 quatxyzw 0.851182 -0.188212 0.142367 0.468826 center 0.153 0.018 -0.028 ntor 13 151.5607 -160.6624 -79.0897 -163.7801 -139.7753 68.7720 126.8782 16.6816 17.5699 -42.4802 88.9695 -77.8284 45.1876
State:	-11.121 -17.982  -4.664   0.964 -0.213  0.161 124.084    151.56 -160.66  -79.09 -163.78 -139.78   68.77  126.88   16.68   17.57  -42.48   88.97  -77.83   45.19

DOCKED: MODEL       64
DOCKED: USER    Run = 64
DOCKED: USER    DPF = D:/Protein_go_brrr/autodock/final/mut_Y35F/heme/dock.dpf
DOCKED: USER  
DOCKED: USER    Estimated Free Energy of Binding    =   -2.71 kcal/mol  [=(1)+(2)+(3)-(4)]
DOCKED: USER    Estimated Inhibition Constant, Ki   =   10.30 mM (millimolar)  [Temperature = 298.15 K]
DOCKED: USER    
DOCKED: USER    (1) Final Intermolecular Energy     =   -6.59 kcal/mol
DOCKED: USER        vdW + Hbond + desolv Energy     =   -6.35 kcal/mol
DOCKED: USER        Electrostatic Energy            =   -0.24 kcal/mol
DOCKED: USER    (2) Final Total Internal Energy     =   -3.81 kcal/mol
DOCKED: USER    (3) Torsional Free Energy           =   +3.88 kcal/mol
DOCKED: USER    (4) Unbound System's Energy  [=(2)] =   -3.81 kcal/mol
DOCKED: USER    
DOCKED: USER    
DOCKED: USER    NEWDPF move heme_opt.pdbqt
DOCKED: USER    NEWDPF about 0.153000 0.018000 -0.028000
DOCKED: USER    NEWDPF tran0 -11.120774 -17.982268 -4.664018
DOCKED: USER    NEWDPF quaternion0 0.851182 -0.188212 0.142367 0.468826
DOCKED: USER    NEWDPF axisangle0 0.963648 -0.213081 0.161178 124.083766
DOCKED: USER    NEWDPF quat0 0.963648 -0.213081 0.161178 124.083766
DOCKED: USER    NEWDPF dihe0 151.56 -160.66 -79.09 -163.78 -139.78 68.77 126.88 16.68 17.57 -42.48 88.97 -77.83 45.19 
DOCKED: USER  keepresnum = 1 
DOCKED: USER  
DOCKED: REMARK  13 active torsions:
DOCKED: REMARK  status: ('A' for Active; 'I' for Inactive)
DOCKED: REMARK    1  A    between atoms: O_3  and  C_38 
DOCKED: REMARK    2  A    between atoms: O_4  and  C_40 
DOCKED: REMARK    3  A    between atoms: O_7  and  C_46 
DOCKED: REMARK    4  A    between atoms: O_9  and  C_48 
DOCKED: REMARK    5  A    between atoms: C_15  and  C_20 
DOCKED: REMARK    6  A    between atoms: C_16  and  C_23 
DOCKED: REMARK    7  A    between atoms: C_20  and  C_38 
DOCKED: REMARK    8  A    between atoms: C_23  and  C_40 
DOCKED: REMARK    9  A    between atoms: C_32  and  C_41 
DOCKED: REMARK   10  A    between atoms: C_37  and  C_45 
DOCKED: REMARK   11  A    between atoms: C_41  and  C_44 
DOCKED: REMARK   12  A    between atoms: C_44  and  C_46 
DOCKED: REMARK   13  A    between atoms: C_47  and  C_48 
DOCKED: USER                              x       y       z     vdW  Elec       q    Type
DOCKED: USER                           _______ _______ _______ _____ _____    ______ ____
DOCKED: ROOT
DOCKED: ATOM      1  O   UNL d   1     -16.151 -15.780  -6.809 -0.09 -0.02    -0.289 OA
DOCKED: ATOM      2  O   UNL d   1     -13.237 -15.579   0.109 -0.20 +0.03    -0.289 OA
DOCKED: ATOM      3  N   UNL d   1     -13.194 -17.350  -5.981 -0.21 -0.03    -0.247 NA
DOCKED: ATOM      4  N   UNL d   1     -12.715 -16.474  -3.183 -0.09 -0.01    -0.247 NA
DOCKED: ATOM      5  N   UNL d   1     -10.030 -17.472  -3.427 -0.05 +0.01    -0.354 N 
DOCKED: ATOM      6  N   UNL d   1     -10.529 -18.360  -6.337 +0.04 -0.01    -0.354 N 
DOCKED: ATOM      7  C   UNL d   1     -14.424 -16.968  -8.066 -0.14 +0.01    +0.084 A 
DOCKED: ATOM      8  C   UNL d   1     -14.671 -15.851  -1.856 -0.14 -0.00    +0.084 A 
DOCKED: ATOM      9  C   UNL d   1     -14.077 -16.267  -3.206 -0.14 +0.00    +0.058 A 
DOCKED: ATOM     10  C   UNL d   1     -13.202 -17.552  -7.351 -0.14 +0.01    +0.058 A 
DOCKED: ATOM     11  C   UNL d   1     -15.115 -16.418  -6.855 -0.11 +0.02    +0.193 A 
DOCKED: ATOM     12  C   UNL d   1     -14.283 -16.736  -5.652 -0.15 +0.01    +0.109 A 
DOCKED: ATOM     13  C   UNL d   1     -13.390 -15.824  -1.072 -0.14 -0.01    +0.193 A 
DOCKED: ATOM     14  C   UNL d   1     -14.049 -15.809  -8.993 -0.29 +0.00    +0.026 C 
DOCKED: ATOM     15  C   UNL d   1     -14.813 -16.369  -4.323 -0.15 +0.00    +0.055 C 
DOCKED: ATOM     16  C   UNL d   1     -15.580 -16.939  -1.277 -0.12 -0.00    +0.026 C 
DOCKED: ATOM     17  C   UNL d   1     -12.279 -16.213  -1.992 -0.15 +0.00    +0.109 A 
DOCKED: ATOM     18  C   UNL d   1     -12.278 -18.272  -8.014 -0.02 +0.00    +0.050 C 
DOCKED: ATOM     19  C   UNL d   1     -11.162 -18.919  -7.424 -0.06 +0.00    +0.045 A 
DOCKED: ATOM     20  C   UNL d   1      -9.926 -16.807  -2.233 -0.20 -0.00    +0.045 A 
DOCKED: ATOM     21  C   UNL d   1     -10.891 -16.233  -1.507 -0.07 +0.00    +0.057 C 
DOCKED: ATOM     22  C   UNL d   1      -7.849 -17.516  -2.866 -0.26 +0.00    -0.019 A 
DOCKED: ATOM     23  C   UNL d   1      -8.828 -17.936  -3.889 -0.20 -0.00    +0.045 A 
DOCKED: ATOM     24  C   UNL d   1      -8.506 -16.849  -1.888 -0.28 +0.00    -0.022 A 
DOCKED: ATOM     25  C   UNL d   1      -9.425 -19.102  -5.986 -0.16 -0.00    +0.049 A 
DOCKED: ATOM     26  C   UNL d   1     -10.473 -20.073  -7.765 -0.08 -0.00    -0.018 A 
DOCKED: ATOM     27  C   UNL d   1      -9.389 -20.194  -6.842 -0.11 -0.00    +0.003 A 
DOCKED: ATOM     28  C   UNL d   1      -8.522 -18.639  -4.991 -0.25 -0.00    +0.052 C 
DOCKED: ATOM     29  C   UNL d   1      -7.957 -16.243  -0.641 -0.43 -0.00    +0.046 C 
DOCKED: ATOM     30  C   UNL d   1     -10.801 -21.009  -8.879 -0.05 +0.00    +0.046 C 
DOCKED: ATOM     31  H   UNL d   1     -10.933 -17.652  -3.853 +0.06 +0.00    +0.166 HD
DOCKED: ATOM     32  H   UNL d   1     -10.828 -17.498  -5.897 +0.06 +0.01    +0.166 HD
DOCKED: ENDROOT
DOCKED: BRANCH   7  33
DOCKED: ATOM     33  C   UNL d   1     -15.319 -17.990  -8.778 -0.04 +0.01    +0.141 C 
DOCKED: BRANCH  33  34
DOCKED: ATOM     34  C   UNL d   1     -15.985 -18.941  -7.822 -0.01 +0.01    +0.306 C 
DOCKED: ATOM     35  O   UNL d   1     -15.508 -19.975  -7.385 -0.00 -0.00    -0.251 OA
DOCKED: BRANCH  34  36
DOCKED: ATOM     36  O   UNL d   1     -17.217 -18.539  -7.464 +0.00 -0.01    -0.481 OA
DOCKED: ATOM     37  H   UNL d   1     -17.175 -17.560  -7.492 +0.02 +0.01    +0.295 HD
DOCKED: ENDBRANCH  34  36
DOCKED: ENDBRANCH  33  34
DOCKED: ENDBRANCH   7  33
DOCKED: BRANCH  27  38
DOCKED: ATOM     38  C   UNL d   1      -8.414 -21.242  -6.847 -0.09 -0.00    +0.017 C 
DOCKED: ATOM     39  C   UNL d   1      -7.100 -21.078  -6.634 -0.15 -0.01    +0.092 C 
DOCKED: BRANCH  39  40
DOCKED: ATOM     40  C   UNL d   1      -6.207 -22.241  -6.648 -0.05 -0.02    +0.330 C 
DOCKED: ATOM     41  O   UNL d   1      -5.924 -22.949  -7.595 -0.03 +0.01    -0.246 OA
DOCKED: BRANCH  40  42
DOCKED: ATOM     42  O   UNL d   1      -5.696 -22.445  -5.424 -0.03 +0.05    -0.477 OA
DOCKED: ATOM     43  H   UNL d   1      -6.306 -21.960  -4.831 +0.05 -0.03    +0.295 HD
DOCKED: ENDBRANCH  40  42
DOCKED: ENDBRANCH  39  40
DOCKED: ENDBRANCH  27  38
DOCKED: BRANCH   8  44
DOCKED: ATOM     44  C   UNL d   1     -15.359 -14.482  -1.831 -0.21 -0.01    +0.141 C 
DOCKED: BRANCH  44  45
DOCKED: ATOM     45  C   UNL d   1     -14.438 -13.362  -1.427 -0.27 -0.02    +0.306 C 
DOCKED: ATOM     46  O   UNL d   1     -13.660 -12.764  -2.151 -0.36 +0.01    -0.251 OA
DOCKED: BRANCH  45  47
DOCKED: ATOM     47  O   UNL d   1     -14.526 -13.070  -0.117 -0.06 +0.07    -0.481 OA
DOCKED: ATOM     48  H   UNL d   1     -13.754 -13.518   0.289 +0.06 -0.07    +0.295 HD
DOCKED: ENDBRANCH  45  47
DOCKED: ENDBRANCH  44  45
DOCKED: ENDBRANCH   8  44
DOCKED: BRANCH  22  49
DOCKED: ATOM     49  C   UNL d   1      -6.376 -17.790  -2.947 -0.39 -0.01    +0.048 C 
DOCKED: BRANCH  49  50
DOCKED: ATOM     50  C   UNL d   1      -6.085 -19.175  -3.524 -0.05 -0.04    +0.125 C 
DOCKED: BRANCH  50  51
DOCKED: ATOM     51  C   UNL d   1      -6.010 -20.205  -2.433 -0.08 +0.08    +0.305 C 
DOCKED: ATOM     52  O   UNL d   1      -6.319 -20.072  -1.262 -0.16 -0.11    -0.251 OA
DOCKED: BRANCH  51  53
DOCKED: ATOM     53  O   UNL d   1      -5.523 -21.380  -2.882 -0.14 -0.12    -0.481 OA
DOCKED: ATOM     54  H   UNL d   1      -5.114 -21.154  -3.744 -0.03 -0.07    +0.295 HD
DOCKED: ENDBRANCH  51  53
DOCKED: ENDBRANCH  50  51
DOCKED: ENDBRANCH  49  50
DOCKED: ENDBRANCH  22  49
DOCKED: TORSDOF 13
DOCKED: TER
DOCKED: ENDMDL
________________________________________________________________________________


	BEGINNING GENETIC ALGORITHM DOCKING 65 of 100
Run: 65 Seed: 2142392031 237320441 [ Run 65 of 100 GA/GALS ]
Beginning LAMARCKIAN GENETIC ALGORITHM (LGA), with a maximum of 25000000 energy evaluations.

Final-Value: -11.080


	FINAL GENETIC ALGORITHM DOCKED STATE
	_______________________________________________


Detailed state:  trans -3.500 -10.580 -13.605 quatxyzw -0.175397 0.131538 -0.970919 -0.096176 center 0.153 0.018 -0.028 ntor 13 109.4367 -156.7174 -131.6639 65.2847 179.4320 -51.5641 124.1717 -126.2360 -20.6991 -19.9349 95.1837 -101.0625 21.4781
State:	 -3.500 -10.580 -13.605  -0.176  0.132 -0.975 -168.962    109.44 -156.72 -131.66   65.28  179.43  -51.56  124.17 -126.24  -20.70  -19.93   95.18 -101.06   21.48

DOCKED: MODEL       65
DOCKED: USER    Run = 65
DOCKED: USER    DPF = D:/Protein_go_brrr/autodock/final/mut_Y35F/heme/dock.dpf
DOCKED: USER  
DOCKED: USER    Estimated Free Energy of Binding    =   -4.76 kcal/mol  [=(1)+(2)+(3)-(4)]
DOCKED: USER    Estimated Inhibition Constant, Ki   =  323.75 uM (micromolar)  [Temperature = 298.15 K]
DOCKED: USER    
DOCKED: USER    (1) Final Intermolecular Energy     =   -8.64 kcal/mol
DOCKED: USER        vdW + Hbond + desolv Energy     =   -8.37 kcal/mol
DOCKED: USER        Electrostatic Energy            =   -0.27 kcal/mol
DOCKED: USER    (2) Final Total Internal Energy     =   -2.44 kcal/mol
DOCKED: USER    (3) Torsional Free Energy           =   +3.88 kcal/mol
DOCKED: USER    (4) Unbound System's Energy  [=(2)] =   -2.44 kcal/mol
DOCKED: USER    
DOCKED: USER    
DOCKED: USER    NEWDPF move heme_opt.pdbqt
DOCKED: USER    NEWDPF about 0.153000 0.018000 -0.028000
DOCKED: USER    NEWDPF tran0 -3.499619 -10.579934 -13.605229
DOCKED: USER    NEWDPF quaternion0 -0.175397 0.131538 -0.970919 -0.096176
DOCKED: USER    NEWDPF axisangle0 -0.176214 0.132151 -0.975441 -168.962023
DOCKED: USER    NEWDPF quat0 -0.176214 0.132151 -0.975441 -168.962023
DOCKED: USER    NEWDPF dihe0 109.44 -156.72 -131.66 65.28 179.43 -51.56 124.17 -126.24 -20.70 -19.93 95.18 -101.06 21.48 
DOCKED: USER  keepresnum = 1 
DOCKED: USER  
DOCKED: REMARK  13 active torsions:
DOCKED: REMARK  status: ('A' for Active; 'I' for Inactive)
DOCKED: REMARK    1  A    between atoms: O_3  and  C_38 
DOCKED: REMARK    2  A    between atoms: O_4  and  C_40 
DOCKED: REMARK    3  A    between atoms: O_7  and  C_46 
DOCKED: REMARK    4  A    between atoms: O_9  and  C_48 
DOCKED: REMARK    5  A    between atoms: C_15  and  C_20 
DOCKED: REMARK    6  A    between atoms: C_16  and  C_23 
DOCKED: REMARK    7  A    between atoms: C_20  and  C_38 
DOCKED: REMARK    8  A    between atoms: C_23  and  C_40 
DOCKED: REMARK    9  A    between atoms: C_32  and  C_41 
DOCKED: REMARK   10  A    between atoms: C_37  and  C_45 
DOCKED: REMARK   11  A    between atoms: C_41  and  C_44 
DOCKED: REMARK   12  A    between atoms: C_44  and  C_46 
DOCKED: REMARK   13  A    between atoms: C_47  and  C_48 
DOCKED: USER                              x       y       z     vdW  Elec       q    Type
DOCKED: USER                           _______ _______ _______ _____ _____    ______ ____
DOCKED: ROOT
DOCKED: ATOM      1  O   UNL d   1       2.137 -11.016 -15.277 -0.39 -0.03    -0.289 OA
DOCKED: ATOM      2  O   UNL d   1      -2.314  -5.022 -14.469 -0.03 -0.01    -0.289 OA
DOCKED: ATOM      3  N   UNL d   1      -1.187 -11.264 -14.392 -0.09 +0.01    -0.247 NA
DOCKED: ATOM      4  N   UNL d   1      -2.011  -8.432 -14.030 -0.08 -0.00    -0.247 NA
DOCKED: ATOM      5  N   UNL d   1      -4.394  -9.387 -12.736 -0.05 +0.02    -0.354 N 
DOCKED: ATOM      6  N   UNL d   1      -3.523 -12.321 -13.098 -0.12 +0.03    -0.354 N 
DOCKED: ATOM      7  C   UNL d   1       0.672 -12.848 -14.589 -0.15 -0.00    +0.084 A 
DOCKED: ATOM      8  C   UNL d   1      -0.765  -6.738 -15.275 -0.03 +0.01    +0.084 A 
DOCKED: ATOM      9  C   UNL d   1      -0.934  -8.202 -14.856 -0.08 +0.00    +0.058 A 
DOCKED: ATOM     10  C   UNL d   1      -0.799 -12.586 -14.255 -0.17 -0.00    +0.058 A 
DOCKED: ATOM     11  C   UNL d   1       1.043 -11.443 -14.958 -0.11 +0.01    +0.193 A 
DOCKED: ATOM     12  C   UNL d   1      -0.176 -10.583 -14.822 -0.14 +0.00    +0.109 A 
DOCKED: ATOM     13  C   UNL d   1      -1.924  -6.173 -14.502 -0.03 +0.01    +0.193 A 
DOCKED: ATOM     14  C   UNL d   1       1.477 -13.265 -13.355 -0.25 -0.01    +0.026 C 
DOCKED: ATOM     15  C   UNL d   1      -0.074  -9.165 -15.224 -0.12 +0.00    +0.055 C 
DOCKED: ATOM     16  C   UNL d   1      -1.028  -6.541 -16.771 -0.01 +0.00    +0.026 C 
DOCKED: ATOM     17  C   UNL d   1      -2.591  -7.301 -13.785 -0.10 +0.00    +0.109 A 
DOCKED: ATOM     18  C   UNL d   1      -1.640 -13.591 -13.945 -0.18 +0.00    +0.050 C 
DOCKED: ATOM     19  C   UNL d   1      -3.030 -13.455 -13.704 -0.11 +0.00    +0.045 A 
DOCKED: ATOM     20  C   UNL d   1      -4.495  -8.048 -12.457 -0.06 -0.00    +0.045 A 
DOCKED: ATOM     21  C   UNL d   1      -3.741  -7.040 -12.907 -0.18 +0.00    +0.057 C 
DOCKED: ATOM     22  C   UNL d   1      -6.135  -9.164 -11.325 -0.34 +0.00    -0.019 A 
DOCKED: ATOM     23  C   UNL d   1      -5.342 -10.141 -12.097 -0.26 -0.01    +0.045 A 
DOCKED: ATOM     24  C   UNL d   1      -5.630  -7.927 -11.543 -0.21 +0.00    -0.022 A 
DOCKED: ATOM     25  C   UNL d   1      -4.876 -12.439 -12.880 -0.24 -0.01    +0.049 A 
DOCKED: ATOM     26  C   UNL d   1      -4.096 -14.316 -13.918 -0.19 -0.00    -0.018 A 
DOCKED: ATOM     27  C   UNL d   1      -5.262 -13.661 -13.414 -0.24 -0.00    +0.003 A 
DOCKED: ATOM     28  C   UNL d   1      -5.581 -11.461 -12.127 -0.36 -0.01    +0.052 C 
DOCKED: ATOM     29  C   UNL d   1      -6.095  -6.619 -10.998 -0.25 -0.01    +0.046 C 
DOCKED: ATOM     30  C   UNL d   1      -4.038 -15.663 -14.554 -0.19 +0.01    +0.046 C 
DOCKED: ATOM     31  H   UNL d   1      -3.724  -9.734 -13.414 +0.05 -0.01    +0.166 HD
DOCKED: ATOM     32  H   UNL d   1      -2.944 -11.537 -12.821 +0.04 -0.02    +0.166 HD
DOCKED: ENDROOT
DOCKED: BRANCH   7  33
DOCKED: ATOM     33  C   UNL d   1       0.919 -13.796 -15.768 -0.04 -0.00    +0.141 C 
DOCKED: BRANCH  33  34
DOCKED: ATOM     34  C   UNL d   1      -0.212 -13.792 -16.761 +0.00 +0.01    +0.306 C 
DOCKED: ATOM     35  O   UNL d   1      -0.820 -14.769 -17.163 -0.00 -0.02    -0.251 OA
DOCKED: BRANCH  34  36
DOCKED: ATOM     36  O   UNL d   1      -0.518 -12.556 -17.193 +0.01 -0.01    -0.481 OA
DOCKED: ATOM     37  H   UNL d   1      -0.972 -12.134 -16.432 +0.04 +0.00    +0.295 HD
DOCKED: ENDBRANCH  34  36
DOCKED: ENDBRANCH  33  34
DOCKED: ENDBRANCH   7  33
DOCKED: BRANCH  27  38
DOCKED: ATOM     38  C   UNL d   1      -6.585 -14.208 -13.422 -0.29 +0.00    +0.017 C 
DOCKED: ATOM     39  C   UNL d   1      -7.304 -14.511 -12.331 -0.37 -0.00    +0.092 C 
DOCKED: BRANCH  39  40
DOCKED: ATOM     40  C   UNL d   1      -8.658 -15.052 -12.476 -0.21 +0.01    +0.330 C 
DOCKED: ATOM     41  O   UNL d   1      -9.584 -14.580 -13.109 -0.12 -0.02    -0.246 OA
DOCKED: BRANCH  40  42
DOCKED: ATOM     42  O   UNL d   1      -8.770 -16.204 -11.798 -0.16 -0.01    -0.477 OA
DOCKED: ATOM     43  H   UNL d   1      -8.065 -16.148 -11.121 -0.35 -0.05    +0.295 HD
DOCKED: ENDBRANCH  40  42
DOCKED: ENDBRANCH  39  40
DOCKED: ENDBRANCH  27  38
DOCKED: BRANCH   8  44
DOCKED: ATOM     44  C   UNL d   1       0.551  -6.077 -14.851 -0.07 +0.02    +0.141 C 
DOCKED: BRANCH  44  45
DOCKED: ATOM     45  C   UNL d   1       0.652  -5.852 -13.366 -0.16 +0.08    +0.306 C 
DOCKED: ATOM     46  O   UNL d   1       0.950  -6.681 -12.524 -0.31 -0.05    -0.251 OA
DOCKED: BRANCH  45  47
DOCKED: ATOM     47  O   UNL d   1       0.343  -4.591 -13.014 -0.09 -0.14    -0.481 OA
DOCKED: ATOM     48  H   UNL d   1      -0.493  -4.398 -13.491 +0.09 +0.05    +0.295 HD
DOCKED: ENDBRANCH  45  47
DOCKED: ENDBRANCH  44  45
DOCKED: ENDBRANCH   8  44
DOCKED: BRANCH  22  49
DOCKED: ATOM     49  C   UNL d   1      -7.293  -9.528 -10.442 -0.40 -0.02    +0.048 C 
DOCKED: BRANCH  49  50
DOCKED: ATOM     50  C   UNL d   1      -8.429 -10.176 -11.233 -0.39 -0.04    +0.125 C 
DOCKED: BRANCH  50  51
DOCKED: ATOM     51  C   UNL d   1      -9.313  -9.132 -11.854 -0.06 -0.08    +0.305 C 
DOCKED: ATOM     52  O   UNL d   1     -10.531  -9.083 -11.836 -0.26 +0.02    -0.251 OA
DOCKED: BRANCH  51  53
DOCKED: ATOM     53  O   UNL d   1      -8.601  -8.185 -12.496 -0.05 +0.11    -0.481 OA
DOCKED: ATOM     54  H   UNL d   1      -8.780  -7.367 -11.987 -0.51 -0.14    +0.295 HD
DOCKED: ENDBRANCH  51  53
DOCKED: ENDBRANCH  50  51
DOCKED: ENDBRANCH  49  50
DOCKED: ENDBRANCH  22  49
DOCKED: TORSDOF 13
DOCKED: TER
DOCKED: ENDMDL
________________________________________________________________________________


	BEGINNING GENETIC ALGORITHM DOCKING 66 of 100
Run: 66 Seed: 1004720477 1844222018 [ Run 66 of 100 GA/GALS ]
Beginning LAMARCKIAN GENETIC ALGORITHM (LGA), with a maximum of 25000000 energy evaluations.

Final-Value: -11.715


	FINAL GENETIC ALGORITHM DOCKED STATE
	_______________________________________________


Detailed state:  trans 9.845 13.432 -12.426 quatxyzw 0.224977 -0.443578 0.470248 -0.729034 center 0.153 0.018 -0.028 ntor 13 140.6980 149.4277 91.2232 35.8116 -138.4591 121.3783 -36.7747 34.8892 14.3121 -110.5521 -87.6535 -106.6267 1.9530
State:	  9.845  13.432 -12.426   0.329 -0.648  0.687 -86.389    140.70  149.43   91.22   35.81 -138.46  121.38  -36.77   34.89   14.31 -110.55  -87.65 -106.63    1.95

DOCKED: MODEL       66
DOCKED: USER    Run = 66
DOCKED: USER    DPF = D:/Protein_go_brrr/autodock/final/mut_Y35F/heme/dock.dpf
DOCKED: USER  
DOCKED: USER    Estimated Free Energy of Binding    =   -3.23 kcal/mol  [=(1)+(2)+(3)-(4)]
DOCKED: USER    Estimated Inhibition Constant, Ki   =    4.31 mM (millimolar)  [Temperature = 298.15 K]
DOCKED: USER    
DOCKED: USER    (1) Final Intermolecular Energy     =   -7.11 kcal/mol
DOCKED: USER        vdW + Hbond + desolv Energy     =   -6.96 kcal/mol
DOCKED: USER        Electrostatic Energy            =   -0.15 kcal/mol
DOCKED: USER    (2) Final Total Internal Energy     =   -4.61 kcal/mol
DOCKED: USER    (3) Torsional Free Energy           =   +3.88 kcal/mol
DOCKED: USER    (4) Unbound System's Energy  [=(2)] =   -4.61 kcal/mol
DOCKED: USER    
DOCKED: USER    
DOCKED: USER    NEWDPF move heme_opt.pdbqt
DOCKED: USER    NEWDPF about 0.153000 0.018000 -0.028000
DOCKED: USER    NEWDPF tran0 9.844763 13.431730 -12.425663
DOCKED: USER    NEWDPF quaternion0 0.224977 -0.443578 0.470248 -0.729034
DOCKED: USER    NEWDPF axisangle0 0.328684 -0.648054 0.687017 -86.389018
DOCKED: USER    NEWDPF quat0 0.328684 -0.648054 0.687017 -86.389018
DOCKED: USER    NEWDPF dihe0 140.70 149.43 91.22 35.81 -138.46 121.38 -36.77 34.89 14.31 -110.55 -87.65 -106.63 1.95 
DOCKED: USER  keepresnum = 1 
DOCKED: USER  
DOCKED: REMARK  13 active torsions:
DOCKED: REMARK  status: ('A' for Active; 'I' for Inactive)
DOCKED: REMARK    1  A    between atoms: O_3  and  C_38 
DOCKED: REMARK    2  A    between atoms: O_4  and  C_40 
DOCKED: REMARK    3  A    between atoms: O_7  and  C_46 
DOCKED: REMARK    4  A    between atoms: O_9  and  C_48 
DOCKED: REMARK    5  A    between atoms: C_15  and  C_20 
DOCKED: REMARK    6  A    between atoms: C_16  and  C_23 
DOCKED: REMARK    7  A    between atoms: C_20  and  C_38 
DOCKED: REMARK    8  A    between atoms: C_23  and  C_40 
DOCKED: REMARK    9  A    between atoms: C_32  and  C_41 
DOCKED: REMARK   10  A    between atoms: C_37  and  C_45 
DOCKED: REMARK   11  A    between atoms: C_41  and  C_44 
DOCKED: REMARK   12  A    between atoms: C_44  and  C_46 
DOCKED: REMARK   13  A    between atoms: C_47  and  C_48 
DOCKED: USER                              x       y       z     vdW  Elec       q    Type
DOCKED: USER                           _______ _______ _______ _____ _____    ______ ____
DOCKED: ROOT
DOCKED: ATOM      1  O   UNL d   1       7.146  10.993 -17.065 -0.04 +0.01    -0.289 OA
DOCKED: ATOM      2  O   UNL d   1      14.385  11.105 -15.072 -0.07 +0.06    -0.289 OA
DOCKED: ATOM      3  N   UNL d   1       8.294  12.689 -14.290 -0.10 -0.00    -0.247 NA
DOCKED: ATOM      4  N   UNL d   1      11.159  11.915 -14.153 -0.07 +0.02    -0.247 NA
DOCKED: ATOM      5  N   UNL d   1      11.229  12.997 -11.490 -0.11 +0.05    -0.354 N 
DOCKED: ATOM      6  N   UNL d   1       8.250  13.778 -11.633 -0.17 -0.01    -0.354 N 
DOCKED: ATOM      7  C   UNL d   1       6.082  12.201 -15.226 -0.15 -0.00    +0.084 A 
DOCKED: ATOM      8  C   UNL d   1      12.243  11.267 -16.245 -0.03 -0.01    +0.084 A 
DOCKED: ATOM      9  C   UNL d   1      10.968  11.661 -15.493 -0.07 -0.00    +0.058 A 
DOCKED: ATOM     10  C   UNL d   1       6.928  12.847 -14.125 -0.22 +0.00    +0.058 A 
DOCKED: ATOM     11  C   UNL d   1       7.212  11.664 -16.052 -0.08 -0.00    +0.193 A 
DOCKED: ATOM     12  C   UNL d   1       8.501  12.047 -15.393 -0.09 -0.00    +0.109 A 
DOCKED: ATOM     13  C   UNL d   1      13.187  11.308 -15.077 -0.04 -0.03    +0.193 A 
DOCKED: ATOM     14  C   UNL d   1       5.253  11.027 -14.699 -0.20 +0.00    +0.026 C 
DOCKED: ATOM     15  C   UNL d   1       9.762  11.704 -16.081 -0.08 -0.00    +0.055 C 
DOCKED: ATOM     16  C   UNL d   1      12.662  12.340 -17.254 -0.01 -0.00    +0.026 C 
DOCKED: ATOM     17  C   UNL d   1      12.405  11.707 -13.868 -0.09 -0.02    +0.109 A 
DOCKED: ATOM     18  C   UNL d   1       6.366  13.579 -13.145 -0.34 +0.00    +0.050 C 
DOCKED: ATOM     19  C   UNL d   1       7.072  14.282 -12.135 -0.28 +0.00    +0.045 A 
DOCKED: ATOM     20  C   UNL d   1      12.449  12.373 -11.523 -0.19 -0.01    +0.045 A 
DOCKED: ATOM     21  C   UNL d   1      13.064  11.788 -12.556 -0.18 -0.01    +0.057 C 
DOCKED: ATOM     22  C   UNL d   1      12.065  13.134  -9.403 -0.29 +0.00    -0.019 A 
DOCKED: ATOM     23  C   UNL d   1      10.910  13.489 -10.252 -0.29 -0.01    +0.045 A 
DOCKED: ATOM     24  C   UNL d   1      12.973  12.475 -10.161 -0.14 +0.01    -0.022 A 
DOCKED: ATOM     25  C   UNL d   1       8.715  14.568 -10.607 -0.22 +0.00    +0.049 A 
DOCKED: ATOM     26  C   UNL d   1       6.782  15.448 -11.443 -0.17 -0.00    -0.018 A 
DOCKED: ATOM     27  C   UNL d   1       7.833  15.634 -10.493 -0.20 +0.00    +0.003 A 
DOCKED: ATOM     28  C   UNL d   1       9.833  14.167  -9.827 -0.34 -0.00    +0.052 C 
DOCKED: ATOM     29  C   UNL d   1      14.300  11.926  -9.761 -0.10 -0.02    +0.046 C 
DOCKED: ATOM     30  C   UNL d   1       5.603  16.337 -11.652 -0.16 +0.00    +0.046 C 
DOCKED: ATOM     31  H   UNL d   1      10.685  13.133 -12.335 +0.05 -0.01    +0.166 HD
DOCKED: ATOM     32  H   UNL d   1       8.678  12.920 -11.961 +0.06 +0.01    +0.166 HD
DOCKED: ENDROOT
DOCKED: BRANCH   7  33
DOCKED: ATOM     33  C   UNL d   1       5.226  13.168 -16.051 -0.06 -0.00    +0.141 C 
DOCKED: BRANCH  33  34
DOCKED: ATOM     34  C   UNL d   1       6.052  14.176 -16.803 -0.01 -0.01    +0.306 C 
DOCKED: ATOM     35  O   UNL d   1       6.483  15.228 -16.362 -0.01 +0.01    -0.251 OA
DOCKED: BRANCH  34  36
DOCKED: ATOM     36  O   UNL d   1       6.295  13.803 -18.072 +0.00 +0.02    -0.481 OA
DOCKED: ATOM     37  H   UNL d   1       6.501  12.845 -18.013 +0.01 -0.01    +0.295 HD
DOCKED: ENDBRANCH  34  36
DOCKED: ENDBRANCH  33  34
DOCKED: ENDBRANCH   7  33
DOCKED: BRANCH  27  38
DOCKED: ATOM     38  C   UNL d   1       7.918  16.715  -9.558 -0.19 +0.00    +0.017 C 
DOCKED: ATOM     39  C   UNL d   1       7.761  16.604  -8.230 -0.29 +0.02    +0.092 C 
DOCKED: BRANCH  39  40
DOCKED: ATOM     40  C   UNL d   1       7.890  17.789  -7.378 -0.10 +0.11    +0.330 C 
DOCKED: ATOM     41  O   UNL d   1       7.047  18.277  -6.650 -0.69 -0.20    -0.246 OA
DOCKED: BRANCH  40  42
DOCKED: ATOM     42  O   UNL d   1       9.123  18.306  -7.490 -0.03 -0.04    -0.477 OA
DOCKED: ATOM     43  H   UNL d   1       9.688  17.528  -7.675 +0.08 +0.01    +0.295 HD
DOCKED: ENDBRANCH  40  42
DOCKED: ENDBRANCH  39  40
DOCKED: ENDBRANCH  27  38
DOCKED: BRANCH   8  44
DOCKED: ATOM     44  C   UNL d   1      12.227   9.876 -16.889 -0.04 -0.02    +0.141 C 
DOCKED: BRANCH  44  45
DOCKED: ATOM     45  C   UNL d   1      13.603   9.346 -17.192 -0.04 -0.05    +0.306 C 
DOCKED: ATOM     46  O   UNL d   1      14.293   9.625 -18.156 -0.03 +0.03    -0.251 OA
DOCKED: BRANCH  45  47
DOCKED: ATOM     47  O   UNL d   1      14.029   8.463 -16.270 -0.04 +0.16    -0.481 OA
DOCKED: ATOM     48  H   UNL d   1      14.485   9.010 -15.596 -0.40 -0.15    +0.295 HD
DOCKED: ENDBRANCH  45  47
DOCKED: ENDBRANCH  44  45
DOCKED: ENDBRANCH   8  44
DOCKED: BRANCH  22  49
DOCKED: ATOM     49  C   UNL d   1      12.166  13.455  -7.941 -0.35 -0.01    +0.048 C 
DOCKED: BRANCH  49  50
DOCKED: ATOM     50  C   UNL d   1      12.623  14.895  -7.706 -0.20 -0.03    +0.125 C 
DOCKED: BRANCH  50  51
DOCKED: ATOM     51  C   UNL d   1      11.444  15.813  -7.547 -0.12 -0.04    +0.305 C 
DOCKED: ATOM     52  O   UNL d   1      10.339  15.535  -7.117 -0.10 +0.00    -0.251 OA
DOCKED: BRANCH  51  53
DOCKED: ATOM     53  O   UNL d   1      11.721  17.065  -7.960 +0.00 +0.08    -0.481 OA
DOCKED: ATOM     54  H   UNL d   1      11.220  17.637  -7.342 +0.07 -0.04    +0.295 HD
DOCKED: ENDBRANCH  51  53
DOCKED: ENDBRANCH  50  51
DOCKED: ENDBRANCH  49  50
DOCKED: ENDBRANCH  22  49
DOCKED: TORSDOF 13
DOCKED: TER
DOCKED: ENDMDL
________________________________________________________________________________


	BEGINNING GENETIC ALGORITHM DOCKING 67 of 100
Run: 67 Seed: 1138345979 2141157307 [ Run 67 of 100 GA/GALS ]
Beginning LAMARCKIAN GENETIC ALGORITHM (LGA), with a maximum of 25000000 energy evaluations.

Final-Value: -11.606


	FINAL GENETIC ALGORITHM DOCKED STATE
	_______________________________________________


Detailed state:  trans -1.840 3.905 -13.066 quatxyzw -0.245165 -0.246750 -0.917349 0.193597 center 0.153 0.018 -0.028 ntor 13 -122.3557 -106.4945 -127.9282 35.4721 45.7455 -44.0494 127.7401 111.1713 136.0400 -32.7531 -31.7341 -24.0659 4.9001
State:	 -1.840   3.905 -13.066  -0.250 -0.252 -0.935 157.674   -122.36 -106.49 -127.93   35.47   45.75  -44.05  127.74  111.17  136.04  -32.75  -31.73  -24.07    4.90

DOCKED: MODEL       67
DOCKED: USER    Run = 67
DOCKED: USER    DPF = D:/Protein_go_brrr/autodock/final/mut_Y35F/heme/dock.dpf
DOCKED: USER  
DOCKED: USER    Estimated Free Energy of Binding    =   -3.97 kcal/mol  [=(1)+(2)+(3)-(4)]
DOCKED: USER    Estimated Inhibition Constant, Ki   =    1.22 mM (millimolar)  [Temperature = 298.15 K]
DOCKED: USER    
DOCKED: USER    (1) Final Intermolecular Energy     =   -7.85 kcal/mol
DOCKED: USER        vdW + Hbond + desolv Energy     =   -7.50 kcal/mol
DOCKED: USER        Electrostatic Energy            =   -0.35 kcal/mol
DOCKED: USER    (2) Final Total Internal Energy     =   -3.75 kcal/mol
DOCKED: USER    (3) Torsional Free Energy           =   +3.88 kcal/mol
DOCKED: USER    (4) Unbound System's Energy  [=(2)] =   -3.75 kcal/mol
DOCKED: USER    
DOCKED: USER    
DOCKED: USER    NEWDPF move heme_opt.pdbqt
DOCKED: USER    NEWDPF about 0.153000 0.018000 -0.028000
DOCKED: USER    NEWDPF tran0 -1.839873 3.904978 -13.066365
DOCKED: USER    NEWDPF quaternion0 -0.245165 -0.246750 -0.917349 0.193597
DOCKED: USER    NEWDPF axisangle0 -0.249893 -0.251508 -0.935039 157.674493
DOCKED: USER    NEWDPF quat0 -0.249893 -0.251508 -0.935039 157.674493
DOCKED: USER    NEWDPF dihe0 -122.36 -106.49 -127.93 35.47 45.75 -44.05 127.74 111.17 136.04 -32.75 -31.73 -24.07 4.90 
DOCKED: USER  keepresnum = 1 
DOCKED: USER  
DOCKED: REMARK  13 active torsions:
DOCKED: REMARK  status: ('A' for Active; 'I' for Inactive)
DOCKED: REMARK    1  A    between atoms: O_3  and  C_38 
DOCKED: REMARK    2  A    between atoms: O_4  and  C_40 
DOCKED: REMARK    3  A    between atoms: O_7  and  C_46 
DOCKED: REMARK    4  A    between atoms: O_9  and  C_48 
DOCKED: REMARK    5  A    between atoms: C_15  and  C_20 
DOCKED: REMARK    6  A    between atoms: C_16  and  C_23 
DOCKED: REMARK    7  A    between atoms: C_20  and  C_38 
DOCKED: REMARK    8  A    between atoms: C_23  and  C_40 
DOCKED: REMARK    9  A    between atoms: C_32  and  C_41 
DOCKED: REMARK   10  A    between atoms: C_37  and  C_45 
DOCKED: REMARK   11  A    between atoms: C_41  and  C_44 
DOCKED: REMARK   12  A    between atoms: C_44  and  C_46 
DOCKED: REMARK   13  A    between atoms: C_47  and  C_48 
DOCKED: USER                              x       y       z     vdW  Elec       q    Type
DOCKED: USER                           _______ _______ _______ _____ _____    ______ ____
DOCKED: ROOT
DOCKED: ATOM      1  O   UNL d   1       2.634   0.108 -13.638 -0.06 -0.05    -0.289 OA
DOCKED: ATOM      2  O   UNL d   1       0.572   5.967 -17.858 -0.01 +0.01    -0.289 OA
DOCKED: ATOM      3  N   UNL d   1      -0.181   1.989 -12.977 -0.13 -0.01    -0.247 NA
DOCKED: ATOM      4  N   UNL d   1      -0.000   4.205 -14.947 -0.09 +0.00    -0.247 NA
DOCKED: ATOM      5  N   UNL d   1      -2.040   5.575 -13.454 -0.07 -0.00    -0.354 N 
DOCKED: ATOM      6  N   UNL d   1      -2.207   3.280 -11.404 -0.08 -0.03    -0.354 N 
DOCKED: ATOM      7  C   UNL d   1       0.988   0.164 -11.831 -0.29 +0.01    +0.084 A 
DOCKED: ATOM      8  C   UNL d   1       1.236   3.770 -17.010 -0.07 -0.00    +0.084 A 
DOCKED: ATOM      9  C   UNL d   1       0.789   3.300 -15.621 -0.11 -0.00    +0.058 A 
DOCKED: ATOM     10  C   UNL d   1      -0.168   1.168 -11.861 -0.28 +0.00    +0.058 A 
DOCKED: ATOM     11  C   UNL d   1       1.616   0.550 -13.137 -0.06 +0.02    +0.193 A 
DOCKED: ATOM     12  C   UNL d   1       0.801   1.648 -13.747 -0.06 +0.01    +0.109 A 
DOCKED: ATOM     13  C   UNL d   1       0.585   5.124 -16.984 -0.05 -0.01    +0.193 A 
DOCKED: ATOM     14  C   UNL d   1       1.976   0.459 -10.700 -0.47 +0.00    +0.026 C 
DOCKED: ATOM     15  C   UNL d   1       1.178   2.131 -15.090 -0.11 +0.00    +0.055 C 
DOCKED: ATOM     16  C   UNL d   1       0.596   2.936 -18.124 -0.02 -0.00    +0.026 C 
DOCKED: ATOM     17  C   UNL d   1      -0.126   5.267 -15.677 -0.11 -0.00    +0.109 A 
DOCKED: ATOM     18  C   UNL d   1      -1.125   1.166 -10.915 -0.39 +0.00    +0.050 C 
DOCKED: ATOM     19  C   UNL d   1      -2.274   1.998 -10.905 -0.29 +0.00    +0.045 A 
DOCKED: ATOM     20  C   UNL d   1      -1.661   6.577 -14.309 -0.14 -0.00    +0.045 A 
DOCKED: ATOM     21  C   UNL d   1      -0.824   6.519 -15.350 -0.14 -0.00    +0.057 C 
DOCKED: ATOM     22  C   UNL d   1      -3.122   7.430 -12.774 -0.14 -0.00    -0.019 A 
DOCKED: ATOM     23  C   UNL d   1      -2.921   5.994 -12.493 -0.13 +0.00    +0.045 A 
DOCKED: ATOM     24  C   UNL d   1      -2.374   7.769 -13.851 -0.13 +0.00    -0.022 A 
DOCKED: ATOM     25  C   UNL d   1      -3.402   3.935 -11.213 -0.19 +0.01    +0.049 A 
DOCKED: ATOM     26  C   UNL d   1      -3.554   1.804 -10.410 -0.25 -0.00    -0.018 A 
DOCKED: ATOM     27  C   UNL d   1      -4.268   3.023 -10.625 -0.20 +0.00    +0.003 A 
DOCKED: ATOM     28  C   UNL d   1      -3.528   5.320 -11.504 -0.20 +0.01    +0.052 C 
DOCKED: ATOM     29  C   UNL d   1      -2.252   9.094 -14.522 -0.10 -0.00    +0.046 C 
DOCKED: ATOM     30  C   UNL d   1      -4.085   0.562  -9.778 -0.17 +0.01    +0.046 C 
DOCKED: ATOM     31  H   UNL d   1      -1.741   4.617 -13.601 +0.04 +0.00    +0.166 HD
DOCKED: ATOM     32  H   UNL d   1      -1.371   3.679 -11.814 +0.07 +0.01    +0.166 HD
DOCKED: ENDROOT
DOCKED: BRANCH   7  33
DOCKED: ATOM     33  C   UNL d   1       0.577  -1.312 -11.848 -0.15 +0.03    +0.141 C 
DOCKED: BRANCH  33  34
DOCKED: ATOM     34  C   UNL d   1       1.754  -2.242 -11.727 -0.10 +0.18    +0.306 C 
DOCKED: ATOM     35  O   UNL d   1       2.124  -2.808 -10.712 -0.62 -0.18    -0.251 OA
DOCKED: BRANCH  34  36
DOCKED: ATOM     36  O   UNL d   1       2.401  -2.414 -12.894 -0.20 -0.37    -0.481 OA
DOCKED: ATOM     37  H   UNL d   1       2.629  -1.506 -13.185 +0.11 +0.13    +0.295 HD
DOCKED: ENDBRANCH  34  36
DOCKED: ENDBRANCH  33  34
DOCKED: ENDBRANCH   7  33
DOCKED: BRANCH  27  38
DOCKED: ATOM     38  C   UNL d   1      -5.628   3.261 -10.247 -0.16 +0.00    +0.017 C 
DOCKED: ATOM     39  C   UNL d   1      -6.374   4.300 -10.651 -0.14 +0.03    +0.092 C 
DOCKED: BRANCH  39  40
DOCKED: ATOM     40  C   UNL d   1      -7.764   4.419 -10.203 -0.07 +0.14    +0.330 C 
DOCKED: ATOM     41  O   UNL d   1      -8.614   3.549 -10.179 -0.05 -0.06    -0.246 OA
DOCKED: BRANCH  40  42
DOCKED: ATOM     42  O   UNL d   1      -8.011   5.671  -9.788 -0.50 -0.37    -0.477 OA
DOCKED: ATOM     43  H   UNL d   1      -8.050   6.190 -10.618 +0.04 +0.13    +0.295 HD
DOCKED: ENDBRANCH  40  42
DOCKED: ENDBRANCH  39  40
DOCKED: ENDBRANCH  27  38
DOCKED: BRANCH   8  44
DOCKED: ATOM     44  C   UNL d   1       2.750   3.892 -17.210 -0.09 -0.01    +0.141 C 
DOCKED: BRANCH  44  45
DOCKED: ATOM     45  C   UNL d   1       3.315   5.188 -16.691 -0.13 -0.03    +0.306 C 
DOCKED: ATOM     46  O   UNL d   1       3.636   5.432 -15.541 -0.23 +0.04    -0.251 OA
DOCKED: BRANCH  45  47
DOCKED: ATOM     47  O   UNL d   1       3.420   6.125 -17.651 -0.01 +0.04    -0.481 OA
DOCKED: ATOM     48  H   UNL d   1       2.534   6.151 -18.070 +0.03 -0.02    +0.295 HD
DOCKED: ENDBRANCH  45  47
DOCKED: ENDBRANCH  44  45
DOCKED: ENDBRANCH   8  44
DOCKED: BRANCH  22  49
DOCKED: ATOM     49  C   UNL d   1      -4.006   8.331 -11.964 -0.14 +0.00    +0.048 C 
DOCKED: BRANCH  49  50
DOCKED: ATOM     50  C   UNL d   1      -5.483   8.145 -12.314 -0.04 +0.01    +0.125 C 
DOCKED: BRANCH  50  51
DOCKED: ATOM     51  C   UNL d   1      -6.355   8.408 -11.119 -0.04 +0.07    +0.305 C 
DOCKED: ATOM     52  O   UNL d   1      -7.045   9.389 -10.904 -0.06 -0.03    -0.251 OA
DOCKED: BRANCH  51  53
DOCKED: ATOM     53  O   UNL d   1      -6.303   7.400 -10.226 -0.57 -0.39    -0.481 OA
DOCKED: ATOM     54  H   UNL d   1      -7.212   7.360  -9.860 +0.06 +0.30    +0.295 HD
DOCKED: ENDBRANCH  51  53
DOCKED: ENDBRANCH  50  51
DOCKED: ENDBRANCH  49  50
DOCKED: ENDBRANCH  22  49
DOCKED: TORSDOF 13
DOCKED: TER
DOCKED: ENDMDL
________________________________________________________________________________


	BEGINNING GENETIC ALGORITHM DOCKING 68 of 100
Run: 68 Seed: 238486351 845891405 [ Run 68 of 100 GA/GALS ]
Beginning LAMARCKIAN GENETIC ALGORITHM (LGA), with a maximum of 25000000 energy evaluations.

Final-Value: -11.098


	FINAL GENETIC ALGORITHM DOCKED STATE
	_______________________________________________


Detailed state:  trans -11.436 -1.629 -8.470 quatxyzw 0.534758 0.699081 0.065628 0.470120 center 0.153 0.018 -0.028 ntor 13 173.9701 -130.4274 -92.1253 63.4462 -152.9247 12.1303 126.2362 -84.6676 6.1635 -46.8321 -85.4167 -52.8744 -16.8627
State:	-11.436  -1.629  -8.470   0.606  0.792  0.074 123.916    173.97 -130.43  -92.13   63.45 -152.92   12.13  126.24  -84.67    6.16  -46.83  -85.42  -52.87  -16.86

DOCKED: MODEL       68
DOCKED: USER    Run = 68
DOCKED: USER    DPF = D:/Protein_go_brrr/autodock/final/mut_Y35F/heme/dock.dpf
DOCKED: USER  
DOCKED: USER    Estimated Free Energy of Binding    =   -2.52 kcal/mol  [=(1)+(2)+(3)-(4)]
DOCKED: USER    Estimated Inhibition Constant, Ki   =   14.27 mM (millimolar)  [Temperature = 298.15 K]
DOCKED: USER    
DOCKED: USER    (1) Final Intermolecular Energy     =   -6.40 kcal/mol
DOCKED: USER        vdW + Hbond + desolv Energy     =   -6.28 kcal/mol
DOCKED: USER        Electrostatic Energy            =   -0.12 kcal/mol
DOCKED: USER    (2) Final Total Internal Energy     =   -4.70 kcal/mol
DOCKED: USER    (3) Torsional Free Energy           =   +3.88 kcal/mol
DOCKED: USER    (4) Unbound System's Energy  [=(2)] =   -4.70 kcal/mol
DOCKED: USER    
DOCKED: USER    
DOCKED: USER    NEWDPF move heme_opt.pdbqt
DOCKED: USER    NEWDPF about 0.153000 0.018000 -0.028000
DOCKED: USER    NEWDPF tran0 -11.436300 -1.628718 -8.469729
DOCKED: USER    NEWDPF quaternion0 0.534758 0.699081 0.065628 0.470120
DOCKED: USER    NEWDPF axisangle0 0.605887 0.792068 0.074357 123.915844
DOCKED: USER    NEWDPF quat0 0.605887 0.792068 0.074357 123.915844
DOCKED: USER    NEWDPF dihe0 173.97 -130.43 -92.13 63.45 -152.92 12.13 126.24 -84.67 6.16 -46.83 -85.42 -52.87 -16.86 
DOCKED: USER  keepresnum = 1 
DOCKED: USER  
DOCKED: REMARK  13 active torsions:
DOCKED: REMARK  status: ('A' for Active; 'I' for Inactive)
DOCKED: REMARK    1  A    between atoms: O_3  and  C_38 
DOCKED: REMARK    2  A    between atoms: O_4  and  C_40 
DOCKED: REMARK    3  A    between atoms: O_7  and  C_46 
DOCKED: REMARK    4  A    between atoms: O_9  and  C_48 
DOCKED: REMARK    5  A    between atoms: C_15  and  C_20 
DOCKED: REMARK    6  A    between atoms: C_16  and  C_23 
DOCKED: REMARK    7  A    between atoms: C_20  and  C_38 
DOCKED: REMARK    8  A    between atoms: C_23  and  C_40 
DOCKED: REMARK    9  A    between atoms: C_32  and  C_41 
DOCKED: REMARK   10  A    between atoms: C_37  and  C_45 
DOCKED: REMARK   11  A    between atoms: C_41  and  C_44 
DOCKED: REMARK   12  A    between atoms: C_44  and  C_46 
DOCKED: REMARK   13  A    between atoms: C_47  and  C_48 
DOCKED: USER                              x       y       z     vdW  Elec       q    Type
DOCKED: USER                           _______ _______ _______ _____ _____    ______ ____
DOCKED: ROOT
DOCKED: ATOM      1  O   UNL d   1     -10.528  -4.384 -13.602 -0.03 -0.00    -0.289 OA
DOCKED: ATOM      2  O   UNL d   1     -14.469  -6.423  -7.543 -0.04 -0.01    -0.289 OA
DOCKED: ATOM      3  N   UNL d   1     -10.664  -2.475 -10.733 -0.06 -0.02    -0.247 NA
DOCKED: ATOM      4  N   UNL d   1     -12.657  -3.905  -9.055 -0.09 -0.02    -0.247 NA
DOCKED: ATOM      5  N   UNL d   1     -12.759  -1.584  -7.361 -0.06 -0.03    -0.354 N 
DOCKED: ATOM      6  N   UNL d   1     -10.706  -0.100  -9.118 -0.04 -0.02    -0.354 N 
DOCKED: ATOM      7  C   UNL d   1      -9.713  -2.168 -12.970 -0.02 +0.00    +0.084 A 
DOCKED: ATOM      8  C   UNL d   1     -12.936  -6.300  -9.448 -0.31 +0.00    +0.084 A 
DOCKED: ATOM      9  C   UNL d   1     -12.298  -4.967  -9.854 -0.20 +0.00    +0.058 A 
DOCKED: ATOM     10  C   UNL d   1      -9.967  -1.615 -11.565 -0.05 +0.00    +0.058 A 
DOCKED: ATOM     11  C   UNL d   1     -10.373  -3.500 -12.779 -0.04 +0.01    +0.193 A 
DOCKED: ATOM     12  C   UNL d   1     -10.888  -3.575 -11.375 -0.08 +0.01    +0.109 A 
DOCKED: ATOM     13  C   UNL d   1     -13.752  -5.790  -8.294 -0.19 +0.01    +0.193 A 
DOCKED: ATOM     14  C   UNL d   1     -10.476  -1.386 -14.042 +0.00 +0.00    +0.026 C 
DOCKED: ATOM     15  C   UNL d   1     -11.501  -4.841 -10.926 -0.16 -0.00    +0.055 C 
DOCKED: ATOM     16  C   UNL d   1     -11.894  -7.289  -8.915 -0.19 -0.00    +0.026 C 
DOCKED: ATOM     17  C   UNL d   1     -13.500  -4.323  -8.166 -0.16 +0.01    +0.109 A 
DOCKED: ATOM     18  C   UNL d   1      -9.464  -0.429 -11.174 -0.05 +0.00    +0.050 C 
DOCKED: ATOM     19  C   UNL d   1      -9.576   0.123  -9.873 -0.09 +0.00    +0.045 A 
DOCKED: ATOM     20  C   UNL d   1     -13.815  -2.294  -6.851 -0.14 +0.00    +0.045 A 
DOCKED: ATOM     21  C   UNL d   1     -14.204  -3.540  -7.140 -0.18 +0.00    +0.057 C 
DOCKED: ATOM     22  C   UNL d   1     -13.776  -0.227  -5.878 -0.10 -0.00    -0.019 A 
DOCKED: ATOM     23  C   UNL d   1     -12.654  -0.324  -6.834 -0.12 +0.00    +0.045 A 
DOCKED: ATOM     24  C   UNL d   1     -14.458  -1.397  -5.892 -0.11 -0.00    -0.022 A 
DOCKED: ATOM     25  C   UNL d   1     -10.642   0.598  -7.935 -0.14 +0.00    +0.049 A 
DOCKED: ATOM     26  C   UNL d   1      -8.741   0.958  -9.146 -0.17 -0.00    -0.018 A 
DOCKED: ATOM     27  C   UNL d   1      -9.411   1.239  -7.915 -0.20 +0.00    +0.003 A 
DOCKED: ATOM     28  C   UNL d   1     -11.760   0.651  -7.058 -0.14 +0.00    +0.052 C 
DOCKED: ATOM     29  C   UNL d   1     -15.656  -1.788  -5.095 -0.11 +0.00    +0.046 C 
DOCKED: ATOM     30  C   UNL d   1      -7.403   1.463  -9.565 -0.19 +0.01    +0.046 C 
DOCKED: ATOM     31  H   UNL d   1     -12.097  -2.011  -8.001 +0.05 +0.02    +0.166 HD
DOCKED: ATOM     32  H   UNL d   1     -11.483  -0.671  -9.429 +0.03 +0.01    +0.166 HD
DOCKED: ENDROOT
DOCKED: BRANCH   7  33
DOCKED: ATOM     33  C   UNL d   1      -8.238  -2.348 -13.348 -0.03 +0.01    +0.141 C 
DOCKED: BRANCH  33  34
DOCKED: ATOM     34  C   UNL d   1      -7.481  -3.179 -12.348 -0.05 +0.03    +0.306 C 
DOCKED: ATOM     35  O   UNL d   1      -6.769  -2.757 -11.453 -0.11 -0.02    -0.251 OA
DOCKED: BRANCH  34  36
DOCKED: ATOM     36  O   UNL d   1      -7.664  -4.499 -12.527 -0.54 -0.07    -0.481 OA
DOCKED: ATOM     37  H   UNL d   1      -8.374  -4.561 -13.201 +0.03 +0.02    +0.295 HD
DOCKED: ENDBRANCH  34  36
DOCKED: ENDBRANCH  33  34
DOCKED: ENDBRANCH   7  33
DOCKED: BRANCH  27  38
DOCKED: ATOM     38  C   UNL d   1      -8.904   2.080  -6.873 -0.23 -0.00    +0.017 C 
DOCKED: ATOM     39  C   UNL d   1      -9.631   2.594  -5.870 -0.25 +0.00    +0.092 C 
DOCKED: BRANCH  39  40
DOCKED: ATOM     40  C   UNL d   1      -8.986   3.429  -4.853 -0.20 +0.07    +0.330 C 
DOCKED: ATOM     41  O   UNL d   1      -7.857   3.882  -4.870 -0.79 -0.11    -0.246 OA
DOCKED: BRANCH  40  42
DOCKED: ATOM     42  O   UNL d   1      -9.835   3.662  -3.840 -0.06 -0.07    -0.477 OA
DOCKED: ATOM     43  H   UNL d   1     -10.178   2.774  -3.612 +0.15 +0.01    +0.295 HD
DOCKED: ENDBRANCH  40  42
DOCKED: ENDBRANCH  39  40
DOCKED: ENDBRANCH  27  38
DOCKED: BRANCH   8  44
DOCKED: ATOM     44  C   UNL d   1     -13.830  -6.954 -10.506 -0.18 +0.01    +0.141 C 
DOCKED: BRANCH  44  45
DOCKED: ATOM     45  C   UNL d   1     -15.293  -6.653 -10.316 -0.07 +0.01    +0.306 C 
DOCKED: ATOM     46  O   UNL d   1     -15.881  -5.648 -10.677 -0.02 -0.01    -0.251 OA
DOCKED: BRANCH  45  47
DOCKED: ATOM     47  O   UNL d   1     -15.937  -7.629  -9.653 -0.05 -0.02    -0.481 OA
DOCKED: ATOM     48  H   UNL d   1     -15.819  -7.405  -8.705 +0.10 +0.01    +0.295 HD
DOCKED: ENDBRANCH  45  47
DOCKED: ENDBRANCH  44  45
DOCKED: ENDBRANCH   8  44
DOCKED: BRANCH  22  49
DOCKED: ATOM     49  C   UNL d   1     -14.082   0.992  -5.059 -0.07 +0.00    +0.048 C 
DOCKED: BRANCH  49  50
DOCKED: ATOM     50  C   UNL d   1     -13.570   0.858  -3.625 -0.15 +0.01    +0.125 C 
DOCKED: BRANCH  50  51
DOCKED: ATOM     51  C   UNL d   1     -12.218   1.494  -3.476 -0.15 +0.01    +0.305 C 
DOCKED: ATOM     52  O   UNL d   1     -11.128   0.967  -3.617 -0.29 +0.02    -0.251 OA
DOCKED: BRANCH  51  53
DOCKED: ATOM     53  O   UNL d   1     -12.308   2.796  -3.137 -0.01 -0.03    -0.481 OA
DOCKED: ATOM     54  H   UNL d   1     -11.903   3.268  -3.895 +0.08 +0.02    +0.295 HD
DOCKED: ENDBRANCH  51  53
DOCKED: ENDBRANCH  50  51
DOCKED: ENDBRANCH  49  50
DOCKED: ENDBRANCH  22  49
DOCKED: TORSDOF 13
DOCKED: TER
DOCKED: ENDMDL
________________________________________________________________________________


	BEGINNING GENETIC ALGORITHM DOCKING 69 of 100
Run: 69 Seed: 626375250 852990544 [ Run 69 of 100 GA/GALS ]
Beginning LAMARCKIAN GENETIC ALGORITHM (LGA), with a maximum of 25000000 energy evaluations.

Final-Value: -12.862


	FINAL GENETIC ALGORITHM DOCKED STATE
	_______________________________________________


Detailed state:  trans 3.511 -9.319 9.768 quatxyzw -0.903425 0.110736 0.227832 -0.345909 center 0.153 0.018 -0.028 ntor 13 -7.6470 -155.4271 146.6164 -56.2770 -126.8304 -0.7596 -48.1906 -124.4429 -168.7613 -106.4355 -82.5978 -60.6896 -5.0627
State:	  3.511  -9.319   9.768  -0.963  0.118  0.243 -139.525     -7.65 -155.43  146.62  -56.28 -126.83   -0.76  -48.19 -124.44 -168.76 -106.44  -82.60  -60.69   -5.06

DOCKED: MODEL       69
DOCKED: USER    Run = 69
DOCKED: USER    DPF = D:/Protein_go_brrr/autodock/final/mut_Y35F/heme/dock.dpf
DOCKED: USER  
DOCKED: USER    Estimated Free Energy of Binding    =   -5.41 kcal/mol  [=(1)+(2)+(3)-(4)]
DOCKED: USER    Estimated Inhibition Constant, Ki   =  107.82 uM (micromolar)  [Temperature = 298.15 K]
DOCKED: USER    
DOCKED: USER    (1) Final Intermolecular Energy     =   -9.29 kcal/mol
DOCKED: USER        vdW + Hbond + desolv Energy     =   -8.67 kcal/mol
DOCKED: USER        Electrostatic Energy            =   -0.62 kcal/mol
DOCKED: USER    (2) Final Total Internal Energy     =   -3.57 kcal/mol
DOCKED: USER    (3) Torsional Free Energy           =   +3.88 kcal/mol
DOCKED: USER    (4) Unbound System's Energy  [=(2)] =   -3.57 kcal/mol
DOCKED: USER    
DOCKED: USER    
DOCKED: USER    NEWDPF move heme_opt.pdbqt
DOCKED: USER    NEWDPF about 0.153000 0.018000 -0.028000
DOCKED: USER    NEWDPF tran0 3.511056 -9.319153 9.767523
DOCKED: USER    NEWDPF quaternion0 -0.903425 0.110736 0.227832 -0.345909
DOCKED: USER    NEWDPF axisangle0 -0.962865 0.118022 0.242822 -139.525384
DOCKED: USER    NEWDPF quat0 -0.962865 0.118022 0.242822 -139.525384
DOCKED: USER    NEWDPF dihe0 -7.65 -155.43 146.62 -56.28 -126.83 -0.76 -48.19 -124.44 -168.76 -106.44 -82.60 -60.69 -5.06 
DOCKED: USER  keepresnum = 1 
DOCKED: USER  
DOCKED: REMARK  13 active torsions:
DOCKED: REMARK  status: ('A' for Active; 'I' for Inactive)
DOCKED: REMARK    1  A    between atoms: O_3  and  C_38 
DOCKED: REMARK    2  A    between atoms: O_4  and  C_40 
DOCKED: REMARK    3  A    between atoms: O_7  and  C_46 
DOCKED: REMARK    4  A    between atoms: O_9  and  C_48 
DOCKED: REMARK    5  A    between atoms: C_15  and  C_20 
DOCKED: REMARK    6  A    between atoms: C_16  and  C_23 
DOCKED: REMARK    7  A    between atoms: C_20  and  C_38 
DOCKED: REMARK    8  A    between atoms: C_23  and  C_40 
DOCKED: REMARK    9  A    between atoms: C_32  and  C_41 
DOCKED: REMARK   10  A    between atoms: C_37  and  C_45 
DOCKED: REMARK   11  A    between atoms: C_41  and  C_44 
DOCKED: REMARK   12  A    between atoms: C_44  and  C_46 
DOCKED: REMARK   13  A    between atoms: C_47  and  C_48 
DOCKED: USER                              x       y       z     vdW  Elec       q    Type
DOCKED: USER                           _______ _______ _______ _____ _____    ______ ____
DOCKED: ROOT
DOCKED: ATOM      1  O   UNL d   1      -2.201  -9.887  11.111 -0.15 +0.04    -0.289 OA
DOCKED: ATOM      2  O   UNL d   1       3.458  -6.705  14.886 -0.06 +0.22    -0.289 OA
DOCKED: ATOM      3  N   UNL d   1       1.054  -9.915   9.972 -0.11 +0.03    -0.247 NA
DOCKED: ATOM      4  N   UNL d   1       2.479  -8.194  11.931 -0.11 +0.15    -0.247 NA
DOCKED: ATOM      5  N   UNL d   1       4.699  -8.113  10.106 -0.06 +0.08    -0.354 N 
DOCKED: ATOM      6  N   UNL d   1       3.206  -9.883   8.071 -0.10 -0.00    -0.354 N 
DOCKED: ATOM      7  C   UNL d   1      -1.106 -10.618   9.052 -0.26 -0.01    +0.084 A 
DOCKED: ATOM      8  C   UNL d   1       1.526  -8.031  14.175 -0.09 -0.05    +0.084 A 
DOCKED: ATOM      9  C   UNL d   1       1.415  -8.539  12.734 -0.15 -0.03    +0.058 A 
DOCKED: ATOM     10  C   UNL d   1       0.408 -10.469   8.879 -0.25 -0.01    +0.058 A 
DOCKED: ATOM     11  C   UNL d   1      -1.200 -10.066  10.442 -0.17 -0.03    +0.193 A 
DOCKED: ATOM     12  C   UNL d   1       0.178  -9.699  10.899 -0.17 -0.02    +0.109 A 
DOCKED: ATOM     13  C   UNL d   1       2.833  -7.302  14.031 -0.01 -0.18    +0.193 A 
DOCKED: ATOM     14  C   UNL d   1      -1.885  -9.704   8.102 -0.39 -0.00    +0.026 C 
DOCKED: ATOM     15  C   UNL d   1       0.347  -9.216  12.284 -0.18 -0.02    +0.055 C 
DOCKED: ATOM     16  C   UNL d   1       1.711  -9.181  15.170 -0.03 -0.01    +0.026 C 
DOCKED: ATOM     17  C   UNL d   1       3.300  -7.472  12.623 -0.04 -0.10    +0.109 A 
DOCKED: ATOM     18  C   UNL d   1       1.040 -10.932   7.784 -0.17 -0.01    +0.050 C 
DOCKED: ATOM     19  C   UNL d   1       2.443 -10.915   7.575 -0.27 -0.00    +0.045 A 
DOCKED: ATOM     20  C   UNL d   1       5.099  -7.161  11.006 -0.15 -0.02    +0.045 A 
DOCKED: ATOM     21  C   UNL d   1       4.543  -6.825  12.174 -0.15 -0.04    +0.057 C 
DOCKED: ATOM     22  C   UNL d   1       6.550  -7.164   9.241 -0.18 +0.00    -0.019 A 
DOCKED: ATOM     23  C   UNL d   1       5.513  -8.189   9.007 -0.20 -0.01    +0.045 A 
DOCKED: ATOM     24  C   UNL d   1       6.300  -6.560  10.427 -0.14 +0.00    -0.022 A 
DOCKED: ATOM     25  C   UNL d   1       4.517 -10.019   7.676 -0.17 -0.00    +0.049 A 
DOCKED: ATOM     26  C   UNL d   1       3.284 -11.763   6.872 -0.26 +0.00    -0.018 A 
DOCKED: ATOM     27  C   UNL d   1       4.596 -11.203   6.956 -0.11 -0.00    +0.003 A 
DOCKED: ATOM     28  C   UNL d   1       5.466  -8.993   7.934 -0.24 -0.00    +0.052 C 
DOCKED: ATOM     29  C   UNL d   1       7.069  -5.475  11.101 -0.13 -0.01    +0.046 C 
DOCKED: ATOM     30  C   UNL d   1       2.897 -13.019   6.167 -0.37 -0.01    +0.046 C 
DOCKED: ATOM     31  H   UNL d   1       3.922  -8.734  10.307 +0.05 -0.04    +0.166 HD
DOCKED: ATOM     32  H   UNL d   1       2.828  -9.116   8.614 +0.08 +0.01    +0.166 HD
DOCKED: ENDROOT
DOCKED: BRANCH   7  33
DOCKED: ATOM     33  C   UNL d   1      -1.635 -12.056   9.007 -0.17 -0.01    +0.141 C 
DOCKED: BRANCH  33  34
DOCKED: ATOM     34  C   UNL d   1      -2.645 -12.268   7.912 -0.23 -0.02    +0.306 C 
DOCKED: ATOM     35  O   UNL d   1      -3.791 -11.853   7.900 -0.28 +0.01    -0.251 OA
DOCKED: BRANCH  34  36
DOCKED: ATOM     36  O   UNL d   1      -2.156 -12.991   6.889 -0.23 +0.04    -0.481 OA
DOCKED: ATOM     37  H   UNL d   1      -2.939 -13.197   6.336 -0.32 -0.06    +0.295 HD
DOCKED: ENDBRANCH  34  36
DOCKED: ENDBRANCH  33  34
DOCKED: ENDBRANCH   7  33
DOCKED: BRANCH  27  38
DOCKED: ATOM     38  C   UNL d   1       5.770 -11.756   6.351 -0.22 -0.00    +0.017 C 
DOCKED: ATOM     39  C   UNL d   1       6.873 -11.065   6.025 -0.05 -0.01    +0.092 C 
DOCKED: BRANCH  39  40
DOCKED: ATOM     40  C   UNL d   1       8.017 -11.756   5.425 -0.21 -0.07    +0.330 C 
DOCKED: ATOM     41  O   UNL d   1       8.136 -12.946   5.206 -0.14 +0.05    -0.246 OA
DOCKED: BRANCH  40  42
DOCKED: ATOM     42  O   UNL d   1       8.979 -10.873   5.114 -0.26 +0.29    -0.477 OA
DOCKED: ATOM     43  H   UNL d   1       8.813 -10.122   5.721 +0.01 -0.21    +0.295 HD
DOCKED: ENDBRANCH  40  42
DOCKED: ENDBRANCH  39  40
DOCKED: ENDBRANCH  27  38
DOCKED: BRANCH   8  44
DOCKED: ATOM     44  C   UNL d   1       0.414  -7.079  14.628 -0.19 -0.09    +0.141 C 
DOCKED: BRANCH  44  45
DOCKED: ATOM     45  C   UNL d   1       0.825  -6.183  15.766 -0.10 -0.18    +0.306 C 
DOCKED: ATOM     46  O   UNL d   1       0.676  -6.403  16.955 -0.05 +0.08    -0.251 OA
DOCKED: BRANCH  45  47
DOCKED: ATOM     47  O   UNL d   1       1.383  -5.035  15.341 -0.07 +0.52    -0.481 OA
DOCKED: ATOM     48  H   UNL d   1       1.870  -5.282  14.526 -0.16 -0.65    +0.295 HD
DOCKED: ENDBRANCH  45  47
DOCKED: ENDBRANCH  44  45
DOCKED: ENDBRANCH   8  44
DOCKED: BRANCH  22  49
DOCKED: ATOM     49  C   UNL d   1       7.668  -6.864   8.287 -0.30 -0.00    +0.048 C 
DOCKED: BRANCH  49  50
DOCKED: ATOM     50  C   UNL d   1       8.891  -7.743   8.549 -0.18 +0.01    +0.125 C 
DOCKED: BRANCH  50  51
DOCKED: ATOM     51  C   UNL d   1       8.921  -8.914   7.608 -0.16 -0.04    +0.305 C 
DOCKED: ATOM     52  O   UNL d   1       9.083 -10.089   7.889 -0.10 +0.03    -0.251 OA
DOCKED: BRANCH  51  53
DOCKED: ATOM     53  O   UNL d   1       8.753  -8.535   6.326 -0.14 +0.29    -0.481 OA
DOCKED: ATOM     54  H   UNL d   1       9.547  -8.882   5.869 -0.39 -0.52    +0.295 HD
DOCKED: ENDBRANCH  51  53
DOCKED: ENDBRANCH  50  51
DOCKED: ENDBRANCH  49  50
DOCKED: ENDBRANCH  22  49
DOCKED: TORSDOF 13
DOCKED: TER
DOCKED: ENDMDL
________________________________________________________________________________


	BEGINNING GENETIC ALGORITHM DOCKING 70 of 100
Run: 70 Seed: 413967596 55887828 [ Run 70 of 100 GA/GALS ]
Beginning LAMARCKIAN GENETIC ALGORITHM (LGA), with a maximum of 25000000 energy evaluations.

Final-Value: -13.773


	FINAL GENETIC ALGORITHM DOCKED STATE
	_______________________________________________


Detailed state:  trans 2.950 -15.978 -8.677 quatxyzw 0.739287 -0.028557 0.456245 -0.494448 center 0.153 0.018 -0.028 ntor 13 111.9367 73.8604 111.3976 93.1578 -141.6332 -111.7618 -45.0632 172.3345 61.1423 -131.9888 64.3729 -31.6016 150.0483
State:	  2.950 -15.978  -8.677   0.851 -0.033  0.525 -120.733    111.94   73.86  111.40   93.16 -141.63 -111.76  -45.06  172.33   61.14 -131.99   64.37  -31.60  150.05

DOCKED: MODEL       70
DOCKED: USER    Run = 70
DOCKED: USER    DPF = D:/Protein_go_brrr/autodock/final/mut_Y35F/heme/dock.dpf
DOCKED: USER  
DOCKED: USER    Estimated Free Energy of Binding    =   -7.36 kcal/mol  [=(1)+(2)+(3)-(4)]
DOCKED: USER    Estimated Inhibition Constant, Ki   =    4.04 uM (micromolar)  [Temperature = 298.15 K]
DOCKED: USER    
DOCKED: USER    (1) Final Intermolecular Energy     =  -11.24 kcal/mol
DOCKED: USER        vdW + Hbond + desolv Energy     =  -10.58 kcal/mol
DOCKED: USER        Electrostatic Energy            =   -0.66 kcal/mol
DOCKED: USER    (2) Final Total Internal Energy     =   -2.54 kcal/mol
DOCKED: USER    (3) Torsional Free Energy           =   +3.88 kcal/mol
DOCKED: USER    (4) Unbound System's Energy  [=(2)] =   -2.54 kcal/mol
DOCKED: USER    
DOCKED: USER    
DOCKED: USER    NEWDPF move heme_opt.pdbqt
DOCKED: USER    NEWDPF about 0.153000 0.018000 -0.028000
DOCKED: USER    NEWDPF tran0 2.950046 -15.977830 -8.676742
DOCKED: USER    NEWDPF quaternion0 0.739287 -0.028557 0.456245 -0.494448
DOCKED: USER    NEWDPF axisangle0 0.850531 -0.032854 0.524898 -120.733223
DOCKED: USER    NEWDPF quat0 0.850531 -0.032854 0.524898 -120.733223
DOCKED: USER    NEWDPF dihe0 111.94 73.86 111.40 93.16 -141.63 -111.76 -45.06 172.33 61.14 -131.99 64.37 -31.60 150.05 
DOCKED: USER  keepresnum = 1 
DOCKED: USER  
DOCKED: REMARK  13 active torsions:
DOCKED: REMARK  status: ('A' for Active; 'I' for Inactive)
DOCKED: REMARK    1  A    between atoms: O_3  and  C_38 
DOCKED: REMARK    2  A    between atoms: O_4  and  C_40 
DOCKED: REMARK    3  A    between atoms: O_7  and  C_46 
DOCKED: REMARK    4  A    between atoms: O_9  and  C_48 
DOCKED: REMARK    5  A    between atoms: C_15  and  C_20 
DOCKED: REMARK    6  A    between atoms: C_16  and  C_23 
DOCKED: REMARK    7  A    between atoms: C_20  and  C_38 
DOCKED: REMARK    8  A    between atoms: C_23  and  C_40 
DOCKED: REMARK    9  A    between atoms: C_32  and  C_41 
DOCKED: REMARK   10  A    between atoms: C_37  and  C_45 
DOCKED: REMARK   11  A    between atoms: C_41  and  C_44 
DOCKED: REMARK   12  A    between atoms: C_44  and  C_46 
DOCKED: REMARK   13  A    between atoms: C_47  and  C_48 
DOCKED: USER                              x       y       z     vdW  Elec       q    Type
DOCKED: USER                           _______ _______ _______ _____ _____    ______ ____
DOCKED: ROOT
DOCKED: ATOM      1  O   UNL d   1      -0.730 -19.623 -11.491 -0.08 -0.03    -0.289 OA
DOCKED: ATOM      2  O   UNL d   1       2.774 -13.400 -13.811 -0.16 +0.05    -0.289 OA
DOCKED: ATOM      3  N   UNL d   1       1.254 -17.713  -9.415 -0.15 +0.08    -0.247 NA
DOCKED: ATOM      4  N   UNL d   1       2.420 -15.692 -11.255 -0.15 +0.08    -0.247 NA
DOCKED: ATOM      5  N   UNL d   1       4.296 -15.022  -9.182 -0.11 +0.16    -0.354 N 
DOCKED: ATOM      6  N   UNL d   1       3.092 -17.134  -7.287 +0.00 +0.17    -0.354 N 
DOCKED: ATOM      7  C   UNL d   1       0.090 -19.859  -9.201 -0.10 -0.02    +0.084 A 
DOCKED: ATOM      8  C   UNL d   1       1.147 -15.147 -13.269 -0.14 -0.01    +0.084 A 
DOCKED: ATOM      9  C   UNL d   1       1.314 -16.008 -12.012 -0.20 -0.01    +0.058 A 
DOCKED: ATOM     10  C   UNL d   1       0.986 -18.784  -8.579 -0.17 -0.02    +0.058 A 
DOCKED: ATOM     11  C   UNL d   1      -0.117 -19.198 -10.530 -0.10 -0.01    +0.193 A 
DOCKED: ATOM     12  C   UNL d   1       0.617 -17.892 -10.527 -0.18 -0.02    +0.109 A 
DOCKED: ATOM     13  C   UNL d   1       2.383 -14.309 -13.104 -0.12 -0.05    +0.193 A 
DOCKED: ATOM     14  C   UNL d   1       0.839 -21.177  -9.415 -0.04 -0.00    +0.026 C 
DOCKED: ATOM     15  C   UNL d   1       0.481 -17.015 -11.707 -0.23 -0.00    +0.055 C 
DOCKED: ATOM     16  C   UNL d   1      -0.081 -14.236 -13.174 -0.19 -0.00    +0.026 C 
DOCKED: ATOM     17  C   UNL d   1       3.069 -14.743 -11.850 -0.08 -0.04    +0.109 A 
DOCKED: ATOM     18  C   UNL d   1       1.388 -18.859  -7.297 -0.20 -0.02    +0.050 C 
DOCKED: ATOM     19  C   UNL d   1       2.146 -17.873  -6.613 -0.21 -0.02    +0.045 A 
DOCKED: ATOM     20  C   UNL d   1       4.838 -14.320 -10.227 -0.28 -0.02    +0.045 A 
DOCKED: ATOM     21  C   UNL d   1       4.342 -14.123 -11.452 -0.27 -0.02    +0.057 C 
DOCKED: ATOM     22  C   UNL d   1       6.264 -14.212  -8.445 -0.23 +0.01    -0.019 A 
DOCKED: ATOM     23  C   UNL d   1       5.085 -15.014  -8.063 -0.24 -0.02    +0.045 A 
DOCKED: ATOM     24  C   UNL d   1       6.112 -13.803  -9.726 -0.25 +0.01    -0.022 A 
DOCKED: ATOM     25  C   UNL d   1       3.767 -16.308  -6.418 -0.07 -0.02    +0.049 A 
DOCKED: ATOM     26  C   UNL d   1       2.181 -17.491  -5.281 -0.28 +0.01    -0.018 A 
DOCKED: ATOM     27  C   UNL d   1       3.193 -16.488  -5.168 -0.31 -0.00    +0.003 A 
DOCKED: ATOM     28  C   UNL d   1       4.897 -15.561  -6.852 -0.25 -0.02    +0.052 C 
DOCKED: ATOM     29  C   UNL d   1       7.025 -12.963 -10.552 -0.19 -0.02    +0.046 C 
DOCKED: ATOM     30  C   UNL d   1       1.327 -18.021  -4.180 -0.29 -0.02    +0.046 C 
DOCKED: ATOM     31  H   UNL d   1       3.366 -15.423  -9.244 -0.37 -0.10    +0.166 HD
DOCKED: ATOM     32  H   UNL d   1       3.279 -17.232  -8.278 -0.06 -0.07    +0.166 HD
DOCKED: ENDROOT
DOCKED: BRANCH   7  33
DOCKED: ATOM     33  C   UNL d   1      -1.252 -20.083  -8.496 -0.19 -0.07    +0.141 C 
DOCKED: BRANCH  33  34
DOCKED: ATOM     34  C   UNL d   1      -2.419 -19.576  -9.300 -0.27 -0.05    +0.306 C 
DOCKED: ATOM     35  O   UNL d   1      -2.869 -18.443  -9.281 -0.65 +0.01    -0.251 OA
DOCKED: BRANCH  34  36
DOCKED: ATOM     36  O   UNL d   1      -2.957 -20.525 -10.087 -0.11 -0.05    -0.481 OA
DOCKED: ATOM     37  H   UNL d   1      -2.287 -20.673 -10.787 +0.08 +0.05    +0.295 HD
DOCKED: ENDBRANCH  34  36
DOCKED: ENDBRANCH  33  34
DOCKED: ENDBRANCH   7  33
DOCKED: BRANCH  27  38
DOCKED: ATOM     38  C   UNL d   1       3.570 -15.830  -3.953 -0.36 -0.00    +0.017 C 
DOCKED: ATOM     39  C   UNL d   1       4.450 -14.822  -3.860 -0.41 -0.03    +0.092 C 
DOCKED: BRANCH  39  40
DOCKED: ATOM     40  C   UNL d   1       4.736 -14.221  -2.554 -0.31 -0.08    +0.330 C 
DOCKED: ATOM     41  O   UNL d   1       4.481 -13.091  -2.184 -1.07 +0.00    -0.246 OA
DOCKED: BRANCH  40  42
DOCKED: ATOM     42  O   UNL d   1       5.342 -15.115  -1.757 -0.26 +0.15    -0.477 OA
DOCKED: ATOM     43  H   UNL d   1       4.645 -15.368  -1.117 -0.41 -0.19    +0.295 HD
DOCKED: ENDBRANCH  40  42
DOCKED: ENDBRANCH  39  40
DOCKED: ENDBRANCH  27  38
DOCKED: BRANCH   8  44
DOCKED: ATOM     44  C   UNL d   1       1.172 -15.907 -14.599 -0.04 +0.00    +0.141 C 
DOCKED: BRANCH  44  45
DOCKED: ATOM     45  C   UNL d   1       0.965 -15.017 -15.796 -0.00 +0.00    +0.306 C 
DOCKED: ATOM     46  O   UNL d   1      -0.102 -14.718 -16.303 -0.01 -0.01    -0.251 OA
DOCKED: BRANCH  45  47
DOCKED: ATOM     47  O   UNL d   1       2.124 -14.570 -16.311 +0.01 +0.01    -0.481 OA
DOCKED: ATOM     48  H   UNL d   1       2.470 -13.945 -15.639 +0.04 -0.01    +0.295 HD
DOCKED: ENDBRANCH  45  47
DOCKED: ENDBRANCH  44  45
DOCKED: ENDBRANCH   8  44
DOCKED: BRANCH  22  49
DOCKED: ATOM     49  C   UNL d   1       7.425 -13.935  -7.536 -0.20 -0.04    +0.048 C 
DOCKED: BRANCH  49  50
DOCKED: ATOM     50  C   UNL d   1       8.210 -15.207  -7.212 -0.10 -0.08    +0.125 C 
DOCKED: BRANCH  50  51
DOCKED: ATOM     51  C   UNL d   1       8.109 -15.542  -5.751 -0.08 -0.23    +0.305 C 
DOCKED: ATOM     52  O   UNL d   1       8.410 -16.590  -5.207 -0.03 +0.13    -0.251 OA
DOCKED: BRANCH  51  53
DOCKED: ATOM     53  O   UNL d   1       7.611 -14.517  -5.032 -0.16 +0.57    -0.481 OA
DOCKED: ATOM     54  H   UNL d   1       8.399 -13.979  -4.806 -0.36 -0.73    +0.295 HD
DOCKED: ENDBRANCH  51  53
DOCKED: ENDBRANCH  50  51
DOCKED: ENDBRANCH  49  50
DOCKED: ENDBRANCH  22  49
DOCKED: TORSDOF 13
DOCKED: TER
DOCKED: ENDMDL
________________________________________________________________________________


	BEGINNING GENETIC ALGORITHM DOCKING 71 of 100
Run: 71 Seed: 426923120 705399371 [ Run 71 of 100 GA/GALS ]
Beginning LAMARCKIAN GENETIC ALGORITHM (LGA), with a maximum of 25000000 energy evaluations.

Final-Value: -11.702


	FINAL GENETIC ALGORITHM DOCKED STATE
	_______________________________________________


Detailed state:  trans 2.155 -10.065 8.654 quatxyzw 0.323641 0.298595 -0.055392 -0.896119 center 0.153 0.018 -0.028 ntor 13 -133.8631 82.3238 -121.9669 -120.9118 -154.7153 -57.3332 124.9255 -33.7486 -162.9373 -28.6975 67.9067 -169.1434 140.4770
State:	  2.155 -10.065   8.654   0.729  0.673 -0.125 -52.695   -133.86   82.32 -121.97 -120.91 -154.72  -57.33  124.93  -33.75 -162.94  -28.70   67.91 -169.14  140.48

DOCKED: MODEL       71
DOCKED: USER    Run = 71
DOCKED: USER    DPF = D:/Protein_go_brrr/autodock/final/mut_Y35F/heme/dock.dpf
DOCKED: USER  
DOCKED: USER    Estimated Free Energy of Binding    =   -5.94 kcal/mol  [=(1)+(2)+(3)-(4)]
DOCKED: USER    Estimated Inhibition Constant, Ki   =   44.50 uM (micromolar)  [Temperature = 298.15 K]
DOCKED: USER    
DOCKED: USER    (1) Final Intermolecular Energy     =   -9.81 kcal/mol
DOCKED: USER        vdW + Hbond + desolv Energy     =   -9.24 kcal/mol
DOCKED: USER        Electrostatic Energy            =   -0.57 kcal/mol
DOCKED: USER    (2) Final Total Internal Energy     =   -1.89 kcal/mol
DOCKED: USER    (3) Torsional Free Energy           =   +3.88 kcal/mol
DOCKED: USER    (4) Unbound System's Energy  [=(2)] =   -1.89 kcal/mol
DOCKED: USER    
DOCKED: USER    
DOCKED: USER    NEWDPF move heme_opt.pdbqt
DOCKED: USER    NEWDPF about 0.153000 0.018000 -0.028000
DOCKED: USER    NEWDPF tran0 2.155420 -10.064760 8.653966
DOCKED: USER    NEWDPF quaternion0 0.323641 0.298595 -0.055392 -0.896119
DOCKED: USER    NEWDPF axisangle0 0.729227 0.672793 -0.124808 -52.694940
DOCKED: USER    NEWDPF quat0 0.729227 0.672793 -0.124808 -52.694940
DOCKED: USER    NEWDPF dihe0 -133.86 82.32 -121.97 -120.91 -154.72 -57.33 124.93 -33.75 -162.94 -28.70 67.91 -169.14 140.48 
DOCKED: USER  keepresnum = 1 
DOCKED: USER  
DOCKED: REMARK  13 active torsions:
DOCKED: REMARK  status: ('A' for Active; 'I' for Inactive)
DOCKED: REMARK    1  A    between atoms: O_3  and  C_38 
DOCKED: REMARK    2  A    between atoms: O_4  and  C_40 
DOCKED: REMARK    3  A    between atoms: O_7  and  C_46 
DOCKED: REMARK    4  A    between atoms: O_9  and  C_48 
DOCKED: REMARK    5  A    between atoms: C_15  and  C_20 
DOCKED: REMARK    6  A    between atoms: C_16  and  C_23 
DOCKED: REMARK    7  A    between atoms: C_20  and  C_38 
DOCKED: REMARK    8  A    between atoms: C_23  and  C_40 
DOCKED: REMARK    9  A    between atoms: C_32  and  C_41 
DOCKED: REMARK   10  A    between atoms: C_37  and  C_45 
DOCKED: REMARK   11  A    between atoms: C_41  and  C_44 
DOCKED: REMARK   12  A    between atoms: C_44  and  C_46 
DOCKED: REMARK   13  A    between atoms: C_47  and  C_48 
DOCKED: USER                              x       y       z     vdW  Elec       q    Type
DOCKED: USER                           _______ _______ _______ _____ _____    ______ ____
DOCKED: ROOT
DOCKED: ATOM      1  O   UNL d   1      -1.603  -9.665  13.178 +0.04 +0.04    -0.289 OA
DOCKED: ATOM      2  O   UNL d   1      -2.218 -13.147   6.554 -0.35 +0.03    -0.289 OA
DOCKED: ATOM      3  N   UNL d   1       0.843  -9.508  10.751 -0.12 +0.05    -0.247 NA
DOCKED: ATOM      4  N   UNL d   1      -0.134 -11.395   8.674 -0.12 +0.03    -0.247 NA
DOCKED: ATOM      5  N   UNL d   1       2.479 -11.289   7.481 -0.11 +0.05    -0.354 N 
DOCKED: ATOM      6  N   UNL d   1       3.490  -9.346   9.650 -0.05 +0.04    -0.354 N 
DOCKED: ATOM      7  C   UNL d   1       0.656  -8.736  13.070 -0.14 -0.03    +0.084 A 
DOCKED: ATOM      8  C   UNL d   1      -2.545 -11.775   8.554 -0.24 -0.01    +0.084 A 
DOCKED: ATOM      9  C   UNL d   1      -1.350 -11.134   9.267 -0.20 -0.01    +0.058 A 
DOCKED: ATOM     10  C   UNL d   1       1.487  -8.857  11.790 -0.17 -0.02    +0.058 A 
DOCKED: ATOM     11  C   UNL d   1      -0.581  -9.417  12.565 -0.06 -0.04    +0.193 A 
DOCKED: ATOM     12  C   UNL d   1      -0.352  -9.815  11.140 -0.16 -0.02    +0.109 A 
DOCKED: ATOM     13  C   UNL d   1      -1.779 -12.478   7.469 -0.22 -0.01    +0.193 A 
DOCKED: ATOM     14  C   UNL d   1       1.243  -9.562  14.217 -0.05 -0.01    +0.026 C 
DOCKED: ATOM     15  C   UNL d   1      -1.475 -10.425  10.399 -0.25 -0.01    +0.055 C 
DOCKED: ATOM     16  C   UNL d   1      -3.454 -10.722   7.912 -0.52 -0.00    +0.026 C 
DOCKED: ATOM     17  C   UNL d   1      -0.329 -12.173   7.659 -0.14 -0.01    +0.109 A 
DOCKED: ATOM     18  C   UNL d   1       2.704  -8.289  11.685 -0.19 -0.03    +0.050 C 
DOCKED: ATOM     19  C   UNL d   1       3.508  -8.277  10.517 -0.17 -0.01    +0.045 A 
DOCKED: ATOM     20  C   UNL d   1       1.933 -12.319   6.760 -0.32 -0.01    +0.045 A 
DOCKED: ATOM     21  C   UNL d   1       0.673 -12.767   6.761 -0.32 -0.01    +0.057 C 
DOCKED: ATOM     22  C   UNL d   1       4.148 -12.140   6.230 -0.25 +0.00    -0.019 A 
DOCKED: ATOM     23  C   UNL d   1       3.813 -11.105   7.228 -0.21 -0.01    +0.045 A 
DOCKED: ATOM     24  C   UNL d   1       3.031 -12.855   5.956 -0.37 +0.01    -0.022 A 
DOCKED: ATOM     25  C   UNL d   1       4.406  -9.165   8.641 -0.19 -0.00    +0.049 A 
DOCKED: ATOM     26  C   UNL d   1       4.432  -7.361  10.039 -0.25 +0.01    -0.018 A 
DOCKED: ATOM     27  C   UNL d   1       4.982  -7.918   8.843 -0.28 -0.00    +0.003 A 
DOCKED: ATOM     28  C   UNL d   1       4.682 -10.204   7.711 -0.20 -0.00    +0.052 C 
DOCKED: ATOM     29  C   UNL d   1       2.860 -13.993   5.009 -0.40 -0.02    +0.046 C 
DOCKED: ATOM     30  C   UNL d   1       4.783  -6.048  10.651 -0.24 -0.03    +0.046 C 
DOCKED: ATOM     31  H   UNL d   1       1.904 -10.695   8.069 +0.07 -0.01    +0.166 HD
DOCKED: ATOM     32  H   UNL d   1       2.905 -10.163   9.780 +0.05 -0.02    +0.166 HD
DOCKED: ENDROOT
DOCKED: BRANCH   7  33
DOCKED: ATOM     33  C   UNL d   1       0.338  -7.304  13.514 -0.23 -0.11    +0.141 C 
DOCKED: BRANCH  33  34
DOCKED: ATOM     34  C   UNL d   1       0.973  -6.951  14.831 -0.09 -0.23    +0.306 C 
DOCKED: ATOM     35  O   UNL d   1       0.419  -6.937  15.918 -0.09 +0.10    -0.251 OA
DOCKED: BRANCH  34  36
DOCKED: ATOM     36  O   UNL d   1       2.276  -6.638  14.711 +0.00 +0.51    -0.481 OA
DOCKED: ATOM     37  H   UNL d   1       2.318  -6.060  13.920 -0.40 -0.74    +0.295 HD
DOCKED: ENDBRANCH  34  36
DOCKED: ENDBRANCH  33  34
DOCKED: ENDBRANCH   7  33
DOCKED: BRANCH  27  38
DOCKED: ATOM     38  C   UNL d   1       5.990  -7.302   8.033 -0.30 -0.00    +0.017 C 
DOCKED: ATOM     39  C   UNL d   1       7.127  -6.759   8.493 -0.22 -0.01    +0.092 C 
DOCKED: BRANCH  39  40
DOCKED: ATOM     40  C   UNL d   1       8.088  -6.174   7.554 -0.24 -0.02    +0.330 C 
DOCKED: ATOM     41  O   UNL d   1       8.659  -6.727   6.634 -0.31 +0.04    -0.246 OA
DOCKED: BRANCH  40  42
DOCKED: ATOM     42  O   UNL d   1       8.274  -4.875   7.834 -0.21 +0.03    -0.477 OA
DOCKED: ATOM     43  H   UNL d   1       7.684  -4.412   7.204 -0.21 -0.08    +0.295 HD
DOCKED: ENDBRANCH  40  42
DOCKED: ENDBRANCH  39  40
DOCKED: ENDBRANCH  27  38
DOCKED: BRANCH   8  44
DOCKED: ATOM     44  C   UNL d   1      -3.355 -12.772   9.388 -0.13 -0.01    +0.141 C 
DOCKED: BRANCH  44  45
DOCKED: ATOM     45  C   UNL d   1      -2.702 -14.124   9.498 -0.05 -0.01    +0.306 C 
DOCKED: ATOM     46  O   UNL d   1      -1.803 -14.437  10.259 -0.03 +0.01    -0.251 OA
DOCKED: BRANCH  45  47
DOCKED: ATOM     47  O   UNL d   1      -3.201 -15.010   8.617 -0.02 +0.01    -0.481 OA
DOCKED: ATOM     48  H   UNL d   1      -3.064 -14.591   7.740 +0.08 -0.02    +0.295 HD
DOCKED: ENDBRANCH  45  47
DOCKED: ENDBRANCH  44  45
DOCKED: ENDBRANCH   8  44
DOCKED: BRANCH  22  49
DOCKED: ATOM     49  C   UNL d   1       5.518 -12.342   5.653 -0.27 -0.01    +0.048 C 
DOCKED: BRANCH  49  50
DOCKED: ATOM     50  C   UNL d   1       6.561 -12.596   6.741 -0.11 -0.02    +0.125 C 
DOCKED: BRANCH  50  51
DOCKED: ATOM     51  C   UNL d   1       7.514 -11.440   6.851 -0.09 -0.05    +0.305 C 
DOCKED: ATOM     52  O   UNL d   1       7.996 -10.785   5.944 -0.25 +0.07    -0.251 OA
DOCKED: BRANCH  51  53
DOCKED: ATOM     53  O   UNL d   1       7.829 -11.167   8.133 +0.01 +0.05    -0.481 OA
DOCKED: ATOM     54  H   UNL d   1       8.221 -12.002   8.465 +0.04 -0.03    +0.295 HD
DOCKED: ENDBRANCH  51  53
DOCKED: ENDBRANCH  50  51
DOCKED: ENDBRANCH  49  50
DOCKED: ENDBRANCH  22  49
DOCKED: TORSDOF 13
DOCKED: TER
DOCKED: ENDMDL
________________________________________________________________________________


	BEGINNING GENETIC ALGORITHM DOCKING 72 of 100
Run: 72 Seed: 1695794834 696254274 [ Run 72 of 100 GA/GALS ]
Beginning LAMARCKIAN GENETIC ALGORITHM (LGA), with a maximum of 25000000 energy evaluations.

Final-Value: -10.207


	FINAL GENETIC ALGORITHM DOCKED STATE
	_______________________________________________


Detailed state:  trans 7.602 8.663 -15.500 quatxyzw 0.945743 0.271001 0.149613 -0.098713 center 0.153 0.018 -0.028 ntor 13 -99.3478 58.2263 -168.0436 -127.4058 37.2203 148.1753 138.4292 -31.5584 127.4681 -11.1330 135.1784 -48.7232 24.1960
State:	  7.602   8.663 -15.500   0.950  0.272  0.150 -168.670    -99.35   58.23 -168.04 -127.41   37.22  148.18  138.43  -31.56  127.47  -11.13  135.18  -48.72   24.20

DOCKED: MODEL       72
DOCKED: USER    Run = 72
DOCKED: USER    DPF = D:/Protein_go_brrr/autodock/final/mut_Y35F/heme/dock.dpf
DOCKED: USER  
DOCKED: USER    Estimated Free Energy of Binding    =   -3.61 kcal/mol  [=(1)+(2)+(3)-(4)]
DOCKED: USER    Estimated Inhibition Constant, Ki   =    2.24 mM (millimolar)  [Temperature = 298.15 K]
DOCKED: USER    
DOCKED: USER    (1) Final Intermolecular Energy     =   -7.49 kcal/mol
DOCKED: USER        vdW + Hbond + desolv Energy     =   -7.41 kcal/mol
DOCKED: USER        Electrostatic Energy            =   -0.08 kcal/mol
DOCKED: USER    (2) Final Total Internal Energy     =   -2.71 kcal/mol
DOCKED: USER    (3) Torsional Free Energy           =   +3.88 kcal/mol
DOCKED: USER    (4) Unbound System's Energy  [=(2)] =   -2.71 kcal/mol
DOCKED: USER    
DOCKED: USER    
DOCKED: USER    NEWDPF move heme_opt.pdbqt
DOCKED: USER    NEWDPF about 0.153000 0.018000 -0.028000
DOCKED: USER    NEWDPF tran0 7.601728 8.663135 -15.499950
DOCKED: USER    NEWDPF quaternion0 0.945743 0.271001 0.149613 -0.098713
DOCKED: USER    NEWDPF axisangle0 0.950385 0.272331 0.150348 -168.669847
DOCKED: USER    NEWDPF quat0 0.950385 0.272331 0.150348 -168.669847
DOCKED: USER    NEWDPF dihe0 -99.35 58.23 -168.04 -127.41 37.22 148.18 138.43 -31.56 127.47 -11.13 135.18 -48.72 24.20 
DOCKED: USER  keepresnum = 1 
DOCKED: USER  
DOCKED: REMARK  13 active torsions:
DOCKED: REMARK  status: ('A' for Active; 'I' for Inactive)
DOCKED: REMARK    1  A    between atoms: O_3  and  C_38 
DOCKED: REMARK    2  A    between atoms: O_4  and  C_40 
DOCKED: REMARK    3  A    between atoms: O_7  and  C_46 
DOCKED: REMARK    4  A    between atoms: O_9  and  C_48 
DOCKED: REMARK    5  A    between atoms: C_15  and  C_20 
DOCKED: REMARK    6  A    between atoms: C_16  and  C_23 
DOCKED: REMARK    7  A    between atoms: C_20  and  C_38 
DOCKED: REMARK    8  A    between atoms: C_23  and  C_40 
DOCKED: REMARK    9  A    between atoms: C_32  and  C_41 
DOCKED: REMARK   10  A    between atoms: C_37  and  C_45 
DOCKED: REMARK   11  A    between atoms: C_41  and  C_44 
DOCKED: REMARK   12  A    between atoms: C_44  and  C_46 
DOCKED: REMARK   13  A    between atoms: C_47  and  C_48 
DOCKED: USER                              x       y       z     vdW  Elec       q    Type
DOCKED: USER                           _______ _______ _______ _____ _____    ______ ____
DOCKED: ROOT
DOCKED: ATOM      1  O   UNL d   1       4.100   4.145 -16.942 -0.09 +0.02    -0.289 OA
DOCKED: ATOM      2  O   UNL d   1       2.582  11.429 -15.930 -0.06 +0.01    -0.289 OA
DOCKED: ATOM      3  N   UNL d   1       6.487   6.431 -15.956 -0.20 +0.06    -0.247 NA
DOCKED: ATOM      4  N   UNL d   1       5.054   9.029 -16.121 -0.13 +0.03    -0.247 NA
DOCKED: ATOM      5  N   UNL d   1       7.601  10.343 -15.897 +0.04 +0.01    -0.354 N 
DOCKED: ATOM      6  N   UNL d   1       9.082   7.643 -15.746 -0.09 +0.06    -0.354 N 
DOCKED: ATOM      7  C   UNL d   1       6.517   4.063 -16.589 -0.20 -0.01    +0.084 A 
DOCKED: ATOM      8  C   UNL d   1       2.623   8.982 -15.873 -0.17 -0.01    +0.084 A 
DOCKED: ATOM      9  C   UNL d   1       3.946   8.220 -15.996 -0.20 -0.01    +0.058 A 
DOCKED: ATOM     10  C   UNL d   1       7.282   5.313 -16.141 -0.22 -0.01    +0.058 A 
DOCKED: ATOM     11  C   UNL d   1       5.146   4.669 -16.606 -0.17 -0.02    +0.193 A 
DOCKED: ATOM     12  C   UNL d   1       5.257   6.100 -16.179 -0.24 -0.02    +0.109 A 
DOCKED: ATOM     13  C   UNL d   1       3.181  10.373 -15.989 -0.10 -0.01    +0.193 A 
DOCKED: ATOM     14  C   UNL d   1       6.890   3.641 -18.012 -0.09 -0.00    +0.026 C 
DOCKED: ATOM     15  C   UNL d   1       4.011   6.880 -16.031 -0.24 -0.01    +0.055 C 
DOCKED: ATOM     16  C   UNL d   1       1.999   8.816 -14.484 -0.37 -0.01    +0.026 C 
DOCKED: ATOM     17  C   UNL d   1       4.663  10.263 -16.142 -0.13 -0.01    +0.109 A 
DOCKED: ATOM     18  C   UNL d   1       8.600   5.271 -15.870 -0.22 -0.01    +0.050 C 
DOCKED: ATOM     19  C   UNL d   1       9.372   6.351 -15.372 -0.23 -0.01    +0.045 A 
DOCKED: ATOM     20  C   UNL d   1       6.810  11.416 -16.215 -0.11 -0.00    +0.045 A 
DOCKED: ATOM     21  C   UNL d   1       5.478  11.473 -16.322 -0.12 -0.00    +0.057 C 
DOCKED: ATOM     22  C   UNL d   1       8.995  12.083 -16.222 -0.07 +0.00    -0.019 A 
DOCKED: ATOM     23  C   UNL d   1       8.936  10.648 -15.877 -0.06 -0.00    +0.045 A 
DOCKED: ATOM     24  C   UNL d   1       7.733  12.532 -16.420 -0.07 +0.00    -0.022 A 
DOCKED: ATOM     25  C   UNL d   1      10.006   8.518 -15.222 -0.13 -0.01    +0.049 A 
DOCKED: ATOM     26  C   UNL d   1      10.491   6.390 -14.554 -0.40 +0.00    -0.018 A 
DOCKED: ATOM     27  C   UNL d   1      10.875   7.762 -14.447 -0.32 -0.00    +0.003 A 
DOCKED: ATOM     28  C   UNL d   1      10.006   9.889 -15.596 -0.13 -0.00    +0.052 C 
DOCKED: ATOM     29  C   UNL d   1       7.276  13.906 -16.774 -0.03 -0.00    +0.046 C 
DOCKED: ATOM     30  C   UNL d   1      11.163   5.226 -13.908 -0.44 -0.00    +0.046 C 
DOCKED: ATOM     31  H   UNL d   1       7.197   9.452 -15.631 +0.05 -0.01    +0.166 HD
DOCKED: ATOM     32  H   UNL d   1       8.313   7.890 -16.358 +0.04 -0.02    +0.166 HD
DOCKED: ENDROOT
DOCKED: BRANCH   7  33
DOCKED: ATOM     33  C   UNL d   1       6.569   2.878 -15.619 -0.21 -0.01    +0.141 C 
DOCKED: BRANCH  33  34
DOCKED: ATOM     34  C   UNL d   1       5.705   1.729 -16.062 -0.12 -0.00    +0.306 C 
DOCKED: ATOM     35  O   UNL d   1       6.056   0.789 -16.756 -0.05 -0.00    -0.251 OA
DOCKED: BRANCH  34  36
DOCKED: ATOM     36  O   UNL d   1       4.444   1.822 -15.606 -0.06 -0.01    -0.481 OA
DOCKED: ATOM     37  H   UNL d   1       4.017   2.482 -16.194 +0.06 -0.00    +0.295 HD
DOCKED: ENDBRANCH  34  36
DOCKED: ENDBRANCH  33  34
DOCKED: ENDBRANCH   7  33
DOCKED: BRANCH  27  38
DOCKED: ATOM     38  C   UNL d   1      11.997   8.250 -13.703 -0.42 -0.00    +0.017 C 
DOCKED: ATOM     39  C   UNL d   1      12.496   9.493 -13.780 -0.29 -0.02    +0.092 C 
DOCKED: BRANCH  39  40
DOCKED: ATOM     40  C   UNL d   1      13.642   9.872 -12.949 -0.21 -0.11    +0.330 C 
DOCKED: ATOM     41  O   UNL d   1      14.542  10.641 -13.229 -0.20 +0.06    -0.246 OA
DOCKED: BRANCH  40  42
DOCKED: ATOM     42  O   UNL d   1      13.581   9.244 -11.765 -0.33 +0.27    -0.477 OA
DOCKED: ATOM     43  H   UNL d   1      13.572   9.974 -11.112 -0.42 -0.22    +0.295 HD
DOCKED: ENDBRANCH  40  42
DOCKED: ENDBRANCH  39  40
DOCKED: ENDBRANCH  27  38
DOCKED: BRANCH   8  44
DOCKED: ATOM     44  C   UNL d   1       1.598   8.709 -16.978 -0.06 -0.01    +0.141 C 
DOCKED: BRANCH  44  45
DOCKED: ATOM     45  C   UNL d   1       2.091   9.078 -18.352 -0.01 -0.02    +0.306 C 
DOCKED: ATOM     46  O   UNL d   1       2.627   8.334 -19.155 -0.00 +0.01    -0.251 OA
DOCKED: BRANCH  45  47
DOCKED: ATOM     47  O   UNL d   1       1.908  10.380 -18.632 +0.00 +0.02    -0.481 OA
DOCKED: ATOM     48  H   UNL d   1       1.656  10.785 -17.774 +0.02 -0.01    +0.295 HD
DOCKED: ENDBRANCH  45  47
DOCKED: ENDBRANCH  44  45
DOCKED: ENDBRANCH   8  44
DOCKED: BRANCH  22  49
DOCKED: ATOM     49  C   UNL d   1      10.267  12.869 -16.339 -0.04 -0.00    +0.048 C 
DOCKED: BRANCH  49  50
DOCKED: ATOM     50  C   UNL d   1      11.063  12.863 -15.034 -0.05 -0.01    +0.125 C 
DOCKED: BRANCH  50  51
DOCKED: ATOM     51  C   UNL d   1      10.161  13.091 -13.855 -0.07 -0.01    +0.305 C 
DOCKED: ATOM     52  O   UNL d   1       9.198  13.835 -13.788 -0.08 +0.01    -0.251 OA
DOCKED: BRANCH  51  53
DOCKED: ATOM     53  O   UNL d   1      10.533  12.359 -12.786 -0.06 +0.03    -0.481 OA
DOCKED: ATOM     54  H   UNL d   1      11.485  12.568 -12.675 +0.08 -0.04    +0.295 HD
DOCKED: ENDBRANCH  51  53
DOCKED: ENDBRANCH  50  51
DOCKED: ENDBRANCH  49  50
DOCKED: ENDBRANCH  22  49
DOCKED: TORSDOF 13
DOCKED: TER
DOCKED: ENDMDL
________________________________________________________________________________


	BEGINNING GENETIC ALGORITHM DOCKING 73 of 100
Run: 73 Seed: 684370587 72627151 [ Run 73 of 100 GA/GALS ]
Beginning LAMARCKIAN GENETIC ALGORITHM (LGA), with a maximum of 25000000 energy evaluations.

Final-Value: -13.429


	FINAL GENETIC ALGORITHM DOCKED STATE
	_______________________________________________


Detailed state:  trans 4.134 -18.351 -0.820 quatxyzw -0.210720 -0.460789 -0.435063 -0.744305 center 0.153 0.018 -0.028 ntor 13 132.9798 161.8533 -167.3124 63.1009 26.9613 -93.2992 -49.8447 47.3230 -29.7171 -174.4965 -90.4937 34.5349 4.0660
State:	  4.134 -18.351  -0.820  -0.316 -0.690 -0.651 -83.801    132.98  161.85 -167.31   63.10   26.96  -93.30  -49.84   47.32  -29.72 -174.50  -90.49   34.53    4.07

DOCKED: MODEL       73
DOCKED: USER    Run = 73
DOCKED: USER    DPF = D:/Protein_go_brrr/autodock/final/mut_Y35F/heme/dock.dpf
DOCKED: USER  
DOCKED: USER    Estimated Free Energy of Binding    =   -6.10 kcal/mol  [=(1)+(2)+(3)-(4)]
DOCKED: USER    Estimated Inhibition Constant, Ki   =   33.73 uM (micromolar)  [Temperature = 298.15 K]
DOCKED: USER    
DOCKED: USER    (1) Final Intermolecular Energy     =   -9.98 kcal/mol
DOCKED: USER        vdW + Hbond + desolv Energy     =   -9.08 kcal/mol
DOCKED: USER        Electrostatic Energy            =   -0.90 kcal/mol
DOCKED: USER    (2) Final Total Internal Energy     =   -3.45 kcal/mol
DOCKED: USER    (3) Torsional Free Energy           =   +3.88 kcal/mol
DOCKED: USER    (4) Unbound System's Energy  [=(2)] =   -3.45 kcal/mol
DOCKED: USER    
DOCKED: USER    
DOCKED: USER    NEWDPF move heme_opt.pdbqt
DOCKED: USER    NEWDPF about 0.153000 0.018000 -0.028000
DOCKED: USER    NEWDPF tran0 4.133634 -18.350984 -0.819736
DOCKED: USER    NEWDPF quaternion0 -0.210720 -0.460789 -0.435063 -0.744305
DOCKED: USER    NEWDPF axisangle0 -0.315525 -0.689970 -0.651449 -83.801091
DOCKED: USER    NEWDPF quat0 -0.315525 -0.689970 -0.651449 -83.801091
DOCKED: USER    NEWDPF dihe0 132.98 161.85 -167.31 63.10 26.96 -93.30 -49.84 47.32 -29.72 -174.50 -90.49 34.53 4.07 
DOCKED: USER  keepresnum = 1 
DOCKED: USER  
DOCKED: REMARK  13 active torsions:
DOCKED: REMARK  status: ('A' for Active; 'I' for Inactive)
DOCKED: REMARK    1  A    between atoms: O_3  and  C_38 
DOCKED: REMARK    2  A    between atoms: O_4  and  C_40 
DOCKED: REMARK    3  A    between atoms: O_7  and  C_46 
DOCKED: REMARK    4  A    between atoms: O_9  and  C_48 
DOCKED: REMARK    5  A    between atoms: C_15  and  C_20 
DOCKED: REMARK    6  A    between atoms: C_16  and  C_23 
DOCKED: REMARK    7  A    between atoms: C_20  and  C_38 
DOCKED: REMARK    8  A    between atoms: C_23  and  C_40 
DOCKED: REMARK    9  A    between atoms: C_32  and  C_41 
DOCKED: REMARK   10  A    between atoms: C_37  and  C_45 
DOCKED: REMARK   11  A    between atoms: C_41  and  C_44 
DOCKED: REMARK   12  A    between atoms: C_44  and  C_46 
DOCKED: REMARK   13  A    between atoms: C_47  and  C_48 
DOCKED: USER                              x       y       z     vdW  Elec       q    Type
DOCKED: USER                           _______ _______ _______ _____ _____    ______ ____
DOCKED: ROOT
DOCKED: ATOM      1  O   UNL d   1       4.126 -14.444  -5.235 -0.57 +0.07    -0.289 OA
DOCKED: ATOM      2  O   UNL d   1       0.325 -20.856  -4.321 -0.12 +0.17    -0.289 OA
DOCKED: ATOM      3  N   UNL d   1       4.564 -16.502  -2.502 -0.14 +0.08    -0.247 NA
DOCKED: ATOM      4  N   UNL d   1       2.465 -18.574  -2.864 -0.15 +0.04    -0.247 NA
DOCKED: ATOM      5  N   UNL d   1       2.929 -19.386  -0.145 -0.11 +0.01    -0.354 N 
DOCKED: ATOM      6  N   UNL d   1       5.091 -17.221   0.228 -0.06 +0.12    -0.354 N 
DOCKED: ATOM      7  C   UNL d   1       5.390 -14.287  -3.148 -0.38 -0.03    +0.084 A 
DOCKED: ATOM      8  C   UNL d   1       1.710 -19.014  -5.146 -0.16 -0.04    +0.084 A 
DOCKED: ATOM      9  C   UNL d   1       2.557 -18.179  -4.179 -0.19 -0.02    +0.058 A 
DOCKED: ATOM     10  C   UNL d   1       5.348 -15.425  -2.124 -0.29 -0.02    +0.058 A 
DOCKED: ATOM     11  C   UNL d   1       4.505 -14.919  -4.180 -0.27 -0.06    +0.193 A 
DOCKED: ATOM     12  C   UNL d   1       4.090 -16.269  -3.682 -0.22 -0.03    +0.109 A 
DOCKED: ATOM     13  C   UNL d   1       1.091 -19.932  -4.129 -0.14 -0.08    +0.193 A 
DOCKED: ATOM     14  C   UNL d   1       4.712 -13.018  -2.625 -0.61 -0.00    +0.026 C 
DOCKED: ATOM     15  C   UNL d   1       3.283 -17.123  -4.578 -0.25 -0.02    +0.055 C 
DOCKED: ATOM     16  C   UNL d   1       2.581 -19.843  -6.093 -0.08 -0.01    +0.026 C 
DOCKED: ATOM     17  C   UNL d   1       1.625 -19.556  -2.786 -0.19 -0.01    +0.109 A 
DOCKED: ATOM     18  C   UNL d   1       6.094 -15.390  -1.004 -0.19 -0.01    +0.050 C 
DOCKED: ATOM     19  C   UNL d   1       6.184 -16.430  -0.044 -0.23 -0.01    +0.045 A 
DOCKED: ATOM     20  C   UNL d   1       1.798 -20.111  -0.418 -0.08 +0.00    +0.045 A 
DOCKED: ATOM     21  C   UNL d   1       1.160 -20.262  -1.583 -0.11 +0.01    +0.057 C 
DOCKED: ATOM     22  C   UNL d   1       2.298 -20.330   1.800 -0.17 -0.00    -0.019 A 
DOCKED: ATOM     23  C   UNL d   1       3.308 -19.457   1.169 -0.19 -0.00    +0.045 A 
DOCKED: ATOM     24  C   UNL d   1       1.407 -20.715   0.856 -0.14 -0.00    -0.022 A 
DOCKED: ATOM     25  C   UNL d   1       5.372 -18.099   1.249 -0.15 -0.01    +0.049 A 
DOCKED: ATOM     26  C   UNL d   1       7.213 -16.828   0.796 -0.16 +0.00    -0.018 A 
DOCKED: ATOM     27  C   UNL d   1       6.700 -17.896   1.596 -0.08 -0.00    +0.003 A 
DOCKED: ATOM     28  C   UNL d   1       4.352 -18.913   1.813 -0.19 -0.01    +0.052 C 
DOCKED: ATOM     29  C   UNL d   1       0.219 -21.603   1.001 -0.14 +0.01    +0.046 C 
DOCKED: ATOM     30  C   UNL d   1       8.588 -16.256   0.852 -0.16 -0.01    +0.046 C 
DOCKED: ATOM     31  H   UNL d   1       3.449 -18.925  -0.884 +0.04 -0.02    +0.166 HD
DOCKED: ATOM     32  H   UNL d   1       4.199 -17.125  -0.242 -0.51 -0.09    +0.166 HD
DOCKED: ENDROOT
DOCKED: BRANCH   7  33
DOCKED: ATOM     33  C   UNL d   1       6.772 -13.984  -3.738 -0.25 -0.13    +0.141 C 
DOCKED: BRANCH  33  34
DOCKED: ATOM     34  C   UNL d   1       7.746 -15.113  -3.539 -0.06 -0.29    +0.306 C 
DOCKED: ATOM     35  O   UNL d   1       7.829 -16.121  -4.220 -0.07 +0.15    -0.251 OA
DOCKED: BRANCH  34  36
DOCKED: ATOM     36  O   UNL d   1       8.567 -14.911  -2.494 -0.53 +0.44    -0.481 OA
DOCKED: ATOM     37  H   UNL d   1       8.915 -14.003  -2.625 -0.44 -0.70    +0.295 HD
DOCKED: ENDBRANCH  34  36
DOCKED: ENDBRANCH  33  34
DOCKED: ENDBRANCH   7  33
DOCKED: BRANCH  27  38
DOCKED: ATOM     38  C   UNL d   1       7.432 -18.590   2.612 -0.03 -0.00    +0.017 C 
DOCKED: ATOM     39  C   UNL d   1       7.874 -19.854   2.522 -0.01 -0.01    +0.092 C 
DOCKED: BRANCH  39  40
DOCKED: ATOM     40  C   UNL d   1       8.629 -20.445   3.629 +0.00 -0.02    +0.330 C 
DOCKED: ATOM     41  O   UNL d   1       9.837 -20.507   3.756 +0.00 +0.02    -0.246 OA
DOCKED: BRANCH  40  42
DOCKED: ATOM     42  O   UNL d   1       7.788 -20.933   4.554 +0.00 +0.03    -0.477 OA
DOCKED: ATOM     43  H   UNL d   1       6.938 -20.488   4.356 +0.01 -0.02    +0.295 HD
DOCKED: ENDBRANCH  40  42
DOCKED: ENDBRANCH  39  40
DOCKED: ENDBRANCH  27  38
DOCKED: BRANCH   8  44
DOCKED: ATOM     44  C   UNL d   1       0.633 -18.242  -5.916 -0.22 -0.12    +0.141 C 
DOCKED: BRANCH  44  45
DOCKED: ATOM     45  C   UNL d   1       0.571 -18.604  -7.375 -0.18 -0.20    +0.306 C 
DOCKED: ATOM     46  O   UNL d   1       1.138 -18.033  -8.291 -0.19 +0.11    -0.251 OA
DOCKED: BRANCH  45  47
DOCKED: ATOM     47  O   UNL d   1      -0.229 -19.660  -7.611 -0.05 +0.40    -0.481 OA
DOCKED: ATOM     48  H   UNL d   1      -0.716 -19.794  -6.770 -0.48 -0.61    +0.295 HD
DOCKED: ENDBRANCH  45  47
DOCKED: ENDBRANCH  44  45
DOCKED: ENDBRANCH   8  44
DOCKED: BRANCH  22  49
DOCKED: ATOM     49  C   UNL d   1       2.289 -20.692   3.257 -0.12 -0.00    +0.048 C 
DOCKED: BRANCH  49  50
DOCKED: ATOM     50  C   UNL d   1       3.293 -21.799   3.574 -0.03 -0.01    +0.125 C 
DOCKED: BRANCH  50  51
DOCKED: ATOM     51  C   UNL d   1       4.631 -21.222   3.940 -0.01 -0.02    +0.305 C 
DOCKED: ATOM     52  O   UNL d   1       4.855 -20.248   4.636 -0.01 +0.02    -0.251 OA
DOCKED: BRANCH  51  53
DOCKED: ATOM     53  O   UNL d   1       5.647 -21.913   3.384 +0.00 +0.03    -0.481 OA
DOCKED: ATOM     54  H   UNL d   1       6.143 -22.265   4.152 +0.00 -0.02    +0.295 HD
DOCKED: ENDBRANCH  51  53
DOCKED: ENDBRANCH  50  51
DOCKED: ENDBRANCH  49  50
DOCKED: ENDBRANCH  22  49
DOCKED: TORSDOF 13
DOCKED: TER
DOCKED: ENDMDL
________________________________________________________________________________


	BEGINNING GENETIC ALGORITHM DOCKING 74 of 100
Run: 74 Seed: 166522662 618271148 [ Run 74 of 100 GA/GALS ]
Beginning LAMARCKIAN GENETIC ALGORITHM (LGA), with a maximum of 25000000 energy evaluations.

Final-Value: -10.359


	FINAL GENETIC ALGORITHM DOCKED STATE
	_______________________________________________


Detailed state:  trans 13.223 15.047 -7.717 quatxyzw 0.926147 0.100845 0.315747 0.179960 center 0.153 0.018 -0.028 ntor 13 -127.2907 175.0261 -92.5126 50.7056 -161.7273 58.9628 -29.6418 75.4138 -147.2726 135.0866 -73.1283 -102.5011 6.0149
State:	 13.223  15.047  -7.717   0.942  0.103  0.321 159.265   -127.29  175.03  -92.51   50.71 -161.73   58.96  -29.64   75.41 -147.27  135.09  -73.13 -102.50    6.01

DOCKED: MODEL       74
DOCKED: USER    Run = 74
DOCKED: USER    DPF = D:/Protein_go_brrr/autodock/final/mut_Y35F/heme/dock.dpf
DOCKED: USER  
DOCKED: USER    Estimated Free Energy of Binding    =   -3.20 kcal/mol  [=(1)+(2)+(3)-(4)]
DOCKED: USER    Estimated Inhibition Constant, Ki   =    4.49 mM (millimolar)  [Temperature = 298.15 K]
DOCKED: USER    
DOCKED: USER    (1) Final Intermolecular Energy     =   -7.08 kcal/mol
DOCKED: USER        vdW + Hbond + desolv Energy     =   -6.82 kcal/mol
DOCKED: USER        Electrostatic Energy            =   -0.26 kcal/mol
DOCKED: USER    (2) Final Total Internal Energy     =   -3.28 kcal/mol
DOCKED: USER    (3) Torsional Free Energy           =   +3.88 kcal/mol
DOCKED: USER    (4) Unbound System's Energy  [=(2)] =   -3.28 kcal/mol
DOCKED: USER    
DOCKED: USER    
DOCKED: USER    NEWDPF move heme_opt.pdbqt
DOCKED: USER    NEWDPF about 0.153000 0.018000 -0.028000
DOCKED: USER    NEWDPF tran0 13.223037 15.047269 -7.716599
DOCKED: USER    NEWDPF quaternion0 0.926147 0.100845 0.315747 0.179960
DOCKED: USER    NEWDPF axisangle0 0.941519 0.102519 0.320987 159.265195
DOCKED: USER    NEWDPF quat0 0.941519 0.102519 0.320987 159.265195
DOCKED: USER    NEWDPF dihe0 -127.29 175.03 -92.51 50.71 -161.73 58.96 -29.64 75.41 -147.27 135.09 -73.13 -102.50 6.01 
DOCKED: USER  keepresnum = 1 
DOCKED: USER  
DOCKED: REMARK  13 active torsions:
DOCKED: REMARK  status: ('A' for Active; 'I' for Inactive)
DOCKED: REMARK    1  A    between atoms: O_3  and  C_38 
DOCKED: REMARK    2  A    between atoms: O_4  and  C_40 
DOCKED: REMARK    3  A    between atoms: O_7  and  C_46 
DOCKED: REMARK    4  A    between atoms: O_9  and  C_48 
DOCKED: REMARK    5  A    between atoms: C_15  and  C_20 
DOCKED: REMARK    6  A    between atoms: C_16  and  C_23 
DOCKED: REMARK    7  A    between atoms: C_20  and  C_38 
DOCKED: REMARK    8  A    between atoms: C_23  and  C_40 
DOCKED: REMARK    9  A    between atoms: C_32  and  C_41 
DOCKED: REMARK   10  A    between atoms: C_37  and  C_45 
DOCKED: REMARK   11  A    between atoms: C_41  and  C_44 
DOCKED: REMARK   12  A    between atoms: C_44  and  C_46 
DOCKED: REMARK   13  A    between atoms: C_47  and  C_48 
DOCKED: USER                              x       y       z     vdW  Elec       q    Type
DOCKED: USER                           _______ _______ _______ _____ _____    ______ ____
DOCKED: ROOT
DOCKED: ATOM      1  O   UNL d   1       9.708  13.349 -12.134 -0.18 +0.01    -0.289 OA
DOCKED: ATOM      2  O   UNL d   1       8.828  18.660  -6.898 -0.09 -0.04    -0.289 OA
DOCKED: ATOM      3  N   UNL d   1      12.012  13.901  -9.628 -0.11 +0.04    -0.247 NA
DOCKED: ATOM      4  N   UNL d   1      10.975  16.333  -8.271 -0.07 +0.02    -0.247 NA
DOCKED: ATOM      5  N   UNL d   1      13.516  16.563  -6.944 -0.05 +0.15    -0.354 N 
DOCKED: ATOM      6  N   UNL d   1      14.590  14.051  -8.371 -0.01 +0.08    -0.354 N 
DOCKED: ATOM      7  C   UNL d   1      11.931  12.473 -11.618 -0.20 -0.02    +0.084 A 
DOCKED: ATOM      8  C   UNL d   1       8.573  16.754  -8.414 -0.20 +0.01    +0.084 A 
DOCKED: ATOM      9  C   UNL d   1       9.787  15.919  -8.831 -0.20 +0.00    +0.058 A 
DOCKED: ATOM     10  C   UNL d   1      12.695  12.964 -10.385 -0.18 -0.01    +0.058 A 
DOCKED: ATOM     11  C   UNL d   1      10.688  13.286 -11.415 -0.18 -0.02    +0.193 A 
DOCKED: ATOM     12  C   UNL d   1      10.849  14.090 -10.162 -0.20 -0.01    +0.109 A 
DOCKED: ATOM     13  C   UNL d   1       9.297  17.742  -7.544 -0.09 +0.02    +0.193 A 
DOCKED: ATOM     14  C   UNL d   1      12.602  12.913 -12.922 -0.10 -0.00    +0.026 C 
DOCKED: ATOM     15  C   UNL d   1       9.705  14.904  -9.706 -0.29 -0.00    +0.055 C 
DOCKED: ATOM     16  C   UNL d   1       7.602  15.951  -7.544 -0.25 +0.01    +0.026 C 
DOCKED: ATOM     17  C   UNL d   1      10.747  17.381  -7.547 -0.09 -0.01    +0.109 A 
DOCKED: ATOM     18  C   UNL d   1      13.887  12.441 -10.042 -0.19 -0.02    +0.050 C 
DOCKED: ATOM     19  C   UNL d   1      14.626  12.771  -8.877 -0.17 -0.01    +0.045 A 
DOCKED: ATOM     20  C   UNL d   1      12.959  17.767  -6.598 -0.10 -0.02    +0.045 A 
DOCKED: ATOM     21  C   UNL d   1      11.714  18.206  -6.808 -0.10 -0.01    +0.057 C 
DOCKED: ATOM     22  C   UNL d   1      15.136  17.733  -5.905 -0.09 +0.01    -0.019 A 
DOCKED: ATOM     23  C   UNL d   1      14.828  16.450  -6.568 -0.11 -0.02    +0.045 A 
DOCKED: ATOM     24  C   UNL d   1      14.026  18.508  -5.925 -0.08 +0.02    -0.022 A 
DOCKED: ATOM     25  C   UNL d   1      15.444  14.171  -7.300 -0.10 -0.01    +0.049 A 
DOCKED: ATOM     26  C   UNL d   1      15.497  12.031  -8.093 -0.26 +0.01    -0.018 A 
DOCKED: ATOM     27  C   UNL d   1      15.996  12.915  -7.087 -0.19 -0.00    +0.003 A 
DOCKED: ATOM     28  C   UNL d   1      15.697  15.438  -6.708 -0.12 -0.02    +0.052 C 
DOCKED: ATOM     29  C   UNL d   1      13.835  19.879  -5.372 -0.06 -0.02    +0.046 C 
DOCKED: ATOM     30  C   UNL d   1      15.845  10.591  -8.264 -0.30 -0.01    +0.046 C 
DOCKED: ATOM     31  H   UNL d   1      12.958  15.826  -7.362 +0.05 -0.05    +0.166 HD
DOCKED: ATOM     32  H   UNL d   1      14.035  14.797  -8.774 +0.04 -0.03    +0.166 HD
DOCKED: ENDROOT
DOCKED: BRANCH   7  33
DOCKED: ATOM     33  C   UNL d   1      11.599  10.977 -11.633 -0.07 -0.04    +0.141 C 
DOCKED: BRANCH  33  34
DOCKED: ATOM     34  C   UNL d   1      12.556  10.180 -12.477 -0.21 -0.09    +0.306 C 
DOCKED: ATOM     35  O   UNL d   1      12.315   9.680 -13.563 -0.21 +0.05    -0.251 OA
DOCKED: BRANCH  34  36
DOCKED: ATOM     36  O   UNL d   1      13.769  10.056 -11.909 -0.21 +0.22    -0.481 OA
DOCKED: ATOM     37  H   UNL d   1      13.583   9.747 -10.997 -0.42 -0.26    +0.295 HD
DOCKED: ENDBRANCH  34  36
DOCKED: ENDBRANCH  33  34
DOCKED: ENDBRANCH   7  33
DOCKED: BRANCH  27  38
DOCKED: ATOM     38  C   UNL d   1      16.941  12.560  -6.071 -0.31 -0.01    +0.017 C 
DOCKED: ATOM     39  C   UNL d   1      18.185  13.051  -5.965 -0.19 -0.03    +0.092 C 
DOCKED: BRANCH  39  40
DOCKED: ATOM     40  C   UNL d   1      19.050  12.617  -4.864 -0.15 -0.10    +0.330 C 
DOCKED: ATOM     41  O   UNL d   1      19.383  11.481  -4.584 -0.26 +0.08    -0.246 OA
DOCKED: BRANCH  40  42
DOCKED: ATOM     42  O   UNL d   1      19.468  13.679  -4.160 -0.06 +0.13    -0.477 OA
DOCKED: ATOM     43  H   UNL d   1      19.122  14.446  -4.661 +0.07 -0.08    +0.295 HD
DOCKED: ENDBRANCH  40  42
DOCKED: ENDBRANCH  39  40
DOCKED: ENDBRANCH  27  38
DOCKED: BRANCH   8  44
DOCKED: ATOM     44  C   UNL d   1       7.837  17.465  -9.555 -0.10 +0.02    +0.141 C 
DOCKED: BRANCH  44  45
DOCKED: ATOM     45  C   UNL d   1       6.810  16.596 -10.231 -0.08 +0.04    +0.306 C 
DOCKED: ATOM     46  O   UNL d   1       7.028  15.672 -10.995 -0.15 -0.03    -0.251 OA
DOCKED: BRANCH  45  47
DOCKED: ATOM     47  O   UNL d   1       5.550  16.958  -9.928 -0.04 -0.09    -0.481 OA
DOCKED: ATOM     48  H   UNL d   1       5.328  17.654 -10.582 +0.06 +0.03    +0.295 HD
DOCKED: ENDBRANCH  45  47
DOCKED: ENDBRANCH  44  45
DOCKED: ENDBRANCH   8  44
DOCKED: BRANCH  22  49
DOCKED: ATOM     49  C   UNL d   1      16.478  18.085  -5.334 -0.10 -0.03    +0.048 C 
DOCKED: BRANCH  49  50
DOCKED: ATOM     50  C   UNL d   1      16.717  17.406  -3.985 +0.03 -0.13    +0.125 C 
DOCKED: BRANCH  50  51
DOCKED: ATOM     51  C   UNL d   1      17.728  16.301  -4.113 -0.10 -0.18    +0.305 C 
DOCKED: ATOM     52  O   UNL d   1      18.921  16.408  -4.334 -0.05 +0.09    -0.251 OA
DOCKED: BRANCH  51  53
DOCKED: ATOM     53  O   UNL d   1      17.166  15.085  -3.964 -0.07 +0.26    -0.481 OA
DOCKED: ATOM     54  H   UNL d   1      17.735  14.640  -3.300 +0.07 -0.13    +0.295 HD
DOCKED: ENDBRANCH  51  53
DOCKED: ENDBRANCH  50  51
DOCKED: ENDBRANCH  49  50
DOCKED: ENDBRANCH  22  49
DOCKED: TORSDOF 13
DOCKED: TER
DOCKED: ENDMDL
________________________________________________________________________________


	BEGINNING GENETIC ALGORITHM DOCKING 75 of 100
Run: 75 Seed: 1399976570 1680517467 [ Run 75 of 100 GA/GALS ]
Beginning LAMARCKIAN GENETIC ALGORITHM (LGA), with a maximum of 25000000 energy evaluations.

Final-Value: -12.308


	FINAL GENETIC ALGORITHM DOCKED STATE
	_______________________________________________


Detailed state:  trans -3.366 -8.787 -13.246 quatxyzw -0.083442 0.194855 -0.778401 -0.590898 center 0.153 0.018 -0.028 ntor 13 90.0385 -175.1416 -125.0083 45.1893 -133.1412 -32.4052 123.3221 125.0102 42.4500 -37.3240 -41.7918 -42.5812 -17.2953
State:	 -3.366  -8.787 -13.246  -0.103  0.242 -0.965 -107.558     90.04 -175.14 -125.01   45.19 -133.14  -32.41  123.32  125.01   42.45  -37.32  -41.79  -42.58  -17.30

DOCKED: MODEL       75
DOCKED: USER    Run = 75
DOCKED: USER    DPF = D:/Protein_go_brrr/autodock/final/mut_Y35F/heme/dock.dpf
DOCKED: USER  
DOCKED: USER    Estimated Free Energy of Binding    =   -4.44 kcal/mol  [=(1)+(2)+(3)-(4)]
DOCKED: USER    Estimated Inhibition Constant, Ki   =  555.55 uM (micromolar)  [Temperature = 298.15 K]
DOCKED: USER    
DOCKED: USER    (1) Final Intermolecular Energy     =   -8.32 kcal/mol
DOCKED: USER        vdW + Hbond + desolv Energy     =   -8.22 kcal/mol
DOCKED: USER        Electrostatic Energy            =   -0.10 kcal/mol
DOCKED: USER    (2) Final Total Internal Energy     =   -3.99 kcal/mol
DOCKED: USER    (3) Torsional Free Energy           =   +3.88 kcal/mol
DOCKED: USER    (4) Unbound System's Energy  [=(2)] =   -3.99 kcal/mol
DOCKED: USER    
DOCKED: USER    
DOCKED: USER    NEWDPF move heme_opt.pdbqt
DOCKED: USER    NEWDPF about 0.153000 0.018000 -0.028000
DOCKED: USER    NEWDPF tran0 -3.365629 -8.787148 -13.245556
DOCKED: USER    NEWDPF quaternion0 -0.083442 0.194855 -0.778401 -0.590898
DOCKED: USER    NEWDPF axisangle0 -0.103430 0.241532 -0.964865 -107.558485
DOCKED: USER    NEWDPF quat0 -0.103430 0.241532 -0.964865 -107.558485
DOCKED: USER    NEWDPF dihe0 90.04 -175.14 -125.01 45.19 -133.14 -32.41 123.32 125.01 42.45 -37.32 -41.79 -42.58 -17.30 
DOCKED: USER  keepresnum = 1 
DOCKED: USER  
DOCKED: REMARK  13 active torsions:
DOCKED: REMARK  status: ('A' for Active; 'I' for Inactive)
DOCKED: REMARK    1  A    between atoms: O_3  and  C_38 
DOCKED: REMARK    2  A    between atoms: O_4  and  C_40 
DOCKED: REMARK    3  A    between atoms: O_7  and  C_46 
DOCKED: REMARK    4  A    between atoms: O_9  and  C_48 
DOCKED: REMARK    5  A    between atoms: C_15  and  C_20 
DOCKED: REMARK    6  A    between atoms: C_16  and  C_23 
DOCKED: REMARK    7  A    between atoms: C_20  and  C_38 
DOCKED: REMARK    8  A    between atoms: C_23  and  C_40 
DOCKED: REMARK    9  A    between atoms: C_32  and  C_41 
DOCKED: REMARK   10  A    between atoms: C_37  and  C_45 
DOCKED: REMARK   11  A    between atoms: C_41  and  C_44 
DOCKED: REMARK   12  A    between atoms: C_44  and  C_46 
DOCKED: REMARK   13  A    between atoms: C_47  and  C_48 
DOCKED: USER                              x       y       z     vdW  Elec       q    Type
DOCKED: USER                           _______ _______ _______ _____ _____    ______ ____
DOCKED: ROOT
DOCKED: ATOM      1  O   UNL d   1      -0.019  -3.957 -12.771 -0.11 -0.08    -0.289 OA
DOCKED: ATOM      2  O   UNL d   1      -7.470  -4.839 -12.468 -0.58 -0.03    -0.289 OA
DOCKED: ATOM      3  N   UNL d   1      -1.560  -7.006 -13.244 -0.13 -0.01    -0.247 NA
DOCKED: ATOM      4  N   UNL d   1      -4.413  -6.430 -12.647 -0.09 +0.00    -0.247 NA
DOCKED: ATOM      5  N   UNL d   1      -4.869  -9.267 -12.545 -0.05 +0.02    -0.354 N 
DOCKED: ATOM      6  N   UNL d   1      -1.903  -9.856 -13.146 -0.13 +0.02    -0.354 N 
DOCKED: ATOM      7  C   UNL d   1       0.766  -6.254 -13.058 -0.28 +0.02    +0.084 A 
DOCKED: ATOM      8  C   UNL d   1      -5.182  -4.133 -12.974 -0.09 +0.00    +0.084 A 
DOCKED: ATOM      9  C   UNL d   1      -4.029  -5.143 -12.953 -0.13 +0.00    +0.058 A 
DOCKED: ATOM     10  C   UNL d   1      -0.232  -7.401 -13.244 -0.27 +0.00    +0.058 A 
DOCKED: ATOM     11  C   UNL d   1      -0.232  -5.139 -12.972 -0.15 +0.04    +0.193 A 
DOCKED: ATOM     12  C   UNL d   1      -1.604  -5.719 -13.124 -0.17 +0.01    +0.109 A 
DOCKED: ATOM     13  C   UNL d   1      -6.284  -5.078 -12.587 -0.10 +0.00    +0.193 A 
DOCKED: ATOM     14  C   UNL d   1       1.514  -6.354 -11.726 -0.19 +0.01    +0.026 C 
DOCKED: ATOM     15  C   UNL d   1      -2.752  -4.791 -13.164 -0.15 +0.00    +0.055 C 
DOCKED: ATOM     16  C   UNL d   1      -5.454  -3.612 -14.389 -0.04 +0.00    +0.026 C 
DOCKED: ATOM     17  C   UNL d   1      -5.685  -6.436 -12.411 -0.15 -0.00    +0.109 A 
DOCKED: ATOM     18  C   UNL d   1       0.180  -8.661 -13.477 -0.25 +0.00    +0.050 C 
DOCKED: ATOM     19  C   UNL d   1      -0.666  -9.768 -13.743 -0.25 +0.00    +0.045 A 
DOCKED: ATOM     20  C   UNL d   1      -6.069  -8.818 -12.059 -0.23 -0.01    +0.045 A 
DOCKED: ATOM     21  C   UNL d   1      -6.527  -7.564 -11.985 -0.24 -0.01    +0.057 C 
DOCKED: ATOM     22  C   UNL d   1      -5.997 -11.092 -11.862 -0.34 +0.00    -0.019 A 
DOCKED: ATOM     23  C   UNL d   1      -4.733 -10.627 -12.468 -0.25 -0.00    +0.045 A 
DOCKED: ATOM     24  C   UNL d   1      -6.784 -10.017 -11.624 -0.33 +0.00    -0.022 A 
DOCKED: ATOM     25  C   UNL d   1      -2.513 -11.045 -13.471 -0.22 -0.00    +0.049 A 
DOCKED: ATOM     26  C   UNL d   1      -0.483 -10.911 -14.505 -0.19 +0.00    -0.018 A 
DOCKED: ATOM     27  C   UNL d   1      -1.660 -11.705 -14.345 -0.16 -0.00    +0.003 A 
DOCKED: ATOM     28  C   UNL d   1      -3.731 -11.434 -12.850 -0.30 -0.01    +0.052 C 
DOCKED: ATOM     29  C   UNL d   1      -8.154  -9.975 -11.037 -0.45 -0.02    +0.046 C 
DOCKED: ATOM     30  C   UNL d   1       0.711 -11.248 -15.333 -0.14 +0.00    +0.046 C 
DOCKED: ATOM     31  H   UNL d   1      -4.209  -8.633 -12.984 +0.06 -0.00    +0.166 HD
DOCKED: ATOM     32  H   UNL d   1      -2.276  -9.149 -12.523 +0.07 -0.01    +0.166 HD
DOCKED: ENDROOT
DOCKED: BRANCH   7  33
DOCKED: ATOM     33  C   UNL d   1       1.729  -6.025 -14.228 -0.16 +0.06    +0.141 C 
DOCKED: BRANCH  33  34
DOCKED: ATOM     34  C   UNL d   1       1.187  -5.054 -15.242 -0.02 +0.07    +0.306 C 
DOCKED: ATOM     35  O   UNL d   1       0.361  -5.300 -16.105 -0.01 -0.03    -0.251 OA
DOCKED: BRANCH  34  36
DOCKED: ATOM     36  O   UNL d   1       1.713  -3.823 -15.114 -0.02 -0.14    -0.481 OA
DOCKED: ATOM     37  H   UNL d   1       1.089  -3.349 -14.524 +0.06 +0.08    +0.295 HD
DOCKED: ENDBRANCH  34  36
DOCKED: ENDBRANCH  33  34
DOCKED: ENDBRANCH   7  33
DOCKED: BRANCH  27  38
DOCKED: ATOM     38  C   UNL d   1      -1.882 -12.983 -14.951 -0.12 +0.00    +0.017 C 
DOCKED: ATOM     39  C   UNL d   1      -2.936 -13.780 -14.715 -0.14 +0.01    +0.092 C 
DOCKED: BRANCH  39  40
DOCKED: ATOM     40  C   UNL d   1      -3.055 -15.061 -15.416 -0.07 +0.06    +0.330 C 
DOCKED: ATOM     41  O   UNL d   1      -2.708 -15.321 -16.552 -0.03 -0.04    -0.246 OA
DOCKED: BRANCH  40  42
DOCKED: ATOM     42  O   UNL d   1      -3.616 -15.977 -14.612 -0.12 -0.15    -0.477 OA
DOCKED: ATOM     43  H   UNL d   1      -3.849 -15.472 -13.807 +0.08 +0.07    +0.295 HD
DOCKED: ENDBRANCH  40  42
DOCKED: ENDBRANCH  39  40
DOCKED: ENDBRANCH  27  38
DOCKED: BRANCH   8  44
DOCKED: ATOM     44  C   UNL d   1      -5.068  -2.981 -11.971 -0.04 +0.00    +0.141 C 
DOCKED: BRANCH  44  45
DOCKED: ATOM     45  C   UNL d   1      -5.637  -3.313 -10.617 -0.20 +0.01    +0.306 C 
DOCKED: ATOM     46  O   UNL d   1      -5.098  -3.970  -9.744 -0.35 -0.01    -0.251 OA
DOCKED: BRANCH  45  47
DOCKED: ATOM     47  O   UNL d   1      -6.877  -2.820 -10.445 -0.08 -0.08    -0.481 OA
DOCKED: ATOM     48  H   UNL d   1      -7.388  -3.162 -11.210 +0.08 +0.05    +0.295 HD
DOCKED: ENDBRANCH  45  47
DOCKED: ENDBRANCH  44  45
DOCKED: ENDBRANCH   8  44
DOCKED: BRANCH  22  49
DOCKED: ATOM     49  C   UNL d   1      -6.309 -12.529 -11.562 -0.26 -0.02    +0.048 C 
DOCKED: BRANCH  49  50
DOCKED: ATOM     50  C   UNL d   1      -7.220 -13.147 -12.623 -0.28 -0.01    +0.125 C 
DOCKED: BRANCH  50  51
DOCKED: ATOM     51  C   UNL d   1      -6.785 -14.547 -12.954 -0.20 +0.00    +0.305 C 
DOCKED: ATOM     52  O   UNL d   1      -7.423 -15.575 -12.815 -0.25 -0.03    -0.251 OA
DOCKED: BRANCH  51  53
DOCKED: ATOM     53  O   UNL d   1      -5.530 -14.582 -13.445 -0.14 -0.03    -0.481 OA
DOCKED: ATOM     54  H   UNL d   1      -5.592 -15.187 -14.214 +0.08 +0.05    +0.295 HD
DOCKED: ENDBRANCH  51  53
DOCKED: ENDBRANCH  50  51
DOCKED: ENDBRANCH  49  50
DOCKED: ENDBRANCH  22  49
DOCKED: TORSDOF 13
DOCKED: TER
DOCKED: ENDMDL
________________________________________________________________________________


	BEGINNING GENETIC ALGORITHM DOCKING 76 of 100
Run: 76 Seed: 2039661373 1147828343 [ Run 76 of 100 GA/GALS ]
Beginning LAMARCKIAN GENETIC ALGORITHM (LGA), with a maximum of 25000000 energy evaluations.

Final-Value: -11.491


	FINAL GENETIC ALGORITHM DOCKED STATE
	_______________________________________________


Detailed state:  trans -0.686 13.765 -10.495 quatxyzw 0.475473 -0.128250 0.661380 -0.565733 center 0.153 0.018 -0.028 ntor 13 75.3021 131.3367 101.2392 1.5854 -139.8327 -69.5783 -46.2404 126.3862 -136.8373 -125.6608 -57.2212 -2.5882 10.1780
State:	 -0.686  13.765 -10.495   0.577 -0.156  0.802 -111.094     75.30  131.34  101.24    1.59 -139.83  -69.58  -46.24  126.39 -136.84 -125.66  -57.22   -2.59   10.18

DOCKED: MODEL       76
DOCKED: USER    Run = 76
DOCKED: USER    DPF = D:/Protein_go_brrr/autodock/final/mut_Y35F/heme/dock.dpf
DOCKED: USER  
DOCKED: USER    Estimated Free Energy of Binding    =   -4.68 kcal/mol  [=(1)+(2)+(3)-(4)]
DOCKED: USER    Estimated Inhibition Constant, Ki   =  368.76 uM (micromolar)  [Temperature = 298.15 K]
DOCKED: USER    
DOCKED: USER    (1) Final Intermolecular Energy     =   -8.56 kcal/mol
DOCKED: USER        vdW + Hbond + desolv Energy     =   -7.70 kcal/mol
DOCKED: USER        Electrostatic Energy            =   -0.87 kcal/mol
DOCKED: USER    (2) Final Total Internal Energy     =   -2.93 kcal/mol
DOCKED: USER    (3) Torsional Free Energy           =   +3.88 kcal/mol
DOCKED: USER    (4) Unbound System's Energy  [=(2)] =   -2.93 kcal/mol
DOCKED: USER    
DOCKED: USER    
DOCKED: USER    NEWDPF move heme_opt.pdbqt
DOCKED: USER    NEWDPF about 0.153000 0.018000 -0.028000
DOCKED: USER    NEWDPF tran0 -0.685922 13.765230 -10.494942
DOCKED: USER    NEWDPF quaternion0 0.475473 -0.128250 0.661380 -0.565733
DOCKED: USER    NEWDPF axisangle0 0.576618 -0.155532 0.802073 -111.093599
DOCKED: USER    NEWDPF quat0 0.576618 -0.155532 0.802073 -111.093599
DOCKED: USER    NEWDPF dihe0 75.30 131.34 101.24 1.59 -139.83 -69.58 -46.24 126.39 -136.84 -125.66 -57.22 -2.59 10.18 
DOCKED: USER  keepresnum = 1 
DOCKED: USER  
DOCKED: REMARK  13 active torsions:
DOCKED: REMARK  status: ('A' for Active; 'I' for Inactive)
DOCKED: REMARK    1  A    between atoms: O_3  and  C_38 
DOCKED: REMARK    2  A    between atoms: O_4  and  C_40 
DOCKED: REMARK    3  A    between atoms: O_7  and  C_46 
DOCKED: REMARK    4  A    between atoms: O_9  and  C_48 
DOCKED: REMARK    5  A    between atoms: C_15  and  C_20 
DOCKED: REMARK    6  A    between atoms: C_16  and  C_23 
DOCKED: REMARK    7  A    between atoms: C_20  and  C_38 
DOCKED: REMARK    8  A    between atoms: C_23  and  C_40 
DOCKED: REMARK    9  A    between atoms: C_32  and  C_41 
DOCKED: REMARK   10  A    between atoms: C_37  and  C_45 
DOCKED: REMARK   11  A    between atoms: C_41  and  C_44 
DOCKED: REMARK   12  A    between atoms: C_44  and  C_46 
DOCKED: REMARK   13  A    between atoms: C_47  and  C_48 
DOCKED: USER                              x       y       z     vdW  Elec       q    Type
DOCKED: USER                           _______ _______ _______ _____ _____    ______ ____
DOCKED: ROOT
DOCKED: ATOM      1  O   UNL d   1      -2.360   9.240 -13.882 -0.06 +0.01    -0.289 OA
DOCKED: ATOM      2  O   UNL d   1       2.522  14.803 -15.150 -0.03 +0.01    -0.289 OA
DOCKED: ATOM      3  N   UNL d   1      -1.796  11.782 -11.620 -0.12 +0.02    -0.247 NA
DOCKED: ATOM      4  N   UNL d   1       0.458  13.289 -12.835 -0.11 +0.01    -0.247 NA
DOCKED: ATOM      5  N   UNL d   1       0.795  14.634 -10.316 -0.17 +0.02    -0.354 N 
DOCKED: ATOM      6  N   UNL d   1      -1.532  13.051  -9.058 -0.11 +0.08    -0.354 N 
DOCKED: ATOM      7  C   UNL d   1      -3.096   9.704 -11.598 -0.17 -0.00    +0.084 A 
DOCKED: ATOM      8  C   UNL d   1       0.704  13.168 -15.263 -0.07 -0.00    +0.084 A 
DOCKED: ATOM      9  C   UNL d   1      -0.008  12.701 -13.990 -0.13 -0.00    +0.058 A 
DOCKED: ATOM     10  C   UNL d   1      -2.629  10.968 -10.871 -0.20 -0.01    +0.058 A 
DOCKED: ATOM     11  C   UNL d   1      -2.394   9.956 -12.899 -0.11 -0.01    +0.193 A 
DOCKED: ATOM     12  C   UNL d   1      -1.662  11.258 -12.795 -0.14 -0.01    +0.109 A 
DOCKED: ATOM     13  C   UNL d   1       1.687  14.101 -14.614 -0.07 -0.01    +0.193 A 
DOCKED: ATOM     14  C   UNL d   1      -2.524   8.433 -10.965 -0.21 -0.00    +0.026 C 
DOCKED: ATOM     15  C   UNL d   1      -0.968  11.763 -13.997 -0.14 -0.00    +0.055 C 
DOCKED: ATOM     16  C   UNL d   1      -0.225  13.982 -16.168 -0.02 -0.00    +0.026 C 
DOCKED: ATOM     17  C   UNL d   1       1.437  14.079 -13.141 -0.14 -0.00    +0.109 A 
DOCKED: ATOM     18  C   UNL d   1      -3.080  11.279  -9.641 -0.27 -0.01    +0.050 C 
DOCKED: ATOM     19  C   UNL d   1      -2.770  12.464  -8.926 -0.21 -0.01    +0.045 A 
DOCKED: ATOM     20  C   UNL d   1       1.929  15.055 -10.961 -0.24 +0.00    +0.045 A 
DOCKED: ATOM     21  C   UNL d   1       2.284  14.870 -12.237 -0.21 +0.00    +0.057 C 
DOCKED: ATOM     22  C   UNL d   1       2.016  15.749  -8.787 -0.21 -0.00    -0.019 A 
DOCKED: ATOM     23  C   UNL d   1       0.758  15.005  -8.999 -0.23 -0.01    +0.045 A 
DOCKED: ATOM     24  C   UNL d   1       2.704  15.776  -9.953 -0.18 -0.00    -0.022 A 
DOCKED: ATOM     25  C   UNL d   1      -1.416  14.130  -8.212 -0.19 -0.01    +0.049 A 
DOCKED: ATOM     26  C   UNL d   1      -3.490  13.202  -7.999 -0.15 +0.01    -0.018 A 
DOCKED: ATOM     27  C   UNL d   1      -2.637  14.264  -7.567 -0.16 -0.00    +0.003 A 
DOCKED: ATOM     28  C   UNL d   1      -0.174  14.803  -8.055 -0.25 -0.01    +0.052 C 
DOCKED: ATOM     29  C   UNL d   1       4.018  16.416 -10.246 -0.17 +0.01    +0.046 C 
DOCKED: ATOM     30  C   UNL d   1      -4.886  12.940  -7.544 -0.02 -0.03    +0.046 C 
DOCKED: ATOM     31  H   UNL d   1       0.046  14.168 -10.818 +0.03 -0.01    +0.166 HD
DOCKED: ATOM     32  H   UNL d   1      -0.806  12.696  -9.669 +0.06 -0.03    +0.166 HD
DOCKED: ENDROOT
DOCKED: BRANCH   7  33
DOCKED: ATOM     33  C   UNL d   1      -4.609   9.592 -11.816 -0.07 -0.00    +0.141 C 
DOCKED: BRANCH  33  34
DOCKED: ATOM     34  C   UNL d   1      -5.310   8.914 -10.670 -0.08 +0.05    +0.306 C 
DOCKED: ATOM     35  O   UNL d   1      -5.453   7.712 -10.524 -0.53 -0.11    -0.251 OA
DOCKED: BRANCH  34  36
DOCKED: ATOM     36  O   UNL d   1      -5.792   9.786  -9.768 -0.05 -0.01    -0.481 OA
DOCKED: ATOM     37  H   UNL d   1      -5.198   9.693  -8.993 -0.15 -0.08    +0.295 HD
DOCKED: ENDBRANCH  34  36
DOCKED: ENDBRANCH  33  34
DOCKED: ENDBRANCH   7  33
DOCKED: BRANCH  27  38
DOCKED: ATOM     38  C   UNL d   1      -2.984  15.257  -6.595 -0.16 -0.01    +0.017 C 
DOCKED: ATOM     39  C   UNL d   1      -2.575  16.534  -6.613 -0.07 -0.05    +0.092 C 
DOCKED: BRANCH  39  40
DOCKED: ATOM     40  C   UNL d   1      -3.017  17.458  -5.565 -0.03 -0.22    +0.330 C 
DOCKED: ATOM     41  O   UNL d   1      -4.128  17.928  -5.409 -0.03 +0.11    -0.246 OA
DOCKED: BRANCH  40  42
DOCKED: ATOM     42  O   UNL d   1      -1.999  17.739  -4.738 -0.00 +0.48    -0.477 OA
DOCKED: ATOM     43  H   UNL d   1      -1.627  16.860  -4.517 -0.41 -0.75    +0.295 HD
DOCKED: ENDBRANCH  40  42
DOCKED: ENDBRANCH  39  40
DOCKED: ENDBRANCH  27  38
DOCKED: BRANCH   8  44
DOCKED: ATOM     44  C   UNL d   1       1.428  12.073 -16.054 -0.07 -0.01    +0.141 C 
DOCKED: BRANCH  44  45
DOCKED: ATOM     45  C   UNL d   1       2.203  12.603 -17.231 -0.01 -0.01    +0.306 C 
DOCKED: ATOM     46  O   UNL d   1       1.790  12.742 -18.369 -0.00 +0.01    -0.251 OA
DOCKED: BRANCH  45  47
DOCKED: ATOM     47  O   UNL d   1       3.475  12.906 -16.916 +0.00 +0.02    -0.481 OA
DOCKED: ATOM     48  H   UNL d   1       3.420  13.782 -16.477 +0.03 -0.01    +0.295 HD
DOCKED: ENDBRANCH  45  47
DOCKED: ENDBRANCH  44  45
DOCKED: ENDBRANCH   8  44
DOCKED: BRANCH  22  49
DOCKED: ATOM     49  C   UNL d   1       2.431  16.345  -7.474 -0.28 +0.01    +0.048 C 
DOCKED: BRANCH  49  50
DOCKED: ATOM     50  C   UNL d   1       1.616  17.592  -7.132 -0.13 +0.03    +0.125 C 
DOCKED: BRANCH  50  51
DOCKED: ATOM     51  C   UNL d   1       0.941  17.442  -5.798 -0.09 +0.02    +0.305 C 
DOCKED: ATOM     52  O   UNL d   1       1.081  18.144  -4.812 -0.66 -0.06    -0.251 OA
DOCKED: BRANCH  51  53
DOCKED: ATOM     53  O   UNL d   1       0.111  16.380  -5.769 -0.03 +0.33    -0.481 OA
DOCKED: ATOM     54  H   UNL d   1      -0.274  16.404  -4.868 -0.48 -0.58    +0.295 HD
DOCKED: ENDBRANCH  51  53
DOCKED: ENDBRANCH  50  51
DOCKED: ENDBRANCH  49  50
DOCKED: ENDBRANCH  22  49
DOCKED: TORSDOF 13
DOCKED: TER
DOCKED: ENDMDL
________________________________________________________________________________


	BEGINNING GENETIC ALGORITHM DOCKING 77 of 100
Run: 77 Seed: 460562811 2130291764 [ Run 77 of 100 GA/GALS ]
Beginning LAMARCKIAN GENETIC ALGORITHM (LGA), with a maximum of 25000000 energy evaluations.

Final-Value: -13.773


	FINAL GENETIC ALGORITHM DOCKED STATE
	_______________________________________________


Detailed state:  trans 3.251 -16.727 -8.080 quatxyzw 0.353259 -0.488069 -0.788809 -0.121564 center 0.153 0.018 -0.028 ntor 13 -90.0426 -137.3011 -116.3259 37.5414 40.3680 -19.7055 126.3904 133.9352 117.2100 -42.4243 -46.0950 -59.7238 22.6070
State:	  3.251 -16.727  -8.080   0.356 -0.492 -0.795 -166.035    -90.04 -137.30 -116.33   37.54   40.37  -19.71  126.39  133.94  117.21  -42.42  -46.09  -59.72   22.61

DOCKED: MODEL       77
DOCKED: USER    Run = 77
DOCKED: USER    DPF = D:/Protein_go_brrr/autodock/final/mut_Y35F/heme/dock.dpf
DOCKED: USER  
DOCKED: USER    Estimated Free Energy of Binding    =   -5.62 kcal/mol  [=(1)+(2)+(3)-(4)]
DOCKED: USER    Estimated Inhibition Constant, Ki   =   75.70 uM (micromolar)  [Temperature = 298.15 K]
DOCKED: USER    
DOCKED: USER    (1) Final Intermolecular Energy     =   -9.50 kcal/mol
DOCKED: USER        vdW + Hbond + desolv Energy     =   -9.36 kcal/mol
DOCKED: USER        Electrostatic Energy            =   -0.14 kcal/mol
DOCKED: USER    (2) Final Total Internal Energy     =   -4.27 kcal/mol
DOCKED: USER    (3) Torsional Free Energy           =   +3.88 kcal/mol
DOCKED: USER    (4) Unbound System's Energy  [=(2)] =   -4.27 kcal/mol
DOCKED: USER    
DOCKED: USER    
DOCKED: USER    NEWDPF move heme_opt.pdbqt
DOCKED: USER    NEWDPF about 0.153000 0.018000 -0.028000
DOCKED: USER    NEWDPF tran0 3.251431 -16.726795 -8.080056
DOCKED: USER    NEWDPF quaternion0 0.353259 -0.488069 -0.788809 -0.121564
DOCKED: USER    NEWDPF axisangle0 0.355898 -0.491716 -0.794703 -166.035290
DOCKED: USER    NEWDPF quat0 0.355898 -0.491716 -0.794703 -166.035290
DOCKED: USER    NEWDPF dihe0 -90.04 -137.30 -116.33 37.54 40.37 -19.71 126.39 133.94 117.21 -42.42 -46.09 -59.72 22.61 
DOCKED: USER  keepresnum = 1 
DOCKED: USER  
DOCKED: REMARK  13 active torsions:
DOCKED: REMARK  status: ('A' for Active; 'I' for Inactive)
DOCKED: REMARK    1  A    between atoms: O_3  and  C_38 
DOCKED: REMARK    2  A    between atoms: O_4  and  C_40 
DOCKED: REMARK    3  A    between atoms: O_7  and  C_46 
DOCKED: REMARK    4  A    between atoms: O_9  and  C_48 
DOCKED: REMARK    5  A    between atoms: C_15  and  C_20 
DOCKED: REMARK    6  A    between atoms: C_16  and  C_23 
DOCKED: REMARK    7  A    between atoms: C_20  and  C_38 
DOCKED: REMARK    8  A    between atoms: C_23  and  C_40 
DOCKED: REMARK    9  A    between atoms: C_32  and  C_41 
DOCKED: REMARK   10  A    between atoms: C_37  and  C_45 
DOCKED: REMARK   11  A    between atoms: C_41  and  C_44 
DOCKED: REMARK   12  A    between atoms: C_44  and  C_46 
DOCKED: REMARK   13  A    between atoms: C_47  and  C_48 
DOCKED: USER                              x       y       z     vdW  Elec       q    Type
DOCKED: USER                           _______ _______ _______ _____ _____    ______ ____
DOCKED: ROOT
DOCKED: ATOM      1  O   UNL d   1       6.600 -14.107  -3.996 -0.51 +0.23    -0.289 OA
DOCKED: ATOM      2  O   UNL d   1       6.976 -13.987 -11.495 -0.05 +0.07    -0.289 OA
DOCKED: ATOM      3  N   UNL d   1       4.471 -15.934  -6.002 -0.17 +0.09    -0.247 NA
DOCKED: ATOM      4  N   UNL d   1       5.169 -15.026  -8.744 -0.16 +0.10    -0.247 NA
DOCKED: ATOM      5  N   UNL d   1       2.761 -16.289  -9.676 +0.09 +0.17    -0.354 N 
DOCKED: ATOM      6  N   UNL d   1       2.034 -17.210  -6.826 +0.03 +0.20    -0.354 N 
DOCKED: ATOM      7  C   UNL d   1       4.628 -15.496  -3.596 -0.28 -0.03    +0.084 A 
DOCKED: ATOM      8  C   UNL d   1       7.433 -14.176  -9.097 -0.10 -0.04    +0.084 A 
DOCKED: ATOM      9  C   UNL d   1       6.357 -14.688  -8.134 -0.18 -0.03    +0.058 A 
DOCKED: ATOM     10  C   UNL d   1       3.904 -16.174  -4.762 -0.27 -0.02    +0.058 A 
DOCKED: ATOM     11  C   UNL d   1       5.717 -14.844  -4.395 -0.16 -0.08    +0.193 A 
DOCKED: ATOM     12  C   UNL d   1       5.527 -15.206  -5.835 -0.16 -0.04    +0.109 A 
DOCKED: ATOM     13  C   UNL d   1       6.624 -14.251 -10.362 -0.08 -0.06    +0.193 A 
DOCKED: ATOM     14  C   UNL d   1       3.773 -14.407  -2.944 -0.46 -0.01    +0.026 C 
DOCKED: ATOM     15  C   UNL d   1       6.542 -14.750  -6.807 -0.19 -0.03    +0.055 C 
DOCKED: ATOM     16  C   UNL d   1       8.608 -15.151  -9.206 -0.04 -0.01    +0.026 C 
DOCKED: ATOM     17  C   UNL d   1       5.269 -14.774 -10.010 -0.18 -0.04    +0.109 A 
DOCKED: ATOM     18  C   UNL d   1       2.862 -17.002  -4.557 -0.29 -0.02    +0.050 C 
DOCKED: ATOM     19  C   UNL d   1       2.184 -17.737  -5.563 -0.25 -0.02    +0.045 A 
DOCKED: ATOM     20  C   UNL d   1       3.119 -15.602 -10.807 -0.21 -0.02    +0.045 A 
DOCKED: ATOM     21  C   UNL d   1       4.240 -14.915 -11.050 -0.24 -0.02    +0.057 C 
DOCKED: ATOM     22  C   UNL d   1       1.057 -16.530 -11.129 -0.27 +0.00    -0.019 A 
DOCKED: ATOM     23  C   UNL d   1       1.531 -16.883  -9.776 -0.19 -0.02    +0.045 A 
DOCKED: ATOM     24  C   UNL d   1       2.002 -15.773 -11.735 -0.22 +0.01    -0.022 A 
DOCKED: ATOM     25  C   UNL d   1       1.273 -18.046  -7.610 -0.26 -0.02    +0.049 A 
DOCKED: ATOM     26  C   UNL d   1       1.536 -18.962  -5.536 -0.19 +0.01    -0.018 A 
DOCKED: ATOM     27  C   UNL d   1       0.979 -19.161  -6.837 -0.18 -0.00    +0.003 A 
DOCKED: ATOM     28  C   UNL d   1       0.849 -17.644  -8.906 -0.30 -0.02    +0.052 C 
DOCKED: ATOM     29  C   UNL d   1       1.990 -15.187 -13.106 -0.16 -0.01    +0.046 C 
DOCKED: ATOM     30  C   UNL d   1       1.441 -19.894  -4.376 -0.17 -0.02    +0.046 C 
DOCKED: ATOM     31  H   UNL d   1       3.402 -16.392  -8.897 -0.26 -0.09    +0.166 HD
DOCKED: ATOM     32  H   UNL d   1       2.405 -16.310  -7.105 -0.40 -0.17    +0.166 HD
DOCKED: ENDROOT
DOCKED: BRANCH   7  33
DOCKED: ATOM     33  C   UNL d   1       5.223 -16.445  -2.550 -0.19 -0.04    +0.141 C 
DOCKED: BRANCH  33  34
DOCKED: ATOM     34  C   UNL d   1       6.213 -15.763  -1.646 -0.17 -0.09    +0.306 C 
DOCKED: ATOM     35  O   UNL d   1       5.975 -15.275  -0.554 -0.23 +0.06    -0.251 OA
DOCKED: BRANCH  34  36
DOCKED: ATOM     36  O   UNL d   1       7.454 -15.735  -2.163 -0.10 +0.20    -0.481 OA
DOCKED: ATOM     37  H   UNL d   1       7.476 -14.920  -2.709 +0.08 -0.21    +0.295 HD
DOCKED: ENDBRANCH  34  36
DOCKED: ENDBRANCH  33  34
DOCKED: ENDBRANCH   7  33
DOCKED: BRANCH  27  38
DOCKED: ATOM     38  C   UNL d   1       0.211 -20.300  -7.241 -0.08 -0.01    +0.017 C 
DOCKED: ATOM     39  C   UNL d   1      -0.664 -20.323  -8.258 -0.14 -0.05    +0.092 C 
DOCKED: BRANCH  39  40
DOCKED: ATOM     40  C   UNL d   1      -1.376 -21.562  -8.580 -0.05 -0.09    +0.330 C 
DOCKED: ATOM     41  O   UNL d   1      -1.054 -22.700  -8.298 -0.02 +0.04    -0.246 OA
DOCKED: BRANCH  40  42
DOCKED: ATOM     42  O   UNL d   1      -2.501 -21.285  -9.257 -0.04 +0.05    -0.477 OA
DOCKED: ATOM     43  H   UNL d   1      -2.227 -20.595  -9.896 +0.10 -0.00    +0.295 HD
DOCKED: ENDBRANCH  40  42
DOCKED: ENDBRANCH  39  40
DOCKED: ENDBRANCH  27  38
DOCKED: BRANCH   8  44
DOCKED: ATOM     44  C   UNL d   1       7.921 -12.746  -8.843 -0.19 -0.11    +0.141 C 
DOCKED: BRANCH  44  45
DOCKED: ATOM     45  C   UNL d   1       7.158 -11.709  -9.623 -0.17 -0.20    +0.306 C 
DOCKED: ATOM     46  O   UNL d   1       6.084 -11.218  -9.323 -0.19 +0.20    -0.251 OA
DOCKED: BRANCH  45  47
DOCKED: ATOM     47  O   UNL d   1       7.780 -11.363 -10.765 -0.39 +0.16    -0.481 OA
DOCKED: ATOM     48  H   UNL d   1       7.804 -12.189 -11.294 +0.07 -0.08    +0.295 HD
DOCKED: ENDBRANCH  45  47
DOCKED: ENDBRANCH  44  45
DOCKED: ENDBRANCH   8  44
DOCKED: BRANCH  22  49
DOCKED: ATOM     49  C   UNL d   1      -0.269 -16.949 -11.693 -0.18 +0.00    +0.048 C 
DOCKED: BRANCH  49  50
DOCKED: ATOM     50  C   UNL d   1      -0.400 -18.470 -11.769 -0.18 +0.01    +0.125 C 
DOCKED: BRANCH  50  51
DOCKED: ATOM     51  C   UNL d   1      -1.739 -18.919 -11.258 -0.20 +0.07    +0.305 C 
DOCKED: ATOM     52  O   UNL d   1      -2.544 -19.643 -11.818 -0.27 -0.11    -0.251 OA
DOCKED: BRANCH  51  53
DOCKED: ATOM     53  O   UNL d   1      -2.010 -18.411 -10.039 -0.44 -0.01    -0.481 OA
DOCKED: ATOM     54  H   UNL d   1      -2.479 -19.137  -9.577 +0.10 -0.02    +0.295 HD
DOCKED: ENDBRANCH  51  53
DOCKED: ENDBRANCH  50  51
DOCKED: ENDBRANCH  49  50
DOCKED: ENDBRANCH  22  49
DOCKED: TORSDOF 13
DOCKED: TER
DOCKED: ENDMDL
________________________________________________________________________________


	BEGINNING GENETIC ALGORITHM DOCKING 78 of 100
Run: 78 Seed: 2094221806 947073510 [ Run 78 of 100 GA/GALS ]
Beginning LAMARCKIAN GENETIC ALGORITHM (LGA), with a maximum of 25000000 energy evaluations.

Final-Value: -12.434


	FINAL GENETIC ALGORITHM DOCKED STATE
	_______________________________________________


Detailed state:  trans 11.333 13.923 -10.436 quatxyzw 0.238278 -0.471926 0.375432 -0.761289 center 0.153 0.018 -0.028 ntor 13 105.6980 133.1625 -166.0226 -56.2478 -2.3520 -30.0638 -63.2049 -127.0621 -141.7502 -147.0063 -100.3856 5.7456 -7.7038
State:	 11.333  13.923 -10.436   0.367 -0.728  0.579 -80.844    105.70  133.16 -166.02  -56.25   -2.35  -30.06  -63.20 -127.06 -141.75 -147.01 -100.39    5.75   -7.70

DOCKED: MODEL       78
DOCKED: USER    Run = 78
DOCKED: USER    DPF = D:/Protein_go_brrr/autodock/final/mut_Y35F/heme/dock.dpf
DOCKED: USER  
DOCKED: USER    Estimated Free Energy of Binding    =   -5.06 kcal/mol  [=(1)+(2)+(3)-(4)]
DOCKED: USER    Estimated Inhibition Constant, Ki   =  197.01 uM (micromolar)  [Temperature = 298.15 K]
DOCKED: USER    
DOCKED: USER    (1) Final Intermolecular Energy     =   -8.93 kcal/mol
DOCKED: USER        vdW + Hbond + desolv Energy     =   -8.54 kcal/mol
DOCKED: USER        Electrostatic Energy            =   -0.40 kcal/mol
DOCKED: USER    (2) Final Total Internal Energy     =   -3.50 kcal/mol
DOCKED: USER    (3) Torsional Free Energy           =   +3.88 kcal/mol
DOCKED: USER    (4) Unbound System's Energy  [=(2)] =   -3.50 kcal/mol
DOCKED: USER    
DOCKED: USER    
DOCKED: USER    NEWDPF move heme_opt.pdbqt
DOCKED: USER    NEWDPF about 0.153000 0.018000 -0.028000
DOCKED: USER    NEWDPF tran0 11.333040 13.922599 -10.435990
DOCKED: USER    NEWDPF quaternion0 0.238278 -0.471926 0.375432 -0.761289
DOCKED: USER    NEWDPF axisangle0 0.367478 -0.727816 0.579002 -80.844140
DOCKED: USER    NEWDPF quat0 0.367478 -0.727816 0.579002 -80.844140
DOCKED: USER    NEWDPF dihe0 105.70 133.16 -166.02 -56.25 -2.35 -30.06 -63.20 -127.06 -141.75 -147.01 -100.39 5.75 -7.70 
DOCKED: USER  keepresnum = 1 
DOCKED: USER  
DOCKED: REMARK  13 active torsions:
DOCKED: REMARK  status: ('A' for Active; 'I' for Inactive)
DOCKED: REMARK    1  A    between atoms: O_3  and  C_38 
DOCKED: REMARK    2  A    between atoms: O_4  and  C_40 
DOCKED: REMARK    3  A    between atoms: O_7  and  C_46 
DOCKED: REMARK    4  A    between atoms: O_9  and  C_48 
DOCKED: REMARK    5  A    between atoms: C_15  and  C_20 
DOCKED: REMARK    6  A    between atoms: C_16  and  C_23 
DOCKED: REMARK    7  A    between atoms: C_20  and  C_38 
DOCKED: REMARK    8  A    between atoms: C_23  and  C_40 
DOCKED: REMARK    9  A    between atoms: C_32  and  C_41 
DOCKED: REMARK   10  A    between atoms: C_37  and  C_45 
DOCKED: REMARK   11  A    between atoms: C_41  and  C_44 
DOCKED: REMARK   12  A    between atoms: C_44  and  C_46 
DOCKED: REMARK   13  A    between atoms: C_47  and  C_48 
DOCKED: USER                              x       y       z     vdW  Elec       q    Type
DOCKED: USER                           _______ _______ _______ _____ _____    ______ ____
DOCKED: ROOT
DOCKED: ATOM      1  O   UNL d   1       8.108  12.533 -15.172 -0.09 +0.00    -0.289 OA
DOCKED: ATOM      2  O   UNL d   1      15.321  11.204 -13.558 -0.14 +0.05    -0.289 OA
DOCKED: ATOM      3  N   UNL d   1       9.618  13.674 -12.288 -0.14 +0.01    -0.247 NA
DOCKED: ATOM      4  N   UNL d   1      12.312  12.425 -12.388 -0.08 +0.04    -0.247 NA
DOCKED: ATOM      5  N   UNL d   1      12.652  13.156  -9.628 -0.09 +0.09    -0.354 N 
DOCKED: ATOM      6  N   UNL d   1       9.848  14.433  -9.528 -0.16 +0.02    -0.354 N 
DOCKED: ATOM      7  C   UNL d   1       7.326  13.675 -13.157 -0.25 +0.00    +0.084 A 
DOCKED: ATOM      8  C   UNL d   1      13.201  11.858 -14.592 -0.05 -0.01    +0.084 A 
DOCKED: ATOM      9  C   UNL d   1      12.037  12.367 -13.736 -0.08 -0.01    +0.058 A 
DOCKED: ATOM     10  C   UNL d   1       8.306  14.037 -12.036 -0.26 +0.00    +0.058 A 
DOCKED: ATOM     11  C   UNL d   1       8.321  13.060 -14.095 -0.10 +0.00    +0.193 A 
DOCKED: ATOM     12  C   UNL d   1       9.677  13.143 -13.466 -0.11 -0.00    +0.109 A 
DOCKED: ATOM     13  C   UNL d   1      14.175  11.602 -13.477 -0.10 -0.04    +0.193 A 
DOCKED: ATOM     14  C   UNL d   1       6.326  12.601 -12.721 -0.27 +0.00    +0.026 C 
DOCKED: ATOM     15  C   UNL d   1      10.838  12.678 -14.252 -0.10 -0.00    +0.055 C 
DOCKED: ATOM     16  C   UNL d   1      13.764  12.958 -15.496 -0.03 -0.00    +0.026 C 
DOCKED: ATOM     17  C   UNL d   1      13.512  11.980 -12.193 -0.14 -0.03    +0.109 A 
DOCKED: ATOM     18  C   UNL d   1       7.909  14.730 -10.952 -0.14 +0.00    +0.050 C 
DOCKED: ATOM     19  C   UNL d   1       8.757  15.181  -9.909 -0.22 +0.00    +0.045 A 
DOCKED: ATOM     20  C   UNL d   1      13.745  12.346  -9.793 -0.10 -0.02    +0.045 A 
DOCKED: ATOM     21  C   UNL d   1      14.217  11.795 -10.916 -0.19 -0.02    +0.057 C 
DOCKED: ATOM     22  C   UNL d   1      13.566  12.903  -7.585 -0.31 +0.00    -0.019 A 
DOCKED: ATOM     23  C   UNL d   1      12.462  13.543  -8.328 -0.28 -0.01    +0.045 A 
DOCKED: ATOM     24  C   UNL d   1      14.323  12.197  -8.458 -0.23 +0.01    -0.022 A 
DOCKED: ATOM     25  C   UNL d   1      10.474  15.007  -8.445 -0.30 -0.00    +0.049 A 
DOCKED: ATOM     26  C   UNL d   1       8.694  16.288  -9.077 -0.22 -0.00    -0.018 A 
DOCKED: ATOM     27  C   UNL d   1       9.791  16.183  -8.168 -0.24 +0.00    +0.003 A 
DOCKED: ATOM     28  C   UNL d   1      11.532  14.336  -7.775 -0.36 -0.01    +0.052 C 
DOCKED: ATOM     29  C   UNL d   1      15.549  11.393  -8.191 -0.38 -0.01    +0.046 C 
DOCKED: ATOM     30  C   UNL d   1       7.678  17.379  -9.123 -0.16 +0.01    +0.046 C 
DOCKED: ATOM     31  H   UNL d   1      12.112  13.480 -10.423 +0.06 -0.03    +0.166 HD
DOCKED: ATOM     32  H   UNL d   1      10.112  13.561  -9.971 +0.02 -0.03    +0.166 HD
DOCKED: ENDROOT
DOCKED: BRANCH   7  33
DOCKED: ATOM     33  C   UNL d   1       6.622  14.862 -13.822 -0.11 +0.00    +0.141 C 
DOCKED: BRANCH  33  34
DOCKED: ATOM     34  C   UNL d   1       5.281  15.159 -13.208 -0.10 +0.01    +0.306 C 
DOCKED: ATOM     35  O   UNL d   1       5.053  15.323 -12.021 -0.18 -0.02    -0.251 OA
DOCKED: BRANCH  34  36
DOCKED: ATOM     36  O   UNL d   1       4.297  15.237 -14.121 -0.01 -0.00    -0.481 OA
DOCKED: ATOM     37  H   UNL d   1       4.418  16.116 -14.539 +0.04 -0.00    +0.295 HD
DOCKED: ENDBRANCH  34  36
DOCKED: ENDBRANCH  33  34
DOCKED: ENDBRANCH   7  33
DOCKED: BRANCH  27  38
DOCKED: ATOM     38  C   UNL d   1      10.090  17.117  -7.124 -0.16 +0.00    +0.017 C 
DOCKED: ATOM     39  C   UNL d   1      11.316  17.563  -6.812 -0.13 -0.02    +0.092 C 
DOCKED: BRANCH  39  40
DOCKED: ATOM     40  C   UNL d   1      11.485  18.535  -5.728 -0.07 -0.12    +0.330 C 
DOCKED: ATOM     41  O   UNL d   1      10.712  19.408  -5.385 -0.05 +0.05    -0.246 OA
DOCKED: BRANCH  40  42
DOCKED: ATOM     42  O   UNL d   1      12.660  18.336  -5.110 -0.03 +0.47    -0.477 OA
DOCKED: ATOM     43  H   UNL d   1      12.687  17.369  -4.962 -0.40 -0.43    +0.295 HD
DOCKED: ENDBRANCH  40  42
DOCKED: ENDBRANCH  39  40
DOCKED: ENDBRANCH  27  38
DOCKED: BRANCH   8  44
DOCKED: ATOM     44  C   UNL d   1      12.926  10.576 -15.385 -0.08 -0.02    +0.141 C 
DOCKED: BRANCH  44  45
DOCKED: ATOM     45  C   UNL d   1      13.918  10.337 -16.492 -0.04 -0.06    +0.306 C 
DOCKED: ATOM     46  O   UNL d   1      13.716  10.457 -17.688 -0.02 +0.03    -0.251 OA
DOCKED: BRANCH  45  47
DOCKED: ATOM     47  O   UNL d   1      15.115   9.930 -16.031 -0.04 +0.15    -0.481 OA
DOCKED: ATOM     48  H   UNL d   1      14.952   9.693 -15.093 -0.49 -0.14    +0.295 HD
DOCKED: ENDBRANCH  45  47
DOCKED: ENDBRANCH  44  45
DOCKED: ENDBRANCH   8  44
DOCKED: BRANCH  22  49
DOCKED: ATOM     49  C   UNL d   1      13.768  13.028  -6.104 -0.44 -0.01    +0.048 C 
DOCKED: BRANCH  49  50
DOCKED: ATOM     50  C   UNL d   1      14.674  14.207  -5.750 -0.22 -0.05    +0.125 C 
DOCKED: BRANCH  50  51
DOCKED: ATOM     51  C   UNL d   1      13.907  15.499  -5.771 -0.13 -0.21    +0.305 C 
DOCKED: ATOM     52  O   UNL d   1      14.234  16.549  -6.294 -0.12 +0.16    -0.251 OA
DOCKED: BRANCH  51  53
DOCKED: ATOM     53  O   UNL d   1      12.739  15.402  -5.104 -0.07 +0.40    -0.481 OA
DOCKED: ATOM     54  H   UNL d   1      12.792  16.111  -4.429 -0.46 -0.60    +0.295 HD
DOCKED: ENDBRANCH  51  53
DOCKED: ENDBRANCH  50  51
DOCKED: ENDBRANCH  49  50
DOCKED: ENDBRANCH  22  49
DOCKED: TORSDOF 13
DOCKED: TER
DOCKED: ENDMDL
________________________________________________________________________________


	BEGINNING GENETIC ALGORITHM DOCKING 79 of 100
Run: 79 Seed: 1858616251 1683986916 [ Run 79 of 100 GA/GALS ]
Beginning LAMARCKIAN GENETIC ALGORITHM (LGA), with a maximum of 25000000 energy evaluations.

Final-Value: -10.471


	FINAL GENETIC ALGORITHM DOCKED STATE
	_______________________________________________


Detailed state:  trans 0.032 3.928 -14.070 quatxyzw -0.775921 0.435207 0.250048 0.382123 center 0.153 0.018 -0.028 ntor 13 -139.7952 -162.6388 178.1768 -123.6805 51.1635 -118.5826 148.9862 -84.5835 161.7082 -4.0689 -171.0305 70.4257 167.4729
State:	  0.032   3.928 -14.070  -0.840  0.471  0.271 135.070   -139.80 -162.64  178.18 -123.68   51.16 -118.58  148.99  -84.58  161.71   -4.07 -171.03   70.43  167.47

DOCKED: MODEL       79
DOCKED: USER    Run = 79
DOCKED: USER    DPF = D:/Protein_go_brrr/autodock/final/mut_Y35F/heme/dock.dpf
DOCKED: USER  
DOCKED: USER    Estimated Free Energy of Binding    =   -4.17 kcal/mol  [=(1)+(2)+(3)-(4)]
DOCKED: USER    Estimated Inhibition Constant, Ki   =  878.87 uM (micromolar)  [Temperature = 298.15 K]
DOCKED: USER    
DOCKED: USER    (1) Final Intermolecular Energy     =   -8.05 kcal/mol
DOCKED: USER        vdW + Hbond + desolv Energy     =   -7.67 kcal/mol
DOCKED: USER        Electrostatic Energy            =   -0.38 kcal/mol
DOCKED: USER    (2) Final Total Internal Energy     =   -2.42 kcal/mol
DOCKED: USER    (3) Torsional Free Energy           =   +3.88 kcal/mol
DOCKED: USER    (4) Unbound System's Energy  [=(2)] =   -2.42 kcal/mol
DOCKED: USER    
DOCKED: USER    
DOCKED: USER    NEWDPF move heme_opt.pdbqt
DOCKED: USER    NEWDPF about 0.153000 0.018000 -0.028000
DOCKED: USER    NEWDPF tran0 0.031629 3.928345 -14.070394
DOCKED: USER    NEWDPF quaternion0 -0.775921 0.435207 0.250048 0.382123
DOCKED: USER    NEWDPF axisangle0 -0.839639 0.470947 0.270582 135.069554
DOCKED: USER    NEWDPF quat0 -0.839639 0.470947 0.270582 135.069554
DOCKED: USER    NEWDPF dihe0 -139.80 -162.64 178.18 -123.68 51.16 -118.58 148.99 -84.58 161.71 -4.07 -171.03 70.43 167.47 
DOCKED: USER  keepresnum = 1 
DOCKED: USER  
DOCKED: REMARK  13 active torsions:
DOCKED: REMARK  status: ('A' for Active; 'I' for Inactive)
DOCKED: REMARK    1  A    between atoms: O_3  and  C_38 
DOCKED: REMARK    2  A    between atoms: O_4  and  C_40 
DOCKED: REMARK    3  A    between atoms: O_7  and  C_46 
DOCKED: REMARK    4  A    between atoms: O_9  and  C_48 
DOCKED: REMARK    5  A    between atoms: C_15  and  C_20 
DOCKED: REMARK    6  A    between atoms: C_16  and  C_23 
DOCKED: REMARK    7  A    between atoms: C_20  and  C_38 
DOCKED: REMARK    8  A    between atoms: C_23  and  C_40 
DOCKED: REMARK    9  A    between atoms: C_32  and  C_41 
DOCKED: REMARK   10  A    between atoms: C_37  and  C_45 
DOCKED: REMARK   11  A    between atoms: C_41  and  C_44 
DOCKED: REMARK   12  A    between atoms: C_44  and  C_46 
DOCKED: REMARK   13  A    between atoms: C_47  and  C_48 
DOCKED: USER                              x       y       z     vdW  Elec       q    Type
DOCKED: USER                           _______ _______ _______ _____ _____    ______ ____
DOCKED: ROOT
DOCKED: ATOM      1  O   UNL d   1      -4.037   7.991 -12.768 -0.04 -0.01    -0.289 OA
DOCKED: ATOM      2  O   UNL d   1       2.198   8.418 -16.931 -0.04 +0.03    -0.289 OA
DOCKED: ATOM      3  N   UNL d   1      -1.856   5.346 -13.142 -0.05 -0.00    -0.247 NA
DOCKED: ATOM      4  N   UNL d   1       0.089   6.343 -15.155 -0.13 +0.02    -0.247 NA
DOCKED: ATOM      5  N   UNL d   1       1.028   3.642 -15.451 -0.03 +0.01    -0.354 N 
DOCKED: ATOM      6  N   UNL d   1      -1.006   2.613 -13.375 -0.08 -0.01    -0.354 N 
DOCKED: ATOM      7  C   UNL d   1      -4.048   5.643 -12.087 -0.11 +0.01    +0.084 A 
DOCKED: ATOM      8  C   UNL d   1       0.400   8.762 -15.306 -0.16 -0.01    +0.084 A 
DOCKED: ATOM      9  C   UNL d   1      -0.352   7.569 -14.707 -0.19 -0.00    +0.058 A 
DOCKED: ATOM     10  C   UNL d   1      -2.875   4.724 -12.441 -0.13 +0.00    +0.058 A 
DOCKED: ATOM     11  C   UNL d   1      -3.503   6.899 -12.697 -0.08 +0.01    +0.193 A 
DOCKED: ATOM     12  C   UNL d   1      -2.158   6.595 -13.282 -0.03 -0.00    +0.109 A 
DOCKED: ATOM     13  C   UNL d   1       1.323   7.989 -16.204 -0.09 -0.02    +0.193 A 
DOCKED: ATOM     14  C   UNL d   1      -5.330   5.250 -12.826 -0.03 +0.00    +0.026 C 
DOCKED: ATOM     15  C   UNL d   1      -1.383   7.711 -13.860 -0.16 -0.00    +0.055 C 
DOCKED: ATOM     16  C   UNL d   1       1.237   9.493 -14.251 -0.29 -0.00    +0.026 C 
DOCKED: ATOM     17  C   UNL d   1       1.028   6.535 -16.025 -0.14 -0.01    +0.109 A 
DOCKED: ATOM     18  C   UNL d   1      -2.828   3.449 -12.012 -0.18 +0.00    +0.050 C 
DOCKED: ATOM     19  C   UNL d   1      -1.749   2.552 -12.218 -0.20 +0.00    +0.045 A 
DOCKED: ATOM     20  C   UNL d   1       1.682   4.235 -16.500 -0.12 -0.00    +0.045 A 
DOCKED: ATOM     21  C   UNL d   1       1.754   5.531 -16.817 -0.12 -0.00    +0.057 C 
DOCKED: ATOM     22  C   UNL d   1       2.012   1.977 -16.605 -0.08 -0.00    -0.019 A 
DOCKED: ATOM     23  C   UNL d   1       1.169   2.280 -15.431 -0.10 +0.00    +0.045 A 
DOCKED: ATOM     24  C   UNL d   1       2.313   3.138 -17.233 -0.08 +0.00    -0.022 A 
DOCKED: ATOM     25  C   UNL d   1      -0.075   1.599 -13.406 -0.17 +0.00    +0.049 A 
DOCKED: ATOM     26  C   UNL d   1      -1.265   1.495 -11.461 -0.29 -0.00    -0.018 A 
DOCKED: ATOM     27  C   UNL d   1      -0.196   0.910 -12.207 -0.26 +0.00    +0.003 A 
DOCKED: ATOM     28  C   UNL d   1       0.705   1.361 -14.570 -0.14 +0.00    +0.052 C 
DOCKED: ATOM     29  C   UNL d   1       3.143   3.351 -18.453 -0.04 -0.00    +0.046 C 
DOCKED: ATOM     30  C   UNL d   1      -1.763   1.056 -10.126 -0.44 +0.00    +0.046 C 
DOCKED: ATOM     31  H   UNL d   1       0.566   4.196 -14.738 +0.04 -0.00    +0.166 HD
DOCKED: ATOM     32  H   UNL d   1      -1.166   3.292 -14.109 +0.03 +0.00    +0.166 HD
DOCKED: ENDROOT
DOCKED: BRANCH   7  33
DOCKED: ATOM     33  C   UNL d   1      -4.301   5.839 -10.588 -0.23 +0.04    +0.141 C 
DOCKED: BRANCH  33  34
DOCKED: ATOM     34  C   UNL d   1      -5.748   6.108 -10.275 -0.09 +0.18    +0.306 C 
DOCKED: ATOM     35  O   UNL d   1      -6.535   5.321  -9.776 -0.67 -0.21    -0.251 OA
DOCKED: BRANCH  34  36
DOCKED: ATOM     36  O   UNL d   1      -6.127   7.355 -10.605 -0.60 -0.26    -0.481 OA
DOCKED: ATOM     37  H   UNL d   1      -5.650   7.544 -11.442 +0.06 +0.07    +0.295 HD
DOCKED: ENDBRANCH  34  36
DOCKED: ENDBRANCH  33  34
DOCKED: ENDBRANCH   7  33
DOCKED: BRANCH  27  38
DOCKED: ATOM     38  C   UNL d   1       0.574  -0.224 -11.794 -0.34 +0.00    +0.017 C 
DOCKED: ATOM     39  C   UNL d   1       1.499  -0.220 -10.823 -0.45 +0.02    +0.092 C 
DOCKED: BRANCH  39  40
DOCKED: ATOM     40  C   UNL d   1       2.208  -1.457 -10.484 -0.30 +0.14    +0.330 C 
DOCKED: ATOM     41  O   UNL d   1       2.236  -2.027  -9.410 -0.47 -0.08    -0.246 OA
DOCKED: BRANCH  40  42
DOCKED: ATOM     42  O   UNL d   1       2.857  -1.927 -11.560 -0.70 -0.43    -0.477 OA
DOCKED: ATOM     43  H   UNL d   1       2.892  -1.159 -12.167 +0.15 +0.15    +0.295 HD
DOCKED: ENDBRANCH  40  42
DOCKED: ENDBRANCH  39  40
DOCKED: ENDBRANCH  27  38
DOCKED: BRANCH   8  44
DOCKED: ATOM     44  C   UNL d   1      -0.455   9.745 -16.112 -0.05 -0.01    +0.141 C 
DOCKED: BRANCH  44  45
DOCKED: ATOM     45  C   UNL d   1      -1.253   9.081 -17.203 -0.01 -0.01    +0.306 C 
DOCKED: ATOM     46  O   UNL d   1      -2.450   8.854 -17.192 -0.00 +0.01    -0.251 OA
DOCKED: BRANCH  45  47
DOCKED: ATOM     47  O   UNL d   1      -0.489   8.711 -18.247 +0.00 +0.02    -0.481 OA
DOCKED: ATOM     48  H   UNL d   1       0.411   9.026 -18.019 +0.01 -0.01    +0.295 HD
DOCKED: ENDBRANCH  45  47
DOCKED: ENDBRANCH  44  45
DOCKED: ENDBRANCH   8  44
DOCKED: BRANCH  22  49
DOCKED: ATOM     49  C   UNL d   1       2.428   0.593 -17.008 -0.04 +0.00    +0.048 C 
DOCKED: BRANCH  49  50
DOCKED: ATOM     50  C   UNL d   1       1.354  -0.102 -17.846 -0.01 +0.00    +0.125 C 
DOCKED: BRANCH  50  51
DOCKED: ATOM     51  C   UNL d   1       0.274   0.864 -18.242 -0.00 +0.00    +0.305 C 
DOCKED: ATOM     52  O   UNL d   1      -0.755   1.115 -17.640 -0.01 -0.00    -0.251 OA
DOCKED: BRANCH  51  53
DOCKED: ATOM     53  O   UNL d   1       0.546   1.471 -19.414 +0.00 +0.01    -0.481 OA
DOCKED: ATOM     54  H   UNL d   1       0.677   0.730 -20.042 +0.00 -0.00    +0.295 HD
DOCKED: ENDBRANCH  51  53
DOCKED: ENDBRANCH  50  51
DOCKED: ENDBRANCH  49  50
DOCKED: ENDBRANCH  22  49
DOCKED: TORSDOF 13
DOCKED: TER
DOCKED: ENDMDL
________________________________________________________________________________


	BEGINNING GENETIC ALGORITHM DOCKING 80 of 100
Run: 80 Seed: 1367861591 1266559496 [ Run 80 of 100 GA/GALS ]
Beginning LAMARCKIAN GENETIC ALGORITHM (LGA), with a maximum of 25000000 energy evaluations.

Final-Value: -11.293


	FINAL GENETIC ALGORITHM DOCKED STATE
	_______________________________________________


Detailed state:  trans 2.834 -17.763 -6.361 quatxyzw -0.309421 0.794437 -0.493207 -0.172846 center 0.153 0.018 -0.028 ntor 13 -163.2908 -90.6437 -91.3968 -133.3313 -128.0730 32.3698 123.0612 -83.6735 -130.7646 -54.4864 114.0810 -173.1637 12.5966
State:	  2.834 -17.763  -6.361  -0.314  0.807 -0.501 -160.093   -163.29  -90.64  -91.40 -133.33 -128.07   32.37  123.06  -83.67 -130.76  -54.49  114.08 -173.16   12.60

DOCKED: MODEL       80
DOCKED: USER    Run = 80
DOCKED: USER    DPF = D:/Protein_go_brrr/autodock/final/mut_Y35F/heme/dock.dpf
DOCKED: USER  
DOCKED: USER    Estimated Free Energy of Binding    =   -5.66 kcal/mol  [=(1)+(2)+(3)-(4)]
DOCKED: USER    Estimated Inhibition Constant, Ki   =   70.98 uM (micromolar)  [Temperature = 298.15 K]
DOCKED: USER    
DOCKED: USER    (1) Final Intermolecular Energy     =   -9.54 kcal/mol
DOCKED: USER        vdW + Hbond + desolv Energy     =   -8.50 kcal/mol
DOCKED: USER        Electrostatic Energy            =   -1.04 kcal/mol
DOCKED: USER    (2) Final Total Internal Energy     =   -1.76 kcal/mol
DOCKED: USER    (3) Torsional Free Energy           =   +3.88 kcal/mol
DOCKED: USER    (4) Unbound System's Energy  [=(2)] =   -1.76 kcal/mol
DOCKED: USER    
DOCKED: USER    
DOCKED: USER    NEWDPF move heme_opt.pdbqt
DOCKED: USER    NEWDPF about 0.153000 0.018000 -0.028000
DOCKED: USER    NEWDPF tran0 2.833840 -17.762679 -6.361384
DOCKED: USER    NEWDPF quaternion0 -0.309421 0.794437 -0.493207 -0.172846
DOCKED: USER    NEWDPF axisangle0 -0.314149 0.806577 -0.500743 -160.093361
DOCKED: USER    NEWDPF quat0 -0.314149 0.806577 -0.500743 -160.093361
DOCKED: USER    NEWDPF dihe0 -163.29 -90.64 -91.40 -133.33 -128.07 32.37 123.06 -83.67 -130.76 -54.49 114.08 -173.16 12.60 
DOCKED: USER  keepresnum = 1 
DOCKED: USER  
DOCKED: REMARK  13 active torsions:
DOCKED: REMARK  status: ('A' for Active; 'I' for Inactive)
DOCKED: REMARK    1  A    between atoms: O_3  and  C_38 
DOCKED: REMARK    2  A    between atoms: O_4  and  C_40 
DOCKED: REMARK    3  A    between atoms: O_7  and  C_46 
DOCKED: REMARK    4  A    between atoms: O_9  and  C_48 
DOCKED: REMARK    5  A    between atoms: C_15  and  C_20 
DOCKED: REMARK    6  A    between atoms: C_16  and  C_23 
DOCKED: REMARK    7  A    between atoms: C_20  and  C_38 
DOCKED: REMARK    8  A    between atoms: C_23  and  C_40 
DOCKED: REMARK    9  A    between atoms: C_32  and  C_41 
DOCKED: REMARK   10  A    between atoms: C_37  and  C_45 
DOCKED: REMARK   11  A    between atoms: C_41  and  C_44 
DOCKED: REMARK   12  A    between atoms: C_44  and  C_46 
DOCKED: REMARK   13  A    between atoms: C_47  and  C_48 
DOCKED: USER                              x       y       z     vdW  Elec       q    Type
DOCKED: USER                           _______ _______ _______ _____ _____    ______ ____
DOCKED: ROOT
DOCKED: ATOM      1  O   UNL d   1       6.869 -13.942  -8.331 -0.14 +0.17    -0.289 OA
DOCKED: ATOM      2  O   UNL d   1       5.464 -16.495  -1.410 -0.15 +0.10    -0.289 OA
DOCKED: ATOM      3  N   UNL d   1       4.274 -16.103  -7.628 -0.07 +0.11    -0.247 NA
DOCKED: ATOM      4  N   UNL d   1       4.698 -16.771  -4.764 -0.07 +0.07    -0.247 NA
DOCKED: ATOM      5  N   UNL d   1       2.817 -18.922  -5.082 -0.02 +0.10    -0.354 N 
DOCKED: ATOM      6  N   UNL d   1       2.398 -18.234  -8.058 -0.05 +0.13    -0.354 N 
DOCKED: ATOM      7  C   UNL d   1       5.236 -15.165  -9.678 -0.16 -0.03    +0.084 A 
DOCKED: ATOM      8  C   UNL d   1       5.883 -15.128  -3.397 -0.25 -0.03    +0.084 A 
DOCKED: ATOM      9  C   UNL d   1       5.386 -15.578  -4.775 -0.20 -0.02    +0.058 A 
DOCKED: ATOM     10  C   UNL d   1       4.196 -16.069  -9.010 -0.11 -0.02    +0.058 A 
DOCKED: ATOM     11  C   UNL d   1       5.904 -14.679  -8.427 -0.16 -0.08    +0.193 A 
DOCKED: ATOM     12  C   UNL d   1       5.214 -15.299  -7.252 -0.20 -0.04    +0.109 A 
DOCKED: ATOM     13  C   UNL d   1       5.383 -16.305  -2.608 -0.13 -0.06    +0.193 A 
DOCKED: ATOM     14  C   UNL d   1       6.249 -15.965 -10.502 -0.05 -0.01    +0.026 C 
DOCKED: ATOM     15  C   UNL d   1       5.644 -14.892  -5.899 -0.15 -0.02    +0.055 C 
DOCKED: ATOM     16  C   UNL d   1       5.157 -13.868  -2.914 -0.55 -0.01    +0.026 C 
DOCKED: ATOM     17  C   UNL d   1       4.690 -17.231  -3.554 -0.11 -0.03    +0.109 A 
DOCKED: ATOM     18  C   UNL d   1       3.243 -16.694  -9.728 -0.16 -0.02    +0.050 C 
DOCKED: ATOM     19  C   UNL d   1       2.192 -17.480  -9.191 -0.13 -0.02    +0.045 A 
DOCKED: ATOM     20  C   UNL d   1       3.305 -19.218  -3.836 -0.08 -0.01    +0.045 A 
DOCKED: ATOM     21  C   UNL d   1       4.132 -18.501  -3.068 -0.12 -0.01    +0.057 C 
DOCKED: ATOM     22  C   UNL d   1       1.942 -20.919  -4.519 -0.07 +0.00    -0.019 A 
DOCKED: ATOM     23  C   UNL d   1       1.985 -19.890  -5.577 -0.09 -0.02    +0.045 A 
DOCKED: ATOM     24  C   UNL d   1       2.724 -20.515  -3.490 -0.06 +0.00    -0.022 A 
DOCKED: ATOM     25  C   UNL d   1       1.281 -18.984  -7.767 -0.16 -0.02    +0.049 A 
DOCKED: ATOM     26  C   UNL d   1       0.897 -17.717  -9.626 -0.26 +0.01    -0.018 A 
DOCKED: ATOM     27  C   UNL d   1       0.320 -18.652  -8.712 -0.25 -0.00    +0.003 A 
DOCKED: ATOM     28  C   UNL d   1       1.307 -19.959  -6.733 -0.11 -0.03    +0.052 C 
DOCKED: ATOM     29  C   UNL d   1       2.992 -21.203  -2.195 -0.06 -0.00    +0.046 C 
DOCKED: ATOM     30  C   UNL d   1       0.233 -17.111 -10.816 -0.31 -0.01    +0.046 C 
DOCKED: ATOM     31  H   UNL d   1       3.010 -18.029  -5.524 +0.06 -0.05    +0.166 HD
DOCKED: ATOM     32  H   UNL d   1       3.273 -18.252  -7.548 +0.03 -0.05    +0.166 HD
DOCKED: ENDROOT
DOCKED: BRANCH   7  33
DOCKED: ATOM     33  C   UNL d   1       4.667 -13.987 -10.476 -0.31 -0.06    +0.141 C 
DOCKED: BRANCH  33  34
DOCKED: ATOM     34  C   UNL d   1       4.254 -14.377 -11.870 -0.15 -0.10    +0.306 C 
DOCKED: ATOM     35  O   UNL d   1       5.003 -14.615 -12.803 -0.08 +0.05    -0.251 OA
DOCKED: BRANCH  34  36
DOCKED: ATOM     36  O   UNL d   1       2.919 -14.450 -12.014 -0.08 +0.20    -0.481 OA
DOCKED: ATOM     37  H   UNL d   1       2.560 -14.002 -11.219 -0.42 -0.26    +0.295 HD
DOCKED: ENDBRANCH  34  36
DOCKED: ENDBRANCH  33  34
DOCKED: ENDBRANCH   7  33
DOCKED: BRANCH  27  38
DOCKED: ATOM     38  C   UNL d   1      -1.007 -19.182  -8.801 -0.33 -0.01    +0.017 C 
DOCKED: ATOM     39  C   UNL d   1      -1.595 -19.611  -9.928 -0.29 -0.01    +0.092 C 
DOCKED: BRANCH  39  40
DOCKED: ATOM     40  C   UNL d   1      -2.957 -20.150  -9.882 -0.21 +0.02    +0.330 C 
DOCKED: ATOM     41  O   UNL d   1      -3.850 -19.847  -9.114 -0.30 +0.00    -0.246 OA
DOCKED: BRANCH  40  42
DOCKED: ATOM     42  O   UNL d   1      -3.124 -21.066 -10.848 -0.08 -0.12    -0.477 OA
DOCKED: ATOM     43  H   UNL d   1      -2.851 -21.906 -10.424 +0.07 +0.04    +0.295 HD
DOCKED: ENDBRANCH  40  42
DOCKED: ENDBRANCH  39  40
DOCKED: ENDBRANCH  27  38
DOCKED: BRANCH   8  44
DOCKED: ATOM     44  C   UNL d   1       7.402 -14.980  -3.259 -0.20 -0.11    +0.141 C 
DOCKED: BRANCH  44  45
DOCKED: ATOM     45  C   UNL d   1       8.042 -16.110  -2.497 -0.09 -0.14    +0.306 C 
DOCKED: ATOM     46  O   UNL d   1       8.305 -17.219  -2.928 -0.03 +0.08    -0.251 OA
DOCKED: BRANCH  45  47
DOCKED: ATOM     47  O   UNL d   1       8.295 -15.789  -1.216 -0.34 +0.12    -0.481 OA
DOCKED: ATOM     48  H   UNL d   1       7.470 -16.014  -0.736 +0.09 -0.06    +0.295 HD
DOCKED: ENDBRANCH  45  47
DOCKED: ENDBRANCH  44  45
DOCKED: ENDBRANCH   8  44
DOCKED: BRANCH  22  49
DOCKED: ATOM     49  C   UNL d   1       1.160 -22.196  -4.617 -0.05 -0.01    +0.048 C 
DOCKED: BRANCH  49  50
DOCKED: ATOM     50  C   UNL d   1      -0.346 -21.949  -4.528 -0.09 -0.06    +0.125 C 
DOCKED: BRANCH  50  51
DOCKED: ATOM     51  C   UNL d   1      -0.723 -21.411  -3.177 -0.04 +0.03    +0.305 C 
DOCKED: ATOM     52  O   UNL d   1      -1.037 -22.046  -2.186 -0.30 -0.14    -0.251 OA
DOCKED: BRANCH  51  53
DOCKED: ATOM     53  O   UNL d   1      -0.696 -20.064  -3.146 -0.49 +0.01    -0.481 OA
DOCKED: ATOM     54  H   UNL d   1      -1.168 -19.797  -3.962 -0.44 -0.62    +0.295 HD
DOCKED: ENDBRANCH  51  53
DOCKED: ENDBRANCH  50  51
DOCKED: ENDBRANCH  49  50
DOCKED: ENDBRANCH  22  49
DOCKED: TORSDOF 13
DOCKED: TER
DOCKED: ENDMDL
________________________________________________________________________________


	BEGINNING GENETIC ALGORITHM DOCKING 81 of 100
Run: 81 Seed: 791954169 743516416 [ Run 81 of 100 GA/GALS ]
Beginning LAMARCKIAN GENETIC ALGORITHM (LGA), with a maximum of 25000000 energy evaluations.

Final-Value: -12.171


	FINAL GENETIC ALGORITHM DOCKED STATE
	_______________________________________________


Detailed state:  trans 9.220 12.973 -13.200 quatxyzw -0.041763 -0.487847 0.570492 -0.659394 center 0.153 0.018 -0.028 ntor 13 -111.8122 128.8613 -120.5471 39.3302 36.1772 80.2110 123.8266 99.4673 132.8788 -18.8971 -78.0219 -76.5842 -10.6582
State:	  9.220  12.973 -13.200  -0.056 -0.649  0.759 -97.493   -111.81  128.86 -120.55   39.33   36.18   80.21  123.83   99.47  132.88  -18.90  -78.02  -76.58  -10.66

DOCKED: MODEL       81
DOCKED: USER    Run = 81
DOCKED: USER    DPF = D:/Protein_go_brrr/autodock/final/mut_Y35F/heme/dock.dpf
DOCKED: USER  
DOCKED: USER    Estimated Free Energy of Binding    =   -3.63 kcal/mol  [=(1)+(2)+(3)-(4)]
DOCKED: USER    Estimated Inhibition Constant, Ki   =    2.18 mM (millimolar)  [Temperature = 298.15 K]
DOCKED: USER    
DOCKED: USER    (1) Final Intermolecular Energy     =   -7.51 kcal/mol
DOCKED: USER        vdW + Hbond + desolv Energy     =   -7.46 kcal/mol
DOCKED: USER        Electrostatic Energy            =   -0.05 kcal/mol
DOCKED: USER    (2) Final Total Internal Energy     =   -4.66 kcal/mol
DOCKED: USER    (3) Torsional Free Energy           =   +3.88 kcal/mol
DOCKED: USER    (4) Unbound System's Energy  [=(2)] =   -4.66 kcal/mol
DOCKED: USER    
DOCKED: USER    
DOCKED: USER    NEWDPF move heme_opt.pdbqt
DOCKED: USER    NEWDPF about 0.153000 0.018000 -0.028000
DOCKED: USER    NEWDPF tran0 9.220011 12.972657 -13.199846
DOCKED: USER    NEWDPF quaternion0 -0.041763 -0.487847 0.570492 -0.659394
DOCKED: USER    NEWDPF axisangle0 -0.055551 -0.648907 0.758837 -97.492711
DOCKED: USER    NEWDPF quat0 -0.055551 -0.648907 0.758837 -97.492711
DOCKED: USER    NEWDPF dihe0 -111.81 128.86 -120.55 39.33 36.18 80.21 123.83 99.47 132.88 -18.90 -78.02 -76.58 -10.66 
DOCKED: USER  keepresnum = 1 
DOCKED: USER  
DOCKED: REMARK  13 active torsions:
DOCKED: REMARK  status: ('A' for Active; 'I' for Inactive)
DOCKED: REMARK    1  A    between atoms: O_3  and  C_38 
DOCKED: REMARK    2  A    between atoms: O_4  and  C_40 
DOCKED: REMARK    3  A    between atoms: O_7  and  C_46 
DOCKED: REMARK    4  A    between atoms: O_9  and  C_48 
DOCKED: REMARK    5  A    between atoms: C_15  and  C_20 
DOCKED: REMARK    6  A    between atoms: C_16  and  C_23 
DOCKED: REMARK    7  A    between atoms: C_20  and  C_38 
DOCKED: REMARK    8  A    between atoms: C_23  and  C_40 
DOCKED: REMARK    9  A    between atoms: C_32  and  C_41 
DOCKED: REMARK   10  A    between atoms: C_37  and  C_45 
DOCKED: REMARK   11  A    between atoms: C_41  and  C_44 
DOCKED: REMARK   12  A    between atoms: C_44  and  C_46 
DOCKED: REMARK   13  A    between atoms: C_47  and  C_48 
DOCKED: USER                              x       y       z     vdW  Elec       q    Type
DOCKED: USER                           _______ _______ _______ _____ _____    ______ ____
DOCKED: ROOT
DOCKED: ATOM      1  O   UNL d   1       8.282   8.781 -17.238 -0.05 +0.02    -0.289 OA
DOCKED: ATOM      2  O   UNL d   1      14.097   9.983 -12.640 -0.28 +0.10    -0.289 OA
DOCKED: ATOM      3  N   UNL d   1       8.449  11.486 -15.105 -0.04 -0.00    -0.247 NA
DOCKED: ATOM      4  N   UNL d   1      10.903  10.953 -13.517 -0.05 +0.02    -0.247 NA
DOCKED: ATOM      5  N   UNL d   1      10.054  13.004 -11.689 -0.13 +0.03    -0.354 N 
DOCKED: ATOM      6  N   UNL d   1       7.501  13.537 -13.332 -0.13 -0.01    -0.354 N 
DOCKED: ATOM      7  C   UNL d   1       6.743  10.573 -16.610 -0.10 -0.00    +0.084 A 
DOCKED: ATOM      8  C   UNL d   1      12.631   9.575 -14.558 -0.17 -0.02    +0.084 A 
DOCKED: ATOM      9  C   UNL d   1      11.225  10.180 -14.610 -0.14 -0.01    +0.058 A 
DOCKED: ATOM     10  C   UNL d   1       7.162  11.639 -15.592 -0.12 -0.00    +0.058 A 
DOCKED: ATOM     11  C   UNL d   1       8.029   9.802 -16.625 -0.07 -0.01    +0.193 A 
DOCKED: ATOM     12  C   UNL d   1       8.991  10.469 -15.692 +0.02 -0.00    +0.109 A 
DOCKED: ATOM     13  C   UNL d   1      13.034  10.116 -13.215 -0.22 -0.05    +0.193 A 
DOCKED: ATOM     14  C   UNL d   1       5.630   9.671 -16.072 -0.20 -0.00    +0.026 C 
DOCKED: ATOM     15  C   UNL d   1      10.365   9.935 -15.611 -0.13 -0.00    +0.055 C 
DOCKED: ATOM     16  C   UNL d   1      13.549  10.176 -15.627 -0.13 -0.01    +0.026 C 
DOCKED: ATOM     17  C   UNL d   1      11.897  10.928 -12.687 -0.22 -0.02    +0.109 A 
DOCKED: ATOM     18  C   UNL d   1       6.357  12.674 -15.288 -0.16 -0.00    +0.050 C 
DOCKED: ATOM     19  C   UNL d   1       6.692  13.749 -14.425 -0.15 +0.00    +0.045 A 
DOCKED: ATOM     20  C   UNL d   1      11.097  12.471 -10.977 -0.29 -0.01    +0.045 A 
DOCKED: ATOM     21  C   UNL d   1      11.989  11.551 -11.359 -0.16 -0.02    +0.057 C 
DOCKED: ATOM     22  C   UNL d   1      10.009  13.992  -9.666 -0.32 +0.00    -0.019 A 
DOCKED: ATOM     23  C   UNL d   1       9.339  13.932 -10.980 -0.25 -0.00    +0.045 A 
DOCKED: ATOM     24  C   UNL d   1      11.050  13.126  -9.670 -0.32 +0.00    -0.022 A 
DOCKED: ATOM     25  C   UNL d   1       7.620  14.688 -12.588 -0.20 +0.00    +0.049 A 
DOCKED: ATOM     26  C   UNL d   1       6.305  15.080 -14.411 -0.07 +0.00    -0.018 A 
DOCKED: ATOM     27  C   UNL d   1       6.910  15.673 -13.260 -0.10 +0.00    +0.003 A 
DOCKED: ATOM     28  C   UNL d   1       8.279  14.677 -11.328 -0.27 +0.00    +0.052 C 
DOCKED: ATOM     29  C   UNL d   1      12.029  12.838  -8.584 -0.23 -0.01    +0.046 C 
DOCKED: ATOM     30  C   UNL d   1       5.429  15.763 -15.406 -0.03 -0.00    +0.046 C 
DOCKED: ATOM     31  H   UNL d   1       9.910  12.770 -12.665 +0.05 -0.01    +0.166 HD
DOCKED: ATOM     32  H   UNL d   1       7.909  12.638 -13.103 +0.05 +0.01    +0.166 HD
DOCKED: ENDROOT
DOCKED: BRANCH   7  33
DOCKED: ATOM     33  C   UNL d   1       6.414  11.097 -18.012 -0.03 -0.01    +0.141 C 
DOCKED: BRANCH  33  34
DOCKED: ATOM     34  C   UNL d   1       5.998  10.002 -18.956 -0.01 -0.02    +0.306 C 
DOCKED: ATOM     35  O   UNL d   1       4.860   9.607 -19.146 -0.01 +0.01    -0.251 OA
DOCKED: BRANCH  34  36
DOCKED: ATOM     36  O   UNL d   1       7.040   9.463 -19.615 +0.00 +0.03    -0.481 OA
DOCKED: ATOM     37  H   UNL d   1       7.573   9.025 -18.918 +0.02 -0.02    +0.295 HD
DOCKED: ENDBRANCH  34  36
DOCKED: ENDBRANCH  33  34
DOCKED: ENDBRANCH   7  33
DOCKED: BRANCH  27  38
DOCKED: ATOM     38  C   UNL d   1       6.757  17.039 -12.858 -0.05 +0.00    +0.017 C 
DOCKED: ATOM     39  C   UNL d   1       6.612  17.462 -11.593 -0.06 +0.00    +0.092 C 
DOCKED: BRANCH  39  40
DOCKED: ATOM     40  C   UNL d   1       6.481  18.894 -11.313 +0.00 +0.01    +0.330 C 
DOCKED: ATOM     41  O   UNL d   1       5.494  19.591 -11.448 -0.00 -0.01    -0.246 OA
DOCKED: BRANCH  40  42
DOCKED: ATOM     42  O   UNL d   1       7.643  19.382 -10.853 +0.01 -0.01    -0.477 OA
DOCKED: ATOM     43  H   UNL d   1       7.883  18.773 -10.125 +0.03 +0.01    +0.295 HD
DOCKED: ENDBRANCH  40  42
DOCKED: ENDBRANCH  39  40
DOCKED: ENDBRANCH  27  38
DOCKED: BRANCH   8  44
DOCKED: ATOM     44  C   UNL d   1      12.692   8.044 -14.573 -0.28 -0.04    +0.141 C 
DOCKED: BRANCH  44  45
DOCKED: ATOM     45  C   UNL d   1      12.157   7.415 -13.314 -0.34 -0.06    +0.306 C 
DOCKED: ATOM     46  O   UNL d   1      10.984   7.240 -13.032 -0.45 +0.04    -0.251 OA
DOCKED: BRANCH  45  47
DOCKED: ATOM     47  O   UNL d   1      13.133   7.063 -12.459 -0.72 +0.19    -0.481 OA
DOCKED: ATOM     48  H   UNL d   1      13.612   7.899 -12.271 -0.36 -0.18    +0.295 HD
DOCKED: ENDBRANCH  45  47
DOCKED: ENDBRANCH  44  45
DOCKED: ENDBRANCH   8  44
DOCKED: BRANCH  22  49
DOCKED: ATOM     49  C   UNL d   1       9.565  14.871  -8.533 -0.42 +0.00    +0.048 C 
DOCKED: BRANCH  49  50
DOCKED: ATOM     50  C   UNL d   1      10.313  16.204  -8.522 -0.16 -0.00    +0.125 C 
DOCKED: BRANCH  50  51
DOCKED: ATOM     51  C   UNL d   1       9.452  17.308  -9.068 -0.04 +0.01    +0.305 C 
DOCKED: ATOM     52  O   UNL d   1       8.733  18.068  -8.444 -0.05 -0.02    -0.251 OA
DOCKED: BRANCH  51  53
DOCKED: ATOM     53  O   UNL d   1       9.533  17.392 -10.411 +0.01 +0.00    -0.481 OA
DOCKED: ATOM     54  H   UNL d   1       9.528  18.356 -10.590 +0.03 -0.00    +0.295 HD
DOCKED: ENDBRANCH  51  53
DOCKED: ENDBRANCH  50  51
DOCKED: ENDBRANCH  49  50
DOCKED: ENDBRANCH  22  49
DOCKED: TORSDOF 13
DOCKED: TER
DOCKED: ENDMDL
________________________________________________________________________________


	BEGINNING GENETIC ALGORITHM DOCKING 82 of 100
Run: 82 Seed: 1472565101 965688805 [ Run 82 of 100 GA/GALS ]
Beginning LAMARCKIAN GENETIC ALGORITHM (LGA), with a maximum of 25000000 energy evaluations.

Final-Value: -10.419


	FINAL GENETIC ALGORITHM DOCKED STATE
	_______________________________________________


Detailed state:  trans 15.677 10.762 4.130 quatxyzw 0.322722 0.056020 -0.459310 0.825680 center 0.153 0.018 -0.028 ntor 13 169.3024 180.0000 -140.2990 21.3126 60.6381 -47.1954 -42.8850 -179.7287 158.8843 135.5210 67.1238 -37.6372 128.3634
State:	 15.677  10.762   4.130   0.572  0.099 -0.814 68.685    169.30  180.00 -140.30   21.31   60.64  -47.20  -42.88 -179.73  158.88  135.52   67.12  -37.64  128.36

DOCKED: MODEL       82
DOCKED: USER    Run = 82
DOCKED: USER    DPF = D:/Protein_go_brrr/autodock/final/mut_Y35F/heme/dock.dpf
DOCKED: USER  
DOCKED: USER    Estimated Free Energy of Binding    =   -3.03 kcal/mol  [=(1)+(2)+(3)-(4)]
DOCKED: USER    Estimated Inhibition Constant, Ki   =    6.04 mM (millimolar)  [Temperature = 298.15 K]
DOCKED: USER    
DOCKED: USER    (1) Final Intermolecular Energy     =   -6.91 kcal/mol
DOCKED: USER        vdW + Hbond + desolv Energy     =   -6.85 kcal/mol
DOCKED: USER        Electrostatic Energy            =   -0.05 kcal/mol
DOCKED: USER    (2) Final Total Internal Energy     =   -3.51 kcal/mol
DOCKED: USER    (3) Torsional Free Energy           =   +3.88 kcal/mol
DOCKED: USER    (4) Unbound System's Energy  [=(2)] =   -3.51 kcal/mol
DOCKED: USER    
DOCKED: USER    
DOCKED: USER    NEWDPF move heme_opt.pdbqt
DOCKED: USER    NEWDPF about 0.153000 0.018000 -0.028000
DOCKED: USER    NEWDPF tran0 15.677322 10.762498 4.130318
DOCKED: USER    NEWDPF quaternion0 0.322722 0.056020 -0.459310 0.825680
DOCKED: USER    NEWDPF axisangle0 0.572061 0.099302 -0.814178 68.685111
DOCKED: USER    NEWDPF quat0 0.572061 0.099302 -0.814178 68.685111
DOCKED: USER    NEWDPF dihe0 169.30 180.00 -140.30 21.31 60.64 -47.20 -42.88 -179.73 158.88 135.52 67.12 -37.64 128.36 
DOCKED: USER  keepresnum = 1 
DOCKED: USER  
DOCKED: REMARK  13 active torsions:
DOCKED: REMARK  status: ('A' for Active; 'I' for Inactive)
DOCKED: REMARK    1  A    between atoms: O_3  and  C_38 
DOCKED: REMARK    2  A    between atoms: O_4  and  C_40 
DOCKED: REMARK    3  A    between atoms: O_7  and  C_46 
DOCKED: REMARK    4  A    between atoms: O_9  and  C_48 
DOCKED: REMARK    5  A    between atoms: C_15  and  C_20 
DOCKED: REMARK    6  A    between atoms: C_16  and  C_23 
DOCKED: REMARK    7  A    between atoms: C_20  and  C_38 
DOCKED: REMARK    8  A    between atoms: C_23  and  C_40 
DOCKED: REMARK    9  A    between atoms: C_32  and  C_41 
DOCKED: REMARK   10  A    between atoms: C_37  and  C_45 
DOCKED: REMARK   11  A    between atoms: C_41  and  C_44 
DOCKED: REMARK   12  A    between atoms: C_44  and  C_46 
DOCKED: REMARK   13  A    between atoms: C_47  and  C_48 
DOCKED: USER                              x       y       z     vdW  Elec       q    Type
DOCKED: USER                           _______ _______ _______ _____ _____    ______ ____
DOCKED: ROOT
DOCKED: ATOM      1  O   UNL d   1      10.997   7.240   4.797 -0.02 -0.05    -0.289 OA
DOCKED: ATOM      2  O   UNL d   1      18.273   6.099   6.264 -0.02 -0.09    -0.289 OA
DOCKED: ATOM      3  N   UNL d   1      13.432   9.583   4.106 -0.15 -0.03    -0.247 NA
DOCKED: ATOM      4  N   UNL d   1      15.883   8.389   5.286 -0.19 -0.08    -0.247 NA
DOCKED: ATOM      5  N   UNL d   1      17.159  10.949   4.996 +0.03 -0.13    -0.354 N 
DOCKED: ATOM      6  N   UNL d   1      14.605  12.186   3.791 -0.07 -0.02    -0.354 N 
DOCKED: ATOM      7  C   UNL d   1      10.983   9.551   4.000 -0.27 -0.00    +0.084 A 
DOCKED: ATOM      8  C   UNL d   1      15.957   5.955   5.484 -0.12 +0.03    +0.084 A 
DOCKED: ATOM      9  C   UNL d   1      15.169   7.221   5.134 -0.16 +0.02    +0.058 A 
DOCKED: ATOM     10  C   UNL d   1      12.296  10.316   3.806 -0.25 -0.00    +0.058 A 
DOCKED: ATOM     11  C   UNL d   1      11.580   8.250   4.445 -0.20 +0.02    +0.193 A 
DOCKED: ATOM     12  C   UNL d   1      13.071   8.388   4.444 -0.21 +0.02    +0.109 A 
DOCKED: ATOM     13  C   UNL d   1      17.238   6.622   5.899 -0.05 +0.06    +0.193 A 
DOCKED: ATOM     14  C   UNL d   1      10.145  10.128   5.143 -0.12 +0.00    +0.026 C 
DOCKED: ATOM     15  C   UNL d   1      13.880   7.195   4.761 -0.22 +0.01    +0.055 C 
DOCKED: ATOM     16  C   UNL d   1      16.228   5.094   4.247 -0.34 +0.01    +0.026 C 
DOCKED: ATOM     17  C   UNL d   1      17.060   8.097   5.740 -0.09 +0.04    +0.109 A 
DOCKED: ATOM     18  C   UNL d   1      12.314  11.563   3.299 -0.24 -0.01    +0.050 C 
DOCKED: ATOM     19  C   UNL d   1      13.481  12.315   3.007 -0.28 -0.00    +0.045 A 
DOCKED: ATOM     20  C   UNL d   1      18.100  10.302   5.755 -0.07 +0.01    +0.045 A 
DOCKED: ATOM     21  C   UNL d   1      18.145   9.016   6.115 -0.08 +0.02    +0.057 C 
DOCKED: ATOM     22  C   UNL d   1      18.694  12.499   5.557 -0.04 -0.00    -0.019 A 
DOCKED: ATOM     23  C   UNL d   1      17.432  12.280   4.823 +0.03 +0.01    +0.045 A 
DOCKED: ATOM     24  C   UNL d   1      19.085  11.324   6.105 -0.04 -0.00    -0.022 A 
DOCKED: ATOM     25  C   UNL d   1      15.580  13.068   3.387 -0.08 +0.00    +0.049 A 
DOCKED: ATOM     26  C   UNL d   1      13.745  13.279   2.047 -0.37 +0.00    -0.018 A 
DOCKED: ATOM     27  C   UNL d   1      15.079  13.737   2.279 -0.28 -0.00    +0.003 A 
DOCKED: ATOM     28  C   UNL d   1      16.774  13.230   4.141 -0.08 +0.01    +0.052 C 
DOCKED: ATOM     29  C   UNL d   1      20.296  11.034   6.925 -0.01 +0.01    +0.046 C 
DOCKED: ATOM     30  C   UNL d   1      12.818  13.747   0.976 -0.48 -0.01    +0.046 C 
DOCKED: ATOM     31  H   UNL d   1      16.397  10.443   4.559 +0.06 +0.12    +0.166 HD
DOCKED: ATOM     32  H   UNL d   1      14.669  11.551   4.579 +0.05 +0.03    +0.166 HD
DOCKED: ENDROOT
DOCKED: BRANCH   7  33
DOCKED: ATOM     33  C   UNL d   1      10.145   9.353   2.732 -0.27 -0.02    +0.141 C 
DOCKED: BRANCH  33  34
DOCKED: ATOM     34  C   UNL d   1       8.677   9.202   3.026 -0.33 -0.00    +0.306 C 
DOCKED: ATOM     35  O   UNL d   1       7.793   9.973   2.694 -0.38 -0.00    -0.251 OA
DOCKED: BRANCH  34  36
DOCKED: ATOM     36  O   UNL d   1       8.400   8.085   3.721 -0.16 -0.05    -0.481 OA
DOCKED: ATOM     37  H   UNL d   1       9.221   7.550   3.667 +0.16 +0.02    +0.295 HD
DOCKED: ENDBRANCH  34  36
DOCKED: ENDBRANCH  33  34
DOCKED: ENDBRANCH   7  33
DOCKED: BRANCH  27  38
DOCKED: ATOM     38  C   UNL d   1      15.748  14.749   1.519 -0.28 -0.01    +0.017 C 
DOCKED: ATOM     39  C   UNL d   1      16.994  15.193   1.748 -0.19 -0.03    +0.092 C 
DOCKED: BRANCH  39  40
DOCKED: ATOM     40  C   UNL d   1      17.572  16.224   0.882 -0.08 -0.18    +0.330 C 
DOCKED: ATOM     41  O   UNL d   1      17.599  16.245  -0.333 -0.13 +0.23    -0.246 OA
DOCKED: BRANCH  40  42
DOCKED: ATOM     42  O   UNL d   1      18.093  17.212   1.626 -0.00 +0.16    -0.477 OA
DOCKED: ATOM     43  H   UNL d   1      17.919  16.929   2.548 +0.03 -0.07    +0.295 HD
DOCKED: ENDBRANCH  40  42
DOCKED: ENDBRANCH  39  40
DOCKED: ENDBRANCH  27  38
DOCKED: BRANCH   8  44
DOCKED: ATOM     44  C   UNL d   1      15.380   5.114   6.628 -0.07 +0.05    +0.141 C 
DOCKED: BRANCH  44  45
DOCKED: ATOM     45  C   UNL d   1      14.330   4.135   6.176 -0.11 +0.13    +0.306 C 
DOCKED: ATOM     46  O   UNL d   1      13.137   4.352   6.056 -0.75 -0.16    -0.251 OA
DOCKED: BRANCH  45  47
DOCKED: ATOM     47  O   UNL d   1      14.839   2.915   5.922 -0.03 -0.16    -0.481 OA
DOCKED: ATOM     48  H   UNL d   1      15.509   2.775   6.624 +0.09 +0.09    +0.295 HD
DOCKED: ENDBRANCH  45  47
DOCKED: ENDBRANCH  44  45
DOCKED: ENDBRANCH   8  44
DOCKED: BRANCH  22  49
DOCKED: ATOM     49  C   UNL d   1      19.387  13.826   5.666 -0.02 +0.00    +0.048 C 
DOCKED: BRANCH  49  50
DOCKED: ATOM     50  C   UNL d   1      18.406  14.954   5.984 -0.00 +0.00    +0.125 C 
DOCKED: BRANCH  50  51
DOCKED: ATOM     51  C   UNL d   1      18.276  15.896   4.820 +0.00 -0.01    +0.305 C 
DOCKED: ATOM     52  O   UNL d   1      17.509  16.836   4.707 -0.00 +0.02    -0.251 OA
DOCKED: BRANCH  51  53
DOCKED: ATOM     53  O   UNL d   1      19.134  15.591   3.827 +0.01 +0.02    -0.481 OA
DOCKED: ATOM     54  H   UNL d   1      19.208  16.422   3.312 +0.02 -0.03    +0.295 HD
DOCKED: ENDBRANCH  51  53
DOCKED: ENDBRANCH  50  51
DOCKED: ENDBRANCH  49  50
DOCKED: ENDBRANCH  22  49
DOCKED: TORSDOF 13
DOCKED: TER
DOCKED: ENDMDL
________________________________________________________________________________


	BEGINNING GENETIC ALGORITHM DOCKING 83 of 100
Run: 83 Seed: 2004724860 1505823335 [ Run 83 of 100 GA/GALS ]
Beginning LAMARCKIAN GENETIC ALGORITHM (LGA), with a maximum of 25000000 energy evaluations.

Final-Value: -12.698


	FINAL GENETIC ALGORITHM DOCKED STATE
	_______________________________________________


Detailed state:  trans -3.417 -8.700 -13.352 quatxyzw 0.098712 -0.201842 0.771380 0.595389 center 0.153 0.018 -0.028 ntor 13 97.7969 -180.0000 -88.5572 29.3520 -10.0565 51.0846 151.6589 107.8839 -147.4461 -75.0046 -73.8263 -83.9215 -9.6859
State:	 -3.417  -8.700 -13.352   0.123 -0.251  0.960 106.919     97.80 -180.00  -88.56   29.35  -10.06   51.08  151.66  107.88 -147.45  -75.00  -73.83  -83.92   -9.69

DOCKED: MODEL       83
DOCKED: USER    Run = 83
DOCKED: USER    DPF = D:/Protein_go_brrr/autodock/final/mut_Y35F/heme/dock.dpf
DOCKED: USER  
DOCKED: USER    Estimated Free Energy of Binding    =   -5.16 kcal/mol  [=(1)+(2)+(3)-(4)]
DOCKED: USER    Estimated Inhibition Constant, Ki   =  165.65 uM (micromolar)  [Temperature = 298.15 K]
DOCKED: USER    
DOCKED: USER    (1) Final Intermolecular Energy     =   -9.04 kcal/mol
DOCKED: USER        vdW + Hbond + desolv Energy     =   -8.75 kcal/mol
DOCKED: USER        Electrostatic Energy            =   -0.29 kcal/mol
DOCKED: USER    (2) Final Total Internal Energy     =   -3.66 kcal/mol
DOCKED: USER    (3) Torsional Free Energy           =   +3.88 kcal/mol
DOCKED: USER    (4) Unbound System's Energy  [=(2)] =   -3.66 kcal/mol
DOCKED: USER    
DOCKED: USER    
DOCKED: USER    NEWDPF move heme_opt.pdbqt
DOCKED: USER    NEWDPF about 0.153000 0.018000 -0.028000
DOCKED: USER    NEWDPF tran0 -3.416608 -8.700350 -13.352435
DOCKED: USER    NEWDPF quaternion0 0.098712 -0.201842 0.771380 0.595389
DOCKED: USER    NEWDPF axisangle0 0.122862 -0.251222 0.960100 106.919257
DOCKED: USER    NEWDPF quat0 0.122862 -0.251222 0.960100 106.919257
DOCKED: USER    NEWDPF dihe0 97.80 -180.00 -88.56 29.35 -10.06 51.08 151.66 107.88 -147.45 -75.00 -73.83 -83.92 -9.69 
DOCKED: USER  keepresnum = 1 
DOCKED: USER  
DOCKED: REMARK  13 active torsions:
DOCKED: REMARK  status: ('A' for Active; 'I' for Inactive)
DOCKED: REMARK    1  A    between atoms: O_3  and  C_38 
DOCKED: REMARK    2  A    between atoms: O_4  and  C_40 
DOCKED: REMARK    3  A    between atoms: O_7  and  C_46 
DOCKED: REMARK    4  A    between atoms: O_9  and  C_48 
DOCKED: REMARK    5  A    between atoms: C_15  and  C_20 
DOCKED: REMARK    6  A    between atoms: C_16  and  C_23 
DOCKED: REMARK    7  A    between atoms: C_20  and  C_38 
DOCKED: REMARK    8  A    between atoms: C_23  and  C_40 
DOCKED: REMARK    9  A    between atoms: C_32  and  C_41 
DOCKED: REMARK   10  A    between atoms: C_37  and  C_45 
DOCKED: REMARK   11  A    between atoms: C_41  and  C_44 
DOCKED: REMARK   12  A    between atoms: C_44  and  C_46 
DOCKED: REMARK   13  A    between atoms: C_47  and  C_48 
DOCKED: USER                              x       y       z     vdW  Elec       q    Type
DOCKED: USER                           _______ _______ _______ _____ _____    ______ ____
DOCKED: ROOT
DOCKED: ATOM      1  O   UNL d   1      -0.154  -3.802 -13.000 -0.13 -0.07    -0.289 OA
DOCKED: ATOM      2  O   UNL d   1      -7.573  -4.832 -12.459 -0.60 -0.04    -0.289 OA
DOCKED: ATOM      3  N   UNL d   1      -1.648  -6.884 -13.414 -0.11 -0.01    -0.247 NA
DOCKED: ATOM      4  N   UNL d   1      -4.492  -6.362 -12.729 -0.08 +0.00    -0.247 NA
DOCKED: ATOM      5  N   UNL d   1      -4.887  -9.207 -12.604 -0.05 +0.02    -0.354 N 
DOCKED: ATOM      6  N   UNL d   1      -1.931  -9.739 -13.296 -0.12 +0.02    -0.354 N 
DOCKED: ATOM      7  C   UNL d   1       0.667  -6.085 -13.304 -0.24 +0.02    +0.084 A 
DOCKED: ATOM      8  C   UNL d   1      -5.316  -4.083 -13.040 -0.08 +0.00    +0.084 A 
DOCKED: ATOM      9  C   UNL d   1      -4.144  -5.069 -13.052 -0.12 +0.00    +0.058 A 
DOCKED: ATOM     10  C   UNL d   1      -0.313  -7.252 -13.454 -0.23 +0.00    +0.058 A 
DOCKED: ATOM     11  C   UNL d   1      -0.350  -4.989 -13.190 -0.13 +0.03    +0.193 A 
DOCKED: ATOM     12  C   UNL d   1      -1.714  -5.597 -13.297 -0.15 +0.01    +0.109 A 
DOCKED: ATOM     13  C   UNL d   1      -6.387  -5.048 -12.615 -0.09 +0.00    +0.193 A 
DOCKED: ATOM     14  C   UNL d   1       1.458  -6.164 -11.996 -0.39 +0.01    +0.026 C 
DOCKED: ATOM     15  C   UNL d   1      -2.881  -4.692 -13.304 -0.14 +0.00    +0.055 C 
DOCKED: ATOM     16  C   UNL d   1      -5.644  -3.573 -14.447 -0.03 +0.00    +0.026 C 
DOCKED: ATOM     17  C   UNL d   1      -5.756  -6.392 -12.453 -0.15 -0.00    +0.109 A 
DOCKED: ATOM     18  C   UNL d   1       0.117  -8.504 -13.695 -0.27 +0.00    +0.050 C 
DOCKED: ATOM     19  C   UNL d   1      -0.715  -9.629 -13.932 -0.23 +0.00    +0.045 A 
DOCKED: ATOM     20  C   UNL d   1      -6.080  -8.780 -12.082 -0.22 -0.01    +0.045 A 
DOCKED: ATOM     21  C   UNL d   1      -6.561  -7.535 -11.997 -0.23 -0.01    +0.057 C 
DOCKED: ATOM     22  C   UNL d   1      -5.957 -11.052 -11.879 -0.34 +0.00    -0.019 A 
DOCKED: ATOM     23  C   UNL d   1      -4.722 -10.564 -12.526 -0.24 -0.00    +0.045 A 
DOCKED: ATOM     24  C   UNL d   1      -6.757  -9.991 -11.620 -0.33 +0.00    -0.022 A 
DOCKED: ATOM     25  C   UNL d   1      -2.526 -10.942 -13.597 -0.21 -0.00    +0.049 A 
DOCKED: ATOM     26  C   UNL d   1      -0.533 -10.771 -14.695 -0.16 -0.00    -0.018 A 
DOCKED: ATOM     27  C   UNL d   1      -1.688 -11.588 -14.495 -0.14 -0.00    +0.003 A 
DOCKED: ATOM     28  C   UNL d   1      -3.716 -11.352 -12.937 -0.29 -0.01    +0.052 C 
DOCKED: ATOM     29  C   UNL d   1      -8.108  -9.974 -10.990 -0.44 -0.02    +0.046 C 
DOCKED: ATOM     30  C   UNL d   1       0.641 -11.087 -15.559 -0.12 +0.00    +0.046 C 
DOCKED: ATOM     31  H   UNL d   1      -4.254  -8.563 -13.065 +0.06 -0.00    +0.166 HD
DOCKED: ATOM     32  H   UNL d   1      -2.298  -9.038 -12.663 +0.07 -0.00    +0.166 HD
DOCKED: ENDROOT
DOCKED: BRANCH   7  33
DOCKED: ATOM     33  C   UNL d   1       1.588  -5.841 -14.504 -0.13 +0.05    +0.141 C 
DOCKED: BRANCH  33  34
DOCKED: ATOM     34  C   UNL d   1       2.964  -6.416 -14.305 -0.05 +0.19    +0.306 C 
DOCKED: ATOM     35  O   UNL d   1       3.225  -7.517 -13.850 -0.44 -0.10    -0.251 OA
DOCKED: BRANCH  34  36
DOCKED: ATOM     36  O   UNL d   1       3.938  -5.575 -14.693 -0.42 -0.39    -0.481 OA
DOCKED: ATOM     37  H   UNL d   1       4.029  -5.730 -15.657 +0.05 +0.11    +0.295 HD
DOCKED: ENDBRANCH  34  36
DOCKED: ENDBRANCH  33  34
DOCKED: ENDBRANCH   7  33
DOCKED: BRANCH  27  38
DOCKED: ATOM     38  C   UNL d   1      -1.904 -12.873 -15.090 -0.10 +0.00    +0.017 C 
DOCKED: ATOM     39  C   UNL d   1      -2.320 -13.968 -14.437 -0.15 +0.01    +0.092 C 
DOCKED: BRANCH  39  40
DOCKED: ATOM     40  C   UNL d   1      -2.519 -15.223 -15.168 -0.08 +0.06    +0.330 C 
DOCKED: ATOM     41  O   UNL d   1      -1.752 -15.761 -15.944 -0.04 -0.04    -0.246 OA
DOCKED: BRANCH  40  42
DOCKED: ATOM     42  O   UNL d   1      -3.713 -15.752 -14.860 -0.11 -0.13    -0.477 OA
DOCKED: ATOM     43  H   UNL d   1      -4.094 -15.116 -14.221 +0.08 +0.06    +0.295 HD
DOCKED: ENDBRANCH  40  42
DOCKED: ENDBRANCH  39  40
DOCKED: ENDBRANCH  27  38
DOCKED: BRANCH   8  44
DOCKED: ATOM     44  C   UNL d   1      -5.195  -2.924 -12.044 -0.10 +0.00    +0.141 C 
DOCKED: BRANCH  44  45
DOCKED: ATOM     45  C   UNL d   1      -6.365  -2.826 -11.102 -0.13 +0.02    +0.306 C 
DOCKED: ATOM     46  O   UNL d   1      -6.368  -3.107  -9.916 -0.25 -0.04    -0.251 OA
DOCKED: BRANCH  45  47
DOCKED: ATOM     47  O   UNL d   1      -7.485  -2.401 -11.714 -0.03 -0.05    -0.481 OA
DOCKED: ATOM     48  H   UNL d   1      -7.930  -3.222 -12.015 +0.05 +0.04    +0.295 HD
DOCKED: ENDBRANCH  45  47
DOCKED: ENDBRANCH  44  45
DOCKED: ENDBRANCH   8  44
DOCKED: BRANCH  22  49
DOCKED: ATOM     49  C   UNL d   1      -6.230 -12.494 -11.565 -0.26 -0.02    +0.048 C 
DOCKED: BRANCH  49  50
DOCKED: ATOM     50  C   UNL d   1      -7.005 -13.184 -12.687 -0.28 -0.01    +0.125 C 
DOCKED: BRANCH  50  51
DOCKED: ATOM     51  C   UNL d   1      -6.117 -14.124 -13.452 -0.17 +0.00    +0.305 C 
DOCKED: ATOM     52  O   UNL d   1      -6.060 -15.337 -13.355 -0.24 -0.04    -0.251 OA
DOCKED: BRANCH  51  53
DOCKED: ATOM     53  O   UNL d   1      -5.316 -13.469 -14.316 -0.04 -0.02    -0.481 OA
DOCKED: ATOM     54  H   UNL d   1      -5.165 -14.116 -15.038 +0.07 +0.03    +0.295 HD
DOCKED: ENDBRANCH  51  53
DOCKED: ENDBRANCH  50  51
DOCKED: ENDBRANCH  49  50
DOCKED: ENDBRANCH  22  49
DOCKED: TORSDOF 13
DOCKED: TER
DOCKED: ENDMDL
________________________________________________________________________________


	BEGINNING GENETIC ALGORITHM DOCKING 84 of 100
Run: 84 Seed: 1385715309 570993500 [ Run 84 of 100 GA/GALS ]
Beginning LAMARCKIAN GENETIC ALGORITHM (LGA), with a maximum of 25000000 energy evaluations.

Final-Value: -11.599


	FINAL GENETIC ALGORITHM DOCKED STATE
	_______________________________________________


Detailed state:  trans -3.401 -8.841 -13.249 quatxyzw -0.096604 0.194092 -0.780131 -0.586848 center 0.153 0.018 -0.028 ntor 13 -46.7485 89.8388 -119.2293 34.4625 -133.6743 -147.1677 135.7639 -161.9232 -121.9122 -50.8960 20.0409 -80.2822 7.0135
State:	 -3.401  -8.841 -13.249  -0.119  0.240 -0.963 -108.133    -46.75   89.84 -119.23   34.46 -133.67 -147.17  135.76 -161.92 -121.91  -50.90   20.04  -80.28    7.01

DOCKED: MODEL       84
DOCKED: USER    Run = 84
DOCKED: USER    DPF = D:/Protein_go_brrr/autodock/final/mut_Y35F/heme/dock.dpf
DOCKED: USER  
DOCKED: USER    Estimated Free Energy of Binding    =   -5.95 kcal/mol  [=(1)+(2)+(3)-(4)]
DOCKED: USER    Estimated Inhibition Constant, Ki   =   43.30 uM (micromolar)  [Temperature = 298.15 K]
DOCKED: USER    
DOCKED: USER    (1) Final Intermolecular Energy     =   -9.83 kcal/mol
DOCKED: USER        vdW + Hbond + desolv Energy     =   -9.62 kcal/mol
DOCKED: USER        Electrostatic Energy            =   -0.21 kcal/mol
DOCKED: USER    (2) Final Total Internal Energy     =   -1.77 kcal/mol
DOCKED: USER    (3) Torsional Free Energy           =   +3.88 kcal/mol
DOCKED: USER    (4) Unbound System's Energy  [=(2)] =   -1.77 kcal/mol
DOCKED: USER    
DOCKED: USER    
DOCKED: USER    NEWDPF move heme_opt.pdbqt
DOCKED: USER    NEWDPF about 0.153000 0.018000 -0.028000
DOCKED: USER    NEWDPF tran0 -3.401405 -8.841408 -13.248768
DOCKED: USER    NEWDPF quaternion0 -0.096604 0.194092 -0.780131 -0.586848
DOCKED: USER    NEWDPF axisangle0 -0.119309 0.239709 -0.963486 -108.132649
DOCKED: USER    NEWDPF quat0 -0.119309 0.239709 -0.963486 -108.132649
DOCKED: USER    NEWDPF dihe0 -46.75 89.84 -119.23 34.46 -133.67 -147.17 135.76 -161.92 -121.91 -50.90 20.04 -80.28 7.01 
DOCKED: USER  keepresnum = 1 
DOCKED: USER  
DOCKED: REMARK  13 active torsions:
DOCKED: REMARK  status: ('A' for Active; 'I' for Inactive)
DOCKED: REMARK    1  A    between atoms: O_3  and  C_38 
DOCKED: REMARK    2  A    between atoms: O_4  and  C_40 
DOCKED: REMARK    3  A    between atoms: O_7  and  C_46 
DOCKED: REMARK    4  A    between atoms: O_9  and  C_48 
DOCKED: REMARK    5  A    between atoms: C_15  and  C_20 
DOCKED: REMARK    6  A    between atoms: C_16  and  C_23 
DOCKED: REMARK    7  A    between atoms: C_20  and  C_38 
DOCKED: REMARK    8  A    between atoms: C_23  and  C_40 
DOCKED: REMARK    9  A    between atoms: C_32  and  C_41 
DOCKED: REMARK   10  A    between atoms: C_37  and  C_45 
DOCKED: REMARK   11  A    between atoms: C_41  and  C_44 
DOCKED: REMARK   12  A    between atoms: C_44  and  C_46 
DOCKED: REMARK   13  A    between atoms: C_47  and  C_48 
DOCKED: USER                              x       y       z     vdW  Elec       q    Type
DOCKED: USER                           _______ _______ _______ _____ _____    ______ ____
DOCKED: ROOT
DOCKED: ATOM      1  O   UNL d   1      -0.031  -4.015 -12.932 -0.14 -0.07    -0.289 OA
DOCKED: ATOM      2  O   UNL d   1      -7.477  -4.867 -12.458 -0.58 -0.03    -0.289 OA
DOCKED: ATOM      3  N   UNL d   1      -1.591  -7.067 -13.317 -0.12 -0.01    -0.247 NA
DOCKED: ATOM      4  N   UNL d   1      -4.429  -6.470 -12.671 -0.09 +0.00    -0.247 NA
DOCKED: ATOM      5  N   UNL d   1      -4.891  -9.303 -12.509 -0.06 +0.02    -0.354 N 
DOCKED: ATOM      6  N   UNL d   1      -1.940  -9.913 -13.161 -0.13 +0.02    -0.354 N 
DOCKED: ATOM      7  C   UNL d   1       0.740  -6.319 -13.193 -0.26 +0.02    +0.084 A 
DOCKED: ATOM      8  C   UNL d   1      -5.198  -4.178 -13.024 -0.09 +0.00    +0.084 A 
DOCKED: ATOM      9  C   UNL d   1      -4.048  -5.191 -13.009 -0.13 +0.00    +0.058 A 
DOCKED: ATOM     10  C   UNL d   1      -0.265  -7.466 -13.338 -0.26 +0.00    +0.058 A 
DOCKED: ATOM     11  C   UNL d   1      -0.252  -5.199 -13.106 -0.15 +0.03    +0.193 A 
DOCKED: ATOM     12  C   UNL d   1      -1.629  -5.778 -13.220 -0.17 +0.01    +0.109 A 
DOCKED: ATOM     13  C   UNL d   1      -6.295  -5.111 -12.597 -0.10 +0.00    +0.193 A 
DOCKED: ATOM     14  C   UNL d   1       1.516  -6.397 -11.876 -0.29 +0.01    +0.026 C 
DOCKED: ATOM     15  C   UNL d   1      -2.774  -4.846 -13.253 -0.15 +0.00    +0.055 C 
DOCKED: ATOM     16  C   UNL d   1      -5.498  -3.681 -14.442 -0.03 +0.00    +0.026 C 
DOCKED: ATOM     17  C   UNL d   1      -5.696  -6.468 -12.408 -0.15 -0.00    +0.109 A 
DOCKED: ATOM     18  C   UNL d   1       0.139  -8.731 -13.556 -0.26 +0.00    +0.050 C 
DOCKED: ATOM     19  C   UNL d   1      -0.716  -9.840 -13.785 -0.25 +0.00    +0.045 A 
DOCKED: ATOM     20  C   UNL d   1      -6.080  -8.842 -12.006 -0.23 -0.01    +0.045 A 
DOCKED: ATOM     21  C   UNL d   1      -6.532  -7.585 -11.945 -0.24 -0.01    +0.057 C 
DOCKED: ATOM     22  C   UNL d   1      -6.010 -11.113 -11.769 -0.35 +0.00    -0.019 A 
DOCKED: ATOM     23  C   UNL d   1      -4.758 -10.663 -12.409 -0.26 -0.00    +0.045 A 
DOCKED: ATOM     24  C   UNL d   1      -6.789 -10.030 -11.534 -0.34 +0.01    -0.022 A 
DOCKED: ATOM     25  C   UNL d   1      -2.560 -11.106 -13.451 -0.22 -0.00    +0.049 A 
DOCKED: ATOM     26  C   UNL d   1      -0.552 -10.997 -14.529 -0.18 +0.00    -0.018 A 
DOCKED: ATOM     27  C   UNL d   1      -1.728 -11.785 -14.331 -0.16 -0.00    +0.003 A 
DOCKED: ATOM     28  C   UNL d   1      -3.766 -11.479 -12.798 -0.31 -0.01    +0.052 C 
DOCKED: ATOM     29  C   UNL d   1      -8.146  -9.973 -10.919 -0.43 -0.02    +0.046 C 
DOCKED: ATOM     30  C   UNL d   1       0.623 -11.353 -15.376 -0.14 +0.00    +0.046 C 
DOCKED: ATOM     31  H   UNL d   1      -4.238  -8.680 -12.972 +0.06 -0.00    +0.166 HD
DOCKED: ATOM     32  H   UNL d   1      -2.298  -9.194 -12.543 +0.07 -0.01    +0.166 HD
DOCKED: ENDROOT
DOCKED: BRANCH   7  33
DOCKED: ATOM     33  C   UNL d   1       1.679  -6.114 -14.387 -0.15 +0.05    +0.141 C 
DOCKED: BRANCH  33  34
DOCKED: ATOM     34  C   UNL d   1       2.751  -7.167 -14.468 -0.15 +0.11    +0.306 C 
DOCKED: ATOM     35  O   UNL d   1       3.777  -7.202 -13.811 -0.77 -0.17    -0.251 OA
DOCKED: BRANCH  34  36
DOCKED: ATOM     36  O   UNL d   1       2.472  -8.122 -15.373 -0.07 -0.07    -0.481 OA
DOCKED: ATOM     37  H   UNL d   1       3.290  -8.201 -15.909 +0.05 +0.03    +0.295 HD
DOCKED: ENDBRANCH  34  36
DOCKED: ENDBRANCH  33  34
DOCKED: ENDBRANCH   7  33
DOCKED: BRANCH  27  38
DOCKED: ATOM     38  C   UNL d   1      -1.966 -13.073 -14.909 -0.12 +0.00    +0.017 C 
DOCKED: ATOM     39  C   UNL d   1      -2.480 -14.129 -14.260 -0.17 +0.01    +0.092 C 
DOCKED: BRANCH  39  40
DOCKED: ATOM     40  C   UNL d   1      -2.691 -15.391 -14.974 -0.10 +0.06    +0.330 C 
DOCKED: ATOM     41  O   UNL d   1      -3.549 -16.228 -14.767 -0.19 -0.09    -0.246 OA
DOCKED: BRANCH  40  42
DOCKED: ATOM     42  O   UNL d   1      -1.781 -15.528 -15.951 +0.00 -0.07    -0.477 OA
DOCKED: ATOM     43  H   UNL d   1      -2.207 -15.114 -16.729 +0.03 +0.04    +0.295 HD
DOCKED: ENDBRANCH  40  42
DOCKED: ENDBRANCH  39  40
DOCKED: ENDBRANCH  27  38
DOCKED: BRANCH   8  44
DOCKED: ATOM     44  C   UNL d   1      -5.060  -3.008 -12.044 -0.05 +0.00    +0.141 C 
DOCKED: BRANCH  44  45
DOCKED: ATOM     45  C   UNL d   1      -5.877  -3.182 -10.792 -0.17 +0.02    +0.306 C 
DOCKED: ATOM     46  O   UNL d   1      -5.507  -3.691  -9.748 -0.32 -0.01    -0.251 OA
DOCKED: BRANCH  45  47
DOCKED: ATOM     47  O   UNL d   1      -7.136  -2.728 -10.931 -0.05 -0.07    -0.481 OA
DOCKED: ATOM     48  H   UNL d   1      -7.512  -3.260 -11.664 +0.06 +0.05    +0.295 HD
DOCKED: ENDBRANCH  45  47
DOCKED: ENDBRANCH  44  45
DOCKED: ENDBRANCH   8  44
DOCKED: BRANCH  22  49
DOCKED: ATOM     49  C   UNL d   1      -6.320 -12.543 -11.437 -0.02 -0.02    +0.048 C 
DOCKED: BRANCH  49  50
DOCKED: ATOM     50  C   UNL d   1      -6.720 -13.341 -12.677 -0.29 -0.01    +0.125 C 
DOCKED: BRANCH  50  51
DOCKED: ATOM     51  C   UNL d   1      -7.493 -14.572 -12.297 -0.27 -0.01    +0.305 C 
DOCKED: ATOM     52  O   UNL d   1      -7.786 -15.516 -13.009 -0.21 -0.03    -0.251 OA
DOCKED: BRANCH  51  53
DOCKED: ATOM     53  O   UNL d   1      -7.881 -14.545 -11.006 -0.31 +0.08    -0.481 OA
DOCKED: ATOM     54  H   UNL d   1      -7.842 -15.483 -10.726 -0.21 -0.07    +0.295 HD
DOCKED: ENDBRANCH  51  53
DOCKED: ENDBRANCH  50  51
DOCKED: ENDBRANCH  49  50
DOCKED: ENDBRANCH  22  49
DOCKED: TORSDOF 13
DOCKED: TER
DOCKED: ENDMDL
________________________________________________________________________________


	BEGINNING GENETIC ALGORITHM DOCKING 85 of 100
Run: 85 Seed: 645021958 797452365 [ Run 85 of 100 GA/GALS ]
Beginning LAMARCKIAN GENETIC ALGORITHM (LGA), with a maximum of 25000000 energy evaluations.

Final-Value: -11.527


	FINAL GENETIC ALGORITHM DOCKED STATE
	_______________________________________________


Detailed state:  trans 15.411 9.219 -16.209 quatxyzw -0.210146 -0.335407 0.088155 0.914095 center 0.153 0.018 -0.028 ntor 13 -115.9851 -151.5660 -102.1539 -49.5865 60.9875 60.3844 -180.0000 -126.9085 153.8980 16.1811 -87.0790 -78.9528 -11.8845
State:	 15.411   9.219 -16.209  -0.518 -0.827  0.217 47.845   -115.99 -151.57 -102.15  -49.59   60.99   60.38 -180.00 -126.91  153.90   16.18  -87.08  -78.95  -11.88

DOCKED: MODEL       85
DOCKED: USER    Run = 85
DOCKED: USER    DPF = D:/Protein_go_brrr/autodock/final/mut_Y35F/heme/dock.dpf
DOCKED: USER  
DOCKED: USER    Estimated Free Energy of Binding    =   -3.34 kcal/mol  [=(1)+(2)+(3)-(4)]
DOCKED: USER    Estimated Inhibition Constant, Ki   =    3.55 mM (millimolar)  [Temperature = 298.15 K]
DOCKED: USER    
DOCKED: USER    (1) Final Intermolecular Energy     =   -7.22 kcal/mol
DOCKED: USER        vdW + Hbond + desolv Energy     =   -7.14 kcal/mol
DOCKED: USER        Electrostatic Energy            =   -0.08 kcal/mol
DOCKED: USER    (2) Final Total Internal Energy     =   -4.31 kcal/mol
DOCKED: USER    (3) Torsional Free Energy           =   +3.88 kcal/mol
DOCKED: USER    (4) Unbound System's Energy  [=(2)] =   -4.31 kcal/mol
DOCKED: USER    
DOCKED: USER    
DOCKED: USER    NEWDPF move heme_opt.pdbqt
DOCKED: USER    NEWDPF about 0.153000 0.018000 -0.028000
DOCKED: USER    NEWDPF tran0 15.410942 9.219091 -16.208546
DOCKED: USER    NEWDPF quaternion0 -0.210146 -0.335407 0.088155 0.914095
DOCKED: USER    NEWDPF axisangle0 -0.518238 -0.827144 0.217398 47.844967
DOCKED: USER    NEWDPF quat0 -0.518238 -0.827144 0.217398 47.844967
DOCKED: USER    NEWDPF dihe0 -115.99 -151.57 -102.15 -49.59 60.99 60.38 -180.00 -126.91 153.90 16.18 -87.08 -78.95 -11.88 
DOCKED: USER  keepresnum = 1 
DOCKED: USER  
DOCKED: REMARK  13 active torsions:
DOCKED: REMARK  status: ('A' for Active; 'I' for Inactive)
DOCKED: REMARK    1  A    between atoms: O_3  and  C_38 
DOCKED: REMARK    2  A    between atoms: O_4  and  C_40 
DOCKED: REMARK    3  A    between atoms: O_7  and  C_46 
DOCKED: REMARK    4  A    between atoms: O_9  and  C_48 
DOCKED: REMARK    5  A    between atoms: C_15  and  C_20 
DOCKED: REMARK    6  A    between atoms: C_16  and  C_23 
DOCKED: REMARK    7  A    between atoms: C_20  and  C_38 
DOCKED: REMARK    8  A    between atoms: C_23  and  C_40 
DOCKED: REMARK    9  A    between atoms: C_32  and  C_41 
DOCKED: REMARK   10  A    between atoms: C_37  and  C_45 
DOCKED: REMARK   11  A    between atoms: C_41  and  C_44 
DOCKED: REMARK   12  A    between atoms: C_44  and  C_46 
DOCKED: REMARK   13  A    between atoms: C_47  and  C_48 
DOCKED: USER                              x       y       z     vdW  Elec       q    Type
DOCKED: USER                           _______ _______ _______ _____ _____    ______ ____
DOCKED: ROOT
DOCKED: ATOM      1  O   UNL d   1      12.033  10.559 -11.566 -0.11 +0.11    -0.289 OA
DOCKED: ATOM      2  O   UNL d   1      11.019   5.630 -17.140 -0.10 +0.02    -0.289 OA
DOCKED: ATOM      3  N   UNL d   1      14.256  10.212 -14.180 -0.11 +0.08    -0.247 NA
DOCKED: ATOM      4  N   UNL d   1      13.193   7.874 -15.675 -0.14 +0.07    -0.247 NA
DOCKED: ATOM      5  N   UNL d   1      15.689   7.766 -17.098 -0.06 +0.11    -0.354 N 
DOCKED: ATOM      6  N   UNL d   1      16.791  10.180 -15.529 -0.06 +0.09    -0.354 N 
DOCKED: ATOM      7  C   UNL d   1      14.231  11.492 -12.091 -0.20 -0.02    +0.084 A 
DOCKED: ATOM      8  C   UNL d   1      10.800   7.418 -15.483 -0.19 -0.01    +0.084 A 
DOCKED: ATOM      9  C   UNL d   1      12.022   8.234 -15.048 -0.21 -0.01    +0.058 A 
DOCKED: ATOM     10  C   UNL d   1      14.956  11.100 -13.381 -0.18 -0.01    +0.058 A 
DOCKED: ATOM     11  C   UNL d   1      12.988  10.683 -12.311 -0.19 -0.06    +0.193 A 
DOCKED: ATOM     12  C   UNL d   1      13.113   9.973 -13.624 -0.23 -0.03    +0.109 A 
DOCKED: ATOM     13  C   UNL d   1      11.502   6.503 -16.446 -0.13 -0.02    +0.193 A 
DOCKED: ATOM     14  C   UNL d   1      14.949  10.967 -10.845 -0.32 -0.01    +0.026 C 
DOCKED: ATOM     15  C   UNL d   1      11.961   9.182 -14.099 -0.28 -0.01    +0.055 C 
DOCKED: ATOM     16  C   UNL d   1       9.794   8.273 -16.260 -0.16 -0.00    +0.026 C 
DOCKED: ATOM     17  C   UNL d   1      12.949   6.878 -16.465 -0.20 -0.02    +0.109 A 
DOCKED: ATOM     18  C   UNL d   1      16.133  11.658 -13.724 -0.14 -0.01    +0.050 C 
DOCKED: ATOM     19  C   UNL d   1      16.834  11.420 -14.933 -0.11 -0.01    +0.045 A 
DOCKED: ATOM     20  C   UNL d   1      15.131   6.585 -17.512 -0.22 -0.01    +0.045 A 
DOCKED: ATOM     21  C   UNL d   1      13.897   6.119 -17.293 -0.19 -0.00    +0.057 C 
DOCKED: ATOM     22  C   UNL d   1      17.283   6.690 -18.271 -0.08 +0.00    -0.019 A 
DOCKED: ATOM     23  C   UNL d   1      16.987   7.919 -17.508 -0.16 -0.01    +0.045 A 
DOCKED: ATOM     24  C   UNL d   1      16.180   5.905 -18.271 -0.17 +0.00    -0.022 A 
DOCKED: ATOM     25  C   UNL d   1      17.610  10.146 -16.634 -0.13 -0.01    +0.049 A 
DOCKED: ATOM     26  C   UNL d   1      17.673  12.223 -15.690 -0.06 +0.00    -0.018 A 
DOCKED: ATOM     27  C   UNL d   1      18.144  11.420 -16.774 -0.05 -0.00    +0.003 A 
DOCKED: ATOM     28  C   UNL d   1      17.853   8.928 -17.324 -0.15 -0.01    +0.052 C 
DOCKED: ATOM     29  C   UNL d   1      15.982   4.575 -18.915 -0.16 -0.00    +0.046 C 
DOCKED: ATOM     30  C   UNL d   1      18.015  13.651 -15.427 -0.02 -0.00    +0.046 C 
DOCKED: ATOM     31  H   UNL d   1      15.140   8.465 -16.609 -0.30 -0.07    +0.166 HD
DOCKED: ATOM     32  H   UNL d   1      16.256   9.401 -15.164 -0.51 -0.11    +0.166 HD
DOCKED: ENDROOT
DOCKED: BRANCH   7  33
DOCKED: ATOM     33  C   UNL d   1      13.887  12.980 -11.956 -0.08 -0.03    +0.141 C 
DOCKED: BRANCH  33  34
DOCKED: ATOM     34  C   UNL d   1      13.667  13.397 -10.527 -0.06 -0.07    +0.306 C 
DOCKED: ATOM     35  O   UNL d   1      14.351  14.181  -9.892 -0.03 +0.05    -0.251 OA
DOCKED: BRANCH  34  36
DOCKED: ATOM     36  O   UNL d   1      12.593  12.805  -9.974 -0.08 +0.14    -0.481 OA
DOCKED: ATOM     37  H   UNL d   1      12.798  11.846 -10.003 -0.19 -0.16    +0.295 HD
DOCKED: ENDBRANCH  34  36
DOCKED: ENDBRANCH  33  34
DOCKED: ENDBRANCH   7  33
DOCKED: BRANCH  27  38
DOCKED: ATOM     38  C   UNL d   1      19.051  11.857 -17.792 -0.02 -0.00    +0.017 C 
DOCKED: ATOM     39  C   UNL d   1      20.077  11.139 -18.275 -0.01 -0.01    +0.092 C 
DOCKED: BRANCH  39  40
DOCKED: ATOM     40  C   UNL d   1      20.924  11.697 -19.333 +0.00 -0.03    +0.330 C 
DOCKED: ATOM     41  O   UNL d   1      21.570  12.726 -19.302 +0.00 +0.02    -0.246 OA
DOCKED: BRANCH  40  42
DOCKED: ATOM     42  O   UNL d   1      20.913  10.891 -20.406 +0.00 +0.04    -0.477 OA
DOCKED: ATOM     43  H   UNL d   1      20.040  10.451 -20.361 +0.00 -0.02    +0.295 HD
DOCKED: ENDBRANCH  40  42
DOCKED: ENDBRANCH  39  40
DOCKED: ENDBRANCH  27  38
DOCKED: BRANCH   8  44
DOCKED: ATOM     44  C   UNL d   1      10.109   6.620 -14.373 -0.34 -0.03    +0.141 C 
DOCKED: BRANCH  44  45
DOCKED: ATOM     45  C   UNL d   1      11.063   6.108 -13.327 -0.40 -0.05    +0.306 C 
DOCKED: ATOM     46  O   UNL d   1      10.902   6.138 -12.119 -0.48 +0.04    -0.251 OA
DOCKED: BRANCH  45  47
DOCKED: ATOM     47  O   UNL d   1      12.191   5.606 -13.861 -0.24 +0.07    -0.481 OA
DOCKED: ATOM     48  H   UNL d   1      12.721   6.393 -14.107 +0.17 -0.06    +0.295 HD
DOCKED: ENDBRANCH  45  47
DOCKED: ENDBRANCH  44  45
DOCKED: ENDBRANCH   8  44
DOCKED: BRANCH  22  49
DOCKED: ATOM     49  C   UNL d   1      18.607   6.394 -18.911 -0.07 -0.01    +0.048 C 
DOCKED: BRANCH  49  50
DOCKED: ATOM     50  C   UNL d   1      18.630   6.799 -20.385 -0.02 -0.01    +0.125 C 
DOCKED: BRANCH  50  51
DOCKED: ATOM     51  C   UNL d   1      19.183   8.187 -20.551 -0.00 -0.03    +0.305 C 
DOCKED: ATOM     52  O   UNL d   1      18.725   9.093 -21.224 -0.00 +0.02    -0.251 OA
DOCKED: BRANCH  51  53
DOCKED: ATOM     53  O   UNL d   1      20.322   8.363 -19.853 +0.00 +0.05    -0.481 OA
DOCKED: ATOM     54  H   UNL d   1      20.945   8.747 -20.505 +0.00 -0.03    +0.295 HD
DOCKED: ENDBRANCH  51  53
DOCKED: ENDBRANCH  50  51
DOCKED: ENDBRANCH  49  50
DOCKED: ENDBRANCH  22  49
DOCKED: TORSDOF 13
DOCKED: TER
DOCKED: ENDMDL
________________________________________________________________________________


	BEGINNING GENETIC ALGORITHM DOCKING 86 of 100
Run: 86 Seed: 290031242 934922662 [ Run 86 of 100 GA/GALS ]
Beginning LAMARCKIAN GENETIC ALGORITHM (LGA), with a maximum of 25000000 energy evaluations.

Final-Value: -11.940


	FINAL GENETIC ALGORITHM DOCKED STATE
	_______________________________________________


Detailed state:  trans 3.321 -16.561 -8.889 quatxyzw -0.519729 -0.318004 -0.076930 -0.789200 center 0.153 0.018 -0.028 ntor 13 112.2584 91.4037 -168.0957 118.0524 178.6975 60.7750 -35.8929 105.5799 -18.9989 125.7257 3.4032 -80.2604 -163.1843
State:	  3.321 -16.561  -8.889  -0.846 -0.518 -0.125 -75.778    112.26   91.40 -168.10  118.05  178.70   60.77  -35.89  105.58  -19.00  125.73    3.40  -80.26 -163.18

DOCKED: MODEL       86
DOCKED: USER    Run = 86
DOCKED: USER    DPF = D:/Protein_go_brrr/autodock/final/mut_Y35F/heme/dock.dpf
DOCKED: USER  
DOCKED: USER    Estimated Free Energy of Binding    =   -6.55 kcal/mol  [=(1)+(2)+(3)-(4)]
DOCKED: USER    Estimated Inhibition Constant, Ki   =   15.69 uM (micromolar)  [Temperature = 298.15 K]
DOCKED: USER    
DOCKED: USER    (1) Final Intermolecular Energy     =  -10.43 kcal/mol
DOCKED: USER        vdW + Hbond + desolv Energy     =   -9.84 kcal/mol
DOCKED: USER        Electrostatic Energy            =   -0.60 kcal/mol
DOCKED: USER    (2) Final Total Internal Energy     =   -1.51 kcal/mol
DOCKED: USER    (3) Torsional Free Energy           =   +3.88 kcal/mol
DOCKED: USER    (4) Unbound System's Energy  [=(2)] =   -1.51 kcal/mol
DOCKED: USER    
DOCKED: USER    
DOCKED: USER    NEWDPF move heme_opt.pdbqt
DOCKED: USER    NEWDPF about 0.153000 0.018000 -0.028000
DOCKED: USER    NEWDPF tran0 3.320727 -16.561037 -8.889055
DOCKED: USER    NEWDPF quaternion0 -0.519729 -0.318004 -0.076930 -0.789200
DOCKED: USER    NEWDPF axisangle0 -0.846276 -0.517808 -0.125266 -75.778396
DOCKED: USER    NEWDPF quat0 -0.846276 -0.517808 -0.125266 -75.778396
DOCKED: USER    NEWDPF dihe0 112.26 91.40 -168.10 118.05 178.70 60.77 -35.89 105.58 -19.00 125.73 3.40 -80.26 -163.18 
DOCKED: USER  keepresnum = 1 
DOCKED: USER  
DOCKED: REMARK  13 active torsions:
DOCKED: REMARK  status: ('A' for Active; 'I' for Inactive)
DOCKED: REMARK    1  A    between atoms: O_3  and  C_38 
DOCKED: REMARK    2  A    between atoms: O_4  and  C_40 
DOCKED: REMARK    3  A    between atoms: O_7  and  C_46 
DOCKED: REMARK    4  A    between atoms: O_9  and  C_48 
DOCKED: REMARK    5  A    between atoms: C_15  and  C_20 
DOCKED: REMARK    6  A    between atoms: C_16  and  C_23 
DOCKED: REMARK    7  A    between atoms: C_20  and  C_38 
DOCKED: REMARK    8  A    between atoms: C_23  and  C_40 
DOCKED: REMARK    9  A    between atoms: C_32  and  C_41 
DOCKED: REMARK   10  A    between atoms: C_37  and  C_45 
DOCKED: REMARK   11  A    between atoms: C_41  and  C_44 
DOCKED: REMARK   12  A    between atoms: C_44  and  C_46 
DOCKED: REMARK   13  A    between atoms: C_47  and  C_48 
DOCKED: USER                              x       y       z     vdW  Elec       q    Type
DOCKED: USER                           _______ _______ _______ _____ _____    ______ ____
DOCKED: ROOT
DOCKED: ATOM      1  O   UNL d   1      -0.599 -16.415 -13.290 -0.13 -0.04    -0.289 OA
DOCKED: ATOM      2  O   UNL d   1      -0.291 -20.660  -7.104 -0.06 +0.26    -0.289 OA
DOCKED: ATOM      3  N   UNL d   1       2.000 -16.237 -11.030 -0.15 +0.07    -0.247 NA
DOCKED: ATOM      4  N   UNL d   1       1.109 -18.016  -8.823 -0.15 +0.09    -0.247 NA
DOCKED: ATOM      5  N   UNL d   1       3.201 -16.896  -7.200 +0.23 +0.19    -0.354 N 
DOCKED: ATOM      6  N   UNL d   1       4.107 -15.040  -9.489 -0.10 +0.16    -0.354 N 
DOCKED: ATOM      7  C   UNL d   1       1.359 -14.975 -13.031 -0.16 -0.01    +0.084 A 
DOCKED: ATOM      8  C   UNL d   1      -0.452 -19.808  -9.393 -0.14 -0.02    +0.084 A 
DOCKED: ATOM      9  C   UNL d   1       0.332 -18.563  -9.820 -0.19 -0.01    +0.058 A 
DOCKED: ATOM     10  C   UNL d   1       2.332 -15.185 -11.867 -0.18 -0.02    +0.058 A 
DOCKED: ATOM     11  C   UNL d   1       0.428 -16.106 -12.714 -0.11 -0.00    +0.193 A 
DOCKED: ATOM     12  C   UNL d   1       0.939 -16.811 -11.495 -0.19 -0.01    +0.109 A 
DOCKED: ATOM     13  C   UNL d   1      -0.005 -19.844  -7.958 -0.09 -0.11    +0.193 A 
DOCKED: ATOM     14  C   UNL d   1       0.594 -13.655 -12.908 -0.28 -0.01    +0.026 C 
DOCKED: ATOM     15  C   UNL d   1       0.229 -18.025 -11.045 -0.23 -0.00    +0.055 C 
DOCKED: ATOM     16  C   UNL d   1       0.055 -21.069 -10.099 -0.05 -0.00    +0.026 C 
DOCKED: ATOM     17  C   UNL d   1       0.932 -18.702  -7.740 -0.19 -0.05    +0.109 A 
DOCKED: ATOM     18  C   UNL d   1       3.455 -14.451 -11.748 -0.17 -0.02    +0.050 C 
DOCKED: ATOM     19  C   UNL d   1       4.453 -14.630 -10.756 -0.24 -0.02    +0.045 A 
DOCKED: ATOM     20  C   UNL d   1       2.517 -17.605  -6.247 -0.22 -0.02    +0.045 A 
DOCKED: ATOM     21  C   UNL d   1       1.501 -18.458  -6.406 -0.25 -0.03    +0.057 C 
DOCKED: ATOM     22  C   UNL d   1       4.130 -16.354  -5.221 -0.24 +0.01    -0.019 A 
DOCKED: ATOM     23  C   UNL d   1       4.194 -16.112  -6.676 -0.15 -0.02    +0.045 A 
DOCKED: ATOM     24  C   UNL d   1       3.137 -17.240  -4.973 -0.23 +0.01    -0.022 A 
DOCKED: ATOM     25  C   UNL d   1       5.211 -15.060  -8.669 -0.22 -0.02    +0.049 A 
DOCKED: ATOM     26  C   UNL d   1       5.822 -14.413 -10.771 -0.16 +0.01    -0.018 A 
DOCKED: ATOM     27  C   UNL d   1       6.299 -14.705  -9.455 -0.15 -0.00    +0.003 A 
DOCKED: ATOM     28  C   UNL d   1       5.080 -15.300  -7.274 -0.26 -0.02    +0.052 C 
DOCKED: ATOM     29  C   UNL d   1       2.694 -17.804  -3.666 -0.26 -0.01    +0.046 C 
DOCKED: ATOM     30  C   UNL d   1       6.640 -13.965 -11.934 -0.12 -0.01    +0.046 C 
DOCKED: ATOM     31  H   UNL d   1       3.015 -17.028  -8.188 -0.21 -0.09    +0.166 HD
DOCKED: ATOM     32  H   UNL d   1       3.157 -15.253  -9.208 -0.36 -0.12    +0.166 HD
DOCKED: ENDROOT
DOCKED: BRANCH   7  33
DOCKED: ATOM     33  C   UNL d   1       1.960 -15.149 -14.430 -0.05 -0.01    +0.141 C 
DOCKED: BRANCH  33  34
DOCKED: ATOM     34  C   UNL d   1       3.115 -16.113 -14.448 +0.00 -0.02    +0.306 C 
DOCKED: ATOM     35  O   UNL d   1       4.227 -15.897 -14.901 -0.01 +0.02    -0.251 OA
DOCKED: BRANCH  34  36
DOCKED: ATOM     36  O   UNL d   1       2.810 -17.298 -13.892 +0.01 +0.02    -0.481 OA
DOCKED: ATOM     37  H   UNL d   1       2.724 -17.106 -12.934 +0.05 -0.02    +0.295 HD
DOCKED: ENDBRANCH  34  36
DOCKED: ENDBRANCH  33  34
DOCKED: ENDBRANCH   7  33
DOCKED: BRANCH  27  38
DOCKED: ATOM     38  C   UNL d   1       7.661 -14.596  -9.028 -0.11 -0.01    +0.017 C 
DOCKED: ATOM     39  C   UNL d   1       8.068 -14.060  -7.867 -0.16 -0.08    +0.092 C 
DOCKED: BRANCH  39  40
DOCKED: ATOM     40  C   UNL d   1       9.496 -14.025  -7.540 +0.05 -0.39    +0.330 C 
DOCKED: ATOM     41  O   UNL d   1      10.390 -13.494  -8.171 -0.07 +0.24    -0.246 OA
DOCKED: BRANCH  40  42
DOCKED: ATOM     42  O   UNL d   1       9.722 -14.677  -6.390 -0.03 +0.63    -0.477 OA
DOCKED: ATOM     43  H   UNL d   1       9.610 -13.988  -5.703 -0.48 -0.77    +0.295 HD
DOCKED: ENDBRANCH  40  42
DOCKED: ENDBRANCH  39  40
DOCKED: ENDBRANCH  27  38
DOCKED: BRANCH   8  44
DOCKED: ATOM     44  C   UNL d   1      -1.977 -19.693  -9.490 -0.31 -0.02    +0.141 C 
DOCKED: BRANCH  44  45
DOCKED: ATOM     45  C   UNL d   1      -2.492 -19.799 -10.900 -0.17 +0.07    +0.306 C 
DOCKED: ATOM     46  O   UNL d   1      -2.504 -18.913 -11.738 -0.66 -0.12    -0.251 OA
DOCKED: BRANCH  45  47
DOCKED: ATOM     47  O   UNL d   1      -2.994 -21.016 -11.175 -0.08 -0.15    -0.481 OA
DOCKED: ATOM     48  H   UNL d   1      -3.050 -21.464 -10.304 +0.08 +0.04    +0.295 HD
DOCKED: ENDBRANCH  45  47
DOCKED: ENDBRANCH  44  45
DOCKED: ENDBRANCH   8  44
DOCKED: BRANCH  22  49
DOCKED: ATOM     49  C   UNL d   1       5.028 -15.693  -4.216 -0.27 -0.02    +0.048 C 
DOCKED: BRANCH  49  50
DOCKED: ATOM     50  C   UNL d   1       4.253 -14.748  -3.297 -0.43 -0.04    +0.125 C 
DOCKED: BRANCH  50  51
DOCKED: ATOM     51  C   UNL d   1       5.184 -14.020  -2.369 -0.22 -0.06    +0.305 C 
DOCKED: ATOM     52  O   UNL d   1       5.615 -12.886  -2.487 -0.86 +0.06    -0.251 OA
DOCKED: BRANCH  51  53
DOCKED: ATOM     53  O   UNL d   1       5.545 -14.782  -1.317 -0.30 +0.10    -0.481 OA
DOCKED: ATOM     54  H   UNL d   1       4.701 -14.958  -0.851 -0.42 -0.18    +0.295 HD
DOCKED: ENDBRANCH  51  53
DOCKED: ENDBRANCH  50  51
DOCKED: ENDBRANCH  49  50
DOCKED: ENDBRANCH  22  49
DOCKED: TORSDOF 13
DOCKED: TER
DOCKED: ENDMDL
________________________________________________________________________________


	BEGINNING GENETIC ALGORITHM DOCKING 87 of 100
Run: 87 Seed: 1148378247 2051397439 [ Run 87 of 100 GA/GALS ]
Beginning LAMARCKIAN GENETIC ALGORITHM (LGA), with a maximum of 25000000 energy evaluations.

Final-Value: -12.119


	FINAL GENETIC ALGORITHM DOCKED STATE
	_______________________________________________


Detailed state:  trans 13.554 15.394 -7.014 quatxyzw 0.028807 0.921503 0.346523 -0.172988 center 0.153 0.018 -0.028 ntor 13 -172.4563 134.9921 1.4442 44.5871 -120.3176 77.7204 109.2606 84.8969 -119.6999 -51.4893 -86.1774 -72.3789 -5.6048
State:	 13.554  15.394  -7.014   0.029  0.936  0.352 -160.077   -172.46  134.99    1.44   44.59 -120.32   77.72  109.26   84.90 -119.70  -51.49  -86.18  -72.38   -5.60

DOCKED: MODEL       87
DOCKED: USER    Run = 87
DOCKED: USER    DPF = D:/Protein_go_brrr/autodock/final/mut_Y35F/heme/dock.dpf
DOCKED: USER  
DOCKED: USER    Estimated Free Energy of Binding    =   -4.99 kcal/mol  [=(1)+(2)+(3)-(4)]
DOCKED: USER    Estimated Inhibition Constant, Ki   =  219.70 uM (micromolar)  [Temperature = 298.15 K]
DOCKED: USER    
DOCKED: USER    (1) Final Intermolecular Energy     =   -8.87 kcal/mol
DOCKED: USER        vdW + Hbond + desolv Energy     =   -8.13 kcal/mol
DOCKED: USER        Electrostatic Energy            =   -0.74 kcal/mol
DOCKED: USER    (2) Final Total Internal Energy     =   -3.25 kcal/mol
DOCKED: USER    (3) Torsional Free Energy           =   +3.88 kcal/mol
DOCKED: USER    (4) Unbound System's Energy  [=(2)] =   -3.25 kcal/mol
DOCKED: USER    
DOCKED: USER    
DOCKED: USER    NEWDPF move heme_opt.pdbqt
DOCKED: USER    NEWDPF about 0.153000 0.018000 -0.028000
DOCKED: USER    NEWDPF tran0 13.554153 15.394085 -7.013645
DOCKED: USER    NEWDPF quaternion0 0.028807 0.921503 0.346523 -0.172988
DOCKED: USER    NEWDPF axisangle0 0.029248 0.935608 0.351827 -160.076782
DOCKED: USER    NEWDPF quat0 0.029248 0.935608 0.351827 -160.076782
DOCKED: USER    NEWDPF dihe0 -172.46 134.99 1.44 44.59 -120.32 77.72 109.26 84.90 -119.70 -51.49 -86.18 -72.38 -5.60 
DOCKED: USER  keepresnum = 1 
DOCKED: USER  
DOCKED: REMARK  13 active torsions:
DOCKED: REMARK  status: ('A' for Active; 'I' for Inactive)
DOCKED: REMARK    1  A    between atoms: O_3  and  C_38 
DOCKED: REMARK    2  A    between atoms: O_4  and  C_40 
DOCKED: REMARK    3  A    between atoms: O_7  and  C_46 
DOCKED: REMARK    4  A    between atoms: O_9  and  C_48 
DOCKED: REMARK    5  A    between atoms: C_15  and  C_20 
DOCKED: REMARK    6  A    between atoms: C_16  and  C_23 
DOCKED: REMARK    7  A    between atoms: C_20  and  C_38 
DOCKED: REMARK    8  A    between atoms: C_23  and  C_40 
DOCKED: REMARK    9  A    between atoms: C_32  and  C_41 
DOCKED: REMARK   10  A    between atoms: C_37  and  C_45 
DOCKED: REMARK   11  A    between atoms: C_41  and  C_44 
DOCKED: REMARK   12  A    between atoms: C_44  and  C_46 
DOCKED: REMARK   13  A    between atoms: C_47  and  C_48 
DOCKED: USER                              x       y       z     vdW  Elec       q    Type
DOCKED: USER                           _______ _______ _______ _____ _____    ______ ____
DOCKED: ROOT
DOCKED: ATOM      1  O   UNL d   1      18.927  16.111  -4.695 -0.04 +0.09    -0.289 OA
DOCKED: ATOM      2  O   UNL d   1      15.836  10.268  -8.257 -0.12 +0.09    -0.289 OA
DOCKED: ATOM      3  N   UNL d   1      15.651  16.101  -5.774 -0.10 +0.16    -0.247 NA
DOCKED: ATOM      4  N   UNL d   1      15.442  13.559  -7.298 -0.06 +0.07    -0.247 NA
DOCKED: ATOM      5  N   UNL d   1      12.952  14.515  -8.372 -0.04 +0.07    -0.354 N 
DOCKED: ATOM      6  N   UNL d   1      13.186  17.158  -6.802 -0.05 +0.16    -0.354 N 
DOCKED: ATOM      7  C   UNL d   1      17.136  17.774  -4.772 -0.10 -0.05    +0.084 A 
DOCKED: ATOM      8  C   UNL d   1      16.973  11.757  -6.682 -0.27 -0.03    +0.084 A 
DOCKED: ATOM      9  C   UNL d   1      16.518  13.210  -6.513 -0.17 -0.02    +0.058 A 
DOCKED: ATOM     10  C   UNL d   1      15.761  17.412  -5.342 -0.09 -0.05    +0.058 A 
DOCKED: ATOM     11  C   UNL d   1      17.778  16.429  -4.941 -0.08 -0.09    +0.193 A 
DOCKED: ATOM     12  C   UNL d   1      16.768  15.496  -5.534 -0.12 -0.05    +0.109 A 
DOCKED: ATOM     13  C   UNL d   1      15.980  11.356  -7.736 -0.25 -0.06    +0.193 A 
DOCKED: ATOM     14  C   UNL d   1      17.873  18.788  -5.649 -0.03 -0.01    +0.026 C 
DOCKED: ATOM     15  C   UNL d   1      17.149  14.079  -5.708 -0.19 -0.02    +0.055 C 
DOCKED: ATOM     16  C   UNL d   1      16.713  10.930  -5.420 -0.43 -0.01    +0.026 C 
DOCKED: ATOM     17  C   UNL d   1      15.115  12.540  -8.026 -0.17 -0.03    +0.109 A 
DOCKED: ATOM     18  C   UNL d   1      14.741  18.290  -5.326 -0.04 -0.05    +0.050 C 
DOCKED: ATOM     19  C   UNL d   1      13.416  18.018  -5.752 -0.08 -0.04    +0.045 A 
DOCKED: ATOM     20  C   UNL d   1      13.138  13.408  -9.159 -0.19 -0.01    +0.045 A 
DOCKED: ATOM     21  C   UNL d   1      14.070  12.456  -9.057 -0.22 -0.02    +0.057 C 
DOCKED: ATOM     22  C   UNL d   1      11.337  14.575  -9.941 -0.16 +0.00    -0.019 A 
DOCKED: ATOM     23  C   UNL d   1      11.888  15.282  -8.767 -0.13 -0.01    +0.045 A 
DOCKED: ATOM     24  C   UNL d   1      12.080  13.467 -10.167 -0.21 +0.00    -0.022 A 
DOCKED: ATOM     25  C   UNL d   1      11.845  17.111  -7.104 -0.12 -0.01    +0.049 A 
DOCKED: ATOM     26  C   UNL d   1      12.189  18.515  -5.338 -0.12 +0.01    -0.018 A 
DOCKED: ATOM     27  C   UNL d   1      11.200  17.924  -6.183 -0.15 -0.00    +0.003 A 
DOCKED: ATOM     28  C   UNL d   1      11.380  16.412  -8.252 -0.13 -0.01    +0.052 C 
DOCKED: ATOM     29  C   UNL d   1      11.912  12.431 -11.226 -0.28 -0.01    +0.046 C 
DOCKED: ATOM     30  C   UNL d   1      11.949  19.478  -4.226 -0.10 -0.03    +0.046 C 
DOCKED: ATOM     31  H   UNL d   1      13.515  14.672  -7.543 +0.07 -0.04    +0.166 HD
DOCKED: ATOM     32  H   UNL d   1      13.923  16.668  -7.297 +0.03 -0.06    +0.166 HD
DOCKED: ENDROOT
DOCKED: BRANCH   7  33
DOCKED: ATOM     33  C   UNL d   1      17.147  18.192  -3.297 -0.08 -0.13    +0.141 C 
DOCKED: BRANCH  33  34
DOCKED: ATOM     34  C   UNL d   1      16.543  19.553  -3.078 -0.06 -0.23    +0.306 C 
DOCKED: ATOM     35  O   UNL d   1      16.993  20.614  -3.476 -0.02 +0.10    -0.251 OA
DOCKED: BRANCH  34  36
DOCKED: ATOM     36  O   UNL d   1      15.401  19.505  -2.369 -0.06 +0.58    -0.481 OA
DOCKED: ATOM     37  H   UNL d   1      15.311  18.564  -2.110 -0.44 -0.73    +0.295 HD
DOCKED: ENDBRANCH  34  36
DOCKED: ENDBRANCH  33  34
DOCKED: ENDBRANCH   7  33
DOCKED: BRANCH  27  38
DOCKED: ATOM     38  C   UNL d   1       9.792  18.177  -6.108 -0.16 +0.00    +0.017 C 
DOCKED: ATOM     39  C   UNL d   1       8.959  18.236  -7.157 -0.14 +0.01    +0.092 C 
DOCKED: BRANCH  39  40
DOCKED: ATOM     40  C   UNL d   1       7.531  18.486  -6.943 -0.05 +0.15    +0.330 C 
DOCKED: ATOM     41  O   UNL d   1       6.995  19.543  -6.668 -0.32 -0.11    -0.246 OA
DOCKED: BRANCH  40  42
DOCKED: ATOM     42  O   UNL d   1       6.834  17.351  -7.102 -0.46 -0.35    -0.477 OA
DOCKED: ATOM     43  H   UNL d   1       7.207  16.959  -7.919 +0.11 +0.11    +0.295 HD
DOCKED: ENDBRANCH  40  42
DOCKED: ENDBRANCH  39  40
DOCKED: ENDBRANCH  27  38
DOCKED: BRANCH   8  44
DOCKED: ATOM     44  C   UNL d   1      18.409  11.569  -7.182 -0.22 -0.05    +0.141 C 
DOCKED: BRANCH  44  45
DOCKED: ATOM     45  C   UNL d   1      18.490  11.240  -8.649 -0.22 -0.10    +0.306 C 
DOCKED: ATOM     46  O   UNL d   1      18.165  11.964  -9.575 -0.12 +0.07    -0.251 OA
DOCKED: BRANCH  45  47
DOCKED: ATOM     47  O   UNL d   1      18.953   9.997  -8.874 -0.72 +0.21    -0.481 OA
DOCKED: ATOM     48  H   UNL d   1      18.967   9.911  -9.851 -0.11 -0.23    +0.295 HD
DOCKED: ENDBRANCH  45  47
DOCKED: ENDBRANCH  44  45
DOCKED: ENDBRANCH   8  44
DOCKED: BRANCH  22  49
DOCKED: ATOM     49  C   UNL d   1      10.156  15.053 -10.733 -0.17 -0.00    +0.048 C 
DOCKED: BRANCH  49  50
DOCKED: ATOM     50  C   UNL d   1       8.839  14.517 -10.171 -0.13 +0.00    +0.125 C 
DOCKED: BRANCH  50  51
DOCKED: ATOM     51  C   UNL d   1       8.217  15.506  -9.226 -0.09 +0.04    +0.305 C 
DOCKED: ATOM     52  O   UNL d   1       7.586  16.509  -9.510 -0.14 -0.04    -0.251 OA
DOCKED: BRANCH  51  53
DOCKED: ATOM     53  O   UNL d   1       8.438  15.180  -7.937 -0.17 -0.07    -0.481 OA
DOCKED: ATOM     54  H   UNL d   1       7.569  15.316  -7.505 -0.21 +0.07    +0.295 HD
DOCKED: ENDBRANCH  51  53
DOCKED: ENDBRANCH  50  51
DOCKED: ENDBRANCH  49  50
DOCKED: ENDBRANCH  22  49
DOCKED: TORSDOF 13
DOCKED: TER
DOCKED: ENDMDL
________________________________________________________________________________


	BEGINNING GENETIC ALGORITHM DOCKING 88 of 100
Run: 88 Seed: 1668351362 1225897708 [ Run 88 of 100 GA/GALS ]
Beginning LAMARCKIAN GENETIC ALGORITHM (LGA), with a maximum of 25000000 energy evaluations.

Final-Value: -13.114


	FINAL GENETIC ALGORITHM DOCKED STATE
	_______________________________________________


Detailed state:  trans 2.913 -15.979 -8.616 quatxyzw 0.754627 -0.103586 0.403727 -0.506767 center 0.153 0.018 -0.028 ntor 13 -126.9784 52.3083 -106.4117 -94.3305 47.5372 -147.0580 120.2930 177.4228 150.0360 -31.7772 -57.9063 16.8363 -168.8722
State:	  2.913 -15.979  -8.616   0.875 -0.120  0.468 -119.103   -126.98   52.31 -106.41  -94.33   47.54 -147.06  120.29  177.42  150.04  -31.78  -57.91   16.84 -168.87

DOCKED: MODEL       88
DOCKED: USER    Run = 88
DOCKED: USER    DPF = D:/Protein_go_brrr/autodock/final/mut_Y35F/heme/dock.dpf
DOCKED: USER  
DOCKED: USER    Estimated Free Energy of Binding    =   -6.82 kcal/mol  [=(1)+(2)+(3)-(4)]
DOCKED: USER    Estimated Inhibition Constant, Ki   =    9.96 uM (micromolar)  [Temperature = 298.15 K]
DOCKED: USER    
DOCKED: USER    (1) Final Intermolecular Energy     =  -10.70 kcal/mol
DOCKED: USER        vdW + Hbond + desolv Energy     =  -10.16 kcal/mol
DOCKED: USER        Electrostatic Energy            =   -0.54 kcal/mol
DOCKED: USER    (2) Final Total Internal Energy     =   -2.41 kcal/mol
DOCKED: USER    (3) Torsional Free Energy           =   +3.88 kcal/mol
DOCKED: USER    (4) Unbound System's Energy  [=(2)] =   -2.41 kcal/mol
DOCKED: USER    
DOCKED: USER    
DOCKED: USER    NEWDPF move heme_opt.pdbqt
DOCKED: USER    NEWDPF about 0.153000 0.018000 -0.028000
DOCKED: USER    NEWDPF tran0 2.912758 -15.979045 -8.616276
DOCKED: USER    NEWDPF quaternion0 0.754627 -0.103586 0.403727 -0.506767
DOCKED: USER    NEWDPF axisangle0 0.875353 -0.120158 0.468316 -119.102515
DOCKED: USER    NEWDPF quat0 0.875353 -0.120158 0.468316 -119.102515
DOCKED: USER    NEWDPF dihe0 -126.98 52.31 -106.41 -94.33 47.54 -147.06 120.29 177.42 150.04 -31.78 -57.91 16.84 -168.87 
DOCKED: USER  keepresnum = 1 
DOCKED: USER  
DOCKED: REMARK  13 active torsions:
DOCKED: REMARK  status: ('A' for Active; 'I' for Inactive)
DOCKED: REMARK    1  A    between atoms: O_3  and  C_38 
DOCKED: REMARK    2  A    between atoms: O_4  and  C_40 
DOCKED: REMARK    3  A    between atoms: O_7  and  C_46 
DOCKED: REMARK    4  A    between atoms: O_9  and  C_48 
DOCKED: REMARK    5  A    between atoms: C_15  and  C_20 
DOCKED: REMARK    6  A    between atoms: C_16  and  C_23 
DOCKED: REMARK    7  A    between atoms: C_20  and  C_38 
DOCKED: REMARK    8  A    between atoms: C_23  and  C_40 
DOCKED: REMARK    9  A    between atoms: C_32  and  C_41 
DOCKED: REMARK   10  A    between atoms: C_37  and  C_45 
DOCKED: REMARK   11  A    between atoms: C_41  and  C_44 
DOCKED: REMARK   12  A    between atoms: C_44  and  C_46 
DOCKED: REMARK   13  A    between atoms: C_47  and  C_48 
DOCKED: USER                              x       y       z     vdW  Elec       q    Type
DOCKED: USER                           _______ _______ _______ _____ _____    ______ ____
DOCKED: ROOT
DOCKED: ATOM      1  O   UNL d   1      -1.377 -18.733 -11.578 -0.45 -0.07    -0.289 OA
DOCKED: ATOM      2  O   UNL d   1       3.123 -13.058 -13.562 -0.15 +0.07    -0.289 OA
DOCKED: ATOM      3  N   UNL d   1       0.933 -17.341  -9.428 -0.20 +0.09    -0.247 NA
DOCKED: ATOM      4  N   UNL d   1       2.409 -15.427 -11.157 -0.18 +0.09    -0.247 NA
DOCKED: ATOM      5  N   UNL d   1       4.397 -15.236  -9.089 -0.09 +0.15    -0.354 N 
DOCKED: ATOM      6  N   UNL d   1       2.870 -17.237  -7.310 +0.03 +0.18    -0.354 N 
DOCKED: ATOM      7  C   UNL d   1      -0.582 -19.265  -9.328 -0.21 -0.02    +0.084 A 
DOCKED: ATOM      8  C   UNL d   1       1.225 -14.532 -13.098 -0.18 -0.01    +0.084 A 
DOCKED: ATOM      9  C   UNL d   1       1.256 -15.495 -11.906 -0.25 -0.01    +0.058 A 
DOCKED: ATOM     10  C   UNL d   1       0.494 -18.406  -8.659 -0.25 -0.02    +0.058 A 
DOCKED: ATOM     11  C   UNL d   1      -0.687 -18.487 -10.605 -0.20 -0.00    +0.193 A 
DOCKED: ATOM     12  C   UNL d   1       0.261 -17.331 -10.533 -0.24 -0.02    +0.109 A 
DOCKED: ATOM     13  C   UNL d   1       2.590 -13.933 -12.908 -0.09 -0.06    +0.193 A 
DOCKED: ATOM     14  C   UNL d   1      -0.075 -20.674  -9.648 -0.08 -0.00    +0.026 C 
DOCKED: ATOM     15  C   UNL d   1       0.265 -16.363 -11.649 -0.19 -0.00    +0.055 C 
DOCKED: ATOM     16  C   UNL d   1       0.174 -13.433 -12.914 -0.33 -0.00    +0.026 C 
DOCKED: ATOM     17  C   UNL d   1       3.205 -14.565 -11.702 -0.01 -0.05    +0.109 A 
DOCKED: ATOM     18  C   UNL d   1       0.893 -18.638  -7.394 -0.27 -0.03    +0.050 C 
DOCKED: ATOM     19  C   UNL d   1       1.818 -17.847  -6.665 -0.24 -0.02    +0.045 A 
DOCKED: ATOM     20  C   UNL d   1       5.041 -14.566 -10.097 -0.24 -0.02    +0.045 A 
DOCKED: ATOM     21  C   UNL d   1       4.571 -14.202 -11.294 -0.27 -0.02    +0.057 C 
DOCKED: ATOM     22  C   UNL d   1       6.485 -14.830  -8.347 -0.17 +0.01    -0.019 A 
DOCKED: ATOM     23  C   UNL d   1       5.189 -15.442  -7.991 -0.21 -0.02    +0.045 A 
DOCKED: ATOM     24  C   UNL d   1       6.390 -14.312  -9.594 -0.17 +0.01    -0.022 A 
DOCKED: ATOM     25  C   UNL d   1       3.688 -16.601  -6.405 -0.11 -0.02    +0.049 A 
DOCKED: ATOM     26  C   UNL d   1       1.935 -17.570  -5.312 -0.30 +0.01    -0.018 A 
DOCKED: ATOM     27  C   UNL d   1       3.106 -16.767  -5.156 -0.29 -0.00    +0.003 A 
DOCKED: ATOM     28  C   UNL d   1       4.924 -16.031  -6.815 -0.21 -0.02    +0.052 C 
DOCKED: ATOM     29  C   UNL d   1       7.425 -13.586 -10.384 -0.13 -0.02    +0.046 C 
DOCKED: ATOM     30  C   UNL d   1       1.015 -18.021  -4.228 -0.27 -0.02    +0.046 C 
DOCKED: ATOM     31  H   UNL d   1       3.412 -15.466  -9.156 -0.37 -0.10    +0.166 HD
DOCKED: ATOM     32  H   UNL d   1       3.024 -17.296  -8.309 -0.08 -0.07    +0.166 HD
DOCKED: ENDROOT
DOCKED: BRANCH   7  33
DOCKED: ATOM     33  C   UNL d   1      -1.934 -19.304  -8.609 -0.24 -0.07    +0.141 C 
DOCKED: BRANCH  33  34
DOCKED: ATOM     34  C   UNL d   1      -2.792 -20.459  -9.049 -0.18 -0.05    +0.306 C 
DOCKED: ATOM     35  O   UNL d   1      -2.962 -21.502  -8.441 -0.12 +0.06    -0.251 OA
DOCKED: BRANCH  34  36
DOCKED: ATOM     36  O   UNL d   1      -3.393 -20.238 -10.231 -0.14 -0.08    -0.481 OA
DOCKED: ATOM     37  H   UNL d   1      -2.668 -19.947 -10.825 +0.09 +0.07    +0.295 HD
DOCKED: ENDBRANCH  34  36
DOCKED: ENDBRANCH  33  34
DOCKED: ENDBRANCH   7  33
DOCKED: BRANCH  27  38
DOCKED: ATOM     38  C   UNL d   1       3.606 -16.269  -3.910 -0.33 -0.00    +0.017 C 
DOCKED: ATOM     39  C   UNL d   1       3.883 -14.983  -3.644 -0.42 -0.03    +0.092 C 
DOCKED: BRANCH  39  40
DOCKED: ATOM     40  C   UNL d   1       4.374 -14.601  -2.318 -0.16 -0.10    +0.330 C 
DOCKED: ATOM     41  O   UNL d   1       4.196 -13.550  -1.733 -0.91 -0.01    -0.246 OA
DOCKED: BRANCH  40  42
DOCKED: ATOM     42  O   UNL d   1       5.081 -15.607  -1.780 -0.14 +0.18    -0.477 OA
DOCKED: ATOM     43  H   UNL d   1       4.674 -15.735  -0.899 -0.39 -0.21    +0.295 HD
DOCKED: ENDBRANCH  40  42
DOCKED: ENDBRANCH  39  40
DOCKED: ENDBRANCH  27  38
DOCKED: BRANCH   8  44
DOCKED: ATOM     44  C   UNL d   1       1.102 -15.191 -14.476 -0.06 -0.00    +0.141 C 
DOCKED: BRANCH  44  45
DOCKED: ATOM     45  C   UNL d   1       2.414 -15.700 -15.011 -0.00 -0.01    +0.306 C 
DOCKED: ATOM     46  O   UNL d   1       3.000 -16.709 -14.660 -0.00 +0.01    -0.251 OA
DOCKED: BRANCH  45  47
DOCKED: ATOM     47  O   UNL d   1       2.938 -14.888 -15.947 +0.01 +0.02    -0.481 OA
DOCKED: ATOM     48  H   UNL d   1       3.255 -14.105 -15.448 +0.04 -0.02    +0.295 HD
DOCKED: ENDBRANCH  45  47
DOCKED: ENDBRANCH  44  45
DOCKED: ENDBRANCH   8  44
DOCKED: BRANCH  22  49
DOCKED: ATOM     49  C   UNL d   1       7.687 -14.821  -7.450 -0.15 -0.03    +0.048 C 
DOCKED: BRANCH  49  50
DOCKED: ATOM     50  C   UNL d   1       8.773 -15.777  -7.944 -0.03 -0.06    +0.125 C 
DOCKED: BRANCH  50  51
DOCKED: ATOM     51  C   UNL d   1      10.068 -15.049  -8.168 -0.02 -0.18    +0.305 C 
DOCKED: ATOM     52  O   UNL d   1      11.159 -15.532  -8.415 -0.01 +0.10    -0.251 OA
DOCKED: BRANCH  51  53
DOCKED: ATOM     53  O   UNL d   1       9.921 -13.713  -8.055 -0.03 +0.49    -0.481 OA
DOCKED: ATOM     54  H   UNL d   1      10.011 -13.544  -7.094 -0.53 -0.57    +0.295 HD
DOCKED: ENDBRANCH  51  53
DOCKED: ENDBRANCH  50  51
DOCKED: ENDBRANCH  49  50
DOCKED: ENDBRANCH  22  49
DOCKED: TORSDOF 13
DOCKED: TER
DOCKED: ENDMDL
________________________________________________________________________________


	BEGINNING GENETIC ALGORITHM DOCKING 89 of 100
Run: 89 Seed: 391116897 1592913736 [ Run 89 of 100 GA/GALS ]
Beginning LAMARCKIAN GENETIC ALGORITHM (LGA), with a maximum of 25000000 energy evaluations.

Final-Value: -13.035


	FINAL GENETIC ALGORITHM DOCKED STATE
	_______________________________________________


Detailed state:  trans 3.067 -15.857 -8.633 quatxyzw 0.733067 0.006145 0.459527 -0.501408 center 0.153 0.018 -0.028 ntor 13 104.9239 -88.8118 -180.0000 151.4867 -133.8991 159.6964 -69.2236 -83.2432 56.6334 -157.3719 -75.8386 -29.5961 179.3223
State:	  3.067 -15.857  -8.633   0.847  0.007  0.531 -119.814    104.92  -88.81 -180.00  151.49 -133.90  159.70  -69.22  -83.24   56.63 -157.37  -75.84  -29.60  179.32

DOCKED: MODEL       89
DOCKED: USER    Run = 89
DOCKED: USER    DPF = D:/Protein_go_brrr/autodock/final/mut_Y35F/heme/dock.dpf
DOCKED: USER  
DOCKED: USER    Estimated Free Energy of Binding    =   -6.88 kcal/mol  [=(1)+(2)+(3)-(4)]
DOCKED: USER    Estimated Inhibition Constant, Ki   =    9.12 uM (micromolar)  [Temperature = 298.15 K]
DOCKED: USER    
DOCKED: USER    (1) Final Intermolecular Energy     =  -10.75 kcal/mol
DOCKED: USER        vdW + Hbond + desolv Energy     =  -10.10 kcal/mol
DOCKED: USER        Electrostatic Energy            =   -0.66 kcal/mol
DOCKED: USER    (2) Final Total Internal Energy     =   -2.28 kcal/mol
DOCKED: USER    (3) Torsional Free Energy           =   +3.88 kcal/mol
DOCKED: USER    (4) Unbound System's Energy  [=(2)] =   -2.28 kcal/mol
DOCKED: USER    
DOCKED: USER    
DOCKED: USER    NEWDPF move heme_opt.pdbqt
DOCKED: USER    NEWDPF about 0.153000 0.018000 -0.028000
DOCKED: USER    NEWDPF tran0 3.067267 -15.856739 -8.632543
DOCKED: USER    NEWDPF quaternion0 0.733067 0.006145 0.459527 -0.501408
DOCKED: USER    NEWDPF axisangle0 0.847270 0.007102 0.531115 -119.813626
DOCKED: USER    NEWDPF quat0 0.847270 0.007102 0.531115 -119.813626
DOCKED: USER    NEWDPF dihe0 104.92 -88.81 -180.00 151.49 -133.90 159.70 -69.22 -83.24 56.63 -157.37 -75.84 -29.60 179.32 
DOCKED: USER  keepresnum = 1 
DOCKED: USER  
DOCKED: REMARK  13 active torsions:
DOCKED: REMARK  status: ('A' for Active; 'I' for Inactive)
DOCKED: REMARK    1  A    between atoms: O_3  and  C_38 
DOCKED: REMARK    2  A    between atoms: O_4  and  C_40 
DOCKED: REMARK    3  A    between atoms: O_7  and  C_46 
DOCKED: REMARK    4  A    between atoms: O_9  and  C_48 
DOCKED: REMARK    5  A    between atoms: C_15  and  C_20 
DOCKED: REMARK    6  A    between atoms: C_16  and  C_23 
DOCKED: REMARK    7  A    between atoms: C_20  and  C_38 
DOCKED: REMARK    8  A    between atoms: C_23  and  C_40 
DOCKED: REMARK    9  A    between atoms: C_32  and  C_41 
DOCKED: REMARK   10  A    between atoms: C_37  and  C_45 
DOCKED: REMARK   11  A    between atoms: C_41  and  C_44 
DOCKED: REMARK   12  A    between atoms: C_44  and  C_46 
DOCKED: REMARK   13  A    between atoms: C_47  and  C_48 
DOCKED: USER                              x       y       z     vdW  Elec       q    Type
DOCKED: USER                           _______ _______ _______ _____ _____    ______ ____
DOCKED: ROOT
DOCKED: ATOM      1  O   UNL d   1      -0.496 -19.805 -11.176 -0.06 -0.02    -0.289 OA
DOCKED: ATOM      2  O   UNL d   1       2.649 -13.544 -13.878 -0.14 +0.05    -0.289 OA
DOCKED: ATOM      3  N   UNL d   1       1.440 -17.704  -9.244 -0.14 +0.08    -0.247 NA
DOCKED: ATOM      4  N   UNL d   1       2.465 -15.722 -11.208 -0.15 +0.08    -0.247 NA
DOCKED: ATOM      5  N   UNL d   1       4.353 -14.864  -9.217 -0.12 +0.15    -0.354 N 
DOCKED: ATOM      6  N   UNL d   1       3.297 -16.936  -7.193 +0.08 +0.18    -0.354 N 
DOCKED: ATOM      7  C   UNL d   1       0.387 -19.890  -8.898 -0.09 -0.02    +0.084 A 
DOCKED: ATOM      8  C   UNL d   1       1.121 -15.337 -13.212 -0.13 -0.01    +0.084 A 
DOCKED: ATOM      9  C   UNL d   1       1.358 -16.127 -11.920 -0.20 -0.01    +0.058 A 
DOCKED: ATOM     10  C   UNL d   1       1.244 -18.744  -8.352 -0.16 -0.02    +0.058 A 
DOCKED: ATOM     11  C   UNL d   1       0.118 -19.304 -10.252 -0.08 -0.02    +0.193 A 
DOCKED: ATOM     12  C   UNL d   1       0.788 -17.967 -10.329 -0.18 -0.02    +0.109 A 
DOCKED: ATOM     13  C   UNL d   1       2.318 -14.434 -13.119 -0.13 -0.04    +0.193 A 
DOCKED: ATOM     14  C   UNL d   1       1.194 -21.180  -9.068 -0.03 -0.00    +0.026 C 
DOCKED: ATOM     15  C   UNL d   1       0.583 -17.156 -11.547 -0.23 -0.00    +0.055 C 
DOCKED: ATOM     16  C   UNL d   1      -0.148 -14.482 -13.129 -0.12 -0.00    +0.026 C 
DOCKED: ATOM     17  C   UNL d   1       3.054 -14.774 -11.863 -0.10 -0.04    +0.109 A 
DOCKED: ATOM     18  C   UNL d   1       1.679 -18.737  -7.077 -0.19 -0.02    +0.050 C 
DOCKED: ATOM     19  C   UNL d   1       2.404 -17.685  -6.461 -0.21 -0.02    +0.045 A 
DOCKED: ATOM     20  C   UNL d   1       4.837 -14.189 -10.307 -0.29 -0.02    +0.045 A 
DOCKED: ATOM     21  C   UNL d   1       4.303 -14.076 -11.527 -0.27 -0.02    +0.057 C 
DOCKED: ATOM     22  C   UNL d   1       6.296 -13.927  -8.569 -0.24 +0.01    -0.019 A 
DOCKED: ATOM     23  C   UNL d   1       5.166 -14.765  -8.119 -0.25 -0.02    +0.045 A 
DOCKED: ATOM     24  C   UNL d   1       6.095 -13.589  -9.864 -0.27 +0.01    -0.022 A 
DOCKED: ATOM     25  C   UNL d   1       3.951 -16.037  -6.382 -0.04 -0.02    +0.049 A 
DOCKED: ATOM     26  C   UNL d   1       2.451 -17.237  -5.151 -0.28 +0.01    -0.018 A 
DOCKED: ATOM     27  C   UNL d   1       3.415 -16.183  -5.110 -0.32 -0.00    +0.003 A 
DOCKED: ATOM     28  C   UNL d   1       5.033 -15.260  -6.879 -0.26 -0.02    +0.052 C 
DOCKED: ATOM     29  C   UNL d   1       6.948 -12.748 -10.752 -0.18 -0.02    +0.046 C 
DOCKED: ATOM     30  C   UNL d   1       1.649 -17.752  -4.004 -0.14 -0.02    +0.046 C 
DOCKED: ATOM     31  H   UNL d   1       3.443 -15.312  -9.236 -0.35 -0.10    +0.166 HD
DOCKED: ATOM     32  H   UNL d   1       3.465 -17.073  -8.183 -0.08 -0.07    +0.166 HD
DOCKED: ENDROOT
DOCKED: BRANCH   7  33
DOCKED: ATOM     33  C   UNL d   1      -0.926 -20.142  -8.150 -0.12 -0.09    +0.141 C 
DOCKED: BRANCH  33  34
DOCKED: ATOM     34  C   UNL d   1      -2.127 -19.633  -8.900 -0.23 -0.10    +0.306 C 
DOCKED: ATOM     35  O   UNL d   1      -2.510 -18.476  -8.947 -0.71 +0.07    -0.251 OA
DOCKED: BRANCH  34  36
DOCKED: ATOM     36  O   UNL d   1      -2.781 -20.608  -9.555 -0.10 +0.02    -0.481 OA
DOCKED: ATOM     37  H   UNL d   1      -2.237 -20.777 -10.354 +0.09 +0.02    +0.295 HD
DOCKED: ENDBRANCH  34  36
DOCKED: ENDBRANCH  33  34
DOCKED: ENDBRANCH   7  33
DOCKED: BRANCH  27  38
DOCKED: ATOM     38  C   UNL d   1       3.788 -15.449  -3.939 -0.43 -0.00    +0.017 C 
DOCKED: ATOM     39  C   UNL d   1       4.590 -14.374  -3.921 -0.42 -0.03    +0.092 C 
DOCKED: BRANCH  39  40
DOCKED: ATOM     40  C   UNL d   1       4.880 -13.701  -2.652 -0.34 -0.07    +0.330 C 
DOCKED: ATOM     41  O   UNL d   1       5.830 -12.989  -2.388 -0.73 +0.06    -0.246 OA
DOCKED: BRANCH  40  42
DOCKED: ATOM     42  O   UNL d   1       3.915 -13.965  -1.758 -0.52 +0.10    -0.477 OA
DOCKED: ATOM     43  H   UNL d   1       4.238 -14.765  -1.294 -0.40 -0.17    +0.295 HD
DOCKED: ENDBRANCH  40  42
DOCKED: ENDBRANCH  39  40
DOCKED: ENDBRANCH  27  38
DOCKED: BRANCH   8  44
DOCKED: ATOM     44  C   UNL d   1       1.152 -16.159 -14.504 -0.04 +0.00    +0.141 C 
DOCKED: BRANCH  44  45
DOCKED: ATOM     45  C   UNL d   1       0.323 -15.561 -15.609 -0.00 +0.02    +0.306 C 
DOCKED: ATOM     46  O   UNL d   1      -0.690 -16.034 -16.095 -0.02 -0.03    -0.251 OA
DOCKED: BRANCH  45  47
DOCKED: ATOM     47  O   UNL d   1       0.832 -14.403 -16.066 +0.02 -0.00    -0.481 OA
DOCKED: ATOM     48  H   UNL d   1       1.633 -14.252 -15.520 +0.05 -0.01    +0.295 HD
DOCKED: ENDBRANCH  45  47
DOCKED: ENDBRANCH  44  45
DOCKED: ENDBRANCH   8  44
DOCKED: BRANCH  22  49
DOCKED: ATOM     49  C   UNL d   1       7.463 -13.552  -7.704 -0.17 -0.04    +0.048 C 
DOCKED: BRANCH  49  50
DOCKED: ATOM     50  C   UNL d   1       8.651 -14.492  -7.911 -0.10 -0.10    +0.125 C 
DOCKED: BRANCH  50  51
DOCKED: ATOM     51  C   UNL d   1       9.727 -13.826  -8.721 -0.03 -0.21    +0.305 C 
DOCKED: ATOM     52  O   UNL d   1       9.849 -13.822  -9.933 -0.01 +0.10    -0.251 OA
DOCKED: BRANCH  51  53
DOCKED: ATOM     53  O   UNL d   1      10.626 -13.193  -7.941 -0.01 +0.55    -0.481 OA
DOCKED: ATOM     54  H   UNL d   1      10.112 -12.937  -7.146 -0.49 -0.75    +0.295 HD
DOCKED: ENDBRANCH  51  53
DOCKED: ENDBRANCH  50  51
DOCKED: ENDBRANCH  49  50
DOCKED: ENDBRANCH  22  49
DOCKED: TORSDOF 13
DOCKED: TER
DOCKED: ENDMDL
________________________________________________________________________________


	BEGINNING GENETIC ALGORITHM DOCKING 90 of 100
Run: 90 Seed: 470046841 369225046 [ Run 90 of 100 GA/GALS ]
Beginning LAMARCKIAN GENETIC ALGORITHM (LGA), with a maximum of 25000000 energy evaluations.

Final-Value: -11.617


	FINAL GENETIC ALGORITHM DOCKED STATE
	_______________________________________________


Detailed state:  trans 7.606 8.087 -16.034 quatxyzw -0.105130 -0.103300 0.947015 0.285377 center 0.153 0.018 -0.028 ntor 13 173.2291 -167.4939 -165.5509 40.7726 -147.1917 -65.2666 135.8784 80.3524 18.6068 -15.5787 -49.4775 12.7255 27.1382
State:	  7.606   8.087 -16.034  -0.110 -0.108  0.988 146.837    173.23 -167.49 -165.55   40.77 -147.19  -65.27  135.88   80.35   18.61  -15.58  -49.48   12.73   27.14

DOCKED: MODEL       90
DOCKED: USER    Run = 90
DOCKED: USER    DPF = D:/Protein_go_brrr/autodock/final/mut_Y35F/heme/dock.dpf
DOCKED: USER  
DOCKED: USER    Estimated Free Energy of Binding    =   -3.66 kcal/mol  [=(1)+(2)+(3)-(4)]
DOCKED: USER    Estimated Inhibition Constant, Ki   =    2.07 mM (millimolar)  [Temperature = 298.15 K]
DOCKED: USER    
DOCKED: USER    (1) Final Intermolecular Energy     =   -7.54 kcal/mol
DOCKED: USER        vdW + Hbond + desolv Energy     =   -7.46 kcal/mol
DOCKED: USER        Electrostatic Energy            =   -0.07 kcal/mol
DOCKED: USER    (2) Final Total Internal Energy     =   -4.08 kcal/mol
DOCKED: USER    (3) Torsional Free Energy           =   +3.88 kcal/mol
DOCKED: USER    (4) Unbound System's Energy  [=(2)] =   -4.08 kcal/mol
DOCKED: USER    
DOCKED: USER    
DOCKED: USER    NEWDPF move heme_opt.pdbqt
DOCKED: USER    NEWDPF about 0.153000 0.018000 -0.028000
DOCKED: USER    NEWDPF tran0 7.605626 8.086627 -16.033739
DOCKED: USER    NEWDPF quaternion0 -0.105130 -0.103300 0.947015 0.285377
DOCKED: USER    NEWDPF axisangle0 -0.109691 -0.107782 0.988105 146.837232
DOCKED: USER    NEWDPF quat0 -0.109691 -0.107782 0.988105 146.837232
DOCKED: USER    NEWDPF dihe0 173.23 -167.49 -165.55 40.77 -147.19 -65.27 135.88 80.35 18.61 -15.58 -49.48 12.73 27.14 
DOCKED: USER  keepresnum = 1 
DOCKED: USER  
DOCKED: REMARK  13 active torsions:
DOCKED: REMARK  status: ('A' for Active; 'I' for Inactive)
DOCKED: REMARK    1  A    between atoms: O_3  and  C_38 
DOCKED: REMARK    2  A    between atoms: O_4  and  C_40 
DOCKED: REMARK    3  A    between atoms: O_7  and  C_46 
DOCKED: REMARK    4  A    between atoms: O_9  and  C_48 
DOCKED: REMARK    5  A    between atoms: C_15  and  C_20 
DOCKED: REMARK    6  A    between atoms: C_16  and  C_23 
DOCKED: REMARK    7  A    between atoms: C_20  and  C_38 
DOCKED: REMARK    8  A    between atoms: C_23  and  C_40 
DOCKED: REMARK    9  A    between atoms: C_32  and  C_41 
DOCKED: REMARK   10  A    between atoms: C_37  and  C_45 
DOCKED: REMARK   11  A    between atoms: C_41  and  C_44 
DOCKED: REMARK   12  A    between atoms: C_44  and  C_46 
DOCKED: REMARK   13  A    between atoms: C_47  and  C_48 
DOCKED: USER                              x       y       z     vdW  Elec       q    Type
DOCKED: USER                           _______ _______ _______ _____ _____    ______ ____
DOCKED: ROOT
DOCKED: ATOM      1  O   UNL d   1      13.037   9.454 -14.195 -0.16 +0.08    -0.289 OA
DOCKED: ATOM      2  O   UNL d   1       7.268  13.822 -16.201 -0.02 +0.01    -0.289 OA
DOCKED: ATOM      3  N   UNL d   1      10.046   8.184 -15.350 -0.11 +0.03    -0.247 NA
DOCKED: ATOM      4  N   UNL d   1       8.326  10.595 -15.587 +0.02 +0.00    -0.247 NA
DOCKED: ATOM      5  N   UNL d   1       6.064   8.842 -15.855 -0.08 +0.04    -0.354 N 
DOCKED: ATOM      6  N   UNL d   1       7.853   6.346 -15.589 -0.03 +0.12    -0.354 N 
DOCKED: ATOM      7  C   UNL d   1      12.094   7.210 -14.419 -0.34 -0.02    +0.084 A 
DOCKED: ATOM      8  C   UNL d   1       9.447  12.737 -15.943 -0.05 -0.00    +0.084 A 
DOCKED: ATOM      9  C   UNL d   1       9.544  11.234 -15.660 -0.09 -0.00    +0.058 A 
DOCKED: ATOM     10  C   UNL d   1      10.685   7.011 -14.986 -0.28 -0.01    +0.058 A 
DOCKED: ATOM     11  C   UNL d   1      12.145   8.703 -14.544 -0.17 -0.04    +0.193 A 
DOCKED: ATOM     12  C   UNL d   1      10.856   9.171 -15.145 -0.13 -0.01    +0.109 A 
DOCKED: ATOM     13  C   UNL d   1       7.948  12.839 -15.979 -0.06 -0.01    +0.193 A 
DOCKED: ATOM     14  C   UNL d   1      12.175   6.835 -12.937 -0.64 -0.01    +0.026 C 
DOCKED: ATOM     15  C   UNL d   1      10.712  10.609 -15.451 -0.11 -0.00    +0.055 C 
DOCKED: ATOM     16  C   UNL d   1       9.999  13.091 -17.327 -0.02 -0.00    +0.026 C 
DOCKED: ATOM     17  C   UNL d   1       7.389  11.474 -15.742 -0.10 -0.00    +0.109 A 
DOCKED: ATOM     18  C   UNL d   1      10.175   5.781 -15.185 -0.37 -0.01    +0.050 C 
DOCKED: ATOM     19  C   UNL d   1       8.920   5.497 -15.781 -0.21 -0.01    +0.045 A 
DOCKED: ATOM     20  C   UNL d   1       5.416  10.042 -15.715 -0.18 -0.00    +0.045 A 
DOCKED: ATOM     21  C   UNL d   1       5.934  11.274 -15.680 -0.18 -0.00    +0.057 C 
DOCKED: ATOM     22  C   UNL d   1       3.869   8.361 -15.689 -0.23 +0.00    -0.019 A 
DOCKED: ATOM     23  C   UNL d   1       5.213   7.769 -15.850 -0.26 -0.01    +0.045 A 
DOCKED: ATOM     24  C   UNL d   1       3.997   9.707 -15.611 -0.24 +0.00    -0.022 A 
DOCKED: ATOM     25  C   UNL d   1       6.718   5.835 -16.176 -0.25 -0.01    +0.049 A 
DOCKED: ATOM     26  C   UNL d   1       8.477   4.427 -16.542 -0.21 +0.00    -0.018 A 
DOCKED: ATOM     27  C   UNL d   1       7.091   4.656 -16.806 -0.20 -0.00    +0.003 A 
DOCKED: ATOM     28  C   UNL d   1       5.454   6.455 -15.980 -0.32 -0.01    +0.052 C 
DOCKED: ATOM     29  C   UNL d   1       2.930  10.737 -15.457 -0.20 -0.00    +0.046 C 
DOCKED: ATOM     30  C   UNL d   1       9.289   3.264 -17.001 -0.19 -0.00    +0.046 C 
DOCKED: ATOM     31  H   UNL d   1       7.063   8.800 -16.024 +0.04 -0.02    +0.166 HD
DOCKED: ATOM     32  H   UNL d   1       7.908   7.202 -15.051 -0.25 -0.06    +0.166 HD
DOCKED: ENDROOT
DOCKED: BRANCH   7  33
DOCKED: ATOM     33  C   UNL d   1      13.225   6.564 -15.225 -0.20 -0.03    +0.141 C 
DOCKED: BRANCH  33  34
DOCKED: ATOM     34  C   UNL d   1      13.402   7.193 -16.581 -0.16 -0.06    +0.306 C 
DOCKED: ATOM     35  O   UNL d   1      12.887   6.820 -17.621 -0.10 +0.03    -0.251 OA
DOCKED: BRANCH  34  36
DOCKED: ATOM     36  O   UNL d   1      14.218   8.261 -16.553 -0.05 +0.15    -0.481 OA
DOCKED: ATOM     37  H   UNL d   1      14.366   8.435 -15.599 -0.40 -0.18    +0.295 HD
DOCKED: ENDBRANCH  34  36
DOCKED: ENDBRANCH  33  34
DOCKED: ENDBRANCH   7  33
DOCKED: BRANCH  27  38
DOCKED: ATOM     38  C   UNL d   1       6.237   3.781 -17.551 -0.12 -0.00    +0.017 C 
DOCKED: ATOM     39  C   UNL d   1       5.428   4.157 -18.554 -0.04 -0.01    +0.092 C 
DOCKED: BRANCH  39  40
DOCKED: ATOM     40  C   UNL d   1       4.615   3.156 -19.250 -0.01 -0.01    +0.330 C 
DOCKED: ATOM     41  O   UNL d   1       5.001   2.252 -19.966 -0.00 +0.01    -0.246 OA
DOCKED: BRANCH  40  42
DOCKED: ATOM     42  O   UNL d   1       3.314   3.355 -18.988 +0.00 +0.02    -0.477 OA
DOCKED: ATOM     43  H   UNL d   1       3.292   4.239 -18.568 +0.02 -0.01    +0.295 HD
DOCKED: ENDBRANCH  40  42
DOCKED: ENDBRANCH  39  40
DOCKED: ENDBRANCH  27  38
DOCKED: BRANCH   8  44
DOCKED: ATOM     44  C   UNL d   1      10.033  13.652 -14.862 -0.05 -0.01    +0.141 C 
DOCKED: BRANCH  44  45
DOCKED: ATOM     45  C   UNL d   1       9.291  13.578 -13.554 -0.09 -0.01    +0.306 C 
DOCKED: ATOM     46  O   UNL d   1       9.539  12.838 -12.618 -0.14 +0.00    -0.251 OA
DOCKED: BRANCH  45  47
DOCKED: ATOM     47  O   UNL d   1       8.248  14.427 -13.505 -0.03 +0.00    -0.481 OA
DOCKED: ATOM     48  H   UNL d   1       8.120  14.716 -14.434 +0.05 -0.01    +0.295 HD
DOCKED: ENDBRANCH  45  47
DOCKED: ENDBRANCH  44  45
DOCKED: ENDBRANCH   8  44
DOCKED: BRANCH  22  49
DOCKED: ATOM     49  C   UNL d   1       2.601   7.563 -15.613 -0.22 -0.01    +0.048 C 
DOCKED: BRANCH  49  50
DOCKED: ATOM     50  C   UNL d   1       2.421   6.662 -16.834 -0.12 -0.01    +0.125 C 
DOCKED: BRANCH  50  51
DOCKED: ATOM     51  C   UNL d   1       2.073   5.260 -16.420 -0.11 -0.02    +0.305 C 
DOCKED: ATOM     52  O   UNL d   1       1.008   4.856 -15.988 -0.10 +0.01    -0.251 OA
DOCKED: BRANCH  51  53
DOCKED: ATOM     53  O   UNL d   1       3.116   4.418 -16.563 -0.07 +0.03    -0.481 OA
DOCKED: ATOM     54  H   UNL d   1       2.713   3.598 -16.917 +0.05 -0.01    +0.295 HD
DOCKED: ENDBRANCH  51  53
DOCKED: ENDBRANCH  50  51
DOCKED: ENDBRANCH  49  50
DOCKED: ENDBRANCH  22  49
DOCKED: TORSDOF 13
DOCKED: TER
DOCKED: ENDMDL
________________________________________________________________________________


	BEGINNING GENETIC ALGORITHM DOCKING 91 of 100
Run: 91 Seed: 293402714 973146828 [ Run 91 of 100 GA/GALS ]
Beginning LAMARCKIAN GENETIC ALGORITHM (LGA), with a maximum of 25000000 energy evaluations.

Final-Value: -10.542


	FINAL GENETIC ALGORITHM DOCKED STATE
	_______________________________________________


Detailed state:  trans -5.880 -12.704 -13.469 quatxyzw 0.766131 0.578836 0.025530 0.278102 center 0.153 0.018 -0.028 ntor 13 -103.1668 -43.5303 178.8030 -47.4096 46.5318 97.9537 143.8324 -20.7851 142.2619 -12.9711 -62.2260 -125.0751 28.7463
State:	 -5.880 -12.704 -13.469   0.798  0.603  0.027 147.706   -103.17  -43.53  178.80  -47.41   46.53   97.95  143.83  -20.79  142.26  -12.97  -62.23 -125.08   28.75

DOCKED: MODEL       91
DOCKED: USER    Run = 91
DOCKED: USER    DPF = D:/Protein_go_brrr/autodock/final/mut_Y35F/heme/dock.dpf
DOCKED: USER  
DOCKED: USER    Estimated Free Energy of Binding    =   -3.22 kcal/mol  [=(1)+(2)+(3)-(4)]
DOCKED: USER    Estimated Inhibition Constant, Ki   =    4.37 mM (millimolar)  [Temperature = 298.15 K]
DOCKED: USER    
DOCKED: USER    (1) Final Intermolecular Energy     =   -7.10 kcal/mol
DOCKED: USER        vdW + Hbond + desolv Energy     =   -6.82 kcal/mol
DOCKED: USER        Electrostatic Energy            =   -0.28 kcal/mol
DOCKED: USER    (2) Final Total Internal Energy     =   -3.44 kcal/mol
DOCKED: USER    (3) Torsional Free Energy           =   +3.88 kcal/mol
DOCKED: USER    (4) Unbound System's Energy  [=(2)] =   -3.44 kcal/mol
DOCKED: USER    
DOCKED: USER    
DOCKED: USER    NEWDPF move heme_opt.pdbqt
DOCKED: USER    NEWDPF about 0.153000 0.018000 -0.028000
DOCKED: USER    NEWDPF tran0 -5.880446 -12.703759 -13.469269
DOCKED: USER    NEWDPF quaternion0 0.766131 0.578836 0.025530 0.278102
DOCKED: USER    NEWDPF axisangle0 0.797595 0.602607 0.026578 147.706077
DOCKED: USER    NEWDPF quat0 0.797595 0.602607 0.026578 147.706077
DOCKED: USER    NEWDPF dihe0 -103.17 -43.53 178.80 -47.41 46.53 97.95 143.83 -20.79 142.26 -12.97 -62.23 -125.08 28.75 
DOCKED: USER  keepresnum = 1 
DOCKED: USER  
DOCKED: REMARK  13 active torsions:
DOCKED: REMARK  status: ('A' for Active; 'I' for Inactive)
DOCKED: REMARK    1  A    between atoms: O_3  and  C_38 
DOCKED: REMARK    2  A    between atoms: O_4  and  C_40 
DOCKED: REMARK    3  A    between atoms: O_7  and  C_46 
DOCKED: REMARK    4  A    between atoms: O_9  and  C_48 
DOCKED: REMARK    5  A    between atoms: C_15  and  C_20 
DOCKED: REMARK    6  A    between atoms: C_16  and  C_23 
DOCKED: REMARK    7  A    between atoms: C_20  and  C_38 
DOCKED: REMARK    8  A    between atoms: C_23  and  C_40 
DOCKED: REMARK    9  A    between atoms: C_32  and  C_41 
DOCKED: REMARK   10  A    between atoms: C_37  and  C_45 
DOCKED: REMARK   11  A    between atoms: C_41  and  C_44 
DOCKED: REMARK   12  A    between atoms: C_44  and  C_46 
DOCKED: REMARK   13  A    between atoms: C_47  and  C_48 
DOCKED: USER                              x       y       z     vdW  Elec       q    Type
DOCKED: USER                           _______ _______ _______ _____ _____    ______ ____
DOCKED: ROOT
DOCKED: ATOM      1  O   UNL d   1      -6.385 -17.601 -16.712 -0.08 -0.18    -0.289 OA
DOCKED: ATOM      2  O   UNL d   1     -10.674 -14.893 -11.174 -0.22 -0.06    -0.289 OA
DOCKED: ATOM      3  N   UNL d   1      -5.608 -14.717 -14.988 -0.09 -0.04    -0.247 NA
DOCKED: ATOM      4  N   UNL d   1      -7.984 -14.298 -13.252 -0.12 -0.01    -0.247 NA
DOCKED: ATOM      5  N   UNL d   1      -7.024 -11.637 -12.740 -0.06 +0.05    -0.354 N 
DOCKED: ATOM      6  N   UNL d   1      -4.573 -12.073 -14.557 -0.01 +0.00    -0.354 N 
DOCKED: ATOM      7  C   UNL d   1      -4.672 -15.873 -16.936 -0.07 +0.02    +0.084 A 
DOCKED: ATOM      8  C   UNL d   1      -9.286 -16.274 -12.644 -0.21 +0.01    +0.084 A 
DOCKED: ATOM      9  C   UNL d   1      -8.142 -15.651 -13.451 -0.20 +0.01    +0.058 A 
DOCKED: ATOM     10  C   UNL d   1      -4.627 -14.690 -15.964 -0.07 +0.01    +0.058 A 
DOCKED: ATOM     11  C   UNL d   1      -5.842 -16.583 -16.324 -0.08 +0.08    +0.193 A 
DOCKED: ATOM     12  C   UNL d   1      -6.304 -15.798 -15.136 -0.14 +0.03    +0.109 A 
DOCKED: ATOM     13  C   UNL d   1      -9.771 -15.017 -11.979 -0.23 +0.02    +0.193 A 
DOCKED: ATOM     14  C   UNL d   1      -5.044 -15.436 -18.355 -0.02 +0.00    +0.026 C 
DOCKED: ATOM     15  C   UNL d   1      -7.395 -16.357 -14.314 -0.17 +0.02    +0.055 C 
DOCKED: ATOM     16  C   UNL d   1      -8.767 -17.231 -11.567 -0.17 +0.00    +0.026 C 
DOCKED: ATOM     17  C   UNL d   1      -8.903 -13.890 -12.437 -0.26 +0.00    +0.109 A 
DOCKED: ATOM     18  C   UNL d   1      -3.648 -13.767 -16.025 -0.06 +0.00    +0.050 C 
DOCKED: ATOM     19  C   UNL d   1      -3.478 -12.689 -15.119 -0.07 +0.00    +0.045 A 
DOCKED: ATOM     20  C   UNL d   1      -8.271 -11.550 -12.178 -0.29 -0.01    +0.045 A 
DOCKED: ATOM     21  C   UNL d   1      -9.171 -12.519 -11.980 -0.30 -0.00    +0.057 C 
DOCKED: ATOM     22  C   UNL d   1      -7.314  -9.476 -12.174 -0.24 +0.00    -0.019 A 
DOCKED: ATOM     23  C   UNL d   1      -6.370 -10.435 -12.782 -0.16 -0.01    +0.045 A 
DOCKED: ATOM     24  C   UNL d   1      -8.437 -10.142 -11.817 -0.34 +0.00    -0.022 A 
DOCKED: ATOM     25  C   UNL d   1      -4.184 -11.002 -13.787 -0.13 -0.00    +0.049 A 
DOCKED: ATOM     26  C   UNL d   1      -2.346 -12.024 -14.674 -0.11 +0.00    -0.018 A 
DOCKED: ATOM     27  C   UNL d   1      -2.796 -10.972 -13.818 -0.19 -0.00    +0.003 A 
DOCKED: ATOM     28  C   UNL d   1      -5.146 -10.116 -13.231 -0.16 -0.00    +0.052 C 
DOCKED: ATOM     29  C   UNL d   1      -9.666  -9.614 -11.159 -0.34 -0.01    +0.046 C 
DOCKED: ATOM     30  C   UNL d   1      -0.931 -12.345 -15.019 -0.11 -0.00    +0.046 C 
DOCKED: ATOM     31  H   UNL d   1      -6.630 -12.531 -13.010 +0.07 -0.02    +0.166 HD
DOCKED: ATOM     32  H   UNL d   1      -5.529 -12.360 -14.733 +0.04 +0.00    +0.166 HD
DOCKED: ENDROOT
DOCKED: BRANCH   7  33
DOCKED: ATOM     33  C   UNL d   1      -3.433 -16.774 -16.931 -0.08 +0.05    +0.141 C 
DOCKED: BRANCH  33  34
DOCKED: ATOM     34  C   UNL d   1      -3.434 -17.766 -18.063 -0.04 +0.13    +0.306 C 
DOCKED: ATOM     35  O   UNL d   1      -2.809 -17.671 -19.105 -0.01 -0.07    -0.251 OA
DOCKED: BRANCH  34  36
DOCKED: ATOM     36  O   UNL d   1      -4.222 -18.829 -17.819 -0.06 -0.44    -0.481 OA
DOCKED: ATOM     37  H   UNL d   1      -5.136 -18.489 -17.927 +0.02 +0.23    +0.295 HD
DOCKED: ENDBRANCH  34  36
DOCKED: ENDBRANCH  33  34
DOCKED: ENDBRANCH   7  33
DOCKED: BRANCH  27  38
DOCKED: ATOM     38  C   UNL d   1      -1.949 -10.028 -13.154 -0.27 -0.00    +0.017 C 
DOCKED: ATOM     39  C   UNL d   1      -1.587  -8.833 -13.645 -0.23 -0.00    +0.092 C 
DOCKED: BRANCH  39  40
DOCKED: ATOM     40  C   UNL d   1      -0.726  -7.949 -12.854 -0.21 +0.00    +0.330 C 
DOCKED: ATOM     41  O   UNL d   1       0.483  -7.832 -12.924 -0.26 -0.03    -0.246 OA
DOCKED: BRANCH  40  42
DOCKED: ATOM     42  O   UNL d   1      -1.465  -7.231 -11.995 -0.17 +0.02    -0.477 OA
DOCKED: ATOM     43  H   UNL d   1      -0.957  -7.269 -11.159 -0.41 -0.10    +0.295 HD
DOCKED: ENDBRANCH  40  42
DOCKED: ENDBRANCH  39  40
DOCKED: ENDBRANCH  27  38
DOCKED: BRANCH   8  44
DOCKED: ATOM     44  C   UNL d   1     -10.401 -16.922 -13.471 -0.08 +0.02    +0.141 C 
DOCKED: BRANCH  44  45
DOCKED: ATOM     45  C   UNL d   1     -11.130 -15.946 -14.355 -0.02 +0.03    +0.306 C 
DOCKED: ATOM     46  O   UNL d   1     -10.950 -15.770 -15.548 -0.01 -0.02    -0.251 OA
DOCKED: BRANCH  45  47
DOCKED: ATOM     47  O   UNL d   1     -12.036 -15.216 -13.679 -0.02 -0.04    -0.481 OA
DOCKED: ATOM     48  H   UNL d   1     -11.994 -15.559 -12.761 +0.07 +0.03    +0.295 HD
DOCKED: ENDBRANCH  45  47
DOCKED: ENDBRANCH  44  45
DOCKED: ENDBRANCH   8  44
DOCKED: BRANCH  22  49
DOCKED: ATOM     49  C   UNL d   1      -7.039  -8.009 -12.013 -0.19 -0.01    +0.048 C 
DOCKED: BRANCH  49  50
DOCKED: ATOM     50  C   UNL d   1      -5.734  -7.754 -11.259 -0.20 -0.01    +0.125 C 
DOCKED: BRANCH  50  51
DOCKED: ATOM     51  C   UNL d   1      -4.757  -7.001 -12.116 -0.09 -0.01    +0.305 C 
DOCKED: ATOM     52  O   UNL d   1      -4.685  -6.997 -13.332 -0.06 +0.00    -0.251 OA
DOCKED: BRANCH  51  53
DOCKED: ATOM     53  O   UNL d   1      -3.889  -6.281 -11.378 -0.08 -0.01    -0.481 OA
DOCKED: ATOM     54  H   UNL d   1      -3.014  -6.497 -11.763 +0.14 +0.01    +0.295 HD
DOCKED: ENDBRANCH  51  53
DOCKED: ENDBRANCH  50  51
DOCKED: ENDBRANCH  49  50
DOCKED: ENDBRANCH  22  49
DOCKED: TORSDOF 13
DOCKED: TER
DOCKED: ENDMDL
________________________________________________________________________________


	BEGINNING GENETIC ALGORITHM DOCKING 92 of 100
Run: 92 Seed: 1723847710 260773584 [ Run 92 of 100 GA/GALS ]
Beginning LAMARCKIAN GENETIC ALGORITHM (LGA), with a maximum of 25000000 energy evaluations.

Final-Value: -10.659


	FINAL GENETIC ALGORITHM DOCKED STATE
	_______________________________________________


Detailed state:  trans 10.934 14.082 6.040 quatxyzw 0.439522 0.692175 0.454669 -0.347837 center 0.153 0.018 -0.028 ntor 13 -105.0971 -84.5630 -131.4790 169.1972 37.2457 -91.1228 120.3840 79.9479 136.8040 10.9559 86.8112 89.0365 -5.4986
State:	 10.934  14.082   6.040   0.469  0.738  0.485 -139.290   -105.10  -84.56 -131.48  169.20   37.25  -91.12  120.38   79.95  136.80   10.96   86.81   89.04   -5.50

DOCKED: MODEL       92
DOCKED: USER    Run = 92
DOCKED: USER    DPF = D:/Protein_go_brrr/autodock/final/mut_Y35F/heme/dock.dpf
DOCKED: USER  
DOCKED: USER    Estimated Free Energy of Binding    =   -4.84 kcal/mol  [=(1)+(2)+(3)-(4)]
DOCKED: USER    Estimated Inhibition Constant, Ki   =  283.46 uM (micromolar)  [Temperature = 298.15 K]
DOCKED: USER    
DOCKED: USER    (1) Final Intermolecular Energy     =   -8.72 kcal/mol
DOCKED: USER        vdW + Hbond + desolv Energy     =   -8.53 kcal/mol
DOCKED: USER        Electrostatic Energy            =   -0.18 kcal/mol
DOCKED: USER    (2) Final Total Internal Energy     =   -1.94 kcal/mol
DOCKED: USER    (3) Torsional Free Energy           =   +3.88 kcal/mol
DOCKED: USER    (4) Unbound System's Energy  [=(2)] =   -1.94 kcal/mol
DOCKED: USER    
DOCKED: USER    
DOCKED: USER    NEWDPF move heme_opt.pdbqt
DOCKED: USER    NEWDPF about 0.153000 0.018000 -0.028000
DOCKED: USER    NEWDPF tran0 10.933682 14.082243 6.040267
DOCKED: USER    NEWDPF quaternion0 0.439522 0.692175 0.454669 -0.347837
DOCKED: USER    NEWDPF axisangle0 0.468796 0.738276 0.484952 -139.289827
DOCKED: USER    NEWDPF quat0 0.468796 0.738276 0.484952 -139.289827
DOCKED: USER    NEWDPF dihe0 -105.10 -84.56 -131.48 169.20 37.25 -91.12 120.38 79.95 136.80 10.96 86.81 89.04 -5.50 
DOCKED: USER  keepresnum = 1 
DOCKED: USER  
DOCKED: REMARK  13 active torsions:
DOCKED: REMARK  status: ('A' for Active; 'I' for Inactive)
DOCKED: REMARK    1  A    between atoms: O_3  and  C_38 
DOCKED: REMARK    2  A    between atoms: O_4  and  C_40 
DOCKED: REMARK    3  A    between atoms: O_7  and  C_46 
DOCKED: REMARK    4  A    between atoms: O_9  and  C_48 
DOCKED: REMARK    5  A    between atoms: C_15  and  C_20 
DOCKED: REMARK    6  A    between atoms: C_16  and  C_23 
DOCKED: REMARK    7  A    between atoms: C_20  and  C_38 
DOCKED: REMARK    8  A    between atoms: C_23  and  C_40 
DOCKED: REMARK    9  A    between atoms: C_32  and  C_41 
DOCKED: REMARK   10  A    between atoms: C_37  and  C_45 
DOCKED: REMARK   11  A    between atoms: C_41  and  C_44 
DOCKED: REMARK   12  A    between atoms: C_44  and  C_46 
DOCKED: REMARK   13  A    between atoms: C_47  and  C_48 
DOCKED: USER                              x       y       z     vdW  Elec       q    Type
DOCKED: USER                           _______ _______ _______ _____ _____    ______ ____
DOCKED: ROOT
DOCKED: ATOM      1  O   UNL d   1      14.084   9.441   7.856 -0.00 -0.06    -0.289 OA
DOCKED: ATOM      2  O   UNL d   1       9.114  10.144   2.270 -0.32 +0.05    -0.289 OA
DOCKED: ATOM      3  N   UNL d   1      12.361  12.366   7.245 -0.06 -0.02    -0.247 NA
DOCKED: ATOM      4  N   UNL d   1      10.904  11.786   4.721 +0.11 +0.01    -0.247 NA
DOCKED: ATOM      5  N   UNL d   1      10.360  14.601   4.497 -0.10 +0.04    -0.354 N 
DOCKED: ATOM      6  N   UNL d   1      11.890  15.196   7.106 -0.06 +0.01    -0.354 N 
DOCKED: ATOM      7  C   UNL d   1      14.166  11.708   8.767 -0.02 +0.01    +0.084 A 
DOCKED: ATOM      8  C   UNL d   1      10.389   9.447   4.240 -0.28 +0.00    +0.084 A 
DOCKED: ATOM      9  C   UNL d   1      11.083  10.483   5.129 -0.15 +0.00    +0.058 A 
DOCKED: ATOM     10  C   UNL d   1      13.226  12.795   8.238 -0.06 +0.01    +0.058 A 
DOCKED: ATOM     11  C   UNL d   1      13.666  10.584   7.911 -0.01 +0.03    +0.193 A 
DOCKED: ATOM     12  C   UNL d   1      12.556  11.103   7.050 -0.07 +0.01    +0.109 A 
DOCKED: ATOM     13  C   UNL d   1       9.813  10.400   3.231 -0.19 -0.03    +0.193 A 
DOCKED: ATOM     14  C   UNL d   1      15.628  11.989   8.412 -0.01 +0.00    +0.026 C 
DOCKED: ATOM     15  C   UNL d   1      11.842  10.144   6.182 -0.14 +0.01    +0.055 C 
DOCKED: ATOM     16  C   UNL d   1       9.238   8.750   4.972 -0.30 +0.00    +0.026 C 
DOCKED: ATOM     17  C   UNL d   1      10.204  11.785   3.632 -0.24 -0.02    +0.109 A 
DOCKED: ATOM     18  C   UNL d   1      13.204  14.029   8.776 -0.06 +0.00    +0.050 C 
DOCKED: ATOM     19  C   UNL d   1      12.314  15.071   8.410 -0.10 +0.00    +0.045 A 
DOCKED: ATOM     20  C   UNL d   1       9.938  14.180   3.262 -0.37 -0.01    +0.045 A 
DOCKED: ATOM     21  C   UNL d   1       9.814  12.932   2.799 -0.40 -0.01    +0.057 C 
DOCKED: ATOM     22  C   UNL d   1       9.885  16.463   3.323 -0.24 +0.00    -0.019 A 
DOCKED: ATOM     23  C   UNL d   1      10.362  15.964   4.628 -0.24 -0.01    +0.045 A 
DOCKED: ATOM     24  C   UNL d   1       9.635  15.403   2.519 -0.35 +0.01    -0.022 A 
DOCKED: ATOM     25  C   UNL d   1      11.111  16.319   6.957 -0.18 -0.01    +0.049 A 
DOCKED: ATOM     26  C   UNL d   1      11.767  16.118   9.134 -0.14 -0.00    -0.018 A 
DOCKED: ATOM     27  C   UNL d   1      10.992  16.892   8.216 -0.19 -0.00    +0.003 A 
DOCKED: ATOM     28  C   UNL d   1      10.684  16.746   5.670 -0.20 -0.01    +0.052 C 
DOCKED: ATOM     29  C   UNL d   1       9.127  15.394   1.117 -0.30 -0.01    +0.046 C 
DOCKED: ATOM     30  C   UNL d   1      11.949  16.385  10.590 -0.12 +0.01    +0.046 C 
DOCKED: ATOM     31  H   UNL d   1      10.563  13.938   5.238 +0.09 -0.01    +0.166 HD
DOCKED: ATOM     32  H   UNL d   1      12.161  14.560   6.365 +0.03 -0.01    +0.166 HD
DOCKED: ENDROOT
DOCKED: BRANCH   7  33
DOCKED: ATOM     33  C   UNL d   1      14.004  11.366  10.252 -0.01 +0.03    +0.141 C 
DOCKED: BRANCH  33  34
DOCKED: ATOM     34  C   UNL d   1      15.026  10.371  10.732 +0.01 +0.05    +0.306 C 
DOCKED: ATOM     35  O   UNL d   1      16.112  10.633  11.220 +0.00 -0.03    -0.251 OA
DOCKED: BRANCH  34  36
DOCKED: ATOM     36  O   UNL d   1      14.624   9.097  10.573 +0.01 -0.10    -0.481 OA
DOCKED: ATOM     37  H   UNL d   1      14.675   8.941   9.606 +0.01 +0.07    +0.295 HD
DOCKED: ENDBRANCH  34  36
DOCKED: ENDBRANCH  33  34
DOCKED: ENDBRANCH   7  33
DOCKED: BRANCH  27  38
DOCKED: ATOM     38  C   UNL d   1      10.265  18.081   8.547 -0.17 -0.00    +0.017 C 
DOCKED: ATOM     39  C   UNL d   1       9.350  18.182   9.523 -0.18 -0.01    +0.092 C 
DOCKED: BRANCH  39  40
DOCKED: ATOM     40  C   UNL d   1       8.687  19.465   9.772 -0.19 -0.04    +0.330 C 
DOCKED: ATOM     41  O   UNL d   1       9.015  20.331  10.561 -0.08 +0.01    -0.246 OA
DOCKED: BRANCH  40  42
DOCKED: ATOM     42  O   UNL d   1       7.615  19.593   8.976 -0.34 +0.11    -0.477 OA
DOCKED: ATOM     43  H   UNL d   1       6.870  19.288   9.534 -0.47 -0.17    +0.295 HD
DOCKED: ENDBRANCH  40  42
DOCKED: ENDBRANCH  39  40
DOCKED: ENDBRANCH  27  38
DOCKED: BRANCH   8  44
DOCKED: ATOM     44  C   UNL d   1      11.315   8.428   3.567 -0.37 +0.00    +0.141 C 
DOCKED: BRANCH  44  45
DOCKED: ATOM     45  C   UNL d   1      12.612   9.026   3.093 -0.28 -0.00    +0.306 C 
DOCKED: ATOM     46  O   UNL d   1      13.569   9.328   3.785 -0.21 -0.03    -0.251 OA
DOCKED: BRANCH  45  47
DOCKED: ATOM     47  O   UNL d   1      12.626   9.240   1.765 -0.26 +0.06    -0.481 OA
DOCKED: ATOM     48  H   UNL d   1      11.775   9.690   1.577 -0.38 -0.15    +0.295 HD
DOCKED: ENDBRANCH  45  47
DOCKED: ENDBRANCH  44  45
DOCKED: ENDBRANCH   8  44
DOCKED: BRANCH  22  49
DOCKED: ATOM     49  C   UNL d   1       9.734  17.916   2.981 -0.17 -0.01    +0.048 C 
DOCKED: BRANCH  49  50
DOCKED: ATOM     50  C   UNL d   1       8.349  18.447   3.352 -0.26 -0.03    +0.125 C 
DOCKED: BRANCH  50  51
DOCKED: ATOM     51  C   UNL d   1       7.403  18.337   2.190 -0.21 -0.06    +0.305 C 
DOCKED: ATOM     52  O   UNL d   1       6.884  17.327   1.748 -0.33 +0.07    -0.251 OA
DOCKED: BRANCH  51  53
DOCKED: ATOM     53  O   UNL d   1       7.162  19.534   1.621 -0.05 +0.05    -0.481 OA
DOCKED: ATOM     54  H   UNL d   1       7.542  20.180   2.253 +0.07 -0.03    +0.295 HD
DOCKED: ENDBRANCH  51  53
DOCKED: ENDBRANCH  50  51
DOCKED: ENDBRANCH  49  50
DOCKED: ENDBRANCH  22  49
DOCKED: TORSDOF 13
DOCKED: TER
DOCKED: ENDMDL
________________________________________________________________________________


	BEGINNING GENETIC ALGORITHM DOCKING 93 of 100
Run: 93 Seed: 460984150 1274185576 [ Run 93 of 100 GA/GALS ]
Beginning LAMARCKIAN GENETIC ALGORITHM (LGA), with a maximum of 25000000 energy evaluations.

Final-Value: -13.064


	FINAL GENETIC ALGORITHM DOCKED STATE
	_______________________________________________


Detailed state:  trans 9.103 8.611 6.274 quatxyzw 0.181163 -0.799506 0.531448 0.213385 center 0.153 0.018 -0.028 ntor 13 -130.8029 -111.6783 -156.7312 -37.6608 41.2951 93.9560 132.0904 -67.3315 148.0033 -14.5942 55.1288 -140.6798 113.9878
State:	  9.103   8.611   6.274   0.185 -0.818  0.544 155.358   -130.80 -111.68 -156.73  -37.66   41.30   93.96  132.09  -67.33  148.00  -14.59   55.13 -140.68  113.99

DOCKED: MODEL       93
DOCKED: USER    Run = 93
DOCKED: USER    DPF = D:/Protein_go_brrr/autodock/final/mut_Y35F/heme/dock.dpf
DOCKED: USER  
DOCKED: USER    Estimated Free Energy of Binding    =   -5.63 kcal/mol  [=(1)+(2)+(3)-(4)]
DOCKED: USER    Estimated Inhibition Constant, Ki   =   74.11 uM (micromolar)  [Temperature = 298.15 K]
DOCKED: USER    
DOCKED: USER    (1) Final Intermolecular Energy     =   -9.51 kcal/mol
DOCKED: USER        vdW + Hbond + desolv Energy     =   -9.43 kcal/mol
DOCKED: USER        Electrostatic Energy            =   -0.08 kcal/mol
DOCKED: USER    (2) Final Total Internal Energy     =   -3.55 kcal/mol
DOCKED: USER    (3) Torsional Free Energy           =   +3.88 kcal/mol
DOCKED: USER    (4) Unbound System's Energy  [=(2)] =   -3.55 kcal/mol
DOCKED: USER    
DOCKED: USER    
DOCKED: USER    NEWDPF move heme_opt.pdbqt
DOCKED: USER    NEWDPF about 0.153000 0.018000 -0.028000
DOCKED: USER    NEWDPF tran0 9.103403 8.610851 6.273787
DOCKED: USER    NEWDPF quaternion0 0.181163 -0.799506 0.531448 0.213385
DOCKED: USER    NEWDPF axisangle0 0.185434 -0.818355 0.543976 155.358466
DOCKED: USER    NEWDPF quat0 0.185434 -0.818355 0.543976 155.358466
DOCKED: USER    NEWDPF dihe0 -130.80 -111.68 -156.73 -37.66 41.30 93.96 132.09 -67.33 148.00 -14.59 55.13 -140.68 113.99 
DOCKED: USER  keepresnum = 1 
DOCKED: USER  
DOCKED: REMARK  13 active torsions:
DOCKED: REMARK  status: ('A' for Active; 'I' for Inactive)
DOCKED: REMARK    1  A    between atoms: O_3  and  C_38 
DOCKED: REMARK    2  A    between atoms: O_4  and  C_40 
DOCKED: REMARK    3  A    between atoms: O_7  and  C_46 
DOCKED: REMARK    4  A    between atoms: O_9  and  C_48 
DOCKED: REMARK    5  A    between atoms: C_15  and  C_20 
DOCKED: REMARK    6  A    between atoms: C_16  and  C_23 
DOCKED: REMARK    7  A    between atoms: C_20  and  C_38 
DOCKED: REMARK    8  A    between atoms: C_23  and  C_40 
DOCKED: REMARK    9  A    between atoms: C_32  and  C_41 
DOCKED: REMARK   10  A    between atoms: C_37  and  C_45 
DOCKED: REMARK   11  A    between atoms: C_41  and  C_44 
DOCKED: REMARK   12  A    between atoms: C_44  and  C_46 
DOCKED: REMARK   13  A    between atoms: C_47  and  C_48 
DOCKED: USER                              x       y       z     vdW  Elec       q    Type
DOCKED: USER                           _______ _______ _______ _____ _____    ______ ____
DOCKED: ROOT
DOCKED: ATOM      1  O   UNL d   1      14.075  11.632   5.319 -0.05 -0.03    -0.289 OA
DOCKED: ATOM      2  O   UNL d   1      10.806   9.412  11.705 -0.07 -0.11    -0.289 OA
DOCKED: ATOM      3  N   UNL d   1      11.050   9.977   5.392 -0.10 -0.02    -0.247 NA
DOCKED: ATOM      4  N   UNL d   1      10.732   9.260   8.258 -0.10 -0.07    -0.247 NA
DOCKED: ATOM      5  N   UNL d   1       8.611   7.481   7.482 -0.14 -0.16    -0.354 N 
DOCKED: ATOM      6  N   UNL d   1       8.960   8.216   4.509 -0.15 -0.04    -0.354 N 
DOCKED: ATOM      7  C   UNL d   1      12.575  10.715   3.621 -0.25 -0.01    +0.084 A 
DOCKED: ATOM      8  C   UNL d   1      11.872  10.671   9.896 -0.09 +0.02    +0.084 A 
DOCKED: ATOM      9  C   UNL d   1      11.606  10.310   8.431 -0.11 +0.01    +0.058 A 
DOCKED: ATOM     10  C   UNL d   1      11.274  10.016   4.026 -0.26 -0.00    +0.058 A 
DOCKED: ATOM     11  C   UNL d   1      13.038  11.080   4.999 -0.08 +0.01    +0.193 A 
DOCKED: ATOM     12  C   UNL d   1      12.016  10.601   5.983 -0.10 +0.01    +0.109 A 
DOCKED: ATOM     13  C   UNL d   1      11.016   9.607  10.523 -0.09 +0.07    +0.193 A 
DOCKED: ATOM     14  C   UNL d   1      13.581   9.742   3.002 -0.37 +0.00    +0.026 C 
DOCKED: ATOM     15  C   UNL d   1      12.214  10.932   7.409 -0.10 +0.01    +0.055 C 
DOCKED: ATOM     16  C   UNL d   1      11.295  12.043  10.257 -0.20 +0.01    +0.026 C 
DOCKED: ATOM     17  C   UNL d   1      10.387   8.816   9.423 -0.14 +0.05    +0.109 A 
DOCKED: ATOM     18  C   UNL d   1      10.399   9.570   3.105 -0.34 -0.01    +0.050 C 
DOCKED: ATOM     19  C   UNL d   1       9.136   8.989   3.384 -0.42 +0.00    +0.045 A 
DOCKED: ATOM     20  C   UNL d   1       8.763   7.109   8.793 -0.08 +0.03    +0.045 A 
DOCKED: ATOM     21  C   UNL d   1       9.522   7.669   9.740 +0.00 +0.04    +0.057 C 
DOCKED: ATOM     22  C   UNL d   1       7.297   5.677   7.784 -0.36 -0.01    -0.019 A 
DOCKED: ATOM     23  C   UNL d   1       7.745   6.675   6.793 -0.33 +0.02    +0.045 A 
DOCKED: ATOM     24  C   UNL d   1       7.903   5.940   8.967 -0.22 -0.02    -0.022 A 
DOCKED: ATOM     25  C   UNL d   1       7.693   7.681   4.535 -0.32 +0.01    +0.049 A 
DOCKED: ATOM     26  C   UNL d   1       7.942   8.986   2.679 -0.49 -0.00    -0.018 A 
DOCKED: ATOM     27  C   UNL d   1       7.029   8.175   3.421 -0.44 +0.00    +0.003 A 
DOCKED: ATOM     28  C   UNL d   1       7.326   6.723   5.519 -0.24 +0.02    +0.052 C 
DOCKED: ATOM     29  C   UNL d   1       7.763   5.222  10.266 -0.04 +0.06    +0.046 C 
DOCKED: ATOM     30  C   UNL d   1       7.663   9.694   1.397 -0.25 +0.00    +0.046 C 
DOCKED: ATOM     31  H   UNL d   1       9.048   8.322   7.120 +0.06 +0.05    +0.166 HD
DOCKED: ATOM     32  H   UNL d   1       9.690   8.044   5.190 +0.07 +0.03    +0.166 HD
DOCKED: ENDROOT
DOCKED: BRANCH   7  33
DOCKED: ATOM     33  C   UNL d   1      12.405  11.972   2.760 +0.02 -0.03    +0.141 C 
DOCKED: BRANCH  33  34
DOCKED: ATOM     34  C   UNL d   1      13.685  12.392   2.089 -0.30 -0.03    +0.306 C 
DOCKED: ATOM     35  O   UNL d   1      14.032  12.106   0.956 -0.98 -0.02    -0.251 OA
DOCKED: BRANCH  34  36
DOCKED: ATOM     36  O   UNL d   1      14.461  13.152   2.882 -0.09 +0.03    -0.481 OA
DOCKED: ATOM     37  H   UNL d   1      14.471  12.681   3.743 +0.10 +0.00    +0.295 HD
DOCKED: ENDBRANCH  34  36
DOCKED: ENDBRANCH  33  34
DOCKED: ENDBRANCH   7  33
DOCKED: BRANCH  27  38
DOCKED: ATOM     38  C   UNL d   1       5.678   7.891   3.038 +0.02 +0.00    +0.017 C 
DOCKED: ATOM     39  C   UNL d   1       5.310   7.026   2.081 -0.43 +0.01    +0.092 C 
DOCKED: BRANCH  39  40
DOCKED: ATOM     40  C   UNL d   1       3.889   6.813   1.797 -0.25 +0.02    +0.330 C 
DOCKED: ATOM     41  O   UNL d   1       3.199   7.393   0.980 -0.34 -0.01    -0.246 OA
DOCKED: BRANCH  40  42
DOCKED: ATOM     42  O   UNL d   1       3.402   5.839   2.582 -0.14 -0.03    -0.477 OA
DOCKED: ATOM     43  H   UNL d   1       3.422   6.229   3.480 +0.18 +0.01    +0.295 HD
DOCKED: ENDBRANCH  40  42
DOCKED: ENDBRANCH  39  40
DOCKED: ENDBRANCH  27  38
DOCKED: BRANCH   8  44
DOCKED: ATOM     44  C   UNL d   1      13.329  10.544  10.354 -0.02 +0.03    +0.141 C 
DOCKED: BRANCH  44  45
DOCKED: ATOM     45  C   UNL d   1      13.845   9.131  10.309 +0.00 +0.08    +0.306 C 
DOCKED: ATOM     46  O   UNL d   1      14.364   8.576   9.356 +0.00 -0.06    -0.251 OA
DOCKED: BRANCH  45  47
DOCKED: ATOM     47  O   UNL d   1      13.653   8.475  11.468 +0.01 -0.14    -0.481 OA
DOCKED: ATOM     48  H   UNL d   1      12.917   8.955  11.905 +0.02 +0.09    +0.295 HD
DOCKED: ENDBRANCH  45  47
DOCKED: ENDBRANCH  44  45
DOCKED: ENDBRANCH   8  44
DOCKED: BRANCH  22  49
DOCKED: ATOM     49  C   UNL d   1       6.341   4.561   7.483 -0.41 +0.02    +0.048 C 
DOCKED: BRANCH  49  50
DOCKED: ATOM     50  C   UNL d   1       6.450   4.094   6.032 -0.41 +0.04    +0.125 C 
DOCKED: BRANCH  50  51
DOCKED: ATOM     51  C   UNL d   1       5.118   4.174   5.341 -0.19 +0.05    +0.305 C 
DOCKED: ATOM     52  O   UNL d   1       4.157   3.441   5.494 -0.29 -0.03    -0.251 OA
DOCKED: BRANCH  51  53
DOCKED: ATOM     53  O   UNL d   1       5.067   5.193   4.460 -0.34 -0.10    -0.481 OA
DOCKED: ATOM     54  H   UNL d   1       4.552   4.832   3.708 +0.18 +0.04    +0.295 HD
DOCKED: ENDBRANCH  51  53
DOCKED: ENDBRANCH  50  51
DOCKED: ENDBRANCH  49  50
DOCKED: ENDBRANCH  22  49
DOCKED: TORSDOF 13
DOCKED: TER
DOCKED: ENDMDL
________________________________________________________________________________


	BEGINNING GENETIC ALGORITHM DOCKING 94 of 100
Run: 94 Seed: 495351567 577108 [ Run 94 of 100 GA/GALS ]
Beginning LAMARCKIAN GENETIC ALGORITHM (LGA), with a maximum of 25000000 energy evaluations.

Final-Value: -13.131


	FINAL GENETIC ALGORITHM DOCKED STATE
	_______________________________________________


Detailed state:  trans 3.532 -15.343 -9.043 quatxyzw -0.765640 0.027451 -0.372868 0.523461 center 0.153 0.018 -0.028 ntor 13 -138.3725 106.8830 120.9368 76.1468 33.6604 121.2916 -44.4219 -117.0326 108.8447 -135.6772 33.3811 69.6395 142.2924
State:	  3.532 -15.343  -9.043  -0.899  0.032 -0.438 116.871   -138.37  106.88  120.94   76.15   33.66  121.29  -44.42 -117.03  108.84 -135.68   33.38   69.64  142.29

DOCKED: MODEL       94
DOCKED: USER    Run = 94
DOCKED: USER    DPF = D:/Protein_go_brrr/autodock/final/mut_Y35F/heme/dock.dpf
DOCKED: USER  
DOCKED: USER    Estimated Free Energy of Binding    =   -7.13 kcal/mol  [=(1)+(2)+(3)-(4)]
DOCKED: USER    Estimated Inhibition Constant, Ki   =    5.93 uM (micromolar)  [Temperature = 298.15 K]
DOCKED: USER    
DOCKED: USER    (1) Final Intermolecular Energy     =  -11.01 kcal/mol
DOCKED: USER        vdW + Hbond + desolv Energy     =  -10.31 kcal/mol
DOCKED: USER        Electrostatic Energy            =   -0.70 kcal/mol
DOCKED: USER    (2) Final Total Internal Energy     =   -2.12 kcal/mol
DOCKED: USER    (3) Torsional Free Energy           =   +3.88 kcal/mol
DOCKED: USER    (4) Unbound System's Energy  [=(2)] =   -2.12 kcal/mol
DOCKED: USER    
DOCKED: USER    
DOCKED: USER    NEWDPF move heme_opt.pdbqt
DOCKED: USER    NEWDPF about 0.153000 0.018000 -0.028000
DOCKED: USER    NEWDPF tran0 3.531521 -15.342940 -9.043155
DOCKED: USER    NEWDPF quaternion0 -0.765640 0.027451 -0.372868 0.523461
DOCKED: USER    NEWDPF axisangle0 -0.898586 0.032217 -0.437613 116.870580
DOCKED: USER    NEWDPF quat0 -0.898586 0.032217 -0.437613 116.870580
DOCKED: USER    NEWDPF dihe0 -138.37 106.88 120.94 76.15 33.66 121.29 -44.42 -117.03 108.84 -135.68 33.38 69.64 142.29 
DOCKED: USER  keepresnum = 1 
DOCKED: USER  
DOCKED: REMARK  13 active torsions:
DOCKED: REMARK  status: ('A' for Active; 'I' for Inactive)
DOCKED: REMARK    1  A    between atoms: O_3  and  C_38 
DOCKED: REMARK    2  A    between atoms: O_4  and  C_40 
DOCKED: REMARK    3  A    between atoms: O_7  and  C_46 
DOCKED: REMARK    4  A    between atoms: O_9  and  C_48 
DOCKED: REMARK    5  A    between atoms: C_15  and  C_20 
DOCKED: REMARK    6  A    between atoms: C_16  and  C_23 
DOCKED: REMARK    7  A    between atoms: C_20  and  C_38 
DOCKED: REMARK    8  A    between atoms: C_23  and  C_40 
DOCKED: REMARK    9  A    between atoms: C_32  and  C_41 
DOCKED: REMARK   10  A    between atoms: C_37  and  C_45 
DOCKED: REMARK   11  A    between atoms: C_41  and  C_44 
DOCKED: REMARK   12  A    between atoms: C_44  and  C_46 
DOCKED: REMARK   13  A    between atoms: C_47  and  C_48 
DOCKED: USER                              x       y       z     vdW  Elec       q    Type
DOCKED: USER                           _______ _______ _______ _____ _____    ______ ____
DOCKED: ROOT
DOCKED: ATOM      1  O   UNL d   1      -0.890 -18.591 -11.202 -0.27 -0.03    -0.289 OA
DOCKED: ATOM      2  O   UNL d   1       2.857 -12.787 -14.147 -0.14 +0.04    -0.289 OA
DOCKED: ATOM      3  N   UNL d   1       1.572 -16.891  -9.485 -0.09 +0.11    -0.247 NA
DOCKED: ATOM      4  N   UNL d   1       2.653 -15.015 -11.520 -0.14 +0.10    -0.247 NA
DOCKED: ATOM      5  N   UNL d   1       4.878 -14.538  -9.763 -0.14 +0.14    -0.354 N 
DOCKED: ATOM      6  N   UNL d   1       3.760 -16.501  -7.666 +0.14 +0.18    -0.354 N 
DOCKED: ATOM      7  C   UNL d   1       0.236 -18.901  -9.054 -0.19 -0.03    +0.084 A 
DOCKED: ATOM      8  C   UNL d   1       1.156 -14.348 -13.332 -0.18 -0.01    +0.084 A 
DOCKED: ATOM      9  C   UNL d   1       1.419 -15.216 -12.097 -0.22 -0.01    +0.058 A 
DOCKED: ATOM     10  C   UNL d   1       1.323 -17.924  -8.596 -0.21 -0.02    +0.058 A 
DOCKED: ATOM     11  C   UNL d   1      -0.098 -18.228 -10.351 -0.18 -0.02    +0.193 A 
DOCKED: ATOM     12  C   UNL d   1       0.761 -17.008 -10.485 -0.25 -0.02    +0.109 A 
DOCKED: ATOM     13  C   UNL d   1       2.484 -13.645 -13.371 -0.15 -0.05    +0.193 A 
DOCKED: ATOM     14  C   UNL d   1       0.802 -20.292  -9.350 -0.07 -0.00    +0.026 C 
DOCKED: ATOM     15  C   UNL d   1       0.541 -16.128 -11.650 -0.24 -0.01    +0.055 C 
DOCKED: ATOM     16  C   UNL d   1       0.058 -13.312 -13.075 -0.32 -0.00    +0.026 C 
DOCKED: ATOM     17  C   UNL d   1       3.301 -14.144 -12.224 -0.05 -0.04    +0.109 A 
DOCKED: ATOM     18  C   UNL d   1       1.903 -18.034  -7.386 -0.23 -0.02    +0.050 C 
DOCKED: ATOM     19  C   UNL d   1       2.853 -17.132  -6.844 +0.03 -0.02    +0.045 A 
DOCKED: ATOM     20  C   UNL d   1       5.328 -13.903 -10.891 -0.24 -0.02    +0.045 A 
DOCKED: ATOM     21  C   UNL d   1       4.677 -13.661 -12.033 -0.22 -0.02    +0.057 C 
DOCKED: ATOM     22  C   UNL d   1       7.009 -13.938  -9.344 -0.16 +0.01    -0.019 A 
DOCKED: ATOM     23  C   UNL d   1       5.823 -14.609  -8.774 -0.22 -0.02    +0.045 A 
DOCKED: ATOM     24  C   UNL d   1       6.709 -13.522 -10.597 -0.17 +0.01    -0.022 A 
DOCKED: ATOM     25  C   UNL d   1       4.640 -15.746  -6.925 -0.20 -0.02    +0.049 A 
DOCKED: ATOM     26  C   UNL d   1       3.127 -16.748  -5.540 -0.26 +0.01    -0.018 A 
DOCKED: ATOM     27  C   UNL d   1       4.244 -15.858  -5.599 -0.29 -0.00    +0.003 A 
DOCKED: ATOM     28  C   UNL d   1       5.763 -15.126  -7.537 -0.24 -0.02    +0.052 C 
DOCKED: ATOM     29  C   UNL d   1       7.571 -12.788 -11.567 -0.12 -0.01    +0.046 C 
DOCKED: ATOM     30  C   UNL d   1       2.398 -17.179  -4.313 -0.23 -0.01    +0.046 C 
DOCKED: ATOM     31  H   UNL d   1       3.913 -14.839  -9.678 -0.04 -0.08    +0.166 HD
DOCKED: ATOM     32  H   UNL d   1       3.784 -16.623  -8.671 -0.07 -0.07    +0.166 HD
DOCKED: ENDROOT
DOCKED: BRANCH   7  33
DOCKED: ATOM     33  C   UNL d   1      -1.001 -18.977  -8.154 -0.20 -0.10    +0.141 C 
DOCKED: BRANCH  33  34
DOCKED: ATOM     34  C   UNL d   1      -2.220 -19.472  -8.884 -0.23 -0.10    +0.306 C 
DOCKED: ATOM     35  O   UNL d   1      -2.552 -20.637  -9.025 -0.17 +0.05    -0.251 OA
DOCKED: BRANCH  34  36
DOCKED: ATOM     36  O   UNL d   1      -2.958 -18.472  -9.398 -0.49 -0.00    -0.481 OA
DOCKED: ATOM     37  H   UNL d   1      -2.300 -17.825  -9.729 -0.23 -0.03    +0.295 HD
DOCKED: ENDBRANCH  34  36
DOCKED: ENDBRANCH  33  34
DOCKED: ENDBRANCH   7  33
DOCKED: BRANCH  27  38
DOCKED: ATOM     38  C   UNL d   1       4.865 -15.238  -4.469 -0.34 -0.01    +0.017 C 
DOCKED: ATOM     39  C   UNL d   1       4.345 -14.225  -3.758 -0.46 -0.02    +0.092 C 
DOCKED: BRANCH  39  40
DOCKED: ATOM     40  C   UNL d   1       5.077 -13.689  -2.607 -0.30 -0.07    +0.330 C 
DOCKED: ATOM     41  O   UNL d   1       5.490 -12.556  -2.451 -0.87 +0.05    -0.246 OA
DOCKED: BRANCH  40  42
DOCKED: ATOM     42  O   UNL d   1       5.246 -14.645  -1.681 -0.44 +0.11    -0.477 OA
DOCKED: ATOM     43  H   UNL d   1       4.355 -14.753  -1.290 -0.40 -0.16    +0.295 HD
DOCKED: ENDBRANCH  40  42
DOCKED: ENDBRANCH  39  40
DOCKED: ENDBRANCH  27  38
DOCKED: BRANCH   8  44
DOCKED: ATOM     44  C   UNL d   1       0.902 -15.113 -14.635 -0.06 -0.00    +0.141 C 
DOCKED: BRANCH  44  45
DOCKED: ATOM     45  C   UNL d   1       0.525 -14.219 -15.786 -0.01 +0.00    +0.306 C 
DOCKED: ATOM     46  O   UNL d   1      -0.600 -13.859 -16.088 -0.02 -0.01    -0.251 OA
DOCKED: BRANCH  45  47
DOCKED: ATOM     47  O   UNL d   1       1.590 -13.844 -16.517 +0.01 +0.00    -0.481 OA
DOCKED: ATOM     48  H   UNL d   1       2.169 -13.367 -15.885 +0.04 -0.01    +0.295 HD
DOCKED: ENDBRANCH  45  47
DOCKED: ENDBRANCH  44  45
DOCKED: ENDBRANCH   8  44
DOCKED: BRANCH  22  49
DOCKED: ATOM     49  C   UNL d   1       8.316 -13.782  -8.624 -0.14 -0.03    +0.048 C 
DOCKED: BRANCH  49  50
DOCKED: ATOM     50  C   UNL d   1       8.911 -15.133  -8.226 -0.05 -0.07    +0.125 C 
DOCKED: BRANCH  50  51
DOCKED: ATOM     51  C   UNL d   1       9.644 -15.031  -6.918 -0.05 -0.28    +0.305 C 
DOCKED: ATOM     52  O   UNL d   1      10.808 -15.313  -6.695 -0.06 +0.18    -0.251 OA
DOCKED: BRANCH  51  53
DOCKED: ATOM     53  O   UNL d   1       8.849 -14.580  -5.928 -0.04 +0.71    -0.481 OA
DOCKED: ATOM     54  H   UNL d   1       9.128 -13.649  -5.804 -0.42 -0.94    +0.295 HD
DOCKED: ENDBRANCH  51  53
DOCKED: ENDBRANCH  50  51
DOCKED: ENDBRANCH  49  50
DOCKED: ENDBRANCH  22  49
DOCKED: TORSDOF 13
DOCKED: TER
DOCKED: ENDMDL
________________________________________________________________________________


	BEGINNING GENETIC ALGORITHM DOCKING 95 of 100
Run: 95 Seed: 701824089 380302433 [ Run 95 of 100 GA/GALS ]
Beginning LAMARCKIAN GENETIC ALGORITHM (LGA), with a maximum of 25000000 energy evaluations.

Final-Value: -10.065


	FINAL GENETIC ALGORITHM DOCKED STATE
	_______________________________________________


Detailed state:  trans 10.962 -10.822 7.134 quatxyzw 0.670552 -0.646883 -0.217850 0.290591 center 0.153 0.018 -0.028 ntor 13 -178.2720 -178.2035 174.7071 -60.5054 -155.7952 42.3645 149.7904 -153.2825 8.6249 -5.0724 55.1293 -95.0304 164.4521
State:	 10.962 -10.822   7.134   0.701 -0.676 -0.228 146.213   -178.27 -178.20  174.71  -60.51 -155.80   42.36  149.79 -153.28    8.62   -5.07   55.13  -95.03  164.45

DOCKED: MODEL       95
DOCKED: USER    Run = 95
DOCKED: USER    DPF = D:/Protein_go_brrr/autodock/final/mut_Y35F/heme/dock.dpf
DOCKED: USER  
DOCKED: USER    Estimated Free Energy of Binding    =   -3.21 kcal/mol  [=(1)+(2)+(3)-(4)]
DOCKED: USER    Estimated Inhibition Constant, Ki   =    4.45 mM (millimolar)  [Temperature = 298.15 K]
DOCKED: USER    
DOCKED: USER    (1) Final Intermolecular Energy     =   -7.09 kcal/mol
DOCKED: USER        vdW + Hbond + desolv Energy     =   -6.86 kcal/mol
DOCKED: USER        Electrostatic Energy            =   -0.23 kcal/mol
DOCKED: USER    (2) Final Total Internal Energy     =   -2.98 kcal/mol
DOCKED: USER    (3) Torsional Free Energy           =   +3.88 kcal/mol
DOCKED: USER    (4) Unbound System's Energy  [=(2)] =   -2.98 kcal/mol
DOCKED: USER    
DOCKED: USER    
DOCKED: USER    NEWDPF move heme_opt.pdbqt
DOCKED: USER    NEWDPF about 0.153000 0.018000 -0.028000
DOCKED: USER    NEWDPF tran0 10.961546 -10.822003 7.134345
DOCKED: USER    NEWDPF quaternion0 0.670552 -0.646883 -0.217850 0.290591
DOCKED: USER    NEWDPF axisangle0 0.700793 -0.676057 -0.227675 146.213299
DOCKED: USER    NEWDPF quat0 0.700793 -0.676057 -0.227675 146.213299
DOCKED: USER    NEWDPF dihe0 -178.27 -178.20 174.71 -60.51 -155.80 42.36 149.79 -153.28 8.62 -5.07 55.13 -95.03 164.45 
DOCKED: USER  keepresnum = 1 
DOCKED: USER  
DOCKED: REMARK  13 active torsions:
DOCKED: REMARK  status: ('A' for Active; 'I' for Inactive)
DOCKED: REMARK    1  A    between atoms: O_3  and  C_38 
DOCKED: REMARK    2  A    between atoms: O_4  and  C_40 
DOCKED: REMARK    3  A    between atoms: O_7  and  C_46 
DOCKED: REMARK    4  A    between atoms: O_9  and  C_48 
DOCKED: REMARK    5  A    between atoms: C_15  and  C_20 
DOCKED: REMARK    6  A    between atoms: C_16  and  C_23 
DOCKED: REMARK    7  A    between atoms: C_20  and  C_38 
DOCKED: REMARK    8  A    between atoms: C_23  and  C_40 
DOCKED: REMARK    9  A    between atoms: C_32  and  C_41 
DOCKED: REMARK   10  A    between atoms: C_37  and  C_45 
DOCKED: REMARK   11  A    between atoms: C_41  and  C_44 
DOCKED: REMARK   12  A    between atoms: C_44  and  C_46 
DOCKED: REMARK   13  A    between atoms: C_47  and  C_48 
DOCKED: USER                              x       y       z     vdW  Elec       q    Type
DOCKED: USER                           _______ _______ _______ _____ _____    ______ ____
DOCKED: ROOT
DOCKED: ATOM      1  O   UNL d   1       8.954  -6.220  10.224 -0.04 -0.01    -0.289 OA
DOCKED: ATOM      2  O   UNL d   1      15.466  -9.942  10.595 +0.00 -0.04    -0.289 OA
DOCKED: ATOM      3  N   UNL d   1       9.642  -8.980   8.274 -0.10 -0.02    -0.247 NA
DOCKED: ATOM      4  N   UNL d   1      12.491  -9.559   8.889 -0.55 -0.24    -0.247 NA
DOCKED: ATOM      5  N   UNL d   1      12.532 -11.307   6.607 -0.09 +0.00    -0.354 N 
DOCKED: ATOM      6  N   UNL d   1       9.581 -10.687   5.965 -0.07 +0.24    -0.354 N 
DOCKED: ATOM      7  C   UNL d   1       7.809  -7.357   8.388 -0.20 -0.00    +0.084 A 
DOCKED: ATOM      8  C   UNL d   1      13.334  -8.834  11.065 -0.02 +0.02    +0.084 A 
DOCKED: ATOM      9  C   UNL d   1      12.196  -8.862  10.039 -0.06 +0.02    +0.058 A 
DOCKED: ATOM     10  C   UNL d   1       8.428  -8.593   7.730 -0.22 -0.01    +0.058 A 
DOCKED: ATOM     11  C   UNL d   1       8.878  -7.124   9.413 -0.07 +0.01    +0.193 A 
DOCKED: ATOM     12  C   UNL d   1       9.920  -8.189   9.259 -0.08 +0.02    +0.109 A 
DOCKED: ATOM     13  C   UNL d   1      14.342  -9.612  10.267 -0.02 +0.05    +0.193 A 
DOCKED: ATOM     14  C   UNL d   1       7.767  -6.159   7.436 -0.41 -0.00    +0.026 C 
DOCKED: ATOM     15  C   UNL d   1      11.033  -8.218  10.228 -0.07 +0.01    +0.055 C 
DOCKED: ATOM     16  C   UNL d   1      12.982  -9.631  12.325 +0.00 +0.00    +0.026 C 
DOCKED: ATOM     17  C   UNL d   1      13.710  -9.986   8.966 -0.03 +0.07    +0.109 A 
DOCKED: ATOM     18  C   UNL d   1       7.780  -9.277   6.768 -0.21 -0.01    +0.050 C 
DOCKED: ATOM     19  C   UNL d   1       8.235 -10.476   6.162 -0.27 -0.02    +0.045 A 
DOCKED: ATOM     20  C   UNL d   1      13.870 -11.273   6.902 -0.09 +0.01    +0.045 A 
DOCKED: ATOM     21  C   UNL d   1      14.482 -10.722   7.955 -0.07 +0.02    +0.057 C 
DOCKED: ATOM     22  C   UNL d   1      13.576 -12.395   4.934 -0.08 +0.01    -0.019 A 
DOCKED: ATOM     23  C   UNL d   1      12.257 -11.963   5.437 -0.06 -0.02    +0.045 A 
DOCKED: ATOM     24  C   UNL d   1      14.527 -11.985   5.806 -0.07 +0.00    -0.022 A 
DOCKED: ATOM     25  C   UNL d   1       9.791 -11.864   5.285 -0.24 -0.02    +0.049 A 
DOCKED: ATOM     26  C   UNL d   1       7.556 -11.560   5.629 -0.28 +0.00    -0.018 A 
DOCKED: ATOM     27  C   UNL d   1       8.544 -12.443   5.094 -0.28 -0.00    +0.003 A 
DOCKED: ATOM     28  C   UNL d   1      11.089 -12.220   4.827 -0.21 -0.03    +0.052 C 
DOCKED: ATOM     29  C   UNL d   1      16.002 -12.190   5.742 -0.02 -0.00    +0.046 C 
DOCKED: ATOM     30  C   UNL d   1       6.079 -11.767   5.619 -0.20 -0.01    +0.046 C 
DOCKED: ATOM     31  H   UNL d   1      11.841 -10.944   7.255 +0.01 +0.04    +0.166 HD
DOCKED: ATOM     32  H   UNL d   1      10.299 -10.032   6.252 -0.33 -0.14    +0.166 HD
DOCKED: ENDROOT
DOCKED: BRANCH   7  33
DOCKED: ATOM     33  C   UNL d   1       6.454  -7.583   9.066 -0.17 -0.02    +0.141 C 
DOCKED: BRANCH  33  34
DOCKED: ATOM     34  C   UNL d   1       6.501  -8.668  10.108 -0.01 -0.04    +0.306 C 
DOCKED: ATOM     35  O   UNL d   1       6.105  -9.814   9.973 -0.02 +0.03    -0.251 OA
DOCKED: BRANCH  34  36
DOCKED: ATOM     36  O   UNL d   1       7.048  -8.254  11.264 +0.02 +0.06    -0.481 OA
DOCKED: ATOM     37  H   UNL d   1       7.290  -7.317  11.101 +0.06 -0.04    +0.295 HD
DOCKED: ENDBRANCH  34  36
DOCKED: ENDBRANCH  33  34
DOCKED: ENDBRANCH   7  33
DOCKED: BRANCH  27  38
DOCKED: ATOM     38  C   UNL d   1       8.271 -13.683   4.434 -0.26 -0.00    +0.017 C 
DOCKED: ATOM     39  C   UNL d   1       8.642 -13.992   3.182 -0.21 -0.02    +0.092 C 
DOCKED: BRANCH  39  40
DOCKED: ATOM     40  C   UNL d   1       8.315 -15.308   2.627 -0.11 -0.05    +0.330 C 
DOCKED: ATOM     41  O   UNL d   1       7.282 -15.935   2.760 -0.13 +0.04    -0.246 OA
DOCKED: BRANCH  40  42
DOCKED: ATOM     42  O   UNL d   1       9.344 -15.772   1.902 -0.06 +0.07    -0.477 OA
DOCKED: ATOM     43  H   UNL d   1      10.028 -15.077   1.993 +0.07 -0.06    +0.295 HD
DOCKED: ENDBRANCH  40  42
DOCKED: ENDBRANCH  39  40
DOCKED: ENDBRANCH  27  38
DOCKED: BRANCH   8  44
DOCKED: ATOM     44  C   UNL d   1      13.870  -7.443  11.419 -0.01 +0.03    +0.141 C 
DOCKED: BRANCH  44  45
DOCKED: ATOM     45  C   UNL d   1      14.309  -6.651  10.217 -0.03 +0.10    +0.306 C 
DOCKED: ATOM     46  O   UNL d   1      13.720  -5.712   9.711 -0.06 -0.09    -0.251 OA
DOCKED: BRANCH  45  47
DOCKED: ATOM     47  O   UNL d   1      15.462  -7.105   9.694 -0.01 -0.16    -0.481 OA
DOCKED: ATOM     48  H   UNL d   1      15.764  -7.795  10.322 +0.02 +0.07    +0.295 HD
DOCKED: ENDBRANCH  45  47
DOCKED: ENDBRANCH  44  45
DOCKED: ENDBRANCH   8  44
DOCKED: BRANCH  22  49
DOCKED: ATOM     49  C   UNL d   1      13.784 -13.148   3.652 -0.07 -0.01    +0.048 C 
DOCKED: BRANCH  49  50
DOCKED: ATOM     50  C   UNL d   1      13.776 -12.219   2.439 -0.12 -0.04    +0.125 C 
DOCKED: BRANCH  50  51
DOCKED: ATOM     51  C   UNL d   1      12.743 -12.652   1.438 -0.09 -0.07    +0.305 C 
DOCKED: ATOM     52  O   UNL d   1      12.694 -12.374   0.253 -0.73 +0.03    -0.251 OA
DOCKED: BRANCH  51  53
DOCKED: ATOM     53  O   UNL d   1      11.791 -13.424   1.998 -0.23 +0.12    -0.481 OA
DOCKED: ATOM     54  H   UNL d   1      10.962 -12.919   1.859 -0.27 -0.14    +0.295 HD
DOCKED: ENDBRANCH  51  53
DOCKED: ENDBRANCH  50  51
DOCKED: ENDBRANCH  49  50
DOCKED: ENDBRANCH  22  49
DOCKED: TORSDOF 13
DOCKED: TER
DOCKED: ENDMDL
________________________________________________________________________________


	BEGINNING GENETIC ALGORITHM DOCKING 96 of 100
Run: 96 Seed: 509290249 1988229402 [ Run 96 of 100 GA/GALS ]
Beginning LAMARCKIAN GENETIC ALGORITHM (LGA), with a maximum of 25000000 energy evaluations.

Final-Value: -13.590


	FINAL GENETIC ALGORITHM DOCKED STATE
	_______________________________________________


Detailed state:  trans 3.424 -15.628 -8.849 quatxyzw -0.748710 0.004121 -0.465429 0.472009 center 0.153 0.018 -0.028 ntor 13 100.0700 87.9044 103.9162 -95.3526 48.2201 -172.4132 -46.8624 69.6776 5.7993 -127.8394 66.6577 23.4446 159.9493
State:	  3.424 -15.628  -8.849  -0.849  0.005 -0.528 123.670    100.07   87.90  103.92  -95.35   48.22 -172.41  -46.86   69.68    5.80 -127.84   66.66   23.44  159.95

DOCKED: MODEL       96
DOCKED: USER    Run = 96
DOCKED: USER    DPF = D:/Protein_go_brrr/autodock/final/mut_Y35F/heme/dock.dpf
DOCKED: USER  
DOCKED: USER    Estimated Free Energy of Binding    =   -7.74 kcal/mol  [=(1)+(2)+(3)-(4)]
DOCKED: USER    Estimated Inhibition Constant, Ki   =    2.10 uM (micromolar)  [Temperature = 298.15 K]
DOCKED: USER    
DOCKED: USER    (1) Final Intermolecular Energy     =  -11.62 kcal/mol
DOCKED: USER        vdW + Hbond + desolv Energy     =  -10.60 kcal/mol
DOCKED: USER        Electrostatic Energy            =   -1.03 kcal/mol
DOCKED: USER    (2) Final Total Internal Energy     =   -1.97 kcal/mol
DOCKED: USER    (3) Torsional Free Energy           =   +3.88 kcal/mol
DOCKED: USER    (4) Unbound System's Energy  [=(2)] =   -1.97 kcal/mol
DOCKED: USER    
DOCKED: USER    
DOCKED: USER    NEWDPF move heme_opt.pdbqt
DOCKED: USER    NEWDPF about 0.153000 0.018000 -0.028000
DOCKED: USER    NEWDPF tran0 3.423954 -15.628045 -8.849285
DOCKED: USER    NEWDPF quaternion0 -0.748710 0.004121 -0.465429 0.472009
DOCKED: USER    NEWDPF axisangle0 -0.849269 0.004674 -0.527940 123.670437
DOCKED: USER    NEWDPF quat0 -0.849269 0.004674 -0.527940 123.670437
DOCKED: USER    NEWDPF dihe0 100.07 87.90 103.92 -95.35 48.22 -172.41 -46.86 69.68 5.80 -127.84 66.66 23.44 159.95 
DOCKED: USER  keepresnum = 1 
DOCKED: USER  
DOCKED: REMARK  13 active torsions:
DOCKED: REMARK  status: ('A' for Active; 'I' for Inactive)
DOCKED: REMARK    1  A    between atoms: O_3  and  C_38 
DOCKED: REMARK    2  A    between atoms: O_4  and  C_40 
DOCKED: REMARK    3  A    between atoms: O_7  and  C_46 
DOCKED: REMARK    4  A    between atoms: O_9  and  C_48 
DOCKED: REMARK    5  A    between atoms: C_15  and  C_20 
DOCKED: REMARK    6  A    between atoms: C_16  and  C_23 
DOCKED: REMARK    7  A    between atoms: C_20  and  C_38 
DOCKED: REMARK    8  A    between atoms: C_23  and  C_40 
DOCKED: REMARK    9  A    between atoms: C_32  and  C_41 
DOCKED: REMARK   10  A    between atoms: C_37  and  C_45 
DOCKED: REMARK   11  A    between atoms: C_41  and  C_44 
DOCKED: REMARK   12  A    between atoms: C_44  and  C_46 
DOCKED: REMARK   13  A    between atoms: C_47  and  C_48 
DOCKED: USER                              x       y       z     vdW  Elec       q    Type
DOCKED: USER                           _______ _______ _______ _____ _____    ______ ____
DOCKED: ROOT
DOCKED: ATOM      1  O   UNL d   1      -0.059 -19.456 -11.673 -0.04 -0.02    -0.289 OA
DOCKED: ATOM      2  O   UNL d   1       2.983 -12.970 -13.927 -0.14 +0.05    -0.289 OA
DOCKED: ATOM      3  N   UNL d   1       1.832 -17.457  -9.594 -0.12 +0.08    -0.247 NA
DOCKED: ATOM      4  N   UNL d   1       2.828 -15.329 -11.412 -0.15 +0.08    -0.247 NA
DOCKED: ATOM      5  N   UNL d   1       4.694 -14.576  -9.358 -0.16 +0.14    -0.354 N 
DOCKED: ATOM      6  N   UNL d   1       3.668 -16.799  -7.485 +0.03 +0.17    -0.354 N 
DOCKED: ATOM      7  C   UNL d   1       0.817 -19.680  -9.402 -0.07 -0.02    +0.084 A 
DOCKED: ATOM      8  C   UNL d   1       1.485 -14.831 -13.392 -0.14 -0.01    +0.084 A 
DOCKED: ATOM      9  C   UNL d   1       1.732 -15.703 -12.156 -0.19 -0.01    +0.058 A 
DOCKED: ATOM     10  C   UNL d   1       1.652 -18.559  -8.775 -0.13 -0.02    +0.058 A 
DOCKED: ATOM     11  C   UNL d   1       0.543 -19.008 -10.714 -0.06 -0.02    +0.193 A 
DOCKED: ATOM     12  C   UNL d   1       1.189 -17.658 -10.697 -0.16 -0.02    +0.109 A 
DOCKED: ATOM     13  C   UNL d   1       2.666 -13.916 -13.231 -0.13 -0.05    +0.193 A 
DOCKED: ATOM     14  C   UNL d   1       1.647 -20.941  -9.656 -0.02 -0.00    +0.026 C 
DOCKED: ATOM     15  C   UNL d   1       0.973 -16.769 -11.857 -0.21 -0.00    +0.055 C 
DOCKED: ATOM     16  C   UNL d   1       0.201 -14.006 -13.257 -0.28 -0.00    +0.026 C 
DOCKED: ATOM     17  C   UNL d   1       3.403 -14.328 -11.999 -0.09 -0.04    +0.109 A 
DOCKED: ATOM     18  C   UNL d   1       2.082 -18.632  -7.501 -0.16 -0.02    +0.050 C 
DOCKED: ATOM     19  C   UNL d   1       2.785 -17.612  -6.811 -0.17 -0.02    +0.045 A 
DOCKED: ATOM     20  C   UNL d   1       5.170 -13.819 -10.397 -0.30 -0.02    +0.045 A 
DOCKED: ATOM     21  C   UNL d   1       4.638 -13.632 -11.610 -0.27 -0.02    +0.057 C 
DOCKED: ATOM     22  C   UNL d   1       6.618 -13.651  -8.639 -0.24 +0.01    -0.019 A 
DOCKED: ATOM     23  C   UNL d   1       5.501 -14.537  -8.253 -0.26 -0.02    +0.045 A 
DOCKED: ATOM     24  C   UNL d   1       6.415 -13.228  -9.909 -0.26 +0.01    -0.022 A 
DOCKED: ATOM     25  C   UNL d   1       4.303 -15.946  -6.613 -0.16 -0.02    +0.049 A 
DOCKED: ATOM     26  C   UNL d   1       2.820 -17.253  -5.473 -0.25 +0.01    -0.018 A 
DOCKED: ATOM     27  C   UNL d   1       3.765 -16.188  -5.356 -0.29 -0.00    +0.003 A 
DOCKED: ATOM     28  C   UNL d   1       5.372 -15.118  -7.050 -0.26 -0.02    +0.052 C 
DOCKED: ATOM     29  C   UNL d   1       7.256 -12.314 -10.733 -0.13 -0.02    +0.046 C 
DOCKED: ATOM     30  C   UNL d   1       2.023 -17.860  -4.368 -0.27 -0.02    +0.046 C 
DOCKED: ATOM     31  H   UNL d   1       3.792 -15.036  -9.413 -0.15 -0.08    +0.166 HD
DOCKED: ATOM     32  H   UNL d   1       3.842 -16.865  -8.481 -0.04 -0.07    +0.166 HD
DOCKED: ENDROOT
DOCKED: BRANCH   7  33
DOCKED: ATOM     33  C   UNL d   1      -0.494 -20.006  -8.680 -0.15 -0.06    +0.141 C 
DOCKED: BRANCH  33  34
DOCKED: ATOM     34  C   UNL d   1      -1.361 -18.793  -8.477 -0.18 -0.18    +0.306 C 
DOCKED: ATOM     35  O   UNL d   1      -2.347 -18.494  -9.130 -0.64 +0.06    -0.251 OA
DOCKED: BRANCH  34  36
DOCKED: ATOM     36  O   UNL d   1      -0.941 -18.019  -7.460 -0.14 +0.48    -0.481 OA
DOCKED: ATOM     37  H   UNL d   1      -1.313 -18.444  -6.658 -0.28 -0.70    +0.295 HD
DOCKED: ENDBRANCH  34  36
DOCKED: ENDBRANCH  33  34
DOCKED: ENDBRANCH   7  33
DOCKED: BRANCH  27  38
DOCKED: ATOM     38  C   UNL d   1       4.120 -15.529  -4.135 -0.39 -0.00    +0.017 C 
DOCKED: ATOM     39  C   UNL d   1       3.963 -14.220  -3.888 -0.47 -0.02    +0.092 C 
DOCKED: BRANCH  39  40
DOCKED: ATOM     40  C   UNL d   1       4.352 -13.671  -2.586 -0.35 -0.06    +0.330 C 
DOCKED: ATOM     41  O   UNL d   1       4.188 -12.537  -2.178 -1.00 +0.01    -0.246 OA
DOCKED: BRANCH  40  42
DOCKED: ATOM     42  O   UNL d   1       4.938 -14.621  -1.841 -0.47 +0.13    -0.477 OA
DOCKED: ATOM     43  H   UNL d   1       4.199 -15.007  -1.328 -0.40 -0.20    +0.295 HD
DOCKED: ENDBRANCH  40  42
DOCKED: ENDBRANCH  39  40
DOCKED: ENDBRANCH  27  38
DOCKED: BRANCH   8  44
DOCKED: ATOM     44  C   UNL d   1       1.536 -15.562 -14.737 -0.04 -0.00    +0.141 C 
DOCKED: BRANCH  44  45
DOCKED: ATOM     45  C   UNL d   1       1.346 -14.648 -15.918 -0.00 -0.00    +0.306 C 
DOCKED: ATOM     46  O   UNL d   1       0.290 -14.365 -16.456 -0.01 -0.01    -0.251 OA
DOCKED: BRANCH  45  47
DOCKED: ATOM     47  O   UNL d   1       2.510 -14.156 -16.380 +0.01 +0.01    -0.481 OA
DOCKED: ATOM     48  H   UNL d   1       2.752 -13.451 -15.741 +0.04 -0.01    +0.295 HD
DOCKED: ENDBRANCH  45  47
DOCKED: ENDBRANCH  44  45
DOCKED: ENDBRANCH   8  44
DOCKED: BRANCH  22  49
DOCKED: ATOM     49  C   UNL d   1       7.775 -13.315  -7.744 -0.15 -0.05    +0.048 C 
DOCKED: BRANCH  49  50
DOCKED: ATOM     50  C   UNL d   1       8.777 -14.466  -7.655 -0.11 -0.11    +0.125 C 
DOCKED: BRANCH  50  51
DOCKED: ATOM     51  C   UNL d   1       8.789 -15.061  -6.276 -0.07 -0.31    +0.305 C 
DOCKED: ATOM     52  O   UNL d   1       7.876 -15.629  -5.704 -0.09 +0.18    -0.251 OA
DOCKED: BRANCH  51  53
DOCKED: ATOM     53  O   UNL d   1       9.980 -14.895  -5.665 -0.06 +0.64    -0.481 OA
DOCKED: ATOM     54  H   UNL d   1       9.925 -13.997  -5.277 -0.44 -0.82    +0.295 HD
DOCKED: ENDBRANCH  51  53
DOCKED: ENDBRANCH  50  51
DOCKED: ENDBRANCH  49  50
DOCKED: ENDBRANCH  22  49
DOCKED: TORSDOF 13
DOCKED: TER
DOCKED: ENDMDL
________________________________________________________________________________


	BEGINNING GENETIC ALGORITHM DOCKING 97 of 100
Run: 97 Seed: 1920104261 351359104 [ Run 97 of 100 GA/GALS ]
Beginning LAMARCKIAN GENETIC ALGORITHM (LGA), with a maximum of 25000000 energy evaluations.

Final-Value: -11.197


	FINAL GENETIC ALGORITHM DOCKED STATE
	_______________________________________________


Detailed state:  trans -4.610 -9.475 -13.694 quatxyzw -0.050084 -0.066461 0.783049 -0.616367 center 0.153 0.018 -0.028 ntor 13 -103.1625 140.1553 118.1951 -59.6033 32.0865 19.1877 -34.8773 171.3207 125.7059 -114.0256 58.7558 -56.9756 119.9067
State:	 -4.610  -9.475 -13.694  -0.064 -0.084  0.994 -103.897   -103.16  140.16  118.20  -59.60   32.09   19.19  -34.88  171.32  125.71 -114.03   58.76  -56.98  119.91

DOCKED: MODEL       97
DOCKED: USER    Run = 97
DOCKED: USER    DPF = D:/Protein_go_brrr/autodock/final/mut_Y35F/heme/dock.dpf
DOCKED: USER  
DOCKED: USER    Estimated Free Energy of Binding    =   -3.27 kcal/mol  [=(1)+(2)+(3)-(4)]
DOCKED: USER    Estimated Inhibition Constant, Ki   =    4.01 mM (millimolar)  [Temperature = 298.15 K]
DOCKED: USER    
DOCKED: USER    (1) Final Intermolecular Energy     =   -7.15 kcal/mol
DOCKED: USER        vdW + Hbond + desolv Energy     =   -7.09 kcal/mol
DOCKED: USER        Electrostatic Energy            =   -0.06 kcal/mol
DOCKED: USER    (2) Final Total Internal Energy     =   -4.05 kcal/mol
DOCKED: USER    (3) Torsional Free Energy           =   +3.88 kcal/mol
DOCKED: USER    (4) Unbound System's Energy  [=(2)] =   -4.05 kcal/mol
DOCKED: USER    
DOCKED: USER    
DOCKED: USER    NEWDPF move heme_opt.pdbqt
DOCKED: USER    NEWDPF about 0.153000 0.018000 -0.028000
DOCKED: USER    NEWDPF tran0 -4.609539 -9.474941 -13.693531
DOCKED: USER    NEWDPF quaternion0 -0.050084 -0.066461 0.783049 -0.616367
DOCKED: USER    NEWDPF axisangle0 -0.063602 -0.084399 0.994400 -103.897345
DOCKED: USER    NEWDPF quat0 -0.063602 -0.084399 0.994400 -103.897345
DOCKED: USER    NEWDPF dihe0 -103.16 140.16 118.20 -59.60 32.09 19.19 -34.88 171.32 125.71 -114.03 58.76 -56.98 119.91 
DOCKED: USER  keepresnum = 1 
DOCKED: USER  
DOCKED: REMARK  13 active torsions:
DOCKED: REMARK  status: ('A' for Active; 'I' for Inactive)
DOCKED: REMARK    1  A    between atoms: O_3  and  C_38 
DOCKED: REMARK    2  A    between atoms: O_4  and  C_40 
DOCKED: REMARK    3  A    between atoms: O_7  and  C_46 
DOCKED: REMARK    4  A    between atoms: O_9  and  C_48 
DOCKED: REMARK    5  A    between atoms: C_15  and  C_20 
DOCKED: REMARK    6  A    between atoms: C_16  and  C_23 
DOCKED: REMARK    7  A    between atoms: C_20  and  C_38 
DOCKED: REMARK    8  A    between atoms: C_23  and  C_40 
DOCKED: REMARK    9  A    between atoms: C_32  and  C_41 
DOCKED: REMARK   10  A    between atoms: C_37  and  C_45 
DOCKED: REMARK   11  A    between atoms: C_41  and  C_44 
DOCKED: REMARK   12  A    between atoms: C_44  and  C_46 
DOCKED: REMARK   13  A    between atoms: C_47  and  C_48 
DOCKED: USER                              x       y       z     vdW  Elec       q    Type
DOCKED: USER                           _______ _______ _______ _____ _____    ______ ____
DOCKED: ROOT
DOCKED: ATOM      1  O   UNL d   1      -5.013 -15.347 -13.354 -0.14 -0.05    -0.289 OA
DOCKED: ATOM      2  O   UNL d   1       0.914 -10.869 -14.456 -0.67 -0.04    -0.289 OA
DOCKED: ATOM      3  N   UNL d   1      -5.285 -11.919 -13.617 -0.07 +0.01    -0.247 NA
DOCKED: ATOM      4  N   UNL d   1      -2.456 -11.016 -13.729 -0.12 +0.02    -0.247 NA
DOCKED: ATOM      5  N   UNL d   1      -3.389  -8.338 -13.249 -0.05 +0.00    -0.354 N 
DOCKED: ATOM      6  N   UNL d   1      -6.319  -9.287 -13.116 -0.02 +0.03    -0.354 N 
DOCKED: ATOM      7  C   UNL d   1      -6.835 -13.740 -13.083 -0.24 -0.00    +0.084 A 
DOCKED: ATOM      8  C   UNL d   1      -0.809 -12.603 -14.589 -0.12 -0.00    +0.084 A 
DOCKED: ATOM      9  C   UNL d   1      -2.250 -12.307 -14.161 -0.16 -0.00    +0.058 A 
DOCKED: ATOM     10  C   UNL d   1      -6.588 -12.241 -13.276 -0.16 -0.00    +0.058 A 
DOCKED: ATOM     11  C   UNL d   1      -5.446 -14.209 -13.393 -0.15 +0.00    +0.193 A 
DOCKED: ATOM     12  C   UNL d   1      -4.607 -13.015 -13.726 -0.16 -0.00    +0.109 A 
DOCKED: ATOM     13  C   UNL d   1      -0.227 -11.251 -14.285 -0.17 -0.00    +0.193 A 
DOCKED: ATOM     14  C   UNL d   1      -7.161 -14.086 -11.627 -0.45 -0.01    +0.026 C 
DOCKED: ATOM     15  C   UNL d   1      -3.213 -13.242 -14.159 -0.19 +0.00    +0.055 C 
DOCKED: ATOM     16  C   UNL d   1      -0.705 -12.856 -16.096 -0.04 +0.00    +0.026 C 
DOCKED: ATOM     17  C   UNL d   1      -1.327 -10.384 -13.764 -0.20 -0.00    +0.109 A 
DOCKED: ATOM     18  C   UNL d   1      -7.592 -11.348 -13.203 -0.17 -0.00    +0.050 C 
DOCKED: ATOM     19  C   UNL d   1      -7.474  -9.956 -13.450 -0.10 -0.00    +0.045 A 
DOCKED: ATOM     20  C   UNL d   1      -2.039  -8.147 -13.105 -0.23 -0.00    +0.045 A 
DOCKED: ATOM     21  C   UNL d   1      -1.041  -9.006 -13.339 -0.30 -0.00    +0.057 C 
DOCKED: ATOM     22  C   UNL d   1      -3.124  -6.225 -12.518 -0.24 -0.00    -0.019 A 
DOCKED: ATOM     23  C   UNL d   1      -4.126  -7.233 -12.918 -0.14 -0.00    +0.045 A 
DOCKED: ATOM     24  C   UNL d   1      -1.891  -6.771 -12.632 -0.29 -0.00    -0.022 A 
DOCKED: ATOM     25  C   UNL d   1      -6.454  -7.939 -13.356 -0.10 -0.00    +0.049 A 
DOCKED: ATOM     26  C   UNL d   1      -8.370  -9.026 -13.954 -0.08 +0.00    -0.018 A 
DOCKED: ATOM     27  C   UNL d   1      -7.713  -7.757 -13.911 -0.08 -0.00    +0.003 A 
DOCKED: ATOM     28  C   UNL d   1      -5.450  -7.020 -12.944 -0.14 -0.00    +0.052 C 
DOCKED: ATOM     29  C   UNL d   1      -0.565  -6.148 -12.356 -0.22 +0.00    +0.046 C 
DOCKED: ATOM     30  C   UNL d   1      -9.750  -9.296 -14.449 -0.08 -0.00    +0.046 C 
DOCKED: ATOM     31  H   UNL d   1      -3.759  -9.197 -13.642 +0.05 -0.00    +0.166 HD
DOCKED: ATOM     32  H   UNL d   1      -5.507  -9.738 -12.711 +0.07 -0.01    +0.166 HD
DOCKED: ENDROOT
DOCKED: BRANCH   7  33
DOCKED: ATOM     33  C   UNL d   1      -7.844 -14.370 -14.049 -0.13 +0.01    +0.141 C 
DOCKED: BRANCH  33  34
DOCKED: ATOM     34  C   UNL d   1      -7.922 -15.866 -13.911 -0.13 +0.05    +0.306 C 
DOCKED: ATOM     35  O   UNL d   1      -8.623 -16.481 -13.126 -0.17 -0.04    -0.251 OA
DOCKED: BRANCH  34  36
DOCKED: ATOM     36  O   UNL d   1      -7.115 -16.509 -14.773 -0.08 -0.16    -0.481 OA
DOCKED: ATOM     37  H   UNL d   1      -6.213 -16.380 -14.410 +0.07 +0.11    +0.295 HD
DOCKED: ENDBRANCH  34  36
DOCKED: ENDBRANCH  33  34
DOCKED: ENDBRANCH   7  33
DOCKED: BRANCH  27  38
DOCKED: ATOM     38  C   UNL d   1      -8.291  -6.514 -14.326 -0.06 -0.00    +0.017 C 
DOCKED: ATOM     39  C   UNL d   1      -7.866  -5.299 -13.950 -0.06 +0.00    +0.092 C 
DOCKED: BRANCH  39  40
DOCKED: ATOM     40  C   UNL d   1      -8.535  -4.100 -14.463 -0.01 +0.01    +0.330 C 
DOCKED: ATOM     41  O   UNL d   1      -9.631  -4.027 -14.985 -0.00 -0.00    -0.246 OA
DOCKED: BRANCH  40  42
DOCKED: ATOM     42  O   UNL d   1      -7.760  -3.021 -14.273 +0.00 -0.01    -0.477 OA
DOCKED: ATOM     43  H   UNL d   1      -7.373  -3.164 -13.385 +0.03 +0.01    +0.295 HD
DOCKED: ENDBRANCH  40  42
DOCKED: ENDBRANCH  39  40
DOCKED: ENDBRANCH  27  38
DOCKED: BRANCH   8  44
DOCKED: ATOM     44  C   UNL d   1      -0.095 -13.699 -13.792 -0.20 -0.01    +0.141 C 
DOCKED: BRANCH  44  45
DOCKED: ATOM     45  C   UNL d   1       1.399 -13.688 -13.973 -0.12 -0.04    +0.306 C 
DOCKED: ATOM     46  O   UNL d   1       2.020 -14.135 -14.921 -0.05 +0.02    -0.251 OA
DOCKED: BRANCH  45  47
DOCKED: ATOM     47  O   UNL d   1       2.040 -13.134 -12.927 -0.02 +0.19    -0.481 OA
DOCKED: ATOM     48  H   UNL d   1       1.725 -12.205 -12.907 -0.32 -0.10    +0.295 HD
DOCKED: ENDBRANCH  45  47
DOCKED: ENDBRANCH  44  45
DOCKED: ENDBRANCH   8  44
DOCKED: BRANCH  22  49
DOCKED: ATOM     49  C   UNL d   1      -3.463  -4.839 -12.053 -0.06 +0.00    +0.048 C 
DOCKED: BRANCH  49  50
DOCKED: ATOM     50  C   UNL d   1      -4.741  -4.817 -11.215 -0.30 +0.00    +0.125 C 
DOCKED: BRANCH  50  51
DOCKED: ATOM     51  C   UNL d   1      -5.778  -3.930 -11.842 -0.12 +0.01    +0.305 C 
DOCKED: ATOM     52  O   UNL d   1      -6.968  -3.881 -11.584 -0.25 -0.04    -0.251 OA
DOCKED: BRANCH  51  53
DOCKED: ATOM     53  O   UNL d   1      -5.253  -3.136 -12.796 -0.02 -0.01    -0.481 OA
DOCKED: ATOM     54  H   UNL d   1      -5.741  -3.385 -13.609 +0.04 +0.00    +0.295 HD
DOCKED: ENDBRANCH  51  53
DOCKED: ENDBRANCH  50  51
DOCKED: ENDBRANCH  49  50
DOCKED: ENDBRANCH  22  49
DOCKED: TORSDOF 13
DOCKED: TER
DOCKED: ENDMDL
________________________________________________________________________________


	BEGINNING GENETIC ALGORITHM DOCKING 98 of 100
Run: 98 Seed: 1017430653 135726594 [ Run 98 of 100 GA/GALS ]
Beginning LAMARCKIAN GENETIC ALGORITHM (LGA), with a maximum of 25000000 energy evaluations.

Final-Value: -11.159


	FINAL GENETIC ALGORITHM DOCKED STATE
	_______________________________________________


Detailed state:  trans -10.309 -18.597 -6.795 quatxyzw -0.789519 -0.106985 -0.398829 -0.454037 center 0.153 0.018 -0.028 ntor 13 -153.6660 122.6669 104.6694 -78.7943 48.3292 10.2964 -47.2822 -7.4021 163.2480 -130.9997 -53.4848 -46.0886 7.2897
State:	-10.309 -18.597  -6.795  -0.886 -0.120 -0.448 -125.994   -153.67  122.67  104.67  -78.79   48.33   10.30  -47.28   -7.40  163.25 -131.00  -53.48  -46.09    7.29

DOCKED: MODEL       98
DOCKED: USER    Run = 98
DOCKED: USER    DPF = D:/Protein_go_brrr/autodock/final/mut_Y35F/heme/dock.dpf
DOCKED: USER  
DOCKED: USER    Estimated Free Energy of Binding    =   -2.92 kcal/mol  [=(1)+(2)+(3)-(4)]
DOCKED: USER    Estimated Inhibition Constant, Ki   =    7.28 mM (millimolar)  [Temperature = 298.15 K]
DOCKED: USER    
DOCKED: USER    (1) Final Intermolecular Energy     =   -6.79 kcal/mol
DOCKED: USER        vdW + Hbond + desolv Energy     =   -6.63 kcal/mol
DOCKED: USER        Electrostatic Energy            =   -0.17 kcal/mol
DOCKED: USER    (2) Final Total Internal Energy     =   -4.36 kcal/mol
DOCKED: USER    (3) Torsional Free Energy           =   +3.88 kcal/mol
DOCKED: USER    (4) Unbound System's Energy  [=(2)] =   -4.36 kcal/mol
DOCKED: USER    
DOCKED: USER    
DOCKED: USER    NEWDPF move heme_opt.pdbqt
DOCKED: USER    NEWDPF about 0.153000 0.018000 -0.028000
DOCKED: USER    NEWDPF tran0 -10.309190 -18.596622 -6.794880
DOCKED: USER    NEWDPF quaternion0 -0.789519 -0.106985 -0.398829 -0.454037
DOCKED: USER    NEWDPF axisangle0 -0.886121 -0.120075 -0.447628 -125.994052
DOCKED: USER    NEWDPF quat0 -0.886121 -0.120075 -0.447628 -125.994052
DOCKED: USER    NEWDPF dihe0 -153.67 122.67 104.67 -78.79 48.33 10.30 -47.28 -7.40 163.25 -131.00 -53.48 -46.09 7.29 
DOCKED: USER  keepresnum = 1 
DOCKED: USER  
DOCKED: REMARK  13 active torsions:
DOCKED: REMARK  status: ('A' for Active; 'I' for Inactive)
DOCKED: REMARK    1  A    between atoms: O_3  and  C_38 
DOCKED: REMARK    2  A    between atoms: O_4  and  C_40 
DOCKED: REMARK    3  A    between atoms: O_7  and  C_46 
DOCKED: REMARK    4  A    between atoms: O_9  and  C_48 
DOCKED: REMARK    5  A    between atoms: C_15  and  C_20 
DOCKED: REMARK    6  A    between atoms: C_16  and  C_23 
DOCKED: REMARK    7  A    between atoms: C_20  and  C_38 
DOCKED: REMARK    8  A    between atoms: C_23  and  C_40 
DOCKED: REMARK    9  A    between atoms: C_32  and  C_41 
DOCKED: REMARK   10  A    between atoms: C_37  and  C_45 
DOCKED: REMARK   11  A    between atoms: C_41  and  C_44 
DOCKED: REMARK   12  A    between atoms: C_44  and  C_46 
DOCKED: REMARK   13  A    between atoms: C_47  and  C_48 
DOCKED: USER                              x       y       z     vdW  Elec       q    Type
DOCKED: USER                           _______ _______ _______ _____ _____    ______ ____
DOCKED: ROOT
DOCKED: ATOM      1  O   UNL d   1     -12.765 -17.946 -12.115 -0.02 -0.02    -0.289 OA
DOCKED: ATOM      2  O   UNL d   1     -15.475 -16.613  -5.240 -0.07 -0.02    -0.289 OA
DOCKED: ATOM      3  N   UNL d   1     -10.979 -18.616  -9.241 -0.03 -0.01    -0.247 NA
DOCKED: ATOM      4  N   UNL d   1     -12.701 -17.501  -7.092 -0.09 -0.04    -0.247 NA
DOCKED: ATOM      5  N   UNL d   1     -10.467 -17.748  -5.300 -0.10 -0.01    -0.354 N 
DOCKED: ATOM      6  N   UNL d   1      -8.681 -18.886  -7.540 -0.15 +0.04    -0.354 N 
DOCKED: ATOM      7  C   UNL d   1     -10.484 -18.688 -11.640 -0.10 +0.01    +0.084 A 
DOCKED: ATOM      8  C   UNL d   1     -15.100 -17.362  -7.540 -0.08 +0.01    +0.084 A 
DOCKED: ATOM      9  C   UNL d   1     -13.685 -17.670  -8.041 -0.12 +0.01    +0.058 A 
DOCKED: ATOM     10  C   UNL d   1     -10.013 -18.882 -10.196 -0.16 +0.00    +0.058 A 
DOCKED: ATOM     11  C   UNL d   1     -11.894 -18.283 -11.333 -0.05 +0.02    +0.193 A 
DOCKED: ATOM     12  C   UNL d   1     -12.078 -18.302  -9.847 -0.08 +0.01    +0.109 A 
DOCKED: ATOM     13  C   UNL d   1     -14.733 -16.950  -6.142 -0.10 +0.02    +0.193 A 
DOCKED: ATOM     14  C   UNL d   1      -9.771 -17.519 -12.325 -0.21 +0.00    +0.026 C 
DOCKED: ATOM     15  C   UNL d   1     -13.425 -18.025  -9.309 -0.10 +0.00    +0.055 C 
DOCKED: ATOM     16  C   UNL d   1     -15.965 -18.624  -7.470 -0.03 +0.00    +0.026 C 
DOCKED: ATOM     17  C   UNL d   1     -13.251 -17.071  -6.001 -0.16 +0.02    +0.109 A 
DOCKED: ATOM     18  C   UNL d   1      -8.785 -19.359  -9.916 -0.20 -0.00    +0.050 C 
DOCKED: ATOM     19  C   UNL d   1      -8.293 -19.650  -8.618 -0.18 -0.00    +0.045 A 
DOCKED: ATOM     20  C   UNL d   1     -11.320 -17.019  -4.513 -0.21 +0.00    +0.045 A 
DOCKED: ATOM     21  C   UNL d   1     -12.595 -16.690  -4.741 -0.23 +0.01    +0.057 C 
DOCKED: ATOM     22  C   UNL d   1      -9.297 -17.173  -3.463 -0.24 +0.00    -0.019 A 
DOCKED: ATOM     23  C   UNL d   1      -9.221 -17.894  -4.749 -0.24 -0.00    +0.045 A 
DOCKED: ATOM     24  C   UNL d   1     -10.542 -16.659  -3.328 -0.19 +0.00    -0.022 A 
DOCKED: ATOM     25  C   UNL d   1      -8.018 -19.283  -6.403 -0.24 -0.00    +0.049 A 
DOCKED: ATOM     26  C   UNL d   1      -7.383 -20.591  -8.162 -0.22 +0.00    -0.018 A 
DOCKED: ATOM     27  C   UNL d   1      -7.228 -20.367  -6.759 -0.21 -0.00    +0.003 A 
DOCKED: ATOM     28  C   UNL d   1      -8.134 -18.543  -5.195 -0.28 -0.01    +0.052 C 
DOCKED: ATOM     29  C   UNL d   1     -11.106 -15.864  -2.200 -0.13 +0.00    +0.046 C 
DOCKED: ATOM     30  C   UNL d   1      -6.700 -21.636  -8.977 -0.16 +0.00    +0.046 C 
DOCKED: ATOM     31  H   UNL d   1     -10.786 -18.186  -6.157 +0.05 +0.01    +0.166 HD
DOCKED: ATOM     32  H   UNL d   1      -9.335 -18.115  -7.606 +0.03 -0.01    +0.166 HD
DOCKED: ENDROOT
DOCKED: BRANCH   7  33
DOCKED: ATOM     33  C   UNL d   1     -10.465 -19.947 -12.513 -0.05 +0.02    +0.141 C 
DOCKED: BRANCH  33  34
DOCKED: ATOM     34  C   UNL d   1     -10.201 -19.643 -13.963 -0.03 +0.07    +0.306 C 
DOCKED: ATOM     35  O   UNL d   1      -9.144 -19.797 -14.551 -0.09 -0.11    -0.251 OA
DOCKED: BRANCH  34  36
DOCKED: ATOM     36  O   UNL d   1     -11.286 -19.164 -14.597 +0.01 -0.07    -0.481 OA
DOCKED: ATOM     37  H   UNL d   1     -11.839 -18.780 -13.884 +0.02 +0.03    +0.295 HD
DOCKED: ENDBRANCH  34  36
DOCKED: ENDBRANCH  33  34
DOCKED: ENDBRANCH   7  33
DOCKED: BRANCH  27  38
DOCKED: ATOM     38  C   UNL d   1      -6.362 -21.113  -5.895 -0.15 -0.00    +0.017 C 
DOCKED: ATOM     39  C   UNL d   1      -6.078 -20.796  -4.623 -0.12 -0.02    +0.092 C 
DOCKED: BRANCH  39  40
DOCKED: ATOM     40  C   UNL d   1      -5.188 -21.655  -3.838 -0.08 -0.03    +0.330 C 
DOCKED: ATOM     41  O   UNL d   1      -4.527 -22.597  -4.231 -0.10 +0.02    -0.246 OA
DOCKED: BRANCH  40  42
DOCKED: ATOM     42  O   UNL d   1      -5.174 -21.257  -2.556 -0.24 -0.27    -0.477 OA
DOCKED: ATOM     43  H   UNL d   1      -4.887 -20.322  -2.604 -0.27 +0.19    +0.295 HD
DOCKED: ENDBRANCH  40  42
DOCKED: ENDBRANCH  39  40
DOCKED: ENDBRANCH  27  38
DOCKED: BRANCH   8  44
DOCKED: ATOM     44  C   UNL d   1     -15.827 -16.230  -8.273 -0.11 +0.01    +0.141 C 
DOCKED: BRANCH  44  45
DOCKED: ATOM     45  C   UNL d   1     -17.217 -15.981  -7.750 -0.05 +0.01    +0.306 C 
DOCKED: ATOM     46  O   UNL d   1     -18.248 -16.488  -8.156 -0.02 -0.00    -0.251 OA
DOCKED: BRANCH  45  47
DOCKED: ATOM     47  O   UNL d   1     -17.238 -15.077  -6.754 -0.04 -0.03    -0.481 OA
DOCKED: ATOM     48  H   UNL d   1     -16.907 -15.565  -5.970 +0.05 +0.01    +0.295 HD
DOCKED: ENDBRANCH  45  47
DOCKED: ENDBRANCH  44  45
DOCKED: ENDBRANCH   8  44
DOCKED: BRANCH  22  49
DOCKED: ATOM     49  C   UNL d   1      -8.152 -17.043  -2.501 -0.31 -0.00    +0.048 C 
DOCKED: BRANCH  49  50
DOCKED: ATOM     50  C   UNL d   1      -7.917 -18.334  -1.719 -0.15 +0.00    +0.125 C 
DOCKED: BRANCH  50  51
DOCKED: ATOM     51  C   UNL d   1      -6.483 -18.770  -1.822 -0.16 +0.05    +0.305 C 
DOCKED: ATOM     52  O   UNL d   1      -5.637 -18.363  -2.597 -0.41 +0.01    -0.251 OA
DOCKED: BRANCH  51  53
DOCKED: ATOM     53  O   UNL d   1      -6.183 -19.732  -0.926 -0.09 -0.24    -0.481 OA
DOCKED: ATOM     54  H   UNL d   1      -6.207 -20.561  -1.450 +0.06 +0.14    +0.295 HD
DOCKED: ENDBRANCH  51  53
DOCKED: ENDBRANCH  50  51
DOCKED: ENDBRANCH  49  50
DOCKED: ENDBRANCH  22  49
DOCKED: TORSDOF 13
DOCKED: TER
DOCKED: ENDMDL
________________________________________________________________________________


	BEGINNING GENETIC ALGORITHM DOCKING 99 of 100
Run: 99 Seed: 1274619019 647214982 [ Run 99 of 100 GA/GALS ]
Beginning LAMARCKIAN GENETIC ALGORITHM (LGA), with a maximum of 25000000 energy evaluations.

Final-Value: -12.017


	FINAL GENETIC ALGORITHM DOCKED STATE
	_______________________________________________


Detailed state:  trans 2.734 -16.534 -9.504 quatxyzw -0.352706 0.421287 0.833409 0.059540 center 0.153 0.018 -0.028 ntor 13 -104.0969 180.0000 59.4448 -30.6587 30.1178 -44.3886 64.7098 -134.8582 130.6220 -10.2853 -92.9685 8.6087 -8.8326
State:	  2.734 -16.534  -9.504  -0.353  0.422  0.835 173.173   -104.10  180.00   59.44  -30.66   30.12  -44.39   64.71 -134.86  130.62  -10.29  -92.97    8.61   -8.83

DOCKED: MODEL       99
DOCKED: USER    Run = 99
DOCKED: USER    DPF = D:/Protein_go_brrr/autodock/final/mut_Y35F/heme/dock.dpf
DOCKED: USER  
DOCKED: USER    Estimated Free Energy of Binding    =   -4.18 kcal/mol  [=(1)+(2)+(3)-(4)]
DOCKED: USER    Estimated Inhibition Constant, Ki   =  861.49 uM (micromolar)  [Temperature = 298.15 K]
DOCKED: USER    
DOCKED: USER    (1) Final Intermolecular Energy     =   -8.06 kcal/mol
DOCKED: USER        vdW + Hbond + desolv Energy     =   -7.82 kcal/mol
DOCKED: USER        Electrostatic Energy            =   -0.24 kcal/mol
DOCKED: USER    (2) Final Total Internal Energy     =   -3.96 kcal/mol
DOCKED: USER    (3) Torsional Free Energy           =   +3.88 kcal/mol
DOCKED: USER    (4) Unbound System's Energy  [=(2)] =   -3.96 kcal/mol
DOCKED: USER    
DOCKED: USER    
DOCKED: USER    NEWDPF move heme_opt.pdbqt
DOCKED: USER    NEWDPF about 0.153000 0.018000 -0.028000
DOCKED: USER    NEWDPF tran0 2.734373 -16.533773 -9.504379
DOCKED: USER    NEWDPF quaternion0 -0.352706 0.421287 0.833409 0.059540
DOCKED: USER    NEWDPF axisangle0 -0.353333 0.422036 0.834890 173.173164
DOCKED: USER    NEWDPF quat0 -0.353333 0.422036 0.834890 173.173164
DOCKED: USER    NEWDPF dihe0 -104.10 180.00 59.44 -30.66 30.12 -44.39 64.71 -134.86 130.62 -10.29 -92.97 8.61 -8.83 
DOCKED: USER  keepresnum = 1 
DOCKED: USER  
DOCKED: REMARK  13 active torsions:
DOCKED: REMARK  status: ('A' for Active; 'I' for Inactive)
DOCKED: REMARK    1  A    between atoms: O_3  and  C_38 
DOCKED: REMARK    2  A    between atoms: O_4  and  C_40 
DOCKED: REMARK    3  A    between atoms: O_7  and  C_46 
DOCKED: REMARK    4  A    between atoms: O_9  and  C_48 
DOCKED: REMARK    5  A    between atoms: C_15  and  C_20 
DOCKED: REMARK    6  A    between atoms: C_16  and  C_23 
DOCKED: REMARK    7  A    between atoms: C_20  and  C_38 
DOCKED: REMARK    8  A    between atoms: C_23  and  C_40 
DOCKED: REMARK    9  A    between atoms: C_32  and  C_41 
DOCKED: REMARK   10  A    between atoms: C_37  and  C_45 
DOCKED: REMARK   11  A    between atoms: C_41  and  C_44 
DOCKED: REMARK   12  A    between atoms: C_44  and  C_46 
DOCKED: REMARK   13  A    between atoms: C_47  and  C_48 
DOCKED: USER                              x       y       z     vdW  Elec       q    Type
DOCKED: USER                           _______ _______ _______ _____ _____    ______ ____
DOCKED: ROOT
DOCKED: ATOM      1  O   UNL d   1       6.162 -14.959  -4.973 -0.54 +0.14    -0.289 OA
DOCKED: ATOM      2  O   UNL d   1       6.678 -13.431 -12.308 -0.09 +0.06    -0.289 OA
DOCKED: ATOM      3  N   UNL d   1       3.963 -16.231  -7.306 +0.07 +0.12    -0.247 NA
DOCKED: ATOM      4  N   UNL d   1       4.763 -14.862  -9.818 -0.16 +0.09    -0.247 NA
DOCKED: ATOM      5  N   UNL d   1       2.299 -15.769 -10.989 -0.13 +0.12    -0.354 N 
DOCKED: ATOM      6  N   UNL d   1       1.467 -17.171  -8.373 +0.15 +0.20    -0.354 N 
DOCKED: ATOM      7  C   UNL d   1       4.103 -16.272  -4.859 -0.23 -0.03    +0.084 A 
DOCKED: ATOM      8  C   UNL d   1       7.080 -14.103  -9.988 -0.10 -0.03    +0.084 A 
DOCKED: ATOM      9  C   UNL d   1       5.958 -14.721  -9.148 -0.18 -0.02    +0.058 A 
DOCKED: ATOM     10  C   UNL d   1       3.360 -16.668  -6.138 -0.16 -0.02    +0.058 A 
DOCKED: ATOM     11  C   UNL d   1       5.243 -15.550  -5.512 -0.16 -0.07    +0.193 A 
DOCKED: ATOM     12  C   UNL d   1       5.057 -15.617  -6.996 -0.19 -0.04    +0.109 A 
DOCKED: ATOM     13  C   UNL d   1       6.291 -13.884 -11.248 -0.10 -0.06    +0.193 A 
DOCKED: ATOM     14  C   UNL d   1       3.304 -15.276  -4.015 -0.33 -0.01    +0.026 C 
DOCKED: ATOM     15  C   UNL d   1       6.115 -15.048  -7.856 -0.21 -0.02    +0.055 C 
DOCKED: ATOM     16  C   UNL d   1       8.196 -15.112 -10.276 -0.03 -0.01    +0.026 C 
DOCKED: ATOM     17  C   UNL d   1       4.901 -14.379 -11.011 -0.20 -0.04    +0.109 A 
DOCKED: ATOM     18  C   UNL d   1       2.266 -17.452  -6.102 -0.27 -0.02    +0.050 C 
DOCKED: ATOM     19  C   UNL d   1       1.563 -17.938  -7.234 -0.24 -0.02    +0.045 A 
DOCKED: ATOM     20  C   UNL d   1       2.719 -14.902 -11.965 -0.17 -0.02    +0.045 A 
DOCKED: ATOM     21  C   UNL d   1       3.883 -14.253 -12.065 -0.23 -0.02    +0.057 C 
DOCKED: ATOM     22  C   UNL d   1       0.610 -15.620 -12.472 -0.21 +0.00    -0.019 A 
DOCKED: ATOM     23  C   UNL d   1       1.038 -16.254 -11.209 -0.28 -0.01    +0.045 A 
DOCKED: ATOM     24  C   UNL d   1       1.610 -14.822 -12.915 -0.19 +0.00    -0.022 A 
DOCKED: ATOM     25  C   UNL d   1       0.671 -17.791  -9.308 -0.26 -0.02    +0.049 A 
DOCKED: ATOM     26  C   UNL d   1       0.842 -19.102  -7.447 -0.19 +0.01    -0.018 A 
DOCKED: ATOM     27  C   UNL d   1       0.297 -19.013  -8.765 -0.21 -0.00    +0.003 A 
DOCKED: ATOM     28  C   UNL d   1       0.296 -17.123 -10.505 -0.32 -0.01    +0.052 C 
DOCKED: ATOM     29  C   UNL d   1       1.659 -13.985 -14.148 -0.16 -0.01    +0.046 C 
DOCKED: ATOM     30  C   UNL d   1       0.669 -20.231  -6.488 -0.06 -0.03    +0.046 C 
DOCKED: ATOM     31  H   UNL d   1       2.920 -16.059 -10.241 +0.02 -0.06    +0.166 HD
DOCKED: ATOM     32  H   UNL d   1       1.898 -16.259  -8.473 -0.19 -0.19    +0.166 HD
DOCKED: ENDROOT
DOCKED: BRANCH   7  33
DOCKED: ATOM     33  C   UNL d   1       4.620 -17.439  -4.012 -0.10 -0.04    +0.141 C 
DOCKED: BRANCH  33  34
DOCKED: ATOM     34  C   UNL d   1       5.375 -16.981  -2.794 -0.07 -0.09    +0.306 C 
DOCKED: ATOM     35  O   UNL d   1       4.888 -16.664  -1.721 -0.16 +0.09    -0.251 OA
DOCKED: BRANCH  34  36
DOCKED: ATOM     36  O   UNL d   1       6.705 -16.948  -2.990 +0.01 +0.15    -0.481 OA
DOCKED: ATOM     37  H   UNL d   1       6.850 -16.167  -3.566 +0.09 -0.13    +0.295 HD
DOCKED: ENDBRANCH  34  36
DOCKED: ENDBRANCH  33  34
DOCKED: ENDBRANCH   7  33
DOCKED: BRANCH  27  38
DOCKED: ATOM     38  C   UNL d   1      -0.532 -20.003  -9.384 -0.18 -0.00    +0.017 C 
DOCKED: ATOM     39  C   UNL d   1      -0.392 -20.455 -10.640 -0.08 -0.00    +0.092 C 
DOCKED: BRANCH  39  40
DOCKED: ATOM     40  C   UNL d   1      -1.299 -21.487 -11.149 -0.03 +0.04    +0.330 C 
DOCKED: ATOM     41  O   UNL d   1      -1.639 -22.516 -10.598 -0.02 -0.02    -0.246 OA
DOCKED: BRANCH  40  42
DOCKED: ATOM     42  O   UNL d   1      -1.748 -21.146 -12.367 -0.05 -0.18    -0.477 OA
DOCKED: ATOM     43  H   UNL d   1      -1.318 -20.284 -12.543 +0.06 +0.10    +0.295 HD
DOCKED: ENDBRANCH  40  42
DOCKED: ENDBRANCH  39  40
DOCKED: ENDBRANCH  27  38
DOCKED: BRANCH   8  44
DOCKED: ATOM     44  C   UNL d   1       7.649 -12.782  -9.461 -0.19 -0.08    +0.141 C 
DOCKED: BRANCH  44  45
DOCKED: ATOM     45  C   UNL d   1       6.619 -11.689  -9.360 -0.15 -0.22    +0.306 C 
DOCKED: ATOM     46  O   UNL d   1       5.410 -11.833  -9.306 -0.34 +0.16    -0.251 OA
DOCKED: BRANCH  45  47
DOCKED: ATOM     47  O   UNL d   1       7.169 -10.461  -9.360 -0.19 +0.48    -0.481 OA
DOCKED: ATOM     48  H   UNL d   1       6.874 -10.058  -8.516 -0.08 -0.49    +0.295 HD
DOCKED: ENDBRANCH  45  47
DOCKED: ENDBRANCH  44  45
DOCKED: ENDBRANCH   8  44
DOCKED: BRANCH  22  49
DOCKED: ATOM     49  C   UNL d   1      -0.728 -15.839 -13.114 +0.05 +0.01    +0.048 C 
DOCKED: BRANCH  49  50
DOCKED: ATOM     50  C   UNL d   1      -0.692 -16.981 -14.129 -0.12 +0.02    +0.125 C 
DOCKED: BRANCH  50  51
DOCKED: ATOM     51  C   UNL d   1      -0.965 -18.300 -13.462 -0.12 +0.09    +0.305 C 
DOCKED: ATOM     52  O   UNL d   1      -0.436 -19.373 -13.692 -0.06 -0.06    -0.251 OA
DOCKED: BRANCH  51  53
DOCKED: ATOM     53  O   UNL d   1      -1.927 -18.200 -12.522 -0.61 -0.22    -0.481 OA
DOCKED: ATOM     54  H   UNL d   1      -2.363 -19.078 -12.534 +0.07 +0.16    +0.295 HD
DOCKED: ENDBRANCH  51  53
DOCKED: ENDBRANCH  50  51
DOCKED: ENDBRANCH  49  50
DOCKED: ENDBRANCH  22  49
DOCKED: TORSDOF 13
DOCKED: TER
DOCKED: ENDMDL
________________________________________________________________________________


	BEGINNING GENETIC ALGORITHM DOCKING 100 of 100
Run: 100 Seed: 283107446 614880530 [ Run 100 of 100 GA/GALS ]
Beginning LAMARCKIAN GENETIC ALGORITHM (LGA), with a maximum of 25000000 energy evaluations.

Final-Value: -9.859


	FINAL GENETIC ALGORITHM DOCKED STATE
	_______________________________________________


Detailed state:  trans 1.270 13.831 -11.399 quatxyzw -0.744210 -0.340498 -0.042074 -0.573100 center 0.153 0.018 -0.028 ntor 13 -101.0364 -134.3269 111.8449 84.9716 33.6425 -172.3472 -50.1438 115.7869 129.9426 -149.5993 64.9601 84.3966 108.6281
State:	  1.270  13.831 -11.399  -0.908 -0.416 -0.051 -110.067   -101.04 -134.33  111.84   84.97   33.64 -172.35  -50.14  115.79  129.94 -149.60   64.96   84.40  108.63

DOCKED: MODEL      100
DOCKED: USER    Run = 100
DOCKED: USER    DPF = D:/Protein_go_brrr/autodock/final/mut_Y35F/heme/dock.dpf
DOCKED: USER  
DOCKED: USER    Estimated Free Energy of Binding    =   -3.40 kcal/mol  [=(1)+(2)+(3)-(4)]
DOCKED: USER    Estimated Inhibition Constant, Ki   =    3.21 mM (millimolar)  [Temperature = 298.15 K]
DOCKED: USER    
DOCKED: USER    (1) Final Intermolecular Energy     =   -7.28 kcal/mol
DOCKED: USER        vdW + Hbond + desolv Energy     =   -7.09 kcal/mol
DOCKED: USER        Electrostatic Energy            =   -0.19 kcal/mol
DOCKED: USER    (2) Final Total Internal Energy     =   -2.58 kcal/mol
DOCKED: USER    (3) Torsional Free Energy           =   +3.88 kcal/mol
DOCKED: USER    (4) Unbound System's Energy  [=(2)] =   -2.58 kcal/mol
DOCKED: USER    
DOCKED: USER    
DOCKED: USER    NEWDPF move heme_opt.pdbqt
DOCKED: USER    NEWDPF about 0.153000 0.018000 -0.028000
DOCKED: USER    NEWDPF tran0 1.269960 13.831278 -11.398999
DOCKED: USER    NEWDPF quaternion0 -0.744210 -0.340498 -0.042074 -0.573100
DOCKED: USER    NEWDPF axisangle0 -0.908142 -0.415502 -0.051342 -110.066685
DOCKED: USER    NEWDPF quat0 -0.908142 -0.415502 -0.051342 -110.066685
DOCKED: USER    NEWDPF dihe0 -101.04 -134.33 111.84 84.97 33.64 -172.35 -50.14 115.79 129.94 -149.60 64.96 84.40 108.63 
DOCKED: USER  keepresnum = 1 
DOCKED: USER  
DOCKED: REMARK  13 active torsions:
DOCKED: REMARK  status: ('A' for Active; 'I' for Inactive)
DOCKED: REMARK    1  A    between atoms: O_3  and  C_38 
DOCKED: REMARK    2  A    between atoms: O_4  and  C_40 
DOCKED: REMARK    3  A    between atoms: O_7  and  C_46 
DOCKED: REMARK    4  A    between atoms: O_9  and  C_48 
DOCKED: REMARK    5  A    between atoms: C_15  and  C_20 
DOCKED: REMARK    6  A    between atoms: C_16  and  C_23 
DOCKED: REMARK    7  A    between atoms: C_20  and  C_38 
DOCKED: REMARK    8  A    between atoms: C_23  and  C_40 
DOCKED: REMARK    9  A    between atoms: C_32  and  C_41 
DOCKED: REMARK   10  A    between atoms: C_37  and  C_45 
DOCKED: REMARK   11  A    between atoms: C_41  and  C_44 
DOCKED: REMARK   12  A    between atoms: C_44  and  C_46 
DOCKED: REMARK   13  A    between atoms: C_47  and  C_48 
DOCKED: USER                              x       y       z     vdW  Elec       q    Type
DOCKED: USER                           _______ _______ _______ _____ _____    ______ ____
DOCKED: ROOT
DOCKED: ATOM      1  O   UNL d   1      -2.295  11.642 -15.553 -0.01 +0.01    -0.289 OA
DOCKED: ATOM      2  O   UNL d   1      -2.934  11.760  -8.071 -0.19 +0.14    -0.289 OA
DOCKED: ATOM      3  N   UNL d   1       0.148  12.935 -13.489 -0.11 +0.01    -0.247 NA
DOCKED: ATOM      4  N   UNL d   1      -1.104  12.824 -10.797 -0.13 +0.03    -0.247 NA
DOCKED: ATOM      5  N   UNL d   1       0.996  14.546  -9.852 -0.15 +0.03    -0.354 N 
DOCKED: ATOM      6  N   UNL d   1       2.277  14.671 -12.653 -0.11 -0.00    -0.354 N 
DOCKED: ATOM      7  C   UNL d   1      -0.196  12.841 -15.914 -0.03 -0.00    +0.084 A 
DOCKED: ATOM      8  C   UNL d   1      -2.833  11.135 -10.436 -0.19 -0.01    +0.084 A 
DOCKED: ATOM      9  C   UNL d   1      -1.873  11.850 -11.393 -0.15 -0.01    +0.058 A 
DOCKED: ATOM     10  C   UNL d   1       0.663  13.284 -14.726 -0.10 -0.00    +0.058 A 
DOCKED: ATOM     11  C   UNL d   1      -1.279  12.163 -15.130 -0.04 -0.01    +0.193 A 
DOCKED: ATOM     12  C   UNL d   1      -0.943  12.265 -13.675 -0.11 -0.01    +0.109 A 
DOCKED: ATOM     13  C   UNL d   1      -2.492  11.909  -9.194 -0.19 -0.05    +0.193 A 
DOCKED: ATOM     14  C   UNL d   1      -0.798  14.031 -16.664 -0.01 -0.00    +0.026 C 
DOCKED: ATOM     15  C   UNL d   1      -1.827  11.583 -12.707 -0.16 -0.00    +0.055 C 
DOCKED: ATOM     16  C   UNL d   1      -2.439   9.670 -10.227 -0.35 -0.00    +0.026 C 
DOCKED: ATOM     17  C   UNL d   1      -1.437  12.906  -9.549 -0.16 -0.02    +0.109 A 
DOCKED: ATOM     18  C   UNL d   1       1.857  13.880 -14.905 -0.11 -0.00    +0.050 C 
DOCKED: ATOM     19  C   UNL d   1       2.756  14.248 -13.872 -0.15 -0.00    +0.045 A 
DOCKED: ATOM     20  C   UNL d   1       0.167  14.565  -8.760 -0.23 -0.01    +0.045 A 
DOCKED: ATOM     21  C   UNL d   1      -0.934  13.842  -8.532 -0.27 -0.01    +0.057 C 
DOCKED: ATOM     22  C   UNL d   1       1.849  16.076  -8.436 -0.22 -0.00    -0.019 A 
DOCKED: ATOM     23  C   UNL d   1       2.041  15.425  -9.748 -0.19 +0.00    +0.045 A 
DOCKED: ATOM     24  C   UNL d   1       0.739  15.561  -7.856 -0.22 +0.00    -0.022 A 
DOCKED: ATOM     25  C   UNL d   1       3.312  15.062 -11.836 -0.21 +0.00    +0.049 A 
DOCKED: ATOM     26  C   UNL d   1       4.139  14.331 -13.834 -0.17 -0.00    -0.018 A 
DOCKED: ATOM     27  C   UNL d   1       4.486  14.827 -12.539 -0.23 +0.00    +0.003 A 
DOCKED: ATOM     28  C   UNL d   1       3.058  15.683 -10.583 -0.20 +0.00    +0.052 C 
DOCKED: ATOM     29  C   UNL d   1       0.143  15.888  -6.529 -0.21 -0.02    +0.046 C 
DOCKED: ATOM     30  C   UNL d   1       5.083  13.970 -14.930 -0.12 -0.00    +0.046 C 
DOCKED: ATOM     31  H   UNL d   1       0.862  13.877 -10.602 +0.02 -0.01    +0.166 HD
DOCKED: ATOM     32  H   UNL d   1       1.291  14.719 -12.424 +0.03 -0.00    +0.166 HD
DOCKED: ENDROOT
DOCKED: BRANCH   7  33
DOCKED: ATOM     33  C   UNL d   1       0.472  11.851 -16.875 -0.03 -0.01    +0.141 C 
DOCKED: BRANCH  33  34
DOCKED: ATOM     34  C   UNL d   1      -0.444  11.414 -17.986 -0.00 -0.01    +0.306 C 
DOCKED: ATOM     35  O   UNL d   1      -0.596  11.975 -19.057 -0.00 +0.01    -0.251 OA
DOCKED: BRANCH  34  36
DOCKED: ATOM     36  O   UNL d   1      -1.119  10.289 -17.688 +0.00 +0.02    -0.481 OA
DOCKED: ATOM     37  H   UNL d   1      -1.824  10.580 -17.071 +0.01 -0.01    +0.295 HD
DOCKED: ENDBRANCH  34  36
DOCKED: ENDBRANCH  33  34
DOCKED: ENDBRANCH   7  33
DOCKED: BRANCH  27  38
DOCKED: ATOM     38  C   UNL d   1       5.819  15.079 -12.082 -0.25 +0.00    +0.017 C 
DOCKED: ATOM     39  C   UNL d   1       6.799  14.165 -12.012 -0.31 +0.01    +0.092 C 
DOCKED: BRANCH  39  40
DOCKED: ATOM     40  C   UNL d   1       8.130  14.557 -11.540 -0.16 +0.01    +0.330 C 
DOCKED: ATOM     41  O   UNL d   1       9.138  13.877 -11.509 -0.23 +0.01    -0.246 OA
DOCKED: BRANCH  40  42
DOCKED: ATOM     42  O   UNL d   1       8.117  15.834 -11.128 -0.04 -0.02    -0.477 OA
DOCKED: ATOM     43  H   UNL d   1       7.306  15.896 -10.582 +0.10 +0.04    +0.295 HD
DOCKED: ENDBRANCH  40  42
DOCKED: ENDBRANCH  39  40
DOCKED: ENDBRANCH  27  38
DOCKED: BRANCH   8  44
DOCKED: ATOM     44  C   UNL d   1      -4.322  11.266 -10.773 -0.08 -0.02    +0.141 C 
DOCKED: BRANCH  44  45
DOCKED: ATOM     45  C   UNL d   1      -5.174  10.212 -10.119 -0.10 -0.03    +0.306 C 
DOCKED: ATOM     46  O   UNL d   1      -5.521   9.151 -10.608 -0.15 -0.03    -0.251 OA
DOCKED: BRANCH  45  47
DOCKED: ATOM     47  O   UNL d   1      -5.571  10.565  -8.883 -0.17 +0.24    -0.481 OA
DOCKED: ATOM     48  H   UNL d   1      -4.751  10.549  -8.345 -0.40 -0.34    +0.295 HD
DOCKED: ENDBRANCH  45  47
DOCKED: ENDBRANCH  44  45
DOCKED: ENDBRANCH   8  44
DOCKED: BRANCH  22  49
DOCKED: ATOM     49  C   UNL d   1       2.751  17.140  -7.883 -0.22 +0.02    +0.048 C 
DOCKED: BRANCH  49  50
DOCKED: ATOM     50  C   UNL d   1       3.478  17.901  -8.992 -0.11 +0.03    +0.125 C 
DOCKED: BRANCH  50  51
DOCKED: ATOM     51  C   UNL d   1       4.958  17.650  -8.933 -0.11 +0.09    +0.305 C 
DOCKED: ATOM     52  O   UNL d   1       5.634  17.005  -9.716 -0.12 -0.05    -0.251 OA
DOCKED: BRANCH  51  53
DOCKED: ATOM     53  O   UNL d   1       5.526  18.230  -7.857 -0.10 -0.27    -0.481 OA
DOCKED: ATOM     54  H   UNL d   1       5.860  19.087  -8.197 +0.05 +0.10    +0.295 HD
DOCKED: ENDBRANCH  51  53
DOCKED: ENDBRANCH  50  51
DOCKED: ENDBRANCH  49  50
DOCKED: ENDBRANCH  22  49
DOCKED: TORSDOF 13
DOCKED: TER
DOCKED: ENDMDL
________________________________________________________________________________

DPF> analysis                             # perform a ranked cluster analysis


		CLUSTER ANALYSIS OF CONFORMATIONS
		_________________________________

Number of conformations = 100

RMSD cluster analysis will be performed using the ligand atoms only (54 / 54 total atoms).

Outputting structurally similar clusters, ranked in order of increasing energy.


________________________________________________________________________________

Number of distinct conformational clusters found = 67,  out of 100 runs,
Using an rmsd-tolerance of 2.0 A


	CLUSTERING HISTOGRAM
	____________________

________________________________________________________________________________
     |           |     |           |     |                                    
Clus | Lowest    | Run | Mean      | Num | Histogram                          
-ter | Binding   |     | Binding   | in  |                                    
Rank | Energy    |     | Energy    | Clus|    5    10   15   20   25   30   35
_____|___________|_____|___________|_____|____:____|____:____|____:____|____:___
   1 |     -7.74 |  96 |     -6.80 |  11 |###########
   2 |     -6.51 |  28 |     -5.82 |   5 |#####
   3 |     -6.10 |  73 |     -6.10 |   1 |#
   4 |     -6.05 |  46 |     -5.37 |   4 |####
   5 |     -6.05 |  12 |     -6.05 |   1 |#
   6 |     -6.05 |  57 |     -6.05 |   1 |#
   7 |     -5.95 |  84 |     -5.18 |   3 |###
   8 |     -5.91 |  16 |     -5.91 |   1 |#
   9 |     -5.85 |  51 |     -4.98 |   2 |##
  10 |     -5.83 |   3 |     -5.83 |   1 |#
  11 |     -5.74 |  40 |     -5.17 |   3 |###
  12 |     -5.63 |  93 |     -5.63 |   1 |#
  13 |     -5.53 |  32 |     -5.26 |   2 |##
  14 |     -5.53 |  23 |     -5.53 |   1 |#
  15 |     -5.46 |   8 |     -5.31 |   2 |##
  16 |     -5.19 |  43 |     -5.19 |   1 |#
  17 |     -5.18 |  45 |     -5.12 |   2 |##
  18 |     -5.08 |  55 |     -5.08 |   1 |#
  19 |     -5.06 |   4 |     -5.06 |   1 |#
  20 |     -4.84 |  92 |     -4.84 |   1 |#
  21 |     -4.83 |  50 |     -4.33 |   2 |##
  22 |     -4.82 |  25 |     -4.82 |   1 |#
  23 |     -4.76 |  65 |     -4.76 |   1 |#
  24 |     -4.68 |  76 |     -4.68 |   1 |#
  25 |     -4.64 |  33 |     -4.02 |   2 |##
  26 |     -4.61 |  53 |     -4.61 |   1 |#
  27 |     -4.50 |  35 |     -4.50 |   1 |#
  28 |     -4.46 |  13 |     -4.12 |   2 |##
  29 |     -4.45 |  29 |     -4.45 |   1 |#
  30 |     -4.38 |  60 |     -4.38 |   1 |#
  31 |     -4.31 |  14 |     -3.90 |   2 |##
  32 |     -4.17 |  79 |     -4.17 |   1 |#
  33 |     -4.17 |  54 |     -4.17 |   1 |#
  34 |     -4.16 |  19 |     -4.16 |   1 |#
  35 |     -4.15 |  56 |     -4.15 |   1 |#
  36 |     -4.03 |   6 |     -3.83 |   2 |##
  37 |     -4.01 |  26 |     -3.91 |   2 |##
  38 |     -3.97 |  67 |     -3.97 |   1 |#
  39 |     -3.93 |  20 |     -3.93 |   1 |#
  40 |     -3.92 |  24 |     -3.92 |   1 |#
  41 |     -3.83 |  37 |     -3.83 |   1 |#
  42 |     -3.83 |  59 |     -3.83 |   1 |#
  43 |     -3.79 |  38 |     -3.79 |   1 |#
  44 |     -3.78 |  15 |     -3.78 |   1 |#
  45 |     -3.66 |  90 |     -3.66 |   1 |#
  46 |     -3.61 |  72 |     -3.61 |   1 |#
  47 |     -3.54 |  36 |     -3.54 |   1 |#
  48 |     -3.44 |  18 |     -3.35 |   2 |##
  49 |     -3.42 |   1 |     -3.42 |   1 |#
  50 |     -3.41 |  63 |     -3.28 |   2 |##
  51 |     -3.34 |  85 |     -3.34 |   1 |#
  52 |     -3.34 |   7 |     -3.34 |   1 |#
  53 |     -3.23 |  66 |     -3.23 |   1 |#
  54 |     -3.22 |  91 |     -3.22 |   1 |#
  55 |     -3.21 |  95 |     -3.21 |   1 |#
  56 |     -3.20 |  74 |     -3.20 |   1 |#
  57 |     -3.12 |  52 |     -3.12 |   1 |#
  58 |     -3.03 |  82 |     -3.03 |   1 |#
  59 |     -2.92 |  98 |     -2.92 |   1 |#
  60 |     -2.89 |  31 |     -2.89 |   1 |#
  61 |     -2.89 |  21 |     -2.89 |   1 |#
  62 |     -2.87 |  58 |     -2.87 |   1 |#
  63 |     -2.79 |   5 |     -2.79 |   1 |#
  64 |     -2.75 |   2 |     -2.75 |   1 |#
  65 |     -2.71 |  64 |     -2.71 |   1 |#
  66 |     -2.52 |  68 |     -2.52 |   1 |#
  67 |     -1.64 |  42 |     -1.64 |   1 |#
_____|___________|_____|___________|_____|______________________________________


Number of multi-member conformational clusters found = 17, out of 100 runs.

	RMSD TABLE
	__________

_____________________________________________________________________
     |      |      |           |         |                 |
Rank | Sub- | Run  | Binding   | Cluster | Reference       | Grep
     | Rank |      | Energy    | RMSD    | RMSD            | Pattern
_____|______|______|___________|_________|_________________|___________
   1      1     96       -7.74      0.00     15.84           RANKING
   1      2     22       -7.37      1.24     16.17           RANKING
   1      3     70       -7.36      1.04     16.12           RANKING
   1      4     61       -7.33      1.15     16.21           RANKING
   1      5     94       -7.13      0.94     15.80           RANKING
   1      6     89       -6.88      1.27     16.05           RANKING
   1      7     88       -6.82      1.46     16.19           RANKING
   1      8     86       -6.55      1.80     16.28           RANKING
   1      9     30       -6.29      1.18     16.01           RANKING
   1     10     17       -5.70      1.67     16.23           RANKING
   1     11     27       -5.67      1.94     16.11           RANKING
   2      1     28       -6.51      0.00     15.77           RANKING
   2      2     34       -6.10      1.77     15.92           RANKING
   2      3     80       -5.66      1.69     16.27           RANKING
   2      4     77       -5.62      1.75     15.87           RANKING
   2      5     48       -5.20      1.58     15.89           RANKING
   3      1     73       -6.10      0.00     15.69           RANKING
   4      1     46       -6.05      0.00     11.90           RANKING
   4      2     71       -5.94      1.85     11.75           RANKING
   4      3     69       -5.41      1.59     11.75           RANKING
   4      4     41       -4.08      1.77     12.30           RANKING
   5      1     12       -6.05      0.00     17.28           RANKING
   6      1     57       -6.05      0.00      9.98           RANKING
   7      1     84       -5.95      0.00     14.04           RANKING
   7      2     83       -5.16      1.00     14.07           RANKING
   7      3     75       -4.44      1.30     13.96           RANKING
   8      1     16       -5.91      0.00     17.25           RANKING
   9      1     51       -5.85      0.00     17.32           RANKING
   9      2     39       -4.11      1.42     17.29           RANKING
  10      1      3       -5.83      0.00     17.11           RANKING
  11      1     40       -5.74      0.00     16.18           RANKING
  11      2     49       -5.58      1.98     16.03           RANKING
  11      3     99       -4.18      1.72     16.46           RANKING
  12      1     93       -5.63      0.00     11.53           RANKING
  13      1     32       -5.53      0.00     17.60           RANKING
  13      2     87       -4.99      1.07     17.79           RANKING
  14      1     23       -5.53      0.00     14.27           RANKING
  15      1      8       -5.46      0.00     17.36           RANKING
  15      2     47       -5.16      1.07     17.43           RANKING
  16      1     43       -5.19      0.00     11.11           RANKING
  17      1     45       -5.18      0.00     17.06           RANKING
  17      2     78       -5.06      0.89     17.28           RANKING
  18      1     55       -5.08      0.00     16.43           RANKING
  19      1      4       -5.06      0.00     18.10           RANKING
  20      1     92       -4.84      0.00     15.45           RANKING
  21      1     50       -4.83      0.00     14.46           RANKING
  21      2     62       -3.83      1.10     14.59           RANKING
  22      1     25       -4.82      0.00     11.59           RANKING
  23      1     65       -4.76      0.00     15.05           RANKING
  24      1     76       -4.68      0.00     14.62           RANKING
  25      1     33       -4.64      0.00     15.20           RANKING
  25      2    100       -3.40      1.48     15.52           RANKING
  26      1     53       -4.61      0.00     14.82           RANKING
  27      1     35       -4.50      0.00     14.86           RANKING
  28      1     13       -4.46      0.00     16.68           RANKING
  28      2     10       -3.77      1.46     16.66           RANKING
  29      1     29       -4.45      0.00     17.06           RANKING
  30      1     60       -4.38      0.00     10.91           RANKING
  31      1     14       -4.31      0.00     13.06           RANKING
  31      2      9       -3.48      1.57     13.51           RANKING
  32      1     79       -4.17      0.00     14.17           RANKING
  33      1     54       -4.17      0.00     17.97           RANKING
  34      1     19       -4.16      0.00     12.16           RANKING
  35      1     56       -4.15      0.00     17.58           RANKING
  36      1      6       -4.03      0.00     17.56           RANKING
  36      2     81       -3.63      0.71     17.56           RANKING
  37      1     26       -4.01      0.00     15.62           RANKING
  37      2     11       -3.80      1.87     15.13           RANKING
  38      1     67       -3.97      0.00     12.90           RANKING
  39      1     20       -3.93      0.00     11.71           RANKING
  40      1     24       -3.92      0.00     17.23           RANKING
  41      1     37       -3.83      0.00     15.20           RANKING
  42      1     59       -3.83      0.00     14.99           RANKING
  43      1     38       -3.79      0.00     16.00           RANKING
  44      1     15       -3.78      0.00     17.92           RANKING
  45      1     90       -3.66      0.00     17.29           RANKING
  46      1     72       -3.61      0.00     16.93           RANKING
  47      1     36       -3.54      0.00     19.83           RANKING
  48      1     18       -3.44      0.00     14.77           RANKING
  48      2     97       -3.27      1.31     14.80           RANKING
  49      1      1       -3.42      0.00     16.14           RANKING
  50      1     63       -3.41      0.00     13.73           RANKING
  50      2     44       -3.16      0.42     13.89           RANKING
  51      1     85       -3.34      0.00     20.31           RANKING
  52      1      7       -3.34      0.00     18.15           RANKING
  53      1     66       -3.23      0.00     17.68           RANKING
  54      1     91       -3.22      0.00     16.86           RANKING
  55      1     95       -3.21      0.00     12.87           RANKING
  56      1     74       -3.20      0.00     17.36           RANKING
  57      1     52       -3.12      0.00     20.01           RANKING
  58      1     82       -3.03      0.00     15.15           RANKING
  59      1     98       -2.92      0.00     18.49           RANKING
  60      1     31       -2.89      0.00     15.15           RANKING
  61      1     21       -2.89      0.00     18.65           RANKING
  62      1     58       -2.87      0.00     19.62           RANKING
  63      1      5       -2.79      0.00     18.96           RANKING
  64      1      2       -2.75      0.00     15.21           RANKING
  65      1     64       -2.71      0.00     17.58           RANKING
  66      1     68       -2.52      0.00     11.61           RANKING
  67      1     42       -1.64      0.00     17.59           RANKING
_______________________________________________________________________



	INFORMATION ENTROPY ANALYSIS FOR THIS CLUSTERING
	________________________________________________


Information entropy for this clustering = 0.86  (rmstol = 2.00 Angstrom)

_______________________________________________________________________


	STATISTICAL MECHANICAL ANALYSIS
	_______________________________


Partition function, Q =   100.78            at Temperature, T = 298.15 K
Free energy,        A ~ -2733.08 kcal/mol   at Temperature, T = 298.15 K
Internal energy,    U =    -4.61 kcal/mol   at Temperature, T = 298.15 K
Entropy,            S =     9.15 kcal/mol/K at Temperature, T = 298.15 K

_______________________________________________________________________


	LOWEST ENERGY DOCKED CONFORMATION from EACH CLUSTER
	___________________________________________________



Keeping original residue number (specified in the input PDBQ file) for outputting.

MODEL       96
USER    Run = 96
USER    Cluster Rank = 1
USER    Number of conformations in this cluster = 11
USER  
USER    RMSD from reference structure       = 15.839 A
USER  
USER    Estimated Free Energy of Binding    =   -7.74 kcal/mol  [=(1)+(2)+(3)-(4)]
USER    Estimated Inhibition Constant, Ki   =    2.10 uM (micromolar)  [Temperature = 298.15 K]
USER    
USER    (1) Final Intermolecular Energy     =  -11.62 kcal/mol
USER        vdW + Hbond + desolv Energy     =  -10.60 kcal/mol
USER        Electrostatic Energy            =   -1.03 kcal/mol
USER    (2) Final Total Internal Energy     =   -1.97 kcal/mol
USER    (3) Torsional Free Energy           =   +3.88 kcal/mol
USER    (4) Unbound System's Energy  [=(2)] =   -1.97 kcal/mol
USER    
USER    
USER  
USER    DPF = D:/Protein_go_brrr/autodock/final/mut_Y35F/heme/dock.dpf
USER    NEWDPF move	heme_opt.pdbqt
USER    NEWDPF about	0.153000 0.018000 -0.028000
USER    NEWDPF tran0	3.423954 -15.628045 -8.849285
USER    NEWDPF axisangle0	-0.849269 0.004674 -0.527940 123.670437
USER    NEWDPF quaternion0	-0.748710 0.004121 -0.465429 0.472009
USER    NEWDPF dihe0	100.07 87.90 103.92 -95.35 48.22 -172.41 -46.86 69.68 5.80 -127.84 66.66 23.44 159.95 
USER  
USER                              x       y       z    vdW   Elec        q     RMS 
ATOM      1  O   UNL d   1      -0.059 -19.456 -11.673 -0.04 -0.02    -0.289    15.839
ATOM      2  O   UNL d   1       2.983 -12.970 -13.927 -0.14 +0.05    -0.289    15.839
ATOM      3  N   UNL d   1       1.832 -17.457  -9.594 -0.12 +0.08    -0.247    15.839
ATOM      4  N   UNL d   1       2.828 -15.329 -11.412 -0.15 +0.08    -0.247    15.839
ATOM      5  N   UNL d   1       4.694 -14.576  -9.358 -0.16 +0.14    -0.354    15.839
ATOM      6  N   UNL d   1       3.668 -16.799  -7.485 +0.03 +0.17    -0.354    15.839
ATOM      7  C   UNL d   1       0.817 -19.680  -9.402 -0.07 -0.02    +0.084    15.839
ATOM      8  C   UNL d   1       1.485 -14.831 -13.392 -0.14 -0.01    +0.084    15.839
ATOM      9  C   UNL d   1       1.732 -15.703 -12.156 -0.19 -0.01    +0.058    15.839
ATOM     10  C   UNL d   1       1.652 -18.559  -8.775 -0.13 -0.02    +0.058    15.839
ATOM     11  C   UNL d   1       0.543 -19.008 -10.714 -0.06 -0.02    +0.193    15.839
ATOM     12  C   UNL d   1       1.189 -17.658 -10.697 -0.16 -0.02    +0.109    15.839
ATOM     13  C   UNL d   1       2.666 -13.916 -13.231 -0.13 -0.05    +0.193    15.839
ATOM     14  C   UNL d   1       1.647 -20.941  -9.656 -0.02 -0.00    +0.026    15.839
ATOM     15  C   UNL d   1       0.973 -16.769 -11.857 -0.21 -0.00    +0.055    15.839
ATOM     16  C   UNL d   1       0.201 -14.006 -13.257 -0.28 -0.00    +0.026    15.839
ATOM     17  C   UNL d   1       3.403 -14.328 -11.999 -0.09 -0.04    +0.109    15.839
ATOM     18  C   UNL d   1       2.082 -18.632  -7.501 -0.16 -0.02    +0.050    15.839
ATOM     19  C   UNL d   1       2.785 -17.612  -6.811 -0.17 -0.02    +0.045    15.839
ATOM     20  C   UNL d   1       5.170 -13.819 -10.397 -0.30 -0.02    +0.045    15.839
ATOM     21  C   UNL d   1       4.638 -13.632 -11.610 -0.27 -0.02    +0.057    15.839
ATOM     22  C   UNL d   1       6.618 -13.651  -8.639 -0.24 +0.01    -0.019    15.839
ATOM     23  C   UNL d   1       5.501 -14.537  -8.253 -0.26 -0.02    +0.045    15.839
ATOM     24  C   UNL d   1       6.415 -13.228  -9.909 -0.26 +0.01    -0.022    15.839
ATOM     25  C   UNL d   1       4.303 -15.946  -6.613 -0.16 -0.02    +0.049    15.839
ATOM     26  C   UNL d   1       2.820 -17.253  -5.473 -0.25 +0.01    -0.018    15.839
ATOM     27  C   UNL d   1       3.765 -16.188  -5.356 -0.29 -0.00    +0.003    15.839
ATOM     28  C   UNL d   1       5.372 -15.118  -7.050 -0.26 -0.02    +0.052    15.839
ATOM     29  C   UNL d   1       7.256 -12.314 -10.733 -0.13 -0.02    +0.046    15.839
ATOM     30  C   UNL d   1       2.023 -17.860  -4.368 -0.27 -0.02    +0.046    15.839
ATOM     31  H   UNL d   1       3.792 -15.036  -9.413 -0.15 -0.08    +0.166    15.839
ATOM     32  H   UNL d   1       3.842 -16.865  -8.481 -0.04 -0.07    +0.166    15.839
ATOM     33  C   UNL d   1      -0.494 -20.006  -8.680 -0.15 -0.06    +0.141    15.839
ATOM     34  C   UNL d   1      -1.361 -18.793  -8.477 -0.18 -0.18    +0.306    15.839
ATOM     35  O   UNL d   1      -2.347 -18.494  -9.130 -0.64 +0.06    -0.251    15.839
ATOM     36  O   UNL d   1      -0.941 -18.019  -7.460 -0.14 +0.48    -0.481    15.839
ATOM     37  H   UNL d   1      -1.313 -18.444  -6.658 -0.28 -0.70    +0.295    15.839
ATOM     38  C   UNL d   1       4.120 -15.529  -4.135 -0.39 -0.00    +0.017    15.839
ATOM     39  C   UNL d   1       3.963 -14.220  -3.888 -0.47 -0.02    +0.092    15.839
ATOM     40  C   UNL d   1       4.352 -13.671  -2.586 -0.35 -0.06    +0.330    15.839
ATOM     41  O   UNL d   1       4.188 -12.537  -2.178 -1.00 +0.01    -0.246    15.839
ATOM     42  O   UNL d   1       4.938 -14.621  -1.841 -0.47 +0.13    -0.477    15.839
ATOM     43  H   UNL d   1       4.199 -15.007  -1.328 -0.40 -0.20    +0.295    15.839
ATOM     44  C   UNL d   1       1.536 -15.562 -14.737 -0.04 -0.00    +0.141    15.839
ATOM     45  C   UNL d   1       1.346 -14.648 -15.918 -0.00 -0.00    +0.306    15.839
ATOM     46  O   UNL d   1       0.290 -14.365 -16.456 -0.01 -0.01    -0.251    15.839
ATOM     47  O   UNL d   1       2.510 -14.156 -16.380 +0.01 +0.01    -0.481    15.839
ATOM     48  H   UNL d   1       2.752 -13.451 -15.741 +0.04 -0.01    +0.295    15.839
ATOM     49  C   UNL d   1       7.775 -13.315  -7.744 -0.15 -0.05    +0.048    15.839
ATOM     50  C   UNL d   1       8.777 -14.466  -7.655 -0.11 -0.11    +0.125    15.839
ATOM     51  C   UNL d   1       8.789 -15.061  -6.276 -0.07 -0.31    +0.305    15.839
ATOM     52  O   UNL d   1       7.876 -15.629  -5.704 -0.09 +0.18    -0.251    15.839
ATOM     53  O   UNL d   1       9.980 -14.895  -5.665 -0.06 +0.64    -0.481    15.839
ATOM     54  H   UNL d   1       9.925 -13.997  -5.277 -0.44 -0.82    +0.295    15.839
TER
ENDMDL
MODEL       28
USER    Run = 28
USER    Cluster Rank = 2
USER    Number of conformations in this cluster = 5
USER  
USER    RMSD from reference structure       = 15.775 A
USER  
USER    Estimated Free Energy of Binding    =   -6.51 kcal/mol  [=(1)+(2)+(3)-(4)]
USER    Estimated Inhibition Constant, Ki   =   16.99 uM (micromolar)  [Temperature = 298.15 K]
USER    
USER    (1) Final Intermolecular Energy     =  -10.39 kcal/mol
USER        vdW + Hbond + desolv Energy     =   -9.94 kcal/mol
USER        Electrostatic Energy            =   -0.44 kcal/mol
USER    (2) Final Total Internal Energy     =   -2.54 kcal/mol
USER    (3) Torsional Free Energy           =   +3.88 kcal/mol
USER    (4) Unbound System's Energy  [=(2)] =   -2.54 kcal/mol
USER    
USER    
USER  
USER    DPF = D:/Protein_go_brrr/autodock/final/mut_Y35F/heme/dock.dpf
USER    NEWDPF move	heme_opt.pdbqt
USER    NEWDPF about	0.153000 0.018000 -0.028000
USER    NEWDPF tran0	3.415851 -17.518032 -6.291857
USER    NEWDPF axisangle0	-0.297397 0.632003 0.715630 149.104364
USER    NEWDPF quaternion0	-0.286653 0.609171 0.689777 0.266361
USER    NEWDPF dihe0	104.36 -160.07 -121.05 180.00 -137.82 49.61 122.80 -100.10 25.09 -22.97 -59.87 -137.48 -166.44 
USER  
USER                              x       y       z    vdW   Elec        q     RMS 
ATOM      1  O   UNL d   1       6.873 -13.247  -4.156 -0.38 +0.34    -0.289    15.775
ATOM      2  O   UNL d   1       6.308 -16.138 -11.064 -0.01 +0.06    -0.289    15.775
ATOM      3  N   UNL d   1       4.768 -15.872  -4.916 -0.15 +0.08    -0.247    15.775
ATOM      4  N   UNL d   1       5.002 -16.101  -7.869 -0.10 +0.09    -0.247    15.775
ATOM      5  N   UNL d   1       2.681 -17.797  -7.828 -0.05 +0.14    -0.354    15.775
ATOM      6  N   UNL d   1       2.434 -17.538  -4.767 -0.11 +0.12    -0.354    15.775
ATOM      7  C   UNL d   1       5.162 -14.490  -2.930 -0.39 -0.03    +0.084    15.775
ATOM      8  C   UNL d   1       7.076 -15.310  -8.892 -0.06 -0.03    +0.084    15.775
ATOM      9  C   UNL d   1       6.201 -15.464  -7.643 -0.15 -0.02    +0.058    15.775
ATOM     10  C   UNL d   1       4.393 -15.630  -3.605 -0.29 -0.02    +0.058    15.775
ATOM     11  C   UNL d   1       6.051 -14.142  -4.086 +0.02 -0.10    +0.193    15.775
ATOM     12  C   UNL d   1       5.734 -15.067  -5.221 -0.14 -0.04    +0.109    15.775
ATOM     13  C   UNL d   1       6.135 -15.945  -9.876 -0.02 -0.05    +0.193    15.775
ATOM     14  C   UNL d   1       4.259 -13.292  -2.622 -0.67 -0.00    +0.026    15.775
ATOM     15  C   UNL d   1       6.554 -14.972  -6.445 -0.20 -0.03    +0.055    15.775
ATOM     16  C   UNL d   1       8.345 -16.163  -8.804 -0.03 -0.01    +0.026    15.775
ATOM     17  C   UNL d   1       4.912 -16.375  -9.131 -0.10 -0.03    +0.109    15.775
ATOM     18  C   UNL d   1       3.500 -16.374  -2.926 -0.30 -0.02    +0.050    15.775
ATOM     19  C   UNL d   1       2.805 -17.498  -3.442 -0.24 -0.01    +0.045    15.775
ATOM     20  C   UNL d   1       2.806 -17.602  -9.179 -0.12 -0.01    +0.045    15.775
ATOM     21  C   UNL d   1       3.790 -16.995  -9.851 -0.12 -0.02    +0.057    15.775
ATOM     22  C   UNL d   1       0.857 -18.722  -8.773 -0.19 +0.01    -0.019    15.775
ATOM     23  C   UNL d   1       1.535 -18.464  -7.487 -0.20 -0.02    +0.045    15.775
ATOM     24  C   UNL d   1       1.615 -18.210  -9.771 -0.15 +0.01    -0.022    15.775
ATOM     25  C   UNL d   1       1.697 -18.669  -5.028 -0.21 -0.02    +0.049    15.775
ATOM     26  C   UNL d   1       2.329 -18.650  -2.835 -0.24 +0.00    -0.018    15.775
ATOM     27  C   UNL d   1       1.647 -19.395  -3.846 -0.21 -0.00    +0.003    15.775
ATOM     28  C   UNL d   1       1.069 -18.855  -6.290 -0.23 -0.04    +0.052    15.775
ATOM     29  C   UNL d   1       1.360 -18.229 -11.240 -0.11 -0.00    +0.046    15.775
ATOM     30  C   UNL d   1       2.498 -19.039  -1.406 -0.22 -0.00    +0.046    15.775
ATOM     31  H   UNL d   1       3.421 -17.532  -7.188 +0.02 -0.06    +0.166    15.775
ATOM     32  H   UNL d   1       2.649 -16.804  -5.431 +0.04 -0.07    +0.166    15.775
ATOM     33  C   UNL d   1       5.998 -14.892  -1.711 -0.20 -0.04    +0.141    15.775
ATOM     34  C   UNL d   1       7.232 -15.668  -2.085 -0.12 -0.12    +0.306    15.775
ATOM     35  O   UNL d   1       7.291 -16.867  -2.300 -0.06 +0.08    -0.251    15.775
ATOM     36  O   UNL d   1       8.326 -14.891  -2.172 -0.54 +0.33    -0.481    15.775
ATOM     37  H   UNL d   1       8.242 -14.442  -3.040 -0.42 -0.47    +0.295    15.775
ATOM     38  C   UNL d   1       0.989 -20.650  -3.643 -0.18 -0.00    +0.017    15.775
ATOM     39  C   UNL d   1      -0.228 -20.808  -3.100 -0.17 +0.00    +0.092    15.775
ATOM     40  C   UNL d   1      -0.799 -22.150  -2.964 -0.11 +0.06    +0.330    15.775
ATOM     41  O   UNL d   1      -0.260 -23.146  -2.520 -0.05 -0.03    -0.246    15.775
ATOM     42  O   UNL d   1      -2.067 -22.160  -3.403 -0.33 -0.08    -0.477    15.775
ATOM     43  H   UNL d   1      -2.124 -21.365  -3.972 -0.15 -0.18    +0.295    15.775
ATOM     44  C   UNL d   1       7.403 -13.869  -9.296 -0.13 -0.07    +0.141    15.775
ATOM     45  C   UNL d   1       6.227 -13.137  -9.886 -0.21 -0.14    +0.306    15.775
ATOM     46  O   UNL d   1       5.300 -12.637  -9.273 -0.40 +0.13    -0.251    15.775
ATOM     47  O   UNL d   1       6.268 -13.096 -11.230 -0.08 +0.16    -0.481    15.775
ATOM     48  H   UNL d   1       6.292 -14.036 -11.506 +0.07 -0.08    +0.295    15.775
ATOM     49  C   UNL d   1      -0.463 -19.424  -8.904 -0.24 -0.02    +0.048    15.775
ATOM     50  C   UNL d   1      -1.575 -18.469  -9.338 -0.28 -0.03    +0.125    15.775
ATOM     51  C   UNL d   1      -2.195 -18.920 -10.630 -0.17 +0.06    +0.305    15.775
ATOM     52  O   UNL d   1      -2.054 -18.426 -11.735 -0.84 -0.11    -0.251    15.775
ATOM     53  O   UNL d   1      -2.995 -19.991 -10.458 -0.15 -0.09    -0.481    15.775
ATOM     54  H   UNL d   1      -2.934 -20.182  -9.498 +0.10 -0.01    +0.295    15.775
TER
ENDMDL
MODEL       73
USER    Run = 73
USER    Cluster Rank = 3
USER    Number of conformations in this cluster = 1
USER  
USER    RMSD from reference structure       = 15.692 A
USER  
USER    Estimated Free Energy of Binding    =   -6.10 kcal/mol  [=(1)+(2)+(3)-(4)]
USER    Estimated Inhibition Constant, Ki   =   33.73 uM (micromolar)  [Temperature = 298.15 K]
USER    
USER    (1) Final Intermolecular Energy     =   -9.98 kcal/mol
USER        vdW + Hbond + desolv Energy     =   -9.08 kcal/mol
USER        Electrostatic Energy            =   -0.90 kcal/mol
USER    (2) Final Total Internal Energy     =   -3.45 kcal/mol
USER    (3) Torsional Free Energy           =   +3.88 kcal/mol
USER    (4) Unbound System's Energy  [=(2)] =   -3.45 kcal/mol
USER    
USER    
USER  
USER    DPF = D:/Protein_go_brrr/autodock/final/mut_Y35F/heme/dock.dpf
USER    NEWDPF move	heme_opt.pdbqt
USER    NEWDPF about	0.153000 0.018000 -0.028000
USER    NEWDPF tran0	4.133634 -18.350984 -0.819736
USER    NEWDPF axisangle0	-0.315525 -0.689970 -0.651449 -83.801091
USER    NEWDPF quaternion0	-0.210720 -0.460789 -0.435063 -0.744305
USER    NEWDPF dihe0	132.98 161.85 -167.31 63.10 26.96 -93.30 -49.84 47.32 -29.72 -174.50 -90.49 34.53 4.07 
USER  
USER                              x       y       z    vdW   Elec        q     RMS 
ATOM      1  O   UNL d   1       4.126 -14.444  -5.235 -0.57 +0.07    -0.289    15.692
ATOM      2  O   UNL d   1       0.325 -20.856  -4.321 -0.12 +0.17    -0.289    15.692
ATOM      3  N   UNL d   1       4.564 -16.502  -2.502 -0.14 +0.08    -0.247    15.692
ATOM      4  N   UNL d   1       2.465 -18.574  -2.864 -0.15 +0.04    -0.247    15.692
ATOM      5  N   UNL d   1       2.929 -19.386  -0.145 -0.11 +0.01    -0.354    15.692
ATOM      6  N   UNL d   1       5.091 -17.221   0.228 -0.06 +0.12    -0.354    15.692
ATOM      7  C   UNL d   1       5.390 -14.287  -3.148 -0.38 -0.03    +0.084    15.692
ATOM      8  C   UNL d   1       1.710 -19.014  -5.146 -0.16 -0.04    +0.084    15.692
ATOM      9  C   UNL d   1       2.557 -18.179  -4.179 -0.19 -0.02    +0.058    15.692
ATOM     10  C   UNL d   1       5.348 -15.425  -2.124 -0.29 -0.02    +0.058    15.692
ATOM     11  C   UNL d   1       4.505 -14.919  -4.180 -0.27 -0.06    +0.193    15.692
ATOM     12  C   UNL d   1       4.090 -16.269  -3.682 -0.22 -0.03    +0.109    15.692
ATOM     13  C   UNL d   1       1.091 -19.932  -4.129 -0.14 -0.08    +0.193    15.692
ATOM     14  C   UNL d   1       4.712 -13.018  -2.625 -0.61 -0.00    +0.026    15.692
ATOM     15  C   UNL d   1       3.283 -17.123  -4.578 -0.25 -0.02    +0.055    15.692
ATOM     16  C   UNL d   1       2.581 -19.843  -6.093 -0.08 -0.01    +0.026    15.692
ATOM     17  C   UNL d   1       1.625 -19.556  -2.786 -0.19 -0.01    +0.109    15.692
ATOM     18  C   UNL d   1       6.094 -15.390  -1.004 -0.19 -0.01    +0.050    15.692
ATOM     19  C   UNL d   1       6.184 -16.430  -0.044 -0.23 -0.01    +0.045    15.692
ATOM     20  C   UNL d   1       1.798 -20.111  -0.418 -0.08 +0.00    +0.045    15.692
ATOM     21  C   UNL d   1       1.160 -20.262  -1.583 -0.11 +0.01    +0.057    15.692
ATOM     22  C   UNL d   1       2.298 -20.330   1.800 -0.17 -0.00    -0.019    15.692
ATOM     23  C   UNL d   1       3.308 -19.457   1.169 -0.19 -0.00    +0.045    15.692
ATOM     24  C   UNL d   1       1.407 -20.715   0.856 -0.14 -0.00    -0.022    15.692
ATOM     25  C   UNL d   1       5.372 -18.099   1.249 -0.15 -0.01    +0.049    15.692
ATOM     26  C   UNL d   1       7.213 -16.828   0.796 -0.16 +0.00    -0.018    15.692
ATOM     27  C   UNL d   1       6.700 -17.896   1.596 -0.08 -0.00    +0.003    15.692
ATOM     28  C   UNL d   1       4.352 -18.913   1.813 -0.19 -0.01    +0.052    15.692
ATOM     29  C   UNL d   1       0.219 -21.603   1.001 -0.14 +0.01    +0.046    15.692
ATOM     30  C   UNL d   1       8.588 -16.256   0.852 -0.16 -0.01    +0.046    15.692
ATOM     31  H   UNL d   1       3.449 -18.925  -0.884 +0.04 -0.02    +0.166    15.692
ATOM     32  H   UNL d   1       4.199 -17.125  -0.242 -0.51 -0.09    +0.166    15.692
ATOM     33  C   UNL d   1       6.772 -13.984  -3.738 -0.25 -0.13    +0.141    15.692
ATOM     34  C   UNL d   1       7.746 -15.113  -3.539 -0.06 -0.29    +0.306    15.692
ATOM     35  O   UNL d   1       7.829 -16.121  -4.220 -0.07 +0.15    -0.251    15.692
ATOM     36  O   UNL d   1       8.567 -14.911  -2.494 -0.53 +0.44    -0.481    15.692
ATOM     37  H   UNL d   1       8.915 -14.003  -2.625 -0.44 -0.70    +0.295    15.692
ATOM     38  C   UNL d   1       7.432 -18.590   2.612 -0.03 -0.00    +0.017    15.692
ATOM     39  C   UNL d   1       7.874 -19.854   2.522 -0.01 -0.01    +0.092    15.692
ATOM     40  C   UNL d   1       8.629 -20.445   3.629 +0.00 -0.02    +0.330    15.692
ATOM     41  O   UNL d   1       9.837 -20.507   3.756 +0.00 +0.02    -0.246    15.692
ATOM     42  O   UNL d   1       7.788 -20.933   4.554 +0.00 +0.03    -0.477    15.692
ATOM     43  H   UNL d   1       6.938 -20.488   4.356 +0.01 -0.02    +0.295    15.692
ATOM     44  C   UNL d   1       0.633 -18.242  -5.916 -0.22 -0.12    +0.141    15.692
ATOM     45  C   UNL d   1       0.571 -18.604  -7.375 -0.18 -0.20    +0.306    15.692
ATOM     46  O   UNL d   1       1.138 -18.033  -8.291 -0.19 +0.11    -0.251    15.692
ATOM     47  O   UNL d   1      -0.229 -19.660  -7.611 -0.05 +0.40    -0.481    15.692
ATOM     48  H   UNL d   1      -0.716 -19.794  -6.770 -0.48 -0.61    +0.295    15.692
ATOM     49  C   UNL d   1       2.289 -20.692   3.257 -0.12 -0.00    +0.048    15.692
ATOM     50  C   UNL d   1       3.293 -21.799   3.574 -0.03 -0.01    +0.125    15.692
ATOM     51  C   UNL d   1       4.631 -21.222   3.940 -0.01 -0.02    +0.305    15.692
ATOM     52  O   UNL d   1       4.855 -20.248   4.636 -0.01 +0.02    -0.251    15.692
ATOM     53  O   UNL d   1       5.647 -21.913   3.384 +0.00 +0.03    -0.481    15.692
ATOM     54  H   UNL d   1       6.143 -22.265   4.152 +0.00 -0.02    +0.295    15.692
TER
ENDMDL
MODEL       46
USER    Run = 46
USER    Cluster Rank = 4
USER    Number of conformations in this cluster = 4
USER  
USER    RMSD from reference structure       = 11.904 A
USER  
USER    Estimated Free Energy of Binding    =   -6.05 kcal/mol  [=(1)+(2)+(3)-(4)]
USER    Estimated Inhibition Constant, Ki   =   36.69 uM (micromolar)  [Temperature = 298.15 K]
USER    
USER    (1) Final Intermolecular Energy     =   -9.93 kcal/mol
USER        vdW + Hbond + desolv Energy     =   -9.50 kcal/mol
USER        Electrostatic Energy            =   -0.42 kcal/mol
USER    (2) Final Total Internal Energy     =   -1.05 kcal/mol
USER    (3) Torsional Free Energy           =   +3.88 kcal/mol
USER    (4) Unbound System's Energy  [=(2)] =   -1.05 kcal/mol
USER    
USER    
USER  
USER    DPF = D:/Protein_go_brrr/autodock/final/mut_Y35F/heme/dock.dpf
USER    NEWDPF move	heme_opt.pdbqt
USER    NEWDPF about	0.153000 0.018000 -0.028000
USER    NEWDPF tran0	2.873904 -9.509862 10.162091
USER    NEWDPF axisangle0	-0.971485 0.113674 0.208076 -136.118359
USER    NEWDPF quaternion0	-0.901120 0.105440 0.193005 -0.373649
USER    NEWDPF dihe0	39.88 148.00 148.88 74.34 32.26 41.68 -57.55 16.64 -123.57 -93.84 23.16 180.00 -139.03 
USER  
USER                              x       y       z    vdW   Elec        q     RMS 
ATOM      1  O   UNL d   1      -2.933  -9.970  11.069 -0.15 +0.03    -0.289    11.904
ATOM      2  O   UNL d   1       2.519  -7.131  15.382 -0.05 +0.17    -0.289    11.904
ATOM      3  N   UNL d   1       0.394 -10.042  10.163 -0.12 +0.04    -0.247    11.904
ATOM      4  N   UNL d   1       1.717  -8.454  12.298 -0.11 +0.13    -0.247    11.904
ATOM      5  N   UNL d   1       4.065  -8.356  10.641 -0.05 +0.10    -0.354    11.904
ATOM      6  N   UNL d   1       2.678  -9.987   8.423 -0.10 +0.01    -0.354    11.904
ATOM      7  C   UNL d   1      -1.712 -10.639   9.060 -0.27 -0.01    +0.084    11.904
ATOM      8  C   UNL d   1       0.610  -8.365  14.474 -0.10 -0.03    +0.084    11.904
ATOM      9  C   UNL d   1       0.590  -8.804  13.006 -0.14 -0.02    +0.058    11.904
ATOM     10  C   UNL d   1      -0.185 -10.527   9.002 -0.26 -0.01    +0.058    11.904
ATOM     11  C   UNL d   1      -1.891 -10.148  10.465 -0.18 -0.03    +0.193    11.904
ATOM     12  C   UNL d   1      -0.540  -9.843  11.034 -0.17 -0.02    +0.109    11.904
ATOM     13  C   UNL d   1       1.942  -7.669  14.458 -0.05 -0.13    +0.193    11.904
ATOM     14  C   UNL d   1      -2.396  -9.660   8.102 -0.45 -0.00    +0.026    11.904
ATOM     15  C   UNL d   1      -0.460  -9.428  12.450 -0.16 -0.01    +0.055    11.904
ATOM     16  C   UNL d   1       0.692  -9.564  15.424 -0.04 -0.01    +0.026    11.904
ATOM     17  C   UNL d   1       2.506  -7.789  13.079 -0.07 -0.09    +0.109    11.904
ATOM     18  C   UNL d   1       0.512 -10.958   7.934 +0.04 -0.01    +0.050    11.904
ATOM     19  C   UNL d   1       1.926 -10.973   7.826 -0.26 -0.00    +0.045    11.904
ATOM     20  C   UNL d   1       4.424  -7.457  11.611 -0.14 -0.02    +0.045    11.904
ATOM     21  C   UNL d   1       3.793  -7.159  12.752 -0.08 -0.05    +0.057    11.904
ATOM     22  C   UNL d   1       5.998  -7.423   9.956 -0.15 +0.00    -0.019    11.904
ATOM     23  C   UNL d   1       4.954  -8.406   9.600 -0.16 -0.01    +0.045    11.904
ATOM     24  C   UNL d   1       5.679  -6.866  11.148 -0.13 +0.01    -0.022    11.904
ATOM     25  C   UNL d   1       4.010 -10.143   8.116 -0.19 -0.00    +0.049    11.904
ATOM     26  C   UNL d   1       2.794 -11.812   7.145 -0.26 +0.00    -0.018    11.904
ATOM     27  C   UNL d   1       4.110 -11.295   7.348 -0.19 -0.00    +0.003    11.904
ATOM     28  C   UNL d   1       4.964  -9.158   8.489 -0.22 -0.00    +0.052    11.904
ATOM     29  C   UNL d   1       6.425  -5.836  11.925 -0.10 -0.02    +0.046    11.904
ATOM     30  C   UNL d   1       2.426 -13.023   6.356 -0.37 -0.01    +0.046    11.904
ATOM     31  H   UNL d   1       3.260  -8.962  10.757 +0.05 -0.04    +0.166    11.904
ATOM     32  H   UNL d   1       2.281  -9.235   8.974 +0.09 -0.00    +0.166    11.904
ATOM     33  C   UNL d   1      -2.273 -12.057   8.910 -0.20 -0.01    +0.141    11.904
ATOM     34  C   UNL d   1      -2.233 -12.549   7.488 -0.26 -0.02    +0.306    11.904
ATOM     35  O   UNL d   1      -1.293 -13.102   6.944 -0.33 +0.02    -0.251    11.904
ATOM     36  O   UNL d   1      -3.382 -12.319   6.828 -0.24 +0.02    -0.481    11.904
ATOM     37  H   UNL d   1      -3.502 -13.110   6.260 -0.38 -0.06    +0.295    11.904
ATOM     38  C   UNL d   1       5.310 -11.855   6.803 -0.20 -0.00    +0.017    11.904
ATOM     39  C   UNL d   1       5.422 -12.413   5.588 -0.25 -0.02    +0.092    11.904
ATOM     40  C   UNL d   1       6.715 -12.935   5.140 -0.17 -0.06    +0.330    11.904
ATOM     41  O   UNL d   1       7.538 -13.545   5.796 -0.07 +0.04    -0.246    11.904
ATOM     42  O   UNL d   1       6.901 -12.657   3.841 -0.60 +0.03    -0.477    11.904
ATOM     43  H   UNL d   1       5.997 -12.678   3.465 -0.43 -0.11    +0.295    11.904
ATOM     44  C   UNL d   1      -0.507  -7.403  14.891 -0.19 -0.05    +0.141    11.904
ATOM     45  C   UNL d   1      -0.059  -6.370  15.891 -0.07 -0.13    +0.306    11.904
ATOM     46  O   UNL d   1      -0.265  -6.384  17.092 -0.08 +0.06    -0.251    11.904
ATOM     47  O   UNL d   1       0.607  -5.352  15.316 -0.11 +0.40    -0.481    11.904
ATOM     48  H   UNL d   1       1.068  -5.758  14.551 -0.14 -0.45    +0.295    11.904
ATOM     49  C   UNL d   1       7.189  -7.113   9.099 -0.20 -0.00    +0.048    11.904
ATOM     50  C   UNL d   1       7.472  -5.612   9.040 -0.10 -0.00    +0.125    11.904
ATOM     51  C   UNL d   1       8.234  -5.258   7.794 -0.23 -0.02    +0.305    11.904
ATOM     52  O   UNL d   1       8.455  -5.970   6.831 -0.32 +0.03    -0.251    11.904
ATOM     53  O   UNL d   1       8.700  -3.993   7.831 -0.18 +0.02    -0.481    11.904
ATOM     54  H   UNL d   1       8.117  -3.507   7.211 -0.21 -0.07    +0.295    11.904
TER
ENDMDL
MODEL       12
USER    Run = 12
USER    Cluster Rank = 5
USER    Number of conformations in this cluster = 1
USER  
USER    RMSD from reference structure       = 17.280 A
USER  
USER    Estimated Free Energy of Binding    =   -6.05 kcal/mol  [=(1)+(2)+(3)-(4)]
USER    Estimated Inhibition Constant, Ki   =   36.70 uM (micromolar)  [Temperature = 298.15 K]
USER    
USER    (1) Final Intermolecular Energy     =   -9.93 kcal/mol
USER        vdW + Hbond + desolv Energy     =   -9.14 kcal/mol
USER        Electrostatic Energy            =   -0.79 kcal/mol
USER    (2) Final Total Internal Energy     =   -1.75 kcal/mol
USER    (3) Torsional Free Energy           =   +3.88 kcal/mol
USER    (4) Unbound System's Energy  [=(2)] =   -1.75 kcal/mol
USER    
USER    
USER  
USER    DPF = D:/Protein_go_brrr/autodock/final/mut_Y35F/heme/dock.dpf
USER    NEWDPF move	heme_opt.pdbqt
USER    NEWDPF about	0.153000 0.018000 -0.028000
USER    NEWDPF tran0	-5.534933 19.491884 4.696999
USER    NEWDPF axisangle0	-0.696523 -0.385797 0.604993 82.563463
USER    NEWDPF quaternion0	-0.459539 -0.254534 0.399151 0.751475
USER    NEWDPF dihe0	-105.29 -36.56 101.92 87.74 36.39 -127.56 14.70 130.11 128.71 -6.76 58.79 -92.36 9.00 
USER  
USER                              x       y       z    vdW   Elec        q     RMS 
ATOM      1  O   UNL d   1      -7.212  21.404  10.016 -0.08 +0.21    -0.289    17.280
ATOM      2  O   UNL d   1     -11.067  20.621   3.618 -0.02 +0.05    -0.289    17.280
ATOM      3  N   UNL d   1      -5.753  20.357   7.071 -0.09 +0.15    -0.247    17.280
ATOM      4  N   UNL d   1      -8.065  20.066   5.228 -0.19 +0.12    -0.247    17.280
ATOM      5  N   UNL d   1      -6.337  18.628   3.436 -0.12 +0.14    -0.354    17.280
ATOM      6  N   UNL d   1      -3.948  18.918   5.362 -0.13 +0.13    -0.354    17.280
ATOM      7  C   UNL d   1      -4.997  20.580   9.392 -0.15 -0.05    +0.084    17.280
ATOM      8  C   UNL d   1     -10.039  21.431   5.687 -0.06 -0.03    +0.084    17.280
ATOM      9  C   UNL d   1      -8.647  20.950   6.109 -0.15 -0.03    +0.058    17.280
ATOM     10  C   UNL d   1      -4.691  20.188   7.944 -0.21 -0.03    +0.058    17.280
ATOM     11  C   UNL d   1      -6.415  21.018   9.180 -0.12 -0.13    +0.193    17.280
ATOM     12  C   UNL d   1      -6.746  20.859   7.729 -0.17 -0.07    +0.109    17.280
ATOM     13  C   UNL d   1     -10.155  20.628   4.422 -0.06 -0.05    +0.193    17.280
ATOM     14  C   UNL d   1      -4.988  19.369  10.329 -0.26 -0.02    +0.026    17.280
ATOM     15  C   UNL d   1      -8.071  21.319   7.263 -0.16 -0.03    +0.055    17.280
ATOM     16  C   UNL d   1     -10.041  22.919   5.327 -0.02 -0.01    +0.026    17.280
ATOM     17  C   UNL d   1      -8.896  19.838   4.263 -0.14 -0.03    +0.109    17.280
ATOM     18  C   UNL d   1      -3.457  19.802   7.566 -0.28 -0.02    +0.050    17.280
ATOM     19  C   UNL d   1      -3.060  19.502   6.238 -0.27 -0.02    +0.045    17.280
ATOM     20  C   UNL d   1      -7.546  18.397   2.833 -0.18 -0.01    +0.045    17.280
ATOM     21  C   UNL d   1      -8.741  18.919   3.126 -0.13 -0.01    +0.057    17.280
ATOM     22  C   UNL d   1      -5.947  17.148   1.783 -0.24 +0.00    -0.019    17.280
ATOM     23  C   UNL d   1      -5.311  17.918   2.871 -0.27 -0.01    +0.045    17.280
ATOM     24  C   UNL d   1      -7.270  17.437   1.765 -0.17 +0.01    -0.022    17.280
ATOM     25  C   UNL d   1      -3.331  18.634   4.166 -0.13 -0.01    +0.049    17.280
ATOM     26  C   UNL d   1      -1.846  19.634   5.582 -0.23 +0.00    -0.018    17.280
ATOM     27  C   UNL d   1      -2.028  19.102   4.268 -0.22 -0.00    +0.003    17.280
ATOM     28  C   UNL d   1      -4.001  17.887   3.160 -0.16 -0.01    +0.052    17.280
ATOM     29  C   UNL d   1      -8.325  16.921   0.847 -0.11 -0.01    +0.046    17.280
ATOM     30  C   UNL d   1      -0.593  20.221   6.138 -0.23 -0.01    +0.046    17.280
ATOM     31  H   UNL d   1      -6.238  19.323   4.168 -0.16 -0.08    +0.166    17.280
ATOM     32  H   UNL d   1      -4.908  18.699   5.601 -0.46 -0.11    +0.166    17.280
ATOM     33  C   UNL d   1      -4.156  21.731   9.953 -0.03 -0.05    +0.141    17.280
ATOM     34  C   UNL d   1      -4.566  22.122  11.347 +0.00 -0.10    +0.306    17.280
ATOM     35  O   UNL d   1      -4.115  21.669  12.385 -0.00 +0.08    -0.251    17.280
ATOM     36  O   UNL d   1      -5.523  23.068  11.360 +0.01 +0.14    -0.481    17.280
ATOM     37  H   UNL d   1      -6.334  22.602  11.065 +0.02 -0.11    +0.295    17.280
ATOM     38  C   UNL d   1      -1.014  19.029   3.260 -0.25 -0.00    +0.017    17.280
ATOM     39  C   UNL d   1      -0.632  17.910   2.626 -0.33 -0.02    +0.092    17.280
ATOM     40  C   UNL d   1       0.409  17.972   1.597 -0.25 -0.08    +0.330    17.280
ATOM     41  O   UNL d   1       0.370  17.516   0.471 -0.31 +0.06    -0.246    17.280
ATOM     42  O   UNL d   1       1.477  18.640   2.061 -0.12 +0.10    -0.477    17.280
ATOM     43  H   UNL d   1       2.239  18.167   1.669 -0.26 -0.12    +0.295    17.280
ATOM     44  C   UNL d   1     -11.177  21.094   6.657 -0.08 -0.06    +0.141    17.280
ATOM     45  C   UNL d   1     -11.295  19.621   6.945 -0.12 -0.20    +0.306    17.280
ATOM     46  O   UNL d   1     -10.994  18.707   6.196 -0.37 +0.11    -0.251    17.280
ATOM     47  O   UNL d   1     -11.816  19.374   8.161 -0.05 +0.48    -0.481    17.280
ATOM     48  H   UNL d   1     -11.069  19.511   8.783 -0.47 -0.66    +0.295    17.280
ATOM     49  C   UNL d   1      -5.213  16.200   0.881 -0.19 -0.02    +0.048    17.280
ATOM     50  C   UNL d   1      -4.360  16.940  -0.149 -0.21 -0.06    +0.125    17.280
ATOM     51  C   UNL d   1      -4.780  16.586  -1.547 -0.13 -0.22    +0.305    17.280
ATOM     52  O   UNL d   1      -5.132  17.346  -2.432 -0.06 +0.14    -0.251    17.280
ATOM     53  O   UNL d   1      -4.747  15.256  -1.762 -0.16 +0.54    -0.481    17.280
ATOM     54  H   UNL d   1      -3.853  15.097  -2.131 -0.41 -0.75    +0.295    17.280
TER
ENDMDL
MODEL       57
USER    Run = 57
USER    Cluster Rank = 6
USER    Number of conformations in this cluster = 1
USER  
USER    RMSD from reference structure       = 9.982 A
USER  
USER    Estimated Free Energy of Binding    =   -6.05 kcal/mol  [=(1)+(2)+(3)-(4)]
USER    Estimated Inhibition Constant, Ki   =   36.94 uM (micromolar)  [Temperature = 298.15 K]
USER    
USER    (1) Final Intermolecular Energy     =   -9.92 kcal/mol
USER        vdW + Hbond + desolv Energy     =   -9.76 kcal/mol
USER        Electrostatic Energy            =   -0.17 kcal/mol
USER    (2) Final Total Internal Energy     =   -2.27 kcal/mol
USER    (3) Torsional Free Energy           =   +3.88 kcal/mol
USER    (4) Unbound System's Energy  [=(2)] =   -2.27 kcal/mol
USER    
USER    
USER  
USER    DPF = D:/Protein_go_brrr/autodock/final/mut_Y35F/heme/dock.dpf
USER    NEWDPF move	heme_opt.pdbqt
USER    NEWDPF about	0.153000 0.018000 -0.028000
USER    NEWDPF tran0	8.105211 7.187286 5.919665
USER    NEWDPF axisangle0	-0.903165 -0.041509 -0.427281 113.338131
USER    NEWDPF quaternion0	-0.754605 -0.034682 -0.356998 0.549474
USER    NEWDPF dihe0	99.21 -11.58 158.04 120.18 -136.57 -121.98 -55.34 119.59 54.89 -156.44 71.49 0.49 -41.43 
USER  
USER                              x       y       z    vdW   Elec        q     RMS 
ATOM      1  O   UNL d   1       3.738   3.506   4.461 -0.23 -0.02    -0.289     9.982
ATOM      2  O   UNL d   1       6.868   9.184   0.674 -0.25 -0.02    -0.289     9.982
ATOM      3  N   UNL d   1       6.217   5.499   5.794 -0.27 -0.07    -0.247     9.982
ATOM      4  N   UNL d   1       7.014   7.220   3.507 -0.56 -0.07    -0.247     9.982
ATOM      5  N   UNL d   1       9.338   7.989   5.015 -0.11 -0.06    -0.354     9.982
ATOM      6  N   UNL d   1       8.514   6.186   7.376 -0.15 -0.27    -0.354     9.982
ATOM      7  C   UNL d   1       5.048   3.472   6.525 -0.40 +0.01    +0.084     9.982
ATOM      8  C   UNL d   1       5.339   7.622   1.774 -0.39 +0.01    +0.084     9.982
ATOM      9  C   UNL d   1       5.753   6.896   3.059 -0.15 +0.02    +0.058     9.982
ATOM     10  C   UNL d   1       6.104   4.547   6.795 -0.37 +0.02    +0.058     9.982
ATOM     11  C   UNL d   1       4.570   3.994   5.203 -0.21 +0.03    +0.193     9.982
ATOM     12  C   UNL d   1       5.338   5.239   4.882 -0.19 +0.03    +0.109     9.982
ATOM     13  C   UNL d   1       6.613   8.388   1.556 -0.04 +0.01    +0.193     9.982
ATOM     14  C   UNL d   1       5.674   2.091   6.314 +0.07 +0.00    +0.026     9.982
ATOM     15  C   UNL d   1       4.972   5.987   3.662 +0.09 +0.01    +0.055     9.982
ATOM     16  C   UNL d   1       4.202   8.617   2.025 -0.38 +0.00    +0.026     9.982
ATOM     17  C   UNL d   1       7.548   8.051   2.671 -0.31 +0.01    +0.109     9.982
ATOM     18  C   UNL d   1       6.784   4.589   7.956 -0.37 +0.03    +0.050     9.982
ATOM     19  C   UNL d   1       7.717   5.591   8.327 -0.28 +0.04    +0.045     9.982
ATOM     20  C   UNL d   1       9.656   8.533   3.798 -0.37 +0.00    +0.045     9.982
ATOM     21  C   UNL d   1       8.902   8.625   2.698 -0.31 -0.00    +0.057     9.982
ATOM     22  C   UNL d   1      11.453   8.742   5.193 -0.20 -0.00    -0.019     9.982
ATOM     23  C   UNL d   1      10.360   8.068   5.923 -0.21 +0.01    +0.045     9.982
ATOM     24  C   UNL d   1      11.029   9.016   3.936 -0.33 -0.00    -0.022     9.982
ATOM     25  C   UNL d   1       9.401   7.057   7.964 -0.23 +0.04    +0.049     9.982
ATOM     26  C   UNL d   1       8.069   6.116   9.561 -0.15 -0.02    -0.018     9.982
ATOM     27  C   UNL d   1       9.120   7.055   9.323 -0.13 +0.00    +0.003     9.982
ATOM     28  C   UNL d   1      10.431   7.673   7.203 -0.21 +0.03    +0.052     9.982
ATOM     29  C   UNL d   1      11.764   9.696   2.832 -0.19 -0.01    +0.046     9.982
ATOM     30  C   UNL d   1       7.468   5.770  10.881 -0.15 +0.04    +0.046     9.982
ATOM     31  H   UNL d   1       8.403   7.646   5.210 +0.08 +0.03    +0.166     9.982
ATOM     32  H   UNL d   1       8.465   5.966   6.388 +0.08 +0.09    +0.166     9.982
ATOM     33  C   UNL d   1       3.893   3.418   7.531 -0.02 +0.02    +0.141     9.982
ATOM     34  C   UNL d   1       2.633   4.047   7.000 -0.20 +0.02    +0.306     9.982
ATOM     35  O   UNL d   1       2.367   5.237   6.998 -0.38 -0.01    -0.251     9.982
ATOM     36  O   UNL d   1       1.774   3.142   6.497 -0.18 -0.01    -0.481     9.982
ATOM     37  H   UNL d   1       2.089   2.985   5.582 +0.23 +0.01    +0.295     9.982
ATOM     38  C   UNL d   1       9.789   7.818  10.334 -0.06 +0.01    +0.017     9.982
ATOM     39  C   UNL d   1      10.202   9.087  10.200 -0.12 +0.04    +0.092     9.982
ATOM     40  C   UNL d   1      10.862   9.763  11.320 -0.07 +0.12    +0.330     9.982
ATOM     41  O   UNL d   1      10.540  10.808  11.852 -0.12 -0.11    -0.246     9.982
ATOM     42  O   UNL d   1      11.924   9.051  11.727 +0.00 -0.17    -0.477     9.982
ATOM     43  H   UNL d   1      12.398   9.660  12.330 +0.03 +0.09    +0.295     9.982
ATOM     44  C   UNL d   1       5.030   6.719   0.576 -0.39 +0.01    +0.141     9.982
ATOM     45  C   UNL d   1       4.075   7.341  -0.408 -0.33 +0.02    +0.306     9.982
ATOM     46  O   UNL d   1       2.878   7.127  -0.494 -0.44 -0.01    -0.251     9.982
ATOM     47  O   UNL d   1       4.688   8.187  -1.255 -0.17 -0.04    -0.481     9.982
ATOM     48  H   UNL d   1       5.507   8.457  -0.787 +0.26 +0.02    +0.295     9.982
ATOM     49  C   UNL d   1      12.801   9.040   5.781 -0.12 +0.01    +0.048     9.982
ATOM     50  C   UNL d   1      13.154  10.523   5.673 -0.09 +0.01    +0.125     9.982
ATOM     51  C   UNL d   1      14.218  10.747   4.638 -0.06 +0.05    +0.305     9.982
ATOM     52  O   UNL d   1      14.111  11.338   3.577 -0.16 -0.02    -0.251     9.982
ATOM     53  O   UNL d   1      15.394  10.191   4.994 -0.56 -0.21    -0.481     9.982
ATOM     54  H   UNL d   1      15.624  10.640   5.834 +0.04 +0.07    +0.295     9.982
TER
ENDMDL
MODEL       84
USER    Run = 84
USER    Cluster Rank = 7
USER    Number of conformations in this cluster = 3
USER  
USER    RMSD from reference structure       = 14.039 A
USER  
USER    Estimated Free Energy of Binding    =   -5.95 kcal/mol  [=(1)+(2)+(3)-(4)]
USER    Estimated Inhibition Constant, Ki   =   43.30 uM (micromolar)  [Temperature = 298.15 K]
USER    
USER    (1) Final Intermolecular Energy     =   -9.83 kcal/mol
USER        vdW + Hbond + desolv Energy     =   -9.62 kcal/mol
USER        Electrostatic Energy            =   -0.21 kcal/mol
USER    (2) Final Total Internal Energy     =   -1.77 kcal/mol
USER    (3) Torsional Free Energy           =   +3.88 kcal/mol
USER    (4) Unbound System's Energy  [=(2)] =   -1.77 kcal/mol
USER    
USER    
USER  
USER    DPF = D:/Protein_go_brrr/autodock/final/mut_Y35F/heme/dock.dpf
USER    NEWDPF move	heme_opt.pdbqt
USER    NEWDPF about	0.153000 0.018000 -0.028000
USER    NEWDPF tran0	-3.401405 -8.841408 -13.248768
USER    NEWDPF axisangle0	-0.119309 0.239709 -0.963486 -108.132649
USER    NEWDPF quaternion0	-0.096604 0.194092 -0.780131 -0.586848
USER    NEWDPF dihe0	-46.75 89.84 -119.23 34.46 -133.67 -147.17 135.76 -161.92 -121.91 -50.90 20.04 -80.28 7.01 
USER  
USER                              x       y       z    vdW   Elec        q     RMS 
ATOM      1  O   UNL d   1      -0.031  -4.015 -12.932 -0.14 -0.07    -0.289    14.039
ATOM      2  O   UNL d   1      -7.477  -4.867 -12.458 -0.58 -0.03    -0.289    14.039
ATOM      3  N   UNL d   1      -1.591  -7.067 -13.317 -0.12 -0.01    -0.247    14.039
ATOM      4  N   UNL d   1      -4.429  -6.470 -12.671 -0.09 +0.00    -0.247    14.039
ATOM      5  N   UNL d   1      -4.891  -9.303 -12.509 -0.06 +0.02    -0.354    14.039
ATOM      6  N   UNL d   1      -1.940  -9.913 -13.161 -0.13 +0.02    -0.354    14.039
ATOM      7  C   UNL d   1       0.740  -6.319 -13.193 -0.26 +0.02    +0.084    14.039
ATOM      8  C   UNL d   1      -5.198  -4.178 -13.024 -0.09 +0.00    +0.084    14.039
ATOM      9  C   UNL d   1      -4.048  -5.191 -13.009 -0.13 +0.00    +0.058    14.039
ATOM     10  C   UNL d   1      -0.265  -7.466 -13.338 -0.26 +0.00    +0.058    14.039
ATOM     11  C   UNL d   1      -0.252  -5.199 -13.106 -0.15 +0.03    +0.193    14.039
ATOM     12  C   UNL d   1      -1.629  -5.778 -13.220 -0.17 +0.01    +0.109    14.039
ATOM     13  C   UNL d   1      -6.295  -5.111 -12.597 -0.10 +0.00    +0.193    14.039
ATOM     14  C   UNL d   1       1.516  -6.397 -11.876 -0.29 +0.01    +0.026    14.039
ATOM     15  C   UNL d   1      -2.774  -4.846 -13.253 -0.15 +0.00    +0.055    14.039
ATOM     16  C   UNL d   1      -5.498  -3.681 -14.442 -0.03 +0.00    +0.026    14.039
ATOM     17  C   UNL d   1      -5.696  -6.468 -12.408 -0.15 -0.00    +0.109    14.039
ATOM     18  C   UNL d   1       0.139  -8.731 -13.556 -0.26 +0.00    +0.050    14.039
ATOM     19  C   UNL d   1      -0.716  -9.840 -13.785 -0.25 +0.00    +0.045    14.039
ATOM     20  C   UNL d   1      -6.080  -8.842 -12.006 -0.23 -0.01    +0.045    14.039
ATOM     21  C   UNL d   1      -6.532  -7.585 -11.945 -0.24 -0.01    +0.057    14.039
ATOM     22  C   UNL d   1      -6.010 -11.113 -11.769 -0.35 +0.00    -0.019    14.039
ATOM     23  C   UNL d   1      -4.758 -10.663 -12.409 -0.26 -0.00    +0.045    14.039
ATOM     24  C   UNL d   1      -6.789 -10.030 -11.534 -0.34 +0.01    -0.022    14.039
ATOM     25  C   UNL d   1      -2.560 -11.106 -13.451 -0.22 -0.00    +0.049    14.039
ATOM     26  C   UNL d   1      -0.552 -10.997 -14.529 -0.18 +0.00    -0.018    14.039
ATOM     27  C   UNL d   1      -1.728 -11.785 -14.331 -0.16 -0.00    +0.003    14.039
ATOM     28  C   UNL d   1      -3.766 -11.479 -12.798 -0.31 -0.01    +0.052    14.039
ATOM     29  C   UNL d   1      -8.146  -9.973 -10.919 -0.43 -0.02    +0.046    14.039
ATOM     30  C   UNL d   1       0.623 -11.353 -15.376 -0.14 +0.00    +0.046    14.039
ATOM     31  H   UNL d   1      -4.238  -8.680 -12.972 +0.06 -0.00    +0.166    14.039
ATOM     32  H   UNL d   1      -2.298  -9.194 -12.543 +0.07 -0.01    +0.166    14.039
ATOM     33  C   UNL d   1       1.679  -6.114 -14.387 -0.15 +0.05    +0.141    14.039
ATOM     34  C   UNL d   1       2.751  -7.167 -14.468 -0.15 +0.11    +0.306    14.039
ATOM     35  O   UNL d   1       3.777  -7.202 -13.811 -0.77 -0.17    -0.251    14.039
ATOM     36  O   UNL d   1       2.472  -8.122 -15.373 -0.07 -0.07    -0.481    14.039
ATOM     37  H   UNL d   1       3.290  -8.201 -15.909 +0.05 +0.03    +0.295    14.039
ATOM     38  C   UNL d   1      -1.966 -13.073 -14.909 -0.12 +0.00    +0.017    14.039
ATOM     39  C   UNL d   1      -2.480 -14.129 -14.260 -0.17 +0.01    +0.092    14.039
ATOM     40  C   UNL d   1      -2.691 -15.391 -14.974 -0.10 +0.06    +0.330    14.039
ATOM     41  O   UNL d   1      -3.549 -16.228 -14.767 -0.19 -0.09    -0.246    14.039
ATOM     42  O   UNL d   1      -1.781 -15.528 -15.951 +0.00 -0.07    -0.477    14.039
ATOM     43  H   UNL d   1      -2.207 -15.114 -16.729 +0.03 +0.04    +0.295    14.039
ATOM     44  C   UNL d   1      -5.060  -3.008 -12.044 -0.05 +0.00    +0.141    14.039
ATOM     45  C   UNL d   1      -5.877  -3.182 -10.792 -0.17 +0.02    +0.306    14.039
ATOM     46  O   UNL d   1      -5.507  -3.691  -9.748 -0.32 -0.01    -0.251    14.039
ATOM     47  O   UNL d   1      -7.136  -2.728 -10.931 -0.05 -0.07    -0.481    14.039
ATOM     48  H   UNL d   1      -7.512  -3.260 -11.664 +0.06 +0.05    +0.295    14.039
ATOM     49  C   UNL d   1      -6.320 -12.543 -11.437 -0.02 -0.02    +0.048    14.039
ATOM     50  C   UNL d   1      -6.720 -13.341 -12.677 -0.29 -0.01    +0.125    14.039
ATOM     51  C   UNL d   1      -7.493 -14.572 -12.297 -0.27 -0.01    +0.305    14.039
ATOM     52  O   UNL d   1      -7.786 -15.516 -13.009 -0.21 -0.03    -0.251    14.039
ATOM     53  O   UNL d   1      -7.881 -14.545 -11.006 -0.31 +0.08    -0.481    14.039
ATOM     54  H   UNL d   1      -7.842 -15.483 -10.726 -0.21 -0.07    +0.295    14.039
TER
ENDMDL
MODEL       16
USER    Run = 16
USER    Cluster Rank = 8
USER    Number of conformations in this cluster = 1
USER  
USER    RMSD from reference structure       = 17.251 A
USER  
USER    Estimated Free Energy of Binding    =   -5.91 kcal/mol  [=(1)+(2)+(3)-(4)]
USER    Estimated Inhibition Constant, Ki   =   46.74 uM (micromolar)  [Temperature = 298.15 K]
USER    
USER    (1) Final Intermolecular Energy     =   -9.79 kcal/mol
USER        vdW + Hbond + desolv Energy     =   -9.56 kcal/mol
USER        Electrostatic Energy            =   -0.23 kcal/mol
USER    (2) Final Total Internal Energy     =   -2.48 kcal/mol
USER    (3) Torsional Free Energy           =   +3.88 kcal/mol
USER    (4) Unbound System's Energy  [=(2)] =   -2.48 kcal/mol
USER    
USER    
USER  
USER    DPF = D:/Protein_go_brrr/autodock/final/mut_Y35F/heme/dock.dpf
USER    NEWDPF move	heme_opt.pdbqt
USER    NEWDPF about	0.153000 0.018000 -0.028000
USER    NEWDPF tran0	12.968038 12.947232 -11.025632
USER    NEWDPF axisangle0	-0.655963 -0.347911 0.669829 102.483750
USER    NEWDPF quaternion0	-0.511517 -0.271299 0.522330 0.626034
USER    NEWDPF dihe0	126.74 -179.51 123.40 -67.41 -131.96 -50.19 -61.95 89.61 21.14 -145.89 92.60 -48.34 178.20 
USER  
USER                              x       y       z    vdW   Elec        q     RMS 
ATOM      1  O   UNL d   1      12.692  14.344  -5.305 -0.06 +0.13    -0.289    17.251
ATOM      2  O   UNL d   1       7.945  15.740 -10.954 -0.12 -0.02    -0.289    17.251
ATOM      3  N   UNL d   1      13.349  13.434  -8.566 -0.12 +0.06    -0.247    17.251
ATOM      4  N   UNL d   1      10.828  14.110  -9.986 -0.15 +0.03    -0.247    17.251
ATOM      5  N   UNL d   1      11.778  12.564 -12.216 -0.07 +0.06    -0.354    17.251
ATOM      6  N   UNL d   1      14.382  11.851 -10.728 -0.09 +0.13    -0.354    17.251
ATOM      7  C   UNL d   1      14.447  13.049  -6.408 -0.31 -0.02    +0.084    17.251
ATOM      8  C   UNL d   1       9.442  15.877  -9.022 -0.20 +0.00    +0.084    17.251
ATOM      9  C   UNL d   1      10.667  14.963  -8.916 -0.24 -0.00    +0.058    17.251
ATOM     10  C   UNL d   1      14.419  12.832  -7.924 -0.22 -0.02    +0.058    17.251
ATOM     11  C   UNL d   1      13.213  13.895  -6.309 -0.26 -0.06    +0.193    17.251
ATOM     12  C   UNL d   1      12.654  14.078  -7.686 -0.24 -0.02    +0.109    17.251
ATOM     13  C   UNL d   1       8.917  15.359 -10.331 -0.15 +0.00    +0.193    17.251
ATOM     14  C   UNL d   1      14.217  11.746  -5.637 -0.54 -0.01    +0.026    17.251
ATOM     15  C   UNL d   1      11.481  14.960  -7.849 -0.28 -0.01    +0.055    17.251
ATOM     16  C   UNL d   1       9.843  17.345  -9.198 -0.09 -0.00    +0.026    17.251
ATOM     17  C   UNL d   1       9.843  14.287 -10.806 -0.21 -0.01    +0.109    17.251
ATOM     18  C   UNL d   1      15.413  12.185  -8.560 -0.25 -0.01    +0.050    17.251
ATOM     19  C   UNL d   1      15.516  12.010  -9.964 -0.21 -0.01    +0.045    17.251
ATOM     20  C   UNL d   1      10.485  12.783 -12.614 -0.16 -0.00    +0.045    17.251
ATOM     21  C   UNL d   1       9.555  13.562 -12.053 -0.24 -0.00    +0.057    17.251
ATOM     22  C   UNL d   1      11.471  11.328 -14.074 -0.13 +0.00    -0.019    17.251
ATOM     23  C   UNL d   1      12.453  11.698 -13.035 -0.15 -0.01    +0.045    17.251
ATOM     24  C   UNL d   1      10.309  11.974 -13.820 -0.02 +0.00    -0.022    17.251
ATOM     25  C   UNL d   1      14.715  11.607 -12.040 -0.21 -0.01    +0.049    17.251
ATOM     26  C   UNL d   1      16.611  11.904 -10.806 -0.19 +0.00    -0.018    17.251
ATOM     27  C   UNL d   1      16.099  11.669 -12.120 -0.17 -0.00    +0.003    17.251
ATOM     28  C   UNL d   1      13.719  11.255 -12.992 -0.21 -0.01    +0.052    17.251
ATOM     29  C   UNL d   1       9.032  11.933 -14.589 +0.03 -0.00    +0.046    17.251
ATOM     30  C   UNL d   1      18.047  12.016 -10.419 -0.18 -0.01    +0.046    17.251
ATOM     31  H   UNL d   1      12.181  13.072 -11.436 +0.05 -0.03    +0.166    17.251
ATOM     32  H   UNL d   1      13.443  11.872 -10.349 -0.16 -0.08    +0.166    17.251
ATOM     33  C   UNL d   1      15.665  13.810  -5.875 -0.22 -0.05    +0.141    17.251
ATOM     34  C   UNL d   1      15.671  15.256  -6.289 -0.09 -0.13    +0.306    17.251
ATOM     35  O   UNL d   1      15.985  15.691  -7.385 -0.03 +0.07    -0.251    17.251
ATOM     36  O   UNL d   1      15.278  16.080  -5.302 -0.06 +0.43    -0.481    17.251
ATOM     37  H   UNL d   1      14.394  15.746  -5.039 -0.12 -0.35    +0.295    17.251
ATOM     38  C   UNL d   1      16.895  11.483 -13.295 +0.04 -0.00    +0.017    17.251
ATOM     39  C   UNL d   1      16.438  11.046 -14.479 -0.10 -0.01    +0.092    17.251
ATOM     40  C   UNL d   1      17.357  10.915 -15.612 -0.08 -0.05    +0.330    17.251
ATOM     41  O   UNL d   1      18.116  11.756 -16.056 -0.04 +0.03    -0.246    17.251
ATOM     42  O   UNL d   1      17.271   9.682 -16.137 -0.10 +0.12    -0.477    17.251
ATOM     43  H   UNL d   1      16.593   9.240 -15.585 -0.39 -0.16    +0.295    17.251
ATOM     44  C   UNL d   1       8.400  15.716  -7.910 -0.29 +0.02    +0.141    17.251
ATOM     45  C   UNL d   1       7.423  16.859  -7.842 -0.18 +0.11    +0.306    17.251
ATOM     46  O   UNL d   1       7.395  17.741  -7.002 -0.56 -0.14    -0.251    17.251
ATOM     47  O   UNL d   1       6.508  16.814  -8.828 -0.09 -0.14    -0.481    17.251
ATOM     48  H   UNL d   1       7.035  16.818  -9.655 +0.09 +0.05    +0.295    17.251
ATOM     49  C   UNL d   1      11.753  10.375 -15.198 -0.12 -0.01    +0.048    17.251
ATOM     50  C   UNL d   1      11.309   8.952 -14.862 -0.18 -0.02    +0.125    17.251
ATOM     51  C   UNL d   1      12.391   8.212 -14.126 -0.22 -0.07    +0.305    17.251
ATOM     52  O   UNL d   1      12.633   8.245 -12.933 -0.86 +0.06    -0.251    17.251
ATOM     53  O   UNL d   1      13.139   7.458 -14.955 -0.14 +0.14    -0.481    17.251
ATOM     54  H   UNL d   1      14.017   7.894 -14.946 -0.27 -0.19    +0.295    17.251
TER
ENDMDL
MODEL       51
USER    Run = 51
USER    Cluster Rank = 9
USER    Number of conformations in this cluster = 2
USER  
USER    RMSD from reference structure       = 17.316 A
USER  
USER    Estimated Free Energy of Binding    =   -5.85 kcal/mol  [=(1)+(2)+(3)-(4)]
USER    Estimated Inhibition Constant, Ki   =   51.24 uM (micromolar)  [Temperature = 298.15 K]
USER    
USER    (1) Final Intermolecular Energy     =   -9.73 kcal/mol
USER        vdW + Hbond + desolv Energy     =   -9.35 kcal/mol
USER        Electrostatic Energy            =   -0.38 kcal/mol
USER    (2) Final Total Internal Energy     =   -1.85 kcal/mol
USER    (3) Torsional Free Energy           =   +3.88 kcal/mol
USER    (4) Unbound System's Energy  [=(2)] =   -1.85 kcal/mol
USER    
USER    
USER  
USER    DPF = D:/Protein_go_brrr/autodock/final/mut_Y35F/heme/dock.dpf
USER    NEWDPF move	heme_opt.pdbqt
USER    NEWDPF about	0.153000 0.018000 -0.028000
USER    NEWDPF tran0	10.906759 12.973912 -11.615779
USER    NEWDPF axisangle0	-0.290859 -0.790346 -0.539216 173.860443
USER    NEWDPF quaternion0	-0.290441 -0.789212 -0.538443 0.053552
USER    NEWDPF dihe0	83.85 -117.91 -147.11 -122.83 179.73 123.40 -40.11 79.37 105.70 15.25 132.78 -91.23 1.53 
USER  
USER                              x       y       z    vdW   Elec        q     RMS 
ATOM      1  O   UNL d   1      16.473  11.033 -11.677 -0.09 +0.05    -0.289    17.316
ATOM      2  O   UNL d   1      10.531   9.091 -15.837 -0.07 +0.03    -0.289    17.316
ATOM      3  N   UNL d   1      13.331  12.367 -11.183 -0.10 +0.07    -0.247    17.316
ATOM      4  N   UNL d   1      11.754  11.254 -13.442 -0.10 +0.03    -0.247    17.316
ATOM      5  N   UNL d   1       9.704  13.177 -12.837 -0.08 +0.01    -0.354    17.316
ATOM      6  N   UNL d   1      11.355  14.338 -10.508 -0.04 +0.04    -0.354    17.316
ATOM      7  C   UNL d   1      15.558  12.798 -10.255 -0.10 -0.02    +0.084    17.316
ATOM      8  C   UNL d   1      12.506   9.132 -14.392 -0.21 -0.02    +0.084    17.316
ATOM      9  C   UNL d   1      12.740  10.293 -13.420 -0.24 -0.01    +0.058    17.316
ATOM     10  C   UNL d   1      14.066  13.140 -10.300 -0.11 -0.01    +0.058    17.316
ATOM     11  C   UNL d   1      15.533  11.682 -11.255 -0.17 -0.05    +0.193    17.316
ATOM     12  C   UNL d   1      14.123  11.500 -11.725 -0.20 -0.03    +0.109    17.316
ATOM     13  C   UNL d   1      11.224   9.630 -14.996 -0.09 -0.02    +0.193    17.316
ATOM     14  C   UNL d   1      16.425  13.935 -10.802 -0.04 -0.00    +0.026    17.316
ATOM     15  C   UNL d   1      13.837  10.388 -12.654 -0.33 -0.02    +0.055    17.316
ATOM     16  C   UNL d   1      12.225   7.820 -13.653 -0.46 -0.01    +0.026    17.316
ATOM     17  C   UNL d   1      10.880  10.928 -14.340 -0.10 -0.01    +0.109    17.316
ATOM     18  C   UNL d   1      13.529  14.057  -9.473 -0.12 -0.01    +0.050    17.316
ATOM     19  C   UNL d   1      12.151  14.379  -9.385 -0.15 -0.01    +0.045    17.316
ATOM     20  C   UNL d   1       9.233  12.699 -14.033 -0.07 -0.00    +0.045    17.316
ATOM     21  C   UNL d   1       9.688  11.676 -14.764 -0.08 -0.00    +0.057    17.316
ATOM     22  C   UNL d   1       7.945  14.471 -13.387 -0.15 -0.00    -0.019    17.316
ATOM     23  C   UNL d   1       8.989  14.247 -12.368 -0.19 -0.00    +0.045    17.316
ATOM     24  C   UNL d   1       8.093  13.551 -14.369 -0.13 +0.00    -0.022    17.316
ATOM     25  C   UNL d   1      10.083  14.772 -10.214 -0.21 -0.00    +0.049    17.316
ATOM     26  C   UNL d   1      11.367  14.814  -8.328 -0.26 +0.00    -0.018    17.316
ATOM     27  C   UNL d   1      10.058  15.042  -8.853 -0.31 -0.00    +0.003    17.316
ATOM     28  C   UNL d   1       9.123  14.968 -11.244 -0.22 -0.00    +0.052    17.316
ATOM     29  C   UNL d   1       7.278  13.363 -15.603 -0.09 -0.00    +0.046    17.316
ATOM     30  C   UNL d   1      11.805  15.005  -6.915 -0.22 -0.01    +0.046    17.316
ATOM     31  H   UNL d   1      10.455  12.707 -12.342 +0.05 -0.01    +0.166    17.316
ATOM     32  H   UNL d   1      11.691  14.064 -11.423 +0.04 -0.02    +0.166    17.316
ATOM     33  C   UNL d   1      16.076  12.297  -8.902 -0.17 -0.04    +0.141    17.316
ATOM     34  C   UNL d   1      17.283  11.408  -9.038 -0.21 -0.08    +0.306    17.316
ATOM     35  O   UNL d   1      17.404  10.284  -8.581 -0.79 +0.05    -0.251    17.316
ATOM     36  O   UNL d   1      18.273  11.981  -9.745 -0.04 +0.13    -0.481    17.316
ATOM     37  H   UNL d   1      18.180  11.608 -10.647 +0.09 -0.08    +0.295    17.316
ATOM     38  C   UNL d   1       8.937  15.516  -8.098 -0.40 +0.00    +0.017    17.316
ATOM     39  C   UNL d   1       8.194  16.590  -8.406 -0.26 +0.02    +0.092    17.316
ATOM     40  C   UNL d   1       7.059  16.960  -7.558 -0.12 +0.16    +0.330    17.316
ATOM     41  O   UNL d   1       6.880  18.011  -6.971 -0.63 -0.19    -0.246    17.316
ATOM     42  O   UNL d   1       6.176  15.951  -7.501 -0.15 -0.26    -0.477    17.316
ATOM     43  H   UNL d   1       6.681  15.220  -7.090 -0.34 +0.09    +0.295    17.316
ATOM     44  C   UNL d   1      13.582   8.943 -15.467 -0.04 -0.05    +0.141    17.316
ATOM     45  C   UNL d   1      14.183  10.239 -15.940 -0.06 -0.07    +0.306    17.316
ATOM     46  O   UNL d   1      13.734  10.977 -16.800 -0.02 +0.04    -0.251    17.316
ATOM     47  O   UNL d   1      15.341  10.527 -15.320 -0.06 +0.13    -0.481    17.316
ATOM     48  H   UNL d   1      15.747   9.653 -15.136 -0.51 -0.17    +0.295    17.316
ATOM     49  C   UNL d   1       6.917  15.562 -13.314 -0.11 +0.00    +0.048    17.316
ATOM     50  C   UNL d   1       5.741  15.177 -12.417 -0.20 +0.01    +0.125    17.316
ATOM     51  C   UNL d   1       5.263  13.787 -12.727 -0.17 +0.03    +0.305    17.316
ATOM     52  O   UNL d   1       5.812  12.734 -12.454 -0.48 -0.04    -0.251    17.316
ATOM     53  O   UNL d   1       4.092  13.793 -13.396 -0.09 -0.02    -0.481    17.316
ATOM     54  H   UNL d   1       4.276  14.334 -14.192 +0.08 +0.00    +0.295    17.316
TER
ENDMDL
MODEL        3
USER    Run = 3
USER    Cluster Rank = 10
USER    Number of conformations in this cluster = 1
USER  
USER    RMSD from reference structure       = 17.107 A
USER  
USER    Estimated Free Energy of Binding    =   -5.83 kcal/mol  [=(1)+(2)+(3)-(4)]
USER    Estimated Inhibition Constant, Ki   =   52.89 uM (micromolar)  [Temperature = 298.15 K]
USER    
USER    (1) Final Intermolecular Energy     =   -9.71 kcal/mol
USER        vdW + Hbond + desolv Energy     =   -8.96 kcal/mol
USER        Electrostatic Energy            =   -0.75 kcal/mol
USER    (2) Final Total Internal Energy     =   -1.60 kcal/mol
USER    (3) Torsional Free Energy           =   +3.88 kcal/mol
USER    (4) Unbound System's Energy  [=(2)] =   -1.60 kcal/mol
USER    
USER    
USER  
USER    DPF = D:/Protein_go_brrr/autodock/final/mut_Y35F/heme/dock.dpf
USER    NEWDPF move	heme_opt.pdbqt
USER    NEWDPF about	0.153000 0.018000 -0.028000
USER    NEWDPF tran0	-6.259382 19.214758 5.108159
USER    NEWDPF axisangle0	-0.426406 -0.696275 -0.577389 -156.851740
USER    NEWDPF quaternion0	-0.417736 -0.682117 -0.565649 -0.200636
USER    NEWDPF dihe0	-99.89 -123.08 159.05 -178.66 -122.17 57.44 -56.91 -38.87 -150.51 -159.35 100.00 -68.16 10.17 
USER  
USER                              x       y       z    vdW   Elec        q     RMS 
ATOM      1  O   UNL d   1      -1.584  17.918   1.760 -0.20 +0.07    -0.289    17.107
ATOM      2  O   UNL d   1      -8.919  16.767   0.639 -0.06 +0.05    -0.289    17.107
ATOM      3  N   UNL d   1      -3.982  18.738   4.099 -0.18 +0.07    -0.247    17.107
ATOM      4  N   UNL d   1      -6.535  18.213   2.673 -0.14 +0.07    -0.247    17.107
ATOM      5  N   UNL d   1      -7.889  19.661   4.755 -0.06 +0.17    -0.354    17.107
ATOM      6  N   UNL d   1      -5.233  20.218   6.218 -0.03 +0.19    -0.354    17.107
ATOM      7  C   UNL d   1      -1.562  19.078   3.911 -0.18 -0.02    +0.084    17.107
ATOM      8  C   UNL d   1      -6.492  16.557   0.876 -0.16 -0.02    +0.084    17.107
ATOM      9  C   UNL d   1      -5.733  17.388   1.916 -0.23 -0.01    +0.058    17.107
ATOM     10  C   UNL d   1      -2.858  19.275   4.704 -0.22 -0.01    +0.058    17.107
ATOM     11  C   UNL d   1      -2.150  18.318   2.761 -0.11 -0.04    +0.193    17.107
ATOM     12  C   UNL d   1      -3.618  18.154   3.004 -0.14 -0.03    +0.109    17.107
ATOM     13  C   UNL d   1      -7.868  17.090   1.158 -0.07 -0.04    +0.193    17.107
ATOM     14  C   UNL d   1      -0.998  20.403   3.393 -0.12 -0.00    +0.026    17.107
ATOM     15  C   UNL d   1      -4.397  17.351   2.040 -0.30 -0.01    +0.055    17.107
ATOM     16  C   UNL d   1      -6.465  15.063   1.214 -0.28 -0.01    +0.026    17.107
ATOM     17  C   UNL d   1      -7.756  18.091   2.261 -0.12 -0.03    +0.109    17.107
ATOM     18  C   UNL d   1      -2.856  19.845   5.923 -0.25 -0.02    +0.050    17.107
ATOM     19  C   UNL d   1      -3.990  19.993   6.763 -0.22 -0.02    +0.045    17.107
ATOM     20  C   UNL d   1      -8.916  19.524   3.857 -0.15 -0.01    +0.045    17.107
ATOM     21  C   UNL d   1      -8.949  18.817   2.723 -0.13 -0.01    +0.057    17.107
ATOM     22  C   UNL d   1      -9.598  20.889   5.557 -0.13 +0.01    -0.019    17.107
ATOM     23  C   UNL d   1      -8.207  20.468   5.815 -0.18 -0.02    +0.045    17.107
ATOM     24  C   UNL d   1     -10.013  20.326   4.398 -0.12 +0.01    -0.022    17.107
ATOM     25  C   UNL d   1      -6.166  20.421   7.209 -0.10 -0.03    +0.049    17.107
ATOM     26  C   UNL d   1      -4.123  20.014   8.143 -0.24 +0.01    -0.018    17.107
ATOM     27  C   UNL d   1      -5.503  20.265   8.419 -0.24 -0.00    +0.003    17.107
ATOM     28  C   UNL d   1      -7.491  20.826   6.892 -0.19 -0.03    +0.052    17.107
ATOM     29  C   UNL d   1     -11.339  20.442   3.726 -0.06 -0.01    +0.046    17.107
ATOM     30  C   UNL d   1      -3.038  19.811   9.145 -0.23 -0.03    +0.046    17.107
ATOM     31  H   UNL d   1      -7.026  19.138   4.651 -0.47 -0.12    +0.166    17.107
ATOM     32  H   UNL d   1      -5.408  20.265   5.221 -0.03 -0.07    +0.166    17.107
ATOM     33  C   UNL d   1      -0.484  18.244   4.612 -0.12 -0.03    +0.141    17.107
ATOM     34  C   UNL d   1       0.620  19.089   5.188 -0.23 -0.06    +0.306    17.107
ATOM     35  O   UNL d   1       1.439  19.733   4.555 -0.34 +0.03    -0.251    17.107
ATOM     36  O   UNL d   1       0.631  19.082   6.533 -0.70 +0.16    -0.481    17.107
ATOM     37  H   UNL d   1       1.038  18.222   6.771 -0.24 -0.19    +0.295    17.107
ATOM     38  C   UNL d   1      -6.075  20.381   9.726 -0.24 -0.01    +0.017    17.107
ATOM     39  C   UNL d   1      -7.124  21.154  10.046 -0.12 -0.07    +0.092    17.107
ATOM     40  C   UNL d   1      -7.626  21.170  11.423 -0.05 -0.25    +0.330    17.107
ATOM     41  O   UNL d   1      -7.003  21.415  12.438 -0.02 +0.12    -0.246    17.107
ATOM     42  O   UNL d   1      -8.935  20.875  11.441 -0.05 +0.51    -0.477    17.107
ATOM     43  H   UNL d   1      -8.984  20.002  10.999 -0.39 -0.67    +0.295    17.107
ATOM     44  C   UNL d   1      -6.096  16.803  -0.583 -0.10 -0.05    +0.141    17.107
ATOM     45  C   UNL d   1      -6.290  15.597  -1.463 -0.09 -0.14    +0.306    17.107
ATOM     46  O   UNL d   1      -5.426  14.825  -1.840 -0.25 +0.20    -0.251    17.107
ATOM     47  O   UNL d   1      -7.570  15.441  -1.847 +0.02 +0.15    -0.481    17.107
ATOM     48  H   UNL d   1      -8.091  15.936  -1.180 +0.05 -0.07    +0.295    17.107
ATOM     49  C   UNL d   1     -10.381  21.805   6.452 -0.06 -0.02    +0.048    17.107
ATOM     50  C   UNL d   1     -10.812  21.109   7.742 -0.09 -0.09    +0.125    17.107
ATOM     51  C   UNL d   1     -12.014  20.239   7.506 -0.07 -0.18    +0.305    17.107
ATOM     52  O   UNL d   1     -13.021  20.517   6.880 -0.02 +0.08    -0.251    17.107
ATOM     53  O   UNL d   1     -11.888  19.034   8.097 -0.09 +0.46    -0.481    17.107
ATOM     54  H   UNL d   1     -11.016  19.077   8.543 -0.44 -0.68    +0.295    17.107
TER
ENDMDL
MODEL       40
USER    Run = 40
USER    Cluster Rank = 11
USER    Number of conformations in this cluster = 3
USER  
USER    RMSD from reference structure       = 16.184 A
USER  
USER    Estimated Free Energy of Binding    =   -5.74 kcal/mol  [=(1)+(2)+(3)-(4)]
USER    Estimated Inhibition Constant, Ki   =   61.81 uM (micromolar)  [Temperature = 298.15 K]
USER    
USER    (1) Final Intermolecular Energy     =   -9.62 kcal/mol
USER        vdW + Hbond + desolv Energy     =   -9.36 kcal/mol
USER        Electrostatic Energy            =   -0.26 kcal/mol
USER    (2) Final Total Internal Energy     =   -3.82 kcal/mol
USER    (3) Torsional Free Energy           =   +3.88 kcal/mol
USER    (4) Unbound System's Energy  [=(2)] =   -3.82 kcal/mol
USER    
USER    
USER  
USER    DPF = D:/Protein_go_brrr/autodock/final/mut_Y35F/heme/dock.dpf
USER    NEWDPF move	heme_opt.pdbqt
USER    NEWDPF about	0.153000 0.018000 -0.028000
USER    NEWDPF tran0	2.781488 -17.059198 -8.021814
USER    NEWDPF axisangle0	-0.331971 0.462896 0.821902 156.745199
USER    NEWDPF quaternion0	-0.325158 0.453397 0.805036 0.201546
USER    NEWDPF dihe0	-83.00 -179.80 13.13 -70.02 30.66 -41.81 173.50 -92.23 126.63 142.96 -112.53 20.72 -2.87 
USER  
USER                              x       y       z    vdW   Elec        q     RMS 
ATOM      1  O   UNL d   1       6.343 -14.053  -4.411 -0.68 +0.18    -0.289    16.184
ATOM      2  O   UNL d   1       5.632 -13.899 -11.885 -0.12 +0.08    -0.289    16.184
ATOM      3  N   UNL d   1       4.182 -16.124  -6.125 -0.16 +0.09    -0.247    16.184
ATOM      4  N   UNL d   1       4.371 -15.143  -8.923 -0.13 +0.11    -0.247    16.184
ATOM      5  N   UNL d   1       2.021 -16.685  -9.525 +0.04 +0.17    -0.354    16.184
ATOM      6  N   UNL d   1       1.820 -17.683  -6.616 -0.14 +0.18    -0.354    16.184
ATOM      7  C   UNL d   1       4.626 -15.667  -3.758 -0.25 -0.03    +0.084    16.184
ATOM      8  C   UNL d   1       6.445 -14.029  -9.580 -0.17 -0.03    +0.084    16.184
ATOM      9  C   UNL d   1       5.584 -14.664  -8.482 -0.24 -0.02    +0.058    16.184
ATOM     10  C   UNL d   1       3.829 -16.429  -4.821 -0.24 -0.02    +0.058    16.184
ATOM     11  C   UNL d   1       5.506 -14.891  -4.693 -0.15 -0.07    +0.193    16.184
ATOM     12  C   UNL d   1       5.157 -15.275  -6.097 -0.20 -0.04    +0.109    16.184
ATOM     13  C   UNL d   1       5.479 -14.202 -10.718 -0.16 -0.06    +0.193    16.184
ATOM     14  C   UNL d   1       3.750 -14.687  -2.975 -0.45 -0.01    +0.026    16.184
ATOM     15  C   UNL d   1       5.962 -14.703  -7.195 -0.21 -0.03    +0.055    16.184
ATOM     16  C   UNL d   1       7.700 -14.857  -9.869 -0.06 -0.01    +0.026    16.184
ATOM     17  C   UNL d   1       4.259 -14.882 -10.186 -0.22 -0.04    +0.109    16.184
ATOM     18  C   UNL d   1       2.932 -17.374  -4.483 -0.26 -0.01    +0.050    16.184
ATOM     19  C   UNL d   1       2.210 -18.186  -5.395 -0.21 -0.02    +0.045    16.184
ATOM     20  C   UNL d   1       2.131 -15.962 -10.684 -0.26 -0.02    +0.045    16.184
ATOM     21  C   UNL d   1       3.116 -15.146 -11.072 -0.21 -0.02    +0.057    16.184
ATOM     22  C   UNL d   1       0.168 -17.130 -10.727 -0.29 +0.00    -0.019    16.184
ATOM     23  C   UNL d   1       0.868 -17.421  -9.460 -0.26 -0.01    +0.045    16.184
ATOM     24  C   UNL d   1       0.921 -16.266 -11.448 -0.27 +0.00    -0.022    16.184
ATOM     25  C   UNL d   1       1.060 -18.604  -7.297 -0.23 -0.03    +0.049    16.184
ATOM     26  C   UNL d   1       1.722 -19.480  -5.297 -0.14 +0.01    -0.018    16.184
ATOM     27  C   UNL d   1       1.013 -19.746  -6.509 -0.12 -0.00    +0.003    16.184
ATOM     28  C   UNL d   1       0.412 -18.258  -8.514 -0.31 -0.02    +0.052    16.184
ATOM     29  C   UNL d   1       0.646 -15.687 -12.794 -0.21 -0.00    +0.046    16.184
ATOM     30  C   UNL d   1       1.903 -20.415  -4.149 -0.12 -0.01    +0.046    16.184
ATOM     31  H   UNL d   1       2.774 -16.710  -8.847 -0.32 -0.09    +0.166    16.184
ATOM     32  H   UNL d   1       2.039 -16.745  -6.931 -0.43 -0.12    +0.166    16.184
ATOM     33  C   UNL d   1       5.472 -16.537  -2.822 -0.16 -0.04    +0.141    16.184
ATOM     34  C   UNL d   1       6.333 -15.723  -1.895 -0.16 -0.10    +0.306    16.184
ATOM     35  O   UNL d   1       5.991 -15.249  -0.825 -0.26 +0.06    -0.251    16.184
ATOM     36  O   UNL d   1       7.581 -15.551  -2.364 -0.12 +0.23    -0.481    16.184
ATOM     37  H   UNL d   1       7.553 -14.689  -2.830 +0.02 -0.26    +0.295    16.184
ATOM     38  C   UNL d   1       0.335 -20.968  -6.817 -0.07 -0.01    +0.017    16.184
ATOM     39  C   UNL d   1       0.580 -21.741  -7.886 -0.04 -0.03    +0.092    16.184
ATOM     40  C   UNL d   1      -0.175 -22.982  -8.079 -0.00 -0.05    +0.330    16.184
ATOM     41  O   UNL d   1      -0.449 -23.823  -7.243 -0.01 +0.03    -0.246    16.184
ATOM     42  O   UNL d   1      -0.564 -23.093  -9.358 +0.01 +0.03    -0.477    16.184
ATOM     43  H   UNL d   1      -0.209 -22.284  -9.782 +0.04 -0.02    +0.295    16.184
ATOM     44  C   UNL d   1       6.791 -12.550  -9.374 -0.27 -0.08    +0.141    16.184
ATOM     45  C   UNL d   1       8.110 -12.341  -8.678 -0.12 -0.27    +0.306    16.184
ATOM     46  O   UNL d   1       9.017 -11.615  -9.043 -0.13 +0.22    -0.251    16.184
ATOM     47  O   UNL d   1       8.227 -13.084  -7.562 -0.08 +0.64    -0.481    16.184
ATOM     48  H   UNL d   1       9.013 -12.719  -7.103 -0.41 -0.78    +0.295    16.184
ATOM     49  C   UNL d   1      -1.166 -17.704 -11.105 -0.21 +0.01    +0.048    16.184
ATOM     50  C   UNL d   1      -1.026 -19.068 -11.781 -0.20 +0.02    +0.125    16.184
ATOM     51  C   UNL d   1      -0.539 -20.103 -10.807 -0.05 +0.00    +0.305    16.184
ATOM     52  O   UNL d   1       0.601 -20.506 -10.660 -0.02 +0.01    -0.251    16.184
ATOM     53  O   UNL d   1      -1.542 -20.600 -10.056 -0.02 +0.01    -0.481    16.184
ATOM     54  H   UNL d   1      -1.652 -21.518 -10.384 +0.07 +0.01    +0.295    16.184
TER
ENDMDL
MODEL       93
USER    Run = 93
USER    Cluster Rank = 12
USER    Number of conformations in this cluster = 1
USER  
USER    RMSD from reference structure       = 11.533 A
USER  
USER    Estimated Free Energy of Binding    =   -5.63 kcal/mol  [=(1)+(2)+(3)-(4)]
USER    Estimated Inhibition Constant, Ki   =   74.11 uM (micromolar)  [Temperature = 298.15 K]
USER    
USER    (1) Final Intermolecular Energy     =   -9.51 kcal/mol
USER        vdW + Hbond + desolv Energy     =   -9.43 kcal/mol
USER        Electrostatic Energy            =   -0.08 kcal/mol
USER    (2) Final Total Internal Energy     =   -3.55 kcal/mol
USER    (3) Torsional Free Energy           =   +3.88 kcal/mol
USER    (4) Unbound System's Energy  [=(2)] =   -3.55 kcal/mol
USER    
USER    
USER  
USER    DPF = D:/Protein_go_brrr/autodock/final/mut_Y35F/heme/dock.dpf
USER    NEWDPF move	heme_opt.pdbqt
USER    NEWDPF about	0.153000 0.018000 -0.028000
USER    NEWDPF tran0	9.103403 8.610851 6.273787
USER    NEWDPF axisangle0	0.185434 -0.818355 0.543976 155.358466
USER    NEWDPF quaternion0	0.181163 -0.799506 0.531448 0.213385
USER    NEWDPF dihe0	-130.80 -111.68 -156.73 -37.66 41.30 93.96 132.09 -67.33 148.00 -14.59 55.13 -140.68 113.99 
USER  
USER                              x       y       z    vdW   Elec        q     RMS 
ATOM      1  O   UNL d   1      14.075  11.632   5.319 -0.05 -0.03    -0.289    11.533
ATOM      2  O   UNL d   1      10.806   9.412  11.705 -0.07 -0.11    -0.289    11.533
ATOM      3  N   UNL d   1      11.050   9.977   5.392 -0.10 -0.02    -0.247    11.533
ATOM      4  N   UNL d   1      10.732   9.260   8.258 -0.10 -0.07    -0.247    11.533
ATOM      5  N   UNL d   1       8.611   7.481   7.482 -0.14 -0.16    -0.354    11.533
ATOM      6  N   UNL d   1       8.960   8.216   4.509 -0.15 -0.04    -0.354    11.533
ATOM      7  C   UNL d   1      12.575  10.715   3.621 -0.25 -0.01    +0.084    11.533
ATOM      8  C   UNL d   1      11.872  10.671   9.896 -0.09 +0.02    +0.084    11.533
ATOM      9  C   UNL d   1      11.606  10.310   8.431 -0.11 +0.01    +0.058    11.533
ATOM     10  C   UNL d   1      11.274  10.016   4.026 -0.26 -0.00    +0.058    11.533
ATOM     11  C   UNL d   1      13.038  11.080   4.999 -0.08 +0.01    +0.193    11.533
ATOM     12  C   UNL d   1      12.016  10.601   5.983 -0.10 +0.01    +0.109    11.533
ATOM     13  C   UNL d   1      11.016   9.607  10.523 -0.09 +0.07    +0.193    11.533
ATOM     14  C   UNL d   1      13.581   9.742   3.002 -0.37 +0.00    +0.026    11.533
ATOM     15  C   UNL d   1      12.214  10.932   7.409 -0.10 +0.01    +0.055    11.533
ATOM     16  C   UNL d   1      11.295  12.043  10.257 -0.20 +0.01    +0.026    11.533
ATOM     17  C   UNL d   1      10.387   8.816   9.423 -0.14 +0.05    +0.109    11.533
ATOM     18  C   UNL d   1      10.399   9.570   3.105 -0.34 -0.01    +0.050    11.533
ATOM     19  C   UNL d   1       9.136   8.989   3.384 -0.42 +0.00    +0.045    11.533
ATOM     20  C   UNL d   1       8.763   7.109   8.793 -0.08 +0.03    +0.045    11.533
ATOM     21  C   UNL d   1       9.522   7.669   9.740 +0.00 +0.04    +0.057    11.533
ATOM     22  C   UNL d   1       7.297   5.677   7.784 -0.36 -0.01    -0.019    11.533
ATOM     23  C   UNL d   1       7.745   6.675   6.793 -0.33 +0.02    +0.045    11.533
ATOM     24  C   UNL d   1       7.903   5.940   8.967 -0.22 -0.02    -0.022    11.533
ATOM     25  C   UNL d   1       7.693   7.681   4.535 -0.32 +0.01    +0.049    11.533
ATOM     26  C   UNL d   1       7.942   8.986   2.679 -0.49 -0.00    -0.018    11.533
ATOM     27  C   UNL d   1       7.029   8.175   3.421 -0.44 +0.00    +0.003    11.533
ATOM     28  C   UNL d   1       7.326   6.723   5.519 -0.24 +0.02    +0.052    11.533
ATOM     29  C   UNL d   1       7.763   5.222  10.266 -0.04 +0.06    +0.046    11.533
ATOM     30  C   UNL d   1       7.663   9.694   1.397 -0.25 +0.00    +0.046    11.533
ATOM     31  H   UNL d   1       9.048   8.322   7.120 +0.06 +0.05    +0.166    11.533
ATOM     32  H   UNL d   1       9.690   8.044   5.190 +0.07 +0.03    +0.166    11.533
ATOM     33  C   UNL d   1      12.405  11.972   2.760 +0.02 -0.03    +0.141    11.533
ATOM     34  C   UNL d   1      13.685  12.392   2.089 -0.30 -0.03    +0.306    11.533
ATOM     35  O   UNL d   1      14.032  12.106   0.956 -0.98 -0.02    -0.251    11.533
ATOM     36  O   UNL d   1      14.461  13.152   2.882 -0.09 +0.03    -0.481    11.533
ATOM     37  H   UNL d   1      14.471  12.681   3.743 +0.10 +0.00    +0.295    11.533
ATOM     38  C   UNL d   1       5.678   7.891   3.038 +0.02 +0.00    +0.017    11.533
ATOM     39  C   UNL d   1       5.310   7.026   2.081 -0.43 +0.01    +0.092    11.533
ATOM     40  C   UNL d   1       3.889   6.813   1.797 -0.25 +0.02    +0.330    11.533
ATOM     41  O   UNL d   1       3.199   7.393   0.980 -0.34 -0.01    -0.246    11.533
ATOM     42  O   UNL d   1       3.402   5.839   2.582 -0.14 -0.03    -0.477    11.533
ATOM     43  H   UNL d   1       3.422   6.229   3.480 +0.18 +0.01    +0.295    11.533
ATOM     44  C   UNL d   1      13.329  10.544  10.354 -0.02 +0.03    +0.141    11.533
ATOM     45  C   UNL d   1      13.845   9.131  10.309 +0.00 +0.08    +0.306    11.533
ATOM     46  O   UNL d   1      14.364   8.576   9.356 +0.00 -0.06    -0.251    11.533
ATOM     47  O   UNL d   1      13.653   8.475  11.468 +0.01 -0.14    -0.481    11.533
ATOM     48  H   UNL d   1      12.917   8.955  11.905 +0.02 +0.09    +0.295    11.533
ATOM     49  C   UNL d   1       6.341   4.561   7.483 -0.41 +0.02    +0.048    11.533
ATOM     50  C   UNL d   1       6.450   4.094   6.032 -0.41 +0.04    +0.125    11.533
ATOM     51  C   UNL d   1       5.118   4.174   5.341 -0.19 +0.05    +0.305    11.533
ATOM     52  O   UNL d   1       4.157   3.441   5.494 -0.29 -0.03    -0.251    11.533
ATOM     53  O   UNL d   1       5.067   5.193   4.460 -0.34 -0.10    -0.481    11.533
ATOM     54  H   UNL d   1       4.552   4.832   3.708 +0.18 +0.04    +0.295    11.533
TER
ENDMDL
MODEL       32
USER    Run = 32
USER    Cluster Rank = 13
USER    Number of conformations in this cluster = 2
USER  
USER    RMSD from reference structure       = 17.600 A
USER  
USER    Estimated Free Energy of Binding    =   -5.53 kcal/mol  [=(1)+(2)+(3)-(4)]
USER    Estimated Inhibition Constant, Ki   =   88.04 uM (micromolar)  [Temperature = 298.15 K]
USER    
USER    (1) Final Intermolecular Energy     =   -9.41 kcal/mol
USER        vdW + Hbond + desolv Energy     =   -8.65 kcal/mol
USER        Electrostatic Energy            =   -0.76 kcal/mol
USER    (2) Final Total Internal Energy     =   -1.44 kcal/mol
USER    (3) Torsional Free Energy           =   +3.88 kcal/mol
USER    (4) Unbound System's Energy  [=(2)] =   -1.44 kcal/mol
USER    
USER    
USER  
USER    DPF = D:/Protein_go_brrr/autodock/final/mut_Y35F/heme/dock.dpf
USER    NEWDPF move	heme_opt.pdbqt
USER    NEWDPF about	0.153000 0.018000 -0.028000
USER    NEWDPF tran0	13.194884 15.159954 -7.194626
USER    NEWDPF axisangle0	0.034114 -0.948584 -0.314681 158.448008
USER    NEWDPF quaternion0	0.033513 -0.931856 -0.309132 0.186970
USER    NEWDPF dihe0	147.11 -148.57 -166.92 85.82 -118.15 49.79 139.37 52.49 -110.29 -46.67 -53.84 -39.84 -152.19 
USER  
USER                              x       y       z    vdW   Elec        q     RMS 
ATOM      1  O   UNL d   1      18.313  16.606  -4.650 -0.06 +0.12    -0.289    17.600
ATOM      2  O   UNL d   1      16.006  10.180  -7.778 -0.07 +0.08    -0.289    17.600
ATOM      3  N   UNL d   1      15.131  16.179  -5.912 -0.10 +0.17    -0.247    17.600
ATOM      4  N   UNL d   1      15.254  13.495  -7.181 -0.07 +0.07    -0.247    17.600
ATOM      5  N   UNL d   1      12.767  14.102  -8.490 -0.07 +0.07    -0.354    17.600
ATOM      6  N   UNL d   1      12.657  16.892  -7.184 -0.04 +0.11    -0.354    17.600
ATOM      7  C   UNL d   1      16.390  18.074  -4.999 -0.09 -0.06    +0.084    17.600
ATOM      8  C   UNL d   1      16.895  11.915  -6.298 -0.28 -0.03    +0.084    17.600
ATOM      9  C   UNL d   1      16.302  13.328  -6.303 -0.19 -0.02    +0.058    17.600
ATOM     10  C   UNL d   1      15.095  17.530  -5.609 -0.04 -0.05    +0.058    17.600
ATOM     11  C   UNL d   1      17.159  16.787  -4.994 -0.10 -0.11    +0.193    17.600
ATOM     12  C   UNL d   1      16.280  15.709  -5.547 -0.12 -0.06    +0.109    17.600
ATOM     13  C   UNL d   1      16.015  11.322  -7.362 -0.26 -0.06    +0.193    17.600
ATOM     14  C   UNL d   1      17.091  19.066  -5.930 -0.03 -0.01    +0.026    17.600
ATOM     15  C   UNL d   1      16.796  14.325  -5.555 -0.20 -0.02    +0.055    17.600
ATOM     16  C   UNL d   1      16.625  11.191  -4.976 -0.52 -0.01    +0.026    17.600
ATOM     17  C   UNL d   1      15.070  12.385  -7.820 -0.20 -0.03    +0.109    17.600
ATOM     18  C   UNL d   1      14.001  18.303  -5.742 -0.09 -0.04    +0.050    17.600
ATOM     19  C   UNL d   1      12.737  17.867  -6.215 -0.12 -0.02    +0.045    17.600
ATOM     20  C   UNL d   1      13.104  12.948  -9.148 -0.21 -0.01    +0.045    17.600
ATOM     21  C   UNL d   1      14.109  12.103  -8.897 -0.10 -0.02    +0.057    17.600
ATOM     22  C   UNL d   1      11.263  13.858 -10.148 -0.23 +0.00    -0.019    17.600
ATOM     23  C   UNL d   1      11.668  14.722  -9.022 -0.18 -0.01    +0.045    17.600
ATOM     24  C   UNL d   1      12.116  12.809 -10.217 -0.26 +0.01    -0.022    17.600
ATOM     25  C   UNL d   1      11.349  16.689  -7.558 -0.13 -0.01    +0.049    17.600
ATOM     26  C   UNL d   1      11.446  18.281  -5.926 -0.13 +0.01    -0.018    17.600
ATOM     27  C   UNL d   1      10.573  17.520  -6.763 -0.13 -0.00    +0.003    17.600
ATOM     28  C   UNL d   1      11.028  15.843  -8.654 -0.17 -0.00    +0.052    17.600
ATOM     29  C   UNL d   1      12.113  11.665 -11.174 -0.09 -0.02    +0.046    17.600
ATOM     30  C   UNL d   1      11.046  19.318  -4.933 -0.11 -0.02    +0.046    17.600
ATOM     31  H   UNL d   1      13.256  14.390  -7.649 +0.07 -0.04    +0.166    17.600
ATOM     32  H   UNL d   1      13.466  16.431  -7.583 +0.04 -0.05    +0.166    17.600
ATOM     33  C   UNL d   1      16.263  18.630  -3.577 -0.04 -0.16    +0.141    17.600
ATOM     34  C   UNL d   1      15.340  19.816  -3.499 -0.06 -0.27    +0.306    17.600
ATOM     35  O   UNL d   1      15.508  20.897  -4.037 -0.02 +0.11    -0.251    17.600
ATOM     36  O   UNL d   1      14.250  19.576  -2.748 -0.05 +0.62    -0.481    17.600
ATOM     37  H   UNL d   1      14.035  18.634  -2.918 -0.51 -0.83    +0.295    17.600
ATOM     38  C   UNL d   1       9.147  17.644  -6.796 -0.16 +0.00    +0.017    17.600
ATOM     39  C   UNL d   1       8.330  16.973  -7.623 -0.25 +0.02    +0.092    17.600
ATOM     40  C   UNL d   1       6.882  17.179  -7.544 -0.12 +0.17    +0.330    17.600
ATOM     41  O   UNL d   1       6.282  18.236  -7.500 -0.42 -0.16    -0.246    17.600
ATOM     42  O   UNL d   1       6.248  15.996  -7.534 -0.17 -0.26    -0.477    17.600
ATOM     43  H   UNL d   1       6.877  15.396  -7.083 -0.34 +0.10    +0.295    17.600
ATOM     44  C   UNL d   1      18.373  11.818  -6.691 -0.18 -0.05    +0.141    17.600
ATOM     45  C   UNL d   1      18.580  11.473  -8.142 -0.18 -0.09    +0.306    17.600
ATOM     46  O   UNL d   1      18.771  12.256  -9.056 -0.08 +0.06    -0.251    17.600
ATOM     47  O   UNL d   1      18.509  10.149  -8.371 -0.79 +0.13    -0.481    17.600
ATOM     48  H   UNL d   1      18.139   9.774  -7.544 -0.39 -0.11    +0.295    17.600
ATOM     49  C   UNL d   1      10.100  14.143 -11.053 -0.25 -0.00    +0.048    17.600
ATOM     50  C   UNL d   1      10.519  14.185 -12.522 -0.10 -0.01    +0.125    17.600
ATOM     51  C   UNL d   1       9.668  13.264 -13.350 -0.10 -0.01    +0.305    17.600
ATOM     52  O   UNL d   1       8.455  13.152 -13.326 -0.16 -0.01    -0.251    17.600
ATOM     53  O   UNL d   1      10.409  12.502 -14.179 -0.04 +0.03    -0.481    17.600
ATOM     54  H   UNL d   1      10.409  12.999 -15.023 +0.04 -0.02    +0.295    17.600
TER
ENDMDL
MODEL       23
USER    Run = 23
USER    Cluster Rank = 14
USER    Number of conformations in this cluster = 1
USER  
USER    RMSD from reference structure       = 14.269 A
USER  
USER    Estimated Free Energy of Binding    =   -5.53 kcal/mol  [=(1)+(2)+(3)-(4)]
USER    Estimated Inhibition Constant, Ki   =   88.59 uM (micromolar)  [Temperature = 298.15 K]
USER    
USER    (1) Final Intermolecular Energy     =   -9.41 kcal/mol
USER        vdW + Hbond + desolv Energy     =   -9.00 kcal/mol
USER        Electrostatic Energy            =   -0.41 kcal/mol
USER    (2) Final Total Internal Energy     =   -2.00 kcal/mol
USER    (3) Torsional Free Energy           =   +3.88 kcal/mol
USER    (4) Unbound System's Energy  [=(2)] =   -2.00 kcal/mol
USER    
USER    
USER  
USER    DPF = D:/Protein_go_brrr/autodock/final/mut_Y35F/heme/dock.dpf
USER    NEWDPF move	heme_opt.pdbqt
USER    NEWDPF about	0.153000 0.018000 -0.028000
USER    NEWDPF tran0	11.284902 11.821647 5.627462
USER    NEWDPF axisangle0	0.636118 -0.739413 0.220505 149.827175
USER    NEWDPF quaternion0	0.614194 -0.713929 0.212906 0.260276
USER    NEWDPF dihe0	-105.13 19.99 -175.12 121.03 33.44 79.57 143.10 -63.52 93.01 -7.49 52.68 123.01 25.03 
USER  
USER                              x       y       z    vdW   Elec        q     RMS 
ATOM      1  O   UNL d   1      11.019  17.636   4.690 -0.05 +0.06    -0.289    14.269
ATOM      2  O   UNL d   1      14.290  13.671  10.164 -0.01 -0.04    -0.289    14.269
ATOM      3  N   UNL d   1      10.791  14.201   4.901 +0.04 +0.02    -0.247    14.269
ATOM      4  N   UNL d   1      12.610  13.533   7.153 -0.05 -0.01    -0.247    14.269
ATOM      5  N   UNL d   1      12.472  10.782   6.327 -0.03 -0.04    -0.354    14.269
ATOM      6  N   UNL d   1      10.601  11.487   3.981 -0.11 +0.04    -0.354    14.269
ATOM      7  C   UNL d   1      10.092  15.883   3.261 -0.23 -0.02    +0.084    14.269
ATOM      8  C   UNL d   1      12.980  15.260   8.842 -0.05 +0.01    +0.084    14.269
ATOM      9  C   UNL d   1      12.365  14.842   7.502 -0.10 +0.00    +0.058    14.269
ATOM     10  C   UNL d   1      10.175  14.412   3.679 -0.29 -0.01    +0.058    14.269
ATOM     11  C   UNL d   1      10.754  16.468   4.472 -0.12 -0.04    +0.193    14.269
ATOM     12  C   UNL d   1      11.108  15.350   5.403 -0.16 -0.01    +0.109    14.269
ATOM     13  C   UNL d   1      13.650  13.956   9.171 -0.02 +0.02    +0.193    14.269
ATOM     14  C   UNL d   1      10.955  16.181   2.032 -0.22 -0.01    +0.026    14.269
ATOM     15  C   UNL d   1      11.692  15.695   6.715 -0.16 -0.00    +0.055    14.269
ATOM     16  C   UNL d   1      11.906  15.542   9.896 -0.15 +0.00    +0.026    14.269
ATOM     17  C   UNL d   1      13.355  12.996   8.065 -0.04 +0.01    +0.109    14.269
ATOM     18  C   UNL d   1       9.607  13.439   2.942 -0.48 -0.01    +0.050    14.269
ATOM     19  C   UNL d   1       9.560  12.065   3.290 -0.33 -0.01    +0.045    14.269
ATOM     20  C   UNL d   1      13.478  10.699   7.254 -0.04 +0.01    +0.045    14.269
ATOM     21  C   UNL d   1      13.923  11.639   8.095 -0.03 +0.01    +0.057    14.269
ATOM     22  C   UNL d   1      13.288   8.687   6.191 -0.08 -0.00    -0.019    14.269
ATOM     23  C   UNL d   1      12.283   9.616   5.635 -0.12 +0.01    +0.045    14.269
ATOM     24  C   UNL d   1      13.991   9.334   7.150 -0.03 -0.00    -0.022    14.269
ATOM     25  C   UNL d   1      10.390  10.136   4.132 -0.29 -0.00    +0.049    14.269
ATOM     26  C   UNL d   1       8.631  11.072   3.019 -0.47 +0.00    -0.018    14.269
ATOM     27  C   UNL d   1       9.152   9.860   3.570 -0.42 -0.00    +0.003    14.269
ATOM     28  C   UNL d   1      11.401   9.297   4.676 -0.26 +0.00    +0.052    14.269
ATOM     29  C   UNL d   1      15.099   8.817   8.003 -0.01 +0.01    +0.046    14.269
ATOM     30  C   UNL d   1       7.339  11.236   2.294 -0.04 +0.00    +0.046    14.269
ATOM     31  H   UNL d   1      11.896  11.613   6.249 +0.04 +0.01    +0.166    14.269
ATOM     32  H   UNL d   1      11.420  11.997   4.289 +0.06 -0.01    +0.166    14.269
ATOM     33  C   UNL d   1       8.674  16.442   3.100 -0.08 -0.05    +0.141    14.269
ATOM     34  C   UNL d   1       8.544  17.849   3.615 -0.22 -0.08    +0.306    14.269
ATOM     35  O   UNL d   1       8.759  18.870   2.983 -0.12 +0.05    -0.251    14.269
ATOM     36  O   UNL d   1       8.149  17.897   4.900 -0.15 +0.17    -0.481    14.269
ATOM     37  H   UNL d   1       8.932  17.600   5.410 -0.30 -0.13    +0.295    14.269
ATOM     38  C   UNL d   1       8.513   8.580   3.499 -0.49 +0.00    +0.017    14.269
ATOM     39  C   UNL d   1       7.207   8.379   3.268 -0.46 +0.01    +0.092    14.269
ATOM     40  C   UNL d   1       6.680   7.013   3.203 -0.12 +0.10    +0.330    14.269
ATOM     41  O   UNL d   1       6.436   6.265   4.131 -1.26 -0.11    -0.246    14.269
ATOM     42  O   UNL d   1       6.473   6.658   1.926 -0.36 -0.08    -0.477    14.269
ATOM     43  H   UNL d   1       5.843   5.911   1.988 +0.19 +0.05    +0.295    14.269
ATOM     44  C   UNL d   1      14.001  16.400   8.773 -0.02 +0.00    +0.141    14.269
ATOM     45  C   UNL d   1      15.156  16.108   7.852 -0.00 +0.00    +0.306    14.269
ATOM     46  O   UNL d   1      15.287  16.496   6.704 -0.00 +0.01    -0.251    14.269
ATOM     47  O   UNL d   1      16.081  15.314   8.422 +0.00 -0.01    -0.481    14.269
ATOM     48  H   UNL d   1      15.703  15.082   9.297 +0.00 +0.02    +0.295    14.269
ATOM     49  C   UNL d   1      13.474   7.272   5.727 -0.17 +0.01    +0.048    14.269
ATOM     50  C   UNL d   1      12.195   6.450   5.880 -0.15 +0.05    +0.125    14.269
ATOM     51  C   UNL d   1      12.455   5.194   6.663 -0.07 +0.24    +0.305    14.269
ATOM     52  O   UNL d   1      13.096   4.219   6.313 -0.76 -0.17    -0.251    14.269
ATOM     53  O   UNL d   1      11.869   5.226   7.877 -0.25 -0.79    -0.481    14.269
ATOM     54  H   UNL d   1      12.265   6.010   8.312 +0.05 +0.33    +0.295    14.269
TER
ENDMDL
MODEL        8
USER    Run = 8
USER    Cluster Rank = 15
USER    Number of conformations in this cluster = 2
USER  
USER    RMSD from reference structure       = 17.357 A
USER  
USER    Estimated Free Energy of Binding    =   -5.46 kcal/mol  [=(1)+(2)+(3)-(4)]
USER    Estimated Inhibition Constant, Ki   =  100.14 uM (micromolar)  [Temperature = 298.15 K]
USER    
USER    (1) Final Intermolecular Energy     =   -9.33 kcal/mol
USER        vdW + Hbond + desolv Energy     =   -9.11 kcal/mol
USER        Electrostatic Energy            =   -0.22 kcal/mol
USER    (2) Final Total Internal Energy     =   -2.89 kcal/mol
USER    (3) Torsional Free Energy           =   +3.88 kcal/mol
USER    (4) Unbound System's Energy  [=(2)] =   -2.89 kcal/mol
USER    
USER    
USER  
USER    DPF = D:/Protein_go_brrr/autodock/final/mut_Y35F/heme/dock.dpf
USER    NEWDPF move	heme_opt.pdbqt
USER    NEWDPF about	0.153000 0.018000 -0.028000
USER    NEWDPF tran0	11.096267 16.234890 6.341770
USER    NEWDPF axisangle0	0.666219 0.104204 -0.738440 -135.125477
USER    NEWDPF quaternion0	0.615784 0.096316 -0.682539 -0.381672
USER    NEWDPF dihe0	180.00 164.54 -0.88 81.77 -155.09 34.84 118.16 27.50 8.41 3.32 -109.45 -26.51 -27.82 
USER  
USER                              x       y       z    vdW   Elec        q     RMS 
ATOM      1  O   UNL d   1      11.401  16.937  12.187 -0.09 -0.11    -0.289    17.357
ATOM      2  O   UNL d   1       9.076  21.598   6.778 -0.09 +0.03    -0.289    17.357
ATOM      3  N   UNL d   1      11.533  16.126   8.838 -0.10 -0.01    -0.247    17.357
ATOM      4  N   UNL d   1      10.150  18.405   7.527 -0.07 +0.06    -0.247    17.357
ATOM      5  N   UNL d   1      10.024  16.829   5.126 -0.13 +0.10    -0.354    17.357
ATOM      6  N   UNL d   1      11.443  14.461   6.499 -0.02 +0.01    -0.354    17.357
ATOM      7  C   UNL d   1      11.973  14.922  10.927 -0.12 +0.03    +0.084    17.357
ATOM      8  C   UNL d   1      10.171  20.549   8.699 -0.07 -0.01    +0.084    17.357
ATOM      9  C   UNL d   1      10.505  19.054   8.689 -0.13 -0.01    +0.058    17.357
ATOM     10  C   UNL d   1      11.915  14.918   9.397 -0.14 +0.01    +0.058    17.357
ATOM     11  C   UNL d   1      11.575  16.353  11.134 -0.10 +0.05    +0.193    17.357
ATOM     12  C   UNL d   1      11.361  16.982   9.792 -0.13 +0.01    +0.109    17.357
ATOM     13  C   UNL d   1       9.526  20.621   7.344 -0.10 -0.02    +0.193    17.357
ATOM     14  C   UNL d   1      10.905  14.017  11.546 -0.06 +0.02    +0.026    17.357
ATOM     15  C   UNL d   1      11.050  18.425   9.741 -0.13 +0.00    +0.055    17.357
ATOM     16  C   UNL d   1      11.436  21.414   8.689 -0.02 -0.00    +0.026    17.357
ATOM     17  C   UNL d   1       9.570  19.255   6.741 -0.15 -0.03    +0.109    17.357
ATOM     18  C   UNL d   1      12.296  13.842   8.682 -0.12 +0.01    +0.050    17.357
ATOM     19  C   UNL d   1      12.356  13.774   7.267 -0.10 +0.00    +0.045    17.357
ATOM     20  C   UNL d   1       9.209  17.871   4.766 -0.25 -0.01    +0.045    17.357
ATOM     21  C   UNL d   1       8.968  19.010   5.422 -0.18 -0.01    +0.057    17.357
ATOM     22  C   UNL d   1       9.119  16.268   3.141 -0.30 +0.01    -0.019    17.357
ATOM     23  C   UNL d   1      10.034  15.813   4.207 -0.27 -0.01    +0.045    17.357
ATOM     24  C   UNL d   1       8.635  17.487   3.478 -0.31 +0.01    -0.022    17.357
ATOM     25  C   UNL d   1      11.627  14.183   5.165 -0.09 -0.00    +0.049    17.357
ATOM     26  C   UNL d   1      13.178  13.061   6.408 -0.06 -0.00    -0.018    17.357
ATOM     27  C   UNL d   1      12.726  13.339   5.081 -0.10 -0.00    +0.003    17.357
ATOM     28  C   UNL d   1      10.707  14.652   4.188 -0.25 -0.01    +0.052    17.357
ATOM     29  C   UNL d   1       7.690  18.357   2.721 -0.32 -0.01    +0.046    17.357
ATOM     30  C   UNL d   1      14.315  12.177   6.793 -0.04 +0.00    +0.046    17.357
ATOM     31  H   UNL d   1      10.606  16.878   5.955 -0.01 -0.04    +0.166    17.357
ATOM     32  H   UNL d   1      10.717  15.052   6.887 +0.03 -0.02    +0.166    17.357
ATOM     33  C   UNL d   1      13.355  14.656  11.533 -0.04 +0.03    +0.141    17.357
ATOM     34  C   UNL d   1      14.400  15.620  11.038 -0.00 +0.04    +0.306    17.357
ATOM     35  O   UNL d   1      15.233  15.399  10.176 -0.00 -0.02    -0.251    17.357
ATOM     36  O   UNL d   1      14.338  16.813  11.655 +0.01 -0.05    -0.481    17.357
ATOM     37  H   UNL d   1      13.568  16.739  12.259 +0.02 +0.05    +0.295    17.357
ATOM     38  C   UNL d   1      13.291  12.790   3.885 -0.19 -0.00    +0.017    17.357
ATOM     39  C   UNL d   1      13.001  13.190   2.637 -0.27 -0.02    +0.092    17.357
ATOM     40  C   UNL d   1      13.664  12.556   1.495 -0.30 -0.03    +0.330    17.357
ATOM     41  O   UNL d   1      14.030  11.401   1.395 -1.06 -0.01    -0.246    17.357
ATOM     42  O   UNL d   1      13.825  13.445   0.503 -0.38 +0.08    -0.477    17.357
ATOM     43  H   UNL d   1      13.225  14.180   0.746 +0.13 -0.12    +0.295    17.357
ATOM     44  C   UNL d   1       9.199  21.001   9.794 -0.08 -0.01    +0.141    17.357
ATOM     45  C   UNL d   1       7.993  20.110   9.922 -0.18 -0.05    +0.306    17.357
ATOM     46  O   UNL d   1       7.962  18.994  10.411 -0.26 +0.04    -0.251    17.357
ATOM     47  O   UNL d   1       6.885  20.666   9.398 -0.44 +0.09    -0.481    17.357
ATOM     48  H   UNL d   1       6.187  19.986   9.517 -0.43 -0.19    +0.295    17.357
ATOM     49  C   UNL d   1       8.794  15.470   1.913 -0.37 -0.01    +0.048    17.357
ATOM     50  C   UNL d   1       9.376  16.106   0.651 -0.34 -0.04    +0.125    17.357
ATOM     51  C   UNL d   1      10.871  15.959   0.616 -0.16 -0.16    +0.305    17.357
ATOM     52  O   UNL d   1      11.552  15.146   1.216 -0.24 +0.11    -0.251    17.357
ATOM     53  O   UNL d   1      11.449  16.875  -0.186 -0.12 +0.40    -0.481    17.357
ATOM     54  H   UNL d   1      11.605  16.392  -1.025 -0.38 -0.39    +0.295    17.357
TER
ENDMDL
MODEL       43
USER    Run = 43
USER    Cluster Rank = 16
USER    Number of conformations in this cluster = 1
USER  
USER    RMSD from reference structure       = 11.112 A
USER  
USER    Estimated Free Energy of Binding    =   -5.19 kcal/mol  [=(1)+(2)+(3)-(4)]
USER    Estimated Inhibition Constant, Ki   =  157.16 uM (micromolar)  [Temperature = 298.15 K]
USER    
USER    (1) Final Intermolecular Energy     =   -9.07 kcal/mol
USER        vdW + Hbond + desolv Energy     =   -8.62 kcal/mol
USER        Electrostatic Energy            =   -0.45 kcal/mol
USER    (2) Final Total Internal Energy     =   -1.56 kcal/mol
USER    (3) Torsional Free Energy           =   +3.88 kcal/mol
USER    (4) Unbound System's Energy  [=(2)] =   -1.56 kcal/mol
USER    
USER    
USER  
USER    DPF = D:/Protein_go_brrr/autodock/final/mut_Y35F/heme/dock.dpf
USER    NEWDPF move	heme_opt.pdbqt
USER    NEWDPF about	0.153000 0.018000 -0.028000
USER    NEWDPF tran0	5.700737 -9.508436 8.542178
USER    NEWDPF axisangle0	0.987546 0.152686 -0.037950 146.655326
USER    NEWDPF quaternion0	0.946031 0.146267 -0.036354 0.286898
USER    NEWDPF dihe0	103.62 -93.73 155.93 -87.00 -132.90 5.69 86.74 83.17 29.69 103.94 -26.40 -179.57 -155.43 
USER  
USER                              x       y       z    vdW   Elec        q     RMS 
ATOM      1  O   UNL d   1       0.678 -12.172   6.983 -0.20 +0.05    -0.289    11.112
ATOM      2  O   UNL d   1       2.166  -7.299  12.499 -0.02 +0.37    -0.289    11.112
ATOM      3  N   UNL d   1       3.849 -10.966   7.605 -0.11 +0.02    -0.247    11.112
ATOM      4  N   UNL d   1       3.400  -8.923   9.716 -0.08 +0.03    -0.247    11.112
ATOM      5  N   UNL d   1       6.067  -7.967   9.227 -0.05 +0.04    -0.354    11.112
ATOM      6  N   UNL d   1       6.517 -10.077   7.025 -0.01 +0.04    -0.354    11.112
ATOM      7  C   UNL d   1       2.844 -12.372   5.867 -0.38 -0.02    +0.084    11.112
ATOM      8  C   UNL d   1       1.441  -9.208  11.149 -0.16 -0.02    +0.084    11.112
ATOM      9  C   UNL d   1       2.261  -9.664   9.937 -0.13 -0.01    +0.058    11.112
ATOM     10  C   UNL d   1       4.082 -11.675   6.439 -0.18 -0.01    +0.058    11.112
ATOM     11  C   UNL d   1       1.873 -11.947   6.928 -0.23 -0.04    +0.193    11.112
ATOM     12  C   UNL d   1       2.609 -11.122   7.938 -0.19 -0.01    +0.109    11.112
ATOM     13  C   UNL d   1       2.307  -8.048  11.552 -0.15 -0.12    +0.193    11.112
ATOM     14  C   UNL d   1       2.410 -11.768   4.529 -0.34 -0.01    +0.026    11.112
ATOM     15  C   UNL d   1       1.871 -10.665   9.133 -0.20 -0.01    +0.055    11.112
ATOM     16  C   UNL d   1       1.459 -10.249  12.271 -0.06 -0.01    +0.026    11.112
ATOM     17  C   UNL d   1       3.457  -7.979  10.600 -0.16 -0.04    +0.109    11.112
ATOM     18  C   UNL d   1       5.297 -11.832   5.881 -0.14 -0.01    +0.050    11.112
ATOM     19  C   UNL d   1       6.509 -11.296   6.387 -0.16 -0.01    +0.045    11.112
ATOM     20  C   UNL d   1       5.606  -6.970  10.047 -0.18 -0.01    +0.045    11.112
ATOM     21  C   UNL d   1       4.455  -6.907  10.724 -0.27 -0.03    +0.057    11.112
ATOM     22  C   UNL d   1       7.661  -6.375   9.245 -0.18 +0.00    -0.019    11.112
ATOM     23  C   UNL d   1       7.300  -7.697   8.695 -0.17 -0.00    +0.045    11.112
ATOM     24  C   UNL d   1       6.654  -5.950  10.046 -0.13 +0.00    -0.022    11.112
ATOM     25  C   UNL d   1       7.802  -9.710   7.351 -0.19 -0.01    +0.049    11.112
ATOM     26  C   UNL d   1       7.818 -11.751   6.328 -0.19 +0.00    -0.018    11.112
ATOM     27  C   UNL d   1       8.627 -10.754   6.956 -0.20 -0.00    +0.003    11.112
ATOM     28  C   UNL d   1       8.081  -8.419   7.877 -0.25 -0.01    +0.052    11.112
ATOM     29  C   UNL d   1       6.557  -4.687  10.831 -0.20 -0.01    +0.046    11.112
ATOM     30  C   UNL d   1       8.290 -13.032   5.729 -0.15 -0.01    +0.046    11.112
ATOM     31  H   UNL d   1       5.555  -8.835   9.115 +0.06 -0.02    +0.166    11.112
ATOM     32  H   UNL d   1       5.684  -9.523   7.186 +0.07 -0.01    +0.166    11.112
ATOM     33  C   UNL d   1       2.925 -13.900   5.794 -0.32 -0.04    +0.141    11.112
ATOM     34  C   UNL d   1       2.710 -14.557   7.131 -0.10 -0.05    +0.306    11.112
ATOM     35  O   UNL d   1       3.533 -14.655   8.026 -0.03 +0.03    -0.251    11.112
ATOM     36  O   UNL d   1       1.468 -15.052   7.271 -0.07 +0.06    -0.481    11.112
ATOM     37  H   UNL d   1       0.913 -14.272   7.483 +0.10 -0.03    +0.295    11.112
ATOM     38  C   UNL d   1      10.051 -10.817   7.099 -0.20 -0.00    +0.017    11.112
ATOM     39  C   UNL d   1      10.899 -11.317   6.188 -0.16 -0.04    +0.092    11.112
ATOM     40  C   UNL d   1      12.341 -11.307   6.449 -0.05 -0.03    +0.330    11.112
ATOM     41  O   UNL d   1      12.910 -10.940   7.460 -0.37 -0.11    -0.246    11.112
ATOM     42  O   UNL d   1      13.006 -11.785   5.387 -0.06 +0.22    -0.477    11.112
ATOM     43  H   UNL d   1      13.127 -11.001   4.813 -0.26 -0.43    +0.295    11.112
ATOM     44  C   UNL d   1       0.012  -8.746  10.844 -0.22 -0.04    +0.141    11.112
ATOM     45  C   UNL d   1      -0.793  -9.767  10.086 -0.19 -0.05    +0.306    11.112
ATOM     46  O   UNL d   1      -0.824 -10.968  10.293 -0.08 +0.03    -0.251    11.112
ATOM     47  O   UNL d   1      -1.503  -9.221   9.082 -0.21 +0.09    -0.481    11.112
ATOM     48  H   UNL d   1      -1.631  -8.286   9.349 -0.30 -0.14    +0.295    11.112
ATOM     49  C   UNL d   1       8.936  -5.650   8.928 -0.27 +0.00    +0.048    11.112
ATOM     50  C   UNL d   1       8.671  -4.283   8.298 -0.39 +0.00    +0.125    11.112
ATOM     51  C   UNL d   1       9.818  -3.346   8.549 -0.20 +0.04    +0.305    11.112
ATOM     52  O   UNL d   1      10.899  -3.327   7.986 -0.31 -0.05    -0.251    11.112
ATOM     53  O   UNL d   1       9.544  -2.463   9.530 -0.10 -0.08    -0.481    11.112
ATOM     54  H   UNL d   1       9.887  -2.894  10.341 +0.09 +0.04    +0.295    11.112
TER
ENDMDL
MODEL       45
USER    Run = 45
USER    Cluster Rank = 17
USER    Number of conformations in this cluster = 2
USER  
USER    RMSD from reference structure       = 17.058 A
USER  
USER    Estimated Free Energy of Binding    =   -5.18 kcal/mol  [=(1)+(2)+(3)-(4)]
USER    Estimated Inhibition Constant, Ki   =  159.61 uM (micromolar)  [Temperature = 298.15 K]
USER    
USER    (1) Final Intermolecular Energy     =   -9.06 kcal/mol
USER        vdW + Hbond + desolv Energy     =   -8.68 kcal/mol
USER        Electrostatic Energy            =   -0.38 kcal/mol
USER    (2) Final Total Internal Energy     =   -3.97 kcal/mol
USER    (3) Torsional Free Energy           =   +3.88 kcal/mol
USER    (4) Unbound System's Energy  [=(2)] =   -3.97 kcal/mol
USER    
USER    
USER  
USER    DPF = D:/Protein_go_brrr/autodock/final/mut_Y35F/heme/dock.dpf
USER    NEWDPF move	heme_opt.pdbqt
USER    NEWDPF about	0.153000 0.018000 -0.028000
USER    NEWDPF tran0	11.184483 14.060389 -10.349480
USER    NEWDPF axisangle0	-0.345412 0.731158 -0.588301 77.764655
USER    NEWDPF quaternion0	-0.216823 0.458965 -0.369290 0.778437
USER    NEWDPF dihe0	-85.42 -118.92 -138.73 -68.61 -129.70 -68.96 124.69 -138.17 -128.62 -22.34 -98.56 -3.79 -7.83 
USER  
USER                              x       y       z    vdW   Elec        q     RMS 
ATOM      1  O   UNL d   1       7.801  12.582 -14.946 -0.10 -0.00    -0.289    17.058
ATOM      2  O   UNL d   1      14.998  11.061 -13.432 -0.15 +0.06    -0.289    17.058
ATOM      3  N   UNL d   1       9.419  13.793 -12.150 -0.15 +0.01    -0.247    17.058
ATOM      4  N   UNL d   1      12.063  12.442 -12.253 -0.10 +0.04    -0.247    17.058
ATOM      5  N   UNL d   1      12.494  13.283  -9.537 -0.10 +0.08    -0.354    17.058
ATOM      6  N   UNL d   1       9.740  14.665  -9.433 -0.15 +0.01    -0.354    17.058
ATOM      7  C   UNL d   1       7.108  13.840 -12.968 -0.26 +0.00    +0.084    17.058
ATOM      8  C   UNL d   1      12.879  11.746 -14.448 -0.06 -0.01    +0.084    17.058
ATOM      9  C   UNL d   1      11.754  12.335 -13.590 -0.10 -0.01    +0.058    17.058
ATOM     10  C   UNL d   1       8.126  14.215 -11.886 -0.26 +0.00    +0.058    17.058
ATOM     11  C   UNL d   1       8.058  13.148 -13.898 -0.12 +0.00    +0.193    17.058
ATOM     12  C   UNL d   1       9.431  13.208 -13.304 -0.12 -0.00    +0.109    17.058
ATOM     13  C   UNL d   1      13.869  11.505 -13.344 -0.10 -0.04    +0.193    17.058
ATOM     14  C   UNL d   1       6.081  12.824 -12.462 -0.35 +0.00    +0.026    17.058
ATOM     15  C   UNL d   1      10.555  12.667 -14.093 -0.12 -0.00    +0.055    17.058
ATOM     16  C   UNL d   1      13.460  12.784 -15.413 -0.03 -0.00    +0.026    17.058
ATOM     17  C   UNL d   1      13.250  11.963 -12.064 -0.15 -0.03    +0.109    17.058
ATOM     18  C   UNL d   1       7.780  14.969 -10.827 -0.14 +0.00    +0.050    17.058
ATOM     19  C   UNL d   1       8.668  15.435  -9.823 -0.23 +0.00    +0.045    17.058
ATOM     20  C   UNL d   1      13.553  12.427  -9.689 -0.12 -0.02    +0.045    17.058
ATOM     21  C   UNL d   1      13.979  11.809 -10.796 -0.12 -0.02    +0.057    17.058
ATOM     22  C   UNL d   1      13.446  13.087  -7.505 -0.31 +0.00    -0.019    17.058
ATOM     23  C   UNL d   1      12.349  13.734  -8.252 -0.29 -0.01    +0.045    17.058
ATOM     24  C   UNL d   1      14.157  12.316  -8.362 -0.25 +0.01    -0.022    17.058
ATOM     25  C   UNL d   1      10.411  15.263  -8.392 -0.27 -0.00    +0.049    17.058
ATOM     26  C   UNL d   1       8.664  16.580  -9.041 -0.19 -0.00    -0.018    17.058
ATOM     27  C   UNL d   1       9.778  16.475  -8.153 -0.21 +0.00    +0.003    17.058
ATOM     28  C   UNL d   1      11.461  14.584  -7.714 -0.34 -0.01    +0.052    17.058
ATOM     29  C   UNL d   1      15.359  11.479  -8.086 -0.38 -0.01    +0.046    17.058
ATOM     30  C   UNL d   1       7.688  17.704  -9.115 -0.13 +0.01    +0.046    17.058
ATOM     31  H   UNL d   1      11.947  13.590 -10.334 +0.06 -0.03    +0.166    17.058
ATOM     32  H   UNL d   1       9.962  13.765  -9.842 +0.03 -0.02    +0.166    17.058
ATOM     33  C   UNL d   1       6.432  15.022 -13.671 -0.11 +0.00    +0.141    17.058
ATOM     34  C   UNL d   1       5.294  15.597 -12.871 -0.09 +0.01    +0.306    17.058
ATOM     35  O   UNL d   1       4.186  15.106 -12.739 -0.15 -0.01    -0.251    17.058
ATOM     36  O   UNL d   1       5.614  16.761 -12.278 -0.01 -0.02    -0.481    17.058
ATOM     37  H   UNL d   1       5.342  17.449 -12.922 +0.03 +0.00    +0.295    17.058
ATOM     38  C   UNL d   1      10.135  17.442  -7.158 -0.17 -0.00    +0.017    17.058
ATOM     39  C   UNL d   1      11.387  17.725  -6.768 -0.12 -0.02    +0.092    17.058
ATOM     40  C   UNL d   1      11.619  18.753  -5.749 -0.06 -0.13    +0.330    17.058
ATOM     41  O   UNL d   1      11.488  19.956  -5.864 -0.02 +0.06    -0.246    17.058
ATOM     42  O   UNL d   1      12.008  18.183  -4.598 -0.03 +0.49    -0.477    17.058
ATOM     43  H   UNL d   1      12.841  17.725  -4.833 -0.43 -0.47    +0.295    17.058
ATOM     44  C   UNL d   1      12.540  10.441 -15.176 -0.09 -0.02    +0.141    17.058
ATOM     45  C   UNL d   1      12.444   9.254 -14.255 -0.16 -0.07    +0.306    17.058
ATOM     46  O   UNL d   1      11.492   8.949 -13.559 -0.27 +0.04    -0.251    17.058
ATOM     47  O   UNL d   1      13.574   8.523 -14.239 +0.04 +0.21    -0.481    17.058
ATOM     48  H   UNL d   1      14.298   9.185 -14.247 -0.29 -0.17    +0.295    17.058
ATOM     49  C   UNL d   1      13.688  13.270  -6.036 -0.44 -0.02    +0.048    17.058
ATOM     50  C   UNL d   1      14.646  14.428  -5.756 -0.21 -0.06    +0.125    17.058
ATOM     51  C   UNL d   1      13.919  15.742  -5.775 -0.10 -0.23    +0.305    17.058
ATOM     52  O   UNL d   1      14.333  16.815  -6.177 -0.11 +0.18    -0.251    17.058
ATOM     53  O   UNL d   1      12.677  15.639  -5.261 -0.12 +0.39    -0.481    17.058
ATOM     54  H   UNL d   1      12.725  16.140  -4.420 -0.47 -0.59    +0.295    17.058
TER
ENDMDL
MODEL       55
USER    Run = 55
USER    Cluster Rank = 18
USER    Number of conformations in this cluster = 1
USER  
USER    RMSD from reference structure       = 16.431 A
USER  
USER    Estimated Free Energy of Binding    =   -5.08 kcal/mol  [=(1)+(2)+(3)-(4)]
USER    Estimated Inhibition Constant, Ki   =  187.42 uM (micromolar)  [Temperature = 298.15 K]
USER    
USER    (1) Final Intermolecular Energy     =   -8.96 kcal/mol
USER        vdW + Hbond + desolv Energy     =   -8.72 kcal/mol
USER        Electrostatic Energy            =   -0.24 kcal/mol
USER    (2) Final Total Internal Energy     =   -2.66 kcal/mol
USER    (3) Torsional Free Energy           =   +3.88 kcal/mol
USER    (4) Unbound System's Energy  [=(2)] =   -2.66 kcal/mol
USER    
USER    
USER  
USER    DPF = D:/Protein_go_brrr/autodock/final/mut_Y35F/heme/dock.dpf
USER    NEWDPF move	heme_opt.pdbqt
USER    NEWDPF about	0.153000 0.018000 -0.028000
USER    NEWDPF tran0	-4.327488 -12.582494 -13.750023
USER    NEWDPF axisangle0	0.031500 -0.252381 0.967115 154.385644
USER    NEWDPF quaternion0	0.030717 -0.246102 0.943055 0.221671
USER    NEWDPF dihe0	57.42 -180.00 -150.81 -119.26 23.23 31.14 23.31 -29.57 -5.29 130.19 61.00 -92.24 128.54 
USER  
USER                              x       y       z    vdW   Elec        q     RMS 
ATOM      1  O   UNL d   1       1.510 -11.762 -13.702 -0.36 +0.00    -0.289    16.431
ATOM      2  O   UNL d   1      -4.153  -6.937 -12.683 -0.10 +0.00    -0.289    16.431
ATOM      3  N   UNL d   1      -1.802 -12.689 -13.958 -0.12 +0.01    -0.247    16.431
ATOM      4  N   UNL d   1      -3.263 -10.244 -13.111 -0.14 +0.02    -0.247    16.431
ATOM      5  N   UNL d   1      -5.639 -11.848 -12.902 -0.08 +0.04    -0.354    16.431
ATOM      6  N   UNL d   1      -4.112 -14.384 -13.763 -0.11 -0.04    -0.354    16.431
ATOM      7  C   UNL d   1       0.337 -13.885 -14.007 -0.15 -0.00    +0.084    16.431
ATOM      8  C   UNL d   1      -2.129  -8.101 -13.417 -0.18 +0.00    +0.084    16.431
ATOM      9  C   UNL d   1      -2.086  -9.632 -13.481 -0.21 -0.00    +0.058    16.431
ATOM     10  C   UNL d   1      -1.193 -13.927 -14.073 -0.14 +0.00    +0.058    16.431
ATOM     11  C   UNL d   1       0.485 -12.401 -13.854 -0.20 -0.02    +0.193    16.431
ATOM     12  C   UNL d   1      -0.880 -11.786 -13.864 -0.22 -0.01    +0.109    16.431
ATOM     13  C   UNL d   1      -3.535  -7.960 -12.907 -0.07 -0.00    +0.193    16.431
ATOM     14  C   UNL d   1       0.877 -14.569 -12.749 -0.27 -0.00    +0.026    16.431
ATOM     15  C   UNL d   1      -0.981 -10.313 -13.818 -0.27 -0.00    +0.055    16.431
ATOM     16  C   UNL d   1      -2.045  -7.472 -14.811 -0.07 +0.00    +0.026    16.431
ATOM     17  C   UNL d   1      -4.109  -9.331 -12.756 -0.08 -0.00    +0.109    16.431
ATOM     18  C   UNL d   1      -1.855 -15.074 -14.314 -0.18 +0.01    +0.050    16.431
ATOM     19  C   UNL d   1      -3.258 -15.195 -14.475 -0.20 +0.01    +0.045    16.431
ATOM     20  C   UNL d   1      -6.084 -10.691 -12.316 -0.24 -0.01    +0.045    16.431
ATOM     21  C   UNL d   1      -5.470  -9.507 -12.228 -0.24 -0.01    +0.057    16.431
ATOM     22  C   UNL d   1      -7.684 -12.304 -12.074 -0.32 +0.00    -0.019    16.431
ATOM     23  C   UNL d   1      -6.537 -12.878 -12.806 -0.26 -0.01    +0.045    16.431
ATOM     24  C   UNL d   1      -7.410 -11.009 -11.789 -0.26 +0.01    -0.022    16.431
ATOM     25  C   UNL d   1      -5.421 -14.731 -14.002 -0.22 +0.01    +0.049    16.431
ATOM     26  C   UNL d   1      -4.033 -16.068 -15.224 -0.15 -0.01    -0.018    16.431
ATOM     27  C   UNL d   1      -5.398 -15.757 -14.937 -0.15 +0.00    +0.003    16.431
ATOM     28  C   UNL d   1      -6.480 -14.139 -13.262 -0.29 -0.00    +0.052    16.431
ATOM     29  C   UNL d   1      -8.259 -10.011 -11.077 -0.45 -0.02    +0.046    16.431
ATOM     30  C   UNL d   1      -3.538 -17.125 -16.152 -0.08 +0.02    +0.046    16.431
ATOM     31  H   UNL d   1      -4.765 -11.876 -13.414 +0.06 -0.01    +0.166    16.431
ATOM     32  H   UNL d   1      -3.797 -13.663 -13.124 +0.06 +0.01    +0.166    16.431
ATOM     33  C   UNL d   1       1.062 -14.370 -15.267 -0.04 -0.00    +0.141    16.431
ATOM     34  C   UNL d   1       0.423 -13.867 -16.533 +0.00 +0.00    +0.306    16.431
ATOM     35  O   UNL d   1       0.532 -12.746 -16.999 -0.01 -0.00    -0.251    16.431
ATOM     36  O   UNL d   1      -0.318 -14.806 -17.148 +0.01 -0.03    -0.481    16.431
ATOM     37  H   UNL d   1       0.043 -14.848 -18.059 +0.01 +0.01    +0.295    16.431
ATOM     38  C   UNL d   1      -6.532 -16.433 -15.490 -0.14 +0.01    +0.017    16.431
ATOM     39  C   UNL d   1      -7.511 -17.012 -14.778 -0.12 +0.03    +0.092    16.431
ATOM     40  C   UNL d   1      -8.630 -17.659 -15.469 -0.07 +0.11    +0.330    16.431
ATOM     41  O   UNL d   1      -8.623 -18.187 -16.564 -0.05 -0.09    -0.246    16.431
ATOM     42  O   UNL d   1      -9.733 -17.611 -14.706 -0.01 -0.10    -0.477    16.431
ATOM     43  H   UNL d   1      -9.439 -17.144 -13.897 +0.07 +0.05    +0.295    16.431
ATOM     44  C   UNL d   1      -1.128  -7.452 -12.456 -0.32 -0.00    +0.141    16.431
ATOM     45  C   UNL d   1       0.259  -7.339 -13.029 -0.20 +0.03    +0.306    16.431
ATOM     46  O   UNL d   1       0.720  -7.989 -13.951 -0.21 -0.03    -0.251    16.431
ATOM     47  O   UNL d   1       1.008  -6.423 -12.388 -0.19 -0.11    -0.481    16.431
ATOM     48  H   UNL d   1       0.650  -6.405 -11.475 -0.08 -0.02    +0.295    16.431
ATOM     49  C   UNL d   1      -8.923 -13.070 -11.714 -0.35 -0.00    +0.048    16.431
ATOM     50  C   UNL d   1      -8.592 -14.449 -11.142 -0.40 -0.01    +0.125    16.431
ATOM     51  C   UNL d   1      -9.157 -15.538 -12.009 -0.24 +0.02    +0.305    16.431
ATOM     52  O   UNL d   1     -10.209 -15.529 -12.624 -0.12 -0.02    -0.251    16.431
ATOM     53  O   UNL d   1      -8.352 -16.619 -12.049 -0.14 -0.04    -0.481    16.431
ATOM     54  H   UNL d   1      -8.298 -16.910 -11.115 -0.46 -0.05    +0.295    16.431
TER
ENDMDL
MODEL        4
USER    Run = 4
USER    Cluster Rank = 19
USER    Number of conformations in this cluster = 1
USER  
USER    RMSD from reference structure       = 18.097 A
USER  
USER    Estimated Free Energy of Binding    =   -5.06 kcal/mol  [=(1)+(2)+(3)-(4)]
USER    Estimated Inhibition Constant, Ki   =  195.18 uM (micromolar)  [Temperature = 298.15 K]
USER    
USER    (1) Final Intermolecular Energy     =   -8.94 kcal/mol
USER        vdW + Hbond + desolv Energy     =   -8.52 kcal/mol
USER        Electrostatic Energy            =   -0.41 kcal/mol
USER    (2) Final Total Internal Energy     =   -2.48 kcal/mol
USER    (3) Torsional Free Energy           =   +3.88 kcal/mol
USER    (4) Unbound System's Energy  [=(2)] =   -2.48 kcal/mol
USER    
USER    
USER  
USER    DPF = D:/Protein_go_brrr/autodock/final/mut_Y35F/heme/dock.dpf
USER    NEWDPF move	heme_opt.pdbqt
USER    NEWDPF about	0.153000 0.018000 -0.028000
USER    NEWDPF tran0	14.317613 16.451423 -6.178090
USER    NEWDPF axisangle0	0.111425 0.212771 -0.970728 149.069236
USER    NEWDPF quaternion0	0.107390 0.205067 -0.935580 0.266656
USER    NEWDPF dihe0	138.13 -46.97 -105.88 128.72 -136.59 -4.20 171.59 -65.46 47.62 20.36 100.77 -87.67 166.52 
USER  
USER                              x       y       z    vdW   Elec        q     RMS 
ATOM      1  O   UNL d   1      18.032  11.886  -5.831 -0.20 +0.11    -0.289    18.097
ATOM      2  O   UNL d   1      19.230  19.273  -5.208 -0.00 +0.06    -0.289    18.097
ATOM      3  N   UNL d   1      15.532  14.226  -6.248 -0.11 +0.09    -0.247    18.097
ATOM      4  N   UNL d   1      16.862  16.783  -5.525 -0.08 +0.13    -0.247    18.097
ATOM      5  N   UNL d   1      14.259  17.999  -5.415 +0.02 +0.38    -0.354    18.097
ATOM      6  N   UNL d   1      12.886  15.338  -6.146 -0.16 +0.16    -0.354    18.097
ATOM      7  C   UNL d   1      15.612  11.778  -6.160 -0.37 -0.02    +0.084    18.097
ATOM      8  C   UNL d   1      19.287  16.901  -5.810 -0.01 -0.02    +0.084    18.097
ATOM      9  C   UNL d   1      17.998  16.072  -5.843 -0.06 -0.02    +0.058    18.097
ATOM     10  C   UNL d   1      14.788  13.060  -6.307 -0.31 -0.02    +0.058    18.097
ATOM     11  C   UNL d   1      16.958  12.425  -6.026 -0.19 -0.06    +0.193    18.097
ATOM     12  C   UNL d   1      16.780  13.909  -6.121 -0.14 -0.03    +0.109    18.097
ATOM     13  C   UNL d   1      18.676  18.205  -5.379 -0.01 -0.06    +0.193    18.097
ATOM     14  C   UNL d   1      15.289  11.033  -4.862 -0.53 -0.01    +0.026    18.097
ATOM     15  C   UNL d   1      17.989  14.757  -6.108 -0.09 -0.02    +0.055    18.097
ATOM     16  C   UNL d   1      19.885  17.077  -7.209 -0.01 -0.00    +0.026    18.097
ATOM     17  C   UNL d   1      17.203  17.997  -5.234 -0.07 -0.05    +0.109    18.097
ATOM     18  C   UNL d   1      13.466  13.021  -6.562 -0.39 -0.01    +0.050    18.097
ATOM     19  C   UNL d   1      12.640  14.149  -6.796 -0.31 -0.01    +0.045    18.097
ATOM     20  C   UNL d   1      15.014  19.008  -4.876 -0.07 -0.04    +0.045    18.097
ATOM     21  C   UNL d   1      16.344  19.099  -4.777 -0.08 -0.04    +0.057    18.097
ATOM     22  C   UNL d   1      12.804  19.558  -4.691 -0.08 +0.01    -0.019    18.097
ATOM     23  C   UNL d   1      12.913  18.241  -5.349 -0.01 -0.04    +0.045    18.097
ATOM     24  C   UNL d   1      14.051  20.008  -4.415 -0.07 +0.02    -0.022    18.097
ATOM     25  C   UNL d   1      11.916  16.264  -6.450 -0.16 -0.02    +0.049    18.097
ATOM     26  C   UNL d   1      11.502  14.320  -7.570 -0.34 +0.00    -0.018    18.097
ATOM     27  C   UNL d   1      11.060  15.663  -7.362 -0.19 -0.00    +0.003    18.097
ATOM     28  C   UNL d   1      11.868  17.516  -5.778 -0.19 -0.03    +0.052    18.097
ATOM     29  C   UNL d   1      14.459  21.288  -3.768 -0.03 -0.02    +0.046    18.097
ATOM     30  C   UNL d   1      10.863  13.300  -8.450 -0.44 -0.01    +0.046    18.097
ATOM     31  H   UNL d   1      14.693  17.208  -5.880 +0.00 -0.14    +0.166    18.097
ATOM     32  H   UNL d   1      13.658  15.476  -5.505 -0.03 -0.14    +0.166    18.097
ATOM     33  C   UNL d   1      15.586  10.837  -7.370 -0.29 -0.04    +0.141    18.097
ATOM     34  C   UNL d   1      16.755  11.049  -8.293 -0.26 -0.09    +0.306    18.097
ATOM     35  O   UNL d   1      16.844  11.903  -9.158 -0.14 +0.06    -0.251    18.097
ATOM     36  O   UNL d   1      17.752  10.173  -8.076 -0.63 +0.10    -0.481    18.097
ATOM     37  H   UNL d   1      17.846  10.143  -7.100 -0.39 -0.17    +0.295    18.097
ATOM     38  C   UNL d   1       9.903  16.253  -7.963 -0.26 +0.00    +0.017    18.097
ATOM     39  C   UNL d   1       8.936  16.907  -7.302 -0.17 +0.02    +0.092    18.097
ATOM     40  C   UNL d   1       7.808  17.482  -8.040 -0.13 +0.08    +0.330    18.097
ATOM     41  O   UNL d   1       7.660  17.541  -9.246 -0.08 -0.03    -0.246    18.097
ATOM     42  O   UNL d   1       6.891  17.960  -7.184 -0.52 -0.31    -0.477    18.097
ATOM     43  H   UNL d   1       6.680  18.848  -7.537 +0.05 +0.13    +0.295    18.097
ATOM     44  C   UNL d   1      20.347  16.434  -4.808 -0.01 -0.03    +0.141    18.097
ATOM     45  C   UNL d   1      19.763  15.755  -3.598 -0.04 -0.08    +0.306    18.097
ATOM     46  O   UNL d   1      20.071  14.660  -3.159 -0.07 +0.06    -0.251    18.097
ATOM     47  O   UNL d   1      18.795  16.485  -3.015 -0.05 +0.23    -0.481    18.097
ATOM     48  H   UNL d   1      18.029  16.411  -3.623 +0.05 -0.18    +0.295    18.097
ATOM     49  C   UNL d   1      11.504  20.242  -4.383 -0.06 -0.02    +0.048    18.097
ATOM     50  C   UNL d   1      10.892  19.737  -3.077 -0.08 -0.05    +0.125    18.097
ATOM     51  C   UNL d   1      10.218  18.409  -3.278 -0.14 -0.11    +0.305    18.097
ATOM     52  O   UNL d   1       9.179  18.186  -3.873 -0.17 -0.02    -0.251    18.097
ATOM     53  O   UNL d   1      10.900  17.404  -2.694 -0.16 +0.43    -0.481    18.097
ATOM     54  H   UNL d   1      11.814  17.509  -3.031 -0.31 -0.57    +0.295    18.097
TER
ENDMDL
MODEL       92
USER    Run = 92
USER    Cluster Rank = 20
USER    Number of conformations in this cluster = 1
USER  
USER    RMSD from reference structure       = 15.455 A
USER  
USER    Estimated Free Energy of Binding    =   -4.84 kcal/mol  [=(1)+(2)+(3)-(4)]
USER    Estimated Inhibition Constant, Ki   =  283.46 uM (micromolar)  [Temperature = 298.15 K]
USER    
USER    (1) Final Intermolecular Energy     =   -8.72 kcal/mol
USER        vdW + Hbond + desolv Energy     =   -8.53 kcal/mol
USER        Electrostatic Energy            =   -0.18 kcal/mol
USER    (2) Final Total Internal Energy     =   -1.94 kcal/mol
USER    (3) Torsional Free Energy           =   +3.88 kcal/mol
USER    (4) Unbound System's Energy  [=(2)] =   -1.94 kcal/mol
USER    
USER    
USER  
USER    DPF = D:/Protein_go_brrr/autodock/final/mut_Y35F/heme/dock.dpf
USER    NEWDPF move	heme_opt.pdbqt
USER    NEWDPF about	0.153000 0.018000 -0.028000
USER    NEWDPF tran0	10.933682 14.082243 6.040267
USER    NEWDPF axisangle0	0.468796 0.738276 0.484952 -139.289827
USER    NEWDPF quaternion0	0.439522 0.692175 0.454669 -0.347837
USER    NEWDPF dihe0	-105.10 -84.56 -131.48 169.20 37.25 -91.12 120.38 79.95 136.80 10.96 86.81 89.04 -5.50 
USER  
USER                              x       y       z    vdW   Elec        q     RMS 
ATOM      1  O   UNL d   1      14.084   9.441   7.856 -0.00 -0.06    -0.289    15.455
ATOM      2  O   UNL d   1       9.114  10.144   2.270 -0.32 +0.05    -0.289    15.455
ATOM      3  N   UNL d   1      12.361  12.366   7.245 -0.06 -0.02    -0.247    15.455
ATOM      4  N   UNL d   1      10.904  11.786   4.721 +0.11 +0.01    -0.247    15.455
ATOM      5  N   UNL d   1      10.360  14.601   4.497 -0.10 +0.04    -0.354    15.455
ATOM      6  N   UNL d   1      11.890  15.196   7.106 -0.06 +0.01    -0.354    15.455
ATOM      7  C   UNL d   1      14.166  11.708   8.767 -0.02 +0.01    +0.084    15.455
ATOM      8  C   UNL d   1      10.389   9.447   4.240 -0.28 +0.00    +0.084    15.455
ATOM      9  C   UNL d   1      11.083  10.483   5.129 -0.15 +0.00    +0.058    15.455
ATOM     10  C   UNL d   1      13.226  12.795   8.238 -0.06 +0.01    +0.058    15.455
ATOM     11  C   UNL d   1      13.666  10.584   7.911 -0.01 +0.03    +0.193    15.455
ATOM     12  C   UNL d   1      12.556  11.103   7.050 -0.07 +0.01    +0.109    15.455
ATOM     13  C   UNL d   1       9.813  10.400   3.231 -0.19 -0.03    +0.193    15.455
ATOM     14  C   UNL d   1      15.628  11.989   8.412 -0.01 +0.00    +0.026    15.455
ATOM     15  C   UNL d   1      11.842  10.144   6.182 -0.14 +0.01    +0.055    15.455
ATOM     16  C   UNL d   1       9.238   8.750   4.972 -0.30 +0.00    +0.026    15.455
ATOM     17  C   UNL d   1      10.204  11.785   3.632 -0.24 -0.02    +0.109    15.455
ATOM     18  C   UNL d   1      13.204  14.029   8.776 -0.06 +0.00    +0.050    15.455
ATOM     19  C   UNL d   1      12.314  15.071   8.410 -0.10 +0.00    +0.045    15.455
ATOM     20  C   UNL d   1       9.938  14.180   3.262 -0.37 -0.01    +0.045    15.455
ATOM     21  C   UNL d   1       9.814  12.932   2.799 -0.40 -0.01    +0.057    15.455
ATOM     22  C   UNL d   1       9.885  16.463   3.323 -0.24 +0.00    -0.019    15.455
ATOM     23  C   UNL d   1      10.362  15.964   4.628 -0.24 -0.01    +0.045    15.455
ATOM     24  C   UNL d   1       9.635  15.403   2.519 -0.35 +0.01    -0.022    15.455
ATOM     25  C   UNL d   1      11.111  16.319   6.957 -0.18 -0.01    +0.049    15.455
ATOM     26  C   UNL d   1      11.767  16.118   9.134 -0.14 -0.00    -0.018    15.455
ATOM     27  C   UNL d   1      10.992  16.892   8.216 -0.19 -0.00    +0.003    15.455
ATOM     28  C   UNL d   1      10.684  16.746   5.670 -0.20 -0.01    +0.052    15.455
ATOM     29  C   UNL d   1       9.127  15.394   1.117 -0.30 -0.01    +0.046    15.455
ATOM     30  C   UNL d   1      11.949  16.385  10.590 -0.12 +0.01    +0.046    15.455
ATOM     31  H   UNL d   1      10.563  13.938   5.238 +0.09 -0.01    +0.166    15.455
ATOM     32  H   UNL d   1      12.161  14.560   6.365 +0.03 -0.01    +0.166    15.455
ATOM     33  C   UNL d   1      14.004  11.366  10.252 -0.01 +0.03    +0.141    15.455
ATOM     34  C   UNL d   1      15.026  10.371  10.732 +0.01 +0.05    +0.306    15.455
ATOM     35  O   UNL d   1      16.112  10.633  11.220 +0.00 -0.03    -0.251    15.455
ATOM     36  O   UNL d   1      14.624   9.097  10.573 +0.01 -0.10    -0.481    15.455
ATOM     37  H   UNL d   1      14.675   8.941   9.606 +0.01 +0.07    +0.295    15.455
ATOM     38  C   UNL d   1      10.265  18.081   8.547 -0.17 -0.00    +0.017    15.455
ATOM     39  C   UNL d   1       9.350  18.182   9.523 -0.18 -0.01    +0.092    15.455
ATOM     40  C   UNL d   1       8.687  19.465   9.772 -0.19 -0.04    +0.330    15.455
ATOM     41  O   UNL d   1       9.015  20.331  10.561 -0.08 +0.01    -0.246    15.455
ATOM     42  O   UNL d   1       7.615  19.593   8.976 -0.34 +0.11    -0.477    15.455
ATOM     43  H   UNL d   1       6.870  19.288   9.534 -0.47 -0.17    +0.295    15.455
ATOM     44  C   UNL d   1      11.315   8.428   3.567 -0.37 +0.00    +0.141    15.455
ATOM     45  C   UNL d   1      12.612   9.026   3.093 -0.28 -0.00    +0.306    15.455
ATOM     46  O   UNL d   1      13.569   9.328   3.785 -0.21 -0.03    -0.251    15.455
ATOM     47  O   UNL d   1      12.626   9.240   1.765 -0.26 +0.06    -0.481    15.455
ATOM     48  H   UNL d   1      11.775   9.690   1.577 -0.38 -0.15    +0.295    15.455
ATOM     49  C   UNL d   1       9.734  17.916   2.981 -0.17 -0.01    +0.048    15.455
ATOM     50  C   UNL d   1       8.349  18.447   3.352 -0.26 -0.03    +0.125    15.455
ATOM     51  C   UNL d   1       7.403  18.337   2.190 -0.21 -0.06    +0.305    15.455
ATOM     52  O   UNL d   1       6.884  17.327   1.748 -0.33 +0.07    -0.251    15.455
ATOM     53  O   UNL d   1       7.162  19.534   1.621 -0.05 +0.05    -0.481    15.455
ATOM     54  H   UNL d   1       7.542  20.180   2.253 +0.07 -0.03    +0.295    15.455
TER
ENDMDL
MODEL       50
USER    Run = 50
USER    Cluster Rank = 21
USER    Number of conformations in this cluster = 2
USER  
USER    RMSD from reference structure       = 14.461 A
USER  
USER    Estimated Free Energy of Binding    =   -4.83 kcal/mol  [=(1)+(2)+(3)-(4)]
USER    Estimated Inhibition Constant, Ki   =  289.09 uM (micromolar)  [Temperature = 298.15 K]
USER    
USER    (1) Final Intermolecular Energy     =   -8.71 kcal/mol
USER        vdW + Hbond + desolv Energy     =   -8.35 kcal/mol
USER        Electrostatic Energy            =   -0.35 kcal/mol
USER    (2) Final Total Internal Energy     =   -1.92 kcal/mol
USER    (3) Torsional Free Energy           =   +3.88 kcal/mol
USER    (4) Unbound System's Energy  [=(2)] =   -1.92 kcal/mol
USER    
USER    
USER  
USER    DPF = D:/Protein_go_brrr/autodock/final/mut_Y35F/heme/dock.dpf
USER    NEWDPF move	heme_opt.pdbqt
USER    NEWDPF about	0.153000 0.018000 -0.028000
USER    NEWDPF tran0	-0.129683 12.168214 -11.809618
USER    NEWDPF axisangle0	0.915539 -0.024651 -0.401473 153.385936
USER    NEWDPF quaternion0	0.890958 -0.023989 -0.390693 0.230169
USER    NEWDPF dihe0	29.11 -179.12 -153.37 145.17 -143.04 38.33 130.74 132.78 165.75 -43.10 145.87 61.65 19.36 
USER  
USER                              x       y       z    vdW   Elec        q     RMS 
ATOM      1  O   UNL d   1      -4.841  10.169  -8.884 -0.22 +0.16    -0.289    14.461
ATOM      2  O   UNL d   1       0.188  15.454  -7.104 -0.13 +0.09    -0.289    14.461
ATOM      3  N   UNL d   1      -2.130  10.916 -10.881 -0.16 +0.03    -0.247    14.461
ATOM      4  N   UNL d   1      -0.925  13.278  -9.541 -0.15 +0.04    -0.247    14.461
ATOM      5  N   UNL d   1       0.641  13.709 -11.913 -0.11 +0.01    -0.354    14.461
ATOM      6  N   UNL d   1      -0.629  11.269 -13.304 -0.04 +0.02    -0.354    14.461
ATOM      7  C   UNL d   1      -4.093   9.465 -11.102 -0.13 -0.00    +0.084    14.461
ATOM      8  C   UNL d   1      -1.312  13.519  -7.140 -0.28 -0.04    +0.084    14.461
ATOM      9  C   UNL d   1      -1.592  12.771  -8.448 -0.27 -0.02    +0.058    14.461
ATOM     10  C   UNL d   1      -2.800  10.024 -11.702 -0.18 -0.00    +0.058    14.461
ATOM     11  C   UNL d   1      -4.028  10.186  -9.789 -0.17 -0.04    +0.193    14.461
ATOM     12  C   UNL d   1      -2.779  11.013  -9.767 -0.24 -0.02    +0.109    14.461
ATOM     13  C   UNL d   1      -0.392  14.567  -7.700 -0.17 -0.06    +0.193    14.461
ATOM     14  C   UNL d   1      -5.332   9.940 -11.866 -0.05 -0.00    +0.026    14.461
ATOM     15  C   UNL d   1      -2.453  11.745  -8.527 -0.34 -0.02    +0.055    14.461
ATOM     16  C   UNL d   1      -0.527  12.655  -6.148 -0.52 -0.01    +0.026    14.461
ATOM     17  C   UNL d   1      -0.246  14.314  -9.166 -0.21 -0.02    +0.109    14.461
ATOM     18  C   UNL d   1      -2.332   9.594 -12.889 -0.19 -0.00    +0.050    14.461
ATOM     19  C   UNL d   1      -1.106   9.990 -13.482 -0.19 -0.00    +0.045    14.461
ATOM     20  C   UNL d   1       0.909  14.872 -11.239 -0.22 -0.00    +0.045    14.461
ATOM     21  C   UNL d   1       0.570  15.216  -9.993 -0.24 -0.00    +0.057    14.461
ATOM     22  C   UNL d   1       1.813  15.007 -13.333 -0.13 +0.00    -0.019    14.461
ATOM     23  C   UNL d   1       1.146  13.698 -13.186 -0.13 -0.00    +0.045    14.461
ATOM     24  C   UNL d   1       1.671  15.697 -12.177 -0.14 +0.00    -0.022    14.461
ATOM     25  C   UNL d   1       0.519  11.463 -14.036 +0.09 -0.00    +0.049    14.461
ATOM     26  C   UNL d   1      -0.227   9.325 -14.323 -0.21 +0.00    -0.018    14.461
ATOM     27  C   UNL d   1       0.808  10.254 -14.654 -0.19 -0.00    +0.003    14.461
ATOM     28  C   UNL d   1       1.111  12.751 -14.136 -0.10 -0.00    +0.052    14.461
ATOM     29  C   UNL d   1       2.178  17.056 -11.833 -0.07 +0.00    +0.046    14.461
ATOM     30  C   UNL d   1      -0.338   7.913 -14.790 -0.21 -0.00    +0.046    14.461
ATOM     31  H   UNL d   1       0.183  12.929 -11.454 +0.04 -0.01    +0.166    14.461
ATOM     32  H   UNL d   1      -1.097  11.968 -12.739 +0.03 -0.01    +0.166    14.461
ATOM     33  C   UNL d   1      -4.115   7.949 -10.883 -0.19 +0.02    +0.141    14.461
ATOM     34  C   UNL d   1      -5.483   7.354 -11.080 -0.07 +0.09    +0.306    14.461
ATOM     35  O   UNL d   1      -6.344   7.228 -10.225 -0.65 -0.20    -0.251    14.461
ATOM     36  O   UNL d   1      -5.696   6.952 -12.345 +0.01 -0.06    -0.481    14.461
ATOM     37  H   UNL d   1      -6.669   7.005 -12.460 +0.03 +0.04    +0.295    14.461
ATOM     38  C   UNL d   1       1.917   9.980 -15.516 -0.20 -0.00    +0.017    14.461
ATOM     39  C   UNL d   1       3.042   9.344 -15.153 -0.29 -0.01    +0.092    14.461
ATOM     40  C   UNL d   1       4.099   9.110 -16.140 -0.12 -0.04    +0.330    14.461
ATOM     41  O   UNL d   1       4.446   9.844 -17.046 -0.05 +0.02    -0.246    14.461
ATOM     42  O   UNL d   1       4.688   7.925 -15.915 -0.10 +0.10    -0.477    14.461
ATOM     43  H   UNL d   1       4.204   7.566 -15.143 -0.32 -0.13    +0.295    14.461
ATOM     44  C   UNL d   1      -2.532  14.161  -6.472 -0.17 -0.10    +0.141    14.461
ATOM     45  C   UNL d   1      -2.745  15.596  -6.876 -0.06 -0.18    +0.306    14.461
ATOM     46  O   UNL d   1      -3.363  15.992  -7.849 -0.02 +0.08    -0.251    14.461
ATOM     47  O   UNL d   1      -2.141  16.461  -6.042 -0.00 +0.44    -0.481    14.461
ATOM     48  H   UNL d   1      -1.399  15.952  -5.652 -0.40 -0.47    +0.295    14.461
ATOM     49  C   UNL d   1       2.508  15.463 -14.582 -0.06 -0.00    +0.048    14.461
ATOM     50  C   UNL d   1       3.720  14.591 -14.909 -0.08 -0.00    +0.125    14.461
ATOM     51  C   UNL d   1       4.382  14.099 -13.653 -0.13 +0.01    +0.305    14.461
ATOM     52  O   UNL d   1       4.646  12.947 -13.355 -0.21 -0.01    -0.251    14.461
ATOM     53  O   UNL d   1       4.673  15.107 -12.808 -0.07 -0.02    -0.481    14.461
ATOM     54  H   UNL d   1       4.916  15.851 -13.399 +0.06 +0.00    +0.295    14.461
TER
ENDMDL
MODEL       25
USER    Run = 25
USER    Cluster Rank = 22
USER    Number of conformations in this cluster = 1
USER  
USER    RMSD from reference structure       = 11.591 A
USER  
USER    Estimated Free Energy of Binding    =   -4.82 kcal/mol  [=(1)+(2)+(3)-(4)]
USER    Estimated Inhibition Constant, Ki   =  291.64 uM (micromolar)  [Temperature = 298.15 K]
USER    
USER    (1) Final Intermolecular Energy     =   -8.70 kcal/mol
USER        vdW + Hbond + desolv Energy     =   -8.27 kcal/mol
USER        Electrostatic Energy            =   -0.43 kcal/mol
USER    (2) Final Total Internal Energy     =   -2.26 kcal/mol
USER    (3) Torsional Free Energy           =   +3.88 kcal/mol
USER    (4) Unbound System's Energy  [=(2)] =   -2.26 kcal/mol
USER    
USER    
USER  
USER    DPF = D:/Protein_go_brrr/autodock/final/mut_Y35F/heme/dock.dpf
USER    NEWDPF move	heme_opt.pdbqt
USER    NEWDPF about	0.153000 0.018000 -0.028000
USER    NEWDPF tran0	-14.430595 -0.715081 -4.148133
USER    NEWDPF axisangle0	0.336932 -0.391944 0.856071 -164.552648
USER    NEWDPF quaternion0	0.333875 -0.388388 0.848304 -0.134396
USER    NEWDPF dihe0	-172.64 12.79 135.24 -115.27 -158.97 -3.01 -51.26 -106.31 8.32 -145.12 -17.52 -108.77 -156.45 
USER  
USER                              x       y       z    vdW   Elec        q     RMS 
ATOM      1  O   UNL d   1     -10.797  -2.143  -8.566 -0.18 -0.05    -0.289    11.591
ATOM      2  O   UNL d   1     -10.830   3.759  -3.923 -0.08 -0.03    -0.289    11.591
ATOM      3  N   UNL d   1     -13.241  -1.655  -6.181 -0.11 -0.03    -0.247    11.591
ATOM      4  N   UNL d   1     -12.262   0.711  -4.673 -0.13 -0.01    -0.247    11.591
ATOM      5  N   UNL d   1     -14.213   0.112  -2.649 -0.09 -0.04    -0.354    11.591
ATOM      6  N   UNL d   1     -15.210  -2.352  -4.210 -0.09 -0.05    -0.354    11.591
ATOM      7  C   UNL d   1     -12.693  -3.454  -7.753 -0.22 +0.01    +0.084    11.591
ATOM      8  C   UNL d   1     -10.791   2.261  -5.859 -0.13 +0.00    +0.084    11.591
ATOM      9  C   UNL d   1     -11.566   0.939  -5.839 -0.17 +0.00    +0.058    11.591
ATOM     10  C   UNL d   1     -13.596  -2.912  -6.641 -0.20 +0.01    +0.058    11.591
ATOM     11  C   UNL d   1     -11.776  -2.273  -7.854 -0.10 +0.03    +0.193    11.591
ATOM     12  C   UNL d   1     -12.228  -1.239  -6.869 -0.10 +0.01    +0.109    11.591
ATOM     13  C   UNL d   1     -11.147   2.723  -4.473 -0.10 +0.01    +0.193    11.591
ATOM     14  C   UNL d   1     -11.884  -4.671  -7.295 -0.36 +0.00    +0.026    11.591
ATOM     15  C   UNL d   1     -11.525   0.060  -6.852 -0.17 +0.00    +0.055    11.591
ATOM     16  C   UNL d   1     -11.378   3.249  -6.872 -0.06 +0.00    +0.026    11.591
ATOM     17  C   UNL d   1     -12.035   1.691  -3.859 -0.17 +0.00    +0.109    11.591
ATOM     18  C   UNL d   1     -14.687  -3.586  -6.230 -0.18 +0.01    +0.050    11.591
ATOM     19  C   UNL d   1     -15.624  -3.126  -5.270 -0.14 +0.00    +0.045    11.591
ATOM     20  C   UNL d   1     -13.490   1.079  -2.000 -0.23 +0.00    +0.045    11.591
ATOM     21  C   UNL d   1     -12.511   1.854  -2.477 -0.20 +0.00    +0.057    11.591
ATOM     22  C   UNL d   1     -14.998   0.181  -0.539 -0.17 -0.00    -0.019    11.591
ATOM     23  C   UNL d   1     -15.148  -0.487  -1.847 -0.15 +0.01    +0.045    11.591
ATOM     24  C   UNL d   1     -14.016   1.108  -0.636 -0.23 -0.00    -0.022    11.591
ATOM     25  C   UNL d   1     -16.260  -2.096  -3.359 -0.14 +0.01    +0.049    11.591
ATOM     26  C   UNL d   1     -16.985  -3.348  -5.124 -0.08 -0.00    -0.018    11.591
ATOM     27  C   UNL d   1     -17.385  -2.679  -3.926 -0.09 +0.00    +0.003    11.591
ATOM     28  C   UNL d   1     -16.046  -1.448  -2.112 -0.12 +0.02    +0.052    11.591
ATOM     29  C   UNL d   1     -13.508   2.041   0.409 -0.25 +0.01    +0.046    11.591
ATOM     30  C   UNL d   1     -17.862  -4.131  -6.041 -0.04 +0.00    +0.046    11.591
ATOM     31  H   UNL d   1     -14.095  -0.057  -3.642 +0.06 +0.01    +0.166    11.591
ATOM     32  H   UNL d   1     -14.250  -2.057  -4.073 +0.06 +0.02    +0.166    11.591
ATOM     33  C   UNL d   1     -13.387  -3.713  -9.095 -0.10 +0.01    +0.141    11.591
ATOM     34  C   UNL d   1     -14.084  -2.492  -9.631 -0.00 +0.01    +0.306    11.591
ATOM     35  O   UNL d   1     -15.287  -2.290  -9.629 -0.00 -0.01    -0.251    11.591
ATOM     36  O   UNL d   1     -13.228  -1.587 -10.139 +0.01 -0.02    -0.481    11.591
ATOM     37  H   UNL d   1     -12.351  -2.022 -10.088 +0.05 +0.02    +0.295    11.591
ATOM     38  C   UNL d   1     -18.713  -2.666  -3.393 -0.06 +0.00    +0.017    11.591
ATOM     39  C   UNL d   1     -19.114  -3.328  -2.296 -0.08 +0.04    +0.092    11.591
ATOM     40  C   UNL d   1     -20.503  -3.217  -1.843 -0.02 +0.08    +0.330    11.591
ATOM     41  O   UNL d   1     -21.379  -2.506  -2.299 -0.00 -0.03    -0.246    11.591
ATOM     42  O   UNL d   1     -20.719  -4.044  -0.810 -0.03 -0.16    -0.477    11.591
ATOM     43  H   UNL d   1     -21.694  -4.056  -0.718 +0.02 +0.05    +0.295    11.591
ATOM     44  C   UNL d   1      -9.273   2.135  -6.023 -0.24 -0.01    +0.141    11.591
ATOM     45  C   UNL d   1      -8.605   3.434  -6.387 +0.05 +0.13    +0.306    11.591
ATOM     46  O   UNL d   1      -8.320   3.815  -7.509 -0.43 -0.19    -0.251    11.591
ATOM     47  O   UNL d   1      -8.304   4.178  -5.307 -0.76 -0.36    -0.481    11.591
ATOM     48  H   UNL d   1      -9.112   4.149  -4.752 +0.12 +0.11    +0.295    11.591
ATOM     49  C   UNL d   1     -15.810  -0.156   0.677 -0.22 +0.01    +0.048    11.591
ATOM     50  C   UNL d   1     -14.931  -0.621   1.838 -0.26 +0.04    +0.125    11.591
ATOM     51  C   UNL d   1     -15.684  -0.565   3.137 -0.28 +0.12    +0.305    11.591
ATOM     52  O   UNL d   1     -15.479   0.175   4.083 -0.95 -0.11    -0.251    11.591
ATOM     53  O   UNL d   1     -16.675  -1.477   3.185 -0.35 -0.17    -0.481    11.591
ATOM     54  H   UNL d   1     -16.208  -2.338   3.153 -0.35 +0.04    +0.295    11.591
TER
ENDMDL
MODEL       65
USER    Run = 65
USER    Cluster Rank = 23
USER    Number of conformations in this cluster = 1
USER  
USER    RMSD from reference structure       = 15.048 A
USER  
USER    Estimated Free Energy of Binding    =   -4.76 kcal/mol  [=(1)+(2)+(3)-(4)]
USER    Estimated Inhibition Constant, Ki   =  323.75 uM (micromolar)  [Temperature = 298.15 K]
USER    
USER    (1) Final Intermolecular Energy     =   -8.64 kcal/mol
USER        vdW + Hbond + desolv Energy     =   -8.37 kcal/mol
USER        Electrostatic Energy            =   -0.27 kcal/mol
USER    (2) Final Total Internal Energy     =   -2.44 kcal/mol
USER    (3) Torsional Free Energy           =   +3.88 kcal/mol
USER    (4) Unbound System's Energy  [=(2)] =   -2.44 kcal/mol
USER    
USER    
USER  
USER    DPF = D:/Protein_go_brrr/autodock/final/mut_Y35F/heme/dock.dpf
USER    NEWDPF move	heme_opt.pdbqt
USER    NEWDPF about	0.153000 0.018000 -0.028000
USER    NEWDPF tran0	-3.499619 -10.579934 -13.605229
USER    NEWDPF axisangle0	-0.176214 0.132151 -0.975441 -168.962023
USER    NEWDPF quaternion0	-0.175397 0.131538 -0.970919 -0.096176
USER    NEWDPF dihe0	109.44 -156.72 -131.66 65.28 179.43 -51.56 124.17 -126.24 -20.70 -19.93 95.18 -101.06 21.48 
USER  
USER                              x       y       z    vdW   Elec        q     RMS 
ATOM      1  O   UNL d   1       2.137 -11.016 -15.277 -0.39 -0.03    -0.289    15.048
ATOM      2  O   UNL d   1      -2.314  -5.022 -14.469 -0.03 -0.01    -0.289    15.048
ATOM      3  N   UNL d   1      -1.187 -11.264 -14.392 -0.09 +0.01    -0.247    15.048
ATOM      4  N   UNL d   1      -2.011  -8.432 -14.030 -0.08 -0.00    -0.247    15.048
ATOM      5  N   UNL d   1      -4.394  -9.387 -12.736 -0.05 +0.02    -0.354    15.048
ATOM      6  N   UNL d   1      -3.523 -12.321 -13.098 -0.12 +0.03    -0.354    15.048
ATOM      7  C   UNL d   1       0.672 -12.848 -14.589 -0.15 -0.00    +0.084    15.048
ATOM      8  C   UNL d   1      -0.765  -6.738 -15.275 -0.03 +0.01    +0.084    15.048
ATOM      9  C   UNL d   1      -0.934  -8.202 -14.856 -0.08 +0.00    +0.058    15.048
ATOM     10  C   UNL d   1      -0.799 -12.586 -14.255 -0.17 -0.00    +0.058    15.048
ATOM     11  C   UNL d   1       1.043 -11.443 -14.958 -0.11 +0.01    +0.193    15.048
ATOM     12  C   UNL d   1      -0.176 -10.583 -14.822 -0.14 +0.00    +0.109    15.048
ATOM     13  C   UNL d   1      -1.924  -6.173 -14.502 -0.03 +0.01    +0.193    15.048
ATOM     14  C   UNL d   1       1.477 -13.265 -13.355 -0.25 -0.01    +0.026    15.048
ATOM     15  C   UNL d   1      -0.074  -9.165 -15.224 -0.12 +0.00    +0.055    15.048
ATOM     16  C   UNL d   1      -1.028  -6.541 -16.771 -0.01 +0.00    +0.026    15.048
ATOM     17  C   UNL d   1      -2.591  -7.301 -13.785 -0.10 +0.00    +0.109    15.048
ATOM     18  C   UNL d   1      -1.640 -13.591 -13.945 -0.18 +0.00    +0.050    15.048
ATOM     19  C   UNL d   1      -3.030 -13.455 -13.704 -0.11 +0.00    +0.045    15.048
ATOM     20  C   UNL d   1      -4.495  -8.048 -12.457 -0.06 -0.00    +0.045    15.048
ATOM     21  C   UNL d   1      -3.741  -7.040 -12.907 -0.18 +0.00    +0.057    15.048
ATOM     22  C   UNL d   1      -6.135  -9.164 -11.325 -0.34 +0.00    -0.019    15.048
ATOM     23  C   UNL d   1      -5.342 -10.141 -12.097 -0.26 -0.01    +0.045    15.048
ATOM     24  C   UNL d   1      -5.630  -7.927 -11.543 -0.21 +0.00    -0.022    15.048
ATOM     25  C   UNL d   1      -4.876 -12.439 -12.880 -0.24 -0.01    +0.049    15.048
ATOM     26  C   UNL d   1      -4.096 -14.316 -13.918 -0.19 -0.00    -0.018    15.048
ATOM     27  C   UNL d   1      -5.262 -13.661 -13.414 -0.24 -0.00    +0.003    15.048
ATOM     28  C   UNL d   1      -5.581 -11.461 -12.127 -0.36 -0.01    +0.052    15.048
ATOM     29  C   UNL d   1      -6.095  -6.619 -10.998 -0.25 -0.01    +0.046    15.048
ATOM     30  C   UNL d   1      -4.038 -15.663 -14.554 -0.19 +0.01    +0.046    15.048
ATOM     31  H   UNL d   1      -3.724  -9.734 -13.414 +0.05 -0.01    +0.166    15.048
ATOM     32  H   UNL d   1      -2.944 -11.537 -12.821 +0.04 -0.02    +0.166    15.048
ATOM     33  C   UNL d   1       0.919 -13.796 -15.768 -0.04 -0.00    +0.141    15.048
ATOM     34  C   UNL d   1      -0.212 -13.792 -16.761 +0.00 +0.01    +0.306    15.048
ATOM     35  O   UNL d   1      -0.820 -14.769 -17.163 -0.00 -0.02    -0.251    15.048
ATOM     36  O   UNL d   1      -0.518 -12.556 -17.193 +0.01 -0.01    -0.481    15.048
ATOM     37  H   UNL d   1      -0.972 -12.134 -16.432 +0.04 +0.00    +0.295    15.048
ATOM     38  C   UNL d   1      -6.585 -14.208 -13.422 -0.29 +0.00    +0.017    15.048
ATOM     39  C   UNL d   1      -7.304 -14.511 -12.331 -0.37 -0.00    +0.092    15.048
ATOM     40  C   UNL d   1      -8.658 -15.052 -12.476 -0.21 +0.01    +0.330    15.048
ATOM     41  O   UNL d   1      -9.584 -14.580 -13.109 -0.12 -0.02    -0.246    15.048
ATOM     42  O   UNL d   1      -8.770 -16.204 -11.798 -0.16 -0.01    -0.477    15.048
ATOM     43  H   UNL d   1      -8.065 -16.148 -11.121 -0.35 -0.05    +0.295    15.048
ATOM     44  C   UNL d   1       0.551  -6.077 -14.851 -0.07 +0.02    +0.141    15.048
ATOM     45  C   UNL d   1       0.652  -5.852 -13.366 -0.16 +0.08    +0.306    15.048
ATOM     46  O   UNL d   1       0.950  -6.681 -12.524 -0.31 -0.05    -0.251    15.048
ATOM     47  O   UNL d   1       0.343  -4.591 -13.014 -0.09 -0.14    -0.481    15.048
ATOM     48  H   UNL d   1      -0.493  -4.398 -13.491 +0.09 +0.05    +0.295    15.048
ATOM     49  C   UNL d   1      -7.293  -9.528 -10.442 -0.40 -0.02    +0.048    15.048
ATOM     50  C   UNL d   1      -8.429 -10.176 -11.233 -0.39 -0.04    +0.125    15.048
ATOM     51  C   UNL d   1      -9.313  -9.132 -11.854 -0.06 -0.08    +0.305    15.048
ATOM     52  O   UNL d   1     -10.531  -9.083 -11.836 -0.26 +0.02    -0.251    15.048
ATOM     53  O   UNL d   1      -8.601  -8.185 -12.496 -0.05 +0.11    -0.481    15.048
ATOM     54  H   UNL d   1      -8.780  -7.367 -11.987 -0.51 -0.14    +0.295    15.048
TER
ENDMDL
MODEL       76
USER    Run = 76
USER    Cluster Rank = 24
USER    Number of conformations in this cluster = 1
USER  
USER    RMSD from reference structure       = 14.617 A
USER  
USER    Estimated Free Energy of Binding    =   -4.68 kcal/mol  [=(1)+(2)+(3)-(4)]
USER    Estimated Inhibition Constant, Ki   =  368.76 uM (micromolar)  [Temperature = 298.15 K]
USER    
USER    (1) Final Intermolecular Energy     =   -8.56 kcal/mol
USER        vdW + Hbond + desolv Energy     =   -7.70 kcal/mol
USER        Electrostatic Energy            =   -0.87 kcal/mol
USER    (2) Final Total Internal Energy     =   -2.93 kcal/mol
USER    (3) Torsional Free Energy           =   +3.88 kcal/mol
USER    (4) Unbound System's Energy  [=(2)] =   -2.93 kcal/mol
USER    
USER    
USER  
USER    DPF = D:/Protein_go_brrr/autodock/final/mut_Y35F/heme/dock.dpf
USER    NEWDPF move	heme_opt.pdbqt
USER    NEWDPF about	0.153000 0.018000 -0.028000
USER    NEWDPF tran0	-0.685922 13.765230 -10.494942
USER    NEWDPF axisangle0	0.576618 -0.155532 0.802073 -111.093599
USER    NEWDPF quaternion0	0.475473 -0.128250 0.661380 -0.565733
USER    NEWDPF dihe0	75.30 131.34 101.24 1.59 -139.83 -69.58 -46.24 126.39 -136.84 -125.66 -57.22 -2.59 10.18 
USER  
USER                              x       y       z    vdW   Elec        q     RMS 
ATOM      1  O   UNL d   1      -2.360   9.240 -13.882 -0.06 +0.01    -0.289    14.617
ATOM      2  O   UNL d   1       2.522  14.803 -15.150 -0.03 +0.01    -0.289    14.617
ATOM      3  N   UNL d   1      -1.796  11.782 -11.620 -0.12 +0.02    -0.247    14.617
ATOM      4  N   UNL d   1       0.458  13.289 -12.835 -0.11 +0.01    -0.247    14.617
ATOM      5  N   UNL d   1       0.795  14.634 -10.316 -0.17 +0.02    -0.354    14.617
ATOM      6  N   UNL d   1      -1.532  13.051  -9.058 -0.11 +0.08    -0.354    14.617
ATOM      7  C   UNL d   1      -3.096   9.704 -11.598 -0.17 -0.00    +0.084    14.617
ATOM      8  C   UNL d   1       0.704  13.168 -15.263 -0.07 -0.00    +0.084    14.617
ATOM      9  C   UNL d   1      -0.008  12.701 -13.990 -0.13 -0.00    +0.058    14.617
ATOM     10  C   UNL d   1      -2.629  10.968 -10.871 -0.20 -0.01    +0.058    14.617
ATOM     11  C   UNL d   1      -2.394   9.956 -12.899 -0.11 -0.01    +0.193    14.617
ATOM     12  C   UNL d   1      -1.662  11.258 -12.795 -0.14 -0.01    +0.109    14.617
ATOM     13  C   UNL d   1       1.687  14.101 -14.614 -0.07 -0.01    +0.193    14.617
ATOM     14  C   UNL d   1      -2.524   8.433 -10.965 -0.21 -0.00    +0.026    14.617
ATOM     15  C   UNL d   1      -0.968  11.763 -13.997 -0.14 -0.00    +0.055    14.617
ATOM     16  C   UNL d   1      -0.225  13.982 -16.168 -0.02 -0.00    +0.026    14.617
ATOM     17  C   UNL d   1       1.437  14.079 -13.141 -0.14 -0.00    +0.109    14.617
ATOM     18  C   UNL d   1      -3.080  11.279  -9.641 -0.27 -0.01    +0.050    14.617
ATOM     19  C   UNL d   1      -2.770  12.464  -8.926 -0.21 -0.01    +0.045    14.617
ATOM     20  C   UNL d   1       1.929  15.055 -10.961 -0.24 +0.00    +0.045    14.617
ATOM     21  C   UNL d   1       2.284  14.870 -12.237 -0.21 +0.00    +0.057    14.617
ATOM     22  C   UNL d   1       2.016  15.749  -8.787 -0.21 -0.00    -0.019    14.617
ATOM     23  C   UNL d   1       0.758  15.005  -8.999 -0.23 -0.01    +0.045    14.617
ATOM     24  C   UNL d   1       2.704  15.776  -9.953 -0.18 -0.00    -0.022    14.617
ATOM     25  C   UNL d   1      -1.416  14.130  -8.212 -0.19 -0.01    +0.049    14.617
ATOM     26  C   UNL d   1      -3.490  13.202  -7.999 -0.15 +0.01    -0.018    14.617
ATOM     27  C   UNL d   1      -2.637  14.264  -7.567 -0.16 -0.00    +0.003    14.617
ATOM     28  C   UNL d   1      -0.174  14.803  -8.055 -0.25 -0.01    +0.052    14.617
ATOM     29  C   UNL d   1       4.018  16.416 -10.246 -0.17 +0.01    +0.046    14.617
ATOM     30  C   UNL d   1      -4.886  12.940  -7.544 -0.02 -0.03    +0.046    14.617
ATOM     31  H   UNL d   1       0.046  14.168 -10.818 +0.03 -0.01    +0.166    14.617
ATOM     32  H   UNL d   1      -0.806  12.696  -9.669 +0.06 -0.03    +0.166    14.617
ATOM     33  C   UNL d   1      -4.609   9.592 -11.816 -0.07 -0.00    +0.141    14.617
ATOM     34  C   UNL d   1      -5.310   8.914 -10.670 -0.08 +0.05    +0.306    14.617
ATOM     35  O   UNL d   1      -5.453   7.712 -10.524 -0.53 -0.11    -0.251    14.617
ATOM     36  O   UNL d   1      -5.792   9.786  -9.768 -0.05 -0.01    -0.481    14.617
ATOM     37  H   UNL d   1      -5.198   9.693  -8.993 -0.15 -0.08    +0.295    14.617
ATOM     38  C   UNL d   1      -2.984  15.257  -6.595 -0.16 -0.01    +0.017    14.617
ATOM     39  C   UNL d   1      -2.575  16.534  -6.613 -0.07 -0.05    +0.092    14.617
ATOM     40  C   UNL d   1      -3.017  17.458  -5.565 -0.03 -0.22    +0.330    14.617
ATOM     41  O   UNL d   1      -4.128  17.928  -5.409 -0.03 +0.11    -0.246    14.617
ATOM     42  O   UNL d   1      -1.999  17.739  -4.738 -0.00 +0.48    -0.477    14.617
ATOM     43  H   UNL d   1      -1.627  16.860  -4.517 -0.41 -0.75    +0.295    14.617
ATOM     44  C   UNL d   1       1.428  12.073 -16.054 -0.07 -0.01    +0.141    14.617
ATOM     45  C   UNL d   1       2.203  12.603 -17.231 -0.01 -0.01    +0.306    14.617
ATOM     46  O   UNL d   1       1.790  12.742 -18.369 -0.00 +0.01    -0.251    14.617
ATOM     47  O   UNL d   1       3.475  12.906 -16.916 +0.00 +0.02    -0.481    14.617
ATOM     48  H   UNL d   1       3.420  13.782 -16.477 +0.03 -0.01    +0.295    14.617
ATOM     49  C   UNL d   1       2.431  16.345  -7.474 -0.28 +0.01    +0.048    14.617
ATOM     50  C   UNL d   1       1.616  17.592  -7.132 -0.13 +0.03    +0.125    14.617
ATOM     51  C   UNL d   1       0.941  17.442  -5.798 -0.09 +0.02    +0.305    14.617
ATOM     52  O   UNL d   1       1.081  18.144  -4.812 -0.66 -0.06    -0.251    14.617
ATOM     53  O   UNL d   1       0.111  16.380  -5.769 -0.03 +0.33    -0.481    14.617
ATOM     54  H   UNL d   1      -0.274  16.404  -4.868 -0.48 -0.58    +0.295    14.617
TER
ENDMDL
MODEL       33
USER    Run = 33
USER    Cluster Rank = 25
USER    Number of conformations in this cluster = 2
USER  
USER    RMSD from reference structure       = 15.201 A
USER  
USER    Estimated Free Energy of Binding    =   -4.64 kcal/mol  [=(1)+(2)+(3)-(4)]
USER    Estimated Inhibition Constant, Ki   =  395.45 uM (micromolar)  [Temperature = 298.15 K]
USER    
USER    (1) Final Intermolecular Energy     =   -8.52 kcal/mol
USER        vdW + Hbond + desolv Energy     =   -8.14 kcal/mol
USER        Electrostatic Energy            =   -0.38 kcal/mol
USER    (2) Final Total Internal Energy     =   -2.08 kcal/mol
USER    (3) Torsional Free Energy           =   +3.88 kcal/mol
USER    (4) Unbound System's Energy  [=(2)] =   -2.08 kcal/mol
USER    
USER    
USER  
USER    DPF = D:/Protein_go_brrr/autodock/final/mut_Y35F/heme/dock.dpf
USER    NEWDPF move	heme_opt.pdbqt
USER    NEWDPF about	0.153000 0.018000 -0.028000
USER    NEWDPF tran0	1.055027 13.681230 -11.365465
USER    NEWDPF axisangle0	-0.891206 -0.452189 -0.035735 -109.941689
USER    NEWDPF quaternion0	-0.729773 -0.370280 -0.029262 -0.573993
USER    NEWDPF dihe0	113.03 49.36 94.94 -100.56 -180.00 132.65 -46.20 -72.11 -20.74 -137.18 -59.82 92.54 -144.62 
USER  
USER                              x       y       z    vdW   Elec        q     RMS 
ATOM      1  O   UNL d   1      -2.286  11.281 -15.589 -0.01 +0.01    -0.289    15.201
ATOM      2  O   UNL d   1      -3.047  11.301  -8.118 -0.20 +0.16    -0.289    15.201
ATOM      3  N   UNL d   1       0.030  12.724 -13.479 -0.11 +0.01    -0.247    15.201
ATOM      4  N   UNL d   1      -1.253  12.509 -10.807 -0.10 +0.03    -0.247    15.201
ATOM      5  N   UNL d   1       0.709  14.364  -9.818 -0.14 +0.03    -0.354    15.201
ATOM      6  N   UNL d   1       2.021  14.597 -12.598 -0.11 +0.00    -0.354    15.201
ATOM      7  C   UNL d   1      -0.269  12.624 -15.910 -0.04 -0.00    +0.084    15.201
ATOM      8  C   UNL d   1      -2.866  10.702 -10.484 -0.21 -0.01    +0.084    15.201
ATOM      9  C   UNL d   1      -1.944  11.488 -11.422 -0.15 -0.01    +0.058    15.201
ATOM     10  C   UNL d   1       0.539  13.117 -14.705 -0.10 -0.00    +0.058    15.201
ATOM     11  C   UNL d   1      -1.315  11.868 -15.147 -0.04 -0.01    +0.193    15.201
ATOM     12  C   UNL d   1      -1.009  11.983 -13.686 -0.11 -0.01    +0.109    15.201
ATOM     13  C   UNL d   1      -2.599  11.489  -9.232 -0.21 -0.05    +0.193    15.201
ATOM     14  C   UNL d   1      -0.941  13.776 -16.661 -0.01 -0.00    +0.026    15.201
ATOM     15  C   UNL d   1      -1.859  11.235 -12.737 -0.17 -0.00    +0.055    15.201
ATOM     16  C   UNL d   1      -2.376   9.266 -10.278 -0.30 -0.00    +0.026    15.201
ATOM     17  C   UNL d   1      -1.610  12.559  -9.564 -0.16 -0.02    +0.109    15.201
ATOM     18  C   UNL d   1       1.691  13.795 -14.862 -0.11 -0.00    +0.050    15.201
ATOM     19  C   UNL d   1       2.547  14.217 -13.812 -0.15 -0.00    +0.045    15.201
ATOM     20  C   UNL d   1      -0.137  14.318  -8.740 -0.23 -0.01    +0.045    15.201
ATOM     21  C   UNL d   1      -1.189  13.519  -8.534 -0.28 -0.01    +0.057    15.201
ATOM     22  C   UNL d   1       1.432  15.939  -8.380 -0.22 +0.00    -0.019    15.201
ATOM     23  C   UNL d   1       1.688  15.312  -9.692 -0.21 -0.00    +0.045    15.201
ATOM     24  C   UNL d   1       0.351  15.345  -7.821 -0.21 +0.00    -0.022    15.201
ATOM     25  C   UNL d   1       3.014  15.052 -11.762 -0.21 +0.00    +0.049    15.201
ATOM     26  C   UNL d   1       3.920  14.394 -13.751 -0.17 -0.00    -0.018    15.201
ATOM     27  C   UNL d   1       4.212  14.904 -12.448 -0.23 +0.00    +0.003    15.201
ATOM     28  C   UNL d   1       2.698  15.646 -10.510 -0.23 +0.00    +0.052    15.201
ATOM     29  C   UNL d   1      -0.286  15.621  -6.502 -0.18 -0.03    +0.046    15.201
ATOM     30  C   UNL d   1       4.904  14.108 -14.835 -0.12 -0.00    +0.046    15.201
ATOM     31  H   UNL d   1       0.633  13.693 -10.575 +0.02 -0.01    +0.166    15.201
ATOM     32  H   UNL d   1       1.031  14.576 -12.385 +0.03 -0.00    +0.166    15.201
ATOM     33  C   UNL d   1       0.481  11.690 -16.866 -0.03 -0.01    +0.141    15.201
ATOM     34  C   UNL d   1       1.580  10.923 -16.182 -0.05 -0.02    +0.306    15.201
ATOM     35  O   UNL d   1       2.750  10.884 -16.523 -0.05 +0.01    -0.251    15.201
ATOM     36  O   UNL d   1       1.147  10.247 -15.104 -0.05 +0.03    -0.481    15.201
ATOM     37  H   UNL d   1       0.934  10.942 -14.446 +0.09 -0.02    +0.295    15.201
ATOM     38  C   UNL d   1       5.517  15.244 -11.968 -0.22 +0.00    +0.017    15.201
ATOM     39  C   UNL d   1       6.597  14.449 -12.030 -0.28 +0.01    +0.092    15.201
ATOM     40  C   UNL d   1       7.884  14.924 -11.517 -0.15 +0.02    +0.330    15.201
ATOM     41  O   UNL d   1       8.640  14.348 -10.758 -0.25 -0.00    -0.246    15.201
ATOM     42  O   UNL d   1       8.160  16.139 -12.016 -0.01 -0.01    -0.477    15.201
ATOM     43  H   UNL d   1       9.078  16.054 -12.347 +0.05 -0.01    +0.295    15.201
ATOM     44  C   UNL d   1      -4.355  10.733 -10.844 -0.10 -0.02    +0.141    15.201
ATOM     45  C   UNL d   1      -5.192   9.817  -9.992 -0.08 -0.02    +0.306    15.201
ATOM     46  O   UNL d   1      -5.460   8.651 -10.225 -0.32 -0.08    -0.251    15.201
ATOM     47  O   UNL d   1      -5.673  10.430  -8.895 -0.12 +0.21    -0.481    15.201
ATOM     48  H   UNL d   1      -4.958  10.344  -8.229 -0.38 -0.41    +0.295    15.201
ATOM     49  C   UNL d   1       2.250  17.059  -7.807 -0.20 +0.01    +0.048    15.201
ATOM     50  C   UNL d   1       1.372  18.192  -7.278 -0.08 +0.02    +0.125    15.201
ATOM     51  C   UNL d   1       1.622  18.428  -5.816 -0.01 +0.14    +0.305    15.201
ATOM     52  O   UNL d   1       1.202  17.776  -4.876 -0.63 -0.09    -0.251    15.201
ATOM     53  O   UNL d   1       2.399  19.508  -5.605 -0.62 -0.31    -0.481    15.201
ATOM     54  H   UNL d   1       1.786  20.266  -5.703 +0.03 +0.07    +0.295    15.201
TER
ENDMDL
MODEL       53
USER    Run = 53
USER    Cluster Rank = 26
USER    Number of conformations in this cluster = 1
USER  
USER    RMSD from reference structure       = 14.818 A
USER  
USER    Estimated Free Energy of Binding    =   -4.61 kcal/mol  [=(1)+(2)+(3)-(4)]
USER    Estimated Inhibition Constant, Ki   =  414.22 uM (micromolar)  [Temperature = 298.15 K]
USER    
USER    (1) Final Intermolecular Energy     =   -8.49 kcal/mol
USER        vdW + Hbond + desolv Energy     =   -8.15 kcal/mol
USER        Electrostatic Energy            =   -0.34 kcal/mol
USER    (2) Final Total Internal Energy     =   -2.76 kcal/mol
USER    (3) Torsional Free Energy           =   +3.88 kcal/mol
USER    (4) Unbound System's Energy  [=(2)] =   -2.76 kcal/mol
USER    
USER    
USER  
USER    DPF = D:/Protein_go_brrr/autodock/final/mut_Y35F/heme/dock.dpf
USER    NEWDPF move	heme_opt.pdbqt
USER    NEWDPF about	0.153000 0.018000 -0.028000
USER    NEWDPF tran0	11.553476 12.461995 6.416257
USER    NEWDPF axisangle0	-0.266376 -0.814088 -0.516046 91.346758
USER    NEWDPF quaternion0	-0.190557 -0.582373 -0.369163 0.698748
USER    NEWDPF dihe0	-46.04 -155.58 -90.11 139.60 -26.51 -81.87 121.49 27.98 119.18 -43.38 -103.97 23.07 -23.99 
USER  
USER                              x       y       z    vdW   Elec        q     RMS 
ATOM      1  O   UNL d   1      11.400   9.534  11.531 -0.05 -0.10    -0.289    14.818
ATOM      2  O   UNL d   1      11.340   7.070   4.437 -0.15 -0.04    -0.289    14.818
ATOM      3  N   UNL d   1      11.366  11.660   8.815 -0.10 -0.05    -0.247    14.818
ATOM      4  N   UNL d   1      11.655   9.817   6.502 -0.07 -0.04    -0.247    14.818
ATOM      5  N   UNL d   1      12.222  12.111   4.864 -0.04 +0.01    -0.354    14.818
ATOM      6  N   UNL d   1      11.940  14.014   7.273 -0.05 -0.01    -0.354    14.818
ATOM      7  C   UNL d   1      11.576  11.954  11.239 -0.12 +0.03    +0.084    14.818
ATOM      8  C   UNL d   1      10.876   7.520   6.798 -0.16 +0.04    +0.084    14.818
ATOM      9  C   UNL d   1      11.154   8.902   7.400 -0.12 +0.02    +0.058    14.818
ATOM     10  C   UNL d   1      11.527  12.576   9.840 -0.16 +0.01    +0.058    14.818
ATOM     11  C   UNL d   1      11.397  10.525  10.824 -0.08 +0.06    +0.193    14.818
ATOM     12  C   UNL d   1      11.255  10.480   9.334 -0.13 +0.03    +0.109    14.818
ATOM     13  C   UNL d   1      11.347   7.810   5.401 -0.14 +0.04    +0.193    14.818
ATOM     14  C   UNL d   1      12.953  12.112  11.889 -0.05 +0.01    +0.026    14.818
ATOM     15  C   UNL d   1      10.973   9.176   8.701 -0.16 +0.02    +0.055    14.818
ATOM     16  C   UNL d   1       9.377   7.209   6.758 -0.26 +0.01    +0.026    14.818
ATOM     17  C   UNL d   1      11.800   9.234   5.356 -0.13 +0.01    +0.109    14.818
ATOM     18  C   UNL d   1      11.548  13.911   9.663 -0.20 +0.01    +0.050    14.818
ATOM     19  C   UNL d   1      11.423  14.577   8.418 -0.19 +0.00    +0.045    14.818
ATOM     20  C   UNL d   1      12.538  11.109   3.983 -0.22 -0.00    +0.045    14.818
ATOM     21  C   UNL d   1      12.358   9.791   4.115 -0.27 +0.00    +0.057    14.818
ATOM     22  C   UNL d   1      13.136  13.114   3.066 -0.22 +0.00    -0.019    14.818
ATOM     23  C   UNL d   1      12.547  13.357   4.398 -0.12 -0.00    +0.045    14.818
ATOM     24  C   UNL d   1      13.127  11.781   2.826 -0.33 +0.00    -0.022    14.818
ATOM     25  C   UNL d   1      11.788  14.865   6.204 -0.13 -0.00    +0.049    14.818
ATOM     26  C   UNL d   1      10.889  15.810   8.077 -0.24 +0.00    -0.018    14.818
ATOM     27  C   UNL d   1      11.104  15.978   6.674 -0.20 -0.00    +0.003    14.818
ATOM     28  C   UNL d   1      12.382  14.571   4.947 -0.10 -0.00    +0.052    14.818
ATOM     29  C   UNL d   1      13.602  11.048   1.618 -0.31 -0.00    +0.046    14.818
ATOM     30  C   UNL d   1      10.217  16.774   8.995 -0.11 -0.00    +0.046    14.818
ATOM     31  H   UNL d   1      11.725  11.916   5.727 +0.04 +0.00    +0.166    14.818
ATOM     32  H   UNL d   1      12.402  13.112   7.252 +0.03 +0.01    +0.166    14.818
ATOM     33  C   UNL d   1      10.453  12.384  12.189 -0.17 +0.12    +0.141    14.818
ATOM     34  C   UNL d   1      10.370  11.517  13.417 -0.11 +0.29    +0.306    14.818
ATOM     35  O   UNL d   1      11.292  10.908  13.932 -0.05 -0.15    -0.251    14.818
ATOM     36  O   UNL d   1       9.129  11.467  13.932 -0.59 -0.69    -0.481    14.818
ATOM     37  H   UNL d   1       8.959  10.511  14.073 +0.06 +0.22    +0.295    14.818
ATOM     38  C   UNL d   1      10.719  17.127   5.912 -0.19 -0.00    +0.017    14.818
ATOM     39  C   UNL d   1       9.877  17.117   4.867 -0.25 -0.02    +0.092    14.818
ATOM     40  C   UNL d   1       9.550  18.369   4.180 -0.13 -0.07    +0.330    14.818
ATOM     41  O   UNL d   1       8.705  19.188   4.490 -0.18 +0.05    -0.246    14.818
ATOM     42  O   UNL d   1      10.341  18.528   3.108 +0.01 +0.10    -0.477    14.818
ATOM     43  H   UNL d   1      10.611  17.616   2.878 +0.09 -0.07    +0.295    14.818
ATOM     44  C   UNL d   1      11.667   6.361   7.414 -0.16 +0.12    +0.141    14.818
ATOM     45  C   UNL d   1      12.950   6.063   6.685 -0.10 +0.16    +0.306    14.818
ATOM     46  O   UNL d   1      13.991   6.693   6.759 -0.04 -0.09    -0.251    14.818
ATOM     47  O   UNL d   1      12.845   4.995   5.873 -0.46 -0.31    -0.481    14.818
ATOM     48  H   UNL d   1      12.538   5.363   5.018 +0.14 +0.14    +0.295    14.818
ATOM     49  C   UNL d   1      13.662  14.194   2.167 -0.28 -0.01    +0.048    14.818
ATOM     50  C   UNL d   1      12.742  14.437   0.971 -0.40 -0.06    +0.125    14.818
ATOM     51  C   UNL d   1      11.532  15.229   1.376 -0.20 -0.12    +0.305    14.818
ATOM     52  O   UNL d   1      11.410  15.954   2.348 -0.09 +0.07    -0.251    14.818
ATOM     53  O   UNL d   1      10.505  15.055   0.521 -0.13 +0.22    -0.481    14.818
ATOM     54  H   UNL d   1      10.929  15.059  -0.363 -0.40 -0.32    +0.295    14.818
TER
ENDMDL
MODEL       35
USER    Run = 35
USER    Cluster Rank = 27
USER    Number of conformations in this cluster = 1
USER  
USER    RMSD from reference structure       = 14.865 A
USER  
USER    Estimated Free Energy of Binding    =   -4.50 kcal/mol  [=(1)+(2)+(3)-(4)]
USER    Estimated Inhibition Constant, Ki   =  499.94 uM (micromolar)  [Temperature = 298.15 K]
USER    
USER    (1) Final Intermolecular Energy     =   -8.38 kcal/mol
USER        vdW + Hbond + desolv Energy     =   -8.39 kcal/mol
USER        Electrostatic Energy            =   +0.01 kcal/mol
USER    (2) Final Total Internal Energy     =   -2.59 kcal/mol
USER    (3) Torsional Free Energy           =   +3.88 kcal/mol
USER    (4) Unbound System's Energy  [=(2)] =   -2.59 kcal/mol
USER    
USER    
USER  
USER    DPF = D:/Protein_go_brrr/autodock/final/mut_Y35F/heme/dock.dpf
USER    NEWDPF move	heme_opt.pdbqt
USER    NEWDPF about	0.153000 0.018000 -0.028000
USER    NEWDPF tran0	3.443356 -16.543084 5.380163
USER    NEWDPF axisangle0	-0.808444 -0.562764 0.172379 -142.597115
USER    NEWDPF quaternion0	-0.765760 -0.533051 0.163278 -0.320637
USER    NEWDPF dihe0	151.27 -81.08 179.83 -69.25 -139.39 -165.36 143.41 -101.79 17.88 -9.16 47.93 -34.42 16.35 
USER  
USER                              x       y       z    vdW   Elec        q     RMS 
ATOM      1  O   UNL d   1       2.139 -21.888   3.262 -0.02 +0.00    -0.289    14.865
ATOM      2  O   UNL d   1      -0.076 -18.395   9.530 -0.01 +0.01    -0.289    14.865
ATOM      3  N   UNL d   1       3.289 -18.765   4.166 -0.08 +0.07    -0.247    14.865
ATOM      4  N   UNL d   1       1.660 -18.104   6.562 -0.05 +0.05    -0.247    14.865
ATOM      5  N   UNL d   1       2.566 -15.386   6.314 -0.01 +0.11    -0.354    14.865
ATOM      6  N   UNL d   1       4.237 -16.076   3.817 -0.17 +0.14    -0.354    14.865
ATOM      7  C   UNL d   1       3.547 -20.199   2.195 -0.10 -0.01    +0.084    14.865
ATOM      8  C   UNL d   1       0.787 -19.974   7.870 -0.02 -0.00    +0.084    14.865
ATOM      9  C   UNL d   1       1.529 -19.473   6.626 -0.07 -0.01    +0.058    14.865
ATOM     10  C   UNL d   1       3.858 -18.879   2.908 -0.18 -0.01    +0.058    14.865
ATOM     11  C   UNL d   1       2.718 -20.817   3.280 -0.06 -0.01    +0.193    14.865
ATOM     12  C   UNL d   1       2.657 -19.861   4.431 -0.10 -0.02    +0.109    14.865
ATOM     13  C   UNL d   1       0.489 -18.633   8.480 -0.02 -0.01    +0.193    14.865
ATOM     14  C   UNL d   1       2.670 -19.991   0.958 -0.20 -0.00    +0.026    14.865
ATOM     15  C   UNL d   1       1.965 -20.297   5.661 -0.08 -0.01    +0.055    14.865
ATOM     16  C   UNL d   1       1.714 -20.748   8.811 -0.01 -0.00    +0.026    14.865
ATOM     17  C   UNL d   1       1.065 -17.584   7.586 -0.09 -0.01    +0.109    14.865
ATOM     18  C   UNL d   1       4.690 -17.968   2.370 -0.23 -0.01    +0.050    14.865
ATOM     19  C   UNL d   1       5.100 -16.761   2.992 -0.26 -0.01    +0.045    14.865
ATOM     20  C   UNL d   1       1.596 -15.225   7.269 -0.12 -0.01    +0.045    14.865
ATOM     21  C   UNL d   1       0.889 -16.160   7.911 -0.12 -0.00    +0.057    14.865
ATOM     22  C   UNL d   1       2.357 -13.167   6.635 -0.30 +0.00    -0.019    14.865
ATOM     23  C   UNL d   1       3.085 -14.199   5.870 -0.29 -0.01    +0.045    14.865
ATOM     24  C   UNL d   1       1.478 -13.781   7.462 -0.21 +0.00    -0.022    14.865
ATOM     25  C   UNL d   1       4.805 -14.895   4.237 -0.25 -0.02    +0.049    14.865
ATOM     26  C   UNL d   1       6.271 -16.025   2.902 -0.25 +0.00    -0.018    14.865
ATOM     27  C   UNL d   1       6.087 -14.858   3.705 -0.26 -0.00    +0.003    14.865
ATOM     28  C   UNL d   1       4.047 -13.943   4.971 -0.28 -0.02    +0.052    14.865
ATOM     29  C   UNL d   1       0.530 -13.168   8.437 -0.17 -0.00    +0.046    14.865
ATOM     30  C   UNL d   1       7.490 -16.382   2.120 -0.18 -0.01    +0.046    14.865
ATOM     31  H   UNL d   1       2.895 -16.309   6.049 -0.36 -0.07    +0.166    14.865
ATOM     32  H   UNL d   1       3.302 -16.396   4.039 -0.42 -0.13    +0.166    14.865
ATOM     33  C   UNL d   1       4.763 -21.077   1.881 -0.03 -0.01    +0.141    14.865
ATOM     34  C   UNL d   1       5.442 -21.592   3.121 -0.00 -0.02    +0.306    14.865
ATOM     35  O   UNL d   1       6.288 -21.007   3.775 -0.00 +0.02    -0.251    14.865
ATOM     36  O   UNL d   1       5.016 -22.819   3.473 +0.00 +0.02    -0.481    14.865
ATOM     37  H   UNL d   1       4.081 -22.849   3.179 +0.01 -0.01    +0.295    14.865
ATOM     38  C   UNL d   1       7.052 -13.814   3.880 -0.31 -0.00    +0.017    14.865
ATOM     39  C   UNL d   1       6.896 -12.739   4.667 -0.32 -0.01    +0.092    14.865
ATOM     40  C   UNL d   1       7.971 -11.749   4.772 -0.24 -0.06    +0.330    14.865
ATOM     41  O   UNL d   1       8.078 -10.850   5.584 -0.30 +0.08    -0.246    14.865
ATOM     42  O   UNL d   1       8.891 -11.963   3.818 -0.43 +0.18    -0.477    14.865
ATOM     43  H   UNL d   1       8.660 -11.316   3.120 -0.34 -0.11    +0.295    14.865
ATOM     44  C   UNL d   1      -0.505 -20.753   7.599 -0.01 -0.00    +0.141    14.865
ATOM     45  C   UNL d   1      -1.526 -19.960   6.828 -0.02 -0.01    +0.306    14.865
ATOM     46  O   UNL d   1      -1.747 -20.029   5.631 -0.06 +0.00    -0.251    14.865
ATOM     47  O   UNL d   1      -2.203 -19.097   7.607 +0.01 +0.01    -0.481    14.865
ATOM     48  H   UNL d   1      -1.840 -19.238   8.507 +0.03 -0.01    +0.295    14.865
ATOM     49  C   UNL d   1       2.576 -11.691   6.478 -0.40 -0.01    +0.048    14.865
ATOM     50  C   UNL d   1       3.963 -11.267   6.961 -0.19 -0.02    +0.125    14.865
ATOM     51  C   UNL d   1       3.873 -10.080   7.877 -0.13 -0.01    +0.305    14.865
ATOM     52  O   UNL d   1       4.204  -8.931   7.640 -0.76 -0.04    -0.251    14.865
ATOM     53  O   UNL d   1       3.367 -10.411   9.082 -0.02 +0.04    -0.481    14.865
ATOM     54  H   UNL d   1       4.129 -10.323   9.692 +0.07 -0.03    +0.295    14.865
TER
ENDMDL
MODEL       13
USER    Run = 13
USER    Cluster Rank = 28
USER    Number of conformations in this cluster = 2
USER  
USER    RMSD from reference structure       = 16.676 A
USER  
USER    Estimated Free Energy of Binding    =   -4.46 kcal/mol  [=(1)+(2)+(3)-(4)]
USER    Estimated Inhibition Constant, Ki   =  534.36 uM (micromolar)  [Temperature = 298.15 K]
USER    
USER    (1) Final Intermolecular Energy     =   -8.34 kcal/mol
USER        vdW + Hbond + desolv Energy     =   -7.92 kcal/mol
USER        Electrostatic Energy            =   -0.42 kcal/mol
USER    (2) Final Total Internal Energy     =   -3.22 kcal/mol
USER    (3) Torsional Free Energy           =   +3.88 kcal/mol
USER    (4) Unbound System's Energy  [=(2)] =   -3.22 kcal/mol
USER    
USER    
USER  
USER    DPF = D:/Protein_go_brrr/autodock/final/mut_Y35F/heme/dock.dpf
USER    NEWDPF move	heme_opt.pdbqt
USER    NEWDPF about	0.153000 0.018000 -0.028000
USER    NEWDPF tran0	7.306086 16.047064 -9.246051
USER    NEWDPF axisangle0	-0.916577 -0.192913 -0.350244 -146.487786
USER    NEWDPF quaternion0	-0.877660 -0.184723 -0.335373 -0.288298
USER    NEWDPF dihe0	-83.58 -93.34 99.68 22.00 32.68 13.21 -43.82 -19.94 115.19 -127.27 -61.28 -85.27 -12.96 
USER  
USER                              x       y       z    vdW   Elec        q     RMS 
ATOM      1  O   UNL d   1       4.527  14.428 -14.187 -0.08 -0.00    -0.289    16.676
ATOM      2  O   UNL d   1       2.158  18.414  -8.280 -0.04 -0.05    -0.289    16.676
ATOM      3  N   UNL d   1       6.499  15.019 -11.420 -0.07 -0.03    -0.247    16.676
ATOM      4  N   UNL d   1       4.857  16.889  -9.797 -0.10 -0.05    -0.247    16.676
ATOM      5  N   UNL d   1       7.198  17.430  -8.219 -0.11 -0.11    -0.354    16.676
ATOM      6  N   UNL d   1       8.900  15.503  -9.920 -0.10 -0.01    -0.354    16.676
ATOM      7  C   UNL d   1       6.860  13.980 -13.610 -0.19 +0.00    +0.084    16.676
ATOM      8  C   UNL d   1       2.433  16.796 -10.096 -0.12 +0.01    +0.084    16.676
ATOM      9  C   UNL d   1       3.829  16.332 -10.524 -0.15 +0.01    +0.058    16.676
ATOM     10  C   UNL d   1       7.420  14.401 -12.249 -0.25 +0.00    +0.058    16.676
ATOM     11  C   UNL d   1       5.454  14.454 -13.398 -0.15 +0.01    +0.193    16.676
ATOM     12  C   UNL d   1       5.356  15.041 -12.024 -0.18 +0.01    +0.109    16.676
ATOM     13  C   UNL d   1       2.861  17.749  -9.016 -0.07 +0.03    +0.193    16.676
ATOM     14  C   UNL d   1       7.483  14.778 -14.759 -0.07 -0.00    +0.026    16.676
ATOM     15  C   UNL d   1       4.031  15.494 -11.553 -0.22 +0.00    +0.055    16.676
ATOM     16  C   UNL d   1       1.627  15.660  -9.459 -0.26 -0.00    +0.026    16.676
ATOM     17  C   UNL d   1       4.353  17.719  -8.940 -0.13 +0.03    +0.109    16.676
ATOM     18  C   UNL d   1       8.681  14.099 -11.883 -0.28 +0.00    +0.050    16.676
ATOM     19  C   UNL d   1       9.258  14.371 -10.617 -0.26 -0.00    +0.045    16.676
ATOM     20  C   UNL d   1       6.361  18.404  -7.740 -0.10 +0.02    +0.045    16.676
ATOM     21  C   UNL d   1       5.062  18.591  -7.993 -0.11 +0.03    +0.057    16.676
ATOM     22  C   UNL d   1       8.445  18.724  -6.860 -0.14 -0.00    -0.019    16.676
ATOM     23  C   UNL d   1       8.478  17.541  -7.744 -0.17 +0.01    +0.045    16.676
ATOM     24  C   UNL d   1       7.189  19.229  -6.861 -0.09 -0.01    -0.022    16.676
ATOM     25  C   UNL d   1       9.643  15.616  -8.768 -0.26 +0.00    +0.049    16.676
ATOM     26  C   UNL d   1      10.231  13.713  -9.882 -0.31 +0.00    -0.018    16.676
ATOM     27  C   UNL d   1      10.457  14.493  -8.706 -0.37 -0.00    +0.003    16.676
ATOM     28  C   UNL d   1       9.564  16.783  -7.961 -0.21 +0.00    +0.052    16.676
ATOM     29  C   UNL d   1       6.657  20.407  -6.117 -0.09 +0.02    +0.046    16.676
ATOM     30  C   UNL d   1      10.911  12.436 -10.246 -0.25 -0.01    +0.046    16.676
ATOM     31  H   UNL d   1       6.849  16.675  -8.799 +0.05 +0.04    +0.166    16.676
ATOM     32  H   UNL d   1       8.211  16.170 -10.249 +0.05 +0.01    +0.166    16.676
ATOM     33  C   UNL d   1       6.883  12.474 -13.894 -0.18 +0.01    +0.141    16.676
ATOM     34  C   UNL d   1       5.971  12.084 -15.026 -0.13 +0.00    +0.306    16.676
ATOM     35  O   UNL d   1       6.256  12.080 -16.211 -0.06 +0.01    -0.251    16.676
ATOM     36  O   UNL d   1       4.748  11.717 -14.604 -0.11 -0.00    -0.481    16.676
ATOM     37  H   UNL d   1       4.212  12.536 -14.659 +0.10 -0.00    +0.295    16.676
ATOM     38  C   UNL d   1      11.400  14.179  -7.675 -0.41 -0.00    +0.017    16.676
ATOM     39  C   UNL d   1      12.290  15.037  -7.153 -0.26 -0.02    +0.092    16.676
ATOM     40  C   UNL d   1      13.192  14.593  -6.087 -0.21 -0.13    +0.330    16.676
ATOM     41  O   UNL d   1      13.387  13.456  -5.703 -0.37 +0.09    -0.246    16.676
ATOM     42  O   UNL d   1      13.827  15.647  -5.551 -0.08 +0.41    -0.477    16.676
ATOM     43  H   UNL d   1      13.211  15.966  -4.860 -0.44 -0.45    +0.295    16.676
ATOM     44  C   UNL d   1       1.618  17.519 -11.174 -0.04 -0.00    +0.141    16.676
ATOM     45  C   UNL d   1       0.287  18.017 -10.678 -0.00 -0.01    +0.306    16.676
ATOM     46  O   UNL d   1      -0.762  17.396 -10.662 -0.01 +0.02    -0.251    16.676
ATOM     47  O   UNL d   1       0.342  19.291 -10.249 +0.01 +0.01    -0.481    16.676
ATOM     48  H   UNL d   1       0.703  19.231  -9.339 +0.02 -0.00    +0.295    16.676
ATOM     49  C   UNL d   1       9.636  19.253  -6.117 -0.10 +0.00    +0.048    16.676
ATOM     50  C   UNL d   1       9.681  18.742  -4.677 -0.15 -0.01    +0.125    16.676
ATOM     51  C   UNL d   1      10.936  17.954  -4.426 -0.05 -0.16    +0.305    16.676
ATOM     52  O   UNL d   1      11.606  17.345  -5.241 -0.18 +0.16    -0.251    16.676
ATOM     53  O   UNL d   1      11.285  17.964  -3.124 -0.10 +0.50    -0.481    16.676
ATOM     54  H   UNL d   1      12.242  17.751  -3.133 -0.38 -0.79    +0.295    16.676
TER
ENDMDL
MODEL       29
USER    Run = 29
USER    Cluster Rank = 29
USER    Number of conformations in this cluster = 1
USER  
USER    RMSD from reference structure       = 17.060 A
USER  
USER    Estimated Free Energy of Binding    =   -4.45 kcal/mol  [=(1)+(2)+(3)-(4)]
USER    Estimated Inhibition Constant, Ki   =  543.22 uM (micromolar)  [Temperature = 298.15 K]
USER    
USER    (1) Final Intermolecular Energy     =   -8.33 kcal/mol
USER        vdW + Hbond + desolv Energy     =   -8.26 kcal/mol
USER        Electrostatic Energy            =   -0.07 kcal/mol
USER    (2) Final Total Internal Energy     =   -4.41 kcal/mol
USER    (3) Torsional Free Energy           =   +3.88 kcal/mol
USER    (4) Unbound System's Energy  [=(2)] =   -4.41 kcal/mol
USER    
USER    
USER  
USER    DPF = D:/Protein_go_brrr/autodock/final/mut_Y35F/heme/dock.dpf
USER    NEWDPF move	heme_opt.pdbqt
USER    NEWDPF about	0.153000 0.018000 -0.028000
USER    NEWDPF tran0	11.631068 13.632726 -10.305514
USER    NEWDPF axisangle0	-0.358248 0.872394 0.332547 -135.901337
USER    NEWDPF quaternion0	-0.332046 0.808588 0.308224 -0.375405
USER    NEWDPF dihe0	-80.70 -148.94 78.55 7.87 29.63 -94.11 -57.20 2.52 120.92 -131.41 -67.72 2.12 6.66 
USER  
USER                              x       y       z    vdW   Elec        q     RMS 
ATOM      1  O   UNL d   1      13.386  16.827  -5.672 -0.09 +0.29    -0.289    17.060
ATOM      2  O   UNL d   1      16.042  10.407  -8.522 -0.31 +0.08    -0.289    17.060
ATOM      3  N   UNL d   1      11.927  15.232  -8.359 -0.08 +0.04    -0.247    17.060
ATOM      4  N   UNL d   1      13.809  13.006  -8.936 -0.11 +0.07    -0.247    17.060
ATOM      5  N   UNL d   1      12.460  12.639 -11.448 -0.07 +0.08    -0.354    17.060
ATOM      6  N   UNL d   1      10.524  14.962 -10.850 -0.03 +0.03    -0.354    17.060
ATOM      7  C   UNL d   1      11.571  17.371  -7.217 -0.10 -0.02    +0.084    17.060
ATOM      8  C   UNL d   1      15.172  12.185  -7.082 -0.27 -0.02    +0.084    17.060
ATOM      9  C   UNL d   1      14.163  13.205  -7.621 -0.22 -0.02    +0.058    17.060
ATOM     10  C   UNL d   1      11.182  16.399  -8.334 -0.11 -0.01    +0.058    17.060
ATOM     11  C   UNL d   1      12.657  16.539  -6.603 -0.13 -0.08    +0.193    17.060
ATOM     12  C   UNL d   1      12.759  15.256  -7.369 -0.17 -0.03    +0.109    17.060
ATOM     13  C   UNL d   1      15.354  11.394  -8.346 -0.25 -0.06    +0.193    17.060
ATOM     14  C   UNL d   1      12.186  18.661  -7.766 -0.04 -0.00    +0.026    17.060
ATOM     15  C   UNL d   1      13.706  14.231  -6.887 -0.29 -0.02    +0.055    17.060
ATOM     16  C   UNL d   1      14.549  11.277  -6.018 -0.53 -0.01    +0.026    17.060
ATOM     17  C   UNL d   1      14.479  11.998  -9.396 -0.14 -0.04    +0.109    17.060
ATOM     18  C   UNL d   1      10.139  16.645  -9.149 -0.12 -0.00    +0.050    17.060
ATOM     19  C   UNL d   1       9.653  15.768 -10.152 -0.14 -0.00    +0.045    17.060
ATOM     20  C   UNL d   1      13.538  11.815 -11.638 -0.18 -0.01    +0.045    17.060
ATOM     21  C   UNL d   1      14.481  11.453 -10.762 -0.22 -0.02    +0.057    17.060
ATOM     22  C   UNL d   1      12.368  11.961 -13.594 -0.11 +0.00    -0.019    17.060
ATOM     23  C   UNL d   1      11.694  12.789 -12.574 -0.14 -0.01    +0.045    17.060
ATOM     24  C   UNL d   1      13.458  11.386 -13.034 -0.18 +0.00    -0.022    17.060
ATOM     25  C   UNL d   1       9.856  14.265 -11.830 -0.18 -0.00    +0.049    17.060
ATOM     26  C   UNL d   1       8.383  15.563 -10.667 -0.20 -0.00    -0.018    17.060
ATOM     27  C   UNL d   1       8.514  14.598 -11.713 -0.24 +0.00    +0.003    17.060
ATOM     28  C   UNL d   1      10.566  13.486 -12.783 -0.15 -0.00    +0.052    17.060
ATOM     29  C   UNL d   1      14.447  10.459 -13.655 -0.20 -0.01    +0.046    17.060
ATOM     30  C   UNL d   1       7.122  16.219 -10.215 -0.16 +0.01    +0.046    17.060
ATOM     31  H   UNL d   1      12.240  13.015 -10.532 +0.06 -0.04    +0.166    17.060
ATOM     32  H   UNL d   1      11.521  14.933 -10.677 +0.04 -0.02    +0.166    17.060
ATOM     33  C   UNL d   1      10.474  17.665  -6.189 -0.06 -0.01    +0.141    17.060
ATOM     34  C   UNL d   1      10.992  18.398  -4.981 -0.11 -0.12    +0.306    17.060
ATOM     35  O   UNL d   1      11.154  19.603  -4.885 -0.05 +0.08    -0.251    17.060
ATOM     36  O   UNL d   1      11.276  17.574  -3.957 -0.09 +0.44    -0.481    17.060
ATOM     37  H   UNL d   1      12.242  17.416  -4.029 -0.47 -0.64    +0.295    17.060
ATOM     38  C   UNL d   1       7.439  14.109 -12.524 -0.31 +0.00    +0.017    17.060
ATOM     39  C   UNL d   1       7.295  12.840 -12.935 -0.10 +0.01    +0.092    17.060
ATOM     40  C   UNL d   1       6.137  12.463 -13.749 -0.21 +0.02    +0.330    17.060
ATOM     41  O   UNL d   1       5.090  11.974 -13.371 -0.34 -0.02    -0.246    17.060
ATOM     42  O   UNL d   1       6.370  12.744 -15.041 -0.05 -0.00    -0.477    17.060
ATOM     43  H   UNL d   1       7.338  12.633 -15.134 +0.07 -0.00    +0.295    17.060
ATOM     44  C   UNL d   1      16.506  12.766  -6.602 -0.20 -0.04    +0.141    17.060
ATOM     45  C   UNL d   1      17.448  11.724  -6.060 -0.18 -0.11    +0.306    17.060
ATOM     46  O   UNL d   1      17.664  11.480  -4.886 -0.34 +0.11    -0.251    17.060
ATOM     47  O   UNL d   1      18.093  11.058  -7.034 -0.11 +0.21    -0.481    17.060
ATOM     48  H   UNL d   1      17.627  10.197  -7.097 -0.38 -0.15    +0.295    17.060
ATOM     49  C   UNL d   1      11.896  11.822 -15.012 -0.07 -0.01    +0.048    17.060
ATOM     50  C   UNL d   1      10.693  10.885 -15.122 -0.10 -0.01    +0.125    17.060
ATOM     51  C   UNL d   1       9.463  11.639 -15.539 -0.06 -0.01    +0.305    17.060
ATOM     52  O   UNL d   1       9.351  12.840 -15.714 -0.04 +0.01    -0.251    17.060
ATOM     53  O   UNL d   1       8.404  10.823 -15.709 -0.03 +0.01    -0.481    17.060
ATOM     54  H   UNL d   1       7.714  11.404 -16.092 +0.05 -0.01    +0.295    17.060
TER
ENDMDL
MODEL       60
USER    Run = 60
USER    Cluster Rank = 30
USER    Number of conformations in this cluster = 1
USER  
USER    RMSD from reference structure       = 10.912 A
USER  
USER    Estimated Free Energy of Binding    =   -4.38 kcal/mol  [=(1)+(2)+(3)-(4)]
USER    Estimated Inhibition Constant, Ki   =  616.24 uM (micromolar)  [Temperature = 298.15 K]
USER    
USER    (1) Final Intermolecular Energy     =   -8.26 kcal/mol
USER        vdW + Hbond + desolv Energy     =   -7.90 kcal/mol
USER        Electrostatic Energy            =   -0.36 kcal/mol
USER    (2) Final Total Internal Energy     =   -3.09 kcal/mol
USER    (3) Torsional Free Energy           =   +3.88 kcal/mol
USER    (4) Unbound System's Energy  [=(2)] =   -3.09 kcal/mol
USER    
USER    
USER  
USER    DPF = D:/Protein_go_brrr/autodock/final/mut_Y35F/heme/dock.dpf
USER    NEWDPF move	heme_opt.pdbqt
USER    NEWDPF about	0.153000 0.018000 -0.028000
USER    NEWDPF tran0	-7.616752 12.193636 -3.727859
USER    NEWDPF axisangle0	0.684498 0.643175 0.343204 -101.534613
USER    NEWDPF quaternion0	0.530201 0.498193 0.265840 -0.632471
USER    NEWDPF dihe0	113.13 180.00 81.63 -16.48 178.81 11.63 -45.64 -32.66 -20.56 -106.96 81.55 -84.19 154.02 
USER  
USER                              x       y       z    vdW   Elec        q     RMS 
ATOM      1  O   UNL d   1      -8.734   7.580  -0.231 -0.20 +0.07    -0.289    10.912
ATOM      2  O   UNL d   1     -10.950   9.101  -7.244 -0.03 -0.03    -0.289    10.912
ATOM      3  N   UNL d   1      -7.927  10.517  -1.850 -0.13 +0.12    -0.247    10.912
ATOM      4  N   UNL d   1      -8.957  10.084  -4.604 -0.13 +0.09    -0.247    10.912
ATOM      5  N   UNL d   1      -7.432  12.376  -5.434 -0.04 +0.34    -0.354    10.912
ATOM      6  N   UNL d   1      -6.354  12.806  -2.579 -0.14 +0.29    -0.354    10.912
ATOM      7  C   UNL d   1      -7.309   9.496   0.291 -0.34 -0.02    +0.084    10.912
ATOM      8  C   UNL d   1     -10.815   8.520  -4.869 -0.08 +0.01    +0.084    10.912
ATOM      9  C   UNL d   1      -9.765   9.171  -3.964 -0.06 -0.00    +0.058    10.912
ATOM     10  C   UNL d   1      -7.176  10.661  -0.696 -0.30 -0.02    +0.058    10.912
ATOM     11  C   UNL d   1      -8.282   8.678  -0.503 -0.19 -0.04    +0.193    10.912
ATOM     12  C   UNL d   1      -8.599   9.415  -1.767 -0.17 -0.03    +0.109    10.912
ATOM     13  C   UNL d   1     -10.430   9.205  -6.150 -0.08 +0.02    +0.193    10.912
ATOM     14  C   UNL d   1      -6.002   8.712   0.432 -0.65 -0.01    +0.026    10.912
ATOM     15  C   UNL d   1      -9.614   8.840  -2.672 -0.12 -0.00    +0.055    10.912
ATOM     16  C   UNL d   1     -12.236   8.949  -4.490 -0.02 +0.00    +0.026    10.912
ATOM     17  C   UNL d   1      -9.286  10.121  -5.855 -0.15 -0.02    +0.109    10.912
ATOM     18  C   UNL d   1      -6.455  11.757  -0.396 -0.30 -0.02    +0.050    10.912
ATOM     19  C   UNL d   1      -6.344  12.915  -1.207 -0.31 -0.02    +0.045    10.912
ATOM     20  C   UNL d   1      -7.816  11.893  -6.658 -0.14 -0.03    +0.045    10.912
ATOM     21  C   UNL d   1      -8.665  10.898  -6.937 -0.18 -0.02    +0.057    10.912
ATOM     22  C   UNL d   1      -6.338  13.606  -6.972 -0.11 +0.01    -0.019    10.912
ATOM     23  C   UNL d   1      -6.541  13.412  -5.522 -0.10 -0.03    +0.045    10.912
ATOM     24  C   UNL d   1      -7.097  12.704  -7.639 -0.12 +0.01    -0.022    10.912
ATOM     25  C   UNL d   1      -6.143  14.034  -3.163 -0.21 -0.03    +0.049    10.912
ATOM     26  C   UNL d   1      -6.160  14.253  -0.891 -0.28 +0.01    -0.018    10.912
ATOM     27  C   UNL d   1      -6.053  14.957  -2.130 -0.21 -0.00    +0.003    10.912
ATOM     28  C   UNL d   1      -5.956  14.151  -4.567 -0.18 -0.04    +0.052    10.912
ATOM     29  C   UNL d   1      -7.241  12.513  -9.111 -0.06 -0.01    +0.046    10.912
ATOM     30  C   UNL d   1      -6.089  14.843   0.476 -0.22 -0.01    +0.046    10.912
ATOM     31  H   UNL d   1      -7.850  12.030  -4.577 -0.05 -0.16    +0.166    10.912
ATOM     32  H   UNL d   1      -6.461  11.927  -3.070 -0.47 -0.24    +0.166    10.912
ATOM     33  C   UNL d   1      -7.899   9.857   1.658 -0.32 -0.03    +0.141    10.912
ATOM     34  C   UNL d   1      -8.811  11.052   1.598 -0.14 -0.04    +0.306    10.912
ATOM     35  O   UNL d   1      -8.734  12.053   2.290 -0.61 +0.00    -0.251    10.912
ATOM     36  O   UNL d   1      -9.772  10.925   0.666 -0.01 +0.08    -0.481    10.912
ATOM     37  H   UNL d   1      -9.295  10.978  -0.190 +0.10 -0.06    +0.295    10.912
ATOM     38  C   UNL d   1      -5.840  16.367  -2.263 -0.13 -0.01    +0.017    10.912
ATOM     39  C   UNL d   1      -4.936  16.941  -3.071 -0.12 -0.06    +0.092    10.912
ATOM     40  C   UNL d   1      -4.830  18.401  -3.127 -0.02 -0.14    +0.330    10.912
ATOM     41  O   UNL d   1      -5.366  19.214  -2.398 -0.01 +0.07    -0.246    10.912
ATOM     42  O   UNL d   1      -4.017  18.767  -4.130 -0.00 +0.20    -0.477    10.912
ATOM     43  H   UNL d   1      -3.736  17.917  -4.526 +0.04 -0.18    +0.295    10.912
ATOM     44  C   UNL d   1     -10.715   6.998  -5.009 -0.08 +0.03    +0.141    10.912
ATOM     45  C   UNL d   1     -11.346   6.474  -6.272 -0.05 +0.07    +0.306    10.912
ATOM     46  O   UNL d   1     -12.506   6.125  -6.414 -0.01 -0.03    -0.251    10.912
ATOM     47  O   UNL d   1     -10.471   6.391  -7.289 -0.05 -0.19    -0.481    10.912
ATOM     48  H   UNL d   1     -10.634   7.197  -7.823 +0.04 +0.09    +0.295    10.912
ATOM     49  C   UNL d   1      -5.420  14.634  -7.564 -0.07 -0.02    +0.048    10.912
ATOM     50  C   UNL d   1      -3.950  14.285  -7.332 -0.11 -0.06    +0.125    10.912
ATOM     51  C   UNL d   1      -3.404  15.025  -6.144 -0.10 -0.23    +0.305    10.912
ATOM     52  O   UNL d   1      -3.638  16.174  -5.813 -0.09 +0.18    -0.251    10.912
ATOM     53  O   UNL d   1      -2.559  14.264  -5.421 -0.03 +0.60    -0.481    10.912
ATOM     54  H   UNL d   1      -2.072  14.909  -4.867 -0.34 -0.81    +0.295    10.912
TER
ENDMDL
MODEL       14
USER    Run = 14
USER    Cluster Rank = 31
USER    Number of conformations in this cluster = 2
USER  
USER    RMSD from reference structure       = 13.056 A
USER  
USER    Estimated Free Energy of Binding    =   -4.31 kcal/mol  [=(1)+(2)+(3)-(4)]
USER    Estimated Inhibition Constant, Ki   =  696.00 uM (micromolar)  [Temperature = 298.15 K]
USER    
USER    (1) Final Intermolecular Energy     =   -8.19 kcal/mol
USER        vdW + Hbond + desolv Energy     =   -7.90 kcal/mol
USER        Electrostatic Energy            =   -0.29 kcal/mol
USER    (2) Final Total Internal Energy     =   -2.34 kcal/mol
USER    (3) Torsional Free Energy           =   +3.88 kcal/mol
USER    (4) Unbound System's Energy  [=(2)] =   -2.34 kcal/mol
USER    
USER    
USER  
USER    DPF = D:/Protein_go_brrr/autodock/final/mut_Y35F/heme/dock.dpf
USER    NEWDPF move	heme_opt.pdbqt
USER    NEWDPF about	0.153000 0.018000 -0.028000
USER    NEWDPF tran0	15.680517 -1.116165 5.760193
USER    NEWDPF axisangle0	0.312545 -0.196204 0.929419 126.226479
USER    NEWDPF quaternion0	0.278759 -0.174994 0.828951 0.452229
USER    NEWDPF dihe0	93.53 29.50 -131.28 -94.62 180.00 -93.39 122.55 42.16 109.62 -24.91 105.57 179.53 10.69 
USER  
USER                              x       y       z    vdW   Elec        q     RMS 
ATOM      1  O   UNL d   1      19.628   2.719   3.647 -0.12 -0.14    -0.289    13.056
ATOM      2  O   UNL d   1      12.698   3.762   6.344 -0.79 -0.24    -0.289    13.056
ATOM      3  N   UNL d   1      17.606   0.115   4.661 +0.06 -0.05    -0.247    13.056
ATOM      4  N   UNL d   1      15.248   1.495   5.827 -0.13 -0.06    -0.247    13.056
ATOM      5  N   UNL d   1      14.461  -1.019   6.978 -0.09 -0.07    -0.354    13.056
ATOM      6  N   UNL d   1      16.921  -2.439   5.781 -0.00 -0.07    -0.354    13.056
ATOM      7  C   UNL d   1      19.934   0.309   3.916 -0.15 +0.02    +0.084    13.056
ATOM      8  C   UNL d   1      14.744   3.739   5.001 -0.29 +0.03    +0.084    13.056
ATOM      9  C   UNL d   1      15.679   2.525   5.021 -0.27 +0.02    +0.058    13.056
ATOM     10  C   UNL d   1      18.782  -0.572   4.410 -0.15 +0.01    +0.058    13.056
ATOM     11  C   UNL d   1      19.195   1.613   3.915 -0.16 +0.06    +0.193    13.056
ATOM     12  C   UNL d   1      17.788   1.360   4.360 -0.21 +0.03    +0.109    13.056
ATOM     13  C   UNL d   1      13.723   3.223   5.975 -0.21 +0.09    +0.193    13.056
ATOM     14  C   UNL d   1      21.075   0.387   4.934 -0.06 +0.00    +0.026    13.056
ATOM     15  C   UNL d   1      16.840   2.492   4.349 -0.33 +0.02    +0.055    13.056
ATOM     16  C   UNL d   1      14.075   3.919   3.635 -0.25 +0.01    +0.026    13.056
ATOM     17  C   UNL d   1      14.149   1.858   6.407 -0.24 +0.04    +0.109    13.056
ATOM     18  C   UNL d   1      18.907  -1.910   4.495 -0.13 +0.01    +0.050    13.056
ATOM     19  C   UNL d   1      17.874  -2.811   4.860 -0.08 +0.01    +0.045    13.056
ATOM     20  C   UNL d   1      13.579  -0.184   7.613 -0.24 +0.01    +0.045    13.056
ATOM     21  C   UNL d   1      13.357   1.117   7.400 -0.28 +0.03    +0.057    13.056
ATOM     22  C   UNL d   1      13.394  -2.274   8.514 -0.16 -0.00    -0.019    13.056
ATOM     23  C   UNL d   1      14.422  -2.302   7.455 -0.17 +0.01    +0.045    13.056
ATOM     24  C   UNL d   1      12.898  -1.018   8.602 -0.20 -0.01    -0.022    13.056
ATOM     25  C   UNL d   1      16.076  -3.490   6.052 -0.13 +0.01    +0.049    13.056
ATOM     26  C   UNL d   1      17.620  -4.124   4.496 -0.10 -0.00    -0.018    13.056
ATOM     27  C   UNL d   1      16.471  -4.542   5.237 -0.14 +0.00    +0.003    13.056
ATOM     28  C   UNL d   1      15.106  -3.397   7.087 -0.17 +0.01    +0.052    13.056
ATOM     29  C   UNL d   1      11.837  -0.495   9.510 -0.14 +0.02    +0.046    13.056
ATOM     30  C   UNL d   1      18.393  -4.943   3.518 -0.08 +0.01    +0.046    13.056
ATOM     31  H   UNL d   1      15.011  -0.701   6.187 +0.06 +0.04    +0.166    13.056
ATOM     32  H   UNL d   1      16.890  -1.526   6.217 +0.03 +0.03    +0.166    13.056
ATOM     33  C   UNL d   1      20.454  -0.016   2.512 -0.24 +0.03    +0.141    13.056
ATOM     34  C   UNL d   1      21.157   1.149   1.870 -0.19 +0.10    +0.306    13.056
ATOM     35  O   UNL d   1      20.901   1.634   0.781 -0.21 -0.11    -0.251    13.056
ATOM     36  O   UNL d   1      22.144   1.645   2.637 -0.05 -0.15    -0.481    13.056
ATOM     37  H   UNL d   1      21.706   2.320   3.197 +0.06 +0.12    +0.295    13.056
ATOM     38  C   UNL d   1      15.876  -5.842   5.173 -0.18 +0.01    +0.017    13.056
ATOM     39  C   UNL d   1      16.547  -6.995   5.032 -0.10 +0.03    +0.092    13.056
ATOM     40  C   UNL d   1      15.817  -8.265   4.998 -0.09 +0.12    +0.330    13.056
ATOM     41  O   UNL d   1      15.605  -9.026   5.923 -0.23 -0.15    -0.246    13.056
ATOM     42  O   UNL d   1      15.373  -8.510   3.756 -0.09 +0.05    -0.477    13.056
ATOM     43  H   UNL d   1      14.559  -9.036   3.897 -0.43 -0.26    +0.295    13.056
ATOM     44  C   UNL d   1      15.359   5.053   5.495 -0.15 +0.04    +0.141    13.056
ATOM     45  C   UNL d   1      15.523   5.108   6.990 -0.01 +0.10    +0.306    13.056
ATOM     46  O   UNL d   1      16.402   4.575   7.645 -0.01 -0.07    -0.251    13.056
ATOM     47  O   UNL d   1      14.547   5.813   7.590 +0.02 -0.20    -0.481    13.056
ATOM     48  H   UNL d   1      13.716   5.471   7.197 +0.07 +0.16    +0.295    13.056
ATOM     49  C   UNL d   1      13.007  -3.463   9.344 -0.12 +0.01    +0.048    13.056
ATOM     50  C   UNL d   1      12.191  -4.476   8.541 -0.11 +0.05    +0.125    13.056
ATOM     51  C   UNL d   1      10.795  -3.974   8.304 -0.19 +0.07    +0.305    13.056
ATOM     52  O   UNL d   1      10.444  -2.825   8.098 -0.28 -0.05    -0.251    13.056
ATOM     53  O   UNL d   1       9.887  -4.968   8.353 -0.12 -0.09    -0.481    13.056
ATOM     54  H   UNL d   1       9.681  -5.057   9.307 +0.11 +0.03    +0.295    13.056
TER
ENDMDL
MODEL       79
USER    Run = 79
USER    Cluster Rank = 32
USER    Number of conformations in this cluster = 1
USER  
USER    RMSD from reference structure       = 14.173 A
USER  
USER    Estimated Free Energy of Binding    =   -4.17 kcal/mol  [=(1)+(2)+(3)-(4)]
USER    Estimated Inhibition Constant, Ki   =  878.87 uM (micromolar)  [Temperature = 298.15 K]
USER    
USER    (1) Final Intermolecular Energy     =   -8.05 kcal/mol
USER        vdW + Hbond + desolv Energy     =   -7.67 kcal/mol
USER        Electrostatic Energy            =   -0.38 kcal/mol
USER    (2) Final Total Internal Energy     =   -2.42 kcal/mol
USER    (3) Torsional Free Energy           =   +3.88 kcal/mol
USER    (4) Unbound System's Energy  [=(2)] =   -2.42 kcal/mol
USER    
USER    
USER  
USER    DPF = D:/Protein_go_brrr/autodock/final/mut_Y35F/heme/dock.dpf
USER    NEWDPF move	heme_opt.pdbqt
USER    NEWDPF about	0.153000 0.018000 -0.028000
USER    NEWDPF tran0	0.031629 3.928345 -14.070394
USER    NEWDPF axisangle0	-0.839639 0.470947 0.270582 135.069554
USER    NEWDPF quaternion0	-0.775921 0.435207 0.250048 0.382123
USER    NEWDPF dihe0	-139.80 -162.64 178.18 -123.68 51.16 -118.58 148.99 -84.58 161.71 -4.07 -171.03 70.43 167.47 
USER  
USER                              x       y       z    vdW   Elec        q     RMS 
ATOM      1  O   UNL d   1      -4.037   7.991 -12.768 -0.04 -0.01    -0.289    14.173
ATOM      2  O   UNL d   1       2.198   8.418 -16.931 -0.04 +0.03    -0.289    14.173
ATOM      3  N   UNL d   1      -1.856   5.346 -13.142 -0.05 -0.00    -0.247    14.173
ATOM      4  N   UNL d   1       0.089   6.343 -15.155 -0.13 +0.02    -0.247    14.173
ATOM      5  N   UNL d   1       1.028   3.642 -15.451 -0.03 +0.01    -0.354    14.173
ATOM      6  N   UNL d   1      -1.006   2.613 -13.375 -0.08 -0.01    -0.354    14.173
ATOM      7  C   UNL d   1      -4.048   5.643 -12.087 -0.11 +0.01    +0.084    14.173
ATOM      8  C   UNL d   1       0.400   8.762 -15.306 -0.16 -0.01    +0.084    14.173
ATOM      9  C   UNL d   1      -0.352   7.569 -14.707 -0.19 -0.00    +0.058    14.173
ATOM     10  C   UNL d   1      -2.875   4.724 -12.441 -0.13 +0.00    +0.058    14.173
ATOM     11  C   UNL d   1      -3.503   6.899 -12.697 -0.08 +0.01    +0.193    14.173
ATOM     12  C   UNL d   1      -2.158   6.595 -13.282 -0.03 -0.00    +0.109    14.173
ATOM     13  C   UNL d   1       1.323   7.989 -16.204 -0.09 -0.02    +0.193    14.173
ATOM     14  C   UNL d   1      -5.330   5.250 -12.826 -0.03 +0.00    +0.026    14.173
ATOM     15  C   UNL d   1      -1.383   7.711 -13.860 -0.16 -0.00    +0.055    14.173
ATOM     16  C   UNL d   1       1.237   9.493 -14.251 -0.29 -0.00    +0.026    14.173
ATOM     17  C   UNL d   1       1.028   6.535 -16.025 -0.14 -0.01    +0.109    14.173
ATOM     18  C   UNL d   1      -2.828   3.449 -12.012 -0.18 +0.00    +0.050    14.173
ATOM     19  C   UNL d   1      -1.749   2.552 -12.218 -0.20 +0.00    +0.045    14.173
ATOM     20  C   UNL d   1       1.682   4.235 -16.500 -0.12 -0.00    +0.045    14.173
ATOM     21  C   UNL d   1       1.754   5.531 -16.817 -0.12 -0.00    +0.057    14.173
ATOM     22  C   UNL d   1       2.012   1.977 -16.605 -0.08 -0.00    -0.019    14.173
ATOM     23  C   UNL d   1       1.169   2.280 -15.431 -0.10 +0.00    +0.045    14.173
ATOM     24  C   UNL d   1       2.313   3.138 -17.233 -0.08 +0.00    -0.022    14.173
ATOM     25  C   UNL d   1      -0.075   1.599 -13.406 -0.17 +0.00    +0.049    14.173
ATOM     26  C   UNL d   1      -1.265   1.495 -11.461 -0.29 -0.00    -0.018    14.173
ATOM     27  C   UNL d   1      -0.196   0.910 -12.207 -0.26 +0.00    +0.003    14.173
ATOM     28  C   UNL d   1       0.705   1.361 -14.570 -0.14 +0.00    +0.052    14.173
ATOM     29  C   UNL d   1       3.143   3.351 -18.453 -0.04 -0.00    +0.046    14.173
ATOM     30  C   UNL d   1      -1.763   1.056 -10.126 -0.44 +0.00    +0.046    14.173
ATOM     31  H   UNL d   1       0.566   4.196 -14.738 +0.04 -0.00    +0.166    14.173
ATOM     32  H   UNL d   1      -1.166   3.292 -14.109 +0.03 +0.00    +0.166    14.173
ATOM     33  C   UNL d   1      -4.301   5.839 -10.588 -0.23 +0.04    +0.141    14.173
ATOM     34  C   UNL d   1      -5.748   6.108 -10.275 -0.09 +0.18    +0.306    14.173
ATOM     35  O   UNL d   1      -6.535   5.321  -9.776 -0.67 -0.21    -0.251    14.173
ATOM     36  O   UNL d   1      -6.127   7.355 -10.605 -0.60 -0.26    -0.481    14.173
ATOM     37  H   UNL d   1      -5.650   7.544 -11.442 +0.06 +0.07    +0.295    14.173
ATOM     38  C   UNL d   1       0.574  -0.224 -11.794 -0.34 +0.00    +0.017    14.173
ATOM     39  C   UNL d   1       1.499  -0.220 -10.823 -0.45 +0.02    +0.092    14.173
ATOM     40  C   UNL d   1       2.208  -1.457 -10.484 -0.30 +0.14    +0.330    14.173
ATOM     41  O   UNL d   1       2.236  -2.027  -9.410 -0.47 -0.08    -0.246    14.173
ATOM     42  O   UNL d   1       2.857  -1.927 -11.560 -0.70 -0.43    -0.477    14.173
ATOM     43  H   UNL d   1       2.892  -1.159 -12.167 +0.15 +0.15    +0.295    14.173
ATOM     44  C   UNL d   1      -0.455   9.745 -16.112 -0.05 -0.01    +0.141    14.173
ATOM     45  C   UNL d   1      -1.253   9.081 -17.203 -0.01 -0.01    +0.306    14.173
ATOM     46  O   UNL d   1      -2.450   8.854 -17.192 -0.00 +0.01    -0.251    14.173
ATOM     47  O   UNL d   1      -0.489   8.711 -18.247 +0.00 +0.02    -0.481    14.173
ATOM     48  H   UNL d   1       0.411   9.026 -18.019 +0.01 -0.01    +0.295    14.173
ATOM     49  C   UNL d   1       2.428   0.593 -17.008 -0.04 +0.00    +0.048    14.173
ATOM     50  C   UNL d   1       1.354  -0.102 -17.846 -0.01 +0.00    +0.125    14.173
ATOM     51  C   UNL d   1       0.274   0.864 -18.242 -0.00 +0.00    +0.305    14.173
ATOM     52  O   UNL d   1      -0.755   1.115 -17.640 -0.01 -0.00    -0.251    14.173
ATOM     53  O   UNL d   1       0.546   1.471 -19.414 +0.00 +0.01    -0.481    14.173
ATOM     54  H   UNL d   1       0.677   0.730 -20.042 +0.00 -0.00    +0.295    14.173
TER
ENDMDL
MODEL       54
USER    Run = 54
USER    Cluster Rank = 33
USER    Number of conformations in this cluster = 1
USER  
USER    RMSD from reference structure       = 17.968 A
USER  
USER    Estimated Free Energy of Binding    =   -4.17 kcal/mol  [=(1)+(2)+(3)-(4)]
USER    Estimated Inhibition Constant, Ki   =  884.95 uM (micromolar)  [Temperature = 298.15 K]
USER    
USER    (1) Final Intermolecular Energy     =   -8.04 kcal/mol
USER        vdW + Hbond + desolv Energy     =   -7.92 kcal/mol
USER        Electrostatic Energy            =   -0.12 kcal/mol
USER    (2) Final Total Internal Energy     =   -2.56 kcal/mol
USER    (3) Torsional Free Energy           =   +3.88 kcal/mol
USER    (4) Unbound System's Energy  [=(2)] =   -2.56 kcal/mol
USER    
USER    
USER  
USER    DPF = D:/Protein_go_brrr/autodock/final/mut_Y35F/heme/dock.dpf
USER    NEWDPF move	heme_opt.pdbqt
USER    NEWDPF about	0.153000 0.018000 -0.028000
USER    NEWDPF tran0	10.240365 17.650562 5.810440
USER    NEWDPF axisangle0	0.732849 -0.181888 -0.655628 -103.904956
USER    NEWDPF quaternion0	0.577119 -0.143237 -0.516307 -0.616315
USER    NEWDPF dihe0	135.85 85.55 98.71 32.37 -136.35 -133.87 -45.29 -129.23 17.82 -124.57 95.44 -75.88 19.42 
USER  
USER                              x       y       z    vdW   Elec        q     RMS 
ATOM      1  O   UNL d   1       8.146  21.447   9.805 -0.11 +0.03    -0.289    17.968
ATOM      2  O   UNL d   1       8.046  21.636   2.298 -0.03 +0.03    -0.289    17.968
ATOM      3  N   UNL d   1       9.640  19.026   7.855 -0.13 +0.06    -0.247    17.968
ATOM      4  N   UNL d   1       8.829  19.774   5.096 -0.09 +0.05    -0.247    17.968
ATOM      5  N   UNL d   1       9.729  17.185   4.229 -0.12 +0.09    -0.354    17.968
ATOM      6  N   UNL d   1      10.551  16.410   7.097 -0.04 +0.09    -0.354    17.968
ATOM      7  C   UNL d   1       9.240  19.309  10.257 -0.19 -0.00    +0.084    17.968
ATOM      8  C   UNL d   1       8.309  22.126   4.682 -0.08 -0.01    +0.084    17.968
ATOM      9  C   UNL d   1       8.666  21.013   5.674 -0.10 -0.01    +0.058    17.968
ATOM     10  C   UNL d   1       9.803  18.464   9.110 -0.18 -0.01    +0.058    17.968
ATOM     11  C   UNL d   1       8.748  20.458   9.429 -0.14 -0.02    +0.193    17.968
ATOM     12  C   UNL d   1       9.072  20.180   7.994 -0.17 -0.01    +0.109    17.968
ATOM     13  C   UNL d   1       8.262  21.281   3.440 -0.07 -0.02    +0.193    17.968
ATOM     14  C   UNL d   1       8.043  18.636  10.933 -0.17 -0.00    +0.026    17.968
ATOM     15  C   UNL d   1       8.761  21.223   6.996 -0.14 -0.00    +0.055    17.968
ATOM     16  C   UNL d   1       9.443  23.146   4.541 -0.03 -0.00    +0.026    17.968
ATOM     17  C   UNL d   1       8.588  19.875   3.828 -0.11 -0.02    +0.109    17.968
ATOM     18  C   UNL d   1      10.473  17.320   9.343 -0.23 +0.00    +0.050    17.968
ATOM     19  C   UNL d   1      11.099  16.518   8.355 -0.19 -0.00    +0.045    17.968
ATOM     20  C   UNL d   1       9.095  17.608   3.089 -0.24 -0.01    +0.045    17.968
ATOM     21  C   UNL d   1       8.574  18.808   2.817 -0.22 -0.01    +0.057    17.968
ATOM     22  C   UNL d   1       9.717  15.426   2.822 -0.33 +0.00    -0.019    17.968
ATOM     23  C   UNL d   1      10.140  15.880   4.162 -0.26 -0.01    +0.045    17.968
ATOM     24  C   UNL d   1       9.100  16.453   2.192 -0.30 +0.01    -0.022    17.968
ATOM     25  C   UNL d   1      11.265  15.517   6.333 -0.18 -0.01    +0.049    17.968
ATOM     26  C   UNL d   1      12.219  15.702   8.398 -0.11 -0.00    -0.018    17.968
ATOM     27  C   UNL d   1      12.330  15.087   7.112 -0.11 -0.00    +0.003    17.968
ATOM     28  C   UNL d   1      10.800  15.121   5.049 -0.22 -0.01    +0.052    17.968
ATOM     29  C   UNL d   1       8.512  16.489   0.822 -0.35 -0.01    +0.046    17.968
ATOM     30  C   UNL d   1      13.133  15.505   9.559 -0.05 +0.00    +0.046    17.968
ATOM     31  H   UNL d   1       9.927  17.826   4.990 +0.03 -0.04    +0.166    17.968
ATOM     32  H   UNL d   1       9.712  16.899   6.808 -0.43 -0.11    +0.166    17.968
ATOM     33  C   UNL d   1      10.270  19.789  11.285 -0.06 +0.01    +0.141    17.968
ATOM     34  C   UNL d   1      11.267  20.753  10.700 -0.00 -0.00    +0.306    17.968
ATOM     35  O   UNL d   1      12.266  20.459  10.065 -0.01 +0.00    -0.251    17.968
ATOM     36  O   UNL d   1      10.950  22.037  10.943 +0.01 +0.01    -0.481    17.968
ATOM     37  H   UNL d   1       9.996  22.102  10.725 +0.02 -0.01    +0.295    17.968
ATOM     38  C   UNL d   1      13.345  14.153   6.729 -0.06 +0.00    +0.017    17.968
ATOM     39  C   UNL d   1      13.151  13.069   5.963 -0.07 +0.00    +0.092    17.968
ATOM     40  C   UNL d   1      14.281  12.199   5.628 -0.03 +0.03    +0.330    17.968
ATOM     41  O   UNL d   1      14.552  11.715   4.545 -0.12 -0.03    -0.246    17.968
ATOM     42  O   UNL d   1      15.040  11.989   6.714 +0.00 -0.05    -0.477    17.968
ATOM     43  H   UNL d   1      15.740  12.670   6.647 +0.02 +0.03    +0.295    17.968
ATOM     44  C   UNL d   1       6.965  22.820   4.925 -0.10 -0.02    +0.141    17.968
ATOM     45  C   UNL d   1       6.602  23.805   3.846 -0.03 -0.03    +0.306    17.968
ATOM     46  O   UNL d   1       6.891  24.989   3.815 -0.01 +0.02    -0.251    17.968
ATOM     47  O   UNL d   1       5.864  23.249   2.869 -0.01 +0.04    -0.481    17.968
ATOM     48  H   UNL d   1       6.517  22.810   2.283 +0.03 -0.02    +0.295    17.968
ATOM     49  C   UNL d   1       9.939  14.039   2.294 -0.46 -0.01    +0.048    17.968
ATOM     50  C   UNL d   1      11.426  13.718   2.146 -0.27 -0.03    +0.125    17.968
ATOM     51  C   UNL d   1      11.961  14.239   0.842 -0.19 -0.13    +0.305    17.968
ATOM     52  O   UNL d   1      12.692  13.663   0.056 -0.95 +0.08    -0.251    17.968
ATOM     53  O   UNL d   1      11.546  15.497   0.594 -0.14 +0.29    -0.481    17.968
ATOM     54  H   UNL d   1      11.477  15.536  -0.383 -0.42 -0.32    +0.295    17.968
TER
ENDMDL
MODEL       19
USER    Run = 19
USER    Cluster Rank = 34
USER    Number of conformations in this cluster = 1
USER  
USER    RMSD from reference structure       = 12.157 A
USER  
USER    Estimated Free Energy of Binding    =   -4.16 kcal/mol  [=(1)+(2)+(3)-(4)]
USER    Estimated Inhibition Constant, Ki   =  899.33 uM (micromolar)  [Temperature = 298.15 K]
USER    
USER    (1) Final Intermolecular Energy     =   -8.03 kcal/mol
USER        vdW + Hbond + desolv Energy     =   -7.54 kcal/mol
USER        Electrostatic Energy            =   -0.49 kcal/mol
USER    (2) Final Total Internal Energy     =   -3.83 kcal/mol
USER    (3) Torsional Free Energy           =   +3.88 kcal/mol
USER    (4) Unbound System's Energy  [=(2)] =   -3.83 kcal/mol
USER    
USER    
USER  
USER    DPF = D:/Protein_go_brrr/autodock/final/mut_Y35F/heme/dock.dpf
USER    NEWDPF move	heme_opt.pdbqt
USER    NEWDPF about	0.153000 0.018000 -0.028000
USER    NEWDPF tran0	2.799702 -11.581498 8.160436
USER    NEWDPF axisangle0	-0.270811 -0.605551 0.748311 53.339598
USER    NEWDPF quaternion0	-0.121553 -0.271800 0.335878 0.893608
USER    NEWDPF dihe0	164.63 -144.56 -176.02 -9.41 27.01 -20.11 142.19 160.78 -136.99 -9.24 -58.03 -27.06 -6.47 
USER  
USER                              x       y       z    vdW   Elec        q     RMS 
ATOM      1  O   UNL d   1       0.671  -7.585  11.936 -0.28 +0.22    -0.289    12.157
ATOM      2  O   UNL d   1      -2.733 -13.140   8.201 -0.19 +0.02    -0.289    12.157
ATOM      3  N   UNL d   1       2.327  -9.619   9.696 -0.09 +0.03    -0.247    12.157
ATOM      4  N   UNL d   1       0.283 -11.653   8.979 -0.08 +0.03    -0.247    12.157
ATOM      5  N   UNL d   1       2.387 -13.219   7.803 -0.03 +0.05    -0.354    12.157
ATOM      6  N   UNL d   1       4.504 -11.113   8.567 -0.02 +0.03    -0.354    12.157
ATOM      7  C   UNL d   1       3.004  -7.855  11.257 -0.20 -0.05    +0.084    12.157
ATOM      8  C   UNL d   1      -2.063 -10.998   9.179 -0.23 -0.01    +0.084    12.157
ATOM      9  C   UNL d   1      -0.583 -10.665   9.394 -0.22 -0.01    +0.058    12.157
ATOM     10  C   UNL d   1       3.393  -8.895  10.203 -0.13 -0.01    +0.058    12.157
ATOM     11  C   UNL d   1       1.526  -8.105  11.242 -0.17 -0.10    +0.193    12.157
ATOM     12  C   UNL d   1       1.239  -9.178  10.238 -0.05 -0.02    +0.109    12.157
ATOM     13  C   UNL d   1      -1.879 -12.373   8.602 -0.15 -0.01    +0.193    12.157
ATOM     14  C   UNL d   1       3.552  -8.207  12.642 -0.10 -0.01    +0.026    12.157
ATOM     15  C   UNL d   1      -0.172  -9.531   9.981 -0.32 -0.01    +0.055    12.157
ATOM     16  C   UNL d   1      -2.700 -10.099   8.116 -0.50 -0.00    +0.026    12.157
ATOM     17  C   UNL d   1      -0.412 -12.653   8.540 -0.15 -0.01    +0.109    12.157
ATOM     18  C   UNL d   1       4.660  -9.009   9.762 -0.15 -0.01    +0.050    12.157
ATOM     19  C   UNL d   1       5.098  -9.882   8.733 -0.13 -0.00    +0.045    12.157
ATOM     20  C   UNL d   1       1.364 -14.131   7.763 -0.16 -0.01    +0.045    12.157
ATOM     21  C   UNL d   1       0.072 -13.953   8.054 -0.20 -0.00    +0.057    12.157
ATOM     22  C   UNL d   1       3.299 -15.164   7.126 -0.12 +0.00    -0.019    12.157
ATOM     23  C   UNL d   1       3.594 -13.750   7.436 -0.10 -0.01    +0.045    12.157
ATOM     24  C   UNL d   1       1.977 -15.382   7.320 -0.14 +0.00    -0.022    12.157
ATOM     25  C   UNL d   1       5.140 -11.826   7.577 -0.10 -0.01    +0.049    12.157
ATOM     26  C   UNL d   1       6.121  -9.778   7.803 -0.16 +0.00    -0.018    12.157
ATOM     27  C   UNL d   1       6.130 -11.000   7.063 -0.14 -0.00    +0.003    12.157
ATOM     28  C   UNL d   1       4.807 -13.186   7.331 -0.10 -0.01    +0.052    12.157
ATOM     29  C   UNL d   1       1.202 -16.641   7.129 -0.02 -0.01    +0.046    12.157
ATOM     30  C   UNL d   1       7.033  -8.614   7.610 -0.23 -0.01    +0.046    12.157
ATOM     31  H   UNL d   1       2.213 -12.242   8.010 +0.06 -0.02    +0.166    12.157
ATOM     32  H   UNL d   1       3.733 -11.444   9.135 +0.04 -0.02    +0.166    12.157
ATOM     33  C   UNL d   1       3.306  -6.399  10.886 -0.06 -0.16    +0.141    12.157
ATOM     34  C   UNL d   1       4.684  -5.968  11.309 -0.16 -0.26    +0.306    12.157
ATOM     35  O   UNL d   1       5.724  -6.190  10.711 -0.14 +0.09    -0.251    12.157
ATOM     36  O   UNL d   1       4.680  -5.276  12.462 -0.08 +0.61    -0.481    12.157
ATOM     37  H   UNL d   1       3.749  -4.987  12.573 -0.40 -0.83    +0.295    12.157
ATOM     38  C   UNL d   1       7.045 -11.320   6.009 -0.25 -0.00    +0.017    12.157
ATOM     39  C   UNL d   1       6.946 -12.381   5.194 -0.29 -0.01    +0.092    12.157
ATOM     40  C   UNL d   1       7.943 -12.586   4.139 -0.24 -0.05    +0.330    12.157
ATOM     41  O   UNL d   1       8.669 -11.753   3.630 -0.80 +0.08    -0.246    12.157
ATOM     42  O   UNL d   1       7.974 -13.878   3.778 -0.14 +0.08    -0.477    12.157
ATOM     43  H   UNL d   1       7.041 -14.165   3.851 +0.10 -0.06    +0.295    12.157
ATOM     44  C   UNL d   1      -2.920 -11.047  10.449 -0.19 -0.01    +0.141    12.157
ATOM     45  C   UNL d   1      -2.435 -12.058  11.454 -0.04 -0.02    +0.306    12.157
ATOM     46  O   UNL d   1      -1.740 -11.836  12.430 -0.03 +0.02    -0.251    12.157
ATOM     47  O   UNL d   1      -2.833 -13.309  11.159 +0.00 +0.02    -0.481    12.157
ATOM     48  H   UNL d   1      -3.309 -13.223  10.306 +0.07 -0.01    +0.295    12.157
ATOM     49  C   UNL d   1       4.330 -16.163   6.687 -0.10 -0.01    +0.048    12.157
ATOM     50  C   UNL d   1       4.481 -16.194   5.167 -0.15 -0.04    +0.125    12.157
ATOM     51  C   UNL d   1       5.900 -15.913   4.763 -0.08 -0.06    +0.305    12.157
ATOM     52  O   UNL d   1       6.465 -16.261   3.741 -0.09 +0.05    -0.251    12.157
ATOM     53  O   UNL d   1       6.558 -15.199   5.697 +0.01 +0.08    -0.481    12.157
ATOM     54  H   UNL d   1       7.492 -15.222   5.401 +0.07 -0.04    +0.295    12.157
TER
ENDMDL
MODEL       56
USER    Run = 56
USER    Cluster Rank = 35
USER    Number of conformations in this cluster = 1
USER  
USER    RMSD from reference structure       = 17.582 A
USER  
USER    Estimated Free Energy of Binding    =   -4.15 kcal/mol  [=(1)+(2)+(3)-(4)]
USER    Estimated Inhibition Constant, Ki   =  908.99 uM (micromolar)  [Temperature = 298.15 K]
USER    
USER    (1) Final Intermolecular Energy     =   -8.03 kcal/mol
USER        vdW + Hbond + desolv Energy     =   -7.90 kcal/mol
USER        Electrostatic Energy            =   -0.13 kcal/mol
USER    (2) Final Total Internal Energy     =   -2.56 kcal/mol
USER    (3) Torsional Free Energy           =   +3.88 kcal/mol
USER    (4) Unbound System's Energy  [=(2)] =   -2.56 kcal/mol
USER    
USER    
USER  
USER    DPF = D:/Protein_go_brrr/autodock/final/mut_Y35F/heme/dock.dpf
USER    NEWDPF move	heme_opt.pdbqt
USER    NEWDPF about	0.153000 0.018000 -0.028000
USER    NEWDPF tran0	8.835636 10.145647 -15.570112
USER    NEWDPF axisangle0	-0.335478 -0.492055 0.803328 19.153992
USER    NEWDPF quaternion0	-0.055814 -0.081865 0.133652 0.986063
USER    NEWDPF dihe0	173.33 -10.08 -83.18 114.44 -150.68 -172.24 167.99 94.63 13.06 -104.47 141.23 -85.73 179.56 
USER  
USER                              x       y       z    vdW   Elec        q     RMS 
ATOM      1  O   UNL d   1       4.056  13.106 -13.796 -0.16 -0.01    -0.289    17.582
ATOM      2  O   UNL d   1       4.756   6.387 -17.077 -0.08 +0.04    -0.289    17.582
ATOM      3  N   UNL d   1       7.098  11.821 -14.792 -0.07 -0.01    -0.247    17.582
ATOM      4  N   UNL d   1       6.420   9.067 -15.676 -0.03 +0.02    -0.247    17.582
ATOM      5  N   UNL d   1       9.232   8.468 -15.657 -0.04 +0.04    -0.354    17.582
ATOM      6  N   UNL d   1       9.925  11.322 -14.722 -0.04 +0.01    -0.354    17.582
ATOM      7  C   UNL d   1       6.384  13.809 -13.548 -0.23 +0.00    +0.084    17.582
ATOM      8  C   UNL d   1       4.137   8.672 -16.453 -0.15 -0.01    +0.084    17.582
ATOM      9  C   UNL d   1       5.167   9.618 -15.826 -0.19 -0.00    +0.058    17.582
ATOM     10  C   UNL d   1       7.520  12.963 -14.131 -0.18 +0.00    +0.058    17.582
ATOM     11  C   UNL d   1       5.244  12.952 -14.012 -0.20 +0.01    +0.193    17.582
ATOM     12  C   UNL d   1       5.805  11.793 -14.776 -0.19 +0.00    +0.109    17.582
ATOM     13  C   UNL d   1       5.028   7.470 -16.596 -0.14 -0.03    +0.193    17.582
ATOM     14  C   UNL d   1       6.404  13.820 -12.017 -0.30 +0.00    +0.026    17.582
ATOM     15  C   UNL d   1       4.858  10.856 -15.413 -0.23 -0.00    +0.055    17.582
ATOM     16  C   UNL d   1       3.713   9.139 -17.849 -0.05 -0.00    +0.026    17.582
ATOM     17  C   UNL d   1       6.382   7.838 -16.082 -0.21 -0.02    +0.109    17.582
ATOM     18  C   UNL d   1       8.802  13.369 -14.069 -0.15 -0.00    +0.050    17.582
ATOM     19  C   UNL d   1       9.906  12.697 -14.652 -0.10 -0.00    +0.045    17.582
ATOM     20  C   UNL d   1       8.724   7.207 -15.835 -0.21 -0.01    +0.045    17.582
ATOM     21  C   UNL d   1       7.458   6.837 -16.056 -0.26 -0.01    +0.057    17.582
ATOM     22  C   UNL d   1      10.980   7.055 -15.508 -0.24 +0.00    -0.019    17.582
ATOM     23  C   UNL d   1      10.586   8.477 -15.452 -0.16 -0.01    +0.045    17.582
ATOM     24  C   UNL d   1       9.873   6.308 -15.736 -0.26 +0.00    -0.022    17.582
ATOM     25  C   UNL d   1      11.122  10.881 -15.238 -0.09 -0.00    +0.049    17.582
ATOM     26  C   UNL d   1      11.105  13.162 -15.170 -0.04 +0.00    -0.018    17.582
ATOM     27  C   UNL d   1      11.861  12.012 -15.556 -0.04 -0.00    +0.003    17.582
ATOM     28  C   UNL d   1      11.439   9.495 -15.261 -0.15 -0.01    +0.052    17.582
ATOM     29  C   UNL d   1       9.760   4.829 -15.884 -0.23 -0.00    +0.046    17.582
ATOM     30  C   UNL d   1      11.525  14.587 -15.301 -0.01 -0.00    +0.046    17.582
ATOM     31  H   UNL d   1       8.646   9.290 -15.756 +0.04 -0.01    +0.166    17.582
ATOM     32  H   UNL d   1       9.168  10.734 -14.394 +0.08 +0.01    +0.166    17.582
ATOM     33  C   UNL d   1       6.260  15.225 -14.119 -0.07 +0.00    +0.141    17.582
ATOM     34  C   UNL d   1       5.996  15.232 -15.600 -0.01 -0.01    +0.306    17.582
ATOM     35  O   UNL d   1       6.830  15.361 -16.480 -0.01 +0.01    -0.251    17.582
ATOM     36  O   UNL d   1       4.693  15.071 -15.895 +0.01 +0.01    -0.481    17.582
ATOM     37  H   UNL d   1       4.273  14.841 -15.040 +0.05 -0.00    +0.295    17.582
ATOM     38  C   UNL d   1      13.174  12.040 -16.126 -0.03 -0.00    +0.017    17.582
ATOM     39  C   UNL d   1      14.214  11.300 -15.711 -0.07 -0.02    +0.092    17.582
ATOM     40  C   UNL d   1      15.506  11.411 -16.394 -0.04 -0.05    +0.330    17.582
ATOM     41  O   UNL d   1      16.507  10.746 -16.203 -0.10 +0.05    -0.246    17.582
ATOM     42  O   UNL d   1      15.458  12.382 -17.318 +0.00 +0.05    -0.477    17.582
ATOM     43  H   UNL d   1      16.392  12.491 -17.593 +0.01 -0.03    +0.295    17.582
ATOM     44  C   UNL d   1       2.918   8.351 -15.582 -0.22 -0.03    +0.141    17.582
ATOM     45  C   UNL d   1       2.284   7.027 -15.913 -0.14 -0.05    +0.306    17.582
ATOM     46  O   UNL d   1       2.087   6.103 -15.142 -0.23 +0.05    -0.251    17.582
ATOM     47  O   UNL d   1       1.953   6.925 -17.212 -0.01 +0.04    -0.481    17.582
ATOM     48  H   UNL d   1       2.708   6.454 -17.625 +0.05 -0.02    +0.295    17.582
ATOM     49  C   UNL d   1      12.384   6.561 -15.320 -0.34 -0.01    +0.048    17.582
ATOM     50  C   UNL d   1      12.643   6.117 -13.881 -0.45 -0.02    +0.125    17.582
ATOM     51  C   UNL d   1      11.947   7.023 -12.906 -0.37 -0.05    +0.305    17.582
ATOM     52  O   UNL d   1      10.810   6.921 -12.478 -0.50 +0.04    -0.251    17.582
ATOM     53  O   UNL d   1      12.734   8.046 -12.518 -0.76 +0.10    -0.481    17.582
ATOM     54  H   UNL d   1      13.456   7.614 -12.016 -0.36 -0.18    +0.295    17.582
TER
ENDMDL
MODEL        6
USER    Run = 6
USER    Cluster Rank = 36
USER    Number of conformations in this cluster = 2
USER  
USER    RMSD from reference structure       = 17.559 A
USER  
USER    Estimated Free Energy of Binding    =   -4.03 kcal/mol  [=(1)+(2)+(3)-(4)]
USER    Estimated Inhibition Constant, Ki   =    1.10 mM (millimolar)  [Temperature = 298.15 K]
USER    
USER    (1) Final Intermolecular Energy     =   -7.91 kcal/mol
USER        vdW + Hbond + desolv Energy     =   -7.81 kcal/mol
USER        Electrostatic Energy            =   -0.10 kcal/mol
USER    (2) Final Total Internal Energy     =   -4.11 kcal/mol
USER    (3) Torsional Free Energy           =   +3.88 kcal/mol
USER    (4) Unbound System's Energy  [=(2)] =   -4.11 kcal/mol
USER    
USER    
USER  
USER    DPF = D:/Protein_go_brrr/autodock/final/mut_Y35F/heme/dock.dpf
USER    NEWDPF move	heme_opt.pdbqt
USER    NEWDPF about	0.153000 0.018000 -0.028000
USER    NEWDPF tran0	9.192422 12.989102 -13.195675
USER    NEWDPF axisangle0	-0.050765 -0.645719 0.761886 -97.899128
USER    NEWDPF quaternion0	-0.038284 -0.486957 0.574562 -0.656723
USER    NEWDPF dihe0	142.87 85.82 -115.29 -151.45 -137.65 105.10 123.79 18.56 24.92 -18.32 -41.88 -96.06 25.83 
USER  
USER                              x       y       z    vdW   Elec        q     RMS 
ATOM      1  O   UNL d   1       8.292   8.784 -17.229 -0.05 +0.02    -0.289    17.559
ATOM      2  O   UNL d   1      14.106  10.057 -12.648 -0.28 +0.10    -0.289    17.559
ATOM      3  N   UNL d   1       8.433  11.492 -15.097 -0.04 -0.00    -0.247    17.559
ATOM      4  N   UNL d   1      10.898  10.989 -13.516 -0.05 +0.02    -0.247    17.559
ATOM      5  N   UNL d   1      10.031  13.031 -11.687 -0.13 +0.03    -0.354    17.559
ATOM      6  N   UNL d   1       7.467  13.533 -13.323 -0.13 -0.01    -0.354    17.559
ATOM      7  C   UNL d   1       6.734  10.559 -16.597 -0.10 -0.00    +0.084    17.559
ATOM      8  C   UNL d   1      12.639   9.631 -14.562 -0.17 -0.02    +0.084    17.559
ATOM      9  C   UNL d   1      11.226  10.220 -14.610 -0.14 -0.01    +0.058    17.559
ATOM     10  C   UNL d   1       7.143  11.629 -15.581 -0.12 -0.00    +0.058    17.559
ATOM     11  C   UNL d   1       8.028   9.802 -16.615 -0.07 -0.01    +0.193    17.559
ATOM     12  C   UNL d   1       8.986  10.481 -15.685 +0.02 -0.00    +0.109    17.559
ATOM     13  C   UNL d   1      13.040  10.177 -13.220 -0.21 -0.05    +0.193    17.559
ATOM     14  C   UNL d   1       5.633   9.643 -16.055 -0.20 -0.00    +0.026    17.559
ATOM     15  C   UNL d   1      10.366   9.963 -15.608 -0.12 -0.00    +0.055    17.559
ATOM     16  C   UNL d   1      13.547  10.242 -15.634 -0.12 -0.01    +0.026    17.559
ATOM     17  C   UNL d   1      11.894  10.976 -12.689 -0.22 -0.02    +0.109    17.559
ATOM     18  C   UNL d   1       6.328  12.656 -15.275 -0.16 -0.00    +0.050    17.559
ATOM     19  C   UNL d   1       6.652  13.735 -14.414 -0.15 +0.00    +0.045    17.559
ATOM     20  C   UNL d   1      11.081  12.511 -10.978 -0.29 -0.01    +0.045    17.559
ATOM     21  C   UNL d   1      11.983  11.601 -11.362 -0.18 -0.02    +0.057    17.559
ATOM     22  C   UNL d   1       9.980  14.020  -9.664 -0.31 +0.00    -0.019    17.559
ATOM     23  C   UNL d   1       9.307  13.951 -10.977 -0.25 -0.00    +0.045    17.559
ATOM     24  C   UNL d   1      11.030  13.166  -9.672 -0.33 +0.00    -0.022    17.559
ATOM     25  C   UNL d   1       7.574  14.686 -12.580 -0.20 +0.00    +0.049    17.559
ATOM     26  C   UNL d   1       6.249  15.062 -14.400 -0.07 +0.00    -0.018    17.559
ATOM     27  C   UNL d   1       6.850  15.662 -13.251 -0.10 +0.00    +0.003    17.559
ATOM     28  C   UNL d   1       8.236  14.683 -11.322 -0.27 +0.00    +0.052    17.559
ATOM     29  C   UNL d   1      12.016  12.891  -8.588 -0.25 -0.01    +0.046    17.559
ATOM     30  C   UNL d   1       5.362  15.733 -15.393 -0.03 -0.00    +0.046    17.559
ATOM     31  H   UNL d   1       9.886  12.795 -12.663 +0.05 -0.01    +0.166    17.559
ATOM     32  H   UNL d   1       7.886  12.640 -13.095 +0.05 +0.01    +0.166    17.559
ATOM     33  C   UNL d   1       6.395  11.078 -17.998 -0.03 -0.01    +0.141    17.559
ATOM     34  C   UNL d   1       7.613  11.519 -18.763 -0.01 -0.02    +0.306    17.559
ATOM     35  O   UNL d   1       8.159  12.607 -18.683 -0.00 +0.01    -0.251    17.559
ATOM     36  O   UNL d   1       8.081  10.566 -19.588 +0.00 +0.03    -0.481    17.559
ATOM     37  H   UNL d   1       7.987   9.732 -19.080 +0.01 -0.02    +0.295    17.559
ATOM     38  C   UNL d   1       6.682  17.026 -12.849 -0.06 +0.00    +0.017    17.559
ATOM     39  C   UNL d   1       6.177  17.431 -11.674 -0.06 +0.00    +0.092    17.559
ATOM     40  C   UNL d   1       6.074  18.862 -11.378 -0.00 +0.01    +0.330    17.559
ATOM     41  O   UNL d   1       5.077  19.558 -11.408 -0.00 -0.01    -0.246    17.559
ATOM     42  O   UNL d   1       7.277  19.351 -11.039 +0.01 -0.01    -0.477    17.559
ATOM     43  H   UNL d   1       7.284  19.299 -10.061 +0.03 +0.02    +0.295    17.559
ATOM     44  C   UNL d   1      12.718   8.100 -14.576 -0.27 -0.04    +0.141    17.559
ATOM     45  C   UNL d   1      12.181   7.466 -13.321 -0.33 -0.06    +0.306    17.559
ATOM     46  O   UNL d   1      11.009   7.277 -13.046 -0.45 +0.04    -0.251    17.559
ATOM     47  O   UNL d   1      13.156   7.124 -12.459 -0.71 +0.19    -0.481    17.559
ATOM     48  H   UNL d   1      13.569   7.976 -12.201 -0.35 -0.17    +0.295    17.559
ATOM     49  C   UNL d   1       9.529  14.895  -8.531 -0.42 +0.00    +0.048    17.559
ATOM     50  C   UNL d   1       9.485  16.369  -8.933 -0.17 +0.00    +0.125    17.559
ATOM     51  C   UNL d   1       8.264  17.042  -8.373 -0.14 +0.05    +0.305    17.559
ATOM     52  O   UNL d   1       7.502  16.611  -7.525 -0.30 -0.10    -0.251    17.559
ATOM     53  O   UNL d   1       8.052  18.250  -8.932 +0.00 -0.06    -0.481    17.559
ATOM     54  H   UNL d   1       8.445  18.170  -9.826 +0.05 +0.01    +0.295    17.559
TER
ENDMDL
MODEL       26
USER    Run = 26
USER    Cluster Rank = 37
USER    Number of conformations in this cluster = 2
USER  
USER    RMSD from reference structure       = 15.621 A
USER  
USER    Estimated Free Energy of Binding    =   -4.01 kcal/mol  [=(1)+(2)+(3)-(4)]
USER    Estimated Inhibition Constant, Ki   =    1.15 mM (millimolar)  [Temperature = 298.15 K]
USER    
USER    (1) Final Intermolecular Energy     =   -7.89 kcal/mol
USER        vdW + Hbond + desolv Energy     =   -7.38 kcal/mol
USER        Electrostatic Energy            =   -0.51 kcal/mol
USER    (2) Final Total Internal Energy     =   -2.47 kcal/mol
USER    (3) Torsional Free Energy           =   +3.88 kcal/mol
USER    (4) Unbound System's Energy  [=(2)] =   -2.47 kcal/mol
USER    
USER    
USER  
USER    DPF = D:/Protein_go_brrr/autodock/final/mut_Y35F/heme/dock.dpf
USER    NEWDPF move	heme_opt.pdbqt
USER    NEWDPF about	0.153000 0.018000 -0.028000
USER    NEWDPF tran0	3.151890 15.422182 -10.343771
USER    NEWDPF axisangle0	-0.985317 -0.114191 0.126929 -130.831092
USER    NEWDPF quaternion0	-0.895997 -0.103840 0.115422 -0.416034
USER    NEWDPF dihe0	-85.57 -7.11 -146.98 149.25 31.74 176.12 128.61 86.60 117.32 -41.42 175.12 48.79 -17.32 
USER  
USER                              x       y       z    vdW   Elec        q     RMS 
ATOM      1  O   UNL d   1      -2.227  13.239 -11.374 -0.07 +0.03    -0.289    15.621
ATOM      2  O   UNL d   1       0.650  16.597  -5.304 -0.23 +0.12    -0.289    15.621
ATOM      3  N   UNL d   1       1.067  14.245 -11.180 -0.20 +0.01    -0.247    15.621
ATOM      4  N   UNL d   1       1.184  15.706  -8.595 -0.14 +0.01    -0.247    15.621
ATOM      5  N   UNL d   1       3.739  16.746  -9.404 -0.09 -0.07    -0.354    15.621
ATOM      6  N   UNL d   1       3.600  15.243 -12.092 -0.12 -0.02    -0.354    15.621
ATOM      7  C   UNL d   1      -0.356  13.315 -12.946 -0.15 -0.00    +0.084    15.621
ATOM      8  C   UNL d   1      -0.446  15.082  -6.884 -0.19 -0.04    +0.084    15.621
ATOM      9  C   UNL d   1       0.076  14.937  -8.318 -0.21 -0.01    +0.058    15.621
ATOM     10  C   UNL d   1       1.011  13.846 -12.505 -0.10 -0.00    +0.058    15.621
ATOM     11  C   UNL d   1      -1.059  13.467 -11.630 -0.13 -0.02    +0.193    15.621
ATOM     12  C   UNL d   1      -0.084  14.016 -10.635 -0.19 -0.01    +0.109    15.621
ATOM     13  C   UNL d   1       0.549  16.104  -6.411 -0.14 -0.06    +0.193    15.621
ATOM     14  C   UNL d   1      -1.025  14.231 -13.974 -0.06 -0.00    +0.026    15.621
ATOM     15  C   UNL d   1      -0.528  14.165  -9.235 -0.26 -0.01    +0.055    15.621
ATOM     16  C   UNL d   1      -0.252  13.796  -6.076 -0.45 -0.02    +0.026    15.621
ATOM     17  C   UNL d   1       1.476  16.402  -7.544 -0.18 +0.01    +0.109    15.621
ATOM     18  C   UNL d   1       2.073  13.828 -13.333 -0.12 -0.00    +0.050    15.621
ATOM     19  C   UNL d   1       3.391  14.219 -12.988 -0.10 +0.00    +0.045    15.621
ATOM     20  C   UNL d   1       3.516  17.511  -8.289 -0.17 +0.02    +0.045    15.621
ATOM     21  C   UNL d   1       2.536  17.408  -7.385 -0.16 +0.02    +0.057    15.621
ATOM     22  C   UNL d   1       5.387  18.280  -9.349 -0.09 -0.00    -0.019    15.621
ATOM     23  C   UNL d   1       4.847  17.135 -10.109 -0.13 +0.01    +0.045    15.621
ATOM     24  C   UNL d   1       4.596  18.497  -8.272 -0.10 -0.01    -0.022    15.621
ATOM     25  C   UNL d   1       4.944  15.515 -11.974 -0.19 +0.00    +0.049    15.621
ATOM     26  C   UNL d   1       4.631  13.790 -13.435 -0.23 -0.00    -0.018    15.621
ATOM     27  C   UNL d   1       5.609  14.598 -12.777 -0.25 +0.00    +0.003    15.621
ATOM     28  C   UNL d   1       5.398  16.635 -11.226 -0.15 +0.00    +0.052    15.621
ATOM     29  C   UNL d   1       4.735  19.528  -7.204 +0.10 +0.03    +0.046    15.621
ATOM     30  C   UNL d   1       4.896  12.695 -14.412 -0.26 +0.00    +0.046    15.621
ATOM     31  H   UNL d   1       3.167  15.933  -9.608 +0.04 +0.02    +0.166    15.621
ATOM     32  H   UNL d   1       2.852  15.742 -11.627 +0.04 +0.01    +0.166    15.621
ATOM     33  C   UNL d   1      -0.377  11.851 -13.400 -0.07 -0.01    +0.141    15.621
ATOM     34  C   UNL d   1      -1.770  11.287 -13.473 -0.09 -0.02    +0.306    15.621
ATOM     35  O   UNL d   1      -2.532  11.369 -14.422 -0.03 +0.01    -0.251    15.621
ATOM     36  O   UNL d   1      -2.129  10.646 -12.347 -0.06 +0.03    -0.481    15.621
ATOM     37  H   UNL d   1      -2.570  11.333 -11.802 +0.08 -0.02    +0.295    15.621
ATOM     38  C   UNL d   1       7.025  14.498 -12.964 -0.24 +0.00    +0.017    15.621
ATOM     39  C   UNL d   1       7.859  13.780 -12.196 -0.30 +0.00    +0.092    15.621
ATOM     40  C   UNL d   1       9.290  13.747 -12.506 -0.14 -0.01    +0.330    15.621
ATOM     41  O   UNL d   1      10.180  13.230 -11.857 -0.19 +0.02    -0.246    15.621
ATOM     42  O   UNL d   1       9.527  14.382 -13.665 -0.01 +0.02    -0.477    15.621
ATOM     43  H   UNL d   1      10.504  14.409 -13.722 +0.04 -0.02    +0.295    15.621
ATOM     44  C   UNL d   1      -1.879  15.609  -6.753 -0.11 -0.09    +0.141    15.621
ATOM     45  C   UNL d   1      -1.952  17.108  -6.633 -0.02 -0.16    +0.306    15.621
ATOM     46  O   UNL d   1      -1.955  17.911  -7.550 -0.01 +0.06    -0.251    15.621
ATOM     47  O   UNL d   1      -1.991  17.521  -5.354 -0.01 +0.43    -0.481    15.621
ATOM     48  H   UNL d   1      -1.460  16.857  -4.863 -0.45 -0.59    +0.295    15.621
ATOM     49  C   UNL d   1       6.606  19.057  -9.750 -0.04 +0.01    +0.048    15.621
ATOM     50  C   UNL d   1       7.837  18.639  -8.947 -0.06 +0.01    +0.125    15.621
ATOM     51  C   UNL d   1       7.475  17.626  -7.899 -0.14 +0.10    +0.305    15.621
ATOM     52  O   UNL d   1       7.308  16.428  -8.049 -0.28 -0.08    -0.251    15.621
ATOM     53  O   UNL d   1       7.325  18.189  -6.683 -0.65 -0.32    -0.481    15.621
ATOM     54  H   UNL d   1       7.951  18.943  -6.691 +0.06 +0.10    +0.295    15.621
TER
ENDMDL
MODEL       67
USER    Run = 67
USER    Cluster Rank = 38
USER    Number of conformations in this cluster = 1
USER  
USER    RMSD from reference structure       = 12.895 A
USER  
USER    Estimated Free Energy of Binding    =   -3.97 kcal/mol  [=(1)+(2)+(3)-(4)]
USER    Estimated Inhibition Constant, Ki   =    1.22 mM (millimolar)  [Temperature = 298.15 K]
USER    
USER    (1) Final Intermolecular Energy     =   -7.85 kcal/mol
USER        vdW + Hbond + desolv Energy     =   -7.50 kcal/mol
USER        Electrostatic Energy            =   -0.35 kcal/mol
USER    (2) Final Total Internal Energy     =   -3.75 kcal/mol
USER    (3) Torsional Free Energy           =   +3.88 kcal/mol
USER    (4) Unbound System's Energy  [=(2)] =   -3.75 kcal/mol
USER    
USER    
USER  
USER    DPF = D:/Protein_go_brrr/autodock/final/mut_Y35F/heme/dock.dpf
USER    NEWDPF move	heme_opt.pdbqt
USER    NEWDPF about	0.153000 0.018000 -0.028000
USER    NEWDPF tran0	-1.839873 3.904978 -13.066365
USER    NEWDPF axisangle0	-0.249893 -0.251508 -0.935039 157.674493
USER    NEWDPF quaternion0	-0.245165 -0.246750 -0.917349 0.193597
USER    NEWDPF dihe0	-122.36 -106.49 -127.93 35.47 45.75 -44.05 127.74 111.17 136.04 -32.75 -31.73 -24.07 4.90 
USER  
USER                              x       y       z    vdW   Elec        q     RMS 
ATOM      1  O   UNL d   1       2.634   0.108 -13.638 -0.06 -0.05    -0.289    12.895
ATOM      2  O   UNL d   1       0.572   5.967 -17.858 -0.01 +0.01    -0.289    12.895
ATOM      3  N   UNL d   1      -0.181   1.989 -12.977 -0.13 -0.01    -0.247    12.895
ATOM      4  N   UNL d   1      -0.000   4.205 -14.947 -0.09 +0.00    -0.247    12.895
ATOM      5  N   UNL d   1      -2.040   5.575 -13.454 -0.07 -0.00    -0.354    12.895
ATOM      6  N   UNL d   1      -2.207   3.280 -11.404 -0.08 -0.03    -0.354    12.895
ATOM      7  C   UNL d   1       0.988   0.164 -11.831 -0.29 +0.01    +0.084    12.895
ATOM      8  C   UNL d   1       1.236   3.770 -17.010 -0.07 -0.00    +0.084    12.895
ATOM      9  C   UNL d   1       0.789   3.300 -15.621 -0.11 -0.00    +0.058    12.895
ATOM     10  C   UNL d   1      -0.168   1.168 -11.861 -0.28 +0.00    +0.058    12.895
ATOM     11  C   UNL d   1       1.616   0.550 -13.137 -0.06 +0.02    +0.193    12.895
ATOM     12  C   UNL d   1       0.801   1.648 -13.747 -0.06 +0.01    +0.109    12.895
ATOM     13  C   UNL d   1       0.585   5.124 -16.984 -0.05 -0.01    +0.193    12.895
ATOM     14  C   UNL d   1       1.976   0.459 -10.700 -0.47 +0.00    +0.026    12.895
ATOM     15  C   UNL d   1       1.178   2.131 -15.090 -0.11 +0.00    +0.055    12.895
ATOM     16  C   UNL d   1       0.596   2.936 -18.124 -0.02 -0.00    +0.026    12.895
ATOM     17  C   UNL d   1      -0.126   5.267 -15.677 -0.11 -0.00    +0.109    12.895
ATOM     18  C   UNL d   1      -1.125   1.166 -10.915 -0.39 +0.00    +0.050    12.895
ATOM     19  C   UNL d   1      -2.274   1.998 -10.905 -0.29 +0.00    +0.045    12.895
ATOM     20  C   UNL d   1      -1.661   6.577 -14.309 -0.14 -0.00    +0.045    12.895
ATOM     21  C   UNL d   1      -0.824   6.519 -15.350 -0.14 -0.00    +0.057    12.895
ATOM     22  C   UNL d   1      -3.122   7.430 -12.774 -0.14 -0.00    -0.019    12.895
ATOM     23  C   UNL d   1      -2.921   5.994 -12.493 -0.13 +0.00    +0.045    12.895
ATOM     24  C   UNL d   1      -2.374   7.769 -13.851 -0.13 +0.00    -0.022    12.895
ATOM     25  C   UNL d   1      -3.402   3.935 -11.213 -0.19 +0.01    +0.049    12.895
ATOM     26  C   UNL d   1      -3.554   1.804 -10.410 -0.25 -0.00    -0.018    12.895
ATOM     27  C   UNL d   1      -4.268   3.023 -10.625 -0.20 +0.00    +0.003    12.895
ATOM     28  C   UNL d   1      -3.528   5.320 -11.504 -0.20 +0.01    +0.052    12.895
ATOM     29  C   UNL d   1      -2.252   9.094 -14.522 -0.10 -0.00    +0.046    12.895
ATOM     30  C   UNL d   1      -4.085   0.562  -9.778 -0.17 +0.01    +0.046    12.895
ATOM     31  H   UNL d   1      -1.741   4.617 -13.601 +0.04 +0.00    +0.166    12.895
ATOM     32  H   UNL d   1      -1.371   3.679 -11.814 +0.07 +0.01    +0.166    12.895
ATOM     33  C   UNL d   1       0.577  -1.312 -11.848 -0.15 +0.03    +0.141    12.895
ATOM     34  C   UNL d   1       1.754  -2.242 -11.727 -0.10 +0.18    +0.306    12.895
ATOM     35  O   UNL d   1       2.124  -2.808 -10.712 -0.62 -0.18    -0.251    12.895
ATOM     36  O   UNL d   1       2.401  -2.414 -12.894 -0.20 -0.37    -0.481    12.895
ATOM     37  H   UNL d   1       2.629  -1.506 -13.185 +0.11 +0.13    +0.295    12.895
ATOM     38  C   UNL d   1      -5.628   3.261 -10.247 -0.16 +0.00    +0.017    12.895
ATOM     39  C   UNL d   1      -6.374   4.300 -10.651 -0.14 +0.03    +0.092    12.895
ATOM     40  C   UNL d   1      -7.764   4.419 -10.203 -0.07 +0.14    +0.330    12.895
ATOM     41  O   UNL d   1      -8.614   3.549 -10.179 -0.05 -0.06    -0.246    12.895
ATOM     42  O   UNL d   1      -8.011   5.671  -9.788 -0.50 -0.37    -0.477    12.895
ATOM     43  H   UNL d   1      -8.050   6.190 -10.618 +0.04 +0.13    +0.295    12.895
ATOM     44  C   UNL d   1       2.750   3.892 -17.210 -0.09 -0.01    +0.141    12.895
ATOM     45  C   UNL d   1       3.315   5.188 -16.691 -0.13 -0.03    +0.306    12.895
ATOM     46  O   UNL d   1       3.636   5.432 -15.541 -0.23 +0.04    -0.251    12.895
ATOM     47  O   UNL d   1       3.420   6.125 -17.651 -0.01 +0.04    -0.481    12.895
ATOM     48  H   UNL d   1       2.534   6.151 -18.070 +0.03 -0.02    +0.295    12.895
ATOM     49  C   UNL d   1      -4.006   8.331 -11.964 -0.14 +0.00    +0.048    12.895
ATOM     50  C   UNL d   1      -5.483   8.145 -12.314 -0.04 +0.01    +0.125    12.895
ATOM     51  C   UNL d   1      -6.355   8.408 -11.119 -0.04 +0.07    +0.305    12.895
ATOM     52  O   UNL d   1      -7.045   9.389 -10.904 -0.06 -0.03    -0.251    12.895
ATOM     53  O   UNL d   1      -6.303   7.400 -10.226 -0.57 -0.39    -0.481    12.895
ATOM     54  H   UNL d   1      -7.212   7.360  -9.860 +0.06 +0.30    +0.295    12.895
TER
ENDMDL
MODEL       20
USER    Run = 20
USER    Cluster Rank = 39
USER    Number of conformations in this cluster = 1
USER  
USER    RMSD from reference structure       = 11.709 A
USER  
USER    Estimated Free Energy of Binding    =   -3.93 kcal/mol  [=(1)+(2)+(3)-(4)]
USER    Estimated Inhibition Constant, Ki   =    1.31 mM (millimolar)  [Temperature = 298.15 K]
USER    
USER    (1) Final Intermolecular Energy     =   -7.81 kcal/mol
USER        vdW + Hbond + desolv Energy     =   -7.70 kcal/mol
USER        Electrostatic Energy            =   -0.11 kcal/mol
USER    (2) Final Total Internal Energy     =   -3.29 kcal/mol
USER    (3) Torsional Free Energy           =   +3.88 kcal/mol
USER    (4) Unbound System's Energy  [=(2)] =   -3.29 kcal/mol
USER    
USER    
USER  
USER    DPF = D:/Protein_go_brrr/autodock/final/mut_Y35F/heme/dock.dpf
USER    NEWDPF move	heme_opt.pdbqt
USER    NEWDPF about	0.153000 0.018000 -0.028000
USER    NEWDPF tran0	4.226499 -10.190875 9.085486
USER    NEWDPF axisangle0	-0.089094 -0.931548 -0.352535 -157.283438
USER    NEWDPF quaternion0	-0.087349 -0.913303 -0.345631 -0.196944
USER    NEWDPF dihe0	89.78 96.68 114.95 -156.72 -138.51 -32.15 -180.00 -11.32 35.00 21.71 -37.23 -1.39 29.30 
USER  
USER                              x       y       z    vdW   Elec        q     RMS 
ATOM      1  O   UNL d   1       9.622  -8.631   7.293 -0.14 +0.03    -0.289    11.709
ATOM      2  O   UNL d   1       5.677 -14.919   6.156 -0.04 +0.05    -0.289    11.709
ATOM      3  N   UNL d   1       6.506  -9.157   8.675 -0.06 +0.02    -0.247    11.709
ATOM      4  N   UNL d   1       5.635 -11.717   7.443 -0.06 +0.03    -0.247    11.709
ATOM      5  N   UNL d   1       2.980 -11.166   8.397 -0.05 +0.04    -0.354    11.709
ATOM      6  N   UNL d   1       3.887  -8.503   9.655 -0.07 +0.06    -0.354    11.709
ATOM      7  C   UNL d   1       8.062  -7.265   8.588 -0.18 -0.00    +0.084    11.709
ATOM      8  C   UNL d   1       7.386 -13.255   6.707 -0.05 -0.01    +0.084    11.709
ATOM      9  C   UNL d   1       6.991 -11.887   7.274 -0.09 -0.01    +0.058    11.709
ATOM     10  C   UNL d   1       6.718  -7.840   9.046 -0.15 -0.01    +0.058    11.709
ATOM     11  C   UNL d   1       8.579  -8.496   7.907 -0.16 -0.02    +0.193    11.709
ATOM     12  C   UNL d   1       7.556  -9.580   8.051 -0.12 -0.01    +0.109    11.709
ATOM     13  C   UNL d   1       6.000 -13.815   6.550 -0.05 -0.03    +0.193    11.709
ATOM     14  C   UNL d   1       7.887  -6.158   7.544 -0.42 -0.00    +0.026    11.709
ATOM     15  C   UNL d   1       7.888 -10.923   7.533 -0.14 -0.01    +0.055    11.709
ATOM     16  C   UNL d   1       8.145 -14.099   7.736 -0.02 -0.00    +0.026    11.709
ATOM     17  C   UNL d   1       5.031 -12.782   7.024 -0.09 -0.02    +0.109    11.709
ATOM     18  C   UNL d   1       5.878  -7.129   9.821 -0.20 -0.01    +0.050    11.709
ATOM     19  C   UNL d   1       4.656  -7.606  10.362 -0.19 -0.01    +0.045    11.709
ATOM     20  C   UNL d   1       2.721 -12.240   7.585 -0.17 -0.01    +0.045    11.709
ATOM     21  C   UNL d   1       3.585 -13.037   6.949 -0.19 -0.01    +0.057    11.709
ATOM     22  C   UNL d   1       0.738 -11.372   8.317 -0.22 +0.00    -0.019    11.709
ATOM     23  C   UNL d   1       1.845 -10.577   8.886 -0.20 -0.00    +0.045    11.709
ATOM     24  C   UNL d   1       1.263 -12.356   7.549 -0.26 +0.00    -0.022    11.709
ATOM     25  C   UNL d   1       2.710  -8.758  10.320 -0.08 -0.01    +0.049    11.709
ATOM     26  C   UNL d   1       3.979  -7.299  11.532 -0.19 +0.01    -0.018    11.709
ATOM     27  C   UNL d   1       2.760  -8.045  11.509 -0.21 -0.00    +0.003    11.709
ATOM     28  C   UNL d   1       1.684  -9.533   9.714 -0.11 -0.01    +0.052    11.709
ATOM     29  C   UNL d   1       0.554 -13.417   6.778 -0.15 -0.01    +0.046    11.709
ATOM     30  C   UNL d   1       4.435  -6.373  12.608 -0.08 -0.05    +0.046    11.709
ATOM     31  H   UNL d   1       3.929 -10.916   8.651 +0.05 -0.02    +0.166    11.709
ATOM     32  H   UNL d   1       4.151  -8.878   8.752 +0.06 -0.00    +0.166    11.709
ATOM     33  C   UNL d   1       9.010  -6.834   9.712 -0.10 +0.01    +0.141    11.709
ATOM     34  C   UNL d   1       9.797  -7.984  10.279 -0.03 +0.03    +0.306    11.709
ATOM     35  O   UNL d   1       9.422  -8.755  11.147 -0.01 -0.01    -0.251    11.709
ATOM     36  O   UNL d   1      11.014  -8.105   9.721 -0.04 -0.18    -0.481    11.709
ATOM     37  H   UNL d   1      10.886  -8.737   8.982 +0.05 +0.15    +0.295    11.709
ATOM     38  C   UNL d   1       1.752  -8.010  12.526 -0.20 -0.01    +0.017    11.709
ATOM     39  C   UNL d   1       1.004  -9.055  12.911 -0.12 -0.03    +0.092    11.709
ATOM     40  C   UNL d   1       0.015  -8.890  13.980 -0.05 -0.10    +0.330    11.709
ATOM     41  O   UNL d   1       0.091  -8.173  14.959 -0.09 +0.08    -0.246    11.709
ATOM     42  O   UNL d   1      -1.057  -9.661  13.740 -0.01 +0.08    -0.477    11.709
ATOM     43  H   UNL d   1      -1.599  -9.125  13.126 +0.13 -0.05    +0.295    11.709
ATOM     44  C   UNL d   1       8.121 -13.226   5.363 -0.15 -0.02    +0.141    11.709
ATOM     45  C   UNL d   1       7.770 -12.029   4.520 -0.23 -0.04    +0.306    11.709
ATOM     46  O   UNL d   1       8.547 -11.326   3.897 -0.81 +0.08    -0.251    11.709
ATOM     47  O   UNL d   1       6.452 -11.763   4.527 -0.71 -0.02    -0.481    11.709
ATOM     48  H   UNL d   1       6.041 -12.531   4.077 -0.38 -0.07    +0.295    11.709
ATOM     49  C   UNL d   1      -0.715 -11.090   8.563 -0.27 -0.01    +0.048    11.709
ATOM     50  C   UNL d   1      -1.038 -11.027  10.055 -0.16 -0.01    +0.125    11.709
ATOM     51  C   UNL d   1      -2.076  -9.977  10.335 -0.19 -0.04    +0.305    11.709
ATOM     52  O   UNL d   1      -2.414  -9.055   9.614 -0.38 +0.05    -0.251    11.709
ATOM     53  O   UNL d   1      -2.643 -10.140  11.548 -0.00 +0.04    -0.481    11.709
ATOM     54  H   UNL d   1      -1.980 -10.655  12.053 +0.09 -0.03    +0.295    11.709
TER
ENDMDL
MODEL       24
USER    Run = 24
USER    Cluster Rank = 40
USER    Number of conformations in this cluster = 1
USER  
USER    RMSD from reference structure       = 17.233 A
USER  
USER    Estimated Free Energy of Binding    =   -3.92 kcal/mol  [=(1)+(2)+(3)-(4)]
USER    Estimated Inhibition Constant, Ki   =    1.34 mM (millimolar)  [Temperature = 298.15 K]
USER    
USER    (1) Final Intermolecular Energy     =   -7.80 kcal/mol
USER        vdW + Hbond + desolv Energy     =   -7.26 kcal/mol
USER        Electrostatic Energy            =   -0.53 kcal/mol
USER    (2) Final Total Internal Energy     =   -3.59 kcal/mol
USER    (3) Torsional Free Energy           =   +3.88 kcal/mol
USER    (4) Unbound System's Energy  [=(2)] =   -3.59 kcal/mol
USER    
USER    
USER  
USER    DPF = D:/Protein_go_brrr/autodock/final/mut_Y35F/heme/dock.dpf
USER    NEWDPF move	heme_opt.pdbqt
USER    NEWDPF about	0.153000 0.018000 -0.028000
USER    NEWDPF tran0	0.804064 -20.171788 -0.869839
USER    NEWDPF axisangle0	0.187301 0.915286 -0.356610 -116.630435
USER    NEWDPF quaternion0	0.159384 0.778863 -0.303457 -0.525246
USER    NEWDPF dihe0	-88.70 176.12 -79.00 -34.56 33.79 83.92 163.59 159.39 91.50 -97.16 69.77 -109.55 124.02 
USER  
USER                              x       y       z    vdW   Elec        q     RMS 
ATOM      1  O   UNL d   1       4.459 -18.899   3.577 -0.07 +0.05    -0.289    17.233
ATOM      2  O   UNL d   1      -2.027 -22.681   3.457 -0.02 -0.03    -0.289    17.233
ATOM      3  N   UNL d   1       2.572 -19.281   0.716 -0.13 -0.00    -0.247    17.233
ATOM      4  N   UNL d   1       0.408 -21.131   1.566 -0.10 -0.05    -0.247    17.233
ATOM      5  N   UNL d   1      -0.236 -21.507  -1.210 -0.01 -0.19    -0.354    17.233
ATOM      6  N   UNL d   1       2.024 -19.602  -2.085 -0.10 +0.01    -0.354    17.233
ATOM      7  C   UNL d   1       4.777 -18.337   1.220 -0.16 -0.01    +0.084    17.233
ATOM      8  C   UNL d   1      -0.184 -21.144   3.937 -0.08 +0.00    +0.084    17.233
ATOM      9  C   UNL d   1       0.733 -20.648   2.814 -0.16 +0.00    +0.058    17.233
ATOM     10  C   UNL d   1       3.696 -18.669   0.187 -0.19 -0.01    +0.058    17.233
ATOM     11  C   UNL d   1       4.057 -18.852   2.429 -0.15 -0.03    +0.193    17.233
ATOM     12  C   UNL d   1       2.722 -19.375   1.997 -0.19 -0.01    +0.109    17.233
ATOM     13  C   UNL d   1      -1.067 -22.027   3.101 -0.05 +0.02    +0.193    17.233
ATOM     14  C   UNL d   1       6.047 -19.165   1.009 -0.06 -0.00    +0.026    17.233
ATOM     15  C   UNL d   1       1.792 -19.854   3.039 -0.22 -0.00    +0.055    17.233
ATOM     16  C   UNL d   1      -1.032 -20.009   4.520 -0.19 +0.00    +0.026    17.233
ATOM     17  C   UNL d   1      -0.598 -21.936   1.685 -0.09 +0.03    +0.109    17.233
ATOM     18  C   UNL d   1       3.820 -18.303  -1.103 -0.21 -0.01    +0.050    17.233
ATOM     19  C   UNL d   1       2.839 -18.492  -2.109 -0.24 -0.01    +0.045    17.233
ATOM     20  C   UNL d   1      -1.015 -22.487  -0.653 -0.07 +0.02    +0.045    17.233
ATOM     21  C   UNL d   1      -1.253 -22.735   0.639 -0.09 +0.02    +0.057    17.233
ATOM     22  C   UNL d   1      -1.094 -22.685  -2.927 -0.13 -0.00    -0.019    17.233
ATOM     23  C   UNL d   1      -0.221 -21.546  -2.579 -0.16 +0.01    +0.045    17.233
ATOM     24  C   UNL d   1      -1.562 -23.237  -1.783 -0.09 -0.01    -0.022    17.233
ATOM     25  C   UNL d   1       1.214 -19.631  -3.197 -0.23 -0.01    +0.049    17.233
ATOM     26  C   UNL d   1       2.525 -17.763  -3.246 -0.26 +0.00    -0.018    17.233
ATOM     27  C   UNL d   1       1.485 -18.476  -3.918 -0.29 -0.00    +0.003    17.233
ATOM     28  C   UNL d   1       0.396 -20.760  -3.474 -0.20 -0.01    +0.052    17.233
ATOM     29  C   UNL d   1      -2.484 -24.397  -1.616 -0.04 +0.01    +0.046    17.233
ATOM     30  C   UNL d   1       3.150 -16.481  -3.681 -0.21 -0.01    +0.046    17.233
ATOM     31  H   UNL d   1       0.203 -20.794  -0.637 +0.02 +0.08    +0.166    17.233
ATOM     32  H   UNL d   1       2.061 -20.309  -1.361 +0.03 +0.01    +0.166    17.233
ATOM     33  C   UNL d   1       5.097 -16.847   1.379 -0.12 -0.04    +0.141    17.233
ATOM     34  C   UNL d   1       5.298 -16.448   2.816 -0.22 -0.08    +0.306    17.233
ATOM     35  O   UNL d   1       6.349 -16.487   3.434 -0.09 +0.05    -0.251    17.233
ATOM     36  O   UNL d   1       4.165 -16.017   3.398 -0.20 +0.19    -0.481    17.233
ATOM     37  H   UNL d   1       3.751 -16.829   3.761 -0.35 -0.14    +0.295    17.233
ATOM     38  C   UNL d   1       0.875 -18.078  -5.151 -0.32 -0.01    +0.017    17.233
ATOM     39  C   UNL d   1       1.073 -18.668  -6.339 -0.25 -0.06    +0.092    17.233
ATOM     40  C   UNL d   1       0.371 -18.172  -7.527 -0.22 -0.21    +0.330    17.233
ATOM     41  O   UNL d   1       0.676 -17.228  -8.230 -0.28 +0.13    -0.246    17.233
ATOM     42  O   UNL d   1      -0.709 -18.929  -7.774 -0.09 +0.44    -0.477    17.233
ATOM     43  H   UNL d   1      -0.658 -19.638  -7.101 -0.46 -0.45    +0.295    17.233
ATOM     44  C   UNL d   1       0.504 -21.947   5.046 -0.03 -0.00    +0.141    17.233
ATOM     45  C   UNL d   1      -0.371 -23.023   5.630 -0.00 -0.00    +0.306    17.233
ATOM     46  O   UNL d   1      -0.148 -24.221   5.631 -0.00 +0.00    -0.251    17.233
ATOM     47  O   UNL d   1      -1.504 -22.532   6.164 +0.00 -0.00    -0.481    17.233
ATOM     48  H   UNL d   1      -2.190 -22.693   5.481 +0.02 +0.01    +0.295    17.233
ATOM     49  C   UNL d   1      -1.375 -23.133  -4.332 -0.09 -0.01    +0.048    17.233
ATOM     50  C   UNL d   1      -0.122 -23.083  -5.206 -0.04 -0.03    +0.125    17.233
ATOM     51  C   UNL d   1      -0.215 -21.975  -6.216 -0.03 -0.17    +0.305    17.233
ATOM     52  O   UNL d   1       0.702 -21.366  -6.738 -0.05 +0.11    -0.251    17.233
ATOM     53  O   UNL d   1      -1.494 -21.674  -6.516 +0.04 +0.44    -0.481    17.233
ATOM     54  H   UNL d   1      -1.483 -20.704  -6.660 -0.34 -0.57    +0.295    17.233
TER
ENDMDL
MODEL       37
USER    Run = 37
USER    Cluster Rank = 41
USER    Number of conformations in this cluster = 1
USER  
USER    RMSD from reference structure       = 15.197 A
USER  
USER    Estimated Free Energy of Binding    =   -3.83 kcal/mol  [=(1)+(2)+(3)-(4)]
USER    Estimated Inhibition Constant, Ki   =    1.55 mM (millimolar)  [Temperature = 298.15 K]
USER    
USER    (1) Final Intermolecular Energy     =   -7.71 kcal/mol
USER        vdW + Hbond + desolv Energy     =   -7.23 kcal/mol
USER        Electrostatic Energy            =   -0.48 kcal/mol
USER    (2) Final Total Internal Energy     =   -4.14 kcal/mol
USER    (3) Torsional Free Energy           =   +3.88 kcal/mol
USER    (4) Unbound System's Energy  [=(2)] =   -4.14 kcal/mol
USER    
USER    
USER  
USER    DPF = D:/Protein_go_brrr/autodock/final/mut_Y35F/heme/dock.dpf
USER    NEWDPF move	heme_opt.pdbqt
USER    NEWDPF about	0.153000 0.018000 -0.028000
USER    NEWDPF tran0	12.202005 12.060095 6.525927
USER    NEWDPF axisangle0	-0.343452 0.787454 0.511817 115.150793
USER    NEWDPF quaternion0	-0.289907 0.664688 0.432023 0.536189
USER    NEWDPF dihe0	131.34 -162.77 82.16 43.63 -133.49 74.26 133.42 -111.24 24.65 11.03 -84.25 -97.28 -5.53 
USER  
USER                              x       y       z    vdW   Elec        q     RMS 
ATOM      1  O   UNL d   1      13.151  17.767   5.394 -0.01 +0.03    -0.289    15.197
ATOM      2  O   UNL d   1      14.028  11.677   1.090 -0.95 -0.02    -0.289    15.197
ATOM      3  N   UNL d   1      12.588  14.567   6.549 -0.05 +0.00    -0.247    15.197
ATOM      4  N   UNL d   1      12.888  12.897   4.109 -0.07 +0.02    -0.247    15.197
ATOM      5  N   UNL d   1      11.687  10.725   5.561 -0.04 -0.02    -0.354    15.197
ATOM      6  N   UNL d   1      11.363  12.470   8.081 +0.04 -0.04    -0.354    15.197
ATOM      7  C   UNL d   1      12.269  16.817   7.466 -0.07 -0.00    +0.084    15.197
ATOM      8  C   UNL d   1      14.308  13.772   2.323 -0.25 -0.01    +0.084    15.197
ATOM      9  C   UNL d   1      13.626  13.978   3.680 -0.09 -0.01    +0.058    15.197
ATOM     10  C   UNL d   1      12.150  15.300   7.639 -0.11 -0.00    +0.058    15.197
ATOM     11  C   UNL d   1      12.869  16.811   6.092 -0.02 -0.02    +0.193    15.197
ATOM     12  C   UNL d   1      13.037  15.388   5.657 -0.04 -0.01    +0.109    15.197
ATOM     13  C   UNL d   1      13.790  12.389   2.045 -0.32 -0.02    +0.193    15.197
ATOM     14  C   UNL d   1      10.899  17.498   7.404 -0.17 -0.00    +0.026    15.197
ATOM     15  C   UNL d   1      13.701  15.131   4.363 -0.05 -0.01    +0.055    15.197
ATOM     16  C   UNL d   1      15.832  13.709   2.458 -0.24 -0.00    +0.026    15.197
ATOM     17  C   UNL d   1      12.936  11.977   3.200 -0.23 -0.01    +0.109    15.197
ATOM     18  C   UNL d   1      11.736  14.755   8.798 -0.18 +0.00    +0.050    15.197
ATOM     19  C   UNL d   1      11.675  13.366   9.078 -0.16 +0.01    +0.045    15.197
ATOM     20  C   UNL d   1      11.694  10.190   4.299 -0.23 -0.00    +0.045    15.197
ATOM     21  C   UNL d   1      12.254  10.675   3.186 -0.27 -0.01    +0.057    15.197
ATOM     22  C   UNL d   1      10.540   8.791   5.688 -0.21 -0.00    -0.019    15.197
ATOM     23  C   UNL d   1      11.014   9.951   6.468 -0.13 +0.01    +0.045    15.197
ATOM     24  C   UNL d   1      10.947   8.937   4.404 -0.29 -0.00    -0.022    15.197
ATOM     25  C   UNL d   1      11.269  11.195   8.589 -0.15 +0.01    +0.049    15.197
ATOM     26  C   UNL d   1      11.824  12.651  10.256 -0.14 -0.00    -0.018    15.197
ATOM     27  C   UNL d   1      11.586  11.279   9.938 -0.14 +0.00    +0.003    15.197
ATOM     28  C   UNL d   1      10.805  10.121   7.783 -0.17 +0.01    +0.052    15.197
ATOM     29  C   UNL d   1      10.726   8.025   3.246 -0.42 +0.00    +0.046    15.197
ATOM     30  C   UNL d   1      12.169  13.206  11.597 -0.12 +0.02    +0.046    15.197
ATOM     31  H   UNL d   1      12.208  11.568   5.777 +0.04 +0.01    +0.166    15.197
ATOM     32  H   UNL d   1      11.189  12.739   7.120 +0.11 +0.01    +0.166    15.197
ATOM     33  C   UNL d   1      13.202  17.520   8.458 -0.02 -0.00    +0.141    15.197
ATOM     34  C   UNL d   1      14.655  17.241   8.183 -0.00 -0.00    +0.306    15.197
ATOM     35  O   UNL d   1      15.266  16.232   8.492 -0.00 -0.00    -0.251    15.197
ATOM     36  O   UNL d   1      15.262  18.248   7.531 +0.00 +0.02    -0.481    15.197
ATOM     37  H   UNL d   1      14.682  18.429   6.761 +0.00 -0.02    +0.295    15.197
ATOM     38  C   UNL d   1      11.624  10.196  10.874 -0.11 +0.01    +0.017    15.197
ATOM     39  C   UNL d   1      10.594   9.385  11.163 -0.13 +0.04    +0.092    15.197
ATOM     40  C   UNL d   1      10.769   8.299  12.130 -0.05 +0.15    +0.330    15.197
ATOM     41  O   UNL d   1      10.884   8.390  13.338 -0.03 -0.09    -0.246    15.197
ATOM     42  O   UNL d   1      10.780   7.115  11.499 -0.05 -0.36    -0.477    15.197
ATOM     43  H   UNL d   1      10.947   7.350  10.563 +0.05 +0.24    +0.295    15.197
ATOM     44  C   UNL d   1      13.888  14.748   1.219 -0.29 -0.07    +0.141    15.197
ATOM     45  C   UNL d   1      12.420  15.077   1.243 -0.23 -0.15    +0.306    15.197
ATOM     46  O   UNL d   1      11.887  15.982   1.861 -0.10 +0.10    -0.251    15.197
ATOM     47  O   UNL d   1      11.689  14.225   0.501 -0.19 +0.23    -0.481    15.197
ATOM     48  H   UNL d   1      11.547  14.694  -0.349 -0.40 -0.31    +0.295    15.197
ATOM     49  C   UNL d   1       9.729   7.665   6.260 -0.23 +0.02    +0.048    15.197
ATOM     50  C   UNL d   1      10.616   6.550   6.814 -0.09 +0.09    +0.125    15.197
ATOM     51  C   UNL d   1      10.805   6.702   8.296 -0.04 +0.35    +0.305    15.197
ATOM     52  O   UNL d   1      11.848   6.895   8.896 -0.08 -0.22    -0.251    15.197
ATOM     53  O   UNL d   1       9.641   6.588   8.967 -0.17 -0.66    -0.481    15.197
ATOM     54  H   UNL d   1       9.677   7.308   9.631 +0.08 +0.26    +0.295    15.197
TER
ENDMDL
MODEL       59
USER    Run = 59
USER    Cluster Rank = 42
USER    Number of conformations in this cluster = 1
USER  
USER    RMSD from reference structure       = 14.992 A
USER  
USER    Estimated Free Energy of Binding    =   -3.83 kcal/mol  [=(1)+(2)+(3)-(4)]
USER    Estimated Inhibition Constant, Ki   =    1.55 mM (millimolar)  [Temperature = 298.15 K]
USER    
USER    (1) Final Intermolecular Energy     =   -7.71 kcal/mol
USER        vdW + Hbond + desolv Energy     =   -7.12 kcal/mol
USER        Electrostatic Energy            =   -0.59 kcal/mol
USER    (2) Final Total Internal Energy     =   -2.44 kcal/mol
USER    (3) Torsional Free Energy           =   +3.88 kcal/mol
USER    (4) Unbound System's Energy  [=(2)] =   -2.44 kcal/mol
USER    
USER    
USER  
USER    DPF = D:/Protein_go_brrr/autodock/final/mut_Y35F/heme/dock.dpf
USER    NEWDPF move	heme_opt.pdbqt
USER    NEWDPF about	0.153000 0.018000 -0.028000
USER    NEWDPF tran0	-0.235009 13.246834 -11.874544
USER    NEWDPF axisangle0	-0.379798 0.315263 -0.869691 142.402527
USER    NEWDPF quaternion0	-0.359539 0.298446 -0.823298 0.322245
USER    NEWDPF dihe0	111.45 -139.04 -145.95 131.00 179.23 -9.67 129.56 142.48 -20.71 -12.69 72.08 -152.29 175.83 
USER  
USER                              x       y       z    vdW   Elec        q     RMS 
ATOM      1  O   UNL d   1       1.760   9.968 -16.349 -0.05 +0.02    -0.289    14.992
ATOM      2  O   UNL d   1       4.163  16.525 -13.590 -0.03 -0.00    -0.289    14.992
ATOM      3  N   UNL d   1       0.168  11.602 -13.763 -0.07 +0.01    -0.247    14.992
ATOM      4  N   UNL d   1       1.977  13.887 -13.182 -0.10 +0.00    -0.247    14.992
ATOM      5  N   UNL d   1       0.528  14.291 -10.731 -0.16 +0.02    -0.354    14.992
ATOM      6  N   UNL d   1      -1.331  11.907 -11.332 +0.04 +0.03    -0.354    14.992
ATOM      7  C   UNL d   1      -0.097   9.424 -14.856 -0.16 -0.01    +0.084    14.992
ATOM      8  C   UNL d   1       3.388  14.688 -15.009 -0.06 -0.00    +0.084    14.992
ATOM      9  C   UNL d   1       2.383  13.660 -14.478 -0.13 -0.00    +0.058    14.992
ATOM     10  C   UNL d   1      -0.549  10.418 -13.782 -0.16 -0.00    +0.058    14.992
ATOM     11  C   UNL d   1       0.992  10.264 -15.453 -0.10 -0.01    +0.193    14.992
ATOM     12  C   UNL d   1       1.036  11.570 -14.721 -0.11 -0.00    +0.109    14.992
ATOM     13  C   UNL d   1       3.505  15.518 -13.762 -0.07 -0.00    +0.193    14.992
ATOM     14  C   UNL d   1       0.526   8.165 -14.248 -0.33 -0.00    +0.026    14.992
ATOM     15  C   UNL d   1       1.977  12.603 -15.198 -0.13 -0.00    +0.055    14.992
ATOM     16  C   UNL d   1       2.783  15.551 -16.120 -0.02 -0.00    +0.026    14.992
ATOM     17  C   UNL d   1       2.606  14.923 -12.728 -0.16 +0.00    +0.109    14.992
ATOM     18  C   UNL d   1      -1.616  10.169 -12.998 -0.22 -0.00    +0.050    14.992
ATOM     19  C   UNL d   1      -2.157  11.061 -12.038 -0.17 -0.00    +0.045    14.992
ATOM     20  C   UNL d   1       1.581  15.145 -10.527 -0.24 -0.00    +0.045    14.992
ATOM     21  C   UNL d   1       2.546  15.505 -11.379 -0.24 +0.00    +0.057    14.992
ATOM     22  C   UNL d   1       0.343  15.026  -8.611 -0.23 +0.00    -0.019    14.992
ATOM     23  C   UNL d   1      -0.274  14.155  -9.630 -0.24 -0.01    +0.045    14.992
ATOM     24  C   UNL d   1       1.440  15.611  -9.148 -0.23 +0.00    -0.022    14.992
ATOM     25  C   UNL d   1      -2.050  12.615 -10.397 -0.18 -0.01    +0.049    14.992
ATOM     26  C   UNL d   1      -3.450  11.251 -11.575 -0.10 +0.00    -0.018    14.992
ATOM     27  C   UNL d   1      -3.379  12.247 -10.553 -0.11 -0.00    +0.003    14.992
ATOM     28  C   UNL d   1      -1.393  13.437  -9.442 -0.23 -0.01    +0.052    14.992
ATOM     29  C   UNL d   1       2.384  16.577  -8.518 -0.23 +0.01    +0.046    14.992
ATOM     30  C   UNL d   1      -4.678  10.553 -12.053 -0.05 -0.00    +0.046    14.992
ATOM     31  H   UNL d   1       0.351  13.884 -11.644 +0.03 -0.01    +0.166    14.992
ATOM     32  H   UNL d   1      -0.329  11.956 -11.470 +0.15 -0.01    +0.166    14.992
ATOM     33  C   UNL d   1      -1.150   9.076 -15.914 -0.05 -0.01    +0.141    14.992
ATOM     34  C   UNL d   1      -2.154  10.178 -16.115 -0.01 -0.01    +0.306    14.992
ATOM     35  O   UNL d   1      -3.367  10.066 -16.057 -0.01 +0.01    -0.251    14.992
ATOM     36  O   UNL d   1      -1.578  11.364 -16.377 +0.00 +0.02    -0.481    14.992
ATOM     37  H   UNL d   1      -1.170  11.634 -15.526 +0.03 -0.01    +0.295    14.992
ATOM     38  C   UNL d   1      -4.493  12.733  -9.796 -0.10 -0.00    +0.017    14.992
ATOM     39  C   UNL d   1      -5.232  12.000  -8.949 -0.14 -0.04    +0.092    14.992
ATOM     40  C   UNL d   1      -6.339  12.624  -8.218 -0.07 -0.15    +0.330    14.992
ATOM     41  O   UNL d   1      -6.589  13.810  -8.119 -0.04 +0.08    -0.246    14.992
ATOM     42  O   UNL d   1      -7.101  11.682  -7.642 -0.12 +0.30    -0.477    14.992
ATOM     43  H   UNL d   1      -6.452  11.034  -7.297 -0.06 -0.43    +0.295    14.992
ATOM     44  C   UNL d   1       4.752  14.126 -15.424 -0.06 -0.00    +0.141    14.992
ATOM     45  C   UNL d   1       5.506  13.495 -14.284 -0.13 +0.00    +0.306    14.992
ATOM     46  O   UNL d   1       5.396  12.349 -13.885 -0.27 -0.01    -0.251    14.992
ATOM     47  O   UNL d   1       6.346  14.358 -13.684 -0.04 -0.01    -0.481    14.992
ATOM     48  H   UNL d   1       5.898  15.228 -13.750 +0.07 +0.00    +0.295    14.992
ATOM     49  C   UNL d   1      -0.183  15.193  -7.215 -0.24 -0.02    +0.048    14.992
ATOM     50  C   UNL d   1       0.469  14.213  -6.240 -0.34 -0.06    +0.125    14.992
ATOM     51  C   UNL d   1      -0.493  13.128  -5.847 -0.33 -0.19    +0.305    14.992
ATOM     52  O   UNL d   1      -0.271  11.933  -5.760 -0.92 +0.12    -0.251    14.992
ATOM     53  O   UNL d   1      -1.723  13.614  -5.588 -0.06 +0.48    -0.481    14.992
ATOM     54  H   UNL d   1      -1.560  14.362  -4.976 -0.14 -0.67    +0.295    14.992
TER
ENDMDL
MODEL       38
USER    Run = 38
USER    Cluster Rank = 43
USER    Number of conformations in this cluster = 1
USER  
USER    RMSD from reference structure       = 15.997 A
USER  
USER    Estimated Free Energy of Binding    =   -3.79 kcal/mol  [=(1)+(2)+(3)-(4)]
USER    Estimated Inhibition Constant, Ki   =    1.66 mM (millimolar)  [Temperature = 298.15 K]
USER    
USER    (1) Final Intermolecular Energy     =   -7.67 kcal/mol
USER        vdW + Hbond + desolv Energy     =   -7.44 kcal/mol
USER        Electrostatic Energy            =   -0.23 kcal/mol
USER    (2) Final Total Internal Energy     =   -3.65 kcal/mol
USER    (3) Torsional Free Energy           =   +3.88 kcal/mol
USER    (4) Unbound System's Energy  [=(2)] =   -3.65 kcal/mol
USER    
USER    
USER  
USER    DPF = D:/Protein_go_brrr/autodock/final/mut_Y35F/heme/dock.dpf
USER    NEWDPF move	heme_opt.pdbqt
USER    NEWDPF about	0.153000 0.018000 -0.028000
USER    NEWDPF tran0	-4.026642 -11.774470 -13.874197
USER    NEWDPF axisangle0	-0.544704 -0.568446 -0.616577 13.023754
USER    NEWDPF quaternion0	-0.061774 -0.064467 -0.069925 0.993548
USER    NEWDPF dihe0	107.34 163.75 -145.57 144.19 -133.25 121.52 126.66 81.20 37.93 -21.74 -114.09 -115.36 -3.98 
USER  
USER                              x       y       z    vdW   Elec        q     RMS 
ATOM      1  O   UNL d   1      -9.669 -11.013 -12.344 -0.21 +0.01    -0.289    15.997
ATOM      2  O   UNL d   1      -6.217 -16.747 -15.749 -0.11 -0.13    -0.289    15.997
ATOM      3  N   UNL d   1      -6.320 -10.954 -13.169 -0.06 +0.02    -0.247    15.997
ATOM      4  N   UNL d   1      -5.815 -13.705 -14.169 -0.10 -0.01    -0.247    15.997
ATOM      5  N   UNL d   1      -2.999 -13.157 -13.980 -0.08 -0.01    -0.354    15.997
ATOM      6  N   UNL d   1      -3.532 -10.310 -12.924 -0.10 +0.03    -0.354    15.997
ATOM      7  C   UNL d   1      -7.821  -9.470 -11.922 -0.24 -0.02    +0.084    15.997
ATOM      8  C   UNL d   1      -7.715 -14.921 -15.107 -0.07 +0.01    +0.084    15.997
ATOM      9  C   UNL d   1      -7.174 -13.681 -14.388 -0.10 +0.00    +0.058    15.997
ATOM     10  C   UNL d   1      -6.416  -9.773 -12.451 -0.19 -0.01    +0.058    15.997
ATOM     11  C   UNL d   1      -8.507 -10.678 -12.484 -0.18 -0.02    +0.193    15.997
ATOM     12  C   UNL d   1      -7.497 -11.486 -13.240 -0.12 -0.01    +0.109    15.997
ATOM     13  C   UNL d   1      -6.418 -15.670 -15.223 -0.11 +0.05    +0.193    15.997
ATOM     14  C   UNL d   1      -7.885  -9.529 -10.394 -0.28 -0.01    +0.026    15.997
ATOM     15  C   UNL d   1      -7.966 -12.685 -13.963 -0.12 -0.00    +0.055    15.997
ATOM     16  C   UNL d   1      -8.218 -14.586 -16.515 -0.03 +0.00    +0.026    15.997
ATOM     17  C   UNL d   1      -5.346 -14.828 -14.610 -0.17 +0.02    +0.109    15.997
ATOM     18  C   UNL d   1      -5.402  -8.902 -12.293 -0.20 -0.00    +0.050    15.997
ATOM     19  C   UNL d   1      -4.094  -9.058 -12.819 -0.10 -0.00    +0.045    15.997
ATOM     20  C   UNL d   1      -2.960 -14.505 -14.224 -0.17 +0.01    +0.045    15.997
ATOM     21  C   UNL d   1      -3.965 -15.329 -14.539 -0.23 +0.01    +0.057    15.997
ATOM     22  C   UNL d   1      -0.846 -13.780 -13.752 -0.18 -0.00    -0.019    15.997
ATOM     23  C   UNL d   1      -1.770 -12.630 -13.685 -0.22 -0.00    +0.045    15.997
ATOM     24  C   UNL d   1      -1.556 -14.887 -14.073 -0.12 -0.00    -0.022    15.997
ATOM     25  C   UNL d   1      -2.234 -10.222 -13.371 -0.23 -0.00    +0.049    15.997
ATOM     26  C   UNL d   1      -3.150  -8.135 -13.243 -0.16 +0.00    -0.018    15.997
ATOM     27  C   UNL d   1      -1.985  -8.878 -13.609 -0.22 -0.00    +0.003    15.997
ATOM     28  C   UNL d   1      -1.397 -11.370 -13.410 -0.30 -0.01    +0.052    15.997
ATOM     29  C   UNL d   1      -1.071 -16.283 -14.268 -0.16 +0.01    +0.046    15.997
ATOM     30  C   UNL d   1      -3.318  -6.655 -13.308 -0.16 +0.00    +0.046    15.997
ATOM     31  H   UNL d   1      -3.855 -12.626 -14.095 +0.05 -0.00    +0.166    15.997
ATOM     32  H   UNL d   1      -4.012 -11.164 -12.663 +0.07 -0.02    +0.166    15.997
ATOM     33  C   UNL d   1      -8.463  -8.187 -12.462 -0.05 -0.03    +0.141    15.997
ATOM     34  C   UNL d   1      -9.169  -8.401 -13.774 -0.06 -0.02    +0.306    15.997
ATOM     35  O   UNL d   1      -8.643  -8.474 -14.871 -0.02 +0.01    -0.251    15.997
ATOM     36  O   UNL d   1     -10.502  -8.514 -13.633 -0.04 +0.02    -0.481    15.997
ATOM     37  H   UNL d   1     -10.636  -9.414 -13.266 +0.07 -0.00    +0.295    15.997
ATOM     38  C   UNL d   1      -0.761  -8.309 -14.089 -0.22 +0.00    +0.017    15.997
ATOM     39  C   UNL d   1       0.348  -8.126 -13.356 -0.25 +0.01    +0.092    15.997
ATOM     40  C   UNL d   1       1.544  -7.548 -13.974 -0.13 +0.07    +0.330    15.997
ATOM     41  O   UNL d   1       2.116  -6.519 -13.667 -0.49 -0.12    -0.246    15.997
ATOM     42  O   UNL d   1       1.971  -8.332 -14.976 -0.15 -0.08    -0.477    15.997
ATOM     43  H   UNL d   1       1.514  -9.183 -14.819 +0.07 +0.06    +0.295    15.997
ATOM     44  C   UNL d   1      -8.752 -15.737 -14.328 -0.10 +0.02    +0.141    15.997
ATOM     45  C   UNL d   1      -8.163 -16.492 -13.167 -0.14 +0.06    +0.306    15.997
ATOM     46  O   UNL d   1      -7.928 -16.049 -12.056 -0.25 -0.02    -0.251    15.997
ATOM     47  O   UNL d   1      -7.874 -17.769 -13.477 -0.06 -0.19    -0.481    15.997
ATOM     48  H   UNL d   1      -7.603 -17.740 -14.419 +0.05 +0.15    +0.295    15.997
ATOM     49  C   UNL d   1       0.628 -13.694 -13.485 -0.26 -0.01    +0.048    15.997
ATOM     50  C   UNL d   1       1.415 -13.332 -14.744 -0.13 -0.01    +0.125    15.997
ATOM     51  C   UNL d   1       1.094 -11.935 -15.194 -0.09 +0.00    +0.305    15.997
ATOM     52  O   UNL d   1       1.472 -10.889 -14.696 -0.66 -0.05    -0.251    15.997
ATOM     53  O   UNL d   1       0.282 -11.925 -16.271 +0.01 -0.00    -0.481    15.997
ATOM     54  H   UNL d   1       0.578 -12.696 -16.798 +0.03 +0.00    +0.295    15.997
TER
ENDMDL
MODEL       15
USER    Run = 15
USER    Cluster Rank = 44
USER    Number of conformations in this cluster = 1
USER  
USER    RMSD from reference structure       = 17.920 A
USER  
USER    Estimated Free Energy of Binding    =   -3.78 kcal/mol  [=(1)+(2)+(3)-(4)]
USER    Estimated Inhibition Constant, Ki   =    1.69 mM (millimolar)  [Temperature = 298.15 K]
USER    
USER    (1) Final Intermolecular Energy     =   -7.66 kcal/mol
USER        vdW + Hbond + desolv Energy     =   -7.79 kcal/mol
USER        Electrostatic Energy            =   +0.13 kcal/mol
USER    (2) Final Total Internal Energy     =   -4.74 kcal/mol
USER    (3) Torsional Free Energy           =   +3.88 kcal/mol
USER    (4) Unbound System's Energy  [=(2)] =   -4.74 kcal/mol
USER    
USER    
USER  
USER    DPF = D:/Protein_go_brrr/autodock/final/mut_Y35F/heme/dock.dpf
USER    NEWDPF move	heme_opt.pdbqt
USER    NEWDPF about	0.153000 0.018000 -0.028000
USER    NEWDPF tran0	9.457005 18.042272 6.444015
USER    NEWDPF axisangle0	0.449594 0.580835 0.678599 -149.756792
USER    NEWDPF quaternion0	0.434026 0.560723 0.655102 -0.260869
USER    NEWDPF dihe0	131.31 -147.32 179.82 25.62 -136.30 -83.20 140.06 14.18 17.41 -17.55 -77.38 -2.57 0.65 
USER  
USER                              x       y       z    vdW   Elec        q     RMS 
ATOM      1  O   UNL d   1      12.993  13.326   6.514 -0.04 -0.01    -0.289    17.920
ATOM      2  O   UNL d   1       8.689  16.178   1.062 -0.25 +0.07    -0.289    17.920
ATOM      3  N   UNL d   1      10.958  16.070   6.984 -0.15 +0.04    -0.247    17.920
ATOM      4  N   UNL d   1       9.915  16.622   4.257 -0.17 +0.06    -0.247    17.920
ATOM      5  N   UNL d   1       9.007  19.174   5.221 -0.11 +0.08    -0.354    17.920
ATOM      6  N   UNL d   1      10.108  18.601   8.042 -0.08 +0.07    -0.354    17.920
ATOM      7  C   UNL d   1      12.640  14.913   8.340 -0.07 +0.00    +0.084    17.920
ATOM      8  C   UNL d   1       9.802  14.741   2.701 -0.35 -0.02    +0.084    17.920
ATOM      9  C   UNL d   1      10.228  15.295   4.065 -0.26 -0.01    +0.058    17.920
ATOM     10  C   UNL d   1      11.626  16.051   8.197 -0.15 -0.00    +0.058    17.920
ATOM     11  C   UNL d   1      12.413  14.280   7.000 -0.07 +0.00    +0.193    17.920
ATOM     12  C   UNL d   1      11.353  15.058   6.283 -0.15 -0.01    +0.109    17.920
ATOM     13  C   UNL d   1       9.223  16.009   2.141 -0.24 -0.05    +0.193    17.920
ATOM     14  C   UNL d   1      14.079  15.430   8.406 -0.03 +0.00    +0.026    17.920
ATOM     15  C   UNL d   1      10.894  14.561   4.970 -0.12 -0.01    +0.055    17.920
ATOM     16  C   UNL d   1       8.682  13.705   2.834 -0.54 -0.00    +0.026    17.920
ATOM     17  C   UNL d   1       9.360  17.075   3.179 -0.21 -0.03    +0.109    17.920
ATOM     18  C   UNL d   1      11.363  16.891   9.216 -0.17 +0.00    +0.050    17.920
ATOM     19  C   UNL d   1      10.385  17.917   9.205 -0.19 -0.00    +0.045    17.920
ATOM     20  C   UNL d   1       8.802  19.344   3.876 -0.17 -0.01    +0.045    17.920
ATOM     21  C   UNL d   1       8.915  18.446   2.891 -0.22 -0.01    +0.057    17.920
ATOM     22  C   UNL d   1       8.417  21.329   4.938 -0.08 +0.00    -0.019    17.920
ATOM     23  C   UNL d   1       8.798  20.318   5.944 -0.08 -0.01    +0.045    17.920
ATOM     24  C   UNL d   1       8.420  20.746   3.716 -0.11 +0.00    -0.022    17.920
ATOM     25  C   UNL d   1       9.200  19.607   8.277 -0.22 -0.01    +0.049    17.920
ATOM     26  C   UNL d   1       9.609  18.469  10.213 -0.23 -0.00    -0.018    17.920
ATOM     27  C   UNL d   1       8.849  19.523   9.618 -0.26 -0.00    +0.003    17.920
ATOM     28  C   UNL d   1       8.877  20.549   7.263 -0.18 -0.01    +0.052    17.920
ATOM     29  C   UNL d   1       8.093  21.351   2.393 -0.08 -0.00    +0.046    17.920
ATOM     30  C   UNL d   1       9.573  18.044  11.642 -0.19 +0.01    +0.046    17.920
ATOM     31  H   UNL d   1       9.211  18.260   5.610 -0.14 -0.06    +0.166    17.920
ATOM     32  H   UNL d   1      10.555  18.401   7.155 +0.00 -0.03    +0.166    17.920
ATOM     33  C   UNL d   1      12.350  13.911   9.463 -0.10 +0.02    +0.141    17.920
ATOM     34  C   UNL d   1      11.084  13.132   9.231 -0.15 +0.06    +0.306    17.920
ATOM     35  O   UNL d   1       9.951  13.507   9.481 -0.30 -0.06    -0.251    17.920
ATOM     36  O   UNL d   1      11.312  11.920   8.694 -0.06 -0.08    -0.481    17.920
ATOM     37  H   UNL d   1      11.883  12.099   7.917 +0.06 +0.04    +0.295    17.920
ATOM     38  C   UNL d   1       7.925  20.368  10.312 -0.24 -0.00    +0.017    17.920
ATOM     39  C   UNL d   1       6.794  20.870   9.793 -0.14 -0.02    +0.092    17.920
ATOM     40  C   UNL d   1       5.923  21.711  10.618 -0.09 -0.07    +0.330    17.920
ATOM     41  O   UNL d   1       5.053  21.350  11.388 -0.12 +0.07    -0.246    17.920
ATOM     42  O   UNL d   1       6.215  23.006  10.426 -0.01 +0.06    -0.477    17.920
ATOM     43  H   UNL d   1       6.496  23.047   9.489 +0.04 -0.03    +0.295    17.920
ATOM     44  C   UNL d   1      10.938  14.218   1.816 -0.32 -0.04    +0.141    17.920
ATOM     45  C   UNL d   1      11.868  15.302   1.341 -0.20 -0.14    +0.306    17.920
ATOM     46  O   UNL d   1      12.926  15.628   1.850 -0.12 +0.11    -0.251    17.920
ATOM     47  O   UNL d   1      11.398  15.944   0.255 -0.09 +0.35    -0.481    17.920
ATOM     48  H   UNL d   1      10.548  15.498   0.053 -0.33 -0.19    +0.295    17.920
ATOM     49  C   UNL d   1       8.103  22.761   5.259 -0.09 -0.00    +0.048    17.920
ATOM     50  C   UNL d   1       6.658  22.934   5.728 -0.08 -0.02    +0.125    17.920
ATOM     51  C   UNL d   1       6.595  23.113   7.218 -0.06 -0.03    +0.305    17.920
ATOM     52  O   UNL d   1       7.527  23.260   7.989 -0.10 +0.02    -0.251    17.920
ATOM     53  O   UNL d   1       5.328  23.083   7.677 -0.07 +0.07    -0.481    17.920
ATOM     54  H   UNL d   1       5.364  23.597   8.511 +0.04 -0.04    +0.295    17.920
TER
ENDMDL
MODEL       90
USER    Run = 90
USER    Cluster Rank = 45
USER    Number of conformations in this cluster = 1
USER  
USER    RMSD from reference structure       = 17.295 A
USER  
USER    Estimated Free Energy of Binding    =   -3.66 kcal/mol  [=(1)+(2)+(3)-(4)]
USER    Estimated Inhibition Constant, Ki   =    2.07 mM (millimolar)  [Temperature = 298.15 K]
USER    
USER    (1) Final Intermolecular Energy     =   -7.54 kcal/mol
USER        vdW + Hbond + desolv Energy     =   -7.46 kcal/mol
USER        Electrostatic Energy            =   -0.07 kcal/mol
USER    (2) Final Total Internal Energy     =   -4.08 kcal/mol
USER    (3) Torsional Free Energy           =   +3.88 kcal/mol
USER    (4) Unbound System's Energy  [=(2)] =   -4.08 kcal/mol
USER    
USER    
USER  
USER    DPF = D:/Protein_go_brrr/autodock/final/mut_Y35F/heme/dock.dpf
USER    NEWDPF move	heme_opt.pdbqt
USER    NEWDPF about	0.153000 0.018000 -0.028000
USER    NEWDPF tran0	7.605626 8.086627 -16.033739
USER    NEWDPF axisangle0	-0.109691 -0.107782 0.988105 146.837232
USER    NEWDPF quaternion0	-0.105130 -0.103300 0.947015 0.285377
USER    NEWDPF dihe0	173.23 -167.49 -165.55 40.77 -147.19 -65.27 135.88 80.35 18.61 -15.58 -49.48 12.73 27.14 
USER  
USER                              x       y       z    vdW   Elec        q     RMS 
ATOM      1  O   UNL d   1      13.037   9.454 -14.195 -0.16 +0.08    -0.289    17.295
ATOM      2  O   UNL d   1       7.268  13.822 -16.201 -0.02 +0.01    -0.289    17.295
ATOM      3  N   UNL d   1      10.046   8.184 -15.350 -0.11 +0.03    -0.247    17.295
ATOM      4  N   UNL d   1       8.326  10.595 -15.587 +0.02 +0.00    -0.247    17.295
ATOM      5  N   UNL d   1       6.064   8.842 -15.855 -0.08 +0.04    -0.354    17.295
ATOM      6  N   UNL d   1       7.853   6.346 -15.589 -0.03 +0.12    -0.354    17.295
ATOM      7  C   UNL d   1      12.094   7.210 -14.419 -0.34 -0.02    +0.084    17.295
ATOM      8  C   UNL d   1       9.447  12.737 -15.943 -0.05 -0.00    +0.084    17.295
ATOM      9  C   UNL d   1       9.544  11.234 -15.660 -0.09 -0.00    +0.058    17.295
ATOM     10  C   UNL d   1      10.685   7.011 -14.986 -0.28 -0.01    +0.058    17.295
ATOM     11  C   UNL d   1      12.145   8.703 -14.544 -0.17 -0.04    +0.193    17.295
ATOM     12  C   UNL d   1      10.856   9.171 -15.145 -0.13 -0.01    +0.109    17.295
ATOM     13  C   UNL d   1       7.948  12.839 -15.979 -0.06 -0.01    +0.193    17.295
ATOM     14  C   UNL d   1      12.175   6.835 -12.937 -0.64 -0.01    +0.026    17.295
ATOM     15  C   UNL d   1      10.712  10.609 -15.451 -0.11 -0.00    +0.055    17.295
ATOM     16  C   UNL d   1       9.999  13.091 -17.327 -0.02 -0.00    +0.026    17.295
ATOM     17  C   UNL d   1       7.389  11.474 -15.742 -0.10 -0.00    +0.109    17.295
ATOM     18  C   UNL d   1      10.175   5.781 -15.185 -0.37 -0.01    +0.050    17.295
ATOM     19  C   UNL d   1       8.920   5.497 -15.781 -0.21 -0.01    +0.045    17.295
ATOM     20  C   UNL d   1       5.416  10.042 -15.715 -0.18 -0.00    +0.045    17.295
ATOM     21  C   UNL d   1       5.934  11.274 -15.680 -0.18 -0.00    +0.057    17.295
ATOM     22  C   UNL d   1       3.869   8.361 -15.689 -0.23 +0.00    -0.019    17.295
ATOM     23  C   UNL d   1       5.213   7.769 -15.850 -0.26 -0.01    +0.045    17.295
ATOM     24  C   UNL d   1       3.997   9.707 -15.611 -0.24 +0.00    -0.022    17.295
ATOM     25  C   UNL d   1       6.718   5.835 -16.176 -0.25 -0.01    +0.049    17.295
ATOM     26  C   UNL d   1       8.477   4.427 -16.542 -0.21 +0.00    -0.018    17.295
ATOM     27  C   UNL d   1       7.091   4.656 -16.806 -0.20 -0.00    +0.003    17.295
ATOM     28  C   UNL d   1       5.454   6.455 -15.980 -0.32 -0.01    +0.052    17.295
ATOM     29  C   UNL d   1       2.930  10.737 -15.457 -0.20 -0.00    +0.046    17.295
ATOM     30  C   UNL d   1       9.289   3.264 -17.001 -0.19 -0.00    +0.046    17.295
ATOM     31  H   UNL d   1       7.063   8.800 -16.024 +0.04 -0.02    +0.166    17.295
ATOM     32  H   UNL d   1       7.908   7.202 -15.051 -0.25 -0.06    +0.166    17.295
ATOM     33  C   UNL d   1      13.225   6.564 -15.225 -0.20 -0.03    +0.141    17.295
ATOM     34  C   UNL d   1      13.402   7.193 -16.581 -0.16 -0.06    +0.306    17.295
ATOM     35  O   UNL d   1      12.887   6.820 -17.621 -0.10 +0.03    -0.251    17.295
ATOM     36  O   UNL d   1      14.218   8.261 -16.553 -0.05 +0.15    -0.481    17.295
ATOM     37  H   UNL d   1      14.366   8.435 -15.599 -0.40 -0.18    +0.295    17.295
ATOM     38  C   UNL d   1       6.237   3.781 -17.551 -0.12 -0.00    +0.017    17.295
ATOM     39  C   UNL d   1       5.428   4.157 -18.554 -0.04 -0.01    +0.092    17.295
ATOM     40  C   UNL d   1       4.615   3.156 -19.250 -0.01 -0.01    +0.330    17.295
ATOM     41  O   UNL d   1       5.001   2.252 -19.966 -0.00 +0.01    -0.246    17.295
ATOM     42  O   UNL d   1       3.314   3.355 -18.988 +0.00 +0.02    -0.477    17.295
ATOM     43  H   UNL d   1       3.292   4.239 -18.568 +0.02 -0.01    +0.295    17.295
ATOM     44  C   UNL d   1      10.033  13.652 -14.862 -0.05 -0.01    +0.141    17.295
ATOM     45  C   UNL d   1       9.291  13.578 -13.554 -0.09 -0.01    +0.306    17.295
ATOM     46  O   UNL d   1       9.539  12.838 -12.618 -0.14 +0.00    -0.251    17.295
ATOM     47  O   UNL d   1       8.248  14.427 -13.505 -0.03 +0.00    -0.481    17.295
ATOM     48  H   UNL d   1       8.120  14.716 -14.434 +0.05 -0.01    +0.295    17.295
ATOM     49  C   UNL d   1       2.601   7.563 -15.613 -0.22 -0.01    +0.048    17.295
ATOM     50  C   UNL d   1       2.421   6.662 -16.834 -0.12 -0.01    +0.125    17.295
ATOM     51  C   UNL d   1       2.073   5.260 -16.420 -0.11 -0.02    +0.305    17.295
ATOM     52  O   UNL d   1       1.008   4.856 -15.988 -0.10 +0.01    -0.251    17.295
ATOM     53  O   UNL d   1       3.116   4.418 -16.563 -0.07 +0.03    -0.481    17.295
ATOM     54  H   UNL d   1       2.713   3.598 -16.917 +0.05 -0.01    +0.295    17.295
TER
ENDMDL
MODEL       72
USER    Run = 72
USER    Cluster Rank = 46
USER    Number of conformations in this cluster = 1
USER  
USER    RMSD from reference structure       = 16.933 A
USER  
USER    Estimated Free Energy of Binding    =   -3.61 kcal/mol  [=(1)+(2)+(3)-(4)]
USER    Estimated Inhibition Constant, Ki   =    2.24 mM (millimolar)  [Temperature = 298.15 K]
USER    
USER    (1) Final Intermolecular Energy     =   -7.49 kcal/mol
USER        vdW + Hbond + desolv Energy     =   -7.41 kcal/mol
USER        Electrostatic Energy            =   -0.08 kcal/mol
USER    (2) Final Total Internal Energy     =   -2.71 kcal/mol
USER    (3) Torsional Free Energy           =   +3.88 kcal/mol
USER    (4) Unbound System's Energy  [=(2)] =   -2.71 kcal/mol
USER    
USER    
USER  
USER    DPF = D:/Protein_go_brrr/autodock/final/mut_Y35F/heme/dock.dpf
USER    NEWDPF move	heme_opt.pdbqt
USER    NEWDPF about	0.153000 0.018000 -0.028000
USER    NEWDPF tran0	7.601728 8.663135 -15.499950
USER    NEWDPF axisangle0	0.950385 0.272331 0.150348 -168.669847
USER    NEWDPF quaternion0	0.945743 0.271001 0.149613 -0.098713
USER    NEWDPF dihe0	-99.35 58.23 -168.04 -127.41 37.22 148.18 138.43 -31.56 127.47 -11.13 135.18 -48.72 24.20 
USER  
USER                              x       y       z    vdW   Elec        q     RMS 
ATOM      1  O   UNL d   1       4.100   4.145 -16.942 -0.09 +0.02    -0.289    16.933
ATOM      2  O   UNL d   1       2.582  11.429 -15.930 -0.06 +0.01    -0.289    16.933
ATOM      3  N   UNL d   1       6.487   6.431 -15.956 -0.20 +0.06    -0.247    16.933
ATOM      4  N   UNL d   1       5.054   9.029 -16.121 -0.13 +0.03    -0.247    16.933
ATOM      5  N   UNL d   1       7.601  10.343 -15.897 +0.04 +0.01    -0.354    16.933
ATOM      6  N   UNL d   1       9.082   7.643 -15.746 -0.09 +0.06    -0.354    16.933
ATOM      7  C   UNL d   1       6.517   4.063 -16.589 -0.20 -0.01    +0.084    16.933
ATOM      8  C   UNL d   1       2.623   8.982 -15.873 -0.17 -0.01    +0.084    16.933
ATOM      9  C   UNL d   1       3.946   8.220 -15.996 -0.20 -0.01    +0.058    16.933
ATOM     10  C   UNL d   1       7.282   5.313 -16.141 -0.22 -0.01    +0.058    16.933
ATOM     11  C   UNL d   1       5.146   4.669 -16.606 -0.17 -0.02    +0.193    16.933
ATOM     12  C   UNL d   1       5.257   6.100 -16.179 -0.24 -0.02    +0.109    16.933
ATOM     13  C   UNL d   1       3.181  10.373 -15.989 -0.10 -0.01    +0.193    16.933
ATOM     14  C   UNL d   1       6.890   3.641 -18.012 -0.09 -0.00    +0.026    16.933
ATOM     15  C   UNL d   1       4.011   6.880 -16.031 -0.24 -0.01    +0.055    16.933
ATOM     16  C   UNL d   1       1.999   8.816 -14.484 -0.37 -0.01    +0.026    16.933
ATOM     17  C   UNL d   1       4.663  10.263 -16.142 -0.13 -0.01    +0.109    16.933
ATOM     18  C   UNL d   1       8.600   5.271 -15.870 -0.22 -0.01    +0.050    16.933
ATOM     19  C   UNL d   1       9.372   6.351 -15.372 -0.23 -0.01    +0.045    16.933
ATOM     20  C   UNL d   1       6.810  11.416 -16.215 -0.11 -0.00    +0.045    16.933
ATOM     21  C   UNL d   1       5.478  11.473 -16.322 -0.12 -0.00    +0.057    16.933
ATOM     22  C   UNL d   1       8.995  12.083 -16.222 -0.07 +0.00    -0.019    16.933
ATOM     23  C   UNL d   1       8.936  10.648 -15.877 -0.06 -0.00    +0.045    16.933
ATOM     24  C   UNL d   1       7.733  12.532 -16.420 -0.07 +0.00    -0.022    16.933
ATOM     25  C   UNL d   1      10.006   8.518 -15.222 -0.13 -0.01    +0.049    16.933
ATOM     26  C   UNL d   1      10.491   6.390 -14.554 -0.40 +0.00    -0.018    16.933
ATOM     27  C   UNL d   1      10.875   7.762 -14.447 -0.32 -0.00    +0.003    16.933
ATOM     28  C   UNL d   1      10.006   9.889 -15.596 -0.13 -0.00    +0.052    16.933
ATOM     29  C   UNL d   1       7.276  13.906 -16.774 -0.03 -0.00    +0.046    16.933
ATOM     30  C   UNL d   1      11.163   5.226 -13.908 -0.44 -0.00    +0.046    16.933
ATOM     31  H   UNL d   1       7.197   9.452 -15.631 +0.05 -0.01    +0.166    16.933
ATOM     32  H   UNL d   1       8.313   7.890 -16.358 +0.04 -0.02    +0.166    16.933
ATOM     33  C   UNL d   1       6.569   2.878 -15.619 -0.21 -0.01    +0.141    16.933
ATOM     34  C   UNL d   1       5.705   1.729 -16.062 -0.12 -0.00    +0.306    16.933
ATOM     35  O   UNL d   1       6.056   0.789 -16.756 -0.05 -0.00    -0.251    16.933
ATOM     36  O   UNL d   1       4.444   1.822 -15.606 -0.06 -0.01    -0.481    16.933
ATOM     37  H   UNL d   1       4.017   2.482 -16.194 +0.06 -0.00    +0.295    16.933
ATOM     38  C   UNL d   1      11.997   8.250 -13.703 -0.42 -0.00    +0.017    16.933
ATOM     39  C   UNL d   1      12.496   9.493 -13.780 -0.29 -0.02    +0.092    16.933
ATOM     40  C   UNL d   1      13.642   9.872 -12.949 -0.21 -0.11    +0.330    16.933
ATOM     41  O   UNL d   1      14.542  10.641 -13.229 -0.20 +0.06    -0.246    16.933
ATOM     42  O   UNL d   1      13.581   9.244 -11.765 -0.33 +0.27    -0.477    16.933
ATOM     43  H   UNL d   1      13.572   9.974 -11.112 -0.42 -0.22    +0.295    16.933
ATOM     44  C   UNL d   1       1.598   8.709 -16.978 -0.06 -0.01    +0.141    16.933
ATOM     45  C   UNL d   1       2.091   9.078 -18.352 -0.01 -0.02    +0.306    16.933
ATOM     46  O   UNL d   1       2.627   8.334 -19.155 -0.00 +0.01    -0.251    16.933
ATOM     47  O   UNL d   1       1.908  10.380 -18.632 +0.00 +0.02    -0.481    16.933
ATOM     48  H   UNL d   1       1.656  10.785 -17.774 +0.02 -0.01    +0.295    16.933
ATOM     49  C   UNL d   1      10.267  12.869 -16.339 -0.04 -0.00    +0.048    16.933
ATOM     50  C   UNL d   1      11.063  12.863 -15.034 -0.05 -0.01    +0.125    16.933
ATOM     51  C   UNL d   1      10.161  13.091 -13.855 -0.07 -0.01    +0.305    16.933
ATOM     52  O   UNL d   1       9.198  13.835 -13.788 -0.08 +0.01    -0.251    16.933
ATOM     53  O   UNL d   1      10.533  12.359 -12.786 -0.06 +0.03    -0.481    16.933
ATOM     54  H   UNL d   1      11.485  12.568 -12.675 +0.08 -0.04    +0.295    16.933
TER
ENDMDL
MODEL       36
USER    Run = 36
USER    Cluster Rank = 47
USER    Number of conformations in this cluster = 1
USER  
USER    RMSD from reference structure       = 19.827 A
USER  
USER    Estimated Free Energy of Binding    =   -3.54 kcal/mol  [=(1)+(2)+(3)-(4)]
USER    Estimated Inhibition Constant, Ki   =    2.56 mM (millimolar)  [Temperature = 298.15 K]
USER    
USER    (1) Final Intermolecular Energy     =   -7.41 kcal/mol
USER        vdW + Hbond + desolv Energy     =   -7.36 kcal/mol
USER        Electrostatic Energy            =   -0.05 kcal/mol
USER    (2) Final Total Internal Energy     =   -4.72 kcal/mol
USER    (3) Torsional Free Energy           =   +3.88 kcal/mol
USER    (4) Unbound System's Energy  [=(2)] =   -4.72 kcal/mol
USER    
USER    
USER  
USER    DPF = D:/Protein_go_brrr/autodock/final/mut_Y35F/heme/dock.dpf
USER    NEWDPF move	heme_opt.pdbqt
USER    NEWDPF about	0.153000 0.018000 -0.028000
USER    NEWDPF tran0	14.369033 8.974251 -15.803882
USER    NEWDPF axisangle0	0.029153 -0.635171 0.771821 130.376032
USER    NEWDPF quaternion0	0.026462 -0.576538 0.700574 0.419642
USER    NEWDPF dihe0	139.19 148.71 -121.05 -81.34 -136.49 111.22 131.78 -14.22 18.64 -10.68 -71.67 -128.33 16.80 
USER  
USER                              x       y       z    vdW   Elec        q     RMS 
ATOM      1  O   UNL d   1      19.275  11.964 -14.482 -0.05 +0.04    -0.289    19.827
ATOM      2  O   UNL d   1      12.562  11.776 -11.122 -0.15 +0.11    -0.289    19.827
ATOM      3  N   UNL d   1      16.620  10.140 -15.714 -0.09 +0.07    -0.247    19.827
ATOM      4  N   UNL d   1      14.552  10.432 -13.601 -0.14 +0.07    -0.247    19.827
ATOM      5  N   UNL d   1      13.101   8.290 -14.854 -0.10 +0.11    -0.354    19.827
ATOM      6  N   UNL d   1      15.261   7.980 -17.031 -0.06 +0.11    -0.354    19.827
ATOM      7  C   UNL d   1      18.986  10.369 -16.312 -0.10 -0.01    +0.084    19.827
ATOM      8  C   UNL d   1      14.661  12.431 -12.199 -0.10 -0.02    +0.084    19.827
ATOM      9  C   UNL d   1      15.281  11.560 -13.296 -0.15 -0.01    +0.058    19.827
ATOM     10  C   UNL d   1      17.621   9.726 -16.576 -0.15 -0.01    +0.058    19.827
ATOM     11  C   UNL d   1      18.574  11.234 -15.159 -0.05 -0.02    +0.193    19.827
ATOM     12  C   UNL d   1      17.112  11.025 -14.910 -0.06 -0.02    +0.109    19.827
ATOM     13  C   UNL d   1      13.463  11.569 -11.911 -0.15 -0.06    +0.193    19.827
ATOM     14  C   UNL d   1      20.017   9.349 -15.822 -0.14 -0.00    +0.026    19.827
ATOM     15  C   UNL d   1      16.459  11.847 -13.872 -0.13 -0.01    +0.055    19.827
ATOM     16  C   UNL d   1      14.178  13.777 -12.747 -0.04 -0.00    +0.026    19.827
ATOM     17  C   UNL d   1      13.519  10.386 -12.822 -0.26 -0.03    +0.109    19.827
ATOM     18  C   UNL d   1      17.423   8.902 -17.623 -0.14 -0.01    +0.050    19.827
ATOM     19  C   UNL d   1      16.181   8.328 -17.994 -0.12 -0.01    +0.045    19.827
ATOM     20  C   UNL d   1      12.383   8.412 -13.693 -0.35 -0.01    +0.045    19.827
ATOM     21  C   UNL d   1      12.490   9.340 -12.736 -0.29 -0.01    +0.057    19.827
ATOM     22  C   UNL d   1      11.636   6.578 -14.832 -0.36 +0.00    -0.019    19.827
ATOM     23  C   UNL d   1      12.721   7.211 -15.608 -0.26 -0.01    +0.045    19.827
ATOM     24  C   UNL d   1      11.440   7.295 -13.700 -0.44 +0.00    -0.022    19.827
ATOM     25  C   UNL d   1      14.173   7.362 -17.603 -0.16 -0.01    +0.049    19.827
ATOM     26  C   UNL d   1      15.662   7.961 -19.226 -0.05 +0.00    -0.018    19.827
ATOM     27  C   UNL d   1      14.385   7.369 -18.975 -0.07 -0.00    +0.003    19.827
ATOM     28  C   UNL d   1      13.162   6.772 -16.797 -0.24 -0.01    +0.052    19.827
ATOM     29  C   UNL d   1      10.452   7.061 -12.608 -0.49 -0.01    +0.046    19.827
ATOM     30  C   UNL d   1      16.309   8.149 -20.557 -0.02 -0.00    +0.046    19.827
ATOM     31  H   UNL d   1      13.778   8.992 -15.130 -0.18 -0.07    +0.166    19.827
ATOM     32  H   UNL d   1      15.404   8.129 -16.040 -0.51 -0.13    +0.166    19.827
ATOM     33  C   UNL d   1      19.541  11.225 -17.455 -0.02 -0.02    +0.141    19.827
ATOM     34  C   UNL d   1      18.720  12.461 -17.704 -0.00 -0.03    +0.306    19.827
ATOM     35  O   UNL d   1      17.696  12.525 -18.363 -0.00 +0.02    -0.251    19.827
ATOM     36  O   UNL d   1      19.232  13.553 -17.108 +0.00 +0.04    -0.481    19.827
ATOM     37  H   UNL d   1      19.491  13.246 -16.213 +0.01 -0.03    +0.295    19.827
ATOM     38  C   UNL d   1      13.512   6.835 -19.976 -0.04 -0.00    +0.017    19.827
ATOM     39  C   UNL d   1      13.537   5.574 -20.433 -0.04 -0.01    +0.092    19.827
ATOM     40  C   UNL d   1      12.573   5.147 -21.451 -0.01 -0.02    +0.330    19.827
ATOM     41  O   UNL d   1      12.791   4.888 -22.619 -0.00 +0.02    -0.246    19.827
ATOM     42  O   UNL d   1      11.345   5.059 -20.916 -0.00 +0.03    -0.477    19.827
ATOM     43  H   UNL d   1      11.512   4.802 -19.986 +0.03 -0.02    +0.295    19.827
ATOM     44  C   UNL d   1      15.517  12.618 -10.942 -0.11 -0.03    +0.141    19.827
ATOM     45  C   UNL d   1      15.834  11.325 -10.241 -0.21 -0.09    +0.306    19.827
ATOM     46  O   UNL d   1      16.778  10.587 -10.468 -0.26 +0.07    -0.251    19.827
ATOM     47  O   UNL d   1      14.924  11.011  -9.301 -0.12 +0.23    -0.481    19.827
ATOM     48  H   UNL d   1      14.072  10.969  -9.785 -0.39 -0.24    +0.295    19.827
ATOM     49  C   UNL d   1      10.909   5.336 -15.257 -0.25 -0.00    +0.048    19.827
ATOM     50  C   UNL d   1      10.072   5.570 -16.514 -0.20 -0.01    +0.125    19.827
ATOM     51  C   UNL d   1      10.672   4.867 -17.698 -0.08 -0.02    +0.305    19.827
ATOM     52  O   UNL d   1      11.821   4.483 -17.830 -0.07 +0.01    -0.251    19.827
ATOM     53  O   UNL d   1       9.774   4.687 -18.687 -0.01 +0.03    -0.481    19.827
ATOM     54  H   UNL d   1       9.953   5.424 -19.308 +0.03 -0.02    +0.295    19.827
TER
ENDMDL
MODEL       18
USER    Run = 18
USER    Cluster Rank = 48
USER    Number of conformations in this cluster = 2
USER  
USER    RMSD from reference structure       = 14.767 A
USER  
USER    Estimated Free Energy of Binding    =   -3.44 kcal/mol  [=(1)+(2)+(3)-(4)]
USER    Estimated Inhibition Constant, Ki   =    3.03 mM (millimolar)  [Temperature = 298.15 K]
USER    
USER    (1) Final Intermolecular Energy     =   -7.31 kcal/mol
USER        vdW + Hbond + desolv Energy     =   -7.18 kcal/mol
USER        Electrostatic Energy            =   -0.14 kcal/mol
USER    (2) Final Total Internal Energy     =   -4.54 kcal/mol
USER    (3) Torsional Free Energy           =   +3.88 kcal/mol
USER    (4) Unbound System's Energy  [=(2)] =   -4.54 kcal/mol
USER    
USER    
USER  
USER    DPF = D:/Protein_go_brrr/autodock/final/mut_Y35F/heme/dock.dpf
USER    NEWDPF move	heme_opt.pdbqt
USER    NEWDPF about	0.153000 0.018000 -0.028000
USER    NEWDPF tran0	-5.728256 -9.389406 -13.271117
USER    NEWDPF axisangle0	0.012805 -0.085897 0.996222 -111.461096
USER    NEWDPF quaternion0	0.010582 -0.070985 0.823276 -0.563086
USER    NEWDPF dihe0	-113.68 -168.01 103.99 -64.22 29.12 100.34 -58.62 -105.48 127.09 -128.20 -101.82 -102.73 -0.46 
USER  
USER                              x       y       z    vdW   Elec        q     RMS 
ATOM      1  O   UNL d   1      -5.286 -15.268 -13.353 -0.19 -0.04    -0.289    14.767
ATOM      2  O   UNL d   1      -0.158  -9.921 -14.584 -0.19 -0.01    -0.289    14.767
ATOM      3  N   UNL d   1      -6.050 -11.905 -13.329 -0.08 +0.02    -0.247    14.767
ATOM      4  N   UNL d   1      -3.395 -10.598 -13.599 -0.10 +0.01    -0.247    14.767
ATOM      5  N   UNL d   1      -4.640  -8.120 -12.841 -0.04 +0.01    -0.354    14.767
ATOM      6  N   UNL d   1      -7.387  -9.487 -12.544 -0.06 +0.05    -0.354    14.767
ATOM      7  C   UNL d   1      -7.279 -13.961 -12.812 -0.27 -0.00    +0.084    14.767
ATOM      8  C   UNL d   1      -1.630 -11.873 -14.710 -0.10 -0.00    +0.084    14.767
ATOM      9  C   UNL d   1      -3.053 -11.816 -14.144 -0.14 -0.00    +0.058    14.767
ATOM     10  C   UNL d   1      -7.260 -12.433 -12.909 -0.21 -0.01    +0.058    14.767
ATOM     11  C   UNL d   1      -5.873 -14.204 -13.269 -0.17 +0.00    +0.193    14.767
ATOM     12  C   UNL d   1      -5.241 -12.882 -13.577 -0.16 -0.00    +0.109    14.767
ATOM     13  C   UNL d   1      -1.215 -10.474 -14.351 -0.12 -0.00    +0.193    14.767
ATOM     14  C   UNL d   1      -7.421 -14.444 -11.366 -0.51 -0.00    +0.026    14.767
ATOM     15  C   UNL d   1      -3.874 -12.878 -14.136 -0.18 +0.00    +0.055    14.767
ATOM     16  C   UNL d   1      -1.630 -12.010 -16.235 -0.03 +0.00    +0.026    14.767
ATOM     17  C   UNL d   1      -2.372  -9.810 -13.677 -0.17 -0.00    +0.109    14.767
ATOM     18  C   UNL d   1      -8.367 -11.700 -12.687 -0.26 -0.00    +0.050    14.767
ATOM     19  C   UNL d   1      -8.465 -10.293 -12.834 -0.19 -0.00    +0.045    14.767
ATOM     20  C   UNL d   1      -3.323  -7.746 -12.792 -0.08 +0.00    +0.045    14.767
ATOM     21  C   UNL d   1      -2.241  -8.435 -13.171 -0.24 -0.00    +0.057    14.767
ATOM     22  C   UNL d   1      -4.604  -6.042 -11.973 -0.24 +0.00    -0.019    14.767
ATOM     23  C   UNL d   1      -5.490  -7.156 -12.367 -0.18 -0.00    +0.045    14.767
ATOM     24  C   UNL d   1      -3.323  -6.397 -12.229 -0.23 -0.00    -0.022    14.767
ATOM     25  C   UNL d   1      -7.729  -8.160 -12.668 -0.13 -0.01    +0.049    14.767
ATOM     26  C   UNL d   1      -9.522  -9.471 -13.191 -0.17 +0.00    -0.018    14.767
ATOM     27  C   UNL d   1      -9.046  -8.126 -13.103 -0.14 -0.00    +0.003    14.767
ATOM     28  C   UNL d   1      -6.828  -7.135 -12.269 -0.18 -0.01    +0.052    14.767
ATOM     29  C   UNL d   1      -2.076  -5.608 -12.014 -0.15 +0.00    +0.046    14.767
ATOM     30  C   UNL d   1     -10.892  -9.905 -13.592 -0.12 +0.00    +0.046    14.767
ATOM     31  H   UNL d   1      -4.923  -8.996 -13.267 +0.05 -0.01    +0.166    14.767
ATOM     32  H   UNL d   1      -6.487  -9.842 -12.242 +0.08 -0.02    +0.166    14.767
ATOM     33  C   UNL d   1      -8.276 -14.666 -13.740 -0.15 +0.01    +0.141    14.767
ATOM     34  C   UNL d   1      -8.156 -16.165 -13.687 -0.13 +0.06    +0.306    14.767
ATOM     35  O   UNL d   1      -8.670 -16.899 -12.860 -0.19 -0.04    -0.251    14.767
ATOM     36  O   UNL d   1      -7.397 -16.660 -14.680 -0.09 -0.16    -0.481    14.767
ATOM     37  H   UNL d   1      -6.504 -16.290 -14.516 +0.07 +0.10    +0.295    14.767
ATOM     38  C   UNL d   1      -9.825  -6.955 -13.374 -0.13 -0.00    +0.017    14.767
ATOM     39  C   UNL d   1     -10.174  -6.030 -12.466 -0.11 -0.01    +0.092    14.767
ATOM     40  C   UNL d   1     -10.961  -4.865 -12.878 -0.06 -0.00    +0.330    14.767
ATOM     41  O   UNL d   1     -12.163  -4.706 -12.775 -0.03 -0.00    -0.246    14.767
ATOM     42  O   UNL d   1     -10.158  -3.928 -13.405 -0.02 -0.01    -0.477    14.767
ATOM     43  H   UNL d   1      -9.306  -4.393 -13.531 +0.02 +0.01    +0.295    14.767
ATOM     44  C   UNL d   1      -0.702 -12.904 -14.060 -0.19 -0.01    +0.141    14.767
ATOM     45  C   UNL d   1       0.696 -12.881 -14.618 -0.10 -0.01    +0.306    14.767
ATOM     46  O   UNL d   1       1.174 -13.672 -15.413 -0.03 +0.01    -0.251    14.767
ATOM     47  O   UNL d   1       1.432 -11.870 -14.121 -0.35 -0.00    -0.481    14.767
ATOM     48  H   UNL d   1       1.115 -11.075 -14.599 +0.07 +0.04    +0.295    14.767
ATOM     49  C   UNL d   1      -5.087  -4.753 -11.376 -0.31 +0.00    +0.048    14.767
ATOM     50  C   UNL d   1      -5.532  -3.760 -12.450 -0.13 +0.00    +0.125    14.767
ATOM     51  C   UNL d   1      -6.906  -4.097 -12.956 -0.06 +0.02    +0.305    14.767
ATOM     52  O   UNL d   1      -7.211  -4.508 -14.062 -0.03 -0.00    -0.251    14.767
ATOM     53  O   UNL d   1      -7.854  -3.882 -12.021 -0.40 -0.11    -0.481    14.767
ATOM     54  H   UNL d   1      -8.402  -3.162 -12.399 +0.03 +0.03    +0.295    14.767
TER
ENDMDL
MODEL        1
USER    Run = 1
USER    Cluster Rank = 49
USER    Number of conformations in this cluster = 1
USER  
USER    RMSD from reference structure       = 16.141 A
USER  
USER    Estimated Free Energy of Binding    =   -3.42 kcal/mol  [=(1)+(2)+(3)-(4)]
USER    Estimated Inhibition Constant, Ki   =    3.12 mM (millimolar)  [Temperature = 298.15 K]
USER    
USER    (1) Final Intermolecular Energy     =   -7.30 kcal/mol
USER        vdW + Hbond + desolv Energy     =   -6.54 kcal/mol
USER        Electrostatic Energy            =   -0.76 kcal/mol
USER    (2) Final Total Internal Energy     =   -3.44 kcal/mol
USER    (3) Torsional Free Energy           =   +3.88 kcal/mol
USER    (4) Unbound System's Energy  [=(2)] =   -3.44 kcal/mol
USER    
USER    
USER  
USER    DPF = D:/Protein_go_brrr/autodock/final/mut_Y35F/heme/dock.dpf
USER    NEWDPF move	heme_opt.pdbqt
USER    NEWDPF about	0.153000 0.018000 -0.028000
USER    NEWDPF tran0	-18.685920 2.628921 5.804206
USER    NEWDPF axisangle0	0.789853 -0.515244 -0.332651 156.270807
USER    NEWDPF quaternion0	0.772978 -0.504236 -0.325545 0.205600
USER    NEWDPF dihe0	-99.59 -112.49 -103.97 93.67 35.51 -31.02 160.74 19.07 129.79 -100.39 124.03 -3.64 36.83 
USER  
USER                              x       y       z    vdW   Elec        q     RMS 
ATOM      1  O   UNL d   1     -21.989   5.983   9.353 +0.00 -0.02    -0.289    16.141
ATOM      2  O   UNL d   1     -14.535   5.296   8.752 -0.24 -0.56    -0.289    16.141
ATOM      3  N   UNL d   1     -20.486   3.757   7.190 -0.06 -0.04    -0.247    16.141
ATOM      4  N   UNL d   1     -17.598   4.412   7.432 -0.09 -0.11    -0.247    16.141
ATOM      5  N   UNL d   1     -17.138   2.839   5.070 -0.08 -0.09    -0.354    16.141
ATOM      6  N   UNL d   1     -20.138   2.180   4.815 -0.05 -0.04    -0.354    16.141
ATOM      7  C   UNL d   1     -22.793   4.474   7.606 -0.00 +0.01    +0.084    16.141
ATOM      8  C   UNL d   1     -16.853   5.420   9.530 -0.09 +0.06    +0.084    16.141
ATOM      9  C   UNL d   1     -18.002   4.923   8.645 -0.08 +0.03    +0.058    16.141
ATOM     10  C   UNL d   1     -21.811   3.606   6.814 -0.04 +0.00    +0.058    16.141
ATOM     11  C   UNL d   1     -21.791   5.129   8.509 -0.00 +0.02    +0.193    16.141
ATOM     12  C   UNL d   1     -20.433   4.592   8.176 -0.04 +0.02    +0.109    16.141
ATOM     13  C   UNL d   1     -15.727   5.130   8.578 -0.09 +0.23    +0.193    16.141
ATOM     14  C   UNL d   1     -23.446   5.547   6.732 -0.00 +0.00    +0.026    16.141
ATOM     15  C   UNL d   1     -19.291   5.027   9.004 -0.05 +0.01    +0.055    16.141
ATOM     16  C   UNL d   1     -16.679   4.549  10.778 -0.18 +0.02    +0.026    16.141
ATOM     17  C   UNL d   1     -16.312   4.529   7.342 -0.15 +0.08    +0.109    16.141
ATOM     18  C   UNL d   1     -22.239   2.716   5.899 -0.04 +0.00    +0.050    16.141
ATOM     19  C   UNL d   1     -21.414   1.814   5.180 -0.08 +0.00    +0.045    16.141
ATOM     20  C   UNL d   1     -15.906   3.425   5.207 -0.15 +0.02    +0.045    16.141
ATOM     21  C   UNL d   1     -15.444   4.179   6.208 -0.16 +0.04    +0.057    16.141
ATOM     22  C   UNL d   1     -15.965   2.283   3.229 -0.14 -0.00    -0.019    16.141
ATOM     23  C   UNL d   1     -17.268   2.128   3.907 -0.14 +0.01    +0.045    16.141
ATOM     24  C   UNL d   1     -15.163   3.050   4.004 -0.16 -0.01    -0.022    16.141
ATOM     25  C   UNL d   1     -19.553   1.196   4.052 -0.09 +0.01    +0.049    16.141
ATOM     26  C   UNL d   1     -21.651   0.546   4.673 -0.09 -0.00    -0.018    16.141
ATOM     27  C   UNL d   1     -20.465   0.153   3.978 -0.12 +0.00    +0.003    16.141
ATOM     28  C   UNL d   1     -18.295   1.410   3.426 -0.14 +0.01    +0.052    16.141
ATOM     29  C   UNL d   1     -13.756   3.476   3.756 -0.26 +0.02    +0.046    16.141
ATOM     30  C   UNL d   1     -22.899  -0.255   4.825 -0.05 +0.00    +0.046    16.141
ATOM     31  H   UNL d   1     -17.827   2.882   5.813 +0.03 +0.04    +0.166    16.141
ATOM     32  H   UNL d   1     -19.722   3.073   5.051 +0.02 +0.02    +0.166    16.141
ATOM     33  C   UNL d   1     -23.835   3.706   8.426 -0.00 +0.01    +0.141    16.141
ATOM     34  C   UNL d   1     -24.727   4.615   9.227 +0.00 +0.01    +0.306    16.141
ATOM     35  O   UNL d   1     -25.781   5.102   8.853 +0.00 -0.01    -0.251    16.141
ATOM     36  O   UNL d   1     -24.246   4.862  10.458 +0.00 -0.02    -0.481    16.141
ATOM     37  H   UNL d   1     -23.541   5.529  10.318 +0.00 +0.01    +0.295    16.141
ATOM     38  C   UNL d   1     -20.287  -1.089   3.288 -0.15 +0.00    +0.017    16.141
ATOM     39  C   UNL d   1     -19.127  -1.756   3.182 -0.07 +0.02    +0.092    16.141
ATOM     40  C   UNL d   1     -19.082  -3.031   2.461 -0.15 +0.14    +0.330    16.141
ATOM     41  O   UNL d   1     -19.955  -3.875   2.386 -0.15 -0.09    -0.246    16.141
ATOM     42  O   UNL d   1     -17.898  -3.170   1.843 -0.20 -0.44    -0.477    16.141
ATOM     43  H   UNL d   1     -17.259  -3.263   2.580 -0.44 +0.09    +0.295    16.141
ATOM     44  C   UNL d   1     -16.895   6.908   9.893 -0.03 +0.08    +0.141    16.141
ATOM     45  C   UNL d   1     -15.530   7.508  10.101 -0.04 +0.34    +0.306    16.141
ATOM     46  O   UNL d   1     -15.018   8.394   9.440 -0.25 -0.35    -0.251    16.141
ATOM     47  O   UNL d   1     -14.866   6.936  11.122 -0.12 -0.71    -0.481    16.141
ATOM     48  H   UNL d   1     -14.574   6.067  10.772 +0.06 +0.44    +0.295    16.141
ATOM     49  C   UNL d   1     -15.634   1.685   1.893 -0.13 +0.01    +0.048    16.141
ATOM     50  C   UNL d   1     -16.057   0.218   1.806 -0.21 +0.03    +0.125    16.141
ATOM     51  C   UNL d   1     -15.453  -0.581   2.926 -0.30 +0.11    +0.305    16.141
ATOM     52  O   UNL d   1     -14.903  -0.159   3.928 -0.91 -0.13    -0.251    16.141
ATOM     53  O   UNL d   1     -15.566  -1.908   2.717 -0.31 -0.16    -0.481    16.141
ATOM     54  H   UNL d   1     -16.447  -2.133   3.083 -0.31 +0.07    +0.295    16.141
TER
ENDMDL
MODEL       63
USER    Run = 63
USER    Cluster Rank = 50
USER    Number of conformations in this cluster = 2
USER  
USER    RMSD from reference structure       = 13.732 A
USER  
USER    Estimated Free Energy of Binding    =   -3.41 kcal/mol  [=(1)+(2)+(3)-(4)]
USER    Estimated Inhibition Constant, Ki   =    3.15 mM (millimolar)  [Temperature = 298.15 K]
USER    
USER    (1) Final Intermolecular Energy     =   -7.29 kcal/mol
USER        vdW + Hbond + desolv Energy     =   -7.19 kcal/mol
USER        Electrostatic Energy            =   -0.10 kcal/mol
USER    (2) Final Total Internal Energy     =   -4.62 kcal/mol
USER    (3) Torsional Free Energy           =   +3.88 kcal/mol
USER    (4) Unbound System's Energy  [=(2)] =   -4.62 kcal/mol
USER    
USER    
USER  
USER    DPF = D:/Protein_go_brrr/autodock/final/mut_Y35F/heme/dock.dpf
USER    NEWDPF move	heme_opt.pdbqt
USER    NEWDPF about	0.153000 0.018000 -0.028000
USER    NEWDPF tran0	0.784197 3.524108 -14.251588
USER    NEWDPF axisangle0	-0.820730 -0.511369 0.254761 -179.175652
USER    NEWDPF quaternion0	-0.820709 -0.511356 0.254755 -0.007194
USER    NEWDPF dihe0	162.09 170.84 -87.86 22.30 -149.21 -75.78 123.43 87.08 7.13 -39.49 -93.55 35.23 -5.72 
USER  
USER                              x       y       z    vdW   Elec        q     RMS 
ATOM      1  O   UNL d   1      -0.028  -2.173 -12.970 -0.10 -0.05    -0.289    13.732
ATOM      2  O   UNL d   1      -3.516   3.988 -10.466 -0.21 -0.06    -0.289    13.732
ATOM      3  N   UNL d   1       0.895   1.012 -13.918 -0.10 -0.02    -0.247    13.732
ATOM      4  N   UNL d   1      -1.200   2.725 -12.691 -0.13 -0.01    -0.247    13.732
ATOM      5  N   UNL d   1      -0.273   4.885 -14.346 -0.11 +0.01    -0.354    13.732
ATOM      6  N   UNL d   1       1.885   3.096 -15.628 -0.05 +0.00    -0.354    13.732
ATOM      7  C   UNL d   1       1.565  -1.251 -14.579 -0.08 +0.01    +0.084    13.732
ATOM      8  C   UNL d   1      -2.320   1.865 -10.696 -0.29 +0.01    +0.084    13.732
ATOM      9  C   UNL d   1      -1.337   1.643 -11.850 -0.23 +0.00    +0.058    13.732
ATOM     10  C   UNL d   1       1.714   0.264 -14.747 -0.11 +0.01    +0.058    13.732
ATOM     11  C   UNL d   1       0.530  -1.226 -13.494 -0.09 +0.03    +0.193    13.732
ATOM     12  C   UNL d   1       0.227   0.202 -13.164 -0.15 +0.01    +0.109    13.732
ATOM     13  C   UNL d   1      -2.744   3.260 -11.059 -0.16 +0.02    +0.193    13.732
ATOM     14  C   UNL d   1       0.964  -1.911 -15.822 -0.03 +0.00    +0.026    13.732
ATOM     15  C   UNL d   1      -0.705   0.476 -12.051 -0.24 +0.00    +0.055    13.732
ATOM     16  C   UNL d   1      -1.606   1.904  -9.342 -0.49 +0.00    +0.026    13.732
ATOM     17  C   UNL d   1      -1.998   3.662 -12.290 -0.09 +0.00    +0.109    13.732
ATOM     18  C   UNL d   1       2.637   0.792 -15.573 -0.12 +0.00    +0.050    13.732
ATOM     19  C   UNL d   1       2.904   2.176 -15.730 -0.11 +0.00    +0.045    13.732
ATOM     20  C   UNL d   1      -1.422   5.445 -13.850 -0.15 -0.00    +0.045    13.732
ATOM     21  C   UNL d   1      -2.244   4.973 -12.907 -0.13 +0.00    +0.057    13.732
ATOM     22  C   UNL d   1      -0.553   6.832 -15.443 -0.13 +0.00    -0.019    13.732
ATOM     23  C   UNL d   1       0.322   5.650 -15.314 -0.18 -0.00    +0.045    13.732
ATOM     24  C   UNL d   1      -1.583   6.705 -14.573 -0.14 +0.00    -0.022    13.732
ATOM     25  C   UNL d   1       2.348   4.362 -15.904 -0.07 -0.00    +0.049    13.732
ATOM     26  C   UNL d   1       4.065   2.865 -16.044 -0.18 +0.00    -0.018    13.732
ATOM     27  C   UNL d   1       3.712   4.247 -16.133 -0.22 -0.00    +0.003    13.732
ATOM     28  C   UNL d   1       1.450   5.458 -16.015 -0.18 -0.00    +0.052    13.732
ATOM     29  C   UNL d   1      -2.716   7.643 -14.325 -0.10 -0.00    +0.046    13.732
ATOM     30  C   UNL d   1       5.421   2.279 -16.246 -0.19 -0.00    +0.046    13.732
ATOM     31  H   UNL d   1       0.108   4.031 -13.954 +0.04 -0.00    +0.166    13.732
ATOM     32  H   UNL d   1       0.925   2.848 -15.419 +0.03 +0.00    +0.166    13.732
ATOM     33  C   UNL d   1       2.823  -1.987 -14.104 -0.12 +0.06    +0.141    13.732
ATOM     34  C   UNL d   1       3.379  -1.419 -12.826 -0.08 +0.18    +0.306    13.732
ATOM     35  O   UNL d   1       4.265  -0.587 -12.733 -0.27 -0.09    -0.251    13.732
ATOM     36  O   UNL d   1       2.786  -1.929 -11.732 -0.67 -0.42    -0.481    13.732
ATOM     37  H   UNL d   1       1.932  -2.285 -12.057 +0.14 +0.19    +0.295    13.732
ATOM     38  C   UNL d   1       4.615   5.311 -16.453 -0.26 -0.00    +0.017    13.732
ATOM     39  C   UNL d   1       5.066   6.231 -15.587 -0.26 -0.02    +0.092    13.732
ATOM     40  C   UNL d   1       6.005   7.261 -16.040 -0.19 -0.07    +0.330    13.732
ATOM     41  O   UNL d   1       7.200   7.144 -16.236 -0.17 +0.05    -0.246    13.732
ATOM     42  O   UNL d   1       5.359   8.421 -16.235 -0.08 +0.07    -0.477    13.732
ATOM     43  H   UNL d   1       4.414   8.179 -16.156 +0.09 -0.05    +0.295    13.732
ATOM     44  C   UNL d   1      -3.523   0.917 -10.662 -0.23 +0.01    +0.141    13.732
ATOM     45  C   UNL d   1      -4.702   1.425 -11.449 -0.06 +0.03    +0.306    13.732
ATOM     46  O   UNL d   1      -4.847   1.371 -12.658 -0.02 -0.01    -0.251    13.732
ATOM     47  O   UNL d   1      -5.632   2.003 -10.667 -0.04 -0.07    -0.481    13.732
ATOM     48  H   UNL d   1      -5.383   2.952 -10.647 +0.09 +0.06    +0.295    13.732
ATOM     49  C   UNL d   1      -0.312   7.958 -16.406 -0.07 -0.00    +0.048    13.732
ATOM     50  C   UNL d   1       0.563   9.052 -15.794 -0.12 -0.01    +0.125    13.732
ATOM     51  C   UNL d   1       2.021   8.749 -15.998 -0.10 -0.04    +0.305    13.732
ATOM     52  O   UNL d   1       2.687   8.945 -16.999 -0.04 +0.02    -0.251    13.732
ATOM     53  O   UNL d   1       2.577   8.188 -14.906 -0.04 +0.15    -0.481    13.732
ATOM     54  H   UNL d   1       3.535   8.367 -15.008 -0.14 -0.10    +0.295    13.732
TER
ENDMDL
MODEL       85
USER    Run = 85
USER    Cluster Rank = 51
USER    Number of conformations in this cluster = 1
USER  
USER    RMSD from reference structure       = 20.308 A
USER  
USER    Estimated Free Energy of Binding    =   -3.34 kcal/mol  [=(1)+(2)+(3)-(4)]
USER    Estimated Inhibition Constant, Ki   =    3.55 mM (millimolar)  [Temperature = 298.15 K]
USER    
USER    (1) Final Intermolecular Energy     =   -7.22 kcal/mol
USER        vdW + Hbond + desolv Energy     =   -7.14 kcal/mol
USER        Electrostatic Energy            =   -0.08 kcal/mol
USER    (2) Final Total Internal Energy     =   -4.31 kcal/mol
USER    (3) Torsional Free Energy           =   +3.88 kcal/mol
USER    (4) Unbound System's Energy  [=(2)] =   -4.31 kcal/mol
USER    
USER    
USER  
USER    DPF = D:/Protein_go_brrr/autodock/final/mut_Y35F/heme/dock.dpf
USER    NEWDPF move	heme_opt.pdbqt
USER    NEWDPF about	0.153000 0.018000 -0.028000
USER    NEWDPF tran0	15.410942 9.219091 -16.208546
USER    NEWDPF axisangle0	-0.518238 -0.827144 0.217398 47.844967
USER    NEWDPF quaternion0	-0.210146 -0.335407 0.088155 0.914095
USER    NEWDPF dihe0	-115.99 -151.57 -102.15 -49.59 60.99 60.38 -180.00 -126.91 153.90 16.18 -87.08 -78.95 -11.88 
USER  
USER                              x       y       z    vdW   Elec        q     RMS 
ATOM      1  O   UNL d   1      12.033  10.559 -11.566 -0.11 +0.11    -0.289    20.308
ATOM      2  O   UNL d   1      11.019   5.630 -17.140 -0.10 +0.02    -0.289    20.308
ATOM      3  N   UNL d   1      14.256  10.212 -14.180 -0.11 +0.08    -0.247    20.308
ATOM      4  N   UNL d   1      13.193   7.874 -15.675 -0.14 +0.07    -0.247    20.308
ATOM      5  N   UNL d   1      15.689   7.766 -17.098 -0.06 +0.11    -0.354    20.308
ATOM      6  N   UNL d   1      16.791  10.180 -15.529 -0.06 +0.09    -0.354    20.308
ATOM      7  C   UNL d   1      14.231  11.492 -12.091 -0.20 -0.02    +0.084    20.308
ATOM      8  C   UNL d   1      10.800   7.418 -15.483 -0.19 -0.01    +0.084    20.308
ATOM      9  C   UNL d   1      12.022   8.234 -15.048 -0.21 -0.01    +0.058    20.308
ATOM     10  C   UNL d   1      14.956  11.100 -13.381 -0.18 -0.01    +0.058    20.308
ATOM     11  C   UNL d   1      12.988  10.683 -12.311 -0.19 -0.06    +0.193    20.308
ATOM     12  C   UNL d   1      13.113   9.973 -13.624 -0.23 -0.03    +0.109    20.308
ATOM     13  C   UNL d   1      11.502   6.503 -16.446 -0.13 -0.02    +0.193    20.308
ATOM     14  C   UNL d   1      14.949  10.967 -10.845 -0.32 -0.01    +0.026    20.308
ATOM     15  C   UNL d   1      11.961   9.182 -14.099 -0.28 -0.01    +0.055    20.308
ATOM     16  C   UNL d   1       9.794   8.273 -16.260 -0.16 -0.00    +0.026    20.308
ATOM     17  C   UNL d   1      12.949   6.878 -16.465 -0.20 -0.02    +0.109    20.308
ATOM     18  C   UNL d   1      16.133  11.658 -13.724 -0.14 -0.01    +0.050    20.308
ATOM     19  C   UNL d   1      16.834  11.420 -14.933 -0.11 -0.01    +0.045    20.308
ATOM     20  C   UNL d   1      15.131   6.585 -17.512 -0.22 -0.01    +0.045    20.308
ATOM     21  C   UNL d   1      13.897   6.119 -17.293 -0.19 -0.00    +0.057    20.308
ATOM     22  C   UNL d   1      17.283   6.690 -18.271 -0.08 +0.00    -0.019    20.308
ATOM     23  C   UNL d   1      16.987   7.919 -17.508 -0.16 -0.01    +0.045    20.308
ATOM     24  C   UNL d   1      16.180   5.905 -18.271 -0.17 +0.00    -0.022    20.308
ATOM     25  C   UNL d   1      17.610  10.146 -16.634 -0.13 -0.01    +0.049    20.308
ATOM     26  C   UNL d   1      17.673  12.223 -15.690 -0.06 +0.00    -0.018    20.308
ATOM     27  C   UNL d   1      18.144  11.420 -16.774 -0.05 -0.00    +0.003    20.308
ATOM     28  C   UNL d   1      17.853   8.928 -17.324 -0.15 -0.01    +0.052    20.308
ATOM     29  C   UNL d   1      15.982   4.575 -18.915 -0.16 -0.00    +0.046    20.308
ATOM     30  C   UNL d   1      18.015  13.651 -15.427 -0.02 -0.00    +0.046    20.308
ATOM     31  H   UNL d   1      15.140   8.465 -16.609 -0.30 -0.07    +0.166    20.308
ATOM     32  H   UNL d   1      16.256   9.401 -15.164 -0.51 -0.11    +0.166    20.308
ATOM     33  C   UNL d   1      13.887  12.980 -11.956 -0.08 -0.03    +0.141    20.308
ATOM     34  C   UNL d   1      13.667  13.397 -10.527 -0.06 -0.07    +0.306    20.308
ATOM     35  O   UNL d   1      14.351  14.181  -9.892 -0.03 +0.05    -0.251    20.308
ATOM     36  O   UNL d   1      12.593  12.805  -9.974 -0.08 +0.14    -0.481    20.308
ATOM     37  H   UNL d   1      12.798  11.846 -10.003 -0.19 -0.16    +0.295    20.308
ATOM     38  C   UNL d   1      19.051  11.857 -17.792 -0.02 -0.00    +0.017    20.308
ATOM     39  C   UNL d   1      20.077  11.139 -18.275 -0.01 -0.01    +0.092    20.308
ATOM     40  C   UNL d   1      20.924  11.697 -19.333 +0.00 -0.03    +0.330    20.308
ATOM     41  O   UNL d   1      21.570  12.726 -19.302 +0.00 +0.02    -0.246    20.308
ATOM     42  O   UNL d   1      20.913  10.891 -20.406 +0.00 +0.04    -0.477    20.308
ATOM     43  H   UNL d   1      20.040  10.451 -20.361 +0.00 -0.02    +0.295    20.308
ATOM     44  C   UNL d   1      10.109   6.620 -14.373 -0.34 -0.03    +0.141    20.308
ATOM     45  C   UNL d   1      11.063   6.108 -13.327 -0.40 -0.05    +0.306    20.308
ATOM     46  O   UNL d   1      10.902   6.138 -12.119 -0.48 +0.04    -0.251    20.308
ATOM     47  O   UNL d   1      12.191   5.606 -13.861 -0.24 +0.07    -0.481    20.308
ATOM     48  H   UNL d   1      12.721   6.393 -14.107 +0.17 -0.06    +0.295    20.308
ATOM     49  C   UNL d   1      18.607   6.394 -18.911 -0.07 -0.01    +0.048    20.308
ATOM     50  C   UNL d   1      18.630   6.799 -20.385 -0.02 -0.01    +0.125    20.308
ATOM     51  C   UNL d   1      19.183   8.187 -20.551 -0.00 -0.03    +0.305    20.308
ATOM     52  O   UNL d   1      18.725   9.093 -21.224 -0.00 +0.02    -0.251    20.308
ATOM     53  O   UNL d   1      20.322   8.363 -19.853 +0.00 +0.05    -0.481    20.308
ATOM     54  H   UNL d   1      20.945   8.747 -20.505 +0.00 -0.03    +0.295    20.308
TER
ENDMDL
MODEL        7
USER    Run = 7
USER    Cluster Rank = 52
USER    Number of conformations in this cluster = 1
USER  
USER    RMSD from reference structure       = 18.151 A
USER  
USER    Estimated Free Energy of Binding    =   -3.34 kcal/mol  [=(1)+(2)+(3)-(4)]
USER    Estimated Inhibition Constant, Ki   =    3.59 mM (millimolar)  [Temperature = 298.15 K]
USER    
USER    (1) Final Intermolecular Energy     =   -7.21 kcal/mol
USER        vdW + Hbond + desolv Energy     =   -6.52 kcal/mol
USER        Electrostatic Energy            =   -0.70 kcal/mol
USER    (2) Final Total Internal Energy     =   -2.69 kcal/mol
USER    (3) Torsional Free Energy           =   +3.88 kcal/mol
USER    (4) Unbound System's Energy  [=(2)] =   -2.69 kcal/mol
USER    
USER    
USER  
USER    DPF = D:/Protein_go_brrr/autodock/final/mut_Y35F/heme/dock.dpf
USER    NEWDPF move	heme_opt.pdbqt
USER    NEWDPF about	0.153000 0.018000 -0.028000
USER    NEWDPF tran0	-7.052262 -5.470966 18.158317
USER    NEWDPF axisangle0	-0.181459 0.970033 0.161584 -159.308853
USER    NEWDPF quaternion0	-0.178509 0.954262 0.158957 -0.179585
USER    NEWDPF dihe0	131.77 144.88 -121.63 -66.92 -136.27 -9.50 121.51 68.75 17.75 -26.08 82.51 -37.31 172.38 
USER  
USER                              x       y       z    vdW   Elec        q     RMS 
ATOM      1  O   UNL d   1      -2.647  -2.146  20.231 -0.02 +0.02    -0.289    18.151
ATOM      2  O   UNL d   1      -3.260  -9.590  19.458 -0.01 +0.01    -0.289    18.151
ATOM      3  N   UNL d   1      -5.516  -3.674  19.077 -0.01 +0.01    -0.247    18.151
ATOM      4  N   UNL d   1      -4.718  -6.526  18.830 -0.35 -0.01    -0.247    18.151
ATOM      5  N   UNL d   1      -7.111  -6.967  17.299 -0.09 +0.05    -0.354    18.151
ATOM      6  N   UNL d   1      -7.921  -4.003  17.543 -0.08 -0.01    -0.354    18.151
ATOM      7  C   UNL d   1      -4.771  -1.351  19.318 -0.10 -0.00    +0.084    18.151
ATOM      8  C   UNL d   1      -2.907  -7.309  20.272 -0.04 -0.00    +0.084    18.151
ATOM      9  C   UNL d   1      -3.765  -6.151  19.751 -0.06 +0.00    +0.058    18.151
ATOM     10  C   UNL d   1      -5.855  -2.345  18.888 -0.15 +0.00    +0.058    18.151
ATOM     11  C   UNL d   1      -3.767  -2.354  19.801 -0.06 -0.01    +0.193    18.151
ATOM     12  C   UNL d   1      -4.346  -3.724  19.626 -0.06 -0.00    +0.109    18.151
ATOM     13  C   UNL d   1      -3.525  -8.404  19.449 -0.03 -0.01    +0.193    18.151
ATOM     14  C   UNL d   1      -4.180  -0.594  18.126 -0.28 -0.00    +0.026    18.151
ATOM     15  C   UNL d   1      -3.567  -4.877  20.122 -0.08 +0.00    +0.055    18.151
ATOM     16  C   UNL d   1      -3.176  -7.594  21.752 -0.01 -0.00    +0.026    18.151
ATOM     17  C   UNL d   1      -4.604  -7.797  18.613 -0.09 -0.01    +0.109    18.151
ATOM     18  C   UNL d   1      -7.058  -1.928  18.452 -0.20 +0.01    +0.050    18.151
ATOM     19  C   UNL d   1      -8.147  -2.770  18.112 -0.19 +0.00    +0.045    18.151
ATOM     20  C   UNL d   1      -6.479  -8.166  17.098 -0.15 -0.01    +0.045    18.151
ATOM     21  C   UNL d   1      -5.361  -8.630  17.667 -0.13 -0.01    +0.057    18.151
ATOM     22  C   UNL d   1      -8.338  -8.081  15.774 -0.14 +0.00    -0.019    18.151
ATOM     23  C   UNL d   1      -8.244  -6.824  16.542 -0.17 -0.01    +0.045    18.151
ATOM     24  C   UNL d   1      -7.291  -8.872  16.108 -0.11 +0.00    -0.022    18.151
ATOM     25  C   UNL d   1      -9.112  -4.609  17.214 -0.18 -0.00    +0.049    18.151
ATOM     26  C   UNL d   1      -9.519  -2.586  18.190 -0.16 -0.00    -0.018    18.151
ATOM     27  C   UNL d   1     -10.123  -3.758  17.639 -0.17 -0.00    +0.003    18.151
ATOM     28  C   UNL d   1      -9.132  -5.820  16.471 -0.24 -0.01    +0.052    18.151
ATOM     29  C   UNL d   1      -6.958 -10.238  15.612 -0.09 -0.00    +0.046    18.151
ATOM     30  C   UNL d   1     -10.228  -1.397  18.742 -0.14 +0.00    +0.046    18.151
ATOM     31  H   UNL d   1      -6.788  -6.313  18.004 +0.03 -0.01    +0.166    18.151
ATOM     32  H   UNL d   1      -6.997  -4.375  17.361 +0.08 +0.00    +0.166    18.151
ATOM     33  C   UNL d   1      -5.167  -0.398  20.451 -0.05 +0.00    +0.141    18.151
ATOM     34  C   UNL d   1      -5.414  -1.114  21.751 +0.01 -0.00    +0.306    18.151
ATOM     35  O   UNL d   1      -6.442  -1.682  22.076 -0.00 -0.00    -0.251    18.151
ATOM     36  O   UNL d   1      -4.350  -1.078  22.572 +0.01 +0.01    -0.481    18.151
ATOM     37  H   UNL d   1      -3.599  -1.380  22.018 +0.01 -0.01    +0.295    18.151
ATOM     38  C   UNL d   1     -11.532  -3.978  17.510 -0.17 -0.00    +0.017    18.151
ATOM     39  C   UNL d   1     -12.100  -5.073  16.982 -0.11 -0.03    +0.092    18.151
ATOM     40  C   UNL d   1     -13.560  -5.183  16.924 -0.04 -0.13    +0.330    18.151
ATOM     41  O   UNL d   1     -14.381  -4.475  17.476 -0.06 +0.05    -0.246    18.151
ATOM     42  O   UNL d   1     -13.915  -6.211  16.139 -0.04 +0.34    -0.477    18.151
ATOM     43  H   UNL d   1     -13.236  -6.213  15.433 -0.27 -0.53    +0.295    18.151
ATOM     44  C   UNL d   1      -1.404  -7.194  19.993 -0.03 -0.01    +0.141    18.151
ATOM     45  C   UNL d   1      -1.040  -7.499  18.565 -0.04 -0.03    +0.306    18.151
ATOM     46  O   UNL d   1      -1.181  -6.760  17.605 -0.09 +0.04    -0.251    18.151
ATOM     47  O   UNL d   1      -0.537  -8.738  18.415 +0.01 +0.05    -0.481    18.151
ATOM     48  H   UNL d   1      -1.237  -9.332  18.759 +0.02 -0.02    +0.295    18.151
ATOM     49  C   UNL d   1      -9.424  -8.384  14.783 -0.20 +0.01    +0.048    18.151
ATOM     50  C   UNL d   1      -9.063  -7.901  13.379 -0.24 +0.03    +0.125    18.151
ATOM     51  C   UNL d   1      -9.670  -6.554  13.102 -0.35 -0.01    +0.305    18.151
ATOM     52  O   UNL d   1      -9.450  -5.506  13.684 -0.99 +0.03    -0.251    18.151
ATOM     53  O   UNL d   1     -10.557  -6.600  12.088 -0.34 -0.06    -0.481    18.151
ATOM     54  H   UNL d   1     -11.420  -6.422  12.518 -0.09 -0.43    +0.295    18.151
TER
ENDMDL
MODEL       66
USER    Run = 66
USER    Cluster Rank = 53
USER    Number of conformations in this cluster = 1
USER  
USER    RMSD from reference structure       = 17.677 A
USER  
USER    Estimated Free Energy of Binding    =   -3.23 kcal/mol  [=(1)+(2)+(3)-(4)]
USER    Estimated Inhibition Constant, Ki   =    4.31 mM (millimolar)  [Temperature = 298.15 K]
USER    
USER    (1) Final Intermolecular Energy     =   -7.11 kcal/mol
USER        vdW + Hbond + desolv Energy     =   -6.96 kcal/mol
USER        Electrostatic Energy            =   -0.15 kcal/mol
USER    (2) Final Total Internal Energy     =   -4.61 kcal/mol
USER    (3) Torsional Free Energy           =   +3.88 kcal/mol
USER    (4) Unbound System's Energy  [=(2)] =   -4.61 kcal/mol
USER    
USER    
USER  
USER    DPF = D:/Protein_go_brrr/autodock/final/mut_Y35F/heme/dock.dpf
USER    NEWDPF move	heme_opt.pdbqt
USER    NEWDPF about	0.153000 0.018000 -0.028000
USER    NEWDPF tran0	9.844763 13.431730 -12.425663
USER    NEWDPF axisangle0	0.328684 -0.648054 0.687017 -86.389018
USER    NEWDPF quaternion0	0.224977 -0.443578 0.470248 -0.729034
USER    NEWDPF dihe0	140.70 149.43 91.22 35.81 -138.46 121.38 -36.77 34.89 14.31 -110.55 -87.65 -106.63 1.95 
USER  
USER                              x       y       z    vdW   Elec        q     RMS 
ATOM      1  O   UNL d   1       7.146  10.993 -17.065 -0.04 +0.01    -0.289    17.677
ATOM      2  O   UNL d   1      14.385  11.105 -15.072 -0.07 +0.06    -0.289    17.677
ATOM      3  N   UNL d   1       8.294  12.689 -14.290 -0.10 -0.00    -0.247    17.677
ATOM      4  N   UNL d   1      11.159  11.915 -14.153 -0.07 +0.02    -0.247    17.677
ATOM      5  N   UNL d   1      11.229  12.997 -11.490 -0.11 +0.05    -0.354    17.677
ATOM      6  N   UNL d   1       8.250  13.778 -11.633 -0.17 -0.01    -0.354    17.677
ATOM      7  C   UNL d   1       6.082  12.201 -15.226 -0.15 -0.00    +0.084    17.677
ATOM      8  C   UNL d   1      12.243  11.267 -16.245 -0.03 -0.01    +0.084    17.677
ATOM      9  C   UNL d   1      10.968  11.661 -15.493 -0.07 -0.00    +0.058    17.677
ATOM     10  C   UNL d   1       6.928  12.847 -14.125 -0.22 +0.00    +0.058    17.677
ATOM     11  C   UNL d   1       7.212  11.664 -16.052 -0.08 -0.00    +0.193    17.677
ATOM     12  C   UNL d   1       8.501  12.047 -15.393 -0.09 -0.00    +0.109    17.677
ATOM     13  C   UNL d   1      13.187  11.308 -15.077 -0.04 -0.03    +0.193    17.677
ATOM     14  C   UNL d   1       5.253  11.027 -14.699 -0.20 +0.00    +0.026    17.677
ATOM     15  C   UNL d   1       9.762  11.704 -16.081 -0.08 -0.00    +0.055    17.677
ATOM     16  C   UNL d   1      12.662  12.340 -17.254 -0.01 -0.00    +0.026    17.677
ATOM     17  C   UNL d   1      12.405  11.707 -13.868 -0.09 -0.02    +0.109    17.677
ATOM     18  C   UNL d   1       6.366  13.579 -13.145 -0.34 +0.00    +0.050    17.677
ATOM     19  C   UNL d   1       7.072  14.282 -12.135 -0.28 +0.00    +0.045    17.677
ATOM     20  C   UNL d   1      12.449  12.373 -11.523 -0.19 -0.01    +0.045    17.677
ATOM     21  C   UNL d   1      13.064  11.788 -12.556 -0.18 -0.01    +0.057    17.677
ATOM     22  C   UNL d   1      12.065  13.134  -9.403 -0.29 +0.00    -0.019    17.677
ATOM     23  C   UNL d   1      10.910  13.489 -10.252 -0.29 -0.01    +0.045    17.677
ATOM     24  C   UNL d   1      12.973  12.475 -10.161 -0.14 +0.01    -0.022    17.677
ATOM     25  C   UNL d   1       8.715  14.568 -10.607 -0.22 +0.00    +0.049    17.677
ATOM     26  C   UNL d   1       6.782  15.448 -11.443 -0.17 -0.00    -0.018    17.677
ATOM     27  C   UNL d   1       7.833  15.634 -10.493 -0.20 +0.00    +0.003    17.677
ATOM     28  C   UNL d   1       9.833  14.167  -9.827 -0.34 -0.00    +0.052    17.677
ATOM     29  C   UNL d   1      14.300  11.926  -9.761 -0.10 -0.02    +0.046    17.677
ATOM     30  C   UNL d   1       5.603  16.337 -11.652 -0.16 +0.00    +0.046    17.677
ATOM     31  H   UNL d   1      10.685  13.133 -12.335 +0.05 -0.01    +0.166    17.677
ATOM     32  H   UNL d   1       8.678  12.920 -11.961 +0.06 +0.01    +0.166    17.677
ATOM     33  C   UNL d   1       5.226  13.168 -16.051 -0.06 -0.00    +0.141    17.677
ATOM     34  C   UNL d   1       6.052  14.176 -16.803 -0.01 -0.01    +0.306    17.677
ATOM     35  O   UNL d   1       6.483  15.228 -16.362 -0.01 +0.01    -0.251    17.677
ATOM     36  O   UNL d   1       6.295  13.803 -18.072 +0.00 +0.02    -0.481    17.677
ATOM     37  H   UNL d   1       6.501  12.845 -18.013 +0.01 -0.01    +0.295    17.677
ATOM     38  C   UNL d   1       7.918  16.715  -9.558 -0.19 +0.00    +0.017    17.677
ATOM     39  C   UNL d   1       7.761  16.604  -8.230 -0.29 +0.02    +0.092    17.677
ATOM     40  C   UNL d   1       7.890  17.789  -7.378 -0.10 +0.11    +0.330    17.677
ATOM     41  O   UNL d   1       7.047  18.277  -6.650 -0.69 -0.20    -0.246    17.677
ATOM     42  O   UNL d   1       9.123  18.306  -7.490 -0.03 -0.04    -0.477    17.677
ATOM     43  H   UNL d   1       9.688  17.528  -7.675 +0.08 +0.01    +0.295    17.677
ATOM     44  C   UNL d   1      12.227   9.876 -16.889 -0.04 -0.02    +0.141    17.677
ATOM     45  C   UNL d   1      13.603   9.346 -17.192 -0.04 -0.05    +0.306    17.677
ATOM     46  O   UNL d   1      14.293   9.625 -18.156 -0.03 +0.03    -0.251    17.677
ATOM     47  O   UNL d   1      14.029   8.463 -16.270 -0.04 +0.16    -0.481    17.677
ATOM     48  H   UNL d   1      14.485   9.010 -15.596 -0.40 -0.15    +0.295    17.677
ATOM     49  C   UNL d   1      12.166  13.455  -7.941 -0.35 -0.01    +0.048    17.677
ATOM     50  C   UNL d   1      12.623  14.895  -7.706 -0.20 -0.03    +0.125    17.677
ATOM     51  C   UNL d   1      11.444  15.813  -7.547 -0.12 -0.04    +0.305    17.677
ATOM     52  O   UNL d   1      10.339  15.535  -7.117 -0.10 +0.00    -0.251    17.677
ATOM     53  O   UNL d   1      11.721  17.065  -7.960 +0.00 +0.08    -0.481    17.677
ATOM     54  H   UNL d   1      11.220  17.637  -7.342 +0.07 -0.04    +0.295    17.677
TER
ENDMDL
MODEL       91
USER    Run = 91
USER    Cluster Rank = 54
USER    Number of conformations in this cluster = 1
USER  
USER    RMSD from reference structure       = 16.861 A
USER  
USER    Estimated Free Energy of Binding    =   -3.22 kcal/mol  [=(1)+(2)+(3)-(4)]
USER    Estimated Inhibition Constant, Ki   =    4.37 mM (millimolar)  [Temperature = 298.15 K]
USER    
USER    (1) Final Intermolecular Energy     =   -7.10 kcal/mol
USER        vdW + Hbond + desolv Energy     =   -6.82 kcal/mol
USER        Electrostatic Energy            =   -0.28 kcal/mol
USER    (2) Final Total Internal Energy     =   -3.44 kcal/mol
USER    (3) Torsional Free Energy           =   +3.88 kcal/mol
USER    (4) Unbound System's Energy  [=(2)] =   -3.44 kcal/mol
USER    
USER    
USER  
USER    DPF = D:/Protein_go_brrr/autodock/final/mut_Y35F/heme/dock.dpf
USER    NEWDPF move	heme_opt.pdbqt
USER    NEWDPF about	0.153000 0.018000 -0.028000
USER    NEWDPF tran0	-5.880446 -12.703759 -13.469269
USER    NEWDPF axisangle0	0.797595 0.602607 0.026578 147.706077
USER    NEWDPF quaternion0	0.766131 0.578836 0.025530 0.278102
USER    NEWDPF dihe0	-103.17 -43.53 178.80 -47.41 46.53 97.95 143.83 -20.79 142.26 -12.97 -62.23 -125.08 28.75 
USER  
USER                              x       y       z    vdW   Elec        q     RMS 
ATOM      1  O   UNL d   1      -6.385 -17.601 -16.712 -0.08 -0.18    -0.289    16.861
ATOM      2  O   UNL d   1     -10.674 -14.893 -11.174 -0.22 -0.06    -0.289    16.861
ATOM      3  N   UNL d   1      -5.608 -14.717 -14.988 -0.09 -0.04    -0.247    16.861
ATOM      4  N   UNL d   1      -7.984 -14.298 -13.252 -0.12 -0.01    -0.247    16.861
ATOM      5  N   UNL d   1      -7.024 -11.637 -12.740 -0.06 +0.05    -0.354    16.861
ATOM      6  N   UNL d   1      -4.573 -12.073 -14.557 -0.01 +0.00    -0.354    16.861
ATOM      7  C   UNL d   1      -4.672 -15.873 -16.936 -0.07 +0.02    +0.084    16.861
ATOM      8  C   UNL d   1      -9.286 -16.274 -12.644 -0.21 +0.01    +0.084    16.861
ATOM      9  C   UNL d   1      -8.142 -15.651 -13.451 -0.20 +0.01    +0.058    16.861
ATOM     10  C   UNL d   1      -4.627 -14.690 -15.964 -0.07 +0.01    +0.058    16.861
ATOM     11  C   UNL d   1      -5.842 -16.583 -16.324 -0.08 +0.08    +0.193    16.861
ATOM     12  C   UNL d   1      -6.304 -15.798 -15.136 -0.14 +0.03    +0.109    16.861
ATOM     13  C   UNL d   1      -9.771 -15.017 -11.979 -0.23 +0.02    +0.193    16.861
ATOM     14  C   UNL d   1      -5.044 -15.436 -18.355 -0.02 +0.00    +0.026    16.861
ATOM     15  C   UNL d   1      -7.395 -16.357 -14.314 -0.17 +0.02    +0.055    16.861
ATOM     16  C   UNL d   1      -8.767 -17.231 -11.567 -0.17 +0.00    +0.026    16.861
ATOM     17  C   UNL d   1      -8.903 -13.890 -12.437 -0.26 +0.00    +0.109    16.861
ATOM     18  C   UNL d   1      -3.648 -13.767 -16.025 -0.06 +0.00    +0.050    16.861
ATOM     19  C   UNL d   1      -3.478 -12.689 -15.119 -0.07 +0.00    +0.045    16.861
ATOM     20  C   UNL d   1      -8.271 -11.550 -12.178 -0.29 -0.01    +0.045    16.861
ATOM     21  C   UNL d   1      -9.171 -12.519 -11.980 -0.30 -0.00    +0.057    16.861
ATOM     22  C   UNL d   1      -7.314  -9.476 -12.174 -0.24 +0.00    -0.019    16.861
ATOM     23  C   UNL d   1      -6.370 -10.435 -12.782 -0.16 -0.01    +0.045    16.861
ATOM     24  C   UNL d   1      -8.437 -10.142 -11.817 -0.34 +0.00    -0.022    16.861
ATOM     25  C   UNL d   1      -4.184 -11.002 -13.787 -0.13 -0.00    +0.049    16.861
ATOM     26  C   UNL d   1      -2.346 -12.024 -14.674 -0.11 +0.00    -0.018    16.861
ATOM     27  C   UNL d   1      -2.796 -10.972 -13.818 -0.19 -0.00    +0.003    16.861
ATOM     28  C   UNL d   1      -5.146 -10.116 -13.231 -0.16 -0.00    +0.052    16.861
ATOM     29  C   UNL d   1      -9.666  -9.614 -11.159 -0.34 -0.01    +0.046    16.861
ATOM     30  C   UNL d   1      -0.931 -12.345 -15.019 -0.11 -0.00    +0.046    16.861
ATOM     31  H   UNL d   1      -6.630 -12.531 -13.010 +0.07 -0.02    +0.166    16.861
ATOM     32  H   UNL d   1      -5.529 -12.360 -14.733 +0.04 +0.00    +0.166    16.861
ATOM     33  C   UNL d   1      -3.433 -16.774 -16.931 -0.08 +0.05    +0.141    16.861
ATOM     34  C   UNL d   1      -3.434 -17.766 -18.063 -0.04 +0.13    +0.306    16.861
ATOM     35  O   UNL d   1      -2.809 -17.671 -19.105 -0.01 -0.07    -0.251    16.861
ATOM     36  O   UNL d   1      -4.222 -18.829 -17.819 -0.06 -0.44    -0.481    16.861
ATOM     37  H   UNL d   1      -5.136 -18.489 -17.927 +0.02 +0.23    +0.295    16.861
ATOM     38  C   UNL d   1      -1.949 -10.028 -13.154 -0.27 -0.00    +0.017    16.861
ATOM     39  C   UNL d   1      -1.587  -8.833 -13.645 -0.23 -0.00    +0.092    16.861
ATOM     40  C   UNL d   1      -0.726  -7.949 -12.854 -0.21 +0.00    +0.330    16.861
ATOM     41  O   UNL d   1       0.483  -7.832 -12.924 -0.26 -0.03    -0.246    16.861
ATOM     42  O   UNL d   1      -1.465  -7.231 -11.995 -0.17 +0.02    -0.477    16.861
ATOM     43  H   UNL d   1      -0.957  -7.269 -11.159 -0.41 -0.10    +0.295    16.861
ATOM     44  C   UNL d   1     -10.401 -16.922 -13.471 -0.08 +0.02    +0.141    16.861
ATOM     45  C   UNL d   1     -11.130 -15.946 -14.355 -0.02 +0.03    +0.306    16.861
ATOM     46  O   UNL d   1     -10.950 -15.770 -15.548 -0.01 -0.02    -0.251    16.861
ATOM     47  O   UNL d   1     -12.036 -15.216 -13.679 -0.02 -0.04    -0.481    16.861
ATOM     48  H   UNL d   1     -11.994 -15.559 -12.761 +0.07 +0.03    +0.295    16.861
ATOM     49  C   UNL d   1      -7.039  -8.009 -12.013 -0.19 -0.01    +0.048    16.861
ATOM     50  C   UNL d   1      -5.734  -7.754 -11.259 -0.20 -0.01    +0.125    16.861
ATOM     51  C   UNL d   1      -4.757  -7.001 -12.116 -0.09 -0.01    +0.305    16.861
ATOM     52  O   UNL d   1      -4.685  -6.997 -13.332 -0.06 +0.00    -0.251    16.861
ATOM     53  O   UNL d   1      -3.889  -6.281 -11.378 -0.08 -0.01    -0.481    16.861
ATOM     54  H   UNL d   1      -3.014  -6.497 -11.763 +0.14 +0.01    +0.295    16.861
TER
ENDMDL
MODEL       95
USER    Run = 95
USER    Cluster Rank = 55
USER    Number of conformations in this cluster = 1
USER  
USER    RMSD from reference structure       = 12.874 A
USER  
USER    Estimated Free Energy of Binding    =   -3.21 kcal/mol  [=(1)+(2)+(3)-(4)]
USER    Estimated Inhibition Constant, Ki   =    4.45 mM (millimolar)  [Temperature = 298.15 K]
USER    
USER    (1) Final Intermolecular Energy     =   -7.09 kcal/mol
USER        vdW + Hbond + desolv Energy     =   -6.86 kcal/mol
USER        Electrostatic Energy            =   -0.23 kcal/mol
USER    (2) Final Total Internal Energy     =   -2.98 kcal/mol
USER    (3) Torsional Free Energy           =   +3.88 kcal/mol
USER    (4) Unbound System's Energy  [=(2)] =   -2.98 kcal/mol
USER    
USER    
USER  
USER    DPF = D:/Protein_go_brrr/autodock/final/mut_Y35F/heme/dock.dpf
USER    NEWDPF move	heme_opt.pdbqt
USER    NEWDPF about	0.153000 0.018000 -0.028000
USER    NEWDPF tran0	10.961546 -10.822003 7.134345
USER    NEWDPF axisangle0	0.700793 -0.676057 -0.227675 146.213299
USER    NEWDPF quaternion0	0.670552 -0.646883 -0.217850 0.290591
USER    NEWDPF dihe0	-178.27 -178.20 174.71 -60.51 -155.80 42.36 149.79 -153.28 8.62 -5.07 55.13 -95.03 164.45 
USER  
USER                              x       y       z    vdW   Elec        q     RMS 
ATOM      1  O   UNL d   1       8.954  -6.220  10.224 -0.04 -0.01    -0.289    12.874
ATOM      2  O   UNL d   1      15.466  -9.942  10.595 +0.00 -0.04    -0.289    12.874
ATOM      3  N   UNL d   1       9.642  -8.980   8.274 -0.10 -0.02    -0.247    12.874
ATOM      4  N   UNL d   1      12.491  -9.559   8.889 -0.55 -0.24    -0.247    12.874
ATOM      5  N   UNL d   1      12.532 -11.307   6.607 -0.09 +0.00    -0.354    12.874
ATOM      6  N   UNL d   1       9.581 -10.687   5.965 -0.07 +0.24    -0.354    12.874
ATOM      7  C   UNL d   1       7.809  -7.357   8.388 -0.20 -0.00    +0.084    12.874
ATOM      8  C   UNL d   1      13.334  -8.834  11.065 -0.02 +0.02    +0.084    12.874
ATOM      9  C   UNL d   1      12.196  -8.862  10.039 -0.06 +0.02    +0.058    12.874
ATOM     10  C   UNL d   1       8.428  -8.593   7.730 -0.22 -0.01    +0.058    12.874
ATOM     11  C   UNL d   1       8.878  -7.124   9.413 -0.07 +0.01    +0.193    12.874
ATOM     12  C   UNL d   1       9.920  -8.189   9.259 -0.08 +0.02    +0.109    12.874
ATOM     13  C   UNL d   1      14.342  -9.612  10.267 -0.02 +0.05    +0.193    12.874
ATOM     14  C   UNL d   1       7.767  -6.159   7.436 -0.41 -0.00    +0.026    12.874
ATOM     15  C   UNL d   1      11.033  -8.218  10.228 -0.07 +0.01    +0.055    12.874
ATOM     16  C   UNL d   1      12.982  -9.631  12.325 +0.00 +0.00    +0.026    12.874
ATOM     17  C   UNL d   1      13.710  -9.986   8.966 -0.03 +0.07    +0.109    12.874
ATOM     18  C   UNL d   1       7.780  -9.277   6.768 -0.21 -0.01    +0.050    12.874
ATOM     19  C   UNL d   1       8.235 -10.476   6.162 -0.27 -0.02    +0.045    12.874
ATOM     20  C   UNL d   1      13.870 -11.273   6.902 -0.09 +0.01    +0.045    12.874
ATOM     21  C   UNL d   1      14.482 -10.722   7.955 -0.07 +0.02    +0.057    12.874
ATOM     22  C   UNL d   1      13.576 -12.395   4.934 -0.08 +0.01    -0.019    12.874
ATOM     23  C   UNL d   1      12.257 -11.963   5.437 -0.06 -0.02    +0.045    12.874
ATOM     24  C   UNL d   1      14.527 -11.985   5.806 -0.07 +0.00    -0.022    12.874
ATOM     25  C   UNL d   1       9.791 -11.864   5.285 -0.24 -0.02    +0.049    12.874
ATOM     26  C   UNL d   1       7.556 -11.560   5.629 -0.28 +0.00    -0.018    12.874
ATOM     27  C   UNL d   1       8.544 -12.443   5.094 -0.28 -0.00    +0.003    12.874
ATOM     28  C   UNL d   1      11.089 -12.220   4.827 -0.21 -0.03    +0.052    12.874
ATOM     29  C   UNL d   1      16.002 -12.190   5.742 -0.02 -0.00    +0.046    12.874
ATOM     30  C   UNL d   1       6.079 -11.767   5.619 -0.20 -0.01    +0.046    12.874
ATOM     31  H   UNL d   1      11.841 -10.944   7.255 +0.01 +0.04    +0.166    12.874
ATOM     32  H   UNL d   1      10.299 -10.032   6.252 -0.33 -0.14    +0.166    12.874
ATOM     33  C   UNL d   1       6.454  -7.583   9.066 -0.17 -0.02    +0.141    12.874
ATOM     34  C   UNL d   1       6.501  -8.668  10.108 -0.01 -0.04    +0.306    12.874
ATOM     35  O   UNL d   1       6.105  -9.814   9.973 -0.02 +0.03    -0.251    12.874
ATOM     36  O   UNL d   1       7.048  -8.254  11.264 +0.02 +0.06    -0.481    12.874
ATOM     37  H   UNL d   1       7.290  -7.317  11.101 +0.06 -0.04    +0.295    12.874
ATOM     38  C   UNL d   1       8.271 -13.683   4.434 -0.26 -0.00    +0.017    12.874
ATOM     39  C   UNL d   1       8.642 -13.992   3.182 -0.21 -0.02    +0.092    12.874
ATOM     40  C   UNL d   1       8.315 -15.308   2.627 -0.11 -0.05    +0.330    12.874
ATOM     41  O   UNL d   1       7.282 -15.935   2.760 -0.13 +0.04    -0.246    12.874
ATOM     42  O   UNL d   1       9.344 -15.772   1.902 -0.06 +0.07    -0.477    12.874
ATOM     43  H   UNL d   1      10.028 -15.077   1.993 +0.07 -0.06    +0.295    12.874
ATOM     44  C   UNL d   1      13.870  -7.443  11.419 -0.01 +0.03    +0.141    12.874
ATOM     45  C   UNL d   1      14.309  -6.651  10.217 -0.03 +0.10    +0.306    12.874
ATOM     46  O   UNL d   1      13.720  -5.712   9.711 -0.06 -0.09    -0.251    12.874
ATOM     47  O   UNL d   1      15.462  -7.105   9.694 -0.01 -0.16    -0.481    12.874
ATOM     48  H   UNL d   1      15.764  -7.795  10.322 +0.02 +0.07    +0.295    12.874
ATOM     49  C   UNL d   1      13.784 -13.148   3.652 -0.07 -0.01    +0.048    12.874
ATOM     50  C   UNL d   1      13.776 -12.219   2.439 -0.12 -0.04    +0.125    12.874
ATOM     51  C   UNL d   1      12.743 -12.652   1.438 -0.09 -0.07    +0.305    12.874
ATOM     52  O   UNL d   1      12.694 -12.374   0.253 -0.73 +0.03    -0.251    12.874
ATOM     53  O   UNL d   1      11.791 -13.424   1.998 -0.23 +0.12    -0.481    12.874
ATOM     54  H   UNL d   1      10.962 -12.919   1.859 -0.27 -0.14    +0.295    12.874
TER
ENDMDL
MODEL       74
USER    Run = 74
USER    Cluster Rank = 56
USER    Number of conformations in this cluster = 1
USER  
USER    RMSD from reference structure       = 17.360 A
USER  
USER    Estimated Free Energy of Binding    =   -3.20 kcal/mol  [=(1)+(2)+(3)-(4)]
USER    Estimated Inhibition Constant, Ki   =    4.49 mM (millimolar)  [Temperature = 298.15 K]
USER    
USER    (1) Final Intermolecular Energy     =   -7.08 kcal/mol
USER        vdW + Hbond + desolv Energy     =   -6.82 kcal/mol
USER        Electrostatic Energy            =   -0.26 kcal/mol
USER    (2) Final Total Internal Energy     =   -3.28 kcal/mol
USER    (3) Torsional Free Energy           =   +3.88 kcal/mol
USER    (4) Unbound System's Energy  [=(2)] =   -3.28 kcal/mol
USER    
USER    
USER  
USER    DPF = D:/Protein_go_brrr/autodock/final/mut_Y35F/heme/dock.dpf
USER    NEWDPF move	heme_opt.pdbqt
USER    NEWDPF about	0.153000 0.018000 -0.028000
USER    NEWDPF tran0	13.223037 15.047269 -7.716599
USER    NEWDPF axisangle0	0.941519 0.102519 0.320987 159.265195
USER    NEWDPF quaternion0	0.926147 0.100845 0.315747 0.179960
USER    NEWDPF dihe0	-127.29 175.03 -92.51 50.71 -161.73 58.96 -29.64 75.41 -147.27 135.09 -73.13 -102.50 6.01 
USER  
USER                              x       y       z    vdW   Elec        q     RMS 
ATOM      1  O   UNL d   1       9.708  13.349 -12.134 -0.18 +0.01    -0.289    17.360
ATOM      2  O   UNL d   1       8.828  18.660  -6.898 -0.09 -0.04    -0.289    17.360
ATOM      3  N   UNL d   1      12.012  13.901  -9.628 -0.11 +0.04    -0.247    17.360
ATOM      4  N   UNL d   1      10.975  16.333  -8.271 -0.07 +0.02    -0.247    17.360
ATOM      5  N   UNL d   1      13.516  16.563  -6.944 -0.05 +0.15    -0.354    17.360
ATOM      6  N   UNL d   1      14.590  14.051  -8.371 -0.01 +0.08    -0.354    17.360
ATOM      7  C   UNL d   1      11.931  12.473 -11.618 -0.20 -0.02    +0.084    17.360
ATOM      8  C   UNL d   1       8.573  16.754  -8.414 -0.20 +0.01    +0.084    17.360
ATOM      9  C   UNL d   1       9.787  15.919  -8.831 -0.20 +0.00    +0.058    17.360
ATOM     10  C   UNL d   1      12.695  12.964 -10.385 -0.18 -0.01    +0.058    17.360
ATOM     11  C   UNL d   1      10.688  13.286 -11.415 -0.18 -0.02    +0.193    17.360
ATOM     12  C   UNL d   1      10.849  14.090 -10.162 -0.20 -0.01    +0.109    17.360
ATOM     13  C   UNL d   1       9.297  17.742  -7.544 -0.09 +0.02    +0.193    17.360
ATOM     14  C   UNL d   1      12.602  12.913 -12.922 -0.10 -0.00    +0.026    17.360
ATOM     15  C   UNL d   1       9.705  14.904  -9.706 -0.29 -0.00    +0.055    17.360
ATOM     16  C   UNL d   1       7.602  15.951  -7.544 -0.25 +0.01    +0.026    17.360
ATOM     17  C   UNL d   1      10.747  17.381  -7.547 -0.09 -0.01    +0.109    17.360
ATOM     18  C   UNL d   1      13.887  12.441 -10.042 -0.19 -0.02    +0.050    17.360
ATOM     19  C   UNL d   1      14.626  12.771  -8.877 -0.17 -0.01    +0.045    17.360
ATOM     20  C   UNL d   1      12.959  17.767  -6.598 -0.10 -0.02    +0.045    17.360
ATOM     21  C   UNL d   1      11.714  18.206  -6.808 -0.10 -0.01    +0.057    17.360
ATOM     22  C   UNL d   1      15.136  17.733  -5.905 -0.09 +0.01    -0.019    17.360
ATOM     23  C   UNL d   1      14.828  16.450  -6.568 -0.11 -0.02    +0.045    17.360
ATOM     24  C   UNL d   1      14.026  18.508  -5.925 -0.08 +0.02    -0.022    17.360
ATOM     25  C   UNL d   1      15.444  14.171  -7.300 -0.10 -0.01    +0.049    17.360
ATOM     26  C   UNL d   1      15.497  12.031  -8.093 -0.26 +0.01    -0.018    17.360
ATOM     27  C   UNL d   1      15.996  12.915  -7.087 -0.19 -0.00    +0.003    17.360
ATOM     28  C   UNL d   1      15.697  15.438  -6.708 -0.12 -0.02    +0.052    17.360
ATOM     29  C   UNL d   1      13.835  19.879  -5.372 -0.06 -0.02    +0.046    17.360
ATOM     30  C   UNL d   1      15.845  10.591  -8.264 -0.30 -0.01    +0.046    17.360
ATOM     31  H   UNL d   1      12.958  15.826  -7.362 +0.05 -0.05    +0.166    17.360
ATOM     32  H   UNL d   1      14.035  14.797  -8.774 +0.04 -0.03    +0.166    17.360
ATOM     33  C   UNL d   1      11.599  10.977 -11.633 -0.07 -0.04    +0.141    17.360
ATOM     34  C   UNL d   1      12.556  10.180 -12.477 -0.21 -0.09    +0.306    17.360
ATOM     35  O   UNL d   1      12.315   9.680 -13.563 -0.21 +0.05    -0.251    17.360
ATOM     36  O   UNL d   1      13.769  10.056 -11.909 -0.21 +0.22    -0.481    17.360
ATOM     37  H   UNL d   1      13.583   9.747 -10.997 -0.42 -0.26    +0.295    17.360
ATOM     38  C   UNL d   1      16.941  12.560  -6.071 -0.31 -0.01    +0.017    17.360
ATOM     39  C   UNL d   1      18.185  13.051  -5.965 -0.19 -0.03    +0.092    17.360
ATOM     40  C   UNL d   1      19.050  12.617  -4.864 -0.15 -0.10    +0.330    17.360
ATOM     41  O   UNL d   1      19.383  11.481  -4.584 -0.26 +0.08    -0.246    17.360
ATOM     42  O   UNL d   1      19.468  13.679  -4.160 -0.06 +0.13    -0.477    17.360
ATOM     43  H   UNL d   1      19.122  14.446  -4.661 +0.07 -0.08    +0.295    17.360
ATOM     44  C   UNL d   1       7.837  17.465  -9.555 -0.10 +0.02    +0.141    17.360
ATOM     45  C   UNL d   1       6.810  16.596 -10.231 -0.08 +0.04    +0.306    17.360
ATOM     46  O   UNL d   1       7.028  15.672 -10.995 -0.15 -0.03    -0.251    17.360
ATOM     47  O   UNL d   1       5.550  16.958  -9.928 -0.04 -0.09    -0.481    17.360
ATOM     48  H   UNL d   1       5.328  17.654 -10.582 +0.06 +0.03    +0.295    17.360
ATOM     49  C   UNL d   1      16.478  18.085  -5.334 -0.10 -0.03    +0.048    17.360
ATOM     50  C   UNL d   1      16.717  17.406  -3.985 +0.03 -0.13    +0.125    17.360
ATOM     51  C   UNL d   1      17.728  16.301  -4.113 -0.10 -0.18    +0.305    17.360
ATOM     52  O   UNL d   1      18.921  16.408  -4.334 -0.05 +0.09    -0.251    17.360
ATOM     53  O   UNL d   1      17.166  15.085  -3.964 -0.07 +0.26    -0.481    17.360
ATOM     54  H   UNL d   1      17.735  14.640  -3.300 +0.07 -0.13    +0.295    17.360
TER
ENDMDL
MODEL       52
USER    Run = 52
USER    Cluster Rank = 57
USER    Number of conformations in this cluster = 1
USER  
USER    RMSD from reference structure       = 20.005 A
USER  
USER    Estimated Free Energy of Binding    =   -3.12 kcal/mol  [=(1)+(2)+(3)-(4)]
USER    Estimated Inhibition Constant, Ki   =    5.15 mM (millimolar)  [Temperature = 298.15 K]
USER    
USER    (1) Final Intermolecular Energy     =   -7.00 kcal/mol
USER        vdW + Hbond + desolv Energy     =   -6.69 kcal/mol
USER        Electrostatic Energy            =   -0.31 kcal/mol
USER    (2) Final Total Internal Energy     =   -4.05 kcal/mol
USER    (3) Torsional Free Energy           =   +3.88 kcal/mol
USER    (4) Unbound System's Energy  [=(2)] =   -4.05 kcal/mol
USER    
USER    
USER  
USER    DPF = D:/Protein_go_brrr/autodock/final/mut_Y35F/heme/dock.dpf
USER    NEWDPF move	heme_opt.pdbqt
USER    NEWDPF about	0.153000 0.018000 -0.028000
USER    NEWDPF tran0	-5.923018 -16.434754 -14.944777
USER    NEWDPF axisangle0	-0.840536 -0.537548 -0.067390 -127.581066
USER    NEWDPF quaternion0	-0.754117 -0.482280 -0.060461 -0.441654
USER    NEWDPF dihe0	168.49 128.56 -105.64 3.43 -149.60 87.90 173.31 -163.03 8.69 19.69 63.47 -98.86 116.57 
USER  
USER                              x       y       z    vdW   Elec        q     RMS 
ATOM      1  O   UNL d   1      -7.781 -19.991 -19.264 -0.01 -0.11    -0.289    20.005
ATOM      2  O   UNL d   1     -10.580 -18.668 -12.422 -0.04 -0.04    -0.289    20.005
ATOM      3  N   UNL d   1      -6.251 -17.894 -16.993 -0.01 -0.17    -0.247    20.005
ATOM      4  N   UNL d   1      -8.204 -17.767 -14.757 -0.11 -0.10    -0.247    20.005
ATOM      5  N   UNL d   1      -6.733 -15.524 -13.722 -0.12 -0.06    -0.354    20.005
ATOM      6  N   UNL d   1      -4.723 -15.650 -16.056 -0.05 -0.09    -0.354    20.005
ATOM      7  C   UNL d   1      -5.857 -18.486 -19.339 -0.04 +0.03    +0.084    20.005
ATOM      8  C   UNL d   1      -9.708 -19.673 -14.477 -0.07 +0.03    +0.084    20.005
ATOM      9  C   UNL d   1      -8.622 -18.965 -15.294 -0.11 +0.03    +0.058    20.005
ATOM     10  C   UNL d   1      -5.452 -17.676 -18.103 -0.07 +0.03    +0.058    20.005
ATOM     11  C   UNL d   1      -7.015 -19.213 -18.725 -0.05 +0.10    +0.193    20.005
ATOM     12  C   UNL d   1      -7.136 -18.788 -17.295 -0.03 +0.08    +0.109    20.005
ATOM     13  C   UNL d   1      -9.856 -18.637 -13.398 -0.07 +0.04    +0.193    20.005
ATOM     14  C   UNL d   1      -6.376 -17.590 -20.467 -0.01 +0.00    +0.026    20.005
ATOM     15  C   UNL d   1      -8.158 -19.447 -16.457 -0.10 +0.04    +0.055    20.005
ATOM     16  C   UNL d   1      -9.191 -20.970 -13.848 -0.11 +0.01    +0.026    20.005
ATOM     17  C   UNL d   1      -8.894 -17.531 -13.688 -0.14 +0.03    +0.109    20.005
ATOM     18  C   UNL d   1      -4.354 -16.898 -18.101 -0.06 +0.02    +0.050    20.005
ATOM     19  C   UNL d   1      -3.855 -16.181 -16.984 -0.07 +0.01    +0.045    20.005
ATOM     20  C   UNL d   1      -7.838 -15.475 -12.913 -0.27 +0.00    +0.045    20.005
ATOM     21  C   UNL d   1      -8.845 -16.348 -12.816 -0.25 +0.01    +0.057    20.005
ATOM     22  C   UNL d   1      -6.552 -13.628 -12.520 -0.33 +0.00    -0.019    20.005
ATOM     23  C   UNL d   1      -5.898 -14.451 -13.557 -0.24 +0.00    +0.045    20.005
ATOM     24  C   UNL d   1      -7.699 -14.240 -12.142 -0.40 +0.00    -0.022    20.005
ATOM     25  C   UNL d   1      -4.035 -14.923 -15.112 -0.15 +0.01    +0.049    20.005
ATOM     26  C   UNL d   1      -2.569 -15.821 -16.613 -0.06 -0.00    -0.018    20.005
ATOM     27  C   UNL d   1      -2.687 -15.043 -15.420 -0.11 +0.00    +0.003    20.005
ATOM     28  C   UNL d   1      -4.728 -14.151 -14.141 -0.23 +0.00    +0.052    20.005
ATOM     29  C   UNL d   1      -8.695 -13.806 -11.121 -0.27 -0.00    +0.046    20.005
ATOM     30  C   UNL d   1      -1.306 -16.178 -17.321 -0.02 +0.01    +0.046    20.005
ATOM     31  H   UNL d   1      -6.547 -16.329 -14.310 +0.03 +0.06    +0.166    20.005
ATOM     32  H   UNL d   1      -5.729 -15.758 -16.104 +0.02 +0.04    +0.166    20.005
ATOM     33  C   UNL d   1      -4.806 -19.479 -19.847 -0.03 +0.06    +0.141    20.005
ATOM     34  C   UNL d   1      -4.379 -20.461 -18.790 +0.00 +0.31    +0.306    20.005
ATOM     35  O   UNL d   1      -3.404 -20.360 -18.065 -0.36 -0.30    -0.251    20.005
ATOM     36  O   UNL d   1      -5.205 -21.518 -18.701 -0.53 -0.57    -0.481    20.005
ATOM     37  H   UNL d   1      -6.003 -21.251 -19.204 +0.01 +0.21    +0.295    20.005
ATOM     38  C   UNL d   1      -1.594 -14.455 -14.707 -0.14 +0.00    +0.017    20.005
ATOM     39  C   UNL d   1      -1.415 -13.140 -14.511 -0.14 +0.00    +0.092    20.005
ATOM     40  C   UNL d   1      -0.258 -12.667 -13.745 -0.17 -0.03    +0.330    20.005
ATOM     41  O   UNL d   1       0.864 -12.442 -14.156 -0.22 +0.02    -0.246    20.005
ATOM     42  O   UNL d   1      -0.598 -12.488 -12.459 -0.13 +0.13    -0.477    20.005
ATOM     43  H   UNL d   1      -1.400 -11.927 -12.504 -0.22 -0.09    +0.295    20.005
ATOM     44  C   UNL d   1     -11.037 -19.901 -15.204 -0.01 +0.03    +0.141    20.005
ATOM     45  C   UNL d   1     -11.336 -18.849 -16.240 +0.00 +0.04    +0.306    20.005
ATOM     46  O   UNL d   1     -11.654 -19.042 -17.400 -0.00 -0.03    -0.251    20.005
ATOM     47  O   UNL d   1     -11.192 -17.600 -15.761 +0.01 -0.06    -0.481    20.005
ATOM     48  H   UNL d   1     -10.222 -17.473 -15.688 +0.03 +0.05    +0.295    20.005
ATOM     49  C   UNL d   1      -6.008 -12.325 -12.011 -0.36 -0.01    +0.048    20.005
ATOM     50  C   UNL d   1      -5.266 -11.554 -13.103 -0.19 -0.01    +0.125    20.005
ATOM     51  C   UNL d   1      -3.809 -11.414 -12.764 -0.19 -0.04    +0.305    20.005
ATOM     52  O   UNL d   1      -2.982 -10.711 -13.318 -0.17 +0.02    -0.251    20.005
ATOM     53  O   UNL d   1      -3.455 -12.196 -11.725 -0.06 +0.13    -0.481    20.005
ATOM     54  H   UNL d   1      -2.511 -11.980 -11.575 -0.25 -0.18    +0.295    20.005
TER
ENDMDL
MODEL       82
USER    Run = 82
USER    Cluster Rank = 58
USER    Number of conformations in this cluster = 1
USER  
USER    RMSD from reference structure       = 15.146 A
USER  
USER    Estimated Free Energy of Binding    =   -3.03 kcal/mol  [=(1)+(2)+(3)-(4)]
USER    Estimated Inhibition Constant, Ki   =    6.04 mM (millimolar)  [Temperature = 298.15 K]
USER    
USER    (1) Final Intermolecular Energy     =   -6.91 kcal/mol
USER        vdW + Hbond + desolv Energy     =   -6.85 kcal/mol
USER        Electrostatic Energy            =   -0.05 kcal/mol
USER    (2) Final Total Internal Energy     =   -3.51 kcal/mol
USER    (3) Torsional Free Energy           =   +3.88 kcal/mol
USER    (4) Unbound System's Energy  [=(2)] =   -3.51 kcal/mol
USER    
USER    
USER  
USER    DPF = D:/Protein_go_brrr/autodock/final/mut_Y35F/heme/dock.dpf
USER    NEWDPF move	heme_opt.pdbqt
USER    NEWDPF about	0.153000 0.018000 -0.028000
USER    NEWDPF tran0	15.677322 10.762498 4.130318
USER    NEWDPF axisangle0	0.572061 0.099302 -0.814178 68.685111
USER    NEWDPF quaternion0	0.322722 0.056020 -0.459310 0.825680
USER    NEWDPF dihe0	169.30 180.00 -140.30 21.31 60.64 -47.20 -42.88 -179.73 158.88 135.52 67.12 -37.64 128.36 
USER  
USER                              x       y       z    vdW   Elec        q     RMS 
ATOM      1  O   UNL d   1      10.997   7.240   4.797 -0.02 -0.05    -0.289    15.146
ATOM      2  O   UNL d   1      18.273   6.099   6.264 -0.02 -0.09    -0.289    15.146
ATOM      3  N   UNL d   1      13.432   9.583   4.106 -0.15 -0.03    -0.247    15.146
ATOM      4  N   UNL d   1      15.883   8.389   5.286 -0.19 -0.08    -0.247    15.146
ATOM      5  N   UNL d   1      17.159  10.949   4.996 +0.03 -0.13    -0.354    15.146
ATOM      6  N   UNL d   1      14.605  12.186   3.791 -0.07 -0.02    -0.354    15.146
ATOM      7  C   UNL d   1      10.983   9.551   4.000 -0.27 -0.00    +0.084    15.146
ATOM      8  C   UNL d   1      15.957   5.955   5.484 -0.12 +0.03    +0.084    15.146
ATOM      9  C   UNL d   1      15.169   7.221   5.134 -0.16 +0.02    +0.058    15.146
ATOM     10  C   UNL d   1      12.296  10.316   3.806 -0.25 -0.00    +0.058    15.146
ATOM     11  C   UNL d   1      11.580   8.250   4.445 -0.20 +0.02    +0.193    15.146
ATOM     12  C   UNL d   1      13.071   8.388   4.444 -0.21 +0.02    +0.109    15.146
ATOM     13  C   UNL d   1      17.238   6.622   5.899 -0.05 +0.06    +0.193    15.146
ATOM     14  C   UNL d   1      10.145  10.128   5.143 -0.12 +0.00    +0.026    15.146
ATOM     15  C   UNL d   1      13.880   7.195   4.761 -0.22 +0.01    +0.055    15.146
ATOM     16  C   UNL d   1      16.228   5.094   4.247 -0.34 +0.01    +0.026    15.146
ATOM     17  C   UNL d   1      17.060   8.097   5.740 -0.09 +0.04    +0.109    15.146
ATOM     18  C   UNL d   1      12.314  11.563   3.299 -0.24 -0.01    +0.050    15.146
ATOM     19  C   UNL d   1      13.481  12.315   3.007 -0.28 -0.00    +0.045    15.146
ATOM     20  C   UNL d   1      18.100  10.302   5.755 -0.07 +0.01    +0.045    15.146
ATOM     21  C   UNL d   1      18.145   9.016   6.115 -0.08 +0.02    +0.057    15.146
ATOM     22  C   UNL d   1      18.694  12.499   5.557 -0.04 -0.00    -0.019    15.146
ATOM     23  C   UNL d   1      17.432  12.280   4.823 +0.03 +0.01    +0.045    15.146
ATOM     24  C   UNL d   1      19.085  11.324   6.105 -0.04 -0.00    -0.022    15.146
ATOM     25  C   UNL d   1      15.580  13.068   3.387 -0.08 +0.00    +0.049    15.146
ATOM     26  C   UNL d   1      13.745  13.279   2.047 -0.37 +0.00    -0.018    15.146
ATOM     27  C   UNL d   1      15.079  13.737   2.279 -0.28 -0.00    +0.003    15.146
ATOM     28  C   UNL d   1      16.774  13.230   4.141 -0.08 +0.01    +0.052    15.146
ATOM     29  C   UNL d   1      20.296  11.034   6.925 -0.01 +0.01    +0.046    15.146
ATOM     30  C   UNL d   1      12.818  13.747   0.976 -0.48 -0.01    +0.046    15.146
ATOM     31  H   UNL d   1      16.397  10.443   4.559 +0.06 +0.12    +0.166    15.146
ATOM     32  H   UNL d   1      14.669  11.551   4.579 +0.05 +0.03    +0.166    15.146
ATOM     33  C   UNL d   1      10.145   9.353   2.732 -0.27 -0.02    +0.141    15.146
ATOM     34  C   UNL d   1       8.677   9.202   3.026 -0.33 -0.00    +0.306    15.146
ATOM     35  O   UNL d   1       7.793   9.973   2.694 -0.38 -0.00    -0.251    15.146
ATOM     36  O   UNL d   1       8.400   8.085   3.721 -0.16 -0.05    -0.481    15.146
ATOM     37  H   UNL d   1       9.221   7.550   3.667 +0.16 +0.02    +0.295    15.146
ATOM     38  C   UNL d   1      15.748  14.749   1.519 -0.28 -0.01    +0.017    15.146
ATOM     39  C   UNL d   1      16.994  15.193   1.748 -0.19 -0.03    +0.092    15.146
ATOM     40  C   UNL d   1      17.572  16.224   0.882 -0.08 -0.18    +0.330    15.146
ATOM     41  O   UNL d   1      17.599  16.245  -0.333 -0.13 +0.23    -0.246    15.146
ATOM     42  O   UNL d   1      18.093  17.212   1.626 -0.00 +0.16    -0.477    15.146
ATOM     43  H   UNL d   1      17.919  16.929   2.548 +0.03 -0.07    +0.295    15.146
ATOM     44  C   UNL d   1      15.380   5.114   6.628 -0.07 +0.05    +0.141    15.146
ATOM     45  C   UNL d   1      14.330   4.135   6.176 -0.11 +0.13    +0.306    15.146
ATOM     46  O   UNL d   1      13.137   4.352   6.056 -0.75 -0.16    -0.251    15.146
ATOM     47  O   UNL d   1      14.839   2.915   5.922 -0.03 -0.16    -0.481    15.146
ATOM     48  H   UNL d   1      15.509   2.775   6.624 +0.09 +0.09    +0.295    15.146
ATOM     49  C   UNL d   1      19.387  13.826   5.666 -0.02 +0.00    +0.048    15.146
ATOM     50  C   UNL d   1      18.406  14.954   5.984 -0.00 +0.00    +0.125    15.146
ATOM     51  C   UNL d   1      18.276  15.896   4.820 +0.00 -0.01    +0.305    15.146
ATOM     52  O   UNL d   1      17.509  16.836   4.707 -0.00 +0.02    -0.251    15.146
ATOM     53  O   UNL d   1      19.134  15.591   3.827 +0.01 +0.02    -0.481    15.146
ATOM     54  H   UNL d   1      19.208  16.422   3.312 +0.02 -0.03    +0.295    15.146
TER
ENDMDL
MODEL       98
USER    Run = 98
USER    Cluster Rank = 59
USER    Number of conformations in this cluster = 1
USER  
USER    RMSD from reference structure       = 18.488 A
USER  
USER    Estimated Free Energy of Binding    =   -2.92 kcal/mol  [=(1)+(2)+(3)-(4)]
USER    Estimated Inhibition Constant, Ki   =    7.28 mM (millimolar)  [Temperature = 298.15 K]
USER    
USER    (1) Final Intermolecular Energy     =   -6.79 kcal/mol
USER        vdW + Hbond + desolv Energy     =   -6.63 kcal/mol
USER        Electrostatic Energy            =   -0.17 kcal/mol
USER    (2) Final Total Internal Energy     =   -4.36 kcal/mol
USER    (3) Torsional Free Energy           =   +3.88 kcal/mol
USER    (4) Unbound System's Energy  [=(2)] =   -4.36 kcal/mol
USER    
USER    
USER  
USER    DPF = D:/Protein_go_brrr/autodock/final/mut_Y35F/heme/dock.dpf
USER    NEWDPF move	heme_opt.pdbqt
USER    NEWDPF about	0.153000 0.018000 -0.028000
USER    NEWDPF tran0	-10.309190 -18.596622 -6.794880
USER    NEWDPF axisangle0	-0.886121 -0.120075 -0.447628 -125.994052
USER    NEWDPF quaternion0	-0.789519 -0.106985 -0.398829 -0.454037
USER    NEWDPF dihe0	-153.67 122.67 104.67 -78.79 48.33 10.30 -47.28 -7.40 163.25 -131.00 -53.48 -46.09 7.29 
USER  
USER                              x       y       z    vdW   Elec        q     RMS 
ATOM      1  O   UNL d   1     -12.765 -17.946 -12.115 -0.02 -0.02    -0.289    18.488
ATOM      2  O   UNL d   1     -15.475 -16.613  -5.240 -0.07 -0.02    -0.289    18.488
ATOM      3  N   UNL d   1     -10.979 -18.616  -9.241 -0.03 -0.01    -0.247    18.488
ATOM      4  N   UNL d   1     -12.701 -17.501  -7.092 -0.09 -0.04    -0.247    18.488
ATOM      5  N   UNL d   1     -10.467 -17.748  -5.300 -0.10 -0.01    -0.354    18.488
ATOM      6  N   UNL d   1      -8.681 -18.886  -7.540 -0.15 +0.04    -0.354    18.488
ATOM      7  C   UNL d   1     -10.484 -18.688 -11.640 -0.10 +0.01    +0.084    18.488
ATOM      8  C   UNL d   1     -15.100 -17.362  -7.540 -0.08 +0.01    +0.084    18.488
ATOM      9  C   UNL d   1     -13.685 -17.670  -8.041 -0.12 +0.01    +0.058    18.488
ATOM     10  C   UNL d   1     -10.013 -18.882 -10.196 -0.16 +0.00    +0.058    18.488
ATOM     11  C   UNL d   1     -11.894 -18.283 -11.333 -0.05 +0.02    +0.193    18.488
ATOM     12  C   UNL d   1     -12.078 -18.302  -9.847 -0.08 +0.01    +0.109    18.488
ATOM     13  C   UNL d   1     -14.733 -16.950  -6.142 -0.10 +0.02    +0.193    18.488
ATOM     14  C   UNL d   1      -9.771 -17.519 -12.325 -0.21 +0.00    +0.026    18.488
ATOM     15  C   UNL d   1     -13.425 -18.025  -9.309 -0.10 +0.00    +0.055    18.488
ATOM     16  C   UNL d   1     -15.965 -18.624  -7.470 -0.03 +0.00    +0.026    18.488
ATOM     17  C   UNL d   1     -13.251 -17.071  -6.001 -0.16 +0.02    +0.109    18.488
ATOM     18  C   UNL d   1      -8.785 -19.359  -9.916 -0.20 -0.00    +0.050    18.488
ATOM     19  C   UNL d   1      -8.293 -19.650  -8.618 -0.18 -0.00    +0.045    18.488
ATOM     20  C   UNL d   1     -11.320 -17.019  -4.513 -0.21 +0.00    +0.045    18.488
ATOM     21  C   UNL d   1     -12.595 -16.690  -4.741 -0.23 +0.01    +0.057    18.488
ATOM     22  C   UNL d   1      -9.297 -17.173  -3.463 -0.24 +0.00    -0.019    18.488
ATOM     23  C   UNL d   1      -9.221 -17.894  -4.749 -0.24 -0.00    +0.045    18.488
ATOM     24  C   UNL d   1     -10.542 -16.659  -3.328 -0.19 +0.00    -0.022    18.488
ATOM     25  C   UNL d   1      -8.018 -19.283  -6.403 -0.24 -0.00    +0.049    18.488
ATOM     26  C   UNL d   1      -7.383 -20.591  -8.162 -0.22 +0.00    -0.018    18.488
ATOM     27  C   UNL d   1      -7.228 -20.367  -6.759 -0.21 -0.00    +0.003    18.488
ATOM     28  C   UNL d   1      -8.134 -18.543  -5.195 -0.28 -0.01    +0.052    18.488
ATOM     29  C   UNL d   1     -11.106 -15.864  -2.200 -0.13 +0.00    +0.046    18.488
ATOM     30  C   UNL d   1      -6.700 -21.636  -8.977 -0.16 +0.00    +0.046    18.488
ATOM     31  H   UNL d   1     -10.786 -18.186  -6.157 +0.05 +0.01    +0.166    18.488
ATOM     32  H   UNL d   1      -9.335 -18.115  -7.606 +0.03 -0.01    +0.166    18.488
ATOM     33  C   UNL d   1     -10.465 -19.947 -12.513 -0.05 +0.02    +0.141    18.488
ATOM     34  C   UNL d   1     -10.201 -19.643 -13.963 -0.03 +0.07    +0.306    18.488
ATOM     35  O   UNL d   1      -9.144 -19.797 -14.551 -0.09 -0.11    -0.251    18.488
ATOM     36  O   UNL d   1     -11.286 -19.164 -14.597 +0.01 -0.07    -0.481    18.488
ATOM     37  H   UNL d   1     -11.839 -18.780 -13.884 +0.02 +0.03    +0.295    18.488
ATOM     38  C   UNL d   1      -6.362 -21.113  -5.895 -0.15 -0.00    +0.017    18.488
ATOM     39  C   UNL d   1      -6.078 -20.796  -4.623 -0.12 -0.02    +0.092    18.488
ATOM     40  C   UNL d   1      -5.188 -21.655  -3.838 -0.08 -0.03    +0.330    18.488
ATOM     41  O   UNL d   1      -4.527 -22.597  -4.231 -0.10 +0.02    -0.246    18.488
ATOM     42  O   UNL d   1      -5.174 -21.257  -2.556 -0.24 -0.27    -0.477    18.488
ATOM     43  H   UNL d   1      -4.887 -20.322  -2.604 -0.27 +0.19    +0.295    18.488
ATOM     44  C   UNL d   1     -15.827 -16.230  -8.273 -0.11 +0.01    +0.141    18.488
ATOM     45  C   UNL d   1     -17.217 -15.981  -7.750 -0.05 +0.01    +0.306    18.488
ATOM     46  O   UNL d   1     -18.248 -16.488  -8.156 -0.02 -0.00    -0.251    18.488
ATOM     47  O   UNL d   1     -17.238 -15.077  -6.754 -0.04 -0.03    -0.481    18.488
ATOM     48  H   UNL d   1     -16.907 -15.565  -5.970 +0.05 +0.01    +0.295    18.488
ATOM     49  C   UNL d   1      -8.152 -17.043  -2.501 -0.31 -0.00    +0.048    18.488
ATOM     50  C   UNL d   1      -7.917 -18.334  -1.719 -0.15 +0.00    +0.125    18.488
ATOM     51  C   UNL d   1      -6.483 -18.770  -1.822 -0.16 +0.05    +0.305    18.488
ATOM     52  O   UNL d   1      -5.637 -18.363  -2.597 -0.41 +0.01    -0.251    18.488
ATOM     53  O   UNL d   1      -6.183 -19.732  -0.926 -0.09 -0.24    -0.481    18.488
ATOM     54  H   UNL d   1      -6.207 -20.561  -1.450 +0.06 +0.14    +0.295    18.488
TER
ENDMDL
MODEL       31
USER    Run = 31
USER    Cluster Rank = 60
USER    Number of conformations in this cluster = 1
USER  
USER    RMSD from reference structure       = 15.150 A
USER  
USER    Estimated Free Energy of Binding    =   -2.89 kcal/mol  [=(1)+(2)+(3)-(4)]
USER    Estimated Inhibition Constant, Ki   =    7.56 mM (millimolar)  [Temperature = 298.15 K]
USER    
USER    (1) Final Intermolecular Energy     =   -6.77 kcal/mol
USER        vdW + Hbond + desolv Energy     =   -6.45 kcal/mol
USER        Electrostatic Energy            =   -0.32 kcal/mol
USER    (2) Final Total Internal Energy     =   -4.43 kcal/mol
USER    (3) Torsional Free Energy           =   +3.88 kcal/mol
USER    (4) Unbound System's Energy  [=(2)] =   -4.43 kcal/mol
USER    
USER    
USER  
USER    DPF = D:/Protein_go_brrr/autodock/final/mut_Y35F/heme/dock.dpf
USER    NEWDPF move	heme_opt.pdbqt
USER    NEWDPF about	0.153000 0.018000 -0.028000
USER    NEWDPF tran0	0.355922 12.642311 -12.135625
USER    NEWDPF axisangle0	-0.442034 -0.867072 -0.229765 -125.617543
USER    NEWDPF quaternion0	-0.393183 -0.771249 -0.204373 -0.456962
USER    NEWDPF dihe0	-119.38 155.73 105.66 -60.02 63.59 -27.88 -39.06 -91.25 22.06 -127.31 -100.88 2.59 -10.79 
USER  
USER                              x       y       z    vdW   Elec        q     RMS 
ATOM      1  O   UNL d   1       2.876  11.750 -17.390 -0.01 +0.01    -0.289    15.150
ATOM      2  O   UNL d   1      -1.903   7.519 -13.434 -0.11 +0.01    -0.289    15.150
ATOM      3  N   UNL d   1       1.757  12.635 -14.250 -0.08 +0.01    -0.247    15.150
ATOM      4  N   UNL d   1      -0.275  10.555 -13.638 -0.09 +0.01    -0.247    15.150
ATOM      5  N   UNL d   1      -1.169  12.202 -11.457 -0.02 +0.03    -0.354    15.150
ATOM      6  N   UNL d   1       0.930  14.363 -12.111 -0.13 +0.01    -0.354    15.150
ATOM      7  C   UNL d   1       3.119  13.725 -15.971 -0.05 -0.00    +0.084    15.150
ATOM      8  C   UNL d   1      -0.027   8.390 -14.743 -0.19 -0.01    +0.084    15.150
ATOM      9  C   UNL d   1       0.438   9.840 -14.574 -0.19 -0.00    +0.058    15.150
ATOM     10  C   UNL d   1       2.460  13.779 -14.590 -0.12 -0.00    +0.058    15.150
ATOM     11  C   UNL d   1       2.681  12.341 -16.344 -0.04 -0.01    +0.193    15.150
ATOM     12  C   UNL d   1       1.884  11.776 -15.209 -0.12 -0.00    +0.109    15.150
ATOM     13  C   UNL d   1      -1.160   8.425 -13.757 -0.13 -0.01    +0.193    15.150
ATOM     14  C   UNL d   1       2.491  14.724 -16.947 -0.01 -0.00    +0.026    15.150
ATOM     15  C   UNL d   1       1.421  10.378 -15.312 -0.18 -0.00    +0.055    15.150
ATOM     16  C   UNL d   1       1.026   7.394 -14.247 -0.35 -0.00    +0.026    15.150
ATOM     17  C   UNL d   1      -1.209   9.795 -13.162 -0.17 -0.01    +0.109    15.150
ATOM     18  C   UNL d   1       2.642  14.826 -13.763 -0.14 -0.00    +0.050    15.150
ATOM     19  C   UNL d   1       2.142  14.926 -12.440 -0.19 +0.00    +0.045    15.150
ATOM     20  C   UNL d   1      -2.169  11.264 -11.469 -0.18 -0.00    +0.045    15.150
ATOM     21  C   UNL d   1      -2.254  10.140 -12.187 -0.22 -0.00    +0.057    15.150
ATOM     22  C   UNL d   1      -2.720  12.912  -9.986 -0.14 +0.00    -0.019    15.150
ATOM     23  C   UNL d   1      -1.412  13.235 -10.592 -0.18 -0.01    +0.045    15.150
ATOM     24  C   UNL d   1      -3.162  11.743 -10.509 -0.15 +0.00    -0.022    15.150
ATOM     25  C   UNL d   1       0.599  14.656 -10.808 -0.23 -0.00    +0.049    15.150
ATOM     26  C   UNL d   1       2.629  15.569 -11.312 -0.22 -0.00    -0.018    15.150
ATOM     27  C   UNL d   1       1.659  15.379 -10.280 -0.25 -0.00    +0.003    15.150
ATOM     28  C   UNL d   1      -0.679  14.316 -10.286 -0.22 -0.01    +0.052    15.150
ATOM     29  C   UNL d   1      -4.419  11.002 -10.205 -0.16 -0.01    +0.046    15.150
ATOM     30  C   UNL d   1       3.916  16.314 -11.198 -0.19 +0.00    +0.046    15.150
ATOM     31  H   UNL d   1      -0.315  12.067 -11.987 +0.06 -0.01    +0.166    15.150
ATOM     32  H   UNL d   1       0.357  13.844 -12.765 +0.03 -0.01    +0.166    15.150
ATOM     33  C   UNL d   1       4.649  13.824 -15.973 -0.05 -0.00    +0.141    15.150
ATOM     34  C   UNL d   1       5.309  12.597 -15.403 -0.09 -0.00    +0.306    15.150
ATOM     35  O   UNL d   1       6.059  11.841 -15.997 -0.08 +0.01    -0.251    15.150
ATOM     36  O   UNL d   1       4.991  12.389 -14.113 -0.13 -0.01    -0.481    15.150
ATOM     37  H   UNL d   1       4.012  12.316 -14.109 +0.11 +0.00    +0.295    15.150
ATOM     38  C   UNL d   1       1.760  15.896  -8.948 -0.25 +0.00    +0.017    15.150
ATOM     39  C   UNL d   1       1.394  15.243  -7.834 -0.16 -0.01    +0.092    15.150
ATOM     40  C   UNL d   1       1.566  15.880  -6.526 -0.18 +0.03    +0.330    15.150
ATOM     41  O   UNL d   1       2.411  16.691  -6.198 -0.14 -0.17    -0.246    15.150
ATOM     42  O   UNL d   1       0.621  15.449  -5.675 -0.09 +0.27    -0.477    15.150
ATOM     43  H   UNL d   1      -0.110  15.164  -6.261 +0.09 -0.20    +0.295    15.150
ATOM     44  C   UNL d   1      -0.528   8.016 -16.142 -0.07 -0.01    +0.141    15.150
ATOM     45  C   UNL d   1      -1.039   6.602 -16.231 -0.04 -0.01    +0.306    15.150
ATOM     46  O   UNL d   1      -0.371   5.597 -16.399 -0.04 +0.01    -0.251    15.150
ATOM     47  O   UNL d   1      -2.379   6.532 -16.132 +0.00 +0.01    -0.481    15.150
ATOM     48  H   UNL d   1      -2.564   6.676 -15.179 +0.04 -0.00    +0.295    15.150
ATOM     49  C   UNL d   1      -3.415  13.774  -8.974 -0.11 -0.01    +0.048    15.150
ATOM     50  C   UNL d   1      -3.103  13.335  -7.543 -0.11 -0.06    +0.125    15.150
ATOM     51  C   UNL d   1      -1.763  13.853  -7.103 -0.16 -0.15    +0.305    15.150
ATOM     52  O   UNL d   1      -0.699  13.259  -7.108 -0.30 +0.10    -0.251    15.150
ATOM     53  O   UNL d   1      -1.835  15.122  -6.656 -0.04 +0.35    -0.481    15.150
ATOM     54  H   UNL d   1      -1.531  15.065  -5.726 -0.28 -0.44    +0.295    15.150
TER
ENDMDL
MODEL       21
USER    Run = 21
USER    Cluster Rank = 61
USER    Number of conformations in this cluster = 1
USER  
USER    RMSD from reference structure       = 18.654 A
USER  
USER    Estimated Free Energy of Binding    =   -2.89 kcal/mol  [=(1)+(2)+(3)-(4)]
USER    Estimated Inhibition Constant, Ki   =    7.61 mM (millimolar)  [Temperature = 298.15 K]
USER    
USER    (1) Final Intermolecular Energy     =   -6.77 kcal/mol
USER        vdW + Hbond + desolv Energy     =   -6.32 kcal/mol
USER        Electrostatic Energy            =   -0.45 kcal/mol
USER    (2) Final Total Internal Energy     =   -3.77 kcal/mol
USER    (3) Torsional Free Energy           =   +3.88 kcal/mol
USER    (4) Unbound System's Energy  [=(2)] =   -3.77 kcal/mol
USER    
USER    
USER  
USER    DPF = D:/Protein_go_brrr/autodock/final/mut_Y35F/heme/dock.dpf
USER    NEWDPF move	heme_opt.pdbqt
USER    NEWDPF about	0.153000 0.018000 -0.028000
USER    NEWDPF tran0	-5.438238 -14.713825 -14.955559
USER    NEWDPF axisangle0	-0.758713 -0.167504 -0.629522 53.108927
USER    NEWDPF quaternion0	-0.339181 -0.074882 -0.281427 0.894510
USER    NEWDPF dihe0	154.73 -104.98 -175.19 -86.61 -143.44 25.07 141.78 -13.15 12.26 -11.44 -15.12 -71.53 43.89 
USER  
USER                              x       y       z    vdW   Elec        q     RMS 
ATOM      1  O   UNL d   1     -10.652 -17.157 -13.687 -0.03 -0.04    -0.289    18.654
ATOM      2  O   UNL d   1      -5.964 -18.258 -19.450 -0.02 -0.10    -0.289    18.654
ATOM      3  N   UNL d   1      -7.728 -15.370 -14.085 -0.10 -0.03    -0.247    18.654
ATOM      4  N   UNL d   1      -6.434 -16.688 -16.413 -0.08 -0.10    -0.247    18.654
ATOM      5  N   UNL d   1      -4.013 -15.291 -15.740 -0.05 -0.07    -0.354    18.654
ATOM      6  N   UNL d   1      -5.358 -13.944 -13.315 -0.12 +0.00    -0.354    18.654
ATOM      7  C   UNL d   1      -9.441 -15.518 -12.338 -0.25 +0.01    +0.084    18.654
ATOM      8  C   UNL d   1      -7.895 -17.823 -18.010 -0.04 +0.03    +0.084    18.654
ATOM      9  C   UNL d   1      -7.727 -17.077 -16.682 -0.08 +0.02    +0.058    18.654
ATOM     10  C   UNL d   1      -8.125 -14.915 -12.839 -0.27 +0.00    +0.058    18.654
ATOM     11  C   UNL d   1      -9.726 -16.382 -13.529 -0.07 +0.02    +0.193    18.654
ATOM     12  C   UNL d   1      -8.630 -16.184 -14.529 -0.10 +0.02    +0.109    18.654
ATOM     13  C   UNL d   1      -6.451 -17.817 -18.427 -0.04 +0.08    +0.193    18.654
ATOM     14  C   UNL d   1      -9.232 -16.414 -11.115 -0.24 -0.00    +0.026    18.654
ATOM     15  C   UNL d   1      -8.746 -16.869 -15.833 -0.08 +0.01    +0.055    18.654
ATOM     16  C   UNL d   1      -8.703 -17.005 -19.022 -0.01 +0.00    +0.026    18.654
ATOM     17  C   UNL d   1      -5.670 -17.106 -17.371 -0.08 +0.05    +0.109    18.654
ATOM     18  C   UNL d   1      -7.481 -13.957 -12.146 -0.43 -0.01    +0.050    18.654
ATOM     19  C   UNL d   1      -6.308 -13.283 -12.569 -0.28 -0.01    +0.045    18.654
ATOM     20  C   UNL d   1      -3.532 -16.150 -16.693 -0.08 +0.01    +0.045    18.654
ATOM     21  C   UNL d   1      -4.210 -16.983 -17.489 -0.08 +0.02    +0.057    18.654
ATOM     22  C   UNL d   1      -1.774 -15.046 -15.740 -0.06 -0.00    -0.019    18.654
ATOM     23  C   UNL d   1      -3.026 -14.581 -15.110 -0.12 +0.01    +0.045    18.654
ATOM     24  C   UNL d   1      -2.080 -15.974 -16.677 -0.05 -0.00    -0.022    18.654
ATOM     25  C   UNL d   1      -4.268 -13.134 -13.537 -0.19 -0.00    +0.049    18.654
ATOM     26  C   UNL d   1      -5.840 -12.000 -12.332 -0.31 +0.00    -0.018    18.654
ATOM     27  C   UNL d   1      -4.561 -11.905 -12.963 -0.26 -0.00    +0.003    18.654
ATOM     28  C   UNL d   1      -3.092 -13.646 -14.150 -0.19 +0.00    +0.052    18.654
ATOM     29  C   UNL d   1      -1.163 -16.722 -17.584 -0.02 +0.01    +0.046    18.654
ATOM     30  C   UNL d   1      -6.538 -10.925 -11.570 -0.36 -0.01    +0.046    18.654
ATOM     31  H   UNL d   1      -5.010 -15.163 -15.601 +0.03 +0.03    +0.166    18.654
ATOM     32  H   UNL d   1      -5.450 -14.908 -13.613 +0.04 +0.02    +0.166    18.654
ATOM     33  C   UNL d   1     -10.579 -14.517 -12.113 -0.13 +0.02    +0.141    18.654
ATOM     34  C   UNL d   1     -10.955 -13.776 -13.368 -0.08 +0.03    +0.306    18.654
ATOM     35  O   UNL d   1     -10.468 -12.729 -13.759 -0.10 -0.02    -0.251    18.654
ATOM     36  O   UNL d   1     -11.923 -14.396 -14.066 -0.03 -0.04    -0.481    18.654
ATOM     37  H   UNL d   1     -11.818 -15.346 -13.843 +0.05 +0.03    +0.295    18.654
ATOM     38  C   UNL d   1      -3.718 -10.747 -12.949 -0.28 -0.00    +0.017    18.654
ATOM     39  C   UNL d   1      -2.377 -10.766 -12.908 -0.20 -0.01    +0.092    18.654
ATOM     40  C   UNL d   1      -1.629  -9.506 -12.917 -0.13 -0.02    +0.330    18.654
ATOM     41  O   UNL d   1      -2.022  -8.406 -12.579 -0.23 +0.00    -0.246    18.654
ATOM     42  O   UNL d   1      -0.379  -9.714 -13.359 -0.19 -0.01    -0.477    18.654
ATOM     43  H   UNL d   1      -0.488  -9.832 -14.325 +0.10 +0.01    +0.295    18.654
ATOM     44  C   UNL d   1      -8.429 -19.255 -17.901 -0.05 +0.06    +0.141    18.654
ATOM     45  C   UNL d   1      -7.533 -20.164 -17.103 +0.02 +0.31    +0.306    18.654
ATOM     46  O   UNL d   1      -7.660 -20.462 -15.928 -0.08 -0.34    -0.251    18.654
ATOM     47  O   UNL d   1      -6.499 -20.632 -17.826 -0.08 -0.68    -0.481    18.654
ATOM     48  H   UNL d   1      -6.582 -20.184 -18.694 +0.01 +0.22    +0.295    18.654
ATOM     49  C   UNL d   1      -0.407 -14.556 -15.361 -0.07 +0.00    +0.048    18.654
ATOM     50  C   UNL d   1      -0.399 -13.053 -15.082 -0.08 -0.00    +0.125    18.654
ATOM     51  C   UNL d   1       0.865 -12.645 -14.380 -0.14 -0.02    +0.305    18.654
ATOM     52  O   UNL d   1       1.637 -13.359 -13.765 -0.18 +0.04    -0.251    18.654
ATOM     53  O   UNL d   1       1.092 -11.320 -14.480 -0.54 -0.04    -0.481    18.654
ATOM     54  H   UNL d   1       0.683 -10.946 -13.672 +0.09 +0.03    +0.295    18.654
TER
ENDMDL
MODEL       58
USER    Run = 58
USER    Cluster Rank = 62
USER    Number of conformations in this cluster = 1
USER  
USER    RMSD from reference structure       = 19.618 A
USER  
USER    Estimated Free Energy of Binding    =   -2.87 kcal/mol  [=(1)+(2)+(3)-(4)]
USER    Estimated Inhibition Constant, Ki   =    7.91 mM (millimolar)  [Temperature = 298.15 K]
USER    
USER    (1) Final Intermolecular Energy     =   -6.75 kcal/mol
USER        vdW + Hbond + desolv Energy     =   -6.71 kcal/mol
USER        Electrostatic Energy            =   -0.04 kcal/mol
USER    (2) Final Total Internal Energy     =   -4.88 kcal/mol
USER    (3) Torsional Free Energy           =   +3.88 kcal/mol
USER    (4) Unbound System's Energy  [=(2)] =   -4.88 kcal/mol
USER    
USER    
USER  
USER    DPF = D:/Protein_go_brrr/autodock/final/mut_Y35F/heme/dock.dpf
USER    NEWDPF move	heme_opt.pdbqt
USER    NEWDPF about	0.153000 0.018000 -0.028000
USER    NEWDPF tran0	16.521154 12.081007 -11.770323
USER    NEWDPF axisangle0	0.299798 -0.704422 0.643359 -127.561663
USER    NEWDPF quaternion0	0.268952 -0.631944 0.577164 -0.441806
USER    NEWDPF dihe0	131.91 111.68 -107.23 -48.85 -134.51 113.36 128.60 40.43 22.02 -36.44 -83.24 -100.70 1.74 
USER  
USER                              x       y       z    vdW   Elec        q     RMS 
ATOM      1  O   UNL d   1      17.534  10.819 -17.439 -0.03 +0.04    -0.289    19.618
ATOM      2  O   UNL d   1      22.267  12.240 -11.785 -0.01 +0.06    -0.289    19.618
ATOM      3  N   UNL d   1      16.460  11.653 -14.270 -0.09 +0.03    -0.247    19.618
ATOM      4  N   UNL d   1      18.978  11.723 -12.692 +0.09 +0.04    -0.247    19.618
ATOM      5  N   UNL d   1      17.373  11.748 -10.307 -0.10 +0.09    -0.354    19.618
ATOM      6  N   UNL d   1      14.767  11.656 -11.950 -0.10 +0.09    -0.354    19.618
ATOM      7  C   UNL d   1      15.356  10.934 -16.336 -0.08 -0.02    +0.084    19.618
ATOM      8  C   UNL d   1      21.044  12.203 -13.905 -0.03 -0.01    +0.084    19.618
ATOM      9  C   UNL d   1      19.537  11.925 -13.934 -0.07 -0.01    +0.058    19.618
ATOM     10  C   UNL d   1      15.248  11.351 -14.866 -0.11 -0.01    +0.058    19.618
ATOM     11  C   UNL d   1      16.843  11.071 -16.469 -0.07 -0.03    +0.193    19.618
ATOM     12  C   UNL d   1      17.393  11.538 -15.158 -0.10 -0.01    +0.109    19.618
ATOM     13  C   UNL d   1      21.242  12.085 -12.420 -0.03 -0.04    +0.193    19.618
ATOM     14  C   UNL d   1      14.973   9.466 -16.546 -0.06 -0.01    +0.026    19.618
ATOM     15  C   UNL d   1      18.838  11.834 -15.076 -0.08 -0.01    +0.055    19.618
ATOM     16  C   UNL d   1      21.365  13.638 -14.332 -0.01 -0.00    +0.026    19.618
ATOM     17  C   UNL d   1      19.915  11.785 -11.802 -0.08 -0.03    +0.109    19.618
ATOM     18  C   UNL d   1      14.053  11.491 -14.261 -0.12 -0.01    +0.050    19.618
ATOM     19  C   UNL d   1      13.852  11.953 -12.935 -0.12 -0.01    +0.045    19.618
ATOM     20  C   UNL d   1      18.612  11.547  -9.755 -0.23 -0.01    +0.045    19.618
ATOM     21  C   UNL d   1      19.808  11.572 -10.351 -0.19 -0.02    +0.057    19.618
ATOM     22  C   UNL d   1      17.034  11.354  -8.115 -0.33 +0.01    -0.019    19.618
ATOM     23  C   UNL d   1      16.357  11.650  -9.394 -0.26 -0.01    +0.045    19.618
ATOM     24  C   UNL d   1      18.369  11.296  -8.335 -0.30 +0.01    -0.022    19.618
ATOM     25  C   UNL d   1      14.332  12.120 -10.731 -0.17 -0.02    +0.049    19.618
ATOM     26  C   UNL d   1      12.814  12.659 -12.348 -0.12 +0.00    -0.018    19.618
ATOM     27  C   UNL d   1      13.132  12.779 -10.960 -0.16 -0.00    +0.003    19.618
ATOM     28  C   UNL d   1      15.031  11.798  -9.536 -0.27 -0.02    +0.052    19.618
ATOM     29  C   UNL d   1      19.465  11.038  -7.359 -0.15 -0.02    +0.046    19.618
ATOM     30  C   UNL d   1      11.602  13.194 -13.032 -0.11 -0.00    +0.046    19.618
ATOM     31  H   UNL d   1      17.267  12.019 -11.278 +0.04 -0.03    +0.166    19.618
ATOM     32  H   UNL d   1      15.617  11.130 -12.115 +0.05 -0.03    +0.166    19.618
ATOM     33  C   UNL d   1      14.639  11.850 -17.334 -0.02 -0.02    +0.141    19.618
ATOM     34  C   UNL d   1      15.307  13.191 -17.471 -0.00 -0.03    +0.306    19.618
ATOM     35  O   UNL d   1      15.188  14.136 -16.709 -0.00 +0.02    -0.251    19.618
ATOM     36  O   UNL d   1      16.092  13.271 -18.560 +0.00 +0.04    -0.481    19.618
ATOM     37  H   UNL d   1      16.663  12.475 -18.511 +0.01 -0.03    +0.295    19.618
ATOM     38  C   UNL d   1      12.315  13.429  -9.979 -0.24 -0.00    +0.017    19.618
ATOM     39  C   UNL d   1      11.735  12.824  -8.931 -0.29 -0.02    +0.092    19.618
ATOM     40  C   UNL d   1      10.934  13.609  -7.987 -0.27 -0.04    +0.330    19.618
ATOM     41  O   UNL d   1       9.731  13.564  -7.817 -0.58 +0.01    -0.246    19.618
ATOM     42  O   UNL d   1      11.727  14.428  -7.280 -0.13 +0.08    -0.477    19.618
ATOM     43  H   UNL d   1      12.249  13.821  -6.717 +0.16 -0.07    +0.295    19.618
ATOM     44  C   UNL d   1      21.917  11.193 -14.657 -0.03 -0.02    +0.141    19.618
ATOM     45  C   UNL d   1      22.295   9.998 -13.823 -0.05 -0.08    +0.306    19.618
ATOM     46  O   UNL d   1      21.630   8.991 -13.651 -0.68 +0.06    -0.251    19.618
ATOM     47  O   UNL d   1      23.490  10.147 -13.223 +0.00 +0.13    -0.481    19.618
ATOM     48  H   UNL d   1      23.333  10.811 -12.519 +0.03 -0.08    +0.295    19.618
ATOM     49  C   UNL d   1      16.319  11.143  -6.813 -0.43 -0.02    +0.048    19.618
ATOM     50  C   UNL d   1      15.958  12.468  -6.141 -0.30 -0.04    +0.125    19.618
ATOM     51  C   UNL d   1      14.534  12.847  -6.432 -0.23 -0.09    +0.305    19.618
ATOM     52  O   UNL d   1      13.580  12.102  -6.569 -0.34 +0.06    -0.251    19.618
ATOM     53  O   UNL d   1      14.382  14.181  -6.552 -0.06 +0.16    -0.481    19.618
ATOM     54  H   UNL d   1      13.881  14.289  -7.388 +0.12 -0.08    +0.295    19.618
TER
ENDMDL
MODEL        5
USER    Run = 5
USER    Cluster Rank = 63
USER    Number of conformations in this cluster = 1
USER  
USER    RMSD from reference structure       = 18.962 A
USER  
USER    Estimated Free Energy of Binding    =   -2.79 kcal/mol  [=(1)+(2)+(3)-(4)]
USER    Estimated Inhibition Constant, Ki   =    9.07 mM (millimolar)  [Temperature = 298.15 K]
USER    
USER    (1) Final Intermolecular Energy     =   -6.66 kcal/mol
USER        vdW + Hbond + desolv Energy     =   -6.66 kcal/mol
USER        Electrostatic Energy            =   -0.00 kcal/mol
USER    (2) Final Total Internal Energy     =   -3.95 kcal/mol
USER    (3) Torsional Free Energy           =   +3.88 kcal/mol
USER    (4) Unbound System's Energy  [=(2)] =   -3.95 kcal/mol
USER    
USER    
USER  
USER    DPF = D:/Protein_go_brrr/autodock/final/mut_Y35F/heme/dock.dpf
USER    NEWDPF move	heme_opt.pdbqt
USER    NEWDPF about	0.153000 0.018000 -0.028000
USER    NEWDPF tran0	15.303235 16.681910 -6.333082
USER    NEWDPF axisangle0	-0.320348 -0.517143 0.793688 -76.199455
USER    NEWDPF quaternion0	-0.197665 -0.319094 0.489731 -0.786938
USER    NEWDPF dihe0	-96.48 -166.65 -145.32 35.69 47.75 -55.30 126.67 96.64 138.66 -18.77 -43.85 3.20 20.37 
USER  
USER                              x       y       z    vdW   Elec        q     RMS 
ATOM      1  O   UNL d   1      11.987  12.395  -8.653 -0.07 +0.08    -0.289    18.962
ATOM      2  O   UNL d   1      18.684  12.158  -5.265 -0.20 +0.10    -0.289    18.962
ATOM      3  N   UNL d   1      13.628  15.225  -7.559 -0.06 +0.07    -0.247    18.962
ATOM      4  N   UNL d   1      15.985  14.132  -6.116 -0.11 +0.08    -0.247    18.962
ATOM      5  N   UNL d   1      16.399  16.750  -5.001 -0.08 +0.28    -0.354    18.962
ATOM      6  N   UNL d   1      13.941  17.870  -6.486 -0.04 +0.20    -0.354    18.962
ATOM      7  C   UNL d   1      11.417  14.768  -8.514 -0.22 -0.01    +0.084    18.962
ATOM      8  C   UNL d   1      16.789  11.927  -6.797 -0.25 -0.03    +0.084    18.962
ATOM      9  C   UNL d   1      15.741  13.039  -6.917 -0.18 -0.02    +0.058    18.962
ATOM     10  C   UNL d   1      12.421  15.779  -7.950 -0.12 -0.01    +0.058    18.962
ATOM     11  C   UNL d   1      12.279  13.548  -8.391 -0.22 -0.04    +0.193    18.962
ATOM     12  C   UNL d   1      13.602  13.959  -7.824 -0.17 -0.03    +0.109    18.962
ATOM     13  C   UNL d   1      17.652  12.576  -5.752 -0.18 -0.06    +0.193    18.962
ATOM     14  C   UNL d   1      10.195  14.605  -7.608 -0.39 -0.00    +0.026    18.962
ATOM     15  C   UNL d   1      14.655  12.931  -7.697 -0.24 -0.01    +0.055    18.962
ATOM     16  C   UNL d   1      17.605  11.774  -8.084 -0.28 -0.01    +0.026    18.962
ATOM     17  C   UNL d   1      17.052  13.904  -5.420 -0.17 -0.03    +0.109    18.962
ATOM     18  C   UNL d   1      12.155  17.098  -7.933 -0.09 -0.01    +0.050    18.962
ATOM     19  C   UNL d   1      13.052  18.112  -7.509 -0.04 -0.01    +0.045    18.962
ATOM     20  C   UNL d   1      17.293  16.030  -4.251 -0.12 -0.03    +0.045    18.962
ATOM     21  C   UNL d   1      17.664  14.753  -4.387 -0.20 -0.02    +0.057    18.962
ATOM     22  C   UNL d   1      17.178  18.156  -3.424 -0.10 +0.02    -0.019    18.962
ATOM     23  C   UNL d   1      16.262  18.045  -4.577 -0.08 -0.04    +0.045    18.962
ATOM     24  C   UNL d   1      17.786  16.961  -3.237 -0.11 +0.02    -0.022    18.962
ATOM     25  C   UNL d   1      14.647  19.010  -6.179 -0.06 -0.02    +0.049    18.962
ATOM     26  C   UNL d   1      13.209  19.432  -7.901 -0.01 +0.00    -0.018    18.962
ATOM     27  C   UNL d   1      14.231  19.989  -7.071 -0.01 -0.00    +0.003    18.962
ATOM     28  C   UNL d   1      15.513  19.051  -5.053 -0.08 -0.04    +0.052    18.962
ATOM     29  C   UNL d   1      18.798  16.579  -2.211 -0.13 -0.02    +0.046    18.962
ATOM     30  C   UNL d   1      12.459  20.136  -8.981 -0.00 -0.01    +0.046    18.962
ATOM     31  H   UNL d   1      15.965  16.352  -5.827 +0.03 -0.10    +0.166    18.962
ATOM     32  H   UNL d   1      14.020  16.979  -6.011 -0.01 -0.13    +0.166    18.962
ATOM     33  C   UNL d   1      11.009  14.993  -9.974 -0.13 -0.01    +0.141    18.962
ATOM     34  C   UNL d   1       9.913  14.064 -10.419 -0.18 -0.03    +0.306    18.962
ATOM     35  O   UNL d   1       8.732  14.345 -10.534 -0.24 -0.00    -0.251    18.962
ATOM     36  O   UNL d   1      10.363  12.827 -10.699 -0.15 +0.09    -0.481    18.962
ATOM     37  H   UNL d   1      10.439  12.389  -9.824 -0.12 -0.11    +0.295    18.962
ATOM     38  C   UNL d   1      14.698  21.342  -7.132 -0.00 -0.00    +0.017    18.962
ATOM     39  C   UNL d   1      15.978  21.725  -7.013 +0.00 -0.02    +0.092    18.962
ATOM     40  C   UNL d   1      16.327  23.145  -7.112 +0.00 -0.04    +0.330    18.962
ATOM     41  O   UNL d   1      16.101  23.904  -8.035 +0.00 +0.02    -0.246    18.962
ATOM     42  O   UNL d   1      16.956  23.544  -5.995 +0.00 +0.06    -0.477    18.962
ATOM     43  H   UNL d   1      17.182  22.707  -5.541 +0.00 -0.04    +0.295    18.962
ATOM     44  C   UNL d   1      16.263  10.573  -6.310 -0.35 -0.05    +0.141    18.962
ATOM     45  C   UNL d   1      15.819  10.591  -4.871 -0.27 -0.11    +0.306    18.962
ATOM     46  O   UNL d   1      14.741  10.970  -4.448 -0.40 +0.09    -0.251    18.962
ATOM     47  O   UNL d   1      16.775  10.152  -4.033 -0.37 +0.20    -0.481    18.962
ATOM     48  H   UNL d   1      17.617  10.448  -4.440 -0.37 -0.17    +0.295    18.962
ATOM     49  C   UNL d   1      17.361  19.404  -2.611 -0.08 -0.03    +0.048    18.962
ATOM     50  C   UNL d   1      17.933  20.549  -3.446 -0.01 -0.04    +0.125    18.962
ATOM     51  C   UNL d   1      17.227  21.840  -3.143 +0.00 -0.08    +0.305    18.962
ATOM     52  O   UNL d   1      17.524  22.669  -2.301 +0.00 +0.05    -0.251    18.962
ATOM     53  O   UNL d   1      16.146  22.020  -3.928 +0.01 +0.12    -0.481    18.962
ATOM     54  H   UNL d   1      16.125  22.987  -4.085 +0.01 -0.05    +0.295    18.962
TER
ENDMDL
MODEL        2
USER    Run = 2
USER    Cluster Rank = 64
USER    Number of conformations in this cluster = 1
USER  
USER    RMSD from reference structure       = 15.205 A
USER  
USER    Estimated Free Energy of Binding    =   -2.75 kcal/mol  [=(1)+(2)+(3)-(4)]
USER    Estimated Inhibition Constant, Ki   =    9.71 mM (millimolar)  [Temperature = 298.15 K]
USER    
USER    (1) Final Intermolecular Energy     =   -6.62 kcal/mol
USER        vdW + Hbond + desolv Energy     =   -6.64 kcal/mol
USER        Electrostatic Energy            =   +0.02 kcal/mol
USER    (2) Final Total Internal Energy     =   -4.65 kcal/mol
USER    (3) Torsional Free Energy           =   +3.88 kcal/mol
USER    (4) Unbound System's Energy  [=(2)] =   -4.65 kcal/mol
USER    
USER    
USER  
USER    DPF = D:/Protein_go_brrr/autodock/final/mut_Y35F/heme/dock.dpf
USER    NEWDPF move	heme_opt.pdbqt
USER    NEWDPF about	0.153000 0.018000 -0.028000
USER    NEWDPF tran0	11.771608 12.806729 6.457994
USER    NEWDPF axisangle0	-0.760075 -0.455932 0.463047 -138.877167
USER    NEWDPF quaternion0	-0.711655 -0.426888 0.433549 -0.351211
USER    NEWDPF dihe0	167.51 123.56 108.28 47.60 -146.79 77.17 -52.05 77.71 22.92 -126.10 -81.12 -71.18 -6.80 
USER  
USER                              x       y       z    vdW   Elec        q     RMS 
ATOM      1  O   UNL d   1      10.233   7.116   6.524 -0.13 -0.14    -0.289    15.205
ATOM      2  O   UNL d   1      11.061  12.063  12.113 -0.12 -0.18    -0.289    15.205
ATOM      3  N   UNL d   1      11.297  10.356   6.009 -0.08 -0.03    -0.247    15.205
ATOM      4  N   UNL d   1      11.024  11.600   8.693 -0.10 -0.05    -0.247    15.205
ATOM      5  N   UNL d   1      11.350  14.165   7.436 -0.02 -0.01    -0.354    15.205
ATOM      6  N   UNL d   1      11.612  12.868   4.652 -0.04 +0.02    -0.354    15.205
ATOM      7  C   UNL d   1      10.701   8.479   4.549 -0.26 +0.01    +0.084    15.205
ATOM      8  C   UNL d   1      11.157  10.117  10.631 -0.11 +0.03    +0.084    15.205
ATOM      9  C   UNL d   1      11.108  10.290   9.109 -0.15 +0.01    +0.058    15.205
ATOM     10  C   UNL d   1      11.167   9.930   4.697 -0.21 +0.00    +0.058    15.205
ATOM     11  C   UNL d   1      10.609   8.153   6.010 -0.13 +0.05    +0.193    15.205
ATOM     12  C   UNL d   1      11.020   9.364   6.790 -0.12 +0.02    +0.109    15.205
ATOM     13  C   UNL d   1      11.047  11.569  11.002 -0.12 +0.07    +0.193    15.205
ATOM     14  C   UNL d   1       9.304   8.383   3.932 -0.43 +0.00    +0.026    15.205
ATOM     15  C   UNL d   1      11.097   9.250   8.261 -0.15 +0.02    +0.055    15.205
ATOM     16  C   UNL d   1      12.517   9.590  11.100 -0.04 +0.01    +0.026    15.205
ATOM     17  C   UNL d   1      10.966  12.361   9.738 -0.20 +0.03    +0.109    15.205
ATOM     18  C   UNL d   1      11.500  10.674   3.626 -0.28 -0.01    +0.050    15.205
ATOM     19  C   UNL d   1      12.019  11.994   3.670 -0.22 -0.01    +0.045    15.205
ATOM     20  C   UNL d   1      10.978  14.564   8.694 -0.24 +0.00    +0.045    15.205
ATOM     21  C   UNL d   1      10.807  13.822   9.792 -0.28 +0.02    +0.057    15.205
ATOM     22  C   UNL d   1      11.066  16.397   7.333 -0.18 +0.00    -0.019    15.205
ATOM     23  C   UNL d   1      11.429  15.202   6.545 -0.16 -0.00    +0.045    15.205
ATOM     24  C   UNL d   1      10.801  16.013   8.604 -0.23 +0.00    -0.022    15.205
ATOM     25  C   UNL d   1      12.166  14.111   4.453 -0.11 -0.00    +0.049    15.205
ATOM     26  C   UNL d   1      12.888  12.675   2.832 -0.27 +0.00    -0.018    15.205
ATOM     27  C   UNL d   1      12.993  14.006   3.343 -0.15 -0.00    +0.003    15.205
ATOM     28  C   UNL d   1      11.771  15.221   5.248 -0.14 -0.01    +0.052    15.205
ATOM     29  C   UNL d   1      10.405  16.855   9.769 -0.23 +0.00    +0.046    15.205
ATOM     30  C   UNL d   1      13.583  12.126   1.632 -0.47 -0.00    +0.046    15.205
ATOM     31  H   UNL d   1      11.610  13.203   7.245 +0.04 +0.01    +0.166    15.205
ATOM     32  H   UNL d   1      10.960  12.620   5.387 +0.09 -0.00    +0.166    15.205
ATOM     33  C   UNL d   1      11.691   7.540   3.851 -0.34 +0.01    +0.141    15.205
ATOM     34  C   UNL d   1      12.902   7.244   4.693 -0.16 +0.06    +0.306    15.205
ATOM     35  O   UNL d   1      13.959   7.852   4.673 -0.16 -0.05    -0.251    15.205
ATOM     36  O   UNL d   1      12.717   6.198   5.517 -0.13 -0.18    -0.481    15.205
ATOM     37  H   UNL d   1      11.746   6.056   5.522 +0.12 +0.13    +0.295    15.205
ATOM     38  C   UNL d   1      13.782  15.052   2.766 -0.14 -0.00    +0.017    15.205
ATOM     39  C   UNL d   1      13.455  16.353   2.755 -0.07 -0.03    +0.092    15.205
ATOM     40  C   UNL d   1      14.362  17.329   2.145 -0.04 -0.18    +0.330    15.205
ATOM     41  O   UNL d   1      14.551  17.528   0.960 -0.07 +0.28    -0.246    15.205
ATOM     42  O   UNL d   1      14.996  18.030   3.098 +0.01 +0.14    -0.477    15.205
ATOM     43  H   UNL d   1      14.268  18.418   3.626 +0.01 -0.07    +0.295    15.205
ATOM     44  C   UNL d   1      10.008   9.306  11.240 -0.07 +0.06    +0.141    15.205
ATOM     45  C   UNL d   1      10.050   9.254  12.744 -0.08 +0.13    +0.306    15.205
ATOM     46  O   UNL d   1      10.529   8.365  13.428 -0.03 -0.09    -0.251    15.205
ATOM     47  O   UNL d   1       9.459  10.320  13.313 -0.09 -0.29    -0.481    15.205
ATOM     48  H   UNL d   1      10.079  11.062  13.154 +0.06 +0.23    +0.295    15.205
ATOM     49  C   UNL d   1      10.997  17.787   6.772 -0.15 -0.01    +0.048    15.205
ATOM     50  C   UNL d   1      12.335  18.516   6.893 -0.04 -0.01    +0.125    15.205
ATOM     51  C   UNL d   1      13.085  18.480   5.591 -0.00 -0.03    +0.305    15.205
ATOM     52  O   UNL d   1      12.824  19.086   4.567 -0.00 +0.04    -0.251    15.205
ATOM     53  O   UNL d   1      14.148  17.653   5.644 +0.00 +0.05    -0.481    15.205
ATOM     54  H   UNL d   1      14.878  18.179   5.256 +0.00 -0.03    +0.295    15.205
TER
ENDMDL
MODEL       64
USER    Run = 64
USER    Cluster Rank = 65
USER    Number of conformations in this cluster = 1
USER  
USER    RMSD from reference structure       = 17.578 A
USER  
USER    Estimated Free Energy of Binding    =   -2.71 kcal/mol  [=(1)+(2)+(3)-(4)]
USER    Estimated Inhibition Constant, Ki   =   10.30 mM (millimolar)  [Temperature = 298.15 K]
USER    
USER    (1) Final Intermolecular Energy     =   -6.59 kcal/mol
USER        vdW + Hbond + desolv Energy     =   -6.35 kcal/mol
USER        Electrostatic Energy            =   -0.24 kcal/mol
USER    (2) Final Total Internal Energy     =   -3.81 kcal/mol
USER    (3) Torsional Free Energy           =   +3.88 kcal/mol
USER    (4) Unbound System's Energy  [=(2)] =   -3.81 kcal/mol
USER    
USER    
USER  
USER    DPF = D:/Protein_go_brrr/autodock/final/mut_Y35F/heme/dock.dpf
USER    NEWDPF move	heme_opt.pdbqt
USER    NEWDPF about	0.153000 0.018000 -0.028000
USER    NEWDPF tran0	-11.120774 -17.982268 -4.664018
USER    NEWDPF axisangle0	0.963648 -0.213081 0.161178 124.083766
USER    NEWDPF quaternion0	0.851182 -0.188212 0.142367 0.468826
USER    NEWDPF dihe0	151.56 -160.66 -79.09 -163.78 -139.78 68.77 126.88 16.68 17.57 -42.48 88.97 -77.83 45.19 
USER  
USER                              x       y       z    vdW   Elec        q     RMS 
ATOM      1  O   UNL d   1     -16.151 -15.780  -6.809 -0.09 -0.02    -0.289    17.578
ATOM      2  O   UNL d   1     -13.237 -15.579   0.109 -0.20 +0.03    -0.289    17.578
ATOM      3  N   UNL d   1     -13.194 -17.350  -5.981 -0.21 -0.03    -0.247    17.578
ATOM      4  N   UNL d   1     -12.715 -16.474  -3.183 -0.09 -0.01    -0.247    17.578
ATOM      5  N   UNL d   1     -10.030 -17.472  -3.427 -0.05 +0.01    -0.354    17.578
ATOM      6  N   UNL d   1     -10.529 -18.360  -6.337 +0.04 -0.01    -0.354    17.578
ATOM      7  C   UNL d   1     -14.424 -16.968  -8.066 -0.14 +0.01    +0.084    17.578
ATOM      8  C   UNL d   1     -14.671 -15.851  -1.856 -0.14 -0.00    +0.084    17.578
ATOM      9  C   UNL d   1     -14.077 -16.267  -3.206 -0.14 +0.00    +0.058    17.578
ATOM     10  C   UNL d   1     -13.202 -17.552  -7.351 -0.14 +0.01    +0.058    17.578
ATOM     11  C   UNL d   1     -15.115 -16.418  -6.855 -0.11 +0.02    +0.193    17.578
ATOM     12  C   UNL d   1     -14.283 -16.736  -5.652 -0.15 +0.01    +0.109    17.578
ATOM     13  C   UNL d   1     -13.390 -15.824  -1.072 -0.14 -0.01    +0.193    17.578
ATOM     14  C   UNL d   1     -14.049 -15.809  -8.993 -0.29 +0.00    +0.026    17.578
ATOM     15  C   UNL d   1     -14.813 -16.369  -4.323 -0.15 +0.00    +0.055    17.578
ATOM     16  C   UNL d   1     -15.580 -16.939  -1.277 -0.12 -0.00    +0.026    17.578
ATOM     17  C   UNL d   1     -12.279 -16.213  -1.992 -0.15 +0.00    +0.109    17.578
ATOM     18  C   UNL d   1     -12.278 -18.272  -8.014 -0.02 +0.00    +0.050    17.578
ATOM     19  C   UNL d   1     -11.162 -18.919  -7.424 -0.06 +0.00    +0.045    17.578
ATOM     20  C   UNL d   1      -9.926 -16.807  -2.233 -0.20 -0.00    +0.045    17.578
ATOM     21  C   UNL d   1     -10.891 -16.233  -1.507 -0.07 +0.00    +0.057    17.578
ATOM     22  C   UNL d   1      -7.849 -17.516  -2.866 -0.26 +0.00    -0.019    17.578
ATOM     23  C   UNL d   1      -8.828 -17.936  -3.889 -0.20 -0.00    +0.045    17.578
ATOM     24  C   UNL d   1      -8.506 -16.849  -1.888 -0.28 +0.00    -0.022    17.578
ATOM     25  C   UNL d   1      -9.425 -19.102  -5.986 -0.16 -0.00    +0.049    17.578
ATOM     26  C   UNL d   1     -10.473 -20.073  -7.765 -0.08 -0.00    -0.018    17.578
ATOM     27  C   UNL d   1      -9.389 -20.194  -6.842 -0.11 -0.00    +0.003    17.578
ATOM     28  C   UNL d   1      -8.522 -18.639  -4.991 -0.25 -0.00    +0.052    17.578
ATOM     29  C   UNL d   1      -7.957 -16.243  -0.641 -0.43 -0.00    +0.046    17.578
ATOM     30  C   UNL d   1     -10.801 -21.009  -8.879 -0.05 +0.00    +0.046    17.578
ATOM     31  H   UNL d   1     -10.933 -17.652  -3.853 +0.06 +0.00    +0.166    17.578
ATOM     32  H   UNL d   1     -10.828 -17.498  -5.897 +0.06 +0.01    +0.166    17.578
ATOM     33  C   UNL d   1     -15.319 -17.990  -8.778 -0.04 +0.01    +0.141    17.578
ATOM     34  C   UNL d   1     -15.985 -18.941  -7.822 -0.01 +0.01    +0.306    17.578
ATOM     35  O   UNL d   1     -15.508 -19.975  -7.385 -0.00 -0.00    -0.251    17.578
ATOM     36  O   UNL d   1     -17.217 -18.539  -7.464 +0.00 -0.01    -0.481    17.578
ATOM     37  H   UNL d   1     -17.175 -17.560  -7.492 +0.02 +0.01    +0.295    17.578
ATOM     38  C   UNL d   1      -8.414 -21.242  -6.847 -0.09 -0.00    +0.017    17.578
ATOM     39  C   UNL d   1      -7.100 -21.078  -6.634 -0.15 -0.01    +0.092    17.578
ATOM     40  C   UNL d   1      -6.207 -22.241  -6.648 -0.05 -0.02    +0.330    17.578
ATOM     41  O   UNL d   1      -5.924 -22.949  -7.595 -0.03 +0.01    -0.246    17.578
ATOM     42  O   UNL d   1      -5.696 -22.445  -5.424 -0.03 +0.05    -0.477    17.578
ATOM     43  H   UNL d   1      -6.306 -21.960  -4.831 +0.05 -0.03    +0.295    17.578
ATOM     44  C   UNL d   1     -15.359 -14.482  -1.831 -0.21 -0.01    +0.141    17.578
ATOM     45  C   UNL d   1     -14.438 -13.362  -1.427 -0.27 -0.02    +0.306    17.578
ATOM     46  O   UNL d   1     -13.660 -12.764  -2.151 -0.36 +0.01    -0.251    17.578
ATOM     47  O   UNL d   1     -14.526 -13.070  -0.117 -0.06 +0.07    -0.481    17.578
ATOM     48  H   UNL d   1     -13.754 -13.518   0.289 +0.06 -0.07    +0.295    17.578
ATOM     49  C   UNL d   1      -6.376 -17.790  -2.947 -0.39 -0.01    +0.048    17.578
ATOM     50  C   UNL d   1      -6.085 -19.175  -3.524 -0.05 -0.04    +0.125    17.578
ATOM     51  C   UNL d   1      -6.010 -20.205  -2.433 -0.08 +0.08    +0.305    17.578
ATOM     52  O   UNL d   1      -6.319 -20.072  -1.262 -0.16 -0.11    -0.251    17.578
ATOM     53  O   UNL d   1      -5.523 -21.380  -2.882 -0.14 -0.12    -0.481    17.578
ATOM     54  H   UNL d   1      -5.114 -21.154  -3.744 -0.03 -0.07    +0.295    17.578
TER
ENDMDL
MODEL       68
USER    Run = 68
USER    Cluster Rank = 66
USER    Number of conformations in this cluster = 1
USER  
USER    RMSD from reference structure       = 11.614 A
USER  
USER    Estimated Free Energy of Binding    =   -2.52 kcal/mol  [=(1)+(2)+(3)-(4)]
USER    Estimated Inhibition Constant, Ki   =   14.27 mM (millimolar)  [Temperature = 298.15 K]
USER    
USER    (1) Final Intermolecular Energy     =   -6.40 kcal/mol
USER        vdW + Hbond + desolv Energy     =   -6.28 kcal/mol
USER        Electrostatic Energy            =   -0.12 kcal/mol
USER    (2) Final Total Internal Energy     =   -4.70 kcal/mol
USER    (3) Torsional Free Energy           =   +3.88 kcal/mol
USER    (4) Unbound System's Energy  [=(2)] =   -4.70 kcal/mol
USER    
USER    
USER  
USER    DPF = D:/Protein_go_brrr/autodock/final/mut_Y35F/heme/dock.dpf
USER    NEWDPF move	heme_opt.pdbqt
USER    NEWDPF about	0.153000 0.018000 -0.028000
USER    NEWDPF tran0	-11.436300 -1.628718 -8.469729
USER    NEWDPF axisangle0	0.605887 0.792068 0.074357 123.915844
USER    NEWDPF quaternion0	0.534758 0.699081 0.065628 0.470120
USER    NEWDPF dihe0	173.97 -130.43 -92.13 63.45 -152.92 12.13 126.24 -84.67 6.16 -46.83 -85.42 -52.87 -16.86 
USER  
USER                              x       y       z    vdW   Elec        q     RMS 
ATOM      1  O   UNL d   1     -10.528  -4.384 -13.602 -0.03 -0.00    -0.289    11.614
ATOM      2  O   UNL d   1     -14.469  -6.423  -7.543 -0.04 -0.01    -0.289    11.614
ATOM      3  N   UNL d   1     -10.664  -2.475 -10.733 -0.06 -0.02    -0.247    11.614
ATOM      4  N   UNL d   1     -12.657  -3.905  -9.055 -0.09 -0.02    -0.247    11.614
ATOM      5  N   UNL d   1     -12.759  -1.584  -7.361 -0.06 -0.03    -0.354    11.614
ATOM      6  N   UNL d   1     -10.706  -0.100  -9.118 -0.04 -0.02    -0.354    11.614
ATOM      7  C   UNL d   1      -9.713  -2.168 -12.970 -0.02 +0.00    +0.084    11.614
ATOM      8  C   UNL d   1     -12.936  -6.300  -9.448 -0.31 +0.00    +0.084    11.614
ATOM      9  C   UNL d   1     -12.298  -4.967  -9.854 -0.20 +0.00    +0.058    11.614
ATOM     10  C   UNL d   1      -9.967  -1.615 -11.565 -0.05 +0.00    +0.058    11.614
ATOM     11  C   UNL d   1     -10.373  -3.500 -12.779 -0.04 +0.01    +0.193    11.614
ATOM     12  C   UNL d   1     -10.888  -3.575 -11.375 -0.08 +0.01    +0.109    11.614
ATOM     13  C   UNL d   1     -13.752  -5.790  -8.294 -0.19 +0.01    +0.193    11.614
ATOM     14  C   UNL d   1     -10.476  -1.386 -14.042 +0.00 +0.00    +0.026    11.614
ATOM     15  C   UNL d   1     -11.501  -4.841 -10.926 -0.16 -0.00    +0.055    11.614
ATOM     16  C   UNL d   1     -11.894  -7.289  -8.915 -0.19 -0.00    +0.026    11.614
ATOM     17  C   UNL d   1     -13.500  -4.323  -8.166 -0.16 +0.01    +0.109    11.614
ATOM     18  C   UNL d   1      -9.464  -0.429 -11.174 -0.05 +0.00    +0.050    11.614
ATOM     19  C   UNL d   1      -9.576   0.123  -9.873 -0.09 +0.00    +0.045    11.614
ATOM     20  C   UNL d   1     -13.815  -2.294  -6.851 -0.14 +0.00    +0.045    11.614
ATOM     21  C   UNL d   1     -14.204  -3.540  -7.140 -0.18 +0.00    +0.057    11.614
ATOM     22  C   UNL d   1     -13.776  -0.227  -5.878 -0.10 -0.00    -0.019    11.614
ATOM     23  C   UNL d   1     -12.654  -0.324  -6.834 -0.12 +0.00    +0.045    11.614
ATOM     24  C   UNL d   1     -14.458  -1.397  -5.892 -0.11 -0.00    -0.022    11.614
ATOM     25  C   UNL d   1     -10.642   0.598  -7.935 -0.14 +0.00    +0.049    11.614
ATOM     26  C   UNL d   1      -8.741   0.958  -9.146 -0.17 -0.00    -0.018    11.614
ATOM     27  C   UNL d   1      -9.411   1.239  -7.915 -0.20 +0.00    +0.003    11.614
ATOM     28  C   UNL d   1     -11.760   0.651  -7.058 -0.14 +0.00    +0.052    11.614
ATOM     29  C   UNL d   1     -15.656  -1.788  -5.095 -0.11 +0.00    +0.046    11.614
ATOM     30  C   UNL d   1      -7.403   1.463  -9.565 -0.19 +0.01    +0.046    11.614
ATOM     31  H   UNL d   1     -12.097  -2.011  -8.001 +0.05 +0.02    +0.166    11.614
ATOM     32  H   UNL d   1     -11.483  -0.671  -9.429 +0.03 +0.01    +0.166    11.614
ATOM     33  C   UNL d   1      -8.238  -2.348 -13.348 -0.03 +0.01    +0.141    11.614
ATOM     34  C   UNL d   1      -7.481  -3.179 -12.348 -0.05 +0.03    +0.306    11.614
ATOM     35  O   UNL d   1      -6.769  -2.757 -11.453 -0.11 -0.02    -0.251    11.614
ATOM     36  O   UNL d   1      -7.664  -4.499 -12.527 -0.54 -0.07    -0.481    11.614
ATOM     37  H   UNL d   1      -8.374  -4.561 -13.201 +0.03 +0.02    +0.295    11.614
ATOM     38  C   UNL d   1      -8.904   2.080  -6.873 -0.23 -0.00    +0.017    11.614
ATOM     39  C   UNL d   1      -9.631   2.594  -5.870 -0.25 +0.00    +0.092    11.614
ATOM     40  C   UNL d   1      -8.986   3.429  -4.853 -0.20 +0.07    +0.330    11.614
ATOM     41  O   UNL d   1      -7.857   3.882  -4.870 -0.79 -0.11    -0.246    11.614
ATOM     42  O   UNL d   1      -9.835   3.662  -3.840 -0.06 -0.07    -0.477    11.614
ATOM     43  H   UNL d   1     -10.178   2.774  -3.612 +0.15 +0.01    +0.295    11.614
ATOM     44  C   UNL d   1     -13.830  -6.954 -10.506 -0.18 +0.01    +0.141    11.614
ATOM     45  C   UNL d   1     -15.293  -6.653 -10.316 -0.07 +0.01    +0.306    11.614
ATOM     46  O   UNL d   1     -15.881  -5.648 -10.677 -0.02 -0.01    -0.251    11.614
ATOM     47  O   UNL d   1     -15.937  -7.629  -9.653 -0.05 -0.02    -0.481    11.614
ATOM     48  H   UNL d   1     -15.819  -7.405  -8.705 +0.10 +0.01    +0.295    11.614
ATOM     49  C   UNL d   1     -14.082   0.992  -5.059 -0.07 +0.00    +0.048    11.614
ATOM     50  C   UNL d   1     -13.570   0.858  -3.625 -0.15 +0.01    +0.125    11.614
ATOM     51  C   UNL d   1     -12.218   1.494  -3.476 -0.15 +0.01    +0.305    11.614
ATOM     52  O   UNL d   1     -11.128   0.967  -3.617 -0.29 +0.02    -0.251    11.614
ATOM     53  O   UNL d   1     -12.308   2.796  -3.137 -0.01 -0.03    -0.481    11.614
ATOM     54  H   UNL d   1     -11.903   3.268  -3.895 +0.08 +0.02    +0.295    11.614
TER
ENDMDL
MODEL       42
USER    Run = 42
USER    Cluster Rank = 67
USER    Number of conformations in this cluster = 1
USER  
USER    RMSD from reference structure       = 17.595 A
USER  
USER    Estimated Free Energy of Binding    =   -1.64 kcal/mol  [=(1)+(2)+(3)-(4)]
USER    Estimated Inhibition Constant, Ki   =   63.02 mM (millimolar)  [Temperature = 298.15 K]
USER    
USER    (1) Final Intermolecular Energy     =   -5.52 kcal/mol
USER        vdW + Hbond + desolv Energy     =   -5.45 kcal/mol
USER        Electrostatic Energy            =   -0.07 kcal/mol
USER    (2) Final Total Internal Energy     =   -4.53 kcal/mol
USER    (3) Torsional Free Energy           =   +3.88 kcal/mol
USER    (4) Unbound System's Energy  [=(2)] =   -4.53 kcal/mol
USER    
USER    
USER  
USER    DPF = D:/Protein_go_brrr/autodock/final/mut_Y35F/heme/dock.dpf
USER    NEWDPF move	heme_opt.pdbqt
USER    NEWDPF about	0.153000 0.018000 -0.028000
USER    NEWDPF tran0	21.392837 -3.782579 -5.008437
USER    NEWDPF axisangle0	0.375153 0.871243 0.316538 78.923161
USER    NEWDPF quaternion0	0.238433 0.553728 0.201179 0.772051
USER    NEWDPF dihe0	-93.51 167.24 -134.90 -85.10 26.67 19.10 123.33 -38.68 123.20 -27.04 -52.47 -74.81 26.75 
USER  
USER                              x       y       z    vdW   Elec        q     RMS 
ATOM      1  O   UNL d   1      20.156  -1.778 -10.413 -0.19 +0.06    -0.289    17.595
ATOM      2  O   UNL d   1      18.994  -8.495  -7.262 -0.01 -0.11    -0.289    17.595
ATOM      3  N   UNL d   1      21.187  -2.543  -7.212 -0.10 -0.01    -0.247    17.595
ATOM      4  N   UNL d   1      20.041  -5.246  -6.753 -0.12 -0.15    -0.247    17.595
ATOM      5  N   UNL d   1      20.630  -4.920  -3.958 -0.09 -0.17    -0.354    17.595
ATOM      6  N   UNL d   1      21.799  -2.109  -4.440 -0.12 -0.02    -0.354    17.595
ATOM      7  C   UNL d   1      21.155  -0.509  -8.578 -0.22 -0.01    +0.084    17.595
ATOM      8  C   UNL d   1      19.629  -6.635  -8.721 -0.04 +0.02    +0.084    17.595
ATOM      9  C   UNL d   1      20.048  -5.285  -8.129 -0.11 +0.02    +0.058    17.595
ATOM     10  C   UNL d   1      21.489  -1.192  -7.249 -0.18 -0.00    +0.058    17.595
ATOM     11  C   UNL d   1      20.628  -1.717  -9.293 -0.14 -0.01    +0.193    17.595
ATOM     12  C   UNL d   1      20.724  -2.891  -8.368 -0.09 +0.01    +0.109    17.595
ATOM     13  C   UNL d   1      19.347  -7.343  -7.426 -0.04 +0.10    +0.193    17.595
ATOM     14  C   UNL d   1      20.024   0.512  -8.432 -0.28 -0.01    +0.026    17.595
ATOM     15  C   UNL d   1      20.345  -4.220  -8.890 -0.13 +0.01    +0.055    17.595
ATOM     16  C   UNL d   1      20.797  -7.335  -9.421 -0.00 +0.00    +0.026    17.595
ATOM     17  C   UNL d   1      19.628  -6.390  -6.310 -0.07 +0.10    +0.109    17.595
ATOM     18  C   UNL d   1      22.106  -0.529  -6.253 -0.21 -0.00    +0.050    17.595
ATOM     19  C   UNL d   1      22.529  -1.098  -5.024 -0.17 +0.00    +0.045    17.595
ATOM     20  C   UNL d   1      19.869  -6.059  -3.907 -0.14 +0.04    +0.045    17.595
ATOM     21  C   UNL d   1      19.398  -6.797  -4.916 -0.03 +0.06    +0.057    17.595
ATOM     22  C   UNL d   1      20.296  -5.360  -1.774 -0.14 -0.01    -0.019    17.595
ATOM     23  C   UNL d   1      20.937  -4.424  -2.719 -0.19 +0.01    +0.045    17.595
ATOM     24  C   UNL d   1      19.667  -6.327  -2.483 -0.13 -0.01    -0.022    17.595
ATOM     25  C   UNL d   1      22.334  -2.446  -3.218 -0.12 +0.01    +0.049    17.595
ATOM     26  C   UNL d   1      23.585  -0.797  -4.179 -0.11 -0.00    -0.018    17.595
ATOM     27  C   UNL d   1      23.469  -1.664  -3.049 -0.12 +0.00    +0.003    17.595
ATOM     28  C   UNL d   1      21.665  -3.356  -2.356 -0.12 +0.01    +0.052    17.595
ATOM     29  C   UNL d   1      18.893  -7.498  -1.981 -0.09 +0.02    +0.046    17.595
ATOM     30  C   UNL d   1      24.641   0.232  -4.405 -0.06 +0.00    +0.046    17.595
ATOM     31  H   UNL d   1      20.978  -4.558  -4.839 +0.03 +0.06    +0.166    17.595
ATOM     32  H   UNL d   1      20.963  -2.506  -4.851 -0.30 -0.01    +0.166    17.595
ATOM     33  C   UNL d   1      22.352   0.082  -9.332 -0.09 -0.02    +0.141    17.595
ATOM     34  C   UNL d   1      21.994   0.540 -10.720 -0.07 -0.08    +0.306    17.595
ATOM     35  O   UNL d   1      21.458   1.595 -11.014 -0.16 +0.09    -0.251    17.595
ATOM     36  O   UNL d   1      22.332  -0.355 -11.665 +0.00 +0.10    -0.481    17.595
ATOM     37  H   UNL d   1      21.584  -0.988 -11.684 +0.08 -0.06    +0.295    17.595
ATOM     38  C   UNL d   1      24.352  -1.676  -1.923 -0.09 +0.00    +0.017    17.595
ATOM     39  C   UNL d   1      23.979  -1.860  -0.648 -0.09 +0.01    +0.092    17.595
ATOM     40  C   UNL d   1      24.988  -1.867   0.415 -0.02 +0.03    +0.330    17.595
ATOM     41  O   UNL d   1      26.129  -1.448   0.360 -0.01 -0.01    -0.246    17.595
ATOM     42  O   UNL d   1      24.480  -2.414   1.530 -0.00 -0.04    -0.477    17.595
ATOM     43  H   UNL d   1      23.518  -2.453   1.355 +0.03 +0.03    +0.295    17.595
ATOM     44  C   UNL d   1      18.384  -6.606  -9.614 -0.05 +0.03    +0.141    17.595
ATOM     45  C   UNL d   1      17.097  -6.512  -8.837 -0.08 +0.15    +0.306    17.595
ATOM     46  O   UNL d   1      16.620  -5.506  -8.342 -0.77 -0.22    -0.251    17.595
ATOM     47  O   UNL d   1      16.490  -7.704  -8.700 -0.02 -0.17    -0.481    17.595
ATOM     48  H   UNL d   1      17.212  -8.325  -8.463 +0.03 +0.09    +0.295    17.595
ATOM     49  C   UNL d   1      20.346  -5.217  -0.281 -0.13 +0.01    +0.048    17.595
ATOM     50  C   UNL d   1      21.783  -5.165   0.238 -0.06 +0.02    +0.125    17.595
ATOM     51  C   UNL d   1      21.988  -3.973   1.130 -0.05 +0.04    +0.305    17.595
ATOM     52  O   UNL d   1      21.619  -2.828   0.937 -0.07 -0.05    -0.251    17.595
ATOM     53  O   UNL d   1      22.677  -4.290   2.244 -0.00 -0.04    -0.481    17.595
ATOM     54  H   UNL d   1      23.607  -4.082   2.017 +0.02 +0.02    +0.295    17.595
TER
ENDMDL


AVSFLD: # AVS field file
AVSFLD: #
AVSFLD: # Created by AutoDock
AVSFLD: #
AVSFLD: ndim=2           # number of dimensions in the field
AVSFLD: nspace=1         # number of physical coordinates
AVSFLD: veclen=7         # vector size
AVSFLD: dim1=54          # atoms
AVSFLD: dim2=67          # conformations
AVSFLD: data=Real       # data type (byte,integer,Real,double)
AVSFLD: field=uniform    # field coordinate layout
AVSFLD: label= x y z vdW Elec q RMS
AVSFLD: variable 1 file = D:/Protein_go_brrr/autodock/final/mut_Y35F/heme/dock.dlg.pdb filetype = ascii offset = 5 stride = 12
AVSFLD: variable 2 file = D:/Protein_go_brrr/autodock/final/mut_Y35F/heme/dock.dlg.pdb filetype = ascii offset = 6 stride = 12
AVSFLD: variable 3 file = D:/Protein_go_brrr/autodock/final/mut_Y35F/heme/dock.dlg.pdb filetype = ascii offset = 7 stride = 12
AVSFLD: variable 4 file = D:/Protein_go_brrr/autodock/final/mut_Y35F/heme/dock.dlg.pdb filetype = ascii offset = 8 stride = 12
AVSFLD: variable 5 file = D:/Protein_go_brrr/autodock/final/mut_Y35F/heme/dock.dlg.pdb filetype = ascii offset = 9 stride = 12
AVSFLD: variable 6 file = D:/Protein_go_brrr/autodock/final/mut_Y35F/heme/dock.dlg.pdb filetype = ascii offset = 10 stride = 12
AVSFLD: variable 7 file = D:/Protein_go_brrr/autodock/final/mut_Y35F/heme/dock.dlg.pdb filetype = ascii offset = 11 stride = 12
AVSFLD: # end of file

>>> Closing the docking parameter file (DPF)...
This docking finished at:			8:46 16" p.m., 10/06/2025


________________________________________________________________________________

D:/autodockScripts/autodock4.exe: Successful Completion on "ACER"

Real= 32h 50m 42.77s,  CPU= 44.56s,  System= 4m 38.61s
________________________________________________________________________________

