          AutoDock 4.2 Release 4.2.6   
         (C) 1989-2012 The Scripps Research Institute
        AutoDock comes with ABSOLUTELY NO WARRANTY.
        AutoDock is free software, and you are welcome
        to redistribute it under certain conditions;
        for details type 'autodock4 -C'

                     main.cc  $Revision: 1.213 $

                   Compiled on Jul 18 2014 at 15:34:58


This file was created at:			0:48 04" a.m., 09/29/2025
                   on host:		"ACER"
Current Working Directory = "D:\Protein_go_brrr\autodock\final\6BB5\heme_Fe"

      ________________________________________________________________

                   SETTING UP DEFAULT PARAMETER LIBRARY
      ________________________________________________________________


Random number generator was seeded with values 96892, 1759099684.
Docking parameter file (DPF) used for this docking:		D:/Protein_go_brrr/autodock/final/6BB5/heme_Fe/dock.dpf
DPF> autodock_parameter_version 4.2       # used by autodock to validate parameter set

	Autodock parameter version 4.2.
DPF> outlev 1                             # diagnostic output level

Output Level = 1  ADT-COMPATIBLE OUTPUT DURING DOCKING.
DPF> intelec                              # calculate internal electrostatics

Electrostatic energies will be calculated for all non-bonds between moving atoms.
DPF> seed pid time                        # seeds for random generator

Random number generator was seeded with values 96892, 1759099684.
DPF> ligand_types A C OA N Fe HD          # atoms types in ligand

DPF> fld opt_6BB5.maps.fld                # grid_data_file

Opening Grid Map Dimensions file:		opt_6BB5.maps.fld
Grid Point Spacing =				0.653 Angstroms

Even Number of User-specified Grid Points =	126 x-points
						126 y-points
						126 z-points

Coordinates of Central Grid Point of Maps =	(23.343, 33.533, 11.432)
Macromolecule file used to create Grid Maps =	opt_6BB5.pdbqt
Grid Parameter file used to create Grid Maps =	D:/Protein_go_brrr/autodock/final/6BB5/heme_Fe/grid.gpf
Minimum coordinates in grid = (-17.796, -7.606, -29.707)
Maximum coordinates in grid = (64.482, 74.672, 52.571)

DPF> map opt_6BB5.A.map                   # atom-specific affinity map

DPF> map opt_6BB5.C.map                   # atom-specific affinity map

DPF> map opt_6BB5.OA.map                  # atom-specific affinity map

DPF> map opt_6BB5.N.map                   # atom-specific affinity map

DPF> map opt_6BB5.Fe.map                  # atom-specific affinity map

DPF> map opt_6BB5.HD.map                  # atom-specific affinity map

DPF> elecmap opt_6BB5.e.map               # electrostatics map

DPF> desolvmap opt_6BB5.d.map             # desolvation map

DPF> move heme_Fe_opt.pdbqt               # small molecule

1,4-interactions will be _ignored_ in the non-bonded internal energy calculation.

Ligand PDBQT file = "heme_Fe_opt.pdbqt"

INPUT LIGAND PDBQT FILE:
________________________

INPUT-LIGAND-PDBQT: REMARK  10 active torsions:
INPUT-LIGAND-PDBQT: REMARK  status: ('A' for Active; 'I' for Inactive)
INPUT-LIGAND-PDBQT: REMARK    1  A    between atoms: C_6  and  C_10 
INPUT-LIGAND-PDBQT: REMARK    2  A    between atoms: C_10  and  C_11 
INPUT-LIGAND-PDBQT: REMARK    3  A    between atoms: C_11  and  C_12 
INPUT-LIGAND-PDBQT: REMARK    4  A    between atoms: C_12  and  O_14 
INPUT-LIGAND-PDBQT: REMARK    5  A    between atoms: C_17  and  C_20 
INPUT-LIGAND-PDBQT: REMARK    6  A    between atoms: C_24  and  C_27 
INPUT-LIGAND-PDBQT: REMARK    7  A    between atoms: C_31  and  C_34 
INPUT-LIGAND-PDBQT: REMARK    8  A    between atoms: C_34  and  C_35 
INPUT-LIGAND-PDBQT: REMARK    9  A    between atoms: C_35  and  C_36 
INPUT-LIGAND-PDBQT: REMARK   10  A    between atoms: C_36  and  O_38 
INPUT-LIGAND-PDBQT: ROOT
INPUT-LIGAND-PDBQT: ATOM      1  C   UNL d   1      -2.155  -0.060   0.485  0.00  0.00     0.064 C 
INPUT-LIGAND-PDBQT: ATOM      2  C   UNL d   1       1.497  -3.385   0.291  0.00  0.00     0.064 A 
INPUT-LIGAND-PDBQT: ATOM      3  C   UNL d   1       4.660   0.212  -0.062  0.00  0.00     0.064 C 
INPUT-LIGAND-PDBQT: ATOM      4  C   UNL d   1       1.133   3.443   0.018  0.00  0.00     0.064 C 
INPUT-LIGAND-PDBQT: ATOM      5  C   UNL d   1      -1.427  -1.332   0.379  0.00  0.00     0.066 A 
INPUT-LIGAND-PDBQT: ATOM      6  C   UNL d   1      -2.022  -2.582   0.331  0.00  0.00    -0.021 A 
INPUT-LIGAND-PDBQT: ATOM      7  C   UNL d   1      -1.007  -3.505   0.281  0.00  0.00    -0.025 A 
INPUT-LIGAND-PDBQT: ATOM      8  C   UNL d   1       0.170  -2.782   0.300  0.00  0.00     0.066 A 
INPUT-LIGAND-PDBQT: ATOM      9  C   UNL d   1      -1.169  -4.992   0.200  0.00  0.00     0.051 C 
INPUT-LIGAND-PDBQT: ATOM     10  C   UNL d   1       2.647  -2.710   0.251  0.00  0.00     0.066 A 
INPUT-LIGAND-PDBQT: ATOM     11  C   UNL d   1       3.903  -3.312   0.359  0.00  0.00    -0.021 A 
INPUT-LIGAND-PDBQT: ATOM     12  C   UNL d   1       4.832  -2.294   0.277  0.00  0.00     0.000 A 
INPUT-LIGAND-PDBQT: ATOM     13  C   UNL d   1       4.087  -1.111   0.130  0.00  0.00     0.070 A 
INPUT-LIGAND-PDBQT: ATOM     14  C   UNL d   1       4.202  -4.778   0.598  0.00  0.00     0.052 C 
INPUT-LIGAND-PDBQT: ATOM     15  C   UNL d   1       3.948   1.360  -0.152  0.00  0.00     0.066 A 
INPUT-LIGAND-PDBQT: ATOM     16  C   UNL d   1       4.526   2.591  -0.435  0.00  0.00    -0.021 A 
INPUT-LIGAND-PDBQT: ATOM     17  C   UNL d   1       3.511   3.525  -0.409  0.00  0.00     0.000 A 
INPUT-LIGAND-PDBQT: ATOM     18  C   UNL d   1       2.336   2.841  -0.106  0.00  0.00     0.070 A 
INPUT-LIGAND-PDBQT: ATOM     19  C   UNL d   1       5.979   2.885  -0.695  0.00  0.00     0.052 C 
INPUT-LIGAND-PDBQT: ATOM     20  C   UNL d   1      -0.134   2.748   0.275  0.00  0.00     0.066 A 
INPUT-LIGAND-PDBQT: ATOM     21  C   UNL d   1      -1.347   3.370   0.603  0.00  0.00    -0.025 A 
INPUT-LIGAND-PDBQT: ATOM     22  C   UNL d   1      -2.273   2.354   0.719  0.00  0.00    -0.021 A 
INPUT-LIGAND-PDBQT: ATOM     23  C   UNL d   1      -1.591   1.158   0.465  0.00  0.00     0.066 A 
INPUT-LIGAND-PDBQT: ATOM     24  C   UNL d   1      -1.629   4.841   0.803  0.00  0.00     0.051 C 
INPUT-LIGAND-PDBQT: ATOM     25  N   UNL d   1      -0.089  -1.460   0.350  0.00  0.00    -0.248 N 
INPUT-LIGAND-PDBQT: ATOM     26  N   UNL d   1       2.755  -1.363   0.123  0.00  0.00    -0.248 N 
INPUT-LIGAND-PDBQT: ATOM     27  N   UNL d   1       2.596   1.504   0.009  0.00  0.00    -0.248 N 
INPUT-LIGAND-PDBQT: ATOM     28  N   UNL d   1      -0.277   1.401   0.239  0.00  0.00    -0.248 N 
INPUT-LIGAND-PDBQT: ATOM     29 FE   UNL d   1       1.239   0.021   0.181  0.00  0.00     0.000 Fe
INPUT-LIGAND-PDBQT: ENDROOT
INPUT-LIGAND-PDBQT: BRANCH   6  30
INPUT-LIGAND-PDBQT: ATOM     30  C   UNL d   1      -3.481  -2.886   0.312  0.00  0.00     0.052 C 
INPUT-LIGAND-PDBQT: BRANCH  30  31
INPUT-LIGAND-PDBQT: ATOM     31  C   UNL d   1      -4.006  -2.926  -1.119  0.00  0.00     0.115 C 
INPUT-LIGAND-PDBQT: BRANCH  31  32
INPUT-LIGAND-PDBQT: ATOM     32  C   UNL d   1      -5.478  -3.232  -1.131  0.00  0.00     0.139 C 
INPUT-LIGAND-PDBQT: ATOM     33  O   UNL d   1      -6.086  -3.411  -0.085  0.00  0.00    -0.650 OA
INPUT-LIGAND-PDBQT: BRANCH  32  34
INPUT-LIGAND-PDBQT: ATOM     34  O   UNL d   1      -6.141  -3.312  -2.297  0.00  0.00    -0.776 OA
INPUT-LIGAND-PDBQT: ATOM     35  H   UNL d   1      -7.088  -3.510  -2.286  0.00  0.00     0.167 HD
INPUT-LIGAND-PDBQT: ENDBRANCH  32  34
INPUT-LIGAND-PDBQT: ENDBRANCH  31  32
INPUT-LIGAND-PDBQT: ENDBRANCH  30  31
INPUT-LIGAND-PDBQT: ENDBRANCH   6  30
INPUT-LIGAND-PDBQT: BRANCH  22  36
INPUT-LIGAND-PDBQT: ATOM     36  C   UNL d   1      -3.720   2.522   1.101  0.00  0.00     0.052 C 
INPUT-LIGAND-PDBQT: BRANCH  36  37
INPUT-LIGAND-PDBQT: ATOM     37  C   UNL d   1      -4.581   2.559  -0.153  0.00  0.00     0.115 C 
INPUT-LIGAND-PDBQT: BRANCH  37  38
INPUT-LIGAND-PDBQT: ATOM     38  C   UNL d   1      -6.035   2.706   0.196  0.00  0.00     0.139 C 
INPUT-LIGAND-PDBQT: ATOM     39  O   UNL d   1      -6.394   2.778   1.362  0.00  0.00    -0.650 OA
INPUT-LIGAND-PDBQT: BRANCH  38  40
INPUT-LIGAND-PDBQT: ATOM     40  O   UNL d   1      -6.958   2.756  -0.781  0.00  0.00    -0.776 OA
INPUT-LIGAND-PDBQT: ATOM     41  H   UNL d   1      -7.891   2.847  -0.542  0.00  0.00     0.167 HD
INPUT-LIGAND-PDBQT: ENDBRANCH  38  40
INPUT-LIGAND-PDBQT: ENDBRANCH  37  38
INPUT-LIGAND-PDBQT: ENDBRANCH  36  37
INPUT-LIGAND-PDBQT: ENDBRANCH  22  36
INPUT-LIGAND-PDBQT: BRANCH  12  42
INPUT-LIGAND-PDBQT: ATOM     42  C   UNL d   1       6.314  -2.479   0.357  0.00  0.00     0.004 C 
INPUT-LIGAND-PDBQT: ATOM     43  C   UNL d   1       6.931  -3.422  -0.367  0.00  0.00     0.012 C 
INPUT-LIGAND-PDBQT: ENDBRANCH  12  42
INPUT-LIGAND-PDBQT: BRANCH  17  44
INPUT-LIGAND-PDBQT: ATOM     44  C   UNL d   1       3.653   4.974  -0.677  0.00  0.00     0.004 C 
INPUT-LIGAND-PDBQT: ATOM     45  C   UNL d   1       4.222   5.409  -1.806  0.00  0.00     0.012 C 
INPUT-LIGAND-PDBQT: ENDBRANCH  17  44
INPUT-LIGAND-PDBQT: TORSDOF 10
________________________________________________________________________________

Total charge on ligand                               =	-2.002 e
REMARK  10 active torsions:
REMARK  status: ('A' for Active; 'I' for Inactive)
REMARK    1  A    between atoms: C_6  and  C_10 
REMARK    2  A    between atoms: C_10  and  C_11 
REMARK    3  A    between atoms: C_11  and  C_12 
REMARK    4  A    between atoms: C_12  and  O_14 
REMARK    5  A    between atoms: C_17  and  C_20 
REMARK    6  A    between atoms: C_24  and  C_27 
REMARK    7  A    between atoms: C_31  and  C_34 
REMARK    8  A    between atoms: C_34  and  C_35 
REMARK    9  A    between atoms: C_35  and  C_36 
REMARK   10  A    between atoms: C_36  and  O_38 


Number of Rotatable Bonds in Small Molecule =	10 torsions
Number of atoms in ligand:  45

Number of non-hydrogen atoms in ligand:  43

Number of vibrational degrees of freedom of ligand:  129


Number of torsional degrees of freedom = 10
Estimated loss of torsional free energy upon binding = +2.9830 kcal/mol


DPF> about -0.174 -0.001 -0.047            # small molecule center

Small molecule center of rotation =	(-0.174, -0.001, -0.047)

DPF> tran0 random                         # initial coordinates/A or random

Initial translation =			(-3.932, 62.592, -25.638) Angstroms
DPF> quaternion0 random                   # initial orientation

Each run will begin with a new, random initial orientation.
Initial quaternion,  (x,y,z,w) =	( -0.823, 0.275, 0.466, -0.173 ),
DPF> dihe0 random                         # initial dihedrals (relative) or random

DPF> torsdof 10                            # torsional degrees of freedom

Number of torsional degrees of freedom = 10
Free energy coefficient for torsional degrees of freedom = 0.2983, the factory default value.

Estimated loss of torsional free energy upon binding = +2.9830 kcal/mol

DPF> rmstol 2.0                           # cluster_tolerance/A

Maximum RMS tolerance for conformational cluster analysis = 2.00 Angstroms
DPF> extnrg 1000.0                        # external grid energy

External grid energy (beyond grid map walls) = 1000.00

DPF> e0max 0.0 10000                      # max initial energy; max number of retries

Using user-specified maximum number of retries for simanneal initialization, 10000 retries.
If the simanneal initial energy is greater than e0max, 0.000,
then a new, random initial state will be created.

DPF> ga_pop_size 150                      # number of individuals in population

A population of 150 individuals will be used
DPF> ga_num_evals 25000000                # maximum number of energy evaluations

There will be at most 25000000 function evaluations used.
DPF> ga_num_generations 27000             # maximum number of generations

The GA will run for at most 27000 generations.
DPF> ga_elitism 1                         # number of top individuals to survive to next generation

The 1 best will be preserved each GA generation.
DPF> ga_mutation_rate 0.02                # rate of gene mutation

The mutation rate is 0.020000.
DPF> ga_crossover_rate 0.8                # rate of crossover

The crossover rate is 0.800000.
DPF> ga_window_size 10                    # 

The GA's selection window is 10 generations.
DPF> ga_cauchy_alpha 0.0                  # Alpha parameter of Cauchy distribution

The alpha parameter (for the Cauchy distribution) is being set to 0.000000.
DPF> ga_cauchy_beta 1.0                   # Beta parameter Cauchy distribution

The beta parameter (for the Cauchy distribution) is being set to 1.000000.
DPF> set_ga                               # set the above parameters for GA or LGA

DPF> sw_max_its 300                       # iterations of Solis & Wets local search

Solis & Wets algorithms will perform at most 300 iterations.
DPF> sw_max_succ 4                        # consecutive successes before changing rho

Solis & Wets algorithms expand rho every 4 in a row successes.
DPF> sw_max_fail 4                        # consecutive failures before changing rho

Solis & Wets algorithms contract rho every 4 in a row failures.
DPF> sw_rho 1.0                           # size of local search space to sample

rho is set to 1.000000.
DPF> sw_lb_rho 0.01                       # lower bound on rho

rho will never get smaller than 0.010000.
DPF> ls_search_freq 0.06                  # probability of performing local search on individual

Local search will be performed with frequency 0.060000.
DPF> set_psw1                             # set the above pseudo-Solis & Wets parameters

Creating a new Local Search object using the pseudo-Solis-Wets algorithm (pSW1) with the current settings.

DPF> unbound_model bound                  # state of unbound ligand

DPF> ga_run 100                           # do this many hybrid GA-LS runs

centering ligand on specified point: -0.174 -0.001 -0.047
Furthest true ligand atom from "about" center is 8.241 Angstroms (maxrad).
Number of requested GA dockings = 100 runs
Unbound model to be used is 'same as bound' [AutoDock 4.2 default].

	BEGINNING GENETIC ALGORITHM DOCKING 1 of 100
Run: 1 Seed: 1138820467 1855564007 [ Run 1 of 100 GA/GALS ]
Beginning LAMARCKIAN GENETIC ALGORITHM (LGA), with a maximum of 25000000 energy evaluations.

Final-Value: -17.631


	FINAL GENETIC ALGORITHM DOCKED STATE
	_______________________________________________


Detailed state:  trans 41.701 28.423 15.941 quatxyzw 0.239690 0.099008 -0.947335 0.187890 center -0.174 -0.001 -0.047 ntor 10 -28.6638 145.8887 70.7655 -143.6404 115.8979 -35.5586 -50.2336 0.5717 177.4597 145.2704
State:	 41.701  28.423  15.941   0.244  0.101 -0.965 158.341    -28.66  145.89   70.77 -143.64  115.90  -35.56  -50.23    0.57  177.46  145.27

DOCKED: MODEL        1
DOCKED: USER    Run = 1
DOCKED: USER    DPF = D:/Protein_go_brrr/autodock/final/6BB5/heme_Fe/dock.dpf
DOCKED: USER  
DOCKED: USER    Estimated Free Energy of Binding    =  -13.13 kcal/mol  [=(1)+(2)+(3)-(4)]
DOCKED: USER    Estimated Inhibition Constant, Ki   =  236.15 pM (picomolar)  [Temperature = 298.15 K]
DOCKED: USER    
DOCKED: USER    (1) Final Intermolecular Energy     =  -16.12 kcal/mol
DOCKED: USER        vdW + Hbond + desolv Energy     =  -14.21 kcal/mol
DOCKED: USER        Electrostatic Energy            =   -1.91 kcal/mol
DOCKED: USER    (2) Final Total Internal Energy     =   -1.52 kcal/mol
DOCKED: USER    (3) Torsional Free Energy           =   +2.98 kcal/mol
DOCKED: USER    (4) Unbound System's Energy  [=(2)] =   -1.52 kcal/mol
DOCKED: USER    
DOCKED: USER    
DOCKED: USER    NEWDPF move heme_Fe_opt.pdbqt
DOCKED: USER    NEWDPF about -0.174000 -0.001000 -0.047000
DOCKED: USER    NEWDPF tran0 41.701230 28.422774 15.941366
DOCKED: USER    NEWDPF quaternion0 0.239690 0.099008 -0.947335 0.187890
DOCKED: USER    NEWDPF axisangle0 0.244037 0.100804 -0.964513 158.340687
DOCKED: USER    NEWDPF quat0 0.244037 0.100804 -0.964513 158.340687
DOCKED: USER    NEWDPF dihe0 -28.66 145.89 70.77 -143.64 115.90 -35.56 -50.23 0.57 177.46 145.27 
DOCKED: USER  keepresnum = 1 
DOCKED: USER  
DOCKED: REMARK  10 active torsions:
DOCKED: REMARK  status: ('A' for Active; 'I' for Inactive)
DOCKED: REMARK    1  A    between atoms: C_6  and  C_10 
DOCKED: REMARK    2  A    between atoms: C_10  and  C_11 
DOCKED: REMARK    3  A    between atoms: C_11  and  C_12 
DOCKED: REMARK    4  A    between atoms: C_12  and  O_14 
DOCKED: REMARK    5  A    between atoms: C_17  and  C_20 
DOCKED: REMARK    6  A    between atoms: C_24  and  C_27 
DOCKED: REMARK    7  A    between atoms: C_31  and  C_34 
DOCKED: REMARK    8  A    between atoms: C_34  and  C_35 
DOCKED: REMARK    9  A    between atoms: C_35  and  C_36 
DOCKED: REMARK   10  A    between atoms: C_36  and  O_38 
DOCKED: USER                              x       y       z     vdW  Elec       q    Type
DOCKED: USER                           _______ _______ _______ _____ _____    ______ ____
DOCKED: ROOT
DOCKED: ATOM      1  C   UNL d   1      43.072  27.625  17.244 -0.20 +0.02    +0.064 C 
DOCKED: ATOM      2  C   UNL d   1      41.218  32.143  16.477 -0.41 +0.01    +0.064 A 
DOCKED: ATOM      3  C   UNL d   1      37.706  30.181  13.854 -0.37 +0.01    +0.064 C 
DOCKED: ATOM      4  C   UNL d   1      39.542  25.810  14.496 -0.46 +0.01    +0.064 C 
DOCKED: ATOM      5  C   UNL d   1      42.923  29.087  17.202 -0.24 +0.02    +0.066 A 
DOCKED: ATOM      6  C   UNL d   1      43.817  29.989  17.756 -0.29 -0.01    -0.021 A 
DOCKED: ATOM      7  C   UNL d   1      43.300  31.243  17.545 -0.27 -0.01    -0.025 A 
DOCKED: ATOM      8  C   UNL d   1      42.109  31.058  16.870 -0.35 +0.01    +0.066 A 
DOCKED: ATOM      9  C   UNL d   1      43.930  32.538  17.956 -0.29 +0.01    +0.051 C 
DOCKED: ATOM     10  C   UNL d   1      40.093  31.996  15.775 -0.37 +0.01    +0.066 A 
DOCKED: ATOM     11  C   UNL d   1      39.203  33.040  15.512 -0.41 -0.00    -0.021 A 
DOCKED: ATOM     12  C   UNL d   1      38.172  32.497  14.771 -0.40 +0.00    +0.000 A 
DOCKED: ATOM     13  C   UNL d   1      38.486  31.134  14.626 -0.35 +0.01    +0.070 A 
DOCKED: ATOM     14  C   UNL d   1      39.294  34.471  16.002 -0.51 +0.00    +0.052 C 
DOCKED: ATOM     15  C   UNL d   1      37.976  28.858  13.754 -0.33 +0.01    +0.066 A 
DOCKED: ATOM     16  C   UNL d   1      37.264  27.999  12.926 -0.47 -0.00    -0.021 A 
DOCKED: ATOM     17  C   UNL d   1      37.790  26.737  13.113 -0.45 +0.00    +0.000 A 
DOCKED: ATOM     18  C   UNL d   1      38.809  26.856  14.055 -0.37 +0.01    +0.070 A 
DOCKED: ATOM     19  C   UNL d   1      36.118  28.343  12.014 -0.65 +0.00    +0.052 C 
DOCKED: ATOM     20  C   UNL d   1      40.662  25.906  15.440 -0.38 +0.01    +0.066 A 
DOCKED: ATOM     21  C   UNL d   1      41.297  24.819  16.057 -0.39 -0.00    -0.025 A 
DOCKED: ATOM     22  C   UNL d   1      42.308  25.359  16.826 -0.35 -0.00    -0.021 A 
DOCKED: ATOM     23  C   UNL d   1      42.246  26.747  16.653 -0.30 +0.01    +0.066 A 
DOCKED: ATOM     24  C   UNL d   1      40.975  23.348  15.939 -0.50 +0.00    +0.051 C 
DOCKED: ATOM     25  N   UNL d   1      41.887  29.746  16.655 -0.23 -0.05    -0.248 N 
DOCKED: ATOM     26  N   UNL d   1      39.652  30.827  15.245 -0.13 -0.05    -0.248 N 
DOCKED: ATOM     27  N   UNL d   1      38.953  28.166  14.417 -0.08 -0.07    -0.248 N 
DOCKED: ATOM     28  N   UNL d   1      41.212  27.078  15.843 -0.26 -0.05    -0.248 N 
DOCKED: ATOM     29 FE   UNL d   1      40.432  28.951  15.543 -0.09 +0.00    +0.000 Fe
DOCKED: ENDROOT
DOCKED: BRANCH   6  30
DOCKED: ATOM     30  C   UNL d   1      45.108  29.678  18.432 -0.24 +0.02    +0.052 C 
DOCKED: BRANCH  30  31
DOCKED: ATOM     31  C   UNL d   1      44.912  29.551  19.939 -0.10 +0.08    +0.115 C 
DOCKED: BRANCH  31  32
DOCKED: ATOM     32  C   UNL d   1      45.530  28.277  20.444 -0.14 +0.16    +0.139 C 
DOCKED: ATOM     33  O   UNL d   1      46.472  28.307  21.224 -0.53 -0.96    -0.650 OA
DOCKED: BRANCH  32  34
DOCKED: ATOM     34  O   UNL d   1      45.051  27.088  20.040 +0.03 -0.67    -0.776 OA
DOCKED: ATOM     35  H   UNL d   1      45.648  26.328  20.004 +0.05 +0.12    +0.167 HD
DOCKED: ENDBRANCH  32  34
DOCKED: ENDBRANCH  31  32
DOCKED: ENDBRANCH  30  31
DOCKED: ENDBRANCH   6  30
DOCKED: BRANCH  22  36
DOCKED: ATOM     36  C   UNL d   1      43.247  24.585  17.713 -0.32 +0.01    +0.052 C 
DOCKED: BRANCH  36  37
DOCKED: ATOM     37  C   UNL d   1      43.059  25.017  19.160 -0.33 +0.04    +0.115 C 
DOCKED: BRANCH  37  38
DOCKED: ATOM     38  C   UNL d   1      43.980  24.257  20.073 -0.24 +0.07    +0.139 C 
DOCKED: ATOM     39  O   UNL d   1      44.248  23.085  19.855 -0.48 -0.31    -0.650 OA
DOCKED: BRANCH  38  40
DOCKED: ATOM     40  O   UNL d   1      44.515  24.867  21.145 +0.05 -0.56    -0.776 OA
DOCKED: ATOM     41  H   UNL d   1      44.743  25.805  21.087 +0.05 +0.17    +0.167 HD
DOCKED: ENDBRANCH  38  40
DOCKED: ENDBRANCH  37  38
DOCKED: ENDBRANCH  36  37
DOCKED: ENDBRANCH  22  36
DOCKED: BRANCH  12  42
DOCKED: ATOM     42  C   UNL d   1      36.983  33.255  14.274 -0.47 +0.00    +0.004 C 
DOCKED: ATOM     43  C   UNL d   1      36.735  33.365  12.962 -0.52 +0.00    +0.012 C 
DOCKED: ENDBRANCH  12  42
DOCKED: BRANCH  17  44
DOCKED: ATOM     44  C   UNL d   1      37.359  25.502  12.419 -0.43 +0.00    +0.004 C 
DOCKED: ATOM     45  C   UNL d   1      36.389  24.735  12.927 -0.68 +0.00    +0.012 C 
DOCKED: ENDBRANCH  17  44
DOCKED: TORSDOF 10
DOCKED: TER
DOCKED: ENDMDL
________________________________________________________________________________


	BEGINNING GENETIC ALGORITHM DOCKING 2 of 100
Run: 2 Seed: 361867065 1832193239 [ Run 2 of 100 GA/GALS ]
Beginning LAMARCKIAN GENETIC ALGORITHM (LGA), with a maximum of 25000000 energy evaluations.

Final-Value: -16.197


	FINAL GENETIC ALGORITHM DOCKED STATE
	_______________________________________________


Detailed state:  trans 41.589 28.721 15.918 quatxyzw 0.262827 0.102827 -0.946647 0.155586 center -0.174 -0.001 -0.047 ntor 10 -72.5578 -43.9239 76.0053 -146.4992 -143.2112 34.5006 28.3530 -50.9271 -24.7475 0.6564
State:	 41.589  28.721  15.918   0.266  0.104 -0.958 162.098    -72.56  -43.92   76.01 -146.50 -143.21   34.50   28.35  -50.93  -24.75    0.66

DOCKED: MODEL        2
DOCKED: USER    Run = 2
DOCKED: USER    DPF = D:/Protein_go_brrr/autodock/final/6BB5/heme_Fe/dock.dpf
DOCKED: USER  
DOCKED: USER    Estimated Free Energy of Binding    =  -10.76 kcal/mol  [=(1)+(2)+(3)-(4)]
DOCKED: USER    Estimated Inhibition Constant, Ki   =   13.06 nM (nanomolar)  [Temperature = 298.15 K]
DOCKED: USER    
DOCKED: USER    (1) Final Intermolecular Energy     =  -13.74 kcal/mol
DOCKED: USER        vdW + Hbond + desolv Energy     =  -12.66 kcal/mol
DOCKED: USER        Electrostatic Energy            =   -1.08 kcal/mol
DOCKED: USER    (2) Final Total Internal Energy     =   -2.46 kcal/mol
DOCKED: USER    (3) Torsional Free Energy           =   +2.98 kcal/mol
DOCKED: USER    (4) Unbound System's Energy  [=(2)] =   -2.46 kcal/mol
DOCKED: USER    
DOCKED: USER    
DOCKED: USER    NEWDPF move heme_Fe_opt.pdbqt
DOCKED: USER    NEWDPF about -0.174000 -0.001000 -0.047000
DOCKED: USER    NEWDPF tran0 41.589133 28.720661 15.917511
DOCKED: USER    NEWDPF quaternion0 0.262827 0.102827 -0.946647 0.155586
DOCKED: USER    NEWDPF axisangle0 0.266068 0.104094 -0.958318 162.098395
DOCKED: USER    NEWDPF quat0 0.266068 0.104094 -0.958318 162.098395
DOCKED: USER    NEWDPF dihe0 -72.56 -43.92 76.01 -146.50 -143.21 34.50 28.35 -50.93 -24.75 0.66 
DOCKED: USER  keepresnum = 1 
DOCKED: USER  
DOCKED: REMARK  10 active torsions:
DOCKED: REMARK  status: ('A' for Active; 'I' for Inactive)
DOCKED: REMARK    1  A    between atoms: C_6  and  C_10 
DOCKED: REMARK    2  A    between atoms: C_10  and  C_11 
DOCKED: REMARK    3  A    between atoms: C_11  and  C_12 
DOCKED: REMARK    4  A    between atoms: C_12  and  O_14 
DOCKED: REMARK    5  A    between atoms: C_17  and  C_20 
DOCKED: REMARK    6  A    between atoms: C_24  and  C_27 
DOCKED: REMARK    7  A    between atoms: C_31  and  C_34 
DOCKED: REMARK    8  A    between atoms: C_34  and  C_35 
DOCKED: REMARK    9  A    between atoms: C_35  and  C_36 
DOCKED: REMARK   10  A    between atoms: C_36  and  O_38 
DOCKED: USER                              x       y       z     vdW  Elec       q    Type
DOCKED: USER                           _______ _______ _______ _____ _____    ______ ____
DOCKED: ROOT
DOCKED: ATOM      1  C   UNL d   1      42.933  28.025  17.303 -0.16 +0.02    +0.064 C 
DOCKED: ATOM      2  C   UNL d   1      40.865  32.414  16.359 -0.42 +0.01    +0.064 A 
DOCKED: ATOM      3  C   UNL d   1      37.614  30.209  13.595 -0.33 +0.01    +0.064 C 
DOCKED: ATOM      4  C   UNL d   1      39.663  25.965  14.411 -0.47 +0.01    +0.064 C 
DOCKED: ATOM      5  C   UNL d   1      42.703  29.474  17.227 -0.23 +0.02    +0.066 A 
DOCKED: ATOM      6  C   UNL d   1      43.513  30.435  17.809 -0.31 -0.01    -0.021 A 
DOCKED: ATOM      7  C   UNL d   1      42.936  31.653  17.550 -0.35 -0.00    -0.025 A 
DOCKED: ATOM      8  C   UNL d   1      41.794  31.389  16.818 -0.38 +0.01    +0.066 A 
DOCKED: ATOM      9  C   UNL d   1      43.468  32.990  17.968 -0.39 +0.01    +0.051 C 
DOCKED: ATOM     10  C   UNL d   1      39.788  32.191  15.603 -0.37 +0.01    +0.066 A 
DOCKED: ATOM     11  C   UNL d   1      38.854  33.177  15.276 -0.42 -0.00    -0.021 A 
DOCKED: ATOM     12  C   UNL d   1      37.897  32.563  14.493 -0.40 +0.00    +0.000 A 
DOCKED: ATOM     13  C   UNL d   1      38.296  31.219  14.389 -0.35 +0.01    +0.070 A 
DOCKED: ATOM     14  C   UNL d   1      38.837  34.618  15.743 -0.54 +0.00    +0.052 C 
DOCKED: ATOM     15  C   UNL d   1      37.964  28.903  13.534 -0.34 +0.01    +0.066 A 
DOCKED: ATOM     16  C   UNL d   1      37.348  27.991  12.686 -0.49 -0.00    -0.021 A 
DOCKED: ATOM     17  C   UNL d   1      37.935  26.765  12.923 -0.45 +0.00    +0.000 A 
DOCKED: ATOM     18  C   UNL d   1      38.895  26.958  13.914 -0.35 +0.01    +0.070 A 
DOCKED: ATOM     19  C   UNL d   1      36.233  28.254  11.710 -0.65 +0.01    +0.052 C 
DOCKED: ATOM     20  C   UNL d   1      40.725  26.140  15.410 -0.39 +0.01    +0.066 A 
DOCKED: ATOM     21  C   UNL d   1      41.388  25.102  16.078 -0.38 -0.00    -0.025 A 
DOCKED: ATOM     22  C   UNL d   1      42.324  25.711  16.888 -0.34 -0.00    -0.021 A 
DOCKED: ATOM     23  C   UNL d   1      42.192  27.090  16.687 -0.21 +0.02    +0.066 A 
DOCKED: ATOM     24  C   UNL d   1      41.158  23.612  15.971 -0.50 +0.01    +0.051 C 
DOCKED: ATOM     25  N   UNL d   1      41.661  30.063  16.615 -0.22 -0.05    -0.248 N 
DOCKED: ATOM     26  N   UNL d   1      39.444  30.990  15.073 -0.19 -0.04    -0.248 N 
DOCKED: ATOM     27  N   UNL d   1      38.944  28.280  14.259 -0.01 -0.07    -0.248 N 
DOCKED: ATOM     28  N   UNL d   1      41.184  27.348  15.818 -0.23 -0.05    -0.248 N 
DOCKED: ATOM     29 FE   UNL d   1      40.314  29.167  15.445 -0.09 +0.00    +0.000 Fe
DOCKED: ENDROOT
DOCKED: BRANCH   6  30
DOCKED: ATOM     30  C   UNL d   1      44.783  30.212  18.557 -0.27 +0.02    +0.052 C 
DOCKED: BRANCH  30  31
DOCKED: ATOM     31  C   UNL d   1      45.854  29.630  17.640 -0.01 +0.04    +0.115 C 
DOCKED: BRANCH  31  32
DOCKED: ATOM     32  C   UNL d   1      46.821  28.790  18.428 -0.11 +0.06    +0.139 C 
DOCKED: ATOM     33  O   UNL d   1      48.011  28.781  18.147 +0.01 -0.22    -0.650 OA
DOCKED: BRANCH  32  34
DOCKED: ATOM     34  O   UNL d   1      46.383  28.039  19.453 +0.04 -0.48    -0.776 OA
DOCKED: ATOM     35  H   UNL d   1      46.343  27.078  19.347 +0.04 +0.10    +0.167 HD
DOCKED: ENDBRANCH  32  34
DOCKED: ENDBRANCH  31  32
DOCKED: ENDBRANCH  30  31
DOCKED: ENDBRANCH   6  30
DOCKED: BRANCH  22  36
DOCKED: ATOM     36  C   UNL d   1      43.259  25.007  17.836 -0.31 +0.02    +0.052 C 
DOCKED: BRANCH  36  37
DOCKED: ATOM     37  C   UNL d   1      44.619  24.829  17.179 -0.21 +0.04    +0.115 C 
DOCKED: BRANCH  37  38
DOCKED: ATOM     38  C   UNL d   1      45.718  25.344  18.065 -0.13 +0.06    +0.139 C 
DOCKED: ATOM     39  O   UNL d   1      45.639  25.244  19.280 +0.06 -0.34    -0.650 OA
DOCKED: BRANCH  38  40
DOCKED: ATOM     40  O   UNL d   1      46.802  25.925  17.521 +0.04 -0.37    -0.776 OA
DOCKED: ATOM     41  H   UNL d   1      47.143  26.741  17.912 +0.04 +0.07    +0.167 HD
DOCKED: ENDBRANCH  38  40
DOCKED: ENDBRANCH  37  38
DOCKED: ENDBRANCH  36  37
DOCKED: ENDBRANCH  22  36
DOCKED: BRANCH  12  42
DOCKED: ATOM     42  C   UNL d   1      36.694  33.243  13.921 -0.47 +0.00    +0.004 C 
DOCKED: ATOM     43  C   UNL d   1      36.455  33.228  12.603 -0.56 +0.00    +0.012 C 
DOCKED: ENDBRANCH  12  42
DOCKED: BRANCH  17  44
DOCKED: ATOM     44  C   UNL d   1      37.613  25.497  12.231 -0.21 +0.00    +0.004 C 
DOCKED: ATOM     45  C   UNL d   1      36.704  24.655  12.732 -0.67 +0.00    +0.012 C 
DOCKED: ENDBRANCH  17  44
DOCKED: TORSDOF 10
DOCKED: TER
DOCKED: ENDMDL
________________________________________________________________________________


	BEGINNING GENETIC ALGORITHM DOCKING 3 of 100
Run: 3 Seed: 106214320 1720823159 [ Run 3 of 100 GA/GALS ]
Beginning LAMARCKIAN GENETIC ALGORITHM (LGA), with a maximum of 25000000 energy evaluations.

Final-Value: -16.127


	FINAL GENETIC ALGORITHM DOCKED STATE
	_______________________________________________


Detailed state:  trans 41.247 28.625 16.542 quatxyzw 0.136271 0.927760 0.082568 -0.337454 center -0.174 -0.001 -0.047 ntor 10 -81.0808 34.7231 74.1440 -123.2492 -170.1515 170.0530 -38.4180 -0.6606 -47.3341 31.3915
State:	 41.247  28.625  16.542   0.145  0.986  0.088 -140.556    -81.08   34.72   74.14 -123.25 -170.15  170.05  -38.42   -0.66  -47.33   31.39

DOCKED: MODEL        3
DOCKED: USER    Run = 3
DOCKED: USER    DPF = D:/Protein_go_brrr/autodock/final/6BB5/heme_Fe/dock.dpf
DOCKED: USER  
DOCKED: USER    Estimated Free Energy of Binding    =  -12.85 kcal/mol  [=(1)+(2)+(3)-(4)]
DOCKED: USER    Estimated Inhibition Constant, Ki   =  384.11 pM (picomolar)  [Temperature = 298.15 K]
DOCKED: USER    
DOCKED: USER    (1) Final Intermolecular Energy     =  -15.83 kcal/mol
DOCKED: USER        vdW + Hbond + desolv Energy     =  -14.10 kcal/mol
DOCKED: USER        Electrostatic Energy            =   -1.73 kcal/mol
DOCKED: USER    (2) Final Total Internal Energy     =   -0.30 kcal/mol
DOCKED: USER    (3) Torsional Free Energy           =   +2.98 kcal/mol
DOCKED: USER    (4) Unbound System's Energy  [=(2)] =   -0.30 kcal/mol
DOCKED: USER    
DOCKED: USER    
DOCKED: USER    NEWDPF move heme_Fe_opt.pdbqt
DOCKED: USER    NEWDPF about -0.174000 -0.001000 -0.047000
DOCKED: USER    NEWDPF tran0 41.247298 28.624983 16.541752
DOCKED: USER    NEWDPF quaternion0 0.136271 0.927760 0.082568 -0.337454
DOCKED: USER    NEWDPF axisangle0 0.144763 0.985571 0.087713 -140.556387
DOCKED: USER    NEWDPF quat0 0.144763 0.985571 0.087713 -140.556387
DOCKED: USER    NEWDPF dihe0 -81.08 34.72 74.14 -123.25 -170.15 170.05 -38.42 -0.66 -47.33 31.39 
DOCKED: USER  keepresnum = 1 
DOCKED: USER  
DOCKED: REMARK  10 active torsions:
DOCKED: REMARK  status: ('A' for Active; 'I' for Inactive)
DOCKED: REMARK    1  A    between atoms: C_6  and  C_10 
DOCKED: REMARK    2  A    between atoms: C_10  and  C_11 
DOCKED: REMARK    3  A    between atoms: C_11  and  C_12 
DOCKED: REMARK    4  A    between atoms: C_12  and  O_14 
DOCKED: REMARK    5  A    between atoms: C_17  and  C_20 
DOCKED: REMARK    6  A    between atoms: C_24  and  C_27 
DOCKED: REMARK    7  A    between atoms: C_31  and  C_34 
DOCKED: REMARK    8  A    between atoms: C_34  and  C_35 
DOCKED: REMARK    9  A    between atoms: C_35  and  C_36 
DOCKED: REMARK   10  A    between atoms: C_36  and  O_38 
DOCKED: USER                              x       y       z     vdW  Elec       q    Type
DOCKED: USER                           _______ _______ _______ _____ _____    ______ ____
DOCKED: ROOT
DOCKED: ATOM      1  C   UNL d   1      43.037  27.990  17.320 -0.16 +0.02    +0.064 C 
DOCKED: ATOM      2  C   UNL d   1      39.571  25.949  14.447 -0.40 +0.01    +0.064 A 
DOCKED: ATOM      3  C   UNL d   1      37.726  30.318  13.687 -0.40 +0.01    +0.064 C 
DOCKED: ATOM      4  C   UNL d   1      41.008  32.301  16.548 -0.49 +0.01    +0.064 C 
DOCKED: ATOM      5  C   UNL d   1      42.182  27.001  16.649 -0.27 +0.02    +0.066 A 
DOCKED: ATOM      6  C   UNL d   1      42.342  25.628  16.738 -0.35 -0.00    -0.021 A 
DOCKED: ATOM      7  C   UNL d   1      41.382  25.062  15.937 -0.39 -0.00    -0.025 A 
DOCKED: ATOM      8  C   UNL d   1      40.671  26.113  15.389 -0.39 +0.01    +0.066 A 
DOCKED: ATOM      9  C   UNL d   1      41.155  23.595  15.731 -0.51 +0.01    +0.051 C 
DOCKED: ATOM     10  C   UNL d   1      38.833  26.942  13.949 -0.36 +0.01    +0.066 A 
DOCKED: ATOM     11  C   UNL d   1      37.861  26.765  12.961 -0.44 -0.00    -0.021 A 
DOCKED: ATOM     12  C   UNL d   1      37.325  28.013  12.712 -0.50 +0.00    +0.000 A 
DOCKED: ATOM     13  C   UNL d   1      38.011  28.897  13.563 -0.33 +0.01    +0.070 A 
DOCKED: ATOM     14  C   UNL d   1      37.507  25.480  12.240 -0.22 +0.01    +0.052 C 
DOCKED: ATOM     15  C   UNL d   1      38.417  31.182  14.467 -0.36 +0.01    +0.066 A 
DOCKED: ATOM     16  C   UNL d   1      38.052  32.512  14.634 -0.38 -0.00    -0.021 A 
DOCKED: ATOM     17  C   UNL d   1      38.999  33.087  15.456 -0.42 +0.00    +0.000 A 
DOCKED: ATOM     18  C   UNL d   1      39.924  32.094  15.768 -0.37 +0.01    +0.070 A 
DOCKED: ATOM     19  C   UNL d   1      36.873  33.223  14.027 -0.43 +0.00    +0.052 C 
DOCKED: ATOM     20  C   UNL d   1      41.969  31.266  16.947 -0.37 +0.01    +0.066 A 
DOCKED: ATOM     21  C   UNL d   1      43.196  31.503  17.583 -0.28 -0.00    -0.025 A 
DOCKED: ATOM     22  C   UNL d   1      43.751  30.260  17.805 -0.30 -0.01    -0.021 A 
DOCKED: ATOM     23  C   UNL d   1      42.850  29.319  17.293 -0.23 +0.02    +0.066 A 
DOCKED: ATOM     24  C   UNL d   1      43.823  32.824  17.962 -0.33 +0.01    +0.051 C 
DOCKED: ATOM     25  N   UNL d   1      41.155  27.291  15.832 -0.24 -0.05    -0.248 N 
DOCKED: ATOM     26  N   UNL d   1      38.936  28.246  14.311 -0.04 -0.07    -0.248 N 
DOCKED: ATOM     27  N   UNL d   1      39.544  30.912  15.196 -0.19 -0.05    -0.248 N 
DOCKED: ATOM     28  N   UNL d   1      41.785  29.942  16.731 -0.23 -0.05    -0.248 N 
DOCKED: ATOM     29 FE   UNL d   1      40.361  29.096  15.521 -0.09 +0.00    +0.000 Fe
DOCKED: ENDROOT
DOCKED: BRANCH   6  30
DOCKED: ATOM     30  C   UNL d   1      43.342  24.888  17.558 -0.31 +0.02    +0.052 C 
DOCKED: BRANCH  30  31
DOCKED: ATOM     31  C   UNL d   1      43.478  25.517  18.941 -0.25 +0.05    +0.115 C 
DOCKED: BRANCH  31  32
DOCKED: ATOM     32  C   UNL d   1      43.647  24.452  19.989 -0.28 +0.06    +0.139 C 
DOCKED: ATOM     33  O   UNL d   1      43.596  24.733  21.178 -0.01 -0.41    -0.650 OA
DOCKED: BRANCH  32  34
DOCKED: ATOM     34  O   UNL d   1      43.858  23.175  19.626 -0.27 -0.33    -0.776 OA
DOCKED: ATOM     35  H   UNL d   1      44.761  22.829  19.629 +0.05 +0.08    +0.167 HD
DOCKED: ENDBRANCH  32  34
DOCKED: ENDBRANCH  31  32
DOCKED: ENDBRANCH  30  31
DOCKED: ENDBRANCH   6  30
DOCKED: BRANCH  22  36
DOCKED: ATOM     36  C   UNL d   1      45.096  29.996  18.430 -0.24 +0.02    +0.052 C 
DOCKED: BRANCH  36  37
DOCKED: ATOM     37  C   UNL d   1      44.947  28.995  19.566 -0.22 +0.08    +0.115 C 
DOCKED: BRANCH  37  38
DOCKED: ATOM     38  C   UNL d   1      46.279  28.683  20.188 -0.14 +0.12    +0.139 C 
DOCKED: ATOM     39  O   UNL d   1      46.349  28.044  21.227 -0.52 -1.01    -0.650 OA
DOCKED: BRANCH  38  40
DOCKED: ATOM     40  O   UNL d   1      47.410  29.112  19.601 +0.03 -0.39    -0.776 OA
DOCKED: ATOM     41  H   UNL d   1      48.204  28.561  19.651 +0.02 +0.08    +0.167 HD
DOCKED: ENDBRANCH  38  40
DOCKED: ENDBRANCH  37  38
DOCKED: ENDBRANCH  36  37
DOCKED: ENDBRANCH  22  36
DOCKED: BRANCH  12  42
DOCKED: ATOM     42  C   UNL d   1      36.251  28.300  11.711 -0.69 +0.00    +0.004 C 
DOCKED: ATOM     43  C   UNL d   1      35.097  28.867  12.083 -0.62 +0.00    +0.012 C 
DOCKED: ENDBRANCH  12  42
DOCKED: BRANCH  17  44
DOCKED: ATOM     44  C   UNL d   1      39.006  34.490  15.929 -0.59 +0.00    +0.004 C 
DOCKED: ATOM     45  C   UNL d   1      39.243  35.497  15.082 -0.61 +0.00    +0.012 C 
DOCKED: ENDBRANCH  17  44
DOCKED: TORSDOF 10
DOCKED: TER
DOCKED: ENDMDL
________________________________________________________________________________


	BEGINNING GENETIC ALGORITHM DOCKING 4 of 100
Run: 4 Seed: 531381691 658467790 [ Run 4 of 100 GA/GALS ]
Beginning LAMARCKIAN GENETIC ALGORITHM (LGA), with a maximum of 25000000 energy evaluations.

Final-Value: -18.233


	FINAL GENETIC ALGORITHM DOCKED STATE
	_______________________________________________


Detailed state:  trans 41.711 28.295 15.936 quatxyzw -0.235948 -0.101044 0.947702 -0.189683 center -0.174 -0.001 -0.047 ntor 10 -40.1909 -171.8069 68.9602 -143.4968 64.5484 -75.5957 -62.5893 7.8648 168.1781 143.8210
State:	 41.711  28.295  15.936  -0.240 -0.103  0.965 -158.131    -40.19 -171.81   68.96 -143.50   64.55  -75.60  -62.59    7.86  168.18  143.82

DOCKED: MODEL        4
DOCKED: USER    Run = 4
DOCKED: USER    DPF = D:/Protein_go_brrr/autodock/final/6BB5/heme_Fe/dock.dpf
DOCKED: USER  
DOCKED: USER    Estimated Free Energy of Binding    =  -13.17 kcal/mol  [=(1)+(2)+(3)-(4)]
DOCKED: USER    Estimated Inhibition Constant, Ki   =  222.08 pM (picomolar)  [Temperature = 298.15 K]
DOCKED: USER    
DOCKED: USER    (1) Final Intermolecular Energy     =  -16.15 kcal/mol
DOCKED: USER        vdW + Hbond + desolv Energy     =  -13.93 kcal/mol
DOCKED: USER        Electrostatic Energy            =   -2.22 kcal/mol
DOCKED: USER    (2) Final Total Internal Energy     =   -2.08 kcal/mol
DOCKED: USER    (3) Torsional Free Energy           =   +2.98 kcal/mol
DOCKED: USER    (4) Unbound System's Energy  [=(2)] =   -2.08 kcal/mol
DOCKED: USER    
DOCKED: USER    
DOCKED: USER    NEWDPF move heme_Fe_opt.pdbqt
DOCKED: USER    NEWDPF about -0.174000 -0.001000 -0.047000
DOCKED: USER    NEWDPF tran0 41.710700 28.295026 15.936284
DOCKED: USER    NEWDPF quaternion0 -0.235948 -0.101044 0.947702 -0.189683
DOCKED: USER    NEWDPF axisangle0 -0.240310 -0.102912 0.965225 -158.131475
DOCKED: USER    NEWDPF quat0 -0.240310 -0.102912 0.965225 -158.131475
DOCKED: USER    NEWDPF dihe0 -40.19 -171.81 68.96 -143.50 64.55 -75.60 -62.59 7.86 168.18 143.82 
DOCKED: USER  keepresnum = 1 
DOCKED: USER  
DOCKED: REMARK  10 active torsions:
DOCKED: REMARK  status: ('A' for Active; 'I' for Inactive)
DOCKED: REMARK    1  A    between atoms: C_6  and  C_10 
DOCKED: REMARK    2  A    between atoms: C_10  and  C_11 
DOCKED: REMARK    3  A    between atoms: C_11  and  C_12 
DOCKED: REMARK    4  A    between atoms: C_12  and  O_14 
DOCKED: REMARK    5  A    between atoms: C_17  and  C_20 
DOCKED: REMARK    6  A    between atoms: C_24  and  C_27 
DOCKED: REMARK    7  A    between atoms: C_31  and  C_34 
DOCKED: REMARK    8  A    between atoms: C_34  and  C_35 
DOCKED: REMARK    9  A    between atoms: C_35  and  C_36 
DOCKED: REMARK   10  A    between atoms: C_36  and  O_38 
DOCKED: USER                              x       y       z     vdW  Elec       q    Type
DOCKED: USER                           _______ _______ _______ _____ _____    ______ ____
DOCKED: ROOT
DOCKED: ATOM      1  C   UNL d   1      43.089  27.488  17.225 -0.22 +0.02    +0.064 C 
DOCKED: ATOM      2  C   UNL d   1      41.237  32.012  16.498 -0.40 +0.01    +0.064 A 
DOCKED: ATOM      3  C   UNL d   1      37.704  30.072  13.887 -0.37 +0.01    +0.064 C 
DOCKED: ATOM      4  C   UNL d   1      39.538  25.695  14.490 -0.46 +0.01    +0.064 C 
DOCKED: ATOM      5  C   UNL d   1      42.942  28.949  17.193 -0.23 +0.02    +0.066 A 
DOCKED: ATOM      6  C   UNL d   1      43.841  29.847  17.745 -0.29 -0.01    -0.021 A 
DOCKED: ATOM      7  C   UNL d   1      43.324  31.103  17.546 -0.28 -0.01    -0.025 A 
DOCKED: ATOM      8  C   UNL d   1      42.129  30.924  16.878 -0.35 +0.01    +0.066 A 
DOCKED: ATOM      9  C   UNL d   1      43.960  32.395  17.960 -0.29 +0.01    +0.051 C 
DOCKED: ATOM     10  C   UNL d   1      40.107  31.872  15.803 -0.36 +0.01    +0.066 A 
DOCKED: ATOM     11  C   UNL d   1      39.216  32.919  15.552 -0.40 -0.00    -0.021 A 
DOCKED: ATOM     12  C   UNL d   1      38.180  32.382  14.815 -0.39 +0.00    +0.000 A 
DOCKED: ATOM     13  C   UNL d   1      38.491  31.020  14.660 -0.35 +0.01    +0.070 A 
DOCKED: ATOM     14  C   UNL d   1      39.313  34.347  16.049 -0.48 +0.00    +0.052 C 
DOCKED: ATOM     15  C   UNL d   1      37.971  28.749  13.777 -0.33 +0.01    +0.066 A 
DOCKED: ATOM     16  C   UNL d   1      37.252  27.896  12.949 -0.47 -0.00    -0.021 A 
DOCKED: ATOM     17  C   UNL d   1      37.777  26.632  13.124 -0.45 +0.00    +0.000 A 
DOCKED: ATOM     18  C   UNL d   1      38.803  26.744  14.060 -0.37 +0.01    +0.070 A 
DOCKED: ATOM     19  C   UNL d   1      36.100  28.247  12.047 -0.65 +0.00    +0.052 C 
DOCKED: ATOM     20  C   UNL d   1      40.664  25.783  15.427 -0.38 +0.01    +0.066 A 
DOCKED: ATOM     21  C   UNL d   1      41.302  24.691  16.033 -0.40 -0.00    -0.025 A 
DOCKED: ATOM     22  C   UNL d   1      42.319  25.225  16.798 -0.35 -0.00    -0.021 A 
DOCKED: ATOM     23  C   UNL d   1      42.258  26.614  16.634 -0.31 +0.01    +0.066 A 
DOCKED: ATOM     24  C   UNL d   1      40.976  23.221  15.908 -0.50 +0.00    +0.051 C 
DOCKED: ATOM     25  N   UNL d   1      41.903  29.613  16.656 -0.23 -0.05    -0.248 N 
DOCKED: ATOM     26  N   UNL d   1      39.661  30.707  15.269 -0.08 -0.06    -0.248 N 
DOCKED: ATOM     27  N   UNL d   1      38.952  28.051  14.429 -0.11 -0.07    -0.248 N 
DOCKED: ATOM     28  N   UNL d   1      41.219  26.951  15.833 -0.26 -0.05    -0.248 N 
DOCKED: ATOM     29 FE   UNL d   1      40.439  28.827  15.550 -0.09 +0.00    +0.000 Fe
DOCKED: ENDROOT
DOCKED: BRANCH   6  30
DOCKED: ATOM     30  C   UNL d   1      45.137  29.530  18.411 -0.23 +0.02    +0.052 C 
DOCKED: BRANCH  30  31
DOCKED: ATOM     31  C   UNL d   1      45.001  29.619  19.927 -0.13 +0.08    +0.115 C 
DOCKED: BRANCH  31  32
DOCKED: ATOM     32  C   UNL d   1      45.263  28.280  20.558 -0.11 +0.17    +0.139 C 
DOCKED: ATOM     33  O   UNL d   1      46.367  27.759  20.479 -0.16 -0.64    -0.650 OA
DOCKED: BRANCH  32  34
DOCKED: ATOM     34  O   UNL d   1      44.282  27.641  21.217 -0.09 -1.42    -0.776 OA
DOCKED: ATOM     35  H   UNL d   1      44.193  26.683  21.114 +0.05 +0.23    +0.167 HD
DOCKED: ENDBRANCH  32  34
DOCKED: ENDBRANCH  31  32
DOCKED: ENDBRANCH  30  31
DOCKED: ENDBRANCH   6  30
DOCKED: BRANCH  22  36
DOCKED: ATOM     36  C   UNL d   1      43.263  24.444  17.674 -0.32 +0.01    +0.052 C 
DOCKED: BRANCH  36  37
DOCKED: ATOM     37  C   UNL d   1      43.111  24.893  19.120 -0.33 +0.04    +0.115 C 
DOCKED: BRANCH  37  38
DOCKED: ATOM     38  C   UNL d   1      44.155  24.258  19.994 -0.23 +0.07    +0.139 C 
DOCKED: ATOM     39  O   UNL d   1      44.062  23.086  20.328 -0.51 -0.33    -0.650 OA
DOCKED: BRANCH  38  40
DOCKED: ATOM     40  O   UNL d   1      45.205  24.982  20.419 +0.08 -0.49    -0.776 OA
DOCKED: ATOM     41  H   UNL d   1      45.217  25.935  20.253 +0.05 +0.13    +0.167 HD
DOCKED: ENDBRANCH  38  40
DOCKED: ENDBRANCH  37  38
DOCKED: ENDBRANCH  36  37
DOCKED: ENDBRANCH  22  36
DOCKED: BRANCH  12  42
DOCKED: ATOM     42  C   UNL d   1      36.989  33.145  14.331 -0.46 +0.00    +0.004 C 
DOCKED: ATOM     43  C   UNL d   1      36.751  33.294  13.021 -0.52 +0.00    +0.012 C 
DOCKED: ENDBRANCH  12  42
DOCKED: BRANCH  17  44
DOCKED: ATOM     44  C   UNL d   1      37.340  25.402  12.426 -0.46 +0.00    +0.004 C 
DOCKED: ATOM     45  C   UNL d   1      36.370  24.635  12.935 -0.69 +0.00    +0.012 C 
DOCKED: ENDBRANCH  17  44
DOCKED: TORSDOF 10
DOCKED: TER
DOCKED: ENDMDL
________________________________________________________________________________


	BEGINNING GENETIC ALGORITHM DOCKING 5 of 100
Run: 5 Seed: 1523928840 1693029816 [ Run 5 of 100 GA/GALS ]
Beginning LAMARCKIAN GENETIC ALGORITHM (LGA), with a maximum of 25000000 energy evaluations.

Final-Value: -11.385


	FINAL GENETIC ALGORITHM DOCKED STATE
	_______________________________________________


Detailed state:  trans 35.813 29.258 0.382 quatxyzw -0.977580 0.027126 0.133951 -0.160183 center -0.174 -0.001 -0.047 ntor 10 46.1420 103.6434 95.8771 41.4578 -80.3877 -168.7235 -101.1064 -52.1255 167.2073 10.0849
State:	 35.813  29.258   0.382  -0.990  0.027  0.136 -161.565     46.14  103.64   95.88   41.46  -80.39 -168.72 -101.11  -52.13  167.21   10.08

DOCKED: MODEL        5
DOCKED: USER    Run = 5
DOCKED: USER    DPF = D:/Protein_go_brrr/autodock/final/6BB5/heme_Fe/dock.dpf
DOCKED: USER  
DOCKED: USER    Estimated Free Energy of Binding    =   -6.71 kcal/mol  [=(1)+(2)+(3)-(4)]
DOCKED: USER    Estimated Inhibition Constant, Ki   =   12.11 uM (micromolar)  [Temperature = 298.15 K]
DOCKED: USER    
DOCKED: USER    (1) Final Intermolecular Energy     =   -9.69 kcal/mol
DOCKED: USER        vdW + Hbond + desolv Energy     =   -7.38 kcal/mol
DOCKED: USER        Electrostatic Energy            =   -2.31 kcal/mol
DOCKED: USER    (2) Final Total Internal Energy     =   -1.69 kcal/mol
DOCKED: USER    (3) Torsional Free Energy           =   +2.98 kcal/mol
DOCKED: USER    (4) Unbound System's Energy  [=(2)] =   -1.69 kcal/mol
DOCKED: USER    
DOCKED: USER    
DOCKED: USER    NEWDPF move heme_Fe_opt.pdbqt
DOCKED: USER    NEWDPF about -0.174000 -0.001000 -0.047000
DOCKED: USER    NEWDPF tran0 35.813455 29.258338 0.382188
DOCKED: USER    NEWDPF quaternion0 -0.977580 0.027126 0.133951 -0.160183
DOCKED: USER    NEWDPF axisangle0 -0.990368 0.027481 0.135704 -161.564971
DOCKED: USER    NEWDPF quat0 -0.990368 0.027481 0.135704 -161.564971
DOCKED: USER    NEWDPF dihe0 46.14 103.64 95.88 41.46 -80.39 -168.72 -101.11 -52.13 167.21 10.08 
DOCKED: USER  keepresnum = 1 
DOCKED: USER  
DOCKED: REMARK  10 active torsions:
DOCKED: REMARK  status: ('A' for Active; 'I' for Inactive)
DOCKED: REMARK    1  A    between atoms: C_6  and  C_10 
DOCKED: REMARK    2  A    between atoms: C_10  and  C_11 
DOCKED: REMARK    3  A    between atoms: C_11  and  C_12 
DOCKED: REMARK    4  A    between atoms: C_12  and  O_14 
DOCKED: REMARK    5  A    between atoms: C_17  and  C_20 
DOCKED: REMARK    6  A    between atoms: C_24  and  C_27 
DOCKED: REMARK    7  A    between atoms: C_31  and  C_34 
DOCKED: REMARK    8  A    between atoms: C_34  and  C_35 
DOCKED: REMARK    9  A    between atoms: C_35  and  C_36 
DOCKED: REMARK   10  A    between atoms: C_36  and  O_38 
DOCKED: USER                              x       y       z     vdW  Elec       q    Type
DOCKED: USER                           _______ _______ _______ _____ _____    ______ ____
DOCKED: ROOT
DOCKED: ATOM      1  C   UNL d   1      33.777  29.505   0.451 -0.16 +0.01    +0.064 C 
DOCKED: ATOM      2  C   UNL d   1      37.661  32.555   0.657 -0.18 -0.01    +0.064 A 
DOCKED: ATOM      3  C   UNL d   1      40.450  29.003  -0.977 -0.23 -0.00    +0.064 C 
DOCKED: ATOM      4  C   UNL d   1      36.725  26.004  -1.084 -0.13 -0.00    +0.064 C 
DOCKED: ATOM      5  C   UNL d   1      34.627  30.668   0.740 -0.12 +0.01    +0.066 A 
DOCKED: ATOM      6  C   UNL d   1      34.186  31.843   1.327 -0.14 -0.00    -0.021 A 
DOCKED: ATOM      7  C   UNL d   1      35.265  32.691   1.380 -0.16 -0.00    -0.025 A 
DOCKED: ATOM      8  C   UNL d   1      36.324  32.000   0.823 -0.17 -0.00    +0.066 A 
DOCKED: ATOM      9  C   UNL d   1      35.272  34.075   1.953 -0.27 +0.00    +0.051 C 
DOCKED: ATOM     10  C   UNL d   1      38.714  31.891   0.176 -0.24 -0.01    +0.066 A 
DOCKED: ATOM     11  C   UNL d   1      39.953  32.483  -0.079 -0.26 +0.00    -0.021 A 
DOCKED: ATOM     12  C   UNL d   1      40.770  31.483  -0.567 -0.22 -0.00    +0.000 A 
DOCKED: ATOM     13  C   UNL d   1      39.977  30.323  -0.593 -0.24 -0.01    +0.070 A 
DOCKED: ATOM     14  C   UNL d   1      40.321  33.946   0.071 -0.35 -0.00    +0.052 C 
DOCKED: ATOM     15  C   UNL d   1      39.677  27.894  -1.054 -0.20 -0.00    +0.066 A 
DOCKED: ATOM     16  C   UNL d   1      40.187  26.631  -1.328 -0.19 -0.00    -0.021 A 
DOCKED: ATOM     17  C   UNL d   1      39.114  25.765  -1.363 -0.15 -0.00    +0.000 A 
DOCKED: ATOM     18  C   UNL d   1      37.972  26.522  -1.113 -0.13 -0.00    +0.070 A 
DOCKED: ATOM     19  C   UNL d   1      41.624  26.255  -1.574 -0.17 +0.00    +0.052 C 
DOCKED: ATOM     20  C   UNL d   1      35.507  26.757  -0.764 -0.11 -0.00    +0.066 A 
DOCKED: ATOM     21  C   UNL d   1      34.196  26.285  -0.925 -0.10 +0.00    -0.025 A 
DOCKED: ATOM     22  C   UNL d   1      33.373  27.294  -0.469 -0.12 -0.00    -0.021 A 
DOCKED: ATOM     23  C   UNL d   1      34.209  28.339  -0.056 -0.13 +0.01    +0.066 A 
DOCKED: ATOM     24  C   UNL d   1      33.733  24.959  -1.481 -0.06 -0.01    +0.051 C 
DOCKED: ATOM     25  N   UNL d   1      35.935  30.767   0.443 -0.08 -0.01    -0.248 N 
DOCKED: ATOM     26  N   UNL d   1      38.721  30.573  -0.149 -0.16 +0.02    -0.248 N 
DOCKED: ATOM     27  N   UNL d   1      38.321  27.823  -0.879 -0.11 +0.00    -0.248 N 
DOCKED: ATOM     28  N   UNL d   1      35.507  28.023  -0.280 -0.08 -0.01    -0.248 N 
DOCKED: ATOM     29 FE   UNL d   1      37.114  29.296  -0.215 -0.04 +0.00    +0.000 Fe
DOCKED: ENDROOT
DOCKED: BRANCH   6  30
DOCKED: ATOM     30  C   UNL d   1      32.816  32.140   1.832 -0.11 +0.03    +0.052 C 
DOCKED: BRANCH  30  31
DOCKED: ATOM     31  C   UNL d   1      32.066  33.044   0.860 -0.07 +0.07    +0.115 C 
DOCKED: BRANCH  31  32
DOCKED: ATOM     32  C   UNL d   1      31.538  32.246  -0.300 -0.06 +0.10    +0.139 C 
DOCKED: ATOM     33  O   UNL d   1      32.269  31.944  -1.232 +0.01 -0.22    -0.650 OA
DOCKED: BRANCH  32  34
DOCKED: ATOM     34  O   UNL d   1      30.252  31.858  -0.322 -0.36 -1.12    -0.776 OA
DOCKED: ATOM     35  H   UNL d   1      30.041  30.944  -0.561 +0.01 +0.24    +0.167 HD
DOCKED: ENDBRANCH  32  34
DOCKED: ENDBRANCH  31  32
DOCKED: ENDBRANCH  30  31
DOCKED: ENDBRANCH   6  30
DOCKED: BRANCH  22  36
DOCKED: ATOM     36  C   UNL d   1      31.867  27.272  -0.478 -0.10 +0.01    +0.052 C 
DOCKED: BRANCH  36  37
DOCKED: ATOM     37  C   UNL d   1      31.348  27.090   0.941 -0.13 +0.03    +0.115 C 
DOCKED: BRANCH  37  38
DOCKED: ATOM     38  C   UNL d   1      30.353  28.160   1.292 -0.13 +0.12    +0.139 C 
DOCKED: ATOM     39  O   UNL d   1      29.976  28.309   2.445 -0.47 -0.76    -0.650 OA
DOCKED: BRANCH  38  40
DOCKED: ATOM     40  O   UNL d   1      29.865  28.964   0.331 -0.29 -0.99    -0.776 OA
DOCKED: ATOM     41  H   UNL d   1      30.419  29.681  -0.008 +0.02 +0.22    +0.167 HD
DOCKED: ENDBRANCH  38  40
DOCKED: ENDBRANCH  37  38
DOCKED: ENDBRANCH  36  37
DOCKED: ENDBRANCH  22  36
DOCKED: BRANCH  12  42
DOCKED: ATOM     42  C   UNL d   1      42.195  31.669  -0.984 -0.36 -0.00    +0.004 C 
DOCKED: ATOM     43  C   UNL d   1      43.108  30.715  -0.763 -0.44 -0.00    +0.012 C 
DOCKED: ENDBRANCH  12  42
DOCKED: BRANCH  17  44
DOCKED: ATOM     44  C   UNL d   1      39.180  24.305  -1.600 -0.09 -0.00    +0.004 C 
DOCKED: ATOM     45  C   UNL d   1      39.213  23.446  -0.576 -0.12 -0.00    +0.012 C 
DOCKED: ENDBRANCH  17  44
DOCKED: TORSDOF 10
DOCKED: TER
DOCKED: ENDMDL
________________________________________________________________________________


	BEGINNING GENETIC ALGORITHM DOCKING 6 of 100
Run: 6 Seed: 301848677 1347069246 [ Run 6 of 100 GA/GALS ]
Beginning LAMARCKIAN GENETIC ALGORITHM (LGA), with a maximum of 25000000 energy evaluations.

Final-Value: -16.835


	FINAL GENETIC ALGORITHM DOCKED STATE
	_______________________________________________


Detailed state:  trans 41.237 28.984 16.616 quatxyzw 0.074548 0.933516 0.045123 -0.347784 center -0.174 -0.001 -0.047 ntor 10 -93.0494 -62.9653 72.7853 -159.5822 151.8962 180.0000 56.1836 48.7573 -4.3765 127.9929
State:	 41.237  28.984  16.616   0.080  0.996  0.048 -139.296    -93.05  -62.97   72.79 -159.58  151.90  180.00   56.18   48.76   -4.38  127.99

DOCKED: MODEL        6
DOCKED: USER    Run = 6
DOCKED: USER    DPF = D:/Protein_go_brrr/autodock/final/6BB5/heme_Fe/dock.dpf
DOCKED: USER  
DOCKED: USER    Estimated Free Energy of Binding    =  -11.84 kcal/mol  [=(1)+(2)+(3)-(4)]
DOCKED: USER    Estimated Inhibition Constant, Ki   =    2.11 nM (nanomolar)  [Temperature = 298.15 K]
DOCKED: USER    
DOCKED: USER    (1) Final Intermolecular Energy     =  -14.82 kcal/mol
DOCKED: USER        vdW + Hbond + desolv Energy     =  -12.86 kcal/mol
DOCKED: USER        Electrostatic Energy            =   -1.96 kcal/mol
DOCKED: USER    (2) Final Total Internal Energy     =   -2.01 kcal/mol
DOCKED: USER    (3) Torsional Free Energy           =   +2.98 kcal/mol
DOCKED: USER    (4) Unbound System's Energy  [=(2)] =   -2.01 kcal/mol
DOCKED: USER    
DOCKED: USER    
DOCKED: USER    NEWDPF move heme_Fe_opt.pdbqt
DOCKED: USER    NEWDPF about -0.174000 -0.001000 -0.047000
DOCKED: USER    NEWDPF tran0 41.236631 28.984139 16.615955
DOCKED: USER    NEWDPF quaternion0 0.074548 0.933516 0.045123 -0.347784
DOCKED: USER    NEWDPF axisangle0 0.079512 0.995671 0.048127 -139.296363
DOCKED: USER    NEWDPF quat0 0.079512 0.995671 0.048127 -139.296363
DOCKED: USER    NEWDPF dihe0 -93.05 -62.97 72.79 -159.58 151.90 180.00 56.18 48.76 -4.38 127.99 
DOCKED: USER  keepresnum = 1 
DOCKED: USER  
DOCKED: REMARK  10 active torsions:
DOCKED: REMARK  status: ('A' for Active; 'I' for Inactive)
DOCKED: REMARK    1  A    between atoms: C_6  and  C_10 
DOCKED: REMARK    2  A    between atoms: C_10  and  C_11 
DOCKED: REMARK    3  A    between atoms: C_11  and  C_12 
DOCKED: REMARK    4  A    between atoms: C_12  and  O_14 
DOCKED: REMARK    5  A    between atoms: C_17  and  C_20 
DOCKED: REMARK    6  A    between atoms: C_24  and  C_27 
DOCKED: REMARK    7  A    between atoms: C_31  and  C_34 
DOCKED: REMARK    8  A    between atoms: C_34  and  C_35 
DOCKED: REMARK    9  A    between atoms: C_35  and  C_36 
DOCKED: REMARK   10  A    between atoms: C_36  and  O_38 
DOCKED: USER                              x       y       z     vdW  Elec       q    Type
DOCKED: USER                           _______ _______ _______ _____ _____    ______ ____
DOCKED: ROOT
DOCKED: ATOM      1  C   UNL d   1      43.059  28.605  17.480 -0.03 +0.02    +0.064 C 
DOCKED: ATOM      2  C   UNL d   1      39.845  25.948  14.827 -0.38 +0.01    +0.064 A 
DOCKED: ATOM      3  C   UNL d   1      37.639  30.018  13.550 -0.37 +0.01    +0.064 C 
DOCKED: ATOM      4  C   UNL d   1      40.674  32.601  16.196 -0.47 +0.01    +0.064 C 
DOCKED: ATOM      5  C   UNL d   1      42.309  27.473  16.919 +0.21 +0.02    +0.066 A 
DOCKED: ATOM      6  C   UNL d   1      42.587  26.139  17.167 -0.27 -0.01    -0.021 A 
DOCKED: ATOM      7  C   UNL d   1      41.696  25.402  16.427 -0.38 -0.00    -0.025 A 
DOCKED: ATOM      8  C   UNL d   1      40.908  26.315  15.755 -0.38 +0.01    +0.066 A 
DOCKED: ATOM      9  C   UNL d   1      41.604  23.907  16.390 -0.46 +0.01    +0.051 C 
DOCKED: ATOM     10  C   UNL d   1      39.033  26.807  14.210 -0.37 +0.01    +0.066 A 
DOCKED: ATOM     11  C   UNL d   1      38.101  26.432  13.239 -0.43 -0.00    -0.021 A 
DOCKED: ATOM     12  C   UNL d   1      37.463  27.590  12.843 -0.48 +0.00    +0.000 A 
DOCKED: ATOM     13  C   UNL d   1      38.050  28.624  13.593 -0.33 +0.01    +0.070 A 
DOCKED: ATOM     14  C   UNL d   1      37.876  25.047  12.667 -0.48 +0.01    +0.052 C 
DOCKED: ATOM     15  C   UNL d   1      38.235  31.024  14.232 -0.35 +0.01    +0.066 A 
DOCKED: ATOM     16  C   UNL d   1      37.751  32.326  14.241 -0.38 -0.00    -0.021 A 
DOCKED: ATOM     17  C   UNL d   1      38.627  33.073  15.001 -0.42 +0.00    +0.000 A 
DOCKED: ATOM     18  C   UNL d   1      39.629  32.209  15.434 -0.37 +0.01    +0.070 A 
DOCKED: ATOM     19  C   UNL d   1      36.526  32.855  13.543 -0.42 +0.00    +0.052 C 
DOCKED: ATOM     20  C   UNL d   1      41.714  31.709  16.722 -0.39 +0.01    +0.066 A 
DOCKED: ATOM     21  C   UNL d   1      42.903  32.125  17.338 -0.32 -0.00    -0.025 A 
DOCKED: ATOM     22  C   UNL d   1      43.561  30.970  17.708 -0.29 -0.00    -0.021 A 
DOCKED: ATOM     23  C   UNL d   1      42.756  29.900  17.298 -0.29 +0.02    +0.066 A 
DOCKED: ATOM     24  C   UNL d   1      43.403  33.532  17.569 -0.13 +0.01    +0.051 C 
DOCKED: ATOM     25  N   UNL d   1      41.276  27.575  16.063 -0.24 -0.06    -0.248 N 
DOCKED: ATOM     26  N   UNL d   1      39.013  28.148  14.420 -0.07 -0.07    -0.248 N 
DOCKED: ATOM     27  N   UNL d   1      39.366  30.941  14.999 -0.18 -0.04    -0.248 N 
DOCKED: ATOM     28  N   UNL d   1      41.652  30.357  16.657 -0.24 -0.05    -0.248 N 
DOCKED: ATOM     29 FE   UNL d   1      40.333  29.254  15.539 -0.09 +0.00    +0.000 Fe
DOCKED: ENDROOT
DOCKED: BRANCH   6  30
DOCKED: ATOM     30  C   UNL d   1      43.631  25.591  18.078 -0.27 +0.02    +0.052 C 
DOCKED: BRANCH  30  31
DOCKED: ATOM     31  C   UNL d   1      43.115  25.516  19.510 -0.25 +0.05    +0.115 C 
DOCKED: BRANCH  31  32
DOCKED: ATOM     32  C   UNL d   1      44.020  26.280  20.436 -0.24 +0.12    +0.139 C 
DOCKED: ATOM     33  O   UNL d   1      43.582  26.784  21.461 -0.45 -1.01    -0.650 OA
DOCKED: BRANCH  32  34
DOCKED: ATOM     34  O   UNL d   1      45.324  26.417  20.144 +0.05 -0.62    -0.776 OA
DOCKED: ATOM     35  H   UNL d   1      45.604  27.153  19.582 +0.05 +0.12    +0.167 HD
DOCKED: ENDBRANCH  32  34
DOCKED: ENDBRANCH  31  32
DOCKED: ENDBRANCH  30  31
DOCKED: ENDBRANCH   6  30
DOCKED: BRANCH  22  36
DOCKED: ATOM     36  C   UNL d   1      44.911  30.901  18.372 -0.26 +0.02    +0.052 C 
DOCKED: BRANCH  36  37
DOCKED: ATOM     37  C   UNL d   1      45.760  29.833  17.700 -0.09 +0.04    +0.115 C 
DOCKED: BRANCH  37  38
DOCKED: ATOM     38  C   UNL d   1      46.402  28.935  18.719 -0.13 +0.06    +0.139 C 
DOCKED: ATOM     39  O   UNL d   1      47.124  28.012  18.372 +0.01 -0.27    -0.650 OA
DOCKED: BRANCH  38  40
DOCKED: ATOM     40  O   UNL d   1      46.182  29.141  20.029 +0.00 -0.57    -0.776 OA
DOCKED: ATOM     41  H   UNL d   1      45.730  28.457  20.543 +0.03 +0.19    +0.167 HD
DOCKED: ENDBRANCH  38  40
DOCKED: ENDBRANCH  37  38
DOCKED: ENDBRANCH  36  37
DOCKED: ENDBRANCH  22  36
DOCKED: BRANCH  12  42
DOCKED: ATOM     42  C   UNL d   1      36.388  27.664  11.805 -0.68 +0.00    +0.004 C 
DOCKED: ATOM     43  C   UNL d   1      35.172  28.139  12.104 -0.64 +0.00    +0.012 C 
DOCKED: ENDBRANCH  12  42
DOCKED: BRANCH  17  44
DOCKED: ATOM     44  C   UNL d   1      38.501  34.516  15.309 -0.58 +0.00    +0.004 C 
DOCKED: ATOM     45  C   UNL d   1      39.287  35.415  14.708 -0.61 +0.00    +0.012 C 
DOCKED: ENDBRANCH  17  44
DOCKED: TORSDOF 10
DOCKED: TER
DOCKED: ENDMDL
________________________________________________________________________________


	BEGINNING GENETIC ALGORITHM DOCKING 7 of 100
Run: 7 Seed: 1795470789 322736793 [ Run 7 of 100 GA/GALS ]
Beginning LAMARCKIAN GENETIC ALGORITHM (LGA), with a maximum of 25000000 energy evaluations.

Final-Value: -14.940


	FINAL GENETIC ALGORITHM DOCKED STATE
	_______________________________________________


Detailed state:  trans 8.075 34.757 -1.426 quatxyzw -0.405423 -0.231861 -0.300180 -0.831724 center -0.174 -0.001 -0.047 ntor 10 180.0000 -25.1041 66.2429 -150.5302 -19.7418 140.3968 83.4957 90.7360 -139.0738 -174.2418
State:	  8.075  34.757  -1.426  -0.730 -0.418 -0.541 -67.448    180.00  -25.10   66.24 -150.53  -19.74  140.40   83.50   90.74 -139.07 -174.24

DOCKED: MODEL        7
DOCKED: USER    Run = 7
DOCKED: USER    DPF = D:/Protein_go_brrr/autodock/final/6BB5/heme_Fe/dock.dpf
DOCKED: USER  
DOCKED: USER    Estimated Free Energy of Binding    =  -10.32 kcal/mol  [=(1)+(2)+(3)-(4)]
DOCKED: USER    Estimated Inhibition Constant, Ki   =   27.38 nM (nanomolar)  [Temperature = 298.15 K]
DOCKED: USER    
DOCKED: USER    (1) Final Intermolecular Energy     =  -13.30 kcal/mol
DOCKED: USER        vdW + Hbond + desolv Energy     =  -11.79 kcal/mol
DOCKED: USER        Electrostatic Energy            =   -1.51 kcal/mol
DOCKED: USER    (2) Final Total Internal Energy     =   -1.64 kcal/mol
DOCKED: USER    (3) Torsional Free Energy           =   +2.98 kcal/mol
DOCKED: USER    (4) Unbound System's Energy  [=(2)] =   -1.64 kcal/mol
DOCKED: USER    
DOCKED: USER    
DOCKED: USER    NEWDPF move heme_Fe_opt.pdbqt
DOCKED: USER    NEWDPF about -0.174000 -0.001000 -0.047000
DOCKED: USER    NEWDPF tran0 8.074504 34.757398 -1.425855
DOCKED: USER    NEWDPF quaternion0 -0.405423 -0.231861 -0.300180 -0.831724
DOCKED: USER    NEWDPF axisangle0 -0.730243 -0.417625 -0.540680 -67.447530
DOCKED: USER    NEWDPF quat0 -0.730243 -0.417625 -0.540680 -67.447530
DOCKED: USER    NEWDPF dihe0 180.00 -25.10 66.24 -150.53 -19.74 140.40 83.50 90.74 -139.07 -174.24 
DOCKED: USER  keepresnum = 1 
DOCKED: USER  
DOCKED: REMARK  10 active torsions:
DOCKED: REMARK  status: ('A' for Active; 'I' for Inactive)
DOCKED: REMARK    1  A    between atoms: C_6  and  C_10 
DOCKED: REMARK    2  A    between atoms: C_10  and  C_11 
DOCKED: REMARK    3  A    between atoms: C_11  and  C_12 
DOCKED: REMARK    4  A    between atoms: C_12  and  O_14 
DOCKED: REMARK    5  A    between atoms: C_17  and  C_20 
DOCKED: REMARK    6  A    between atoms: C_24  and  C_27 
DOCKED: REMARK    7  A    between atoms: C_31  and  C_34 
DOCKED: REMARK    8  A    between atoms: C_34  and  C_35 
DOCKED: REMARK    9  A    between atoms: C_35  and  C_36 
DOCKED: REMARK   10  A    between atoms: C_36  and  O_38 
DOCKED: USER                              x       y       z     vdW  Elec       q    Type
DOCKED: USER                           _______ _______ _______ _____ _____    ______ ____
DOCKED: ROOT
DOCKED: ATOM      1  C   UNL d   1       6.547  35.778  -2.341 -0.26 +0.01    +0.064 C 
DOCKED: ATOM      2  C   UNL d   1       6.891  32.850   1.627 -0.38 +0.01    +0.064 A 
DOCKED: ATOM      3  C   UNL d   1      11.666  33.345   1.493 -0.38 +0.00    +0.064 C 
DOCKED: ATOM      4  C   UNL d   1      11.363  36.095  -2.410 -0.51 +0.00    +0.064 C 
DOCKED: ATOM      5  C   UNL d   1       6.207  34.841  -1.262 -0.23 +0.01    +0.066 A 
DOCKED: ATOM      6  C   UNL d   1       4.930  34.373  -0.994 -0.25 -0.00    -0.021 A 
DOCKED: ATOM      7  C   UNL d   1       5.026  33.563   0.110 -0.29 -0.00    -0.025 A 
DOCKED: ATOM      8  C   UNL d   1       6.359  33.567   0.475 -0.32 +0.01    +0.066 A 
DOCKED: ATOM      9  C   UNL d   1       3.900  32.817   0.759 -0.21 +0.01    +0.051 C 
DOCKED: ATOM     10  C   UNL d   1       8.179  32.791   1.967 -0.34 +0.01    +0.066 A 
DOCKED: ATOM     11  C   UNL d   1       8.645  32.193   3.140 -0.35 -0.00    -0.021 A 
DOCKED: ATOM     12  C   UNL d   1      10.018  32.337   3.133 -0.29 +0.00    +0.000 A 
DOCKED: ATOM     13  C   UNL d   1      10.321  33.030   1.949 -0.36 +0.00    +0.070 A 
DOCKED: ATOM     14  C   UNL d   1       7.816  31.574   4.247 -0.10 +0.00    +0.052 C 
DOCKED: ATOM     15  C   UNL d   1      11.961  34.057   0.380 -0.34 +0.00    +0.066 A 
DOCKED: ATOM     16  C   UNL d   1      13.259  34.251  -0.075 -0.44 -0.00    -0.021 A 
DOCKED: ATOM     17  C   UNL d   1      13.174  35.047  -1.199 -0.45 +0.00    +0.000 A 
DOCKED: ATOM     18  C   UNL d   1      11.824  35.324  -1.401 -0.36 +0.01    +0.070 A 
DOCKED: ATOM     19  C   UNL d   1      14.533  33.732   0.535 -0.59 +0.00    +0.052 C 
DOCKED: ATOM     20  C   UNL d   1       9.947  36.357  -2.690 -0.40 +0.00    +0.066 A 
DOCKED: ATOM     21  C   UNL d   1       9.464  37.307  -3.602 -0.44 +0.00    -0.025 A 
DOCKED: ATOM     22  C   UNL d   1       8.089  37.191  -3.575 -0.34 -0.00    -0.021 A 
DOCKED: ATOM     23  C   UNL d   1       7.789  36.184  -2.649 -0.32 +0.00    +0.066 A 
DOCKED: ATOM     24  C   UNL d   1      10.245  38.280  -4.453 +0.11 -0.01    +0.051 C 
DOCKED: ATOM     25  N   UNL d   1       7.076  34.337  -0.368 -0.19 -0.04    -0.248 N 
DOCKED: ATOM     26  N   UNL d   1       9.200  33.315   1.242 -0.05 -0.03    -0.248 N 
DOCKED: ATOM     27  N   UNL d   1      11.074  34.680  -0.457 +0.06 -0.04    -0.248 N 
DOCKED: ATOM     28  N   UNL d   1       8.924  35.711  -2.080 -0.26 -0.03    -0.248 N 
DOCKED: ATOM     29 FE   UNL d   1       9.064  34.514  -0.420 -0.05 +0.00    +0.000 Fe
DOCKED: ENDROOT
DOCKED: BRANCH   6  30
DOCKED: ATOM     30  C   UNL d   1       3.685  34.662  -1.760 -0.18 +0.01    +0.052 C 
DOCKED: BRANCH  30  31
DOCKED: ATOM     31  C   UNL d   1       3.527  36.162  -1.988 -0.14 +0.04    +0.115 C 
DOCKED: BRANCH  31  32
DOCKED: ATOM     32  C   UNL d   1       2.625  36.761  -0.945 -0.18 +0.09    +0.139 C 
DOCKED: ATOM     33  O   UNL d   1       1.855  36.056  -0.308 -0.01 -0.43    -0.650 OA
DOCKED: BRANCH  32  34
DOCKED: ATOM     34  O   UNL d   1       2.656  38.082  -0.704 -0.39 -1.07    -0.776 OA
DOCKED: ATOM     35  H   UNL d   1       3.266  38.637  -1.211 +0.04 +0.16    +0.167 HD
DOCKED: ENDBRANCH  32  34
DOCKED: ENDBRANCH  31  32
DOCKED: ENDBRANCH  30  31
DOCKED: ENDBRANCH   6  30
DOCKED: BRANCH  22  36
DOCKED: ATOM     36  C   UNL d   1       7.120  38.034  -4.360 -0.25 -0.00    +0.052 C 
DOCKED: BRANCH  36  37
DOCKED: ATOM     37  C   UNL d   1       6.977  39.399  -3.702 -0.30 +0.00    +0.115 C 
DOCKED: BRANCH  37  38
DOCKED: ATOM     38  C   UNL d   1       5.868  39.395  -2.688 -0.26 +0.02    +0.139 C 
DOCKED: ATOM     39  O   UNL d   1       5.990  39.987  -1.626 -0.04 -0.11    -0.650 OA
DOCKED: BRANCH  38  40
DOCKED: ATOM     40  O   UNL d   1       4.727  38.732  -2.945 +0.06 -0.19    -0.776 OA
DOCKED: ATOM     41  H   UNL d   1       4.189  38.417  -2.205 +0.05 +0.07    +0.167 HD
DOCKED: ENDBRANCH  38  40
DOCKED: ENDBRANCH  37  38
DOCKED: ENDBRANCH  36  37
DOCKED: ENDBRANCH  22  36
DOCKED: BRANCH  12  42
DOCKED: ATOM     42  C   UNL d   1      10.935  31.849   4.210 -0.30 +0.00    +0.004 C 
DOCKED: ATOM     43  C   UNL d   1      11.820  30.872   3.971 -0.57 +0.00    +0.012 C 
DOCKED: ENDBRANCH  12  42
DOCKED: BRANCH  17  44
DOCKED: ATOM     44  C   UNL d   1      14.309  35.496  -2.036 -0.34 +0.00    +0.004 C 
DOCKED: ATOM     45  C   UNL d   1      14.860  36.701  -1.853 -0.65 +0.00    +0.012 C 
DOCKED: ENDBRANCH  17  44
DOCKED: TORSDOF 10
DOCKED: TER
DOCKED: ENDMDL
________________________________________________________________________________


	BEGINNING GENETIC ALGORITHM DOCKING 8 of 100
Run: 8 Seed: 104710052 467291329 [ Run 8 of 100 GA/GALS ]
Beginning LAMARCKIAN GENETIC ALGORITHM (LGA), with a maximum of 25000000 energy evaluations.

Final-Value: -16.351


	FINAL GENETIC ALGORITHM DOCKED STATE
	_______________________________________________


Detailed state:  trans 41.308 28.253 16.565 quatxyzw 0.147607 0.927868 0.088284 -0.330875 center -0.174 -0.001 -0.047 ntor 10 -142.6826 173.4229 93.3554 -130.2089 2.6123 99.0354 50.0124 79.1234 -157.9568 64.6512
State:	 41.308  28.253  16.565   0.156  0.983  0.094 -141.356   -142.68  173.42   93.36 -130.21    2.61   99.04   50.01   79.12 -157.96   64.65

DOCKED: MODEL        8
DOCKED: USER    Run = 8
DOCKED: USER    DPF = D:/Protein_go_brrr/autodock/final/6BB5/heme_Fe/dock.dpf
DOCKED: USER  
DOCKED: USER    Estimated Free Energy of Binding    =  -13.25 kcal/mol  [=(1)+(2)+(3)-(4)]
DOCKED: USER    Estimated Inhibition Constant, Ki   =  194.12 pM (picomolar)  [Temperature = 298.15 K]
DOCKED: USER    
DOCKED: USER    (1) Final Intermolecular Energy     =  -16.23 kcal/mol
DOCKED: USER        vdW + Hbond + desolv Energy     =  -13.61 kcal/mol
DOCKED: USER        Electrostatic Energy            =   -2.62 kcal/mol
DOCKED: USER    (2) Final Total Internal Energy     =   -0.12 kcal/mol
DOCKED: USER    (3) Torsional Free Energy           =   +2.98 kcal/mol
DOCKED: USER    (4) Unbound System's Energy  [=(2)] =   -0.12 kcal/mol
DOCKED: USER    
DOCKED: USER    
DOCKED: USER    NEWDPF move heme_Fe_opt.pdbqt
DOCKED: USER    NEWDPF about -0.174000 -0.001000 -0.047000
DOCKED: USER    NEWDPF tran0 41.308012 28.252699 16.565097
DOCKED: USER    NEWDPF quaternion0 0.147607 0.927868 0.088284 -0.330875
DOCKED: USER    NEWDPF axisangle0 0.156418 0.983250 0.093553 -141.356192
DOCKED: USER    NEWDPF quat0 0.156418 0.983250 0.093553 -141.356192
DOCKED: USER    NEWDPF dihe0 -142.68 173.42 93.36 -130.21 2.61 99.04 50.01 79.12 -157.96 64.65 
DOCKED: USER  keepresnum = 1 
DOCKED: USER  
DOCKED: REMARK  10 active torsions:
DOCKED: REMARK  status: ('A' for Active; 'I' for Inactive)
DOCKED: REMARK    1  A    between atoms: C_6  and  C_10 
DOCKED: REMARK    2  A    between atoms: C_10  and  C_11 
DOCKED: REMARK    3  A    between atoms: C_11  and  C_12 
DOCKED: REMARK    4  A    between atoms: C_12  and  O_14 
DOCKED: REMARK    5  A    between atoms: C_17  and  C_20 
DOCKED: REMARK    6  A    between atoms: C_24  and  C_27 
DOCKED: REMARK    7  A    between atoms: C_31  and  C_34 
DOCKED: REMARK    8  A    between atoms: C_34  and  C_35 
DOCKED: REMARK    9  A    between atoms: C_35  and  C_36 
DOCKED: REMARK   10  A    between atoms: C_36  and  O_38 
DOCKED: USER                              x       y       z     vdW  Elec       q    Type
DOCKED: USER                           _______ _______ _______ _____ _____    ______ ____
DOCKED: ROOT
DOCKED: ATOM      1  C   UNL d   1      43.097  27.574  17.307 -0.19 +0.02    +0.064 C 
DOCKED: ATOM      2  C   UNL d   1      39.563  25.647  14.439 -0.41 +0.01    +0.064 A 
DOCKED: ATOM      3  C   UNL d   1      37.779  30.059  13.790 -0.39 +0.01    +0.064 C 
DOCKED: ATOM      4  C   UNL d   1      41.128  31.932  16.648 -0.47 +0.01    +0.064 C 
DOCKED: ATOM      5  C   UNL d   1      42.218  26.612  16.628 -0.30 +0.01    +0.066 A 
DOCKED: ATOM      6  C   UNL d   1      42.357  25.235  16.687 -0.35 -0.00    -0.021 A 
DOCKED: ATOM      7  C   UNL d   1      41.377  24.701  15.887 -0.40 -0.00    -0.025 A 
DOCKED: ATOM      8  C   UNL d   1      40.677  25.774  15.370 -0.39 +0.01    +0.066 A 
DOCKED: ATOM      9  C   UNL d   1      41.124  23.243  15.656 -0.52 +0.00    +0.051 C 
DOCKED: ATOM     10  C   UNL d   1      38.835  26.661  13.970 -0.38 +0.01    +0.066 A 
DOCKED: ATOM     11  C   UNL d   1      37.848  26.519  12.991 -0.44 -0.00    -0.021 A 
DOCKED: ATOM     12  C   UNL d   1      37.329  27.781  12.774 -0.49 +0.00    +0.000 A 
DOCKED: ATOM     13  C   UNL d   1      38.040  28.636  13.634 -0.33 +0.01    +0.070 A 
DOCKED: ATOM     14  C   UNL d   1      37.464  25.255  12.249 -0.32 +0.01    +0.052 C 
DOCKED: ATOM     15  C   UNL d   1      38.494  30.896  14.578 -0.35 +0.01    +0.066 A 
DOCKED: ATOM     16  C   UNL d   1      38.152  32.228  14.777 -0.38 -0.00    -0.021 A 
DOCKED: ATOM     17  C   UNL d   1      39.119  32.771  15.598 -0.40 +0.00    +0.000 A 
DOCKED: ATOM     18  C   UNL d   1      40.032  31.757  15.878 -0.35 +0.01    +0.070 A 
DOCKED: ATOM     19  C   UNL d   1      36.978  32.970  14.198 -0.41 +0.00    +0.052 C 
DOCKED: ATOM     20  C   UNL d   1      42.077  30.874  17.014 -0.35 +0.01    +0.066 A 
DOCKED: ATOM     21  C   UNL d   1      43.316  31.077  17.639 -0.30 -0.01    -0.025 A 
DOCKED: ATOM     22  C   UNL d   1      43.854  29.821  17.829 -0.28 -0.01    -0.021 A 
DOCKED: ATOM     23  C   UNL d   1      42.930  28.906  17.309 -0.21 +0.02    +0.066 A 
DOCKED: ATOM     24  C   UNL d   1      43.969  32.381  18.036 -0.30 +0.01    +0.051 C 
DOCKED: ATOM     25  N   UNL d   1      41.185  26.935  15.830 -0.26 -0.05    -0.248 N 
DOCKED: ATOM     26  N   UNL d   1      38.963  27.956  14.357 -0.12 -0.06    -0.248 N 
DOCKED: ATOM     27  N   UNL d   1      39.625  30.593  15.287 -0.05 -0.06    -0.248 N 
DOCKED: ATOM     28  N   UNL d   1      41.869  29.556  16.773 -0.20 -0.05    -0.248 N 
DOCKED: ATOM     29 FE   UNL d   1      40.417  28.758  15.566 -0.09 +0.00    +0.000 Fe
DOCKED: ENDROOT
DOCKED: BRANCH   6  30
DOCKED: ATOM     30  C   UNL d   1      43.355  24.463  17.480 -0.31 +0.01    +0.052 C 
DOCKED: BRANCH  30  31
DOCKED: ATOM     31  C   UNL d   1      44.760  24.666  16.924 -0.20 +0.04    +0.115 C 
DOCKED: BRANCH  31  32
DOCKED: ATOM     32  C   UNL d   1      45.440  23.341  16.717 -0.12 +0.07    +0.139 C 
DOCKED: ATOM     33  O   UNL d   1      44.849  22.294  16.944 +0.03 -0.28    -0.650 OA
DOCKED: BRANCH  32  34
DOCKED: ATOM     34  O   UNL d   1      46.710  23.295  16.280 -0.04 -0.74    -0.776 OA
DOCKED: ATOM     35  H   UNL d   1      47.338  23.962  16.592 +0.04 +0.16    +0.167 HD
DOCKED: ENDBRANCH  32  34
DOCKED: ENDBRANCH  31  32
DOCKED: ENDBRANCH  30  31
DOCKED: ENDBRANCH   6  30
DOCKED: BRANCH  22  36
DOCKED: ATOM     36  C   UNL d   1      45.202  29.524  18.431 -0.23 +0.02    +0.052 C 
DOCKED: BRANCH  36  37
DOCKED: ATOM     37  C   UNL d   1      45.253  28.071  18.881 -0.18 +0.06    +0.115 C 
DOCKED: BRANCH  37  38
DOCKED: ATOM     38  C   UNL d   1      45.067  27.961  20.368 -0.15 +0.15    +0.139 C 
DOCKED: ATOM     39  O   UNL d   1      43.977  27.675  20.842 -0.22 -0.92    -0.650 OA
DOCKED: BRANCH  38  40
DOCKED: ATOM     40  O   UNL d   1      46.106  28.183  21.193 -0.42 -1.28    -0.776 OA
DOCKED: ATOM     41  H   UNL d   1      46.987  28.314  20.815 +0.02 +0.16    +0.167 HD
DOCKED: ENDBRANCH  38  40
DOCKED: ENDBRANCH  37  38
DOCKED: ENDBRANCH  36  37
DOCKED: ENDBRANCH  22  36
DOCKED: BRANCH  12  42
DOCKED: ATOM     42  C   UNL d   1      36.248  28.104  11.793 -0.69 +0.00    +0.004 C 
DOCKED: ATOM     43  C   UNL d   1      35.296  29.000  12.087 -0.63 +0.00    +0.012 C 
DOCKED: ENDBRANCH  12  42
DOCKED: BRANCH  17  44
DOCKED: ATOM     44  C   UNL d   1      39.155  34.164  16.098 -0.48 +0.00    +0.004 C 
DOCKED: ATOM     45  C   UNL d   1      39.532  35.168  15.301 -0.58 +0.00    +0.012 C 
DOCKED: ENDBRANCH  17  44
DOCKED: TORSDOF 10
DOCKED: TER
DOCKED: ENDMDL
________________________________________________________________________________


	BEGINNING GENETIC ALGORITHM DOCKING 9 of 100
Run: 9 Seed: 2077396409 1430740022 [ Run 9 of 100 GA/GALS ]
Beginning LAMARCKIAN GENETIC ALGORITHM (LGA), with a maximum of 25000000 energy evaluations.

Final-Value: -17.932


	FINAL GENETIC ALGORITHM DOCKED STATE
	_______________________________________________


Detailed state:  trans 41.212 28.637 16.549 quatxyzw 0.136587 0.929010 0.083509 -0.333632 center -0.174 -0.001 -0.047 ntor 10 21.5238 60.1892 85.2896 -123.7487 -67.4400 141.7301 48.1507 -44.0621 -9.5060 6.3023
State:	 41.212  28.637  16.549   0.145  0.985  0.089 -141.021     21.52   60.19   85.29 -123.75  -67.44  141.73   48.15  -44.06   -9.51    6.30

DOCKED: MODEL        9
DOCKED: USER    Run = 9
DOCKED: USER    DPF = D:/Protein_go_brrr/autodock/final/6BB5/heme_Fe/dock.dpf
DOCKED: USER  
DOCKED: USER    Estimated Free Energy of Binding    =  -12.71 kcal/mol  [=(1)+(2)+(3)-(4)]
DOCKED: USER    Estimated Inhibition Constant, Ki   =  486.15 pM (picomolar)  [Temperature = 298.15 K]
DOCKED: USER    
DOCKED: USER    (1) Final Intermolecular Energy     =  -15.69 kcal/mol
DOCKED: USER        vdW + Hbond + desolv Energy     =  -13.77 kcal/mol
DOCKED: USER        Electrostatic Energy            =   -1.91 kcal/mol
DOCKED: USER    (2) Final Total Internal Energy     =   -2.24 kcal/mol
DOCKED: USER    (3) Torsional Free Energy           =   +2.98 kcal/mol
DOCKED: USER    (4) Unbound System's Energy  [=(2)] =   -2.24 kcal/mol
DOCKED: USER    
DOCKED: USER    
DOCKED: USER    NEWDPF move heme_Fe_opt.pdbqt
DOCKED: USER    NEWDPF about -0.174000 -0.001000 -0.047000
DOCKED: USER    NEWDPF tran0 41.211723 28.637123 16.548756
DOCKED: USER    NEWDPF quaternion0 0.136587 0.929010 0.083509 -0.333632
DOCKED: USER    NEWDPF axisangle0 0.144889 0.985475 0.088584 -141.021291
DOCKED: USER    NEWDPF quat0 0.144889 0.985475 0.088584 -141.021291
DOCKED: USER    NEWDPF dihe0 21.52 60.19 85.29 -123.75 -67.44 141.73 48.15 -44.06 -9.51 6.30 
DOCKED: USER  keepresnum = 1 
DOCKED: USER  
DOCKED: REMARK  10 active torsions:
DOCKED: REMARK  status: ('A' for Active; 'I' for Inactive)
DOCKED: REMARK    1  A    between atoms: C_6  and  C_10 
DOCKED: REMARK    2  A    between atoms: C_10  and  C_11 
DOCKED: REMARK    3  A    between atoms: C_11  and  C_12 
DOCKED: REMARK    4  A    between atoms: C_12  and  O_14 
DOCKED: REMARK    5  A    between atoms: C_17  and  C_20 
DOCKED: REMARK    6  A    between atoms: C_24  and  C_27 
DOCKED: REMARK    7  A    between atoms: C_31  and  C_34 
DOCKED: REMARK    8  A    between atoms: C_34  and  C_35 
DOCKED: REMARK    9  A    between atoms: C_35  and  C_36 
DOCKED: REMARK   10  A    between atoms: C_36  and  O_38 
DOCKED: USER                              x       y       z     vdW  Elec       q    Type
DOCKED: USER                           _______ _______ _______ _____ _____    ______ ____
DOCKED: ROOT
DOCKED: ATOM      1  C   UNL d   1      43.008  28.002  17.311 -0.17 +0.02    +0.064 C 
DOCKED: ATOM      2  C   UNL d   1      39.522  25.965  14.460 -0.40 +0.01    +0.064 A 
DOCKED: ATOM      3  C   UNL d   1      37.667  30.334  13.726 -0.34 +0.01    +0.064 C 
DOCKED: ATOM      4  C   UNL d   1      40.968  32.313  16.567 -0.49 +0.01    +0.064 C 
DOCKED: ATOM      5  C   UNL d   1      42.149  27.014  16.644 -0.27 +0.02    +0.066 A 
DOCKED: ATOM      6  C   UNL d   1      42.311  25.641  16.728 -0.35 -0.00    -0.021 A 
DOCKED: ATOM      7  C   UNL d   1      41.345  25.076  15.933 -0.39 -0.00    -0.025 A 
DOCKED: ATOM      8  C   UNL d   1      40.629  26.127  15.393 -0.39 +0.01    +0.066 A 
DOCKED: ATOM      9  C   UNL d   1      41.118  23.610  15.725 -0.52 +0.01    +0.051 C 
DOCKED: ATOM     10  C   UNL d   1      38.779  26.959  13.970 -0.36 +0.01    +0.066 A 
DOCKED: ATOM     11  C   UNL d   1      37.800  26.784  12.989 -0.44 -0.00    -0.021 A 
DOCKED: ATOM     12  C   UNL d   1      37.261  28.032  12.748 -0.50 +0.00    +0.000 A 
DOCKED: ATOM     13  C   UNL d   1      37.952  28.914  13.596 -0.33 +0.01    +0.070 A 
DOCKED: ATOM     14  C   UNL d   1      37.442  25.501  12.267 -0.27 +0.01    +0.052 C 
DOCKED: ATOM     15  C   UNL d   1      38.363  31.197  14.503 -0.36 +0.01    +0.066 A 
DOCKED: ATOM     16  C   UNL d   1      37.997  32.526  14.677 -0.38 -0.00    -0.021 A 
DOCKED: ATOM     17  C   UNL d   1      38.950  33.100  15.493 -0.41 +0.00    +0.000 A 
DOCKED: ATOM     18  C   UNL d   1      39.879  32.107  15.795 -0.37 +0.01    +0.070 A 
DOCKED: ATOM     19  C   UNL d   1      36.813  33.238  14.080 -0.43 +0.00    +0.052 C 
DOCKED: ATOM     20  C   UNL d   1      41.934  31.278  16.956 -0.37 +0.01    +0.066 A 
DOCKED: ATOM     21  C   UNL d   1      43.165  31.514  17.583 -0.29 -0.00    -0.025 A 
DOCKED: ATOM     22  C   UNL d   1      43.724  30.271  17.797 -0.30 -0.01    -0.021 A 
DOCKED: ATOM     23  C   UNL d   1      42.819  29.331  17.289 -0.22 +0.02    +0.066 A 
DOCKED: ATOM     24  C   UNL d   1      43.794  32.835  17.961 -0.33 +0.01    +0.051 C 
DOCKED: ATOM     25  N   UNL d   1      41.115  27.305  15.836 -0.24 -0.06    -0.248 N 
DOCKED: ATOM     26  N   UNL d   1      38.884  28.262  14.335 -0.06 -0.07    -0.248 N 
DOCKED: ATOM     27  N   UNL d   1      39.496  30.926  15.223 -0.20 -0.05    -0.248 N 
DOCKED: ATOM     28  N   UNL d   1      41.749  29.954  16.737 -0.23 -0.05    -0.248 N 
DOCKED: ATOM     29 FE   UNL d   1      40.317  29.110  15.536 -0.09 +0.00    +0.000 Fe
DOCKED: ENDROOT
DOCKED: BRANCH   6  30
DOCKED: ATOM     30  C   UNL d   1      43.318  24.899  17.539 -0.31 +0.02    +0.052 C 
DOCKED: BRANCH  30  31
DOCKED: ATOM     31  C   UNL d   1      42.880  24.812  18.996 -0.35 +0.04    +0.115 C 
DOCKED: BRANCH  31  32
DOCKED: ATOM     32  C   UNL d   1      44.009  25.204  19.910 -0.24 +0.07    +0.139 C 
DOCKED: ATOM     33  O   UNL d   1      45.007  24.504  20.002 +0.03 -0.34    -0.650 OA
DOCKED: BRANCH  32  34
DOCKED: ATOM     34  O   UNL d   1      43.928  26.332  20.635 -0.03 -0.71    -0.776 OA
DOCKED: ATOM     35  H   UNL d   1      44.743  26.738  20.963 +0.04 +0.22    +0.167 HD
DOCKED: ENDBRANCH  32  34
DOCKED: ENDBRANCH  31  32
DOCKED: ENDBRANCH  30  31
DOCKED: ENDBRANCH   6  30
DOCKED: BRANCH  22  36
DOCKED: ATOM     36  C   UNL d   1      45.074  30.007  18.411 -0.24 +0.02    +0.052 C 
DOCKED: BRANCH  36  37
DOCKED: ATOM     37  C   UNL d   1      44.901  29.544  19.850 -0.16 +0.08    +0.115 C 
DOCKED: BRANCH  37  38
DOCKED: ATOM     38  C   UNL d   1      45.783  28.363  20.145 -0.15 +0.13    +0.139 C 
DOCKED: ATOM     39  O   UNL d   1      46.341  28.255  21.227 -0.52 -1.01    -0.650 OA
DOCKED: BRANCH  38  40
DOCKED: ATOM     40  O   UNL d   1      45.967  27.413  19.211 +0.06 -0.45    -0.776 OA
DOCKED: ATOM     41  H   UNL d   1      45.707  26.502  19.409 +0.05 +0.10    +0.167 HD
DOCKED: ENDBRANCH  38  40
DOCKED: ENDBRANCH  37  38
DOCKED: ENDBRANCH  36  37
DOCKED: ENDBRANCH  22  36
DOCKED: BRANCH  12  42
DOCKED: ATOM     42  C   UNL d   1      36.179  28.320  11.756 -0.69 +0.00    +0.004 C 
DOCKED: ATOM     43  C   UNL d   1      35.126  29.078  12.087 -0.60 +0.00    +0.012 C 
DOCKED: ENDBRANCH  12  42
DOCKED: BRANCH  17  44
DOCKED: ATOM     44  C   UNL d   1      38.960  34.501  15.970 -0.58 +0.00    +0.004 C 
DOCKED: ATOM     45  C   UNL d   1      39.199  35.510  15.126 -0.61 +0.00    +0.012 C 
DOCKED: ENDBRANCH  17  44
DOCKED: TORSDOF 10
DOCKED: TER
DOCKED: ENDMDL
________________________________________________________________________________


	BEGINNING GENETIC ALGORITHM DOCKING 10 of 100
Run: 10 Seed: 214179237 676007094 [ Run 10 of 100 GA/GALS ]
Beginning LAMARCKIAN GENETIC ALGORITHM (LGA), with a maximum of 25000000 energy evaluations.

Final-Value: -17.194


	FINAL GENETIC ALGORITHM DOCKED STATE
	_______________________________________________


Detailed state:  trans 41.256 28.298 16.575 quatxyzw 0.145453 0.929711 0.081153 -0.328473 center -0.174 -0.001 -0.047 ntor 10 -46.1262 66.5856 98.6891 -117.7476 94.2061 -121.6262 -67.8146 -77.4004 -170.2656 -9.7409
State:	 41.256  28.298  16.575   0.154  0.984  0.086 -141.648    -46.13   66.59   98.69 -117.75   94.21 -121.63  -67.81  -77.40 -170.27   -9.74

DOCKED: MODEL       10
DOCKED: USER    Run = 10
DOCKED: USER    DPF = D:/Protein_go_brrr/autodock/final/6BB5/heme_Fe/dock.dpf
DOCKED: USER  
DOCKED: USER    Estimated Free Energy of Binding    =  -12.03 kcal/mol  [=(1)+(2)+(3)-(4)]
DOCKED: USER    Estimated Inhibition Constant, Ki   =    1.51 nM (nanomolar)  [Temperature = 298.15 K]
DOCKED: USER    
DOCKED: USER    (1) Final Intermolecular Energy     =  -15.02 kcal/mol
DOCKED: USER        vdW + Hbond + desolv Energy     =  -13.15 kcal/mol
DOCKED: USER        Electrostatic Energy            =   -1.86 kcal/mol
DOCKED: USER    (2) Final Total Internal Energy     =   -2.18 kcal/mol
DOCKED: USER    (3) Torsional Free Energy           =   +2.98 kcal/mol
DOCKED: USER    (4) Unbound System's Energy  [=(2)] =   -2.18 kcal/mol
DOCKED: USER    
DOCKED: USER    
DOCKED: USER    NEWDPF move heme_Fe_opt.pdbqt
DOCKED: USER    NEWDPF about -0.174000 -0.001000 -0.047000
DOCKED: USER    NEWDPF tran0 41.255651 28.297645 16.574616
DOCKED: USER    NEWDPF quaternion0 0.145453 0.929711 0.081153 -0.328473
DOCKED: USER    NEWDPF axisangle0 0.153997 0.984328 0.085920 -141.647796
DOCKED: USER    NEWDPF quat0 0.153997 0.984328 0.085920 -141.647796
DOCKED: USER    NEWDPF dihe0 -46.13 66.59 98.69 -117.75 94.21 -121.63 -67.81 -77.40 -170.27 -9.74 
DOCKED: USER  keepresnum = 1 
DOCKED: USER  
DOCKED: REMARK  10 active torsions:
DOCKED: REMARK  status: ('A' for Active; 'I' for Inactive)
DOCKED: REMARK    1  A    between atoms: C_6  and  C_10 
DOCKED: REMARK    2  A    between atoms: C_10  and  C_11 
DOCKED: REMARK    3  A    between atoms: C_11  and  C_12 
DOCKED: REMARK    4  A    between atoms: C_12  and  O_14 
DOCKED: REMARK    5  A    between atoms: C_17  and  C_20 
DOCKED: REMARK    6  A    between atoms: C_24  and  C_27 
DOCKED: REMARK    7  A    between atoms: C_31  and  C_34 
DOCKED: REMARK    8  A    between atoms: C_34  and  C_35 
DOCKED: REMARK    9  A    between atoms: C_35  and  C_36 
DOCKED: REMARK   10  A    between atoms: C_36  and  O_38 
DOCKED: USER                              x       y       z     vdW  Elec       q    Type
DOCKED: USER                           _______ _______ _______ _____ _____    ______ ____
DOCKED: ROOT
DOCKED: ATOM      1  C   UNL d   1      43.050  27.630  17.313 -0.17 +0.02    +0.064 C 
DOCKED: ATOM      2  C   UNL d   1      39.496  25.661  14.499 -0.40 +0.01    +0.064 A 
DOCKED: ATOM      3  C   UNL d   1      37.706  30.063  13.800 -0.38 +0.01    +0.064 C 
DOCKED: ATOM      4  C   UNL d   1      41.075  31.977  16.606 -0.47 +0.01    +0.064 C 
DOCKED: ATOM      5  C   UNL d   1      42.166  26.658  16.654 -0.30 +0.01    +0.066 A 
DOCKED: ATOM      6  C   UNL d   1      42.306  25.282  16.732 -0.35 -0.00    -0.021 A 
DOCKED: ATOM      7  C   UNL d   1      41.321  24.737  15.947 -0.40 -0.00    -0.025 A 
DOCKED: ATOM      8  C   UNL d   1      40.617  25.802  15.420 -0.38 +0.01    +0.066 A 
DOCKED: ATOM      9  C   UNL d   1      41.067  23.275  15.738 -0.51 +0.00    +0.051 C 
DOCKED: ATOM     10  C   UNL d   1      38.764  26.669  14.021 -0.38 +0.01    +0.066 A 
DOCKED: ATOM     11  C   UNL d   1      37.770  26.513  13.052 -0.44 -0.00    -0.021 A 
DOCKED: ATOM     12  C   UNL d   1      37.249  27.771  12.820 -0.49 +0.00    +0.000 A 
DOCKED: ATOM     13  C   UNL d   1      37.966  28.639  13.663 -0.34 +0.01    +0.070 A 
DOCKED: ATOM     14  C   UNL d   1      37.381  25.238  12.331 -0.40 +0.01    +0.052 C 
DOCKED: ATOM     15  C   UNL d   1      38.426  30.912  14.571 -0.35 +0.01    +0.066 A 
DOCKED: ATOM     16  C   UNL d   1      38.085  32.246  14.753 -0.38 -0.00    -0.021 A 
DOCKED: ATOM     17  C   UNL d   1      39.058  32.801  15.559 -0.40 +0.00    +0.000 A 
DOCKED: ATOM     18  C   UNL d   1      39.973  31.791  15.847 -0.35 +0.01    +0.070 A 
DOCKED: ATOM     19  C   UNL d   1      36.906  32.980  14.173 -0.41 +0.00    +0.052 C 
DOCKED: ATOM     20  C   UNL d   1      42.027  30.925  16.980 -0.36 +0.01    +0.066 A 
DOCKED: ATOM     21  C   UNL d   1      43.270  31.138  17.593 -0.30 -0.01    -0.025 A 
DOCKED: ATOM     22  C   UNL d   1      43.810  29.885  17.797 -0.29 -0.01    -0.021 A 
DOCKED: ATOM     23  C   UNL d   1      42.883  28.962  17.297 -0.18 +0.02    +0.066 A 
DOCKED: ATOM     24  C   UNL d   1      43.926  32.447  17.967 -0.30 +0.01    +0.051 C 
DOCKED: ATOM     25  N   UNL d   1      41.128  26.969  15.859 -0.27 -0.05    -0.248 N 
DOCKED: ATOM     26  N   UNL d   1      38.895  27.969  14.388 -0.14 -0.06    -0.248 N 
DOCKED: ATOM     27  N   UNL d   1      39.563  30.619  15.276 -0.06 -0.06    -0.248 N 
DOCKED: ATOM     28  N   UNL d   1      41.818  29.604  16.760 -0.21 -0.05    -0.248 N 
DOCKED: ATOM     29 FE   UNL d   1      40.357  28.789  15.575 -0.09 +0.00    +0.000 Fe
DOCKED: ENDROOT
DOCKED: BRANCH   6  30
DOCKED: ATOM     30  C   UNL d   1      43.310  24.522  17.529 -0.32 +0.01    +0.052 C 
DOCKED: BRANCH  30  31
DOCKED: ATOM     31  C   UNL d   1      44.648  24.465  16.798 -0.18 +0.04    +0.115 C 
DOCKED: BRANCH  31  32
DOCKED: ATOM     32  C   UNL d   1      45.685  25.265  17.536 -0.17 +0.06    +0.139 C 
DOCKED: ATOM     33  O   UNL d   1      46.431  24.726  18.342 +0.05 -0.33    -0.650 OA
DOCKED: BRANCH  32  34
DOCKED: ATOM     34  O   UNL d   1      45.801  26.585  17.316 +0.06 -0.31    -0.776 OA
DOCKED: ATOM     35  H   UNL d   1      45.878  27.183  18.073 +0.05 +0.07    +0.167 HD
DOCKED: ENDBRANCH  32  34
DOCKED: ENDBRANCH  31  32
DOCKED: ENDBRANCH  30  31
DOCKED: ENDBRANCH   6  30
DOCKED: BRANCH  22  36
DOCKED: ATOM     36  C   UNL d   1      45.163  29.596  18.393 -0.23 +0.02    +0.052 C 
DOCKED: BRANCH  36  37
DOCKED: ATOM     37  C   UNL d   1      45.050  29.521  19.909 -0.16 +0.08    +0.115 C 
DOCKED: BRANCH  37  38
DOCKED: ATOM     38  C   UNL d   1      45.040  28.094  20.378 -0.14 +0.15    +0.139 C 
DOCKED: ATOM     39  O   UNL d   1      44.103  27.656  21.029 -0.21 -1.05    -0.650 OA
DOCKED: BRANCH  38  40
DOCKED: ATOM     40  O   UNL d   1      46.074  27.284  20.086 -0.01 -0.65    -0.776 OA
DOCKED: ATOM     41  H   UNL d   1      45.930  26.534  19.493 +0.05 +0.10    +0.167 HD
DOCKED: ENDBRANCH  38  40
DOCKED: ENDBRANCH  37  38
DOCKED: ENDBRANCH  36  37
DOCKED: ENDBRANCH  22  36
DOCKED: BRANCH  12  42
DOCKED: ATOM     42  C   UNL d   1      36.160  28.080  11.843 -0.69 +0.00    +0.004 C 
DOCKED: ATOM     43  C   UNL d   1      35.273  29.053  12.085 -0.62 +0.00    +0.012 C 
DOCKED: ENDBRANCH  12  42
DOCKED: BRANCH  17  44
DOCKED: ATOM     44  C   UNL d   1      39.097  34.201  16.039 -0.53 +0.00    +0.004 C 
DOCKED: ATOM     45  C   UNL d   1      39.224  35.217  15.179 -0.60 +0.00    +0.012 C 
DOCKED: ENDBRANCH  17  44
DOCKED: TORSDOF 10
DOCKED: TER
DOCKED: ENDMDL
________________________________________________________________________________


	BEGINNING GENETIC ALGORITHM DOCKING 11 of 100
Run: 11 Seed: 1304012619 1487830212 [ Run 11 of 100 GA/GALS ]
Beginning LAMARCKIAN GENETIC ALGORITHM (LGA), with a maximum of 25000000 energy evaluations.

Final-Value: -16.225


	FINAL GENETIC ALGORITHM DOCKED STATE
	_______________________________________________


Detailed state:  trans 8.012 34.477 -0.951 quatxyzw -0.391753 -0.183310 -0.269032 -0.860552 center -0.174 -0.001 -0.047 ntor 10 -57.4786 -74.5845 65.2190 -160.5248 -2.6720 151.1974 -64.6555 47.8081 -167.0473 -178.5667
State:	  8.012  34.477  -0.951  -0.769 -0.360 -0.528 -61.243    -57.48  -74.58   65.22 -160.52   -2.67  151.20  -64.66   47.81 -167.05 -178.57

DOCKED: MODEL       11
DOCKED: USER    Run = 11
DOCKED: USER    DPF = D:/Protein_go_brrr/autodock/final/6BB5/heme_Fe/dock.dpf
DOCKED: USER  
DOCKED: USER    Estimated Free Energy of Binding    =  -10.58 kcal/mol  [=(1)+(2)+(3)-(4)]
DOCKED: USER    Estimated Inhibition Constant, Ki   =   17.53 nM (nanomolar)  [Temperature = 298.15 K]
DOCKED: USER    
DOCKED: USER    (1) Final Intermolecular Energy     =  -13.56 kcal/mol
DOCKED: USER        vdW + Hbond + desolv Energy     =  -12.41 kcal/mol
DOCKED: USER        Electrostatic Energy            =   -1.15 kcal/mol
DOCKED: USER    (2) Final Total Internal Energy     =   -2.66 kcal/mol
DOCKED: USER    (3) Torsional Free Energy           =   +2.98 kcal/mol
DOCKED: USER    (4) Unbound System's Energy  [=(2)] =   -2.66 kcal/mol
DOCKED: USER    
DOCKED: USER    
DOCKED: USER    NEWDPF move heme_Fe_opt.pdbqt
DOCKED: USER    NEWDPF about -0.174000 -0.001000 -0.047000
DOCKED: USER    NEWDPF tran0 8.011831 34.476956 -0.950512
DOCKED: USER    NEWDPF quaternion0 -0.391753 -0.183310 -0.269032 -0.860552
DOCKED: USER    NEWDPF axisangle0 -0.769103 -0.359881 -0.528172 -61.242860
DOCKED: USER    NEWDPF quat0 -0.769103 -0.359881 -0.528172 -61.242860
DOCKED: USER    NEWDPF dihe0 -57.48 -74.58 65.22 -160.52 -2.67 151.20 -64.66 47.81 -167.05 -178.57 
DOCKED: USER  keepresnum = 1 
DOCKED: USER  
DOCKED: REMARK  10 active torsions:
DOCKED: REMARK  status: ('A' for Active; 'I' for Inactive)
DOCKED: REMARK    1  A    between atoms: C_6  and  C_10 
DOCKED: REMARK    2  A    between atoms: C_10  and  C_11 
DOCKED: REMARK    3  A    between atoms: C_11  and  C_12 
DOCKED: REMARK    4  A    between atoms: C_12  and  O_14 
DOCKED: REMARK    5  A    between atoms: C_17  and  C_20 
DOCKED: REMARK    6  A    between atoms: C_24  and  C_27 
DOCKED: REMARK    7  A    between atoms: C_31  and  C_34 
DOCKED: REMARK    8  A    between atoms: C_34  and  C_35 
DOCKED: REMARK    9  A    between atoms: C_35  and  C_36 
DOCKED: REMARK   10  A    between atoms: C_36  and  O_38 
DOCKED: USER                              x       y       z     vdW  Elec       q    Type
DOCKED: USER                           _______ _______ _______ _____ _____    ______ ____
DOCKED: ROOT
DOCKED: ATOM      1  C   UNL d   1       6.359  35.489  -1.626 -0.07 +0.01    +0.064 C 
DOCKED: ATOM      2  C   UNL d   1       7.240  32.349   2.088 -0.40 +0.00    +0.064 A 
DOCKED: ATOM      3  C   UNL d   1      11.952  33.038   1.462 -0.39 +0.00    +0.064 C 
DOCKED: ATOM      4  C   UNL d   1      11.124  35.998  -2.204 -0.48 +0.00    +0.064 C 
DOCKED: ATOM      5  C   UNL d   1       6.172  34.477  -0.577 -0.19 +0.01    +0.066 A 
DOCKED: ATOM      6  C   UNL d   1       4.950  33.944  -0.201 -0.28 -0.00    -0.021 A 
DOCKED: ATOM      7  C   UNL d   1       5.195  33.075   0.833 -0.28 -0.00    -0.025 A 
DOCKED: ATOM      8  C   UNL d   1       6.559  33.110   1.048 -0.33 +0.01    +0.066 A 
DOCKED: ATOM      9  C   UNL d   1       4.174  32.249   1.553 -0.20 +0.00    +0.051 C 
DOCKED: ATOM     10  C   UNL d   1       8.560  32.321   2.280 -0.39 +0.00    +0.066 A 
DOCKED: ATOM     11  C   UNL d   1       9.174  31.673   3.355 -0.43 -0.00    -0.021 A 
DOCKED: ATOM     12  C   UNL d   1      10.532  31.871   3.207 -0.41 +0.00    +0.000 A 
DOCKED: ATOM     13  C   UNL d   1      10.678  32.644   2.042 -0.36 +0.00    +0.070 A 
DOCKED: ATOM     14  C   UNL d   1       8.495  30.958   4.506 -0.45 -0.00    +0.052 C 
DOCKED: ATOM     15  C   UNL d   1      12.097  33.825   0.370 -0.35 +0.00    +0.066 A 
DOCKED: ATOM     16  C   UNL d   1      13.329  34.097  -0.212 -0.45 -0.00    -0.021 A 
DOCKED: ATOM     17  C   UNL d   1      13.093  34.953  -1.267 -0.45 +0.00    +0.000 A 
DOCKED: ATOM     18  C   UNL d   1      11.720  35.188  -1.302 -0.33 +0.01    +0.070 A 
DOCKED: ATOM     19  C   UNL d   1      14.679  33.593   0.221 -0.59 +0.00    +0.052 C 
DOCKED: ATOM     20  C   UNL d   1       9.677  36.220  -2.310 -0.40 +0.00    +0.066 A 
DOCKED: ATOM     21  C   UNL d   1       9.064  37.202  -3.101 -0.40 +0.00    -0.025 A 
DOCKED: ATOM     22  C   UNL d   1       7.706  37.031  -2.931 -0.33 -0.00    -0.021 A 
DOCKED: ATOM     23  C   UNL d   1       7.545  35.961  -2.043 -0.13 +0.01    +0.066 A 
DOCKED: ATOM     24  C   UNL d   1       9.714  38.254  -3.971 -0.38 -0.01    +0.051 C 
DOCKED: ATOM     25  N   UNL d   1       7.152  33.957   0.183 -0.12 -0.03    -0.248 N 
DOCKED: ATOM     26  N   UNL d   1       9.476  32.926   1.481 -0.13 -0.02    -0.248 N 
DOCKED: ATOM     27  N   UNL d   1      11.102  34.461  -0.324 +0.14 -0.04    -0.248 N 
DOCKED: ATOM     28  N   UNL d   1       8.751  35.500  -1.633 -0.25 -0.04    -0.248 N 
DOCKED: ATOM     29 FE   UNL d   1       9.115  34.214  -0.077 -0.07 +0.00    +0.000 Fe
DOCKED: ENDROOT
DOCKED: BRANCH   6  30
DOCKED: ATOM     30  C   UNL d   1       3.618  34.229  -0.806 -0.21 +0.01    +0.052 C 
DOCKED: BRANCH  30  31
DOCKED: ATOM     31  C   UNL d   1       3.082  35.572  -0.324 -0.22 +0.05    +0.115 C 
DOCKED: BRANCH  31  32
DOCKED: ATOM     32  C   UNL d   1       2.969  36.536  -1.472 -0.16 +0.07    +0.139 C 
DOCKED: ATOM     33  O   UNL d   1       3.334  36.215  -2.594 +0.02 -0.18    -0.650 OA
DOCKED: BRANCH  32  34
DOCKED: ATOM     34  O   UNL d   1       2.463  37.765  -1.274 -0.22 -0.74    -0.776 OA
DOCKED: ATOM     35  H   UNL d   1       3.000  38.537  -1.503 +0.04 +0.15    +0.167 HD
DOCKED: ENDBRANCH  32  34
DOCKED: ENDBRANCH  31  32
DOCKED: ENDBRANCH  30  31
DOCKED: ENDBRANCH   6  30
DOCKED: BRANCH  22  36
DOCKED: ATOM     36  C   UNL d   1       6.628  37.880  -3.551 -0.26 +0.00    +0.052 C 
DOCKED: BRANCH  36  37
DOCKED: ATOM     37  C   UNL d   1       6.442  39.150  -2.733 -0.27 +0.01    +0.115 C 
DOCKED: BRANCH  37  38
DOCKED: ATOM     38  C   UNL d   1       4.986  39.413  -2.470 -0.22 +0.04    +0.139 C 
DOCKED: ATOM     39  O   UNL d   1       4.631  40.012  -1.465 -0.02 -0.31    -0.650 OA
DOCKED: BRANCH  38  40
DOCKED: ATOM     40  O   UNL d   1       4.058  38.985  -3.344 +0.07 -0.22    -0.776 OA
DOCKED: ATOM     41  H   UNL d   1       3.520  38.213  -3.117 +0.04 +0.06    +0.167 HD
DOCKED: ENDBRANCH  38  40
DOCKED: ENDBRANCH  37  38
DOCKED: ENDBRANCH  36  37
DOCKED: ENDBRANCH  22  36
DOCKED: BRANCH  12  42
DOCKED: ATOM     42  C   UNL d   1      11.579  31.358   4.143 -0.44 +0.00    +0.004 C 
DOCKED: ATOM     43  C   UNL d   1      12.450  30.418   3.755 -0.64 +0.00    +0.012 C 
DOCKED: ENDBRANCH  12  42
DOCKED: BRANCH  17  44
DOCKED: ATOM     44  C   UNL d   1      14.112  35.495  -2.194 -0.37 +0.00    +0.004 C 
DOCKED: ATOM     45  C   UNL d   1      14.495  36.774  -2.119 -0.64 +0.00    +0.012 C 
DOCKED: ENDBRANCH  17  44
DOCKED: TORSDOF 10
DOCKED: TER
DOCKED: ENDMDL
________________________________________________________________________________


	BEGINNING GENETIC ALGORITHM DOCKING 12 of 100
Run: 12 Seed: 311068589 1082460051 [ Run 12 of 100 GA/GALS ]
Beginning LAMARCKIAN GENETIC ALGORITHM (LGA), with a maximum of 25000000 energy evaluations.

Final-Value: -17.369


	FINAL GENETIC ALGORITHM DOCKED STATE
	_______________________________________________


Detailed state:  trans 41.263 28.439 16.558 quatxyzw 0.137745 0.929548 0.084103 -0.331502 center -0.174 -0.001 -0.047 ntor 10 -98.9225 78.6008 90.1126 -119.8591 110.4512 -84.6445 -47.6788 -80.0955 -166.3212 -10.1850
State:	 41.263  28.439  16.558   0.146  0.985  0.089 -141.280    -98.92   78.60   90.11 -119.86  110.45  -84.64  -47.68  -80.10 -166.32  -10.19

DOCKED: MODEL       12
DOCKED: USER    Run = 12
DOCKED: USER    DPF = D:/Protein_go_brrr/autodock/final/6BB5/heme_Fe/dock.dpf
DOCKED: USER  
DOCKED: USER    Estimated Free Energy of Binding    =  -12.26 kcal/mol  [=(1)+(2)+(3)-(4)]
DOCKED: USER    Estimated Inhibition Constant, Ki   =    1.04 nM (nanomolar)  [Temperature = 298.15 K]
DOCKED: USER    
DOCKED: USER    (1) Final Intermolecular Energy     =  -15.24 kcal/mol
DOCKED: USER        vdW + Hbond + desolv Energy     =  -13.33 kcal/mol
DOCKED: USER        Electrostatic Energy            =   -1.91 kcal/mol
DOCKED: USER    (2) Final Total Internal Energy     =   -2.13 kcal/mol
DOCKED: USER    (3) Torsional Free Energy           =   +2.98 kcal/mol
DOCKED: USER    (4) Unbound System's Energy  [=(2)] =   -2.13 kcal/mol
DOCKED: USER    
DOCKED: USER    
DOCKED: USER    NEWDPF move heme_Fe_opt.pdbqt
DOCKED: USER    NEWDPF about -0.174000 -0.001000 -0.047000
DOCKED: USER    NEWDPF tran0 41.263168 28.438836 16.557866
DOCKED: USER    NEWDPF quaternion0 0.137745 0.929548 0.084103 -0.331502
DOCKED: USER    NEWDPF axisangle0 0.146001 0.985260 0.089144 -141.280016
DOCKED: USER    NEWDPF quat0 0.146001 0.985260 0.089144 -141.280016
DOCKED: USER    NEWDPF dihe0 -98.92 78.60 90.11 -119.86 110.45 -84.64 -47.68 -80.10 -166.32 -10.19 
DOCKED: USER  keepresnum = 1 
DOCKED: USER  
DOCKED: REMARK  10 active torsions:
DOCKED: REMARK  status: ('A' for Active; 'I' for Inactive)
DOCKED: REMARK    1  A    between atoms: C_6  and  C_10 
DOCKED: REMARK    2  A    between atoms: C_10  and  C_11 
DOCKED: REMARK    3  A    between atoms: C_11  and  C_12 
DOCKED: REMARK    4  A    between atoms: C_12  and  O_14 
DOCKED: REMARK    5  A    between atoms: C_17  and  C_20 
DOCKED: REMARK    6  A    between atoms: C_24  and  C_27 
DOCKED: REMARK    7  A    between atoms: C_31  and  C_34 
DOCKED: REMARK    8  A    between atoms: C_34  and  C_35 
DOCKED: REMARK    9  A    between atoms: C_35  and  C_36 
DOCKED: REMARK   10  A    between atoms: C_36  and  O_38 
DOCKED: USER                              x       y       z     vdW  Elec       q    Type
DOCKED: USER                           _______ _______ _______ _____ _____    ______ ____
DOCKED: ROOT
DOCKED: ATOM      1  C   UNL d   1      43.062  27.800  17.311 -0.18 +0.02    +0.064 C 
DOCKED: ATOM      2  C   UNL d   1      39.561  25.774  14.470 -0.40 +0.01    +0.064 A 
DOCKED: ATOM      3  C   UNL d   1      37.708  30.147  13.755 -0.39 +0.01    +0.064 C 
DOCKED: ATOM      4  C   UNL d   1      41.024  32.115  16.586 -0.48 +0.01    +0.064 C 
DOCKED: ATOM      5  C   UNL d   1      42.199  26.814  16.645 -0.29 +0.01    +0.066 A 
DOCKED: ATOM      6  C   UNL d   1      42.360  25.441  16.725 -0.35 -0.00    -0.021 A 
DOCKED: ATOM      7  C   UNL d   1      41.389  24.879  15.933 -0.40 -0.00    -0.025 A 
DOCKED: ATOM      8  C   UNL d   1      40.673  25.933  15.399 -0.39 +0.01    +0.066 A 
DOCKED: ATOM      9  C   UNL d   1      41.160  23.414  15.723 -0.51 +0.00    +0.051 C 
DOCKED: ATOM     10  C   UNL d   1      38.817  26.770  13.985 -0.37 +0.01    +0.066 A 
DOCKED: ATOM     11  C   UNL d   1      37.833  26.598  13.009 -0.44 -0.00    -0.021 A 
DOCKED: ATOM     12  C   UNL d   1      37.295  27.847  12.773 -0.50 +0.00    +0.000 A 
DOCKED: ATOM     13  C   UNL d   1      37.991  28.727  13.620 -0.33 +0.01    +0.070 A 
DOCKED: ATOM     14  C   UNL d   1      37.471  25.317  12.285 -0.32 +0.01    +0.052 C 
DOCKED: ATOM     15  C   UNL d   1      38.409  31.008  14.531 -0.36 +0.01    +0.066 A 
DOCKED: ATOM     16  C   UNL d   1      38.046  32.336  14.709 -0.38 -0.00    -0.021 A 
DOCKED: ATOM     17  C   UNL d   1      39.003  32.907  15.523 -0.41 +0.00    +0.000 A 
DOCKED: ATOM     18  C   UNL d   1      39.932  31.912  15.818 -0.36 +0.01    +0.070 A 
DOCKED: ATOM     19  C   UNL d   1      36.860  33.051  14.120 -0.41 +0.00    +0.052 C 
DOCKED: ATOM     20  C   UNL d   1      41.990  31.078  16.968 -0.36 +0.01    +0.066 A 
DOCKED: ATOM     21  C   UNL d   1      43.225  31.311  17.591 -0.29 -0.01    -0.025 A 
DOCKED: ATOM     22  C   UNL d   1      43.783  30.066  17.799 -0.29 -0.01    -0.021 A 
DOCKED: ATOM     23  C   UNL d   1      42.875  29.129  17.293 -0.21 +0.02    +0.066 A 
DOCKED: ATOM     24  C   UNL d   1      43.857  32.630  17.969 -0.32 +0.01    +0.051 C 
DOCKED: ATOM     25  N   UNL d   1      41.162  27.108  15.842 -0.26 -0.05    -0.248 N 
DOCKED: ATOM     26  N   UNL d   1      38.925  28.072  14.353 -0.10 -0.06    -0.248 N 
DOCKED: ATOM     27  N   UNL d   1      39.544  30.733  15.245 -0.10 -0.05    -0.248 N 
DOCKED: ATOM     28  N   UNL d   1      41.803  29.754  16.747 -0.22 -0.05    -0.248 N 
DOCKED: ATOM     29 FE   UNL d   1      40.365  28.915  15.551 -0.09 +0.00    +0.000 Fe
DOCKED: ENDROOT
DOCKED: BRANCH   6  30
DOCKED: ATOM     30  C   UNL d   1      43.369  24.696  17.530 -0.31 +0.02    +0.052 C 
DOCKED: BRANCH  30  31
DOCKED: ATOM     31  C   UNL d   1      44.737  24.743  16.857 -0.20 +0.04    +0.115 C 
DOCKED: BRANCH  31  32
DOCKED: ATOM     32  C   UNL d   1      45.801  25.112  17.853 -0.14 +0.06    +0.139 C 
DOCKED: ATOM     33  O   UNL d   1      46.631  24.289  18.212 +0.04 -0.36    -0.650 OA
DOCKED: BRANCH  32  34
DOCKED: ATOM     34  O   UNL d   1      45.848  26.356  18.359 +0.08 -0.36    -0.776 OA
DOCKED: ATOM     35  H   UNL d   1      45.257  26.589  19.089 +0.06 +0.09    +0.167 HD
DOCKED: ENDBRANCH  32  34
DOCKED: ENDBRANCH  31  32
DOCKED: ENDBRANCH  30  31
DOCKED: ENDBRANCH   6  30
DOCKED: BRANCH  22  36
DOCKED: ATOM     36  C   UNL d   1      45.135  29.799  18.407 -0.24 +0.02    +0.052 C 
DOCKED: BRANCH  36  37
DOCKED: ATOM     37  C   UNL d   1      45.013  29.734  19.922 -0.14 +0.08    +0.115 C 
DOCKED: BRANCH  37  38
DOCKED: ATOM     38  C   UNL d   1      44.953  28.310  20.397 -0.12 +0.16    +0.139 C 
DOCKED: ATOM     39  O   UNL d   1      43.893  27.702  20.420 -0.14 -0.70    -0.650 OA
DOCKED: BRANCH  38  40
DOCKED: ATOM     40  O   UNL d   1      46.075  27.691  20.806 -0.27 -1.01    -0.776 OA
DOCKED: ATOM     41  H   UNL d   1      46.513  27.069  20.208 +0.03 +0.13    +0.167 HD
DOCKED: ENDBRANCH  38  40
DOCKED: ENDBRANCH  37  38
DOCKED: ENDBRANCH  36  37
DOCKED: ENDBRANCH  22  36
DOCKED: BRANCH  12  42
DOCKED: ATOM     42  C   UNL d   1      36.209  28.139  11.786 -0.69 +0.00    +0.004 C 
DOCKED: ATOM     43  C   UNL d   1      35.208  28.975  12.091 -0.63 +0.00    +0.012 C 
DOCKED: ENDBRANCH  12  42
DOCKED: BRANCH  17  44
DOCKED: ATOM     44  C   UNL d   1      39.016  34.307  16.003 -0.57 +0.00    +0.004 C 
DOCKED: ATOM     45  C   UNL d   1      39.176  35.323  15.148 -0.61 +0.00    +0.012 C 
DOCKED: ENDBRANCH  17  44
DOCKED: TORSDOF 10
DOCKED: TER
DOCKED: ENDMDL
________________________________________________________________________________


	BEGINNING GENETIC ALGORITHM DOCKING 13 of 100
Run: 13 Seed: 1518917229 97940981 [ Run 13 of 100 GA/GALS ]
Beginning LAMARCKIAN GENETIC ALGORITHM (LGA), with a maximum of 25000000 energy evaluations.

Final-Value: -16.120


	FINAL GENETIC ALGORITHM DOCKED STATE
	_______________________________________________


Detailed state:  trans 8.116 34.469 -0.918 quatxyzw -0.388396 -0.192014 -0.272800 -0.858987 center -0.174 -0.001 -0.047 ntor 10 -19.9707 103.2794 64.9987 -147.3865 2.5141 -71.4405 -75.8660 27.9695 175.6527 -179.7063
State:	  8.116  34.469  -0.918  -0.759 -0.375 -0.533 -61.594    -19.97  103.28   65.00 -147.39    2.51  -71.44  -75.87   27.97  175.65 -179.71

DOCKED: MODEL       13
DOCKED: USER    Run = 13
DOCKED: USER    DPF = D:/Protein_go_brrr/autodock/final/6BB5/heme_Fe/dock.dpf
DOCKED: USER  
DOCKED: USER    Estimated Free Energy of Binding    =  -11.02 kcal/mol  [=(1)+(2)+(3)-(4)]
DOCKED: USER    Estimated Inhibition Constant, Ki   =    8.41 nM (nanomolar)  [Temperature = 298.15 K]
DOCKED: USER    
DOCKED: USER    (1) Final Intermolecular Energy     =  -14.00 kcal/mol
DOCKED: USER        vdW + Hbond + desolv Energy     =  -12.58 kcal/mol
DOCKED: USER        Electrostatic Energy            =   -1.42 kcal/mol
DOCKED: USER    (2) Final Total Internal Energy     =   -2.12 kcal/mol
DOCKED: USER    (3) Torsional Free Energy           =   +2.98 kcal/mol
DOCKED: USER    (4) Unbound System's Energy  [=(2)] =   -2.12 kcal/mol
DOCKED: USER    
DOCKED: USER    
DOCKED: USER    NEWDPF move heme_Fe_opt.pdbqt
DOCKED: USER    NEWDPF about -0.174000 -0.001000 -0.047000
DOCKED: USER    NEWDPF tran0 8.115822 34.469054 -0.917937
DOCKED: USER    NEWDPF quaternion0 -0.388396 -0.192014 -0.272800 -0.858987
DOCKED: USER    NEWDPF axisangle0 -0.758591 -0.375030 -0.532816 -61.593930
DOCKED: USER    NEWDPF quat0 -0.758591 -0.375030 -0.532816 -61.593930
DOCKED: USER    NEWDPF dihe0 -19.97 103.28 65.00 -147.39 2.51 -71.44 -75.87 27.97 175.65 -179.71 
DOCKED: USER  keepresnum = 1 
DOCKED: USER  
DOCKED: REMARK  10 active torsions:
DOCKED: REMARK  status: ('A' for Active; 'I' for Inactive)
DOCKED: REMARK    1  A    between atoms: C_6  and  C_10 
DOCKED: REMARK    2  A    between atoms: C_10  and  C_11 
DOCKED: REMARK    3  A    between atoms: C_11  and  C_12 
DOCKED: REMARK    4  A    between atoms: C_12  and  O_14 
DOCKED: REMARK    5  A    between atoms: C_17  and  C_20 
DOCKED: REMARK    6  A    between atoms: C_24  and  C_27 
DOCKED: REMARK    7  A    between atoms: C_31  and  C_34 
DOCKED: REMARK    8  A    between atoms: C_34  and  C_35 
DOCKED: REMARK    9  A    between atoms: C_35  and  C_36 
DOCKED: REMARK   10  A    between atoms: C_36  and  O_38 
DOCKED: USER                              x       y       z     vdW  Elec       q    Type
DOCKED: USER                           _______ _______ _______ _____ _____    ______ ____
DOCKED: ROOT
DOCKED: ATOM      1  C   UNL d   1       6.477  35.480  -1.626 -0.09 +0.01    +0.064 C 
DOCKED: ATOM      2  C   UNL d   1       7.284  32.337   2.102 -0.40 +0.00    +0.064 A 
DOCKED: ATOM      3  C   UNL d   1      12.007  33.030   1.572 -0.37 +0.00    +0.064 C 
DOCKED: ATOM      4  C   UNL d   1      11.252  35.994  -2.106 -0.47 +0.00    +0.064 C 
DOCKED: ATOM      5  C   UNL d   1       6.269  34.467  -0.582 -0.20 +0.01    +0.066 A 
DOCKED: ATOM      6  C   UNL d   1       5.040  33.933  -0.231 -0.28 -0.00    -0.021 A 
DOCKED: ATOM      7  C   UNL d   1       5.265  33.063   0.807 -0.28 -0.00    -0.025 A 
DOCKED: ATOM      8  C   UNL d   1       6.624  33.099   1.049 -0.32 +0.01    +0.066 A 
DOCKED: ATOM      9  C   UNL d   1       4.230  32.235   1.505 -0.15 +0.00    +0.051 C 
DOCKED: ATOM     10  C   UNL d   1       8.600  32.309   2.320 -0.39 +0.00    +0.066 A 
DOCKED: ATOM     11  C   UNL d   1       9.192  31.661   3.407 -0.43 -0.00    -0.021 A 
DOCKED: ATOM     12  C   UNL d   1      10.553  31.860   3.286 -0.40 +0.00    +0.000 A 
DOCKED: ATOM     13  C   UNL d   1      10.722  32.634   2.126 -0.36 +0.00    +0.070 A 
DOCKED: ATOM     14  C   UNL d   1       8.490  30.944   4.543 -0.45 -0.00    +0.052 C 
DOCKED: ATOM     15  C   UNL d   1      12.174  33.819   0.484 -0.36 +0.00    +0.066 A 
DOCKED: ATOM     16  C   UNL d   1      13.417  34.092  -0.072 -0.45 -0.00    -0.021 A 
DOCKED: ATOM     17  C   UNL d   1      13.202  34.950  -1.131 -0.45 +0.00    +0.000 A 
DOCKED: ATOM     18  C   UNL d   1      11.830  35.183  -1.194 -0.35 +0.01    +0.070 A 
DOCKED: ATOM     19  C   UNL d   1      14.759  33.589   0.388 -0.60 +0.00    +0.052 C 
DOCKED: ATOM     20  C   UNL d   1       9.807  36.215  -2.241 -0.39 +0.00    +0.066 A 
DOCKED: ATOM     21  C   UNL d   1       9.210  37.198  -3.044 -0.40 +0.00    -0.025 A 
DOCKED: ATOM     22  C   UNL d   1       7.849  37.025  -2.901 -0.34 -0.00    -0.021 A 
DOCKED: ATOM     23  C   UNL d   1       7.670  35.954  -2.018 -0.17 +0.01    +0.066 A 
DOCKED: ATOM     24  C   UNL d   1       9.876  38.251  -3.899 -0.33 -0.01    +0.051 C 
DOCKED: ATOM     25  N   UNL d   1       7.234  33.947   0.197 -0.09 -0.04    -0.248 N 
DOCKED: ATOM     26  N   UNL d   1       9.531  32.916   1.541 -0.18 -0.02    -0.248 N 
DOCKED: ATOM     27  N   UNL d   1      11.192  34.454  -0.229 +0.04 -0.04    -0.248 N 
DOCKED: ATOM     28  N   UNL d   1       8.868  35.493  -1.584 -0.24 -0.05    -0.248 N 
DOCKED: ATOM     29 FE   UNL d   1       9.201  34.206  -0.022 -0.07 +0.00    +0.000 Fe
DOCKED: ENDROOT
DOCKED: BRANCH   6  30
DOCKED: ATOM     30  C   UNL d   1       3.720  34.218  -0.863 -0.22 +0.01    +0.052 C 
DOCKED: BRANCH  30  31
DOCKED: ATOM     31  C   UNL d   1       2.980  35.311  -0.099 -0.20 +0.05    +0.115 C 
DOCKED: BRANCH  31  32
DOCKED: ATOM     32  C   UNL d   1       3.045  36.612  -0.849 -0.18 +0.08    +0.139 C 
DOCKED: ATOM     33  O   UNL d   1       3.595  36.677  -1.939 +0.01 -0.24    -0.650 OA
DOCKED: BRANCH  32  34
DOCKED: ATOM     34  O   UNL d   1       2.496  37.721  -0.325 -0.28 -1.15    -0.776 OA
DOCKED: ATOM     35  H   UNL d   1       2.782  38.586  -0.651 +0.03 +0.27    +0.167 HD
DOCKED: ENDBRANCH  32  34
DOCKED: ENDBRANCH  31  32
DOCKED: ENDBRANCH  30  31
DOCKED: ENDBRANCH   6  30
DOCKED: BRANCH  22  36
DOCKED: ATOM     36  C   UNL d   1       6.782  37.875  -3.541 -0.27 +0.00    +0.052 C 
DOCKED: BRANCH  36  37
DOCKED: ATOM     37  C   UNL d   1       6.559  39.130  -2.711 -0.28 +0.01    +0.115 C 
DOCKED: BRANCH  37  38
DOCKED: ATOM     38  C   UNL d   1       5.160  39.648  -2.884 -0.21 +0.03    +0.139 C 
DOCKED: ATOM     39  O   UNL d   1       4.812  40.174  -3.931 +0.04 -0.13    -0.650 OA
DOCKED: BRANCH  38  40
DOCKED: ATOM     40  O   UNL d   1       4.274  39.539  -1.877 +0.02 -0.38    -0.776 OA
DOCKED: ATOM     41  H   UNL d   1       3.861  38.681  -1.706 +0.04 +0.10    +0.167 HD
DOCKED: ENDBRANCH  38  40
DOCKED: ENDBRANCH  37  38
DOCKED: ENDBRANCH  36  37
DOCKED: ENDBRANCH  22  36
DOCKED: BRANCH  12  42
DOCKED: ATOM     42  C   UNL d   1      11.581  31.346   4.243 -0.43 +0.00    +0.004 C 
DOCKED: ATOM     43  C   UNL d   1      12.458  30.404   3.873 -0.64 +0.00    +0.012 C 
DOCKED: ENDBRANCH  12  42
DOCKED: BRANCH  17  44
DOCKED: ATOM     44  C   UNL d   1      14.239  35.493  -2.036 -0.38 +0.00    +0.004 C 
DOCKED: ATOM     45  C   UNL d   1      14.807  36.679  -1.793 -0.65 +0.00    +0.012 C 
DOCKED: ENDBRANCH  17  44
DOCKED: TORSDOF 10
DOCKED: TER
DOCKED: ENDMDL
________________________________________________________________________________


	BEGINNING GENETIC ALGORITHM DOCKING 14 of 100
Run: 14 Seed: 867976334 1149918035 [ Run 14 of 100 GA/GALS ]
Beginning LAMARCKIAN GENETIC ALGORITHM (LGA), with a maximum of 25000000 energy evaluations.

Final-Value: -17.569


	FINAL GENETIC ALGORITHM DOCKED STATE
	_______________________________________________


Detailed state:  trans 41.783 28.361 15.987 quatxyzw 0.224182 0.105596 -0.955496 0.160061 center -0.174 -0.001 -0.047 ntor 10 31.4200 127.2448 66.1821 -136.5751 123.6743 -107.0750 -56.8444 44.6258 177.8179 -157.5277
State:	 41.783  28.361  15.987   0.227  0.107 -0.968 161.579     31.42  127.24   66.18 -136.58  123.67 -107.08  -56.84   44.63  177.82 -157.53

DOCKED: MODEL       14
DOCKED: USER    Run = 14
DOCKED: USER    DPF = D:/Protein_go_brrr/autodock/final/6BB5/heme_Fe/dock.dpf
DOCKED: USER  
DOCKED: USER    Estimated Free Energy of Binding    =  -13.03 kcal/mol  [=(1)+(2)+(3)-(4)]
DOCKED: USER    Estimated Inhibition Constant, Ki   =  279.08 pM (picomolar)  [Temperature = 298.15 K]
DOCKED: USER    
DOCKED: USER    (1) Final Intermolecular Energy     =  -16.02 kcal/mol
DOCKED: USER        vdW + Hbond + desolv Energy     =  -14.16 kcal/mol
DOCKED: USER        Electrostatic Energy            =   -1.85 kcal/mol
DOCKED: USER    (2) Final Total Internal Energy     =   -1.55 kcal/mol
DOCKED: USER    (3) Torsional Free Energy           =   +2.98 kcal/mol
DOCKED: USER    (4) Unbound System's Energy  [=(2)] =   -1.55 kcal/mol
DOCKED: USER    
DOCKED: USER    
DOCKED: USER    NEWDPF move heme_Fe_opt.pdbqt
DOCKED: USER    NEWDPF about -0.174000 -0.001000 -0.047000
DOCKED: USER    NEWDPF tran0 41.783270 28.360789 15.987281
DOCKED: USER    NEWDPF quaternion0 0.224182 0.105596 -0.955496 0.160061
DOCKED: USER    NEWDPF axisangle0 0.227110 0.106975 -0.967976 161.579178
DOCKED: USER    NEWDPF quat0 0.227110 0.106975 -0.967976 161.579178
DOCKED: USER    NEWDPF dihe0 31.42 127.24 66.18 -136.58 123.67 -107.08 -56.84 44.63 177.82 -157.53 
DOCKED: USER  keepresnum = 1 
DOCKED: USER  
DOCKED: REMARK  10 active torsions:
DOCKED: REMARK  status: ('A' for Active; 'I' for Inactive)
DOCKED: REMARK    1  A    between atoms: C_6  and  C_10 
DOCKED: REMARK    2  A    between atoms: C_10  and  C_11 
DOCKED: REMARK    3  A    between atoms: C_11  and  C_12 
DOCKED: REMARK    4  A    between atoms: C_12  and  O_14 
DOCKED: REMARK    5  A    between atoms: C_17  and  C_20 
DOCKED: REMARK    6  A    between atoms: C_24  and  C_27 
DOCKED: REMARK    7  A    between atoms: C_31  and  C_34 
DOCKED: REMARK    8  A    between atoms: C_34  and  C_35 
DOCKED: REMARK    9  A    between atoms: C_35  and  C_36 
DOCKED: REMARK   10  A    between atoms: C_36  and  O_38 
DOCKED: USER                              x       y       z     vdW  Elec       q    Type
DOCKED: USER                           _______ _______ _______ _____ _____    ______ ____
DOCKED: ROOT
DOCKED: ATOM      1  C   UNL d   1      43.233  27.647  17.252 -0.23 +0.02    +0.064 C 
DOCKED: ATOM      2  C   UNL d   1      41.084  32.042  16.550 -0.41 +0.01    +0.064 A 
DOCKED: ATOM      3  C   UNL d   1      37.635  29.873  14.008 -0.27 +0.01    +0.064 C 
DOCKED: ATOM      4  C   UNL d   1      39.754  25.623  14.586 -0.47 +0.01    +0.064 C 
DOCKED: ATOM      5  C   UNL d   1      42.993  29.096  17.220 -0.25 +0.02    +0.066 A 
DOCKED: ATOM      6  C   UNL d   1      43.843  30.050  17.754 -0.29 -0.01    -0.021 A 
DOCKED: ATOM      7  C   UNL d   1      43.244  31.270  17.562 -0.29 -0.01    -0.025 A 
DOCKED: ATOM      8  C   UNL d   1      42.050  31.014  16.917 -0.35 +0.01    +0.066 A 
DOCKED: ATOM      9  C   UNL d   1      43.803  32.601  17.962 -0.33 +0.01    +0.051 C 
DOCKED: ATOM     10  C   UNL d   1      39.953  31.828  15.877 -0.36 +0.01    +0.066 A 
DOCKED: ATOM     11  C   UNL d   1      38.993  32.816  15.640 -0.37 -0.00    -0.021 A 
DOCKED: ATOM     12  C   UNL d   1      37.980  32.211  14.923 -0.37 +0.00    +0.000 A 
DOCKED: ATOM     13  C   UNL d   1      38.374  30.871  14.765 -0.35 +0.01    +0.070 A 
DOCKED: ATOM     14  C   UNL d   1      39.008  34.248  16.133 -0.40 +0.00    +0.052 C 
DOCKED: ATOM     15  C   UNL d   1      37.983  28.570  13.896 -0.34 +0.01    +0.066 A 
DOCKED: ATOM     16  C   UNL d   1      37.306  27.670  13.083 -0.45 -0.00    -0.021 A 
DOCKED: ATOM     17  C   UNL d   1      37.913  26.443  13.251 -0.45 +0.00    +0.000 A 
DOCKED: ATOM     18  C   UNL d   1      38.947  26.622  14.168 -0.37 +0.01    +0.070 A 
DOCKED: ATOM     19  C   UNL d   1      36.117  27.945  12.201 -0.64 +0.01    +0.052 C 
DOCKED: ATOM     20  C   UNL d   1      40.890  25.786  15.502 -0.39 +0.01    +0.066 A 
DOCKED: ATOM     21  C   UNL d   1      41.606  24.739  16.098 -0.40 -0.00    -0.025 A 
DOCKED: ATOM     22  C   UNL d   1      42.601  25.338  16.843 -0.33 -0.00    -0.021 A 
DOCKED: ATOM     23  C   UNL d   1      42.449  26.720  16.679 -0.29 +0.02    +0.066 A 
DOCKED: ATOM     24  C   UNL d   1      41.373  23.250  15.982 -0.50 +0.00    +0.051 C 
DOCKED: ATOM     25  N   UNL d   1      41.905  29.691  16.701 -0.22 -0.05    -0.248 N 
DOCKED: ATOM     26  N   UNL d   1      39.572  30.635  15.353 -0.16 -0.06    -0.248 N 
DOCKED: ATOM     27  N   UNL d   1      39.019  27.938  14.532 -0.14 -0.07    -0.248 N 
DOCKED: ATOM     28  N   UNL d   1      41.376  26.988  15.895 -0.26 -0.05    -0.248 N 
DOCKED: ATOM     29 FE   UNL d   1      40.474  28.810  15.624 -0.09 +0.00    +0.000 Fe
DOCKED: ENDROOT
DOCKED: BRANCH   6  30
DOCKED: ATOM     30  C   UNL d   1      45.168  29.819  18.396 -0.23 +0.02    +0.052 C 
DOCKED: BRANCH  30  31
DOCKED: ATOM     31  C   UNL d   1      45.018  29.667  19.906 -0.15 +0.08    +0.115 C 
DOCKED: BRANCH  31  32
DOCKED: ATOM     32  C   UNL d   1      45.588  28.353  20.362 -0.14 +0.15    +0.139 C 
DOCKED: ATOM     33  O   UNL d   1      46.463  28.316  21.217 -0.53 -0.96    -0.650 OA
DOCKED: BRANCH  32  34
DOCKED: ATOM     34  O   UNL d   1      45.140  27.202  19.832 +0.04 -0.60    -0.776 OA
DOCKED: ATOM     35  H   UNL d   1      45.132  26.405  20.380 +0.05 +0.15    +0.167 HD
DOCKED: ENDBRANCH  32  34
DOCKED: ENDBRANCH  31  32
DOCKED: ENDBRANCH  30  31
DOCKED: ENDBRANCH   6  30
DOCKED: BRANCH  22  36
DOCKED: ATOM     36  C   UNL d   1      43.608  24.622  17.703 -0.29 +0.02    +0.052 C 
DOCKED: BRANCH  36  37
DOCKED: ATOM     37  C   UNL d   1      42.889  23.833  18.788 -0.36 +0.03    +0.115 C 
DOCKED: BRANCH  37  38
DOCKED: ATOM     38  C   UNL d   1      43.569  24.000  20.117 -0.21 +0.06    +0.139 C 
DOCKED: ATOM     39  O   UNL d   1      44.220  23.088  20.605 -0.59 -0.34    -0.650 OA
DOCKED: BRANCH  38  40
DOCKED: ATOM     40  O   UNL d   1      43.463  25.163  20.784 +0.04 -0.48    -0.776 OA
DOCKED: ATOM     41  H   UNL d   1      43.689  25.987  20.331 +0.06 +0.12    +0.167 HD
DOCKED: ENDBRANCH  38  40
DOCKED: ENDBRANCH  37  38
DOCKED: ENDBRANCH  36  37
DOCKED: ENDBRANCH  22  36
DOCKED: BRANCH  12  42
DOCKED: ATOM     42  C   UNL d   1      36.734  32.896  14.459 -0.37 +0.00    +0.004 C 
DOCKED: ATOM     43  C   UNL d   1      36.490  33.074  13.154 -0.51 +0.00    +0.012 C 
DOCKED: ENDBRANCH  12  42
DOCKED: BRANCH  17  44
DOCKED: ATOM     44  C   UNL d   1      37.542  25.185  12.564 -0.53 +0.00    +0.004 C 
DOCKED: ATOM     45  C   UNL d   1      36.538  24.428  13.017 -0.69 +0.00    +0.012 C 
DOCKED: ENDBRANCH  17  44
DOCKED: TORSDOF 10
DOCKED: TER
DOCKED: ENDMDL
________________________________________________________________________________


	BEGINNING GENETIC ALGORITHM DOCKING 15 of 100
Run: 15 Seed: 2131962778 846692887 [ Run 15 of 100 GA/GALS ]
Beginning LAMARCKIAN GENETIC ALGORITHM (LGA), with a maximum of 25000000 energy evaluations.

Final-Value: -10.356


	FINAL GENETIC ALGORITHM DOCKED STATE
	_______________________________________________


Detailed state:  trans 23.176 45.767 -3.790 quatxyzw 0.269795 0.274683 -0.915204 -0.118998 center -0.174 -0.001 -0.047 ntor 10 58.1003 49.5093 -123.7273 -160.1456 -144.1896 164.2648 -52.1259 -44.2683 172.5240 27.3473
State:	 23.176  45.767  -3.790   0.272  0.277 -0.922 -166.331     58.10   49.51 -123.73 -160.15 -144.19  164.26  -52.13  -44.27  172.52   27.35

DOCKED: MODEL       15
DOCKED: USER    Run = 15
DOCKED: USER    DPF = D:/Protein_go_brrr/autodock/final/6BB5/heme_Fe/dock.dpf
DOCKED: USER  
DOCKED: USER    Estimated Free Energy of Binding    =   -4.83 kcal/mol  [=(1)+(2)+(3)-(4)]
DOCKED: USER    Estimated Inhibition Constant, Ki   =  288.46 uM (micromolar)  [Temperature = 298.15 K]
DOCKED: USER    
DOCKED: USER    (1) Final Intermolecular Energy     =   -7.81 kcal/mol
DOCKED: USER        vdW + Hbond + desolv Energy     =   -6.66 kcal/mol
DOCKED: USER        Electrostatic Energy            =   -1.15 kcal/mol
DOCKED: USER    (2) Final Total Internal Energy     =   -2.54 kcal/mol
DOCKED: USER    (3) Torsional Free Energy           =   +2.98 kcal/mol
DOCKED: USER    (4) Unbound System's Energy  [=(2)] =   -2.54 kcal/mol
DOCKED: USER    
DOCKED: USER    
DOCKED: USER    NEWDPF move heme_Fe_opt.pdbqt
DOCKED: USER    NEWDPF about -0.174000 -0.001000 -0.047000
DOCKED: USER    NEWDPF tran0 23.176119 45.766853 -3.790440
DOCKED: USER    NEWDPF quaternion0 0.269795 0.274683 -0.915204 -0.118998
DOCKED: USER    NEWDPF axisangle0 0.271726 0.276649 -0.921754 -166.331457
DOCKED: USER    NEWDPF quat0 0.271726 0.276649 -0.921754 -166.331457
DOCKED: USER    NEWDPF dihe0 58.10 49.51 -123.73 -160.15 -144.19 164.26 -52.13 -44.27 172.52 27.35 
DOCKED: USER  keepresnum = 1 
DOCKED: USER  
DOCKED: REMARK  10 active torsions:
DOCKED: REMARK  status: ('A' for Active; 'I' for Inactive)
DOCKED: REMARK    1  A    between atoms: C_6  and  C_10 
DOCKED: REMARK    2  A    between atoms: C_10  and  C_11 
DOCKED: REMARK    3  A    between atoms: C_11  and  C_12 
DOCKED: REMARK    4  A    between atoms: C_12  and  O_14 
DOCKED: REMARK    5  A    between atoms: C_17  and  C_20 
DOCKED: REMARK    6  A    between atoms: C_24  and  C_27 
DOCKED: REMARK    7  A    between atoms: C_31  and  C_34 
DOCKED: REMARK    8  A    between atoms: C_34  and  C_35 
DOCKED: REMARK    9  A    between atoms: C_35  and  C_36 
DOCKED: REMARK   10  A    between atoms: C_36  and  O_38 
DOCKED: USER                              x       y       z     vdW  Elec       q    Type
DOCKED: USER                           _______ _______ _______ _____ _____    ______ ____
DOCKED: ROOT
DOCKED: ATOM      1  C   UNL d   1      24.563  45.652  -2.282 -0.08 +0.01    +0.064 C 
DOCKED: ATOM      2  C   UNL d   1      20.412  48.236  -3.003 -0.15 -0.01    +0.064 A 
DOCKED: ATOM      3  C   UNL d   1      19.267  45.264  -6.598 -0.26 +0.00    +0.064 C 
DOCKED: ATOM      4  C   UNL d   1      23.329  42.812  -5.986 -0.17 +0.01    +0.064 C 
DOCKED: ATOM      5  C   UNL d   1      23.542  46.705  -2.206 -0.05 +0.01    +0.066 A 
DOCKED: ATOM      6  C   UNL d   1      23.596  47.800  -1.359 -0.10 -0.00    -0.021 A 
DOCKED: ATOM      7  C   UNL d   1      22.441  48.515  -1.557 -0.13 +0.00    -0.025 A 
DOCKED: ATOM      8  C   UNL d   1      21.725  47.829  -2.519 -0.18 -0.00    +0.066 A 
DOCKED: ATOM      9  C   UNL d   1      22.065  49.793  -0.871 -0.11 -0.00    +0.051 C 
DOCKED: ATOM     10  C   UNL d   1      19.726  47.625  -3.970 -0.16 -0.01    +0.066 A 
DOCKED: ATOM     11  C   UNL d   1      18.422  47.970  -4.333 -0.18 +0.00    -0.021 A 
DOCKED: ATOM     12  C   UNL d   1      18.063  47.117  -5.356 -0.24 -0.00    +0.000 A 
DOCKED: ATOM     13  C   UNL d   1      19.174  46.281  -5.562 -0.22 -0.00    +0.070 A 
DOCKED: ATOM     14  C   UNL d   1      17.536  49.017  -3.689 -0.17 -0.02    +0.052 C 
DOCKED: ATOM     15  C   UNL d   1      20.314  44.422  -6.766 -0.22 +0.01    +0.066 A 
DOCKED: ATOM     16  C   UNL d   1      20.408  43.532  -7.828 -0.19 -0.00    -0.021 A 
DOCKED: ATOM     17  C   UNL d   1      21.578  42.822  -7.652 -0.19 +0.00    +0.000 A 
DOCKED: ATOM     18  C   UNL d   1      22.168  43.293  -6.482 -0.19 +0.01    +0.070 A 
DOCKED: ATOM     19  C   UNL d   1      19.427  43.337  -8.953 +0.19 +0.02    +0.052 C 
DOCKED: ATOM     20  C   UNL d   1      24.011  43.325  -4.792 -0.21 +0.01    +0.066 A 
DOCKED: ATOM     21  C   UNL d   1      25.101  42.713  -4.156 -0.23 -0.00    -0.025 A 
DOCKED: ATOM     22  C   UNL d   1      25.444  43.546  -3.111 -0.24 -0.00    -0.021 A 
DOCKED: ATOM     23  C   UNL d   1      24.552  44.624  -3.146 -0.22 +0.01    +0.066 A 
DOCKED: ATOM     24  C   UNL d   1      25.786  41.412  -4.502 -0.21 +0.01    +0.051 C 
DOCKED: ATOM     25  N   UNL d   1      22.402  46.733  -2.919 -0.14 -0.00    -0.248 N 
DOCKED: ATOM     26  N   UNL d   1      20.185  46.585  -4.711 -0.13 +0.02    -0.248 N 
DOCKED: ATOM     27  N   UNL d   1      21.415  44.307  -5.960 -0.14 -0.02    -0.248 N 
DOCKED: ATOM     28  N   UNL d   1      23.652  44.461  -4.147 -0.17 -0.02    -0.248 N 
DOCKED: ATOM     29 FE   UNL d   1      21.919  45.521  -4.430 -0.05 -0.00    +0.000 Fe
DOCKED: ENDROOT
DOCKED: BRANCH   6  30
DOCKED: ATOM     30  C   UNL d   1      24.698  48.161  -0.423 -0.09 +0.01    +0.052 C 
DOCKED: BRANCH  30  31
DOCKED: ATOM     31  C   UNL d   1      24.377  47.701   0.994 -0.10 +0.03    +0.115 C 
DOCKED: BRANCH  31  32
DOCKED: ATOM     32  C   UNL d   1      25.513  46.891   1.555 -0.15 +0.07    +0.139 C 
DOCKED: ATOM     33  O   UNL d   1      25.296  45.940   2.292 -0.46 -0.69    -0.650 OA
DOCKED: BRANCH  32  34
DOCKED: ATOM     34  O   UNL d   1      26.782  47.209   1.249 +0.03 -0.34    -0.776 OA
DOCKED: ATOM     35  H   UNL d   1      27.343  46.545   0.824 +0.03 +0.07    +0.167 HD
DOCKED: ENDBRANCH  32  34
DOCKED: ENDBRANCH  31  32
DOCKED: ENDBRANCH  30  31
DOCKED: ENDBRANCH   6  30
DOCKED: BRANCH  22  36
DOCKED: ATOM     36  C   UNL d   1      26.537  43.292  -2.106 -0.21 +0.01    +0.052 C 
DOCKED: BRANCH  36  37
DOCKED: ATOM     37  C   UNL d   1      27.505  44.466  -2.094 -0.07 +0.02    +0.115 C 
DOCKED: BRANCH  37  38
DOCKED: ATOM     38  C   UNL d   1      27.841  44.872  -0.687 -0.09 +0.03    +0.139 C 
DOCKED: ATOM     39  O   UNL d   1      28.804  45.589  -0.456 +0.02 -0.16    -0.650 OA
DOCKED: BRANCH  38  40
DOCKED: ATOM     40  O   UNL d   1      27.081  44.442   0.336 +0.04 -0.30    -0.776 OA
DOCKED: ATOM     41  H   UNL d   1      26.764  45.082   0.988 +0.05 +0.10    +0.167 HD
DOCKED: ENDBRANCH  38  40
DOCKED: ENDBRANCH  37  38
DOCKED: ENDBRANCH  36  37
DOCKED: ENDBRANCH  22  36
DOCKED: BRANCH  12  42
DOCKED: ATOM     42  C   UNL d   1      16.736  47.120  -6.048 -0.29 -0.00    +0.004 C 
DOCKED: ATOM     43  C   UNL d   1      15.650  46.604  -5.457 -0.47 -0.00    +0.012 C 
DOCKED: ENDBRANCH  12  42
DOCKED: BRANCH  17  44
DOCKED: ATOM     44  C   UNL d   1      22.106  41.774  -8.556 -0.15 +0.00    +0.004 C 
DOCKED: ATOM     45  C   UNL d   1      22.053  40.483  -8.212 -0.20 +0.00    +0.012 C 
DOCKED: ENDBRANCH  17  44
DOCKED: TORSDOF 10
DOCKED: TER
DOCKED: ENDMDL
________________________________________________________________________________


	BEGINNING GENETIC ALGORITHM DOCKING 16 of 100
Run: 16 Seed: 599798452 1537523968 [ Run 16 of 100 GA/GALS ]
Beginning LAMARCKIAN GENETIC ALGORITHM (LGA), with a maximum of 25000000 energy evaluations.

Final-Value: -17.568


	FINAL GENETIC ALGORITHM DOCKED STATE
	_______________________________________________


Detailed state:  trans 41.285 28.730 16.606 quatxyzw -0.111334 -0.930651 -0.077038 0.339938 center -0.174 -0.001 -0.047 ntor 10 72.5693 -114.7931 79.0445 -130.6416 -111.0558 24.2363 66.2345 -26.4309 -0.4313 12.9693
State:	 41.285  28.730  16.606  -0.118 -0.990 -0.082 140.254     72.57 -114.79   79.04 -130.64 -111.06   24.24   66.23  -26.43   -0.43   12.97

DOCKED: MODEL       16
DOCKED: USER    Run = 16
DOCKED: USER    DPF = D:/Protein_go_brrr/autodock/final/6BB5/heme_Fe/dock.dpf
DOCKED: USER  
DOCKED: USER    Estimated Free Energy of Binding    =  -12.59 kcal/mol  [=(1)+(2)+(3)-(4)]
DOCKED: USER    Estimated Inhibition Constant, Ki   =  591.91 pM (picomolar)  [Temperature = 298.15 K]
DOCKED: USER    
DOCKED: USER    (1) Final Intermolecular Energy     =  -15.57 kcal/mol
DOCKED: USER        vdW + Hbond + desolv Energy     =  -13.43 kcal/mol
DOCKED: USER        Electrostatic Energy            =   -2.14 kcal/mol
DOCKED: USER    (2) Final Total Internal Energy     =   -2.00 kcal/mol
DOCKED: USER    (3) Torsional Free Energy           =   +2.98 kcal/mol
DOCKED: USER    (4) Unbound System's Energy  [=(2)] =   -2.00 kcal/mol
DOCKED: USER    
DOCKED: USER    
DOCKED: USER    NEWDPF move heme_Fe_opt.pdbqt
DOCKED: USER    NEWDPF about -0.174000 -0.001000 -0.047000
DOCKED: USER    NEWDPF tran0 41.285178 28.730385 16.606346
DOCKED: USER    NEWDPF quaternion0 -0.111334 -0.930651 -0.077038 0.339938
DOCKED: USER    NEWDPF axisangle0 -0.118384 -0.989583 -0.081916 140.253816
DOCKED: USER    NEWDPF quat0 -0.118384 -0.989583 -0.081916 140.253816
DOCKED: USER    NEWDPF dihe0 72.57 -114.79 79.04 -130.64 -111.06 24.24 66.23 -26.43 -0.43 12.97 
DOCKED: USER  keepresnum = 1 
DOCKED: USER  
DOCKED: REMARK  10 active torsions:
DOCKED: REMARK  status: ('A' for Active; 'I' for Inactive)
DOCKED: REMARK    1  A    between atoms: C_6  and  C_10 
DOCKED: REMARK    2  A    between atoms: C_10  and  C_11 
DOCKED: REMARK    3  A    between atoms: C_11  and  C_12 
DOCKED: REMARK    4  A    between atoms: C_12  and  O_14 
DOCKED: REMARK    5  A    between atoms: C_17  and  C_20 
DOCKED: REMARK    6  A    between atoms: C_24  and  C_27 
DOCKED: REMARK    7  A    between atoms: C_31  and  C_34 
DOCKED: REMARK    8  A    between atoms: C_34  and  C_35 
DOCKED: REMARK    9  A    between atoms: C_35  and  C_36 
DOCKED: REMARK   10  A    between atoms: C_36  and  O_38 
DOCKED: USER                              x       y       z     vdW  Elec       q    Type
DOCKED: USER                           _______ _______ _______ _____ _____    ______ ____
DOCKED: ROOT
DOCKED: ATOM      1  C   UNL d   1      43.096  28.195  17.410 -0.04 +0.02    +0.064 C 
DOCKED: ATOM      2  C   UNL d   1      39.737  25.927  14.580 -0.40 +0.01    +0.064 A 
DOCKED: ATOM      3  C   UNL d   1      37.711  30.189  13.689 -0.40 +0.01    +0.064 C 
DOCKED: ATOM      4  C   UNL d   1      40.888  32.392  16.507 -0.48 +0.01    +0.064 C 
DOCKED: ATOM      5  C   UNL d   1      42.288  27.152  16.764 -0.14 +0.02    +0.066 A 
DOCKED: ATOM      6  C   UNL d   1      42.506  25.790  16.892 -0.33 -0.00    -0.021 A 
DOCKED: ATOM      7  C   UNL d   1      41.576  25.161  16.103 -0.39 -0.00    -0.025 A 
DOCKED: ATOM      8  C   UNL d   1      40.824  26.164  15.523 -0.39 +0.01    +0.066 A 
DOCKED: ATOM      9  C   UNL d   1      41.413  23.681  15.938 -0.49 +0.01    +0.051 C 
DOCKED: ATOM     10  C   UNL d   1      38.960  26.873  14.051 -0.37 +0.01    +0.066 A 
DOCKED: ATOM     11  C   UNL d   1      38.003  26.627  13.064 -0.43 -0.00    -0.021 A 
DOCKED: ATOM     12  C   UNL d   1      37.416  27.843  12.777 -0.49 +0.00    +0.000 A 
DOCKED: ATOM     13  C   UNL d   1      38.058  28.779  13.606 -0.32 +0.01    +0.070 A 
DOCKED: ATOM     14  C   UNL d   1      37.708  25.308  12.378 -0.30 +0.01    +0.052 C 
DOCKED: ATOM     15  C   UNL d   1      38.361  31.104  14.447 -0.36 +0.01    +0.066 A 
DOCKED: ATOM     16  C   UNL d   1      37.937  32.421  14.575 -0.38 -0.00    -0.021 A 
DOCKED: ATOM     17  C   UNL d   1      38.854  33.059  15.384 -0.42 +0.00    +0.000 A 
DOCKED: ATOM     18  C   UNL d   1      39.819  32.116  15.729 -0.36 +0.01    +0.070 A 
DOCKED: ATOM     19  C   UNL d   1      36.733  33.064  13.942 -0.42 +0.00    +0.052 C 
DOCKED: ATOM     20  C   UNL d   1      41.890  31.411  16.940 -0.38 +0.01    +0.066 A 
DOCKED: ATOM     21  C   UNL d   1      43.102  31.717  17.575 -0.30 -0.00    -0.025 A 
DOCKED: ATOM     22  C   UNL d   1      43.710  30.506  17.835 -0.30 -0.01    -0.021 A 
DOCKED: ATOM     23  C   UNL d   1      42.852  29.514  17.345 -0.24 +0.02    +0.066 A 
DOCKED: ATOM     24  C   UNL d   1      43.670  33.075  17.919 -0.32 +0.01    +0.051 C 
DOCKED: ATOM     25  N   UNL d   1      41.254  27.374  15.934 -0.25 -0.05    -0.248 N 
DOCKED: ATOM     26  N   UNL d   1      39.005  28.190  14.376 -0.05 -0.07    -0.248 N 
DOCKED: ATOM     27  N   UNL d   1      39.493  30.903  15.189 -0.18 -0.05    -0.248 N 
DOCKED: ATOM     28  N   UNL d   1      41.765  30.074  16.760 -0.23 -0.05    -0.248 N 
DOCKED: ATOM     29 FE   UNL d   1      40.385  29.134  15.569 -0.09 +0.00    +0.000 Fe
DOCKED: ENDROOT
DOCKED: BRANCH   6  30
DOCKED: ATOM     30  C   UNL d   1      43.532  25.117  17.738 -0.29 +0.02    +0.052 C 
DOCKED: BRANCH  30  31
DOCKED: ATOM     31  C   UNL d   1      42.991  24.855  19.139 -0.34 +0.04    +0.115 C 
DOCKED: BRANCH  31  32
DOCKED: ATOM     32  C   UNL d   1      43.735  25.678  20.154 -0.27 +0.08    +0.139 C 
DOCKED: ATOM     33  O   UNL d   1      44.477  25.145  20.966 +0.00 -0.49    -0.650 OA
DOCKED: BRANCH  32  34
DOCKED: ATOM     34  O   UNL d   1      43.588  27.014  20.177 -0.01 -0.64    -0.776 OA
DOCKED: ATOM     35  H   UNL d   1      44.316  27.571  19.866 +0.06 +0.13    +0.167 HD
DOCKED: ENDBRANCH  32  34
DOCKED: ENDBRANCH  31  32
DOCKED: ENDBRANCH  30  31
DOCKED: ENDBRANCH   6  30
DOCKED: BRANCH  22  36
DOCKED: ATOM     36  C   UNL d   1      45.060  30.318  18.473 -0.25 +0.02    +0.052 C 
DOCKED: BRANCH  36  37
DOCKED: ATOM     37  C   UNL d   1      44.892  29.735  19.868 -0.15 +0.08    +0.115 C 
DOCKED: BRANCH  37  38
DOCKED: ATOM     38  C   UNL d   1      46.103  28.941  20.270 -0.13 +0.12    +0.139 C 
DOCKED: ATOM     39  O   UNL d   1      47.193  29.164  19.764 +0.01 -0.35    -0.650 OA
DOCKED: BRANCH  38  40
DOCKED: ATOM     40  O   UNL d   1      45.993  27.971  21.195 -0.37 -1.32    -0.776 OA
DOCKED: ATOM     41  H   UNL d   1      45.454  27.192  20.997 +0.03 +0.25    +0.167 HD
DOCKED: ENDBRANCH  38  40
DOCKED: ENDBRANCH  37  38
DOCKED: ENDBRANCH  36  37
DOCKED: ENDBRANCH  22  36
DOCKED: BRANCH  12  42
DOCKED: ATOM     42  C   UNL d   1      36.336  28.055  11.764 -0.69 +0.00    +0.004 C 
DOCKED: ATOM     43  C   UNL d   1      35.193  28.671  12.093 -0.63 +0.00    +0.012 C 
DOCKED: ENDBRANCH  12  42
DOCKED: BRANCH  17  44
DOCKED: ATOM     44  C   UNL d   1      38.798  34.474  15.817 -0.55 +0.00    +0.004 C 
DOCKED: ATOM     45  C   UNL d   1      39.140  35.460  14.981 -0.61 +0.00    +0.012 C 
DOCKED: ENDBRANCH  17  44
DOCKED: TORSDOF 10
DOCKED: TER
DOCKED: ENDMDL
________________________________________________________________________________


	BEGINNING GENETIC ALGORITHM DOCKING 17 of 100
Run: 17 Seed: 1458923586 586298984 [ Run 17 of 100 GA/GALS ]
Beginning LAMARCKIAN GENETIC ALGORITHM (LGA), with a maximum of 25000000 energy evaluations.

Final-Value: -15.349


	FINAL GENETIC ALGORITHM DOCKED STATE
	_______________________________________________


Detailed state:  trans 8.073 34.488 -0.957 quatxyzw 0.391021 0.202261 0.275971 0.854420 center -0.174 -0.001 -0.047 ntor 10 -139.7881 -167.4039 65.2574 -146.1234 -180.0000 -156.5550 -80.3334 -98.7730 171.3802 -19.1085
State:	  8.073  34.488  -0.957   0.753  0.389  0.531 62.609   -139.79 -167.40   65.26 -146.12 -180.00 -156.56  -80.33  -98.77  171.38  -19.11

DOCKED: MODEL       17
DOCKED: USER    Run = 17
DOCKED: USER    DPF = D:/Protein_go_brrr/autodock/final/6BB5/heme_Fe/dock.dpf
DOCKED: USER  
DOCKED: USER    Estimated Free Energy of Binding    =  -10.57 kcal/mol  [=(1)+(2)+(3)-(4)]
DOCKED: USER    Estimated Inhibition Constant, Ki   =   18.01 nM (nanomolar)  [Temperature = 298.15 K]
DOCKED: USER    
DOCKED: USER    (1) Final Intermolecular Energy     =  -13.55 kcal/mol
DOCKED: USER        vdW + Hbond + desolv Energy     =  -12.37 kcal/mol
DOCKED: USER        Electrostatic Energy            =   -1.18 kcal/mol
DOCKED: USER    (2) Final Total Internal Energy     =   -1.80 kcal/mol
DOCKED: USER    (3) Torsional Free Energy           =   +2.98 kcal/mol
DOCKED: USER    (4) Unbound System's Energy  [=(2)] =   -1.80 kcal/mol
DOCKED: USER    
DOCKED: USER    
DOCKED: USER    NEWDPF move heme_Fe_opt.pdbqt
DOCKED: USER    NEWDPF about -0.174000 -0.001000 -0.047000
DOCKED: USER    NEWDPF tran0 8.072812 34.488443 -0.957024
DOCKED: USER    NEWDPF quaternion0 0.391021 0.202261 0.275971 0.854420
DOCKED: USER    NEWDPF axisangle0 0.752567 0.389275 0.531139 62.608596
DOCKED: USER    NEWDPF quat0 0.752567 0.389275 0.531139 62.608596
DOCKED: USER    NEWDPF dihe0 -139.79 -167.40 65.26 -146.12 -180.00 -156.56 -80.33 -98.77 171.38 -19.11 
DOCKED: USER  keepresnum = 1 
DOCKED: USER  
DOCKED: REMARK  10 active torsions:
DOCKED: REMARK  status: ('A' for Active; 'I' for Inactive)
DOCKED: REMARK    1  A    between atoms: C_6  and  C_10 
DOCKED: REMARK    2  A    between atoms: C_10  and  C_11 
DOCKED: REMARK    3  A    between atoms: C_11  and  C_12 
DOCKED: REMARK    4  A    between atoms: C_12  and  O_14 
DOCKED: REMARK    5  A    between atoms: C_17  and  C_20 
DOCKED: REMARK    6  A    between atoms: C_24  and  C_27 
DOCKED: REMARK    7  A    between atoms: C_31  and  C_34 
DOCKED: REMARK    8  A    between atoms: C_34  and  C_35 
DOCKED: REMARK    9  A    between atoms: C_35  and  C_36 
DOCKED: REMARK   10  A    between atoms: C_36  and  O_38 
DOCKED: USER                              x       y       z     vdW  Elec       q    Type
DOCKED: USER                           _______ _______ _______ _____ _____    ______ ____
DOCKED: ROOT
DOCKED: ATOM      1  C   UNL d   1       6.449  35.492  -1.711 -0.12 +0.01    +0.064 C 
DOCKED: ATOM      2  C   UNL d   1       7.178  32.395   2.072 -0.40 +0.00    +0.064 A 
DOCKED: ATOM      3  C   UNL d   1      11.911  33.077   1.629 -0.37 +0.00    +0.064 C 
DOCKED: ATOM      4  C   UNL d   1      11.234  35.996  -2.100 -0.47 +0.00    +0.064 C 
DOCKED: ATOM      5  C   UNL d   1       6.220  34.492  -0.659 -0.20 +0.01    +0.066 A 
DOCKED: ATOM      6  C   UNL d   1       4.983  33.964  -0.327 -0.28 -0.00    -0.021 A 
DOCKED: ATOM      7  C   UNL d   1       5.186  33.107   0.726 -0.27 -0.00    -0.025 A 
DOCKED: ATOM      8  C   UNL d   1       6.540  33.144   0.996 -0.33 +0.01    +0.066 A 
DOCKED: ATOM      9  C   UNL d   1       4.136  32.288   1.413 -0.12 +0.00    +0.051 C 
DOCKED: ATOM     10  C   UNL d   1       8.489  32.369   2.317 -0.38 +0.00    +0.066 A 
DOCKED: ATOM     11  C   UNL d   1       9.057  31.733   3.423 -0.40 -0.00    -0.021 A 
DOCKED: ATOM     12  C   UNL d   1      10.421  31.930   3.328 -0.39 +0.00    +0.000 A 
DOCKED: ATOM     13  C   UNL d   1      10.614  32.690   2.161 -0.36 +0.00    +0.070 A 
DOCKED: ATOM     14  C   UNL d   1       8.332  31.031   4.554 -0.38 -0.00    +0.052 C 
DOCKED: ATOM     15  C   UNL d   1      12.100  33.852   0.536 -0.36 +0.00    +0.066 A 
DOCKED: ATOM     16  C   UNL d   1      13.355  34.117   0.002 -0.45 -0.00    -0.021 A 
DOCKED: ATOM     17  C   UNL d   1      13.163  34.962  -1.072 -0.45 +0.00    +0.000 A 
DOCKED: ATOM     18  C   UNL d   1      11.793  35.196  -1.166 -0.34 +0.01    +0.070 A 
DOCKED: ATOM     19  C   UNL d   1      14.687  33.619   0.495 -0.60 +0.00    +0.052 C 
DOCKED: ATOM     20  C   UNL d   1       9.793  36.217  -2.267 -0.39 +0.00    +0.066 A 
DOCKED: ATOM     21  C   UNL d   1       9.213  37.190  -3.094 -0.41 +0.00    -0.025 A 
DOCKED: ATOM     22  C   UNL d   1       7.849  37.020  -2.977 -0.34 -0.00    -0.021 A 
DOCKED: ATOM     23  C   UNL d   1       7.651  35.960  -2.084 -0.20 +0.01    +0.066 A 
DOCKED: ATOM     24  C   UNL d   1       9.897  38.231  -3.948 -0.34 -0.01    +0.051 C 
DOCKED: ATOM     25  N   UNL d   1       7.168  33.981   0.146 -0.11 -0.03    -0.248 N 
DOCKED: ATOM     26  N   UNL d   1       9.436  32.965   1.550 -0.18 -0.02    -0.248 N 
DOCKED: ATOM     27  N   UNL d   1      11.135  34.479  -0.205 +0.05 -0.04    -0.248 N 
DOCKED: ATOM     28  N   UNL d   1       8.840  35.503  -1.620 -0.24 -0.05    -0.248 N 
DOCKED: ATOM     29 FE   UNL d   1       9.139  34.235  -0.036 -0.07 +0.00    +0.000 Fe
DOCKED: ENDROOT
DOCKED: BRANCH   6  30
DOCKED: ATOM     30  C   UNL d   1       3.677  34.242  -0.988 -0.21 +0.01    +0.052 C 
DOCKED: BRANCH  30  31
DOCKED: ATOM     31  C   UNL d   1       2.877  35.269  -0.195 -0.19 +0.05    +0.115 C 
DOCKED: BRANCH  31  32
DOCKED: ATOM     32  C   UNL d   1       3.013  36.633  -0.812 -0.17 +0.09    +0.139 C 
DOCKED: ATOM     33  O   UNL d   1       2.444  37.599  -0.323 -0.31 -0.91    -0.650 OA
DOCKED: BRANCH  32  34
DOCKED: ATOM     34  O   UNL d   1       3.766  36.803  -1.912 +0.05 -0.29    -0.776 OA
DOCKED: ATOM     35  H   UNL d   1       3.735  36.134  -2.611 +0.04 +0.04    +0.167 HD
DOCKED: ENDBRANCH  32  34
DOCKED: ENDBRANCH  31  32
DOCKED: ENDBRANCH  30  31
DOCKED: ENDBRANCH   6  30
DOCKED: BRANCH  22  36
DOCKED: ATOM     36  C   UNL d   1       6.797  37.862  -3.649 -0.26 +0.00    +0.052 C 
DOCKED: BRANCH  36  37
DOCKED: ATOM     37  C   UNL d   1       6.663  37.450  -5.108 -0.18 +0.00    +0.115 C 
DOCKED: BRANCH  37  38
DOCKED: ATOM     38  C   UNL d   1       5.817  36.216  -5.243 -0.20 +0.01    +0.139 C 
DOCKED: ATOM     39  O   UNL d   1       5.923  35.489  -6.220 -0.05 -0.04    -0.650 OA
DOCKED: BRANCH  38  40
DOCKED: ATOM     40  O   UNL d   1       4.927  35.903  -4.284 +0.04 -0.08    -0.776 OA
DOCKED: ATOM     41  H   UNL d   1       4.713  36.563  -3.609 +0.05 +0.03    +0.167 HD
DOCKED: ENDBRANCH  38  40
DOCKED: ENDBRANCH  37  38
DOCKED: ENDBRANCH  36  37
DOCKED: ENDBRANCH  22  36
DOCKED: BRANCH  12  42
DOCKED: ATOM     42  C   UNL d   1      11.429  31.427   4.312 -0.39 +0.00    +0.004 C 
DOCKED: ATOM     43  C   UNL d   1      12.315  30.483   3.970 -0.62 +0.00    +0.012 C 
DOCKED: ENDBRANCH  12  42
DOCKED: BRANCH  17  44
DOCKED: ATOM     44  C   UNL d   1      14.219  35.494  -1.963 -0.41 +0.00    +0.004 C 
DOCKED: ATOM     45  C   UNL d   1      14.801  36.670  -1.709 -0.65 +0.00    +0.012 C 
DOCKED: ENDBRANCH  17  44
DOCKED: TORSDOF 10
DOCKED: TER
DOCKED: ENDMDL
________________________________________________________________________________


	BEGINNING GENETIC ALGORITHM DOCKING 18 of 100
Run: 18 Seed: 588156542 1505538247 [ Run 18 of 100 GA/GALS ]
Beginning LAMARCKIAN GENETIC ALGORITHM (LGA), with a maximum of 25000000 energy evaluations.

Final-Value: -17.123


	FINAL GENETIC ALGORITHM DOCKED STATE
	_______________________________________________


Detailed state:  trans 41.211 28.292 16.542 quatxyzw -0.151824 -0.925118 -0.083473 0.337844 center -0.174 -0.001 -0.047 ntor 10 103.0948 113.8149 76.8186 -123.6660 -108.4239 90.6723 31.5003 -6.1271 -1.1818 27.2276
State:	 41.211  28.292  16.542  -0.161 -0.983 -0.089 140.509    103.09  113.81   76.82 -123.67 -108.42   90.67   31.50   -6.13   -1.18   27.23

DOCKED: MODEL       18
DOCKED: USER    Run = 18
DOCKED: USER    DPF = D:/Protein_go_brrr/autodock/final/6BB5/heme_Fe/dock.dpf
DOCKED: USER  
DOCKED: USER    Estimated Free Energy of Binding    =  -12.62 kcal/mol  [=(1)+(2)+(3)-(4)]
DOCKED: USER    Estimated Inhibition Constant, Ki   =  560.85 pM (picomolar)  [Temperature = 298.15 K]
DOCKED: USER    
DOCKED: USER    (1) Final Intermolecular Energy     =  -15.60 kcal/mol
DOCKED: USER        vdW + Hbond + desolv Energy     =  -14.02 kcal/mol
DOCKED: USER        Electrostatic Energy            =   -1.58 kcal/mol
DOCKED: USER    (2) Final Total Internal Energy     =   -1.52 kcal/mol
DOCKED: USER    (3) Torsional Free Energy           =   +2.98 kcal/mol
DOCKED: USER    (4) Unbound System's Energy  [=(2)] =   -1.52 kcal/mol
DOCKED: USER    
DOCKED: USER    
DOCKED: USER    NEWDPF move heme_Fe_opt.pdbqt
DOCKED: USER    NEWDPF about -0.174000 -0.001000 -0.047000
DOCKED: USER    NEWDPF tran0 41.211441 28.292142 16.541855
DOCKED: USER    NEWDPF quaternion0 -0.151824 -0.925118 -0.083473 0.337844
DOCKED: USER    NEWDPF axisangle0 -0.161309 -0.982911 -0.088688 140.508808
DOCKED: USER    NEWDPF quat0 -0.161309 -0.982911 -0.088688 140.508808
DOCKED: USER    NEWDPF dihe0 103.09 113.81 76.82 -123.67 -108.42 90.67 31.50 -6.13 -1.18 27.23 
DOCKED: USER  keepresnum = 1 
DOCKED: USER  
DOCKED: REMARK  10 active torsions:
DOCKED: REMARK  status: ('A' for Active; 'I' for Inactive)
DOCKED: REMARK    1  A    between atoms: C_6  and  C_10 
DOCKED: REMARK    2  A    between atoms: C_10  and  C_11 
DOCKED: REMARK    3  A    between atoms: C_11  and  C_12 
DOCKED: REMARK    4  A    between atoms: C_12  and  O_14 
DOCKED: REMARK    5  A    between atoms: C_17  and  C_20 
DOCKED: REMARK    6  A    between atoms: C_24  and  C_27 
DOCKED: REMARK    7  A    between atoms: C_31  and  C_34 
DOCKED: REMARK    8  A    between atoms: C_34  and  C_35 
DOCKED: REMARK    9  A    between atoms: C_35  and  C_36 
DOCKED: REMARK   10  A    between atoms: C_36  and  O_38 
DOCKED: USER                              x       y       z     vdW  Elec       q    Type
DOCKED: USER                           _______ _______ _______ _____ _____    ______ ____
DOCKED: ROOT
DOCKED: ATOM      1  C   UNL d   1      42.982  27.596  17.312 -0.16 +0.02    +0.064 C 
DOCKED: ATOM      2  C   UNL d   1      39.459  25.692  14.414 -0.40 +0.01    +0.064 A 
DOCKED: ATOM      3  C   UNL d   1      37.742  30.122  13.709 -0.40 +0.01    +0.064 C 
DOCKED: ATOM      4  C   UNL d   1      41.079  31.974  16.594 -0.47 +0.01    +0.064 C 
DOCKED: ATOM      5  C   UNL d   1      42.099  26.640  16.628 -0.30 +0.01    +0.066 A 
DOCKED: ATOM      6  C   UNL d   1      42.219  25.262  16.700 -0.35 -0.00    -0.021 A 
DOCKED: ATOM      7  C   UNL d   1      41.243  24.735  15.892 -0.40 -0.00    -0.025 A 
DOCKED: ATOM      8  C   UNL d   1      40.563  25.812  15.358 -0.39 +0.01    +0.066 A 
DOCKED: ATOM      9  C   UNL d   1      40.974  23.278  15.669 -0.52 +0.00    +0.051 C 
DOCKED: ATOM     10  C   UNL d   1      38.750  26.713  13.928 -0.37 +0.01    +0.066 A 
DOCKED: ATOM     11  C   UNL d   1      37.774  26.576  12.938 -0.44 -0.00    -0.021 A 
DOCKED: ATOM     12  C   UNL d   1      37.275  27.842  12.705 -0.50 +0.00    +0.000 A 
DOCKED: ATOM     13  C   UNL d   1      37.985  28.695  13.567 -0.34 +0.01    +0.070 A 
DOCKED: ATOM     14  C   UNL d   1      37.383  25.311  12.201 -0.32 +0.01    +0.052 C 
DOCKED: ATOM     15  C   UNL d   1      38.458  30.956  14.499 -0.35 +0.01    +0.066 A 
DOCKED: ATOM     16  C   UNL d   1      38.131  32.294  14.683 -0.38 -0.00    -0.021 A 
DOCKED: ATOM     17  C   UNL d   1      39.094  32.831  15.512 -0.41 +0.00    +0.000 A 
DOCKED: ATOM     18  C   UNL d   1      39.990  31.807  15.812 -0.35 +0.01    +0.070 A 
DOCKED: ATOM     19  C   UNL d   1      36.973  33.047  14.084 -0.42 +0.00    +0.052 C 
DOCKED: ATOM     20  C   UNL d   1      42.009  30.906  16.980 -0.35 +0.01    +0.066 A 
DOCKED: ATOM     21  C   UNL d   1      43.242  31.099  17.619 -0.31 -0.01    -0.025 A 
DOCKED: ATOM     22  C   UNL d   1      43.761  29.837  17.826 -0.29 -0.01    -0.021 A 
DOCKED: ATOM     23  C   UNL d   1      42.833  28.930  17.302 -0.14 +0.02    +0.066 A 
DOCKED: ATOM     24  C   UNL d   1      43.907  32.397  18.015 -0.31 +0.01    +0.051 C 
DOCKED: ATOM     25  N   UNL d   1      41.080  26.970  15.815 -0.27 -0.05    -0.248 N 
DOCKED: ATOM     26  N   UNL d   1      38.891  28.009  14.306 -0.11 -0.06    -0.248 N 
DOCKED: ATOM     27  N   UNL d   1      39.576  30.644  15.225 -0.01 -0.06    -0.248 N 
DOCKED: ATOM     28  N   UNL d   1      41.787  29.590  16.747 -0.21 -0.05    -0.248 N 
DOCKED: ATOM     29 FE   UNL d   1      40.339  28.801  15.527 -0.09 +0.00    +0.000 Fe
DOCKED: ENDROOT
DOCKED: BRANCH   6  30
DOCKED: ATOM     30  C   UNL d   1      43.197  24.483  17.512 -0.33 +0.01    +0.052 C 
DOCKED: BRANCH  30  31
DOCKED: ATOM     31  C   UNL d   1      42.650  24.220  18.910 -0.38 +0.03    +0.115 C 
DOCKED: BRANCH  31  32
DOCKED: ATOM     32  C   UNL d   1      43.770  24.165  19.912 -0.27 +0.06    +0.139 C 
DOCKED: ATOM     33  O   UNL d   1      44.101  23.102  20.419 -0.53 -0.33    -0.650 OA
DOCKED: BRANCH  32  34
DOCKED: ATOM     34  O   UNL d   1      44.421  25.288  20.259 +0.07 -0.49    -0.776 OA
DOCKED: ATOM     35  H   UNL d   1      45.076  25.658  19.651 +0.06 +0.10    +0.167 HD
DOCKED: ENDBRANCH  32  34
DOCKED: ENDBRANCH  31  32
DOCKED: ENDBRANCH  30  31
DOCKED: ENDBRANCH   6  30
DOCKED: BRANCH  22  36
DOCKED: ATOM     36  C   UNL d   1      45.098  29.527  18.447 -0.24 +0.02    +0.052 C 
DOCKED: BRANCH  36  37
DOCKED: ATOM     37  C   UNL d   1      44.907  28.597  19.636 -0.22 +0.08    +0.115 C 
DOCKED: BRANCH  37  38
DOCKED: ATOM     38  C   UNL d   1      46.231  28.133  20.175 -0.13 +0.12    +0.139 C 
DOCKED: ATOM     39  O   UNL d   1      46.801  28.759  21.056 -0.33 -0.72    -0.650 OA
DOCKED: BRANCH  38  40
DOCKED: ATOM     40  O   UNL d   1      46.803  27.019  19.683 +0.05 -0.49    -0.776 OA
DOCKED: ATOM     41  H   UNL d   1      46.375  26.165  19.836 +0.04 +0.11    +0.167 HD
DOCKED: ENDBRANCH  38  40
DOCKED: ENDBRANCH  37  38
DOCKED: ENDBRANCH  36  37
DOCKED: ENDBRANCH  22  36
DOCKED: BRANCH  12  42
DOCKED: ATOM     42  C   UNL d   1      36.210  28.172  11.708 -0.69 +0.00    +0.004 C 
DOCKED: ATOM     43  C   UNL d   1      35.095  28.816  12.078 -0.61 +0.00    +0.012 C 
DOCKED: ENDBRANCH  12  42
DOCKED: BRANCH  17  44
DOCKED: ATOM     44  C   UNL d   1      39.142  34.227  16.003 -0.56 +0.00    +0.004 C 
DOCKED: ATOM     45  C   UNL d   1      39.416  35.236  15.170 -0.59 +0.00    +0.012 C 
DOCKED: ENDBRANCH  17  44
DOCKED: TORSDOF 10
DOCKED: TER
DOCKED: ENDMDL
________________________________________________________________________________


	BEGINNING GENETIC ALGORITHM DOCKING 19 of 100
Run: 19 Seed: 294643630 1397667483 [ Run 19 of 100 GA/GALS ]
Beginning LAMARCKIAN GENETIC ALGORITHM (LGA), with a maximum of 25000000 energy evaluations.

Final-Value: -18.102


	FINAL GENETIC ALGORITHM DOCKED STATE
	_______________________________________________


Detailed state:  trans 41.205 28.465 16.548 quatxyzw 0.146523 0.927438 0.080861 -0.334442 center -0.174 -0.001 -0.047 ntor 10 94.6422 -22.9385 85.3271 -116.9182 -93.4568 35.9671 33.1237 -84.6562 13.0545 -3.8394
State:	 41.205  28.465  16.548   0.155  0.984  0.086 -140.923     94.64  -22.94   85.33 -116.92  -93.46   35.97   33.12  -84.66   13.05   -3.84

DOCKED: MODEL       19
DOCKED: USER    Run = 19
DOCKED: USER    DPF = D:/Protein_go_brrr/autodock/final/6BB5/heme_Fe/dock.dpf
DOCKED: USER  
DOCKED: USER    Estimated Free Energy of Binding    =  -13.13 kcal/mol  [=(1)+(2)+(3)-(4)]
DOCKED: USER    Estimated Inhibition Constant, Ki   =  236.48 pM (picomolar)  [Temperature = 298.15 K]
DOCKED: USER    
DOCKED: USER    (1) Final Intermolecular Energy     =  -16.12 kcal/mol
DOCKED: USER        vdW + Hbond + desolv Energy     =  -14.08 kcal/mol
DOCKED: USER        Electrostatic Energy            =   -2.03 kcal/mol
DOCKED: USER    (2) Final Total Internal Energy     =   -1.99 kcal/mol
DOCKED: USER    (3) Torsional Free Energy           =   +2.98 kcal/mol
DOCKED: USER    (4) Unbound System's Energy  [=(2)] =   -1.99 kcal/mol
DOCKED: USER    
DOCKED: USER    
DOCKED: USER    NEWDPF move heme_Fe_opt.pdbqt
DOCKED: USER    NEWDPF about -0.174000 -0.001000 -0.047000
DOCKED: USER    NEWDPF tran0 41.204818 28.465340 16.548057
DOCKED: USER    NEWDPF quaternion0 0.146523 0.927438 0.080861 -0.334442
DOCKED: USER    NEWDPF axisangle0 0.155475 0.984106 0.085801 -140.922797
DOCKED: USER    NEWDPF quat0 0.155475 0.984106 0.085801 -140.922797
DOCKED: USER    NEWDPF dihe0 94.64 -22.94 85.33 -116.92 -93.46 35.97 33.12 -84.66 13.05 -3.84 
DOCKED: USER  keepresnum = 1 
DOCKED: USER  
DOCKED: REMARK  10 active torsions:
DOCKED: REMARK  status: ('A' for Active; 'I' for Inactive)
DOCKED: REMARK    1  A    between atoms: C_6  and  C_10 
DOCKED: REMARK    2  A    between atoms: C_10  and  C_11 
DOCKED: REMARK    3  A    between atoms: C_11  and  C_12 
DOCKED: REMARK    4  A    between atoms: C_12  and  O_14 
DOCKED: REMARK    5  A    between atoms: C_17  and  C_20 
DOCKED: REMARK    6  A    between atoms: C_24  and  C_27 
DOCKED: REMARK    7  A    between atoms: C_31  and  C_34 
DOCKED: REMARK    8  A    between atoms: C_34  and  C_35 
DOCKED: REMARK    9  A    between atoms: C_35  and  C_36 
DOCKED: REMARK   10  A    between atoms: C_36  and  O_38 
DOCKED: USER                              x       y       z     vdW  Elec       q    Type
DOCKED: USER                           _______ _______ _______ _____ _____    ______ ____
DOCKED: ROOT
DOCKED: ATOM      1  C   UNL d   1      42.987  27.792  17.309 -0.16 +0.02    +0.064 C 
DOCKED: ATOM      2  C   UNL d   1      39.460  25.833  14.454 -0.40 +0.01    +0.064 A 
DOCKED: ATOM      3  C   UNL d   1      37.696  30.241  13.728 -0.38 +0.01    +0.064 C 
DOCKED: ATOM      4  C   UNL d   1      41.038  32.146  16.573 -0.48 +0.01    +0.064 C 
DOCKED: ATOM      5  C   UNL d   1      42.108  26.823  16.640 -0.28 +0.01    +0.066 A 
DOCKED: ATOM      6  C   UNL d   1      42.242  25.446  16.722 -0.35 -0.00    -0.021 A 
DOCKED: ATOM      7  C   UNL d   1      41.264  24.903  15.926 -0.40 -0.00    -0.025 A 
DOCKED: ATOM      8  C   UNL d   1      40.571  25.970  15.388 -0.39 +0.01    +0.066 A 
DOCKED: ATOM      9  C   UNL d   1      41.007  23.443  15.715 -0.52 +0.00    +0.051 C 
DOCKED: ATOM     10  C   UNL d   1      38.738  26.843  13.966 -0.37 +0.01    +0.066 A 
DOCKED: ATOM     11  C   UNL d   1      37.756  26.689  12.985 -0.44 -0.00    -0.021 A 
DOCKED: ATOM     12  C   UNL d   1      37.243  27.949  12.745 -0.50 +0.00    +0.000 A 
DOCKED: ATOM     13  C   UNL d   1      37.952  28.815  13.595 -0.34 +0.01    +0.070 A 
DOCKED: ATOM     14  C   UNL d   1      37.371  25.415  12.260 -0.32 +0.01    +0.052 C 
DOCKED: ATOM     15  C   UNL d   1      38.411  31.088  14.506 -0.36 +0.01    +0.066 A 
DOCKED: ATOM     16  C   UNL d   1      38.072  32.424  14.683 -0.38 -0.00    -0.021 A 
DOCKED: ATOM     17  C   UNL d   1      39.037  32.976  15.500 -0.42 +0.00    +0.000 A 
DOCKED: ATOM     18  C   UNL d   1      39.945  31.963  15.800 -0.36 +0.01    +0.070 A 
DOCKED: ATOM     19  C   UNL d   1      36.903  33.161  14.087 -0.43 +0.00    +0.052 C 
DOCKED: ATOM     20  C   UNL d   1      41.981  31.090  16.960 -0.36 +0.01    +0.066 A 
DOCKED: ATOM     21  C   UNL d   1      43.218  31.299  17.588 -0.29 -0.01    -0.025 A 
DOCKED: ATOM     22  C   UNL d   1      43.750  30.044  17.800 -0.29 -0.01    -0.021 A 
DOCKED: ATOM     23  C   UNL d   1      42.826  29.124  17.290 -0.18 +0.02    +0.066 A 
DOCKED: ATOM     24  C   UNL d   1      43.873  32.606  17.968 -0.31 +0.01    +0.051 C 
DOCKED: ATOM     25  N   UNL d   1      41.081  27.136  15.833 -0.25 -0.05    -0.248 N 
DOCKED: ATOM     26  N   UNL d   1      38.870  28.143  14.333 -0.09 -0.06    -0.248 N 
DOCKED: ATOM     27  N   UNL d   1      39.537  30.792  15.226 -0.12 -0.05    -0.248 N 
DOCKED: ATOM     28  N   UNL d   1      41.770  29.770  16.739 -0.22 -0.05    -0.248 N 
DOCKED: ATOM     29 FE   UNL d   1      40.320  28.958  15.536 -0.09 +0.00    +0.000 Fe
DOCKED: ENDROOT
DOCKED: BRANCH   6  30
DOCKED: ATOM     30  C   UNL d   1      43.233  24.683  17.532 -0.32 +0.01    +0.052 C 
DOCKED: BRANCH  30  31
DOCKED: ATOM     31  C   UNL d   1      42.585  24.123  18.793 -0.39 +0.03    +0.115 C 
DOCKED: BRANCH  31  32
DOCKED: ATOM     32  C   UNL d   1      43.574  24.092  19.924 -0.28 +0.06    +0.139 C 
DOCKED: ATOM     33  O   UNL d   1      44.230  23.085  20.152 -0.53 -0.32    -0.650 OA
DOCKED: BRANCH  32  34
DOCKED: ATOM     34  O   UNL d   1      43.748  25.176  20.699 +0.03 -0.50    -0.776 OA
DOCKED: ATOM     35  H   UNL d   1      44.365  25.864  20.412 +0.06 +0.13    +0.167 HD
DOCKED: ENDBRANCH  32  34
DOCKED: ENDBRANCH  31  32
DOCKED: ENDBRANCH  30  31
DOCKED: ENDBRANCH   6  30
DOCKED: BRANCH  22  36
DOCKED: ATOM     36  C   UNL d   1      45.094  29.751  18.413 -0.24 +0.02    +0.052 C 
DOCKED: BRANCH  36  37
DOCKED: ATOM     37  C   UNL d   1      44.938  29.534  19.911 -0.16 +0.08    +0.115 C 
DOCKED: BRANCH  37  38
DOCKED: ATOM     38  C   UNL d   1      44.793  28.073  20.231 -0.17 +0.14    +0.139 C 
DOCKED: ATOM     39  O   UNL d   1      45.406  27.229  19.594 +0.01 -0.46    -0.650 OA
DOCKED: BRANCH  38  40
DOCKED: ATOM     40  O   UNL d   1      43.979  27.682  21.228 -0.20 -1.38    -0.776 OA
DOCKED: ATOM     41  H   UNL d   1      43.626  26.781  21.220 +0.04 +0.23    +0.167 HD
DOCKED: ENDBRANCH  38  40
DOCKED: ENDBRANCH  37  38
DOCKED: ENDBRANCH  36  37
DOCKED: ENDBRANCH  22  36
DOCKED: BRANCH  12  42
DOCKED: ATOM     42  C   UNL d   1      36.168  28.261  11.754 -0.69 +0.00    +0.004 C 
DOCKED: ATOM     43  C   UNL d   1      35.130  29.041  12.085 -0.61 +0.00    +0.012 C 
DOCKED: ENDBRANCH  12  42
DOCKED: BRANCH  17  44
DOCKED: ATOM     44  C   UNL d   1      39.076  34.376  15.979 -0.57 +0.00    +0.004 C 
DOCKED: ATOM     45  C   UNL d   1      39.200  35.391  15.118 -0.61 +0.00    +0.012 C 
DOCKED: ENDBRANCH  17  44
DOCKED: TORSDOF 10
DOCKED: TER
DOCKED: ENDMDL
________________________________________________________________________________


	BEGINNING GENETIC ALGORITHM DOCKING 20 of 100
Run: 20 Seed: 1261444689 630951200 [ Run 20 of 100 GA/GALS ]
Beginning LAMARCKIAN GENETIC ALGORITHM (LGA), with a maximum of 25000000 energy evaluations.

Final-Value: -13.080


	FINAL GENETIC ALGORITHM DOCKED STATE
	_______________________________________________


Detailed state:  trans 7.822 34.058 -0.502 quatxyzw -0.397312 -0.165891 -0.221022 -0.875084 center -0.174 -0.001 -0.047 ntor 10 -94.1691 -108.1192 65.1244 -153.3032 78.9242 118.6610 -56.6008 112.5931 -176.9235 17.3587
State:	  7.822  34.058  -0.502  -0.821 -0.343 -0.457 -57.890    -94.17 -108.12   65.12 -153.30   78.92  118.66  -56.60  112.59 -176.92   17.36

DOCKED: MODEL       20
DOCKED: USER    Run = 20
DOCKED: USER    DPF = D:/Protein_go_brrr/autodock/final/6BB5/heme_Fe/dock.dpf
DOCKED: USER  
DOCKED: USER    Estimated Free Energy of Binding    =   -9.29 kcal/mol  [=(1)+(2)+(3)-(4)]
DOCKED: USER    Estimated Inhibition Constant, Ki   =  155.13 nM (nanomolar)  [Temperature = 298.15 K]
DOCKED: USER    
DOCKED: USER    (1) Final Intermolecular Energy     =  -12.27 kcal/mol
DOCKED: USER        vdW + Hbond + desolv Energy     =  -11.52 kcal/mol
DOCKED: USER        Electrostatic Energy            =   -0.76 kcal/mol
DOCKED: USER    (2) Final Total Internal Energy     =   -0.81 kcal/mol
DOCKED: USER    (3) Torsional Free Energy           =   +2.98 kcal/mol
DOCKED: USER    (4) Unbound System's Energy  [=(2)] =   -0.81 kcal/mol
DOCKED: USER    
DOCKED: USER    
DOCKED: USER    NEWDPF move heme_Fe_opt.pdbqt
DOCKED: USER    NEWDPF about -0.174000 -0.001000 -0.047000
DOCKED: USER    NEWDPF tran0 7.822229 34.057837 -0.501792
DOCKED: USER    NEWDPF quaternion0 -0.397312 -0.165891 -0.221022 -0.875084
DOCKED: USER    NEWDPF axisangle0 -0.820943 -0.342771 -0.456684 -57.890053
DOCKED: USER    NEWDPF quat0 -0.820943 -0.342771 -0.456684 -57.890053
DOCKED: USER    NEWDPF dihe0 -94.17 -108.12 65.12 -153.30 78.92 118.66 -56.60 112.59 -176.92 17.36 
DOCKED: USER  keepresnum = 1 
DOCKED: USER  
DOCKED: REMARK  10 active torsions:
DOCKED: REMARK  status: ('A' for Active; 'I' for Inactive)
DOCKED: REMARK    1  A    between atoms: C_6  and  C_10 
DOCKED: REMARK    2  A    between atoms: C_10  and  C_11 
DOCKED: REMARK    3  A    between atoms: C_11  and  C_12 
DOCKED: REMARK    4  A    between atoms: C_12  and  O_14 
DOCKED: REMARK    5  A    between atoms: C_17  and  C_20 
DOCKED: REMARK    6  A    between atoms: C_24  and  C_27 
DOCKED: REMARK    7  A    between atoms: C_31  and  C_34 
DOCKED: REMARK    8  A    between atoms: C_34  and  C_35 
DOCKED: REMARK    9  A    between atoms: C_35  and  C_36 
DOCKED: REMARK   10  A    between atoms: C_36  and  O_38 
DOCKED: USER                              x       y       z     vdW  Elec       q    Type
DOCKED: USER                           _______ _______ _______ _____ _____    ______ ____
DOCKED: ROOT
DOCKED: ATOM      1  C   UNL d   1       6.052  34.937  -1.053 -0.02 +0.01    +0.064 C 
DOCKED: ATOM      2  C   UNL d   1       7.444  31.907   2.594 -0.43 +0.00    +0.064 A 
DOCKED: ATOM      3  C   UNL d   1      12.030  32.939   1.609 -0.39 +0.00    +0.064 C 
DOCKED: ATOM      4  C   UNL d   1      10.708  35.795  -1.994 -0.44 +0.01    +0.064 C 
DOCKED: ATOM      5  C   UNL d   1       6.021  33.924   0.010 -0.30 +0.01    +0.066 A 
DOCKED: ATOM      6  C   UNL d   1       4.875  33.306   0.480 -0.26 -0.00    -0.021 A 
DOCKED: ATOM      7  C   UNL d   1       5.262  32.467   1.496 -0.16 -0.00    -0.025 A 
DOCKED: ATOM      8  C   UNL d   1       6.632  32.606   1.607 -0.36 +0.00    +0.066 A 
DOCKED: ATOM      9  C   UNL d   1       4.362  31.574   2.295 -0.28 +0.00    +0.051 C 
DOCKED: ATOM     10  C   UNL d   1       8.773  31.978   2.685 -0.41 +0.00    +0.066 A 
DOCKED: ATOM     11  C   UNL d   1       9.513  31.388   3.713 -0.46 -0.00    -0.021 A 
DOCKED: ATOM     12  C   UNL d   1      10.837  31.685   3.461 -0.42 +0.00    +0.000 A 
DOCKED: ATOM     13  C   UNL d   1      10.836  32.456   2.286 -0.36 +0.00    +0.070 A 
DOCKED: ATOM     14  C   UNL d   1       8.978  30.636   4.915 -0.64 -0.00    +0.052 C 
DOCKED: ATOM     15  C   UNL d   1      12.033  33.724   0.506 -0.35 +0.00    +0.066 A 
DOCKED: ATOM     16  C   UNL d   1      13.193  34.081  -0.168 -0.45 -0.00    -0.021 A 
DOCKED: ATOM     17  C   UNL d   1      12.815  34.908  -1.206 -0.45 +0.00    +0.000 A 
DOCKED: ATOM     18  C   UNL d   1      11.430  35.039  -1.137 -0.22 +0.01    +0.070 A 
DOCKED: ATOM     19  C   UNL d   1      14.607  33.684   0.162 -0.58 +0.00    +0.052 C 
DOCKED: ATOM     20  C   UNL d   1       9.245  35.908  -1.991 -0.34 +0.01    +0.066 A 
DOCKED: ATOM     21  C   UNL d   1       8.502  36.834  -2.736 -0.38 -0.00    -0.025 A 
DOCKED: ATOM     22  C   UNL d   1       7.177  36.563  -2.463 -0.19 -0.00    -0.021 A 
DOCKED: ATOM     23  C   UNL d   1       7.164  35.493  -1.561 -0.10 +0.01    +0.066 A 
DOCKED: ATOM     24  C   UNL d   1       9.003  37.923  -3.657 -0.45 -0.00    +0.051 C 
DOCKED: ATOM     25  N   UNL d   1       7.092  33.486   0.695 -0.18 -0.03    -0.248 N 
DOCKED: ATOM     26  N   UNL d   1       9.578  32.643   1.817 -0.25 -0.01    -0.248 N 
DOCKED: ATOM     27  N   UNL d   1      10.943  34.277  -0.112 +0.25 -0.05    -0.248 N 
DOCKED: ATOM     28  N   UNL d   1       8.429  35.126  -1.242 +0.20 -0.06    -0.248 N 
DOCKED: ATOM     29 FE   UNL d   1       9.005  33.886   0.286 -0.07 +0.00    +0.000 Fe
DOCKED: ENDROOT
DOCKED: BRANCH   6  30
DOCKED: ATOM     30  C   UNL d   1       3.483  33.485  -0.022 -0.23 +0.01    +0.052 C 
DOCKED: BRANCH  30  31
DOCKED: ATOM     31  C   UNL d   1       2.801  34.653   0.681 -0.19 +0.04    +0.115 C 
DOCKED: BRANCH  31  32
DOCKED: ATOM     32  C   UNL d   1       2.316  35.662  -0.324 -0.16 +0.07    +0.139 C 
DOCKED: ATOM     33  O   UNL d   1       1.283  35.471  -0.951 +0.00 -0.28    -0.650 OA
DOCKED: BRANCH  32  34
DOCKED: ATOM     34  O   UNL d   1       3.018  36.786  -0.544 -0.01 -0.56    -0.776 OA
DOCKED: ATOM     35  H   UNL d   1       3.744  36.769  -1.183 +0.05 +0.08    +0.167 HD
DOCKED: ENDBRANCH  32  34
DOCKED: ENDBRANCH  31  32
DOCKED: ENDBRANCH  30  31
DOCKED: ENDBRANCH   6  30
DOCKED: BRANCH  22  36
DOCKED: ATOM     36  C   UNL d   1       5.995  37.324  -3.001 -0.22 +0.01    +0.052 C 
DOCKED: BRANCH  36  37
DOCKED: ATOM     37  C   UNL d   1       5.176  36.423  -3.913 -0.16 +0.01    +0.115 C 
DOCKED: BRANCH  37  38
DOCKED: ATOM     38  C   UNL d   1       5.931  36.098  -5.170 -0.21 +0.01    +0.139 C 
DOCKED: ATOM     39  O   UNL d   1       6.221  34.943  -5.445 +0.04 -0.03    -0.650 OA
DOCKED: BRANCH  38  40
DOCKED: ATOM     40  O   UNL d   1       6.300  37.086  -6.006 +0.05 -0.02    -0.776 OA
DOCKED: ATOM     41  H   UNL d   1       7.009  37.688  -5.739 +0.06 -0.00    +0.167 HD
DOCKED: ENDBRANCH  38  40
DOCKED: ENDBRANCH  37  38
DOCKED: ENDBRANCH  36  37
DOCKED: ENDBRANCH  22  36
DOCKED: BRANCH  12  42
DOCKED: ATOM     42  C   UNL d   1      11.988  31.260   4.317 -0.28 +0.00    +0.004 C 
DOCKED: ATOM     43  C   UNL d   1      12.894  30.382   3.867 -0.68 +0.00    +0.012 C 
DOCKED: ENDBRANCH  12  42
DOCKED: BRANCH  17  44
DOCKED: ATOM     44  C   UNL d   1      13.717  35.516  -2.210 -0.48 +0.00    +0.004 C 
DOCKED: ATOM     45  C   UNL d   1      14.123  36.784  -2.087 -0.64 +0.00    +0.012 C 
DOCKED: ENDBRANCH  17  44
DOCKED: TORSDOF 10
DOCKED: TER
DOCKED: ENDMDL
________________________________________________________________________________


	BEGINNING GENETIC ALGORITHM DOCKING 21 of 100
Run: 21 Seed: 2147367509 1995715224 [ Run 21 of 100 GA/GALS ]
Beginning LAMARCKIAN GENETIC ALGORITHM (LGA), with a maximum of 25000000 energy evaluations.

Final-Value: -15.801


	FINAL GENETIC ALGORITHM DOCKED STATE
	_______________________________________________


Detailed state:  trans 8.039 34.472 -0.931 quatxyzw 0.391011 0.187756 0.268390 0.860130 center -0.174 -0.001 -0.047 ntor 10 68.4672 -82.6999 72.5168 -146.6354 -159.9287 179.1488 -79.6207 46.3389 178.8616 -166.6932
State:	  8.039  34.472  -0.931   0.767  0.368  0.526 61.338     68.47  -82.70   72.52 -146.64 -159.93  179.15  -79.62   46.34  178.86 -166.69

DOCKED: MODEL       21
DOCKED: USER    Run = 21
DOCKED: USER    DPF = D:/Protein_go_brrr/autodock/final/6BB5/heme_Fe/dock.dpf
DOCKED: USER  
DOCKED: USER    Estimated Free Energy of Binding    =  -10.89 kcal/mol  [=(1)+(2)+(3)-(4)]
DOCKED: USER    Estimated Inhibition Constant, Ki   =   10.44 nM (nanomolar)  [Temperature = 298.15 K]
DOCKED: USER    
DOCKED: USER    (1) Final Intermolecular Energy     =  -13.87 kcal/mol
DOCKED: USER        vdW + Hbond + desolv Energy     =  -12.55 kcal/mol
DOCKED: USER        Electrostatic Energy            =   -1.32 kcal/mol
DOCKED: USER    (2) Final Total Internal Energy     =   -1.93 kcal/mol
DOCKED: USER    (3) Torsional Free Energy           =   +2.98 kcal/mol
DOCKED: USER    (4) Unbound System's Energy  [=(2)] =   -1.93 kcal/mol
DOCKED: USER    
DOCKED: USER    
DOCKED: USER    NEWDPF move heme_Fe_opt.pdbqt
DOCKED: USER    NEWDPF about -0.174000 -0.001000 -0.047000
DOCKED: USER    NEWDPF tran0 8.038812 34.472250 -0.931155
DOCKED: USER    NEWDPF quaternion0 0.391011 0.187756 0.268390 0.860130
DOCKED: USER    NEWDPF axisangle0 0.766578 0.368096 0.526179 61.337528
DOCKED: USER    NEWDPF quat0 0.766578 0.368096 0.526179 61.337528
DOCKED: USER    NEWDPF dihe0 68.47 -82.70 72.52 -146.64 -159.93 179.15 -79.62 46.34 178.86 -166.69 
DOCKED: USER  keepresnum = 1 
DOCKED: USER  
DOCKED: REMARK  10 active torsions:
DOCKED: REMARK  status: ('A' for Active; 'I' for Inactive)
DOCKED: REMARK    1  A    between atoms: C_6  and  C_10 
DOCKED: REMARK    2  A    between atoms: C_10  and  C_11 
DOCKED: REMARK    3  A    between atoms: C_11  and  C_12 
DOCKED: REMARK    4  A    between atoms: C_12  and  O_14 
DOCKED: REMARK    5  A    between atoms: C_17  and  C_20 
DOCKED: REMARK    6  A    between atoms: C_24  and  C_27 
DOCKED: REMARK    7  A    between atoms: C_31  and  C_34 
DOCKED: REMARK    8  A    between atoms: C_34  and  C_35 
DOCKED: REMARK    9  A    between atoms: C_35  and  C_36 
DOCKED: REMARK   10  A    between atoms: C_36  and  O_38 
DOCKED: USER                              x       y       z     vdW  Elec       q    Type
DOCKED: USER                           _______ _______ _______ _____ _____    ______ ____
DOCKED: ROOT
DOCKED: ATOM      1  C   UNL d   1       6.387  35.475  -1.621 -0.07 +0.01    +0.064 C 
DOCKED: ATOM      2  C   UNL d   1       7.254  32.346   2.105 -0.40 +0.00    +0.064 A 
DOCKED: ATOM      3  C   UNL d   1      11.967  33.056   1.514 -0.38 +0.00    +0.064 C 
DOCKED: ATOM      4  C   UNL d   1      11.154  36.006  -2.164 -0.48 +0.00    +0.064 C 
DOCKED: ATOM      5  C   UNL d   1       6.197  34.464  -0.572 -0.20 +0.01    +0.066 A 
DOCKED: ATOM      6  C   UNL d   1       4.974  33.927  -0.204 -0.28 -0.00    -0.021 A 
DOCKED: ATOM      7  C   UNL d   1       5.215  33.060   0.833 -0.28 -0.00    -0.025 A 
DOCKED: ATOM      8  C   UNL d   1       6.577  33.102   1.059 -0.33 +0.01    +0.066 A 
DOCKED: ATOM      9  C   UNL d   1       4.192  32.231   1.547 -0.19 +0.00    +0.051 C 
DOCKED: ATOM     10  C   UNL d   1       8.572  32.324   2.307 -0.39 +0.00    +0.066 A 
DOCKED: ATOM     11  C   UNL d   1       9.180  31.681   3.388 -0.42 -0.00    -0.021 A 
DOCKED: ATOM     12  C   UNL d   1      10.539  31.885   3.250 -0.40 +0.00    +0.000 A 
DOCKED: ATOM     13  C   UNL d   1      10.690  32.657   2.085 -0.36 +0.00    +0.070 A 
DOCKED: ATOM     14  C   UNL d   1       8.496  30.965   4.535 -0.45 -0.00    +0.052 C 
DOCKED: ATOM     15  C   UNL d   1      12.116  33.842   0.422 -0.36 +0.00    +0.066 A 
DOCKED: ATOM     16  C   UNL d   1      13.352  34.118  -0.151 -0.45 -0.00    -0.021 A 
DOCKED: ATOM     17  C   UNL d   1      13.120  34.972  -1.210 -0.45 +0.00    +0.000 A 
DOCKED: ATOM     18  C   UNL d   1      11.746  35.200  -1.256 -0.34 +0.01    +0.070 A 
DOCKED: ATOM     19  C   UNL d   1      14.701  33.621   0.293 -0.59 +0.00    +0.052 C 
DOCKED: ATOM     20  C   UNL d   1       9.707  36.221  -2.281 -0.40 +0.00    +0.066 A 
DOCKED: ATOM     21  C   UNL d   1       9.095  37.199  -3.079 -0.40 +0.00    -0.025 A 
DOCKED: ATOM     22  C   UNL d   1       7.737  37.021  -2.919 -0.33 -0.00    -0.021 A 
DOCKED: ATOM     23  C   UNL d   1       7.573  35.952  -2.030 -0.13 +0.01    +0.066 A 
DOCKED: ATOM     24  C   UNL d   1       9.746  38.252  -3.945 -0.37 -0.01    +0.051 C 
DOCKED: ATOM     25  N   UNL d   1       7.173  33.950   0.196 -0.12 -0.03    -0.248 N 
DOCKED: ATOM     26  N   UNL d   1       9.491  32.932   1.515 -0.16 -0.02    -0.248 N 
DOCKED: ATOM     27  N   UNL d   1      11.124  34.471  -0.281 +0.09 -0.04    -0.248 N 
DOCKED: ATOM     28  N   UNL d   1       8.779  35.497  -1.609 -0.24 -0.05    -0.248 N 
DOCKED: ATOM     29 FE   UNL d   1       9.136  34.216  -0.049 -0.07 +0.00    +0.000 Fe
DOCKED: ENDROOT
DOCKED: BRANCH   6  30
DOCKED: ATOM     30  C   UNL d   1       3.645  34.204  -0.820 -0.22 +0.01    +0.052 C 
DOCKED: BRANCH  30  31
DOCKED: ATOM     31  C   UNL d   1       2.944  35.350  -0.099 -0.19 +0.05    +0.115 C 
DOCKED: BRANCH  31  32
DOCKED: ATOM     32  C   UNL d   1       3.094  36.630  -0.874 -0.18 +0.08    +0.139 C 
DOCKED: ATOM     33  O   UNL d   1       2.938  37.712  -0.327 -0.31 -0.81    -0.650 OA
DOCKED: BRANCH  32  34
DOCKED: ATOM     34  O   UNL d   1       3.403  36.594  -2.181 +0.05 -0.27    -0.776 OA
DOCKED: ATOM     35  H   UNL d   1       4.271  36.911  -2.468 +0.05 +0.05    +0.167 HD
DOCKED: ENDBRANCH  32  34
DOCKED: ENDBRANCH  31  32
DOCKED: ENDBRANCH  30  31
DOCKED: ENDBRANCH   6  30
DOCKED: BRANCH  22  36
DOCKED: ATOM     36  C   UNL d   1       6.659  37.865  -3.548 -0.26 +0.00    +0.052 C 
DOCKED: BRANCH  36  37
DOCKED: ATOM     37  C   UNL d   1       6.661  39.251  -2.920 -0.32 +0.01    +0.115 C 
DOCKED: BRANCH  37  38
DOCKED: ATOM     38  C   UNL d   1       5.264  39.692  -2.586 -0.24 +0.03    +0.139 C 
DOCKED: ATOM     39  O   UNL d   1       5.060  40.775  -2.057 +0.01 -0.21    -0.650 OA
DOCKED: BRANCH  38  40
DOCKED: ATOM     40  O   UNL d   1       4.221  38.890  -2.865 +0.06 -0.25    -0.776 OA
DOCKED: ATOM     41  H   UNL d   1       3.861  38.326  -2.166 +0.04 +0.08    +0.167 HD
DOCKED: ENDBRANCH  38  40
DOCKED: ENDBRANCH  37  38
DOCKED: ENDBRANCH  36  37
DOCKED: ENDBRANCH  22  36
DOCKED: BRANCH  12  42
DOCKED: ATOM     42  C   UNL d   1      11.581  31.379   4.195 -0.43 +0.00    +0.004 C 
DOCKED: ATOM     43  C   UNL d   1      12.548  30.551   3.777 -0.63 +0.00    +0.012 C 
DOCKED: ENDBRANCH  12  42
DOCKED: BRANCH  17  44
DOCKED: ATOM     44  C   UNL d   1      14.143  35.517  -2.130 -0.39 +0.00    +0.004 C 
DOCKED: ATOM     45  C   UNL d   1      14.721  36.699  -1.889 -0.65 +0.00    +0.012 C 
DOCKED: ENDBRANCH  17  44
DOCKED: TORSDOF 10
DOCKED: TER
DOCKED: ENDMDL
________________________________________________________________________________


	BEGINNING GENETIC ALGORITHM DOCKING 22 of 100
Run: 22 Seed: 451960135 1289627361 [ Run 22 of 100 GA/GALS ]
Beginning LAMARCKIAN GENETIC ALGORITHM (LGA), with a maximum of 25000000 energy evaluations.

Final-Value: -10.549


	FINAL GENETIC ALGORITHM DOCKED STATE
	_______________________________________________


Detailed state:  trans 24.908 36.995 -4.406 quatxyzw -0.211948 -0.407437 -0.065818 -0.885856 center -0.174 -0.001 -0.047 ntor 10 180.0000 42.4058 -132.2075 -160.5275 74.1744 180.0000 10.9770 -48.5783 -140.6262 17.7790
State:	 24.908  36.995  -4.406  -0.457 -0.878 -0.142 -55.286    180.00   42.41 -132.21 -160.53   74.17  180.00   10.98  -48.58 -140.63   17.78

DOCKED: MODEL       22
DOCKED: USER    Run = 22
DOCKED: USER    DPF = D:/Protein_go_brrr/autodock/final/6BB5/heme_Fe/dock.dpf
DOCKED: USER  
DOCKED: USER    Estimated Free Energy of Binding    =   -5.42 kcal/mol  [=(1)+(2)+(3)-(4)]
DOCKED: USER    Estimated Inhibition Constant, Ki   =  106.47 uM (micromolar)  [Temperature = 298.15 K]
DOCKED: USER    
DOCKED: USER    (1) Final Intermolecular Energy     =   -8.40 kcal/mol
DOCKED: USER        vdW + Hbond + desolv Energy     =   -7.42 kcal/mol
DOCKED: USER        Electrostatic Energy            =   -0.98 kcal/mol
DOCKED: USER    (2) Final Total Internal Energy     =   -2.15 kcal/mol
DOCKED: USER    (3) Torsional Free Energy           =   +2.98 kcal/mol
DOCKED: USER    (4) Unbound System's Energy  [=(2)] =   -2.15 kcal/mol
DOCKED: USER    
DOCKED: USER    
DOCKED: USER    NEWDPF move heme_Fe_opt.pdbqt
DOCKED: USER    NEWDPF about -0.174000 -0.001000 -0.047000
DOCKED: USER    NEWDPF tran0 24.908091 36.994804 -4.406133
DOCKED: USER    NEWDPF quaternion0 -0.211948 -0.407437 -0.065818 -0.885856
DOCKED: USER    NEWDPF axisangle0 -0.456824 -0.878173 -0.141862 -55.285850
DOCKED: USER    NEWDPF quat0 -0.456824 -0.878173 -0.141862 -55.285850
DOCKED: USER    NEWDPF dihe0 180.00 42.41 -132.21 -160.53 74.17 180.00 10.98 -48.58 -140.63 17.78 
DOCKED: USER  keepresnum = 1 
DOCKED: USER  
DOCKED: REMARK  10 active torsions:
DOCKED: REMARK  status: ('A' for Active; 'I' for Inactive)
DOCKED: REMARK    1  A    between atoms: C_6  and  C_10 
DOCKED: REMARK    2  A    between atoms: C_10  and  C_11 
DOCKED: REMARK    3  A    between atoms: C_11  and  C_12 
DOCKED: REMARK    4  A    between atoms: C_12  and  O_14 
DOCKED: REMARK    5  A    between atoms: C_17  and  C_20 
DOCKED: REMARK    6  A    between atoms: C_24  and  C_27 
DOCKED: REMARK    7  A    between atoms: C_31  and  C_34 
DOCKED: REMARK    8  A    between atoms: C_34  and  C_35 
DOCKED: REMARK    9  A    between atoms: C_35  and  C_36 
DOCKED: REMARK   10  A    between atoms: C_36  and  O_38 
DOCKED: USER                              x       y       z     vdW  Elec       q    Type
DOCKED: USER                           _______ _______ _______ _____ _____    ______ ____
DOCKED: ROOT
DOCKED: ATOM      1  C   UNL d   1      23.216  37.059  -5.565 -0.19 +0.00    +0.064 C 
DOCKED: ATOM      2  C   UNL d   1      24.796  34.183  -1.869 -0.28 -0.01    +0.064 A 
DOCKED: ATOM      3  C   UNL d   1      28.167  37.452  -0.859 -0.15 +0.01    +0.064 C 
DOCKED: ATOM      4  C   UNL d   1      26.721  40.201  -4.497 -0.17 +0.01    +0.064 C 
DOCKED: ATOM      5  C   UNL d   1      23.401  35.907  -4.671 -0.17 -0.01    +0.066 A 
DOCKED: ATOM      6  C   UNL d   1      22.681  34.727  -4.742 -0.30 +0.00    -0.021 A 
DOCKED: ATOM      7  C   UNL d   1      23.117  33.930  -3.713 -0.36 +0.01    -0.025 A 
DOCKED: ATOM      8  C   UNL d   1      24.089  34.656  -3.052 -0.28 -0.01    +0.066 A 
DOCKED: ATOM      9  C   UNL d   1      22.637  32.546  -3.403 -0.20 -0.04    +0.051 C 
DOCKED: ATOM     10  C   UNL d   1      25.777  34.839  -1.247 -0.19 +0.00    +0.066 A 
DOCKED: ATOM     11  C   UNL d   1      26.356  34.413  -0.049 -0.24 -0.00    -0.021 A 
DOCKED: ATOM     12  C   UNL d   1      27.320  35.348   0.273 -0.19 +0.00    +0.000 A 
DOCKED: ATOM     13  C   UNL d   1      27.274  36.309  -0.752 -0.11 +0.01    +0.070 A 
DOCKED: ATOM     14  C   UNL d   1      25.964  33.211   0.785 -0.34 +0.01    +0.052 C 
DOCKED: ATOM     15  C   UNL d   1      28.092  38.408  -1.814 -0.13 +0.00    +0.066 A 
DOCKED: ATOM     16  C   UNL d   1      29.026  39.429  -1.941 -0.09 -0.00    -0.021 A 
DOCKED: ATOM     17  C   UNL d   1      28.609  40.225  -2.987 -0.09 +0.00    +0.000 A 
DOCKED: ATOM     18  C   UNL d   1      27.426  39.672  -3.473 -0.14 +0.01    +0.070 A 
DOCKED: ATOM     19  C   UNL d   1      30.250  39.664  -1.096 -0.04 +0.00    +0.052 C 
DOCKED: ATOM     20  C   UNL d   1      25.506  39.613  -5.075 -0.19 +0.01    +0.066 A 
DOCKED: ATOM     21  C   UNL d   1      24.659  40.247  -5.995 -0.16 -0.00    -0.025 A 
DOCKED: ATOM     22  C   UNL d   1      23.674  39.329  -6.295 -0.13 -0.00    -0.021 A 
DOCKED: ATOM     23  C   UNL d   1      23.954  38.180  -5.546 -0.18 +0.01    +0.066 A 
DOCKED: ATOM     24  C   UNL d   1      24.760  41.643  -6.564 -0.12 +0.01    +0.051 C 
DOCKED: ATOM     25  N   UNL d   1      24.267  35.855  -3.643 -0.17 +0.03    -0.248 N 
DOCKED: ATOM     26  N   UNL d   1      26.327  36.004  -1.673 -0.09 -0.01    -0.248 N 
DOCKED: ATOM     27  N   UNL d   1      27.131  38.531  -2.781 -0.13 -0.02    -0.248 N 
DOCKED: ATOM     28  N   UNL d   1      25.047  38.376  -4.769 -0.17 -0.02    -0.248 N 
DOCKED: ATOM     29 FE   UNL d   1      25.688  37.192  -3.222 -0.06 +0.00    +0.000 Fe
DOCKED: ENDROOT
DOCKED: BRANCH   6  30
DOCKED: ATOM     30  C   UNL d   1      21.644  34.363  -5.749 -0.26 -0.01    +0.052 C 
DOCKED: BRANCH  30  31
DOCKED: ATOM     31  C   UNL d   1      20.590  35.459  -5.861 -0.32 +0.01    +0.115 C 
DOCKED: BRANCH  31  32
DOCKED: ATOM     32  C   UNL d   1      19.416  34.980  -6.668 -0.37 +0.03    +0.139 C 
DOCKED: ATOM     33  O   UNL d   1      18.615  34.187  -6.192 -0.60 -0.21    -0.650 OA
DOCKED: BRANCH  32  34
DOCKED: ATOM     34  O   UNL d   1      19.235  35.421  -7.924 +0.06 -0.27    -0.776 OA
DOCKED: ATOM     35  H   UNL d   1      19.870  36.048  -8.297 +0.07 +0.08    +0.167 HD
DOCKED: ENDBRANCH  32  34
DOCKED: ENDBRANCH  31  32
DOCKED: ENDBRANCH  30  31
DOCKED: ENDBRANCH   6  30
DOCKED: BRANCH  22  36
DOCKED: ATOM     36  C   UNL d   1      22.503  39.563  -7.213 -0.21 +0.01    +0.052 C 
DOCKED: BRANCH  36  37
DOCKED: ATOM     37  C   UNL d   1      22.614  38.654  -8.428 -0.10 +0.03    +0.115 C 
DOCKED: BRANCH  37  38
DOCKED: ATOM     38  C   UNL d   1      21.323  37.926  -8.676 -0.15 +0.06    +0.139 C 
DOCKED: ATOM     39  O   UNL d   1      21.214  37.147  -9.611 -0.01 -0.30    -0.650 OA
DOCKED: BRANCH  38  40
DOCKED: ATOM     40  O   UNL d   1      20.270  38.131  -7.864 +0.03 -0.51    -0.776 OA
DOCKED: ATOM     41  H   UNL d   1      19.738  37.374  -7.583 +0.07 +0.11    +0.167 HD
DOCKED: ENDBRANCH  38  40
DOCKED: ENDBRANCH  37  38
DOCKED: ENDBRANCH  36  37
DOCKED: ENDBRANCH  22  36
DOCKED: BRANCH  12  42
DOCKED: ATOM     42  C   UNL d   1      28.189  35.298   1.489 -0.19 +0.00    +0.004 C 
DOCKED: ATOM     43  C   UNL d   1      27.760  35.783   2.662 -0.26 +0.00    +0.012 C 
DOCKED: ENDBRANCH  12  42
DOCKED: BRANCH  17  44
DOCKED: ATOM     44  C   UNL d   1      29.308  41.424  -3.502 -0.04 +0.00    +0.004 C 
DOCKED: ATOM     45  C   UNL d   1      28.831  42.650  -3.263 -0.04 +0.00    +0.012 C 
DOCKED: ENDBRANCH  17  44
DOCKED: TORSDOF 10
DOCKED: TER
DOCKED: ENDMDL
________________________________________________________________________________


	BEGINNING GENETIC ALGORITHM DOCKING 23 of 100
Run: 23 Seed: 204441646 747101599 [ Run 23 of 100 GA/GALS ]
Beginning LAMARCKIAN GENETIC ALGORITHM (LGA), with a maximum of 25000000 energy evaluations.

Final-Value: -10.574


	FINAL GENETIC ALGORITHM DOCKED STATE
	_______________________________________________


Detailed state:  trans 2.310 33.124 -5.064 quatxyzw -0.127702 0.609925 -0.253520 -0.739872 center -0.174 -0.001 -0.047 ntor 10 14.1528 112.0826 -161.7359 -152.0589 -168.8361 -176.6251 -67.5310 -30.6381 -157.2532 -11.9404
State:	  2.310  33.124  -5.064  -0.190  0.907 -0.377 -84.559     14.15  112.08 -161.74 -152.06 -168.84 -176.63  -67.53  -30.64 -157.25  -11.94

DOCKED: MODEL       23
DOCKED: USER    Run = 23
DOCKED: USER    DPF = D:/Protein_go_brrr/autodock/final/6BB5/heme_Fe/dock.dpf
DOCKED: USER  
DOCKED: USER    Estimated Free Energy of Binding    =   -5.36 kcal/mol  [=(1)+(2)+(3)-(4)]
DOCKED: USER    Estimated Inhibition Constant, Ki   =  117.92 uM (micromolar)  [Temperature = 298.15 K]
DOCKED: USER    
DOCKED: USER    (1) Final Intermolecular Energy     =   -8.34 kcal/mol
DOCKED: USER        vdW + Hbond + desolv Energy     =   -6.09 kcal/mol
DOCKED: USER        Electrostatic Energy            =   -2.25 kcal/mol
DOCKED: USER    (2) Final Total Internal Energy     =   -2.23 kcal/mol
DOCKED: USER    (3) Torsional Free Energy           =   +2.98 kcal/mol
DOCKED: USER    (4) Unbound System's Energy  [=(2)] =   -2.23 kcal/mol
DOCKED: USER    
DOCKED: USER    
DOCKED: USER    NEWDPF move heme_Fe_opt.pdbqt
DOCKED: USER    NEWDPF about -0.174000 -0.001000 -0.047000
DOCKED: USER    NEWDPF tran0 2.309565 33.124051 -5.064345
DOCKED: USER    NEWDPF quaternion0 -0.127702 0.609925 -0.253520 -0.739872
DOCKED: USER    NEWDPF axisangle0 -0.189822 0.906619 -0.376842 -84.558926
DOCKED: USER    NEWDPF quat0 -0.189822 0.906619 -0.376842 -84.558926
DOCKED: USER    NEWDPF dihe0 14.15 112.08 -161.74 -152.06 -168.84 -176.63 -67.53 -30.64 -157.25 -11.94 
DOCKED: USER  keepresnum = 1 
DOCKED: USER  
DOCKED: REMARK  10 active torsions:
DOCKED: REMARK  status: ('A' for Active; 'I' for Inactive)
DOCKED: REMARK    1  A    between atoms: C_6  and  C_10 
DOCKED: REMARK    2  A    between atoms: C_10  and  C_11 
DOCKED: REMARK    3  A    between atoms: C_11  and  C_12 
DOCKED: REMARK    4  A    between atoms: C_12  and  O_14 
DOCKED: REMARK    5  A    between atoms: C_17  and  C_20 
DOCKED: REMARK    6  A    between atoms: C_24  and  C_27 
DOCKED: REMARK    7  A    between atoms: C_31  and  C_34 
DOCKED: REMARK    8  A    between atoms: C_34  and  C_35 
DOCKED: REMARK    9  A    between atoms: C_35  and  C_36 
DOCKED: REMARK   10  A    between atoms: C_36  and  O_38 
DOCKED: USER                              x       y       z     vdW  Elec       q    Type
DOCKED: USER                           _______ _______ _______ _____ _____    ______ ____
DOCKED: ROOT
DOCKED: ATOM      1  C   UNL d   1       2.559  34.062  -3.256 -0.08 +0.01    +0.064 C 
DOCKED: ATOM      2  C   UNL d   1       2.107  29.358  -4.703 -0.29 -0.01    +0.064 A 
DOCKED: ATOM      3  C   UNL d   1       2.958  30.738  -9.224 -0.24 +0.01    +0.064 C 
DOCKED: ATOM      4  C   UNL d   1       3.294  35.311  -7.861 -0.12 +0.01    +0.064 C 
DOCKED: ATOM      5  C   UNL d   1       2.270  32.622  -3.256 +0.01 +0.00    +0.066 A 
DOCKED: ATOM      6  C   UNL d   1       1.874  31.895  -2.146 -0.14 -0.00    -0.021 A 
DOCKED: ATOM      7  C   UNL d   1       1.752  30.588  -2.547 -0.20 +0.00    -0.025 A 
DOCKED: ATOM      8  C   UNL d   1       2.079  30.567  -3.889 -0.19 -0.00    +0.066 A 
DOCKED: ATOM      9  C   UNL d   1       1.327  29.436  -1.689 -0.24 -0.01    +0.051 C 
DOCKED: ATOM     10  C   UNL d   1       2.363  29.318  -6.011 -0.27 -0.01    +0.066 A 
DOCKED: ATOM     11  C   UNL d   1       2.496  28.133  -6.740 -0.33 +0.01    -0.021 A 
DOCKED: ATOM     12  C   UNL d   1       2.758  28.504  -8.043 -0.27 -0.00    +0.000 A 
DOCKED: ATOM     13  C   UNL d   1       2.780  29.909  -8.042 -0.22 +0.00    +0.070 A 
DOCKED: ATOM     14  C   UNL d   1       2.443  26.716  -6.206 -0.25 -0.03    +0.052 C 
DOCKED: ATOM     15  C   UNL d   1       3.032  32.090  -9.219 -0.19 +0.02    +0.066 A 
DOCKED: ATOM     16  C   UNL d   1       3.102  32.850 -10.380 -0.17 -0.01    -0.021 A 
DOCKED: ATOM     17  C   UNL d   1       3.203  34.169  -9.989 -0.15 +0.00    +0.000 A 
DOCKED: ATOM     18  C   UNL d   1       3.196  34.183  -8.596 -0.13 +0.01    +0.070 A 
DOCKED: ATOM     19  C   UNL d   1       3.100  32.356 -11.802 +0.02 +0.04    +0.052 C 
DOCKED: ATOM     20  C   UNL d   1       3.229  35.370  -6.396 -0.11 +0.01    +0.066 A 
DOCKED: ATOM     21  C   UNL d   1       3.528  36.496  -5.616 -0.08 -0.00    -0.025 A 
DOCKED: ATOM     22  C   UNL d   1       3.300  36.122  -4.308 -0.08 -0.00    -0.021 A 
DOCKED: ATOM     23  C   UNL d   1       2.878  34.787  -4.340 -0.09 +0.01    +0.066 A 
DOCKED: ATOM     24  C   UNL d   1       4.009  37.856  -6.068 -0.05 +0.01    +0.051 C 
DOCKED: ATOM     25  N   UNL d   1       2.384  31.807  -4.320 +0.02 -0.01    -0.248 N 
DOCKED: ATOM     26  N   UNL d   1       2.548  30.406  -6.802 -0.14 -0.00    -0.248 N 
DOCKED: ATOM     27  N   UNL d   1       3.047  32.909  -8.122 -0.08 -0.04    -0.248 N 
DOCKED: ATOM     28  N   UNL d   1       2.881  34.320  -5.613 -0.09 -0.02    -0.248 N 
DOCKED: ATOM     29 FE   UNL d   1       2.715  32.365  -6.208 -0.05 +0.00    +0.000 Fe
DOCKED: ENDROOT
DOCKED: BRANCH   6  30
DOCKED: ATOM     30  C   UNL d   1       1.603  32.417  -0.776 -0.12 +0.00    +0.052 C 
DOCKED: BRANCH  30  31
DOCKED: ATOM     31  C   UNL d   1       2.889  32.904  -0.119 -0.16 +0.01    +0.115 C 
DOCKED: BRANCH  31  32
DOCKED: ATOM     32  C   UNL d   1       2.857  34.397   0.057 -0.19 +0.04    +0.139 C 
DOCKED: ATOM     33  O   UNL d   1       3.866  35.009   0.377 -0.01 -0.20    -0.650 OA
DOCKED: BRANCH  32  34
DOCKED: ATOM     34  O   UNL d   1       1.713  35.075  -0.137 +0.03 -0.33    -0.776 OA
DOCKED: ATOM     35  H   UNL d   1       1.747  36.038  -0.224 +0.03 +0.11    +0.167 HD
DOCKED: ENDBRANCH  32  34
DOCKED: ENDBRANCH  31  32
DOCKED: ENDBRANCH  30  31
DOCKED: ENDBRANCH   6  30
DOCKED: BRANCH  22  36
DOCKED: ATOM     36  C   UNL d   1       3.522  36.985  -3.094 -0.11 +0.01    +0.052 C 
DOCKED: BRANCH  36  37
DOCKED: ATOM     37  C   UNL d   1       2.293  37.849  -2.847 -0.07 +0.05    +0.115 C 
DOCKED: BRANCH  37  38
DOCKED: ATOM     38  C   UNL d   1       2.109  38.115  -1.380 -0.05 +0.16    +0.139 C 
DOCKED: ATOM     39  O   UNL d   1       1.141  38.742  -0.975 -0.24 -1.37    -0.650 OA
DOCKED: BRANCH  38  40
DOCKED: ATOM     40  O   UNL d   1       3.017  37.664  -0.496 -0.21 -0.86    -0.776 OA
DOCKED: ATOM     41  H   UNL d   1       3.099  36.711  -0.352 +0.04 +0.12    +0.167 HD
DOCKED: ENDBRANCH  38  40
DOCKED: ENDBRANCH  37  38
DOCKED: ENDBRANCH  36  37
DOCKED: ENDBRANCH  22  36
DOCKED: BRANCH  12  42
DOCKED: ATOM     42  C   UNL d   1       2.984  27.552  -9.175 -0.27 -0.00    +0.004 C 
DOCKED: ATOM     43  C   UNL d   1       4.176  27.470  -9.779 -0.37 -0.00    +0.012 C 
DOCKED: ENDBRANCH  12  42
DOCKED: BRANCH  17  44
DOCKED: ATOM     44  C   UNL d   1       3.279  35.341 -10.890 -0.10 +0.00    +0.004 C 
DOCKED: ATOM     45  C   UNL d   1       4.457  35.901 -11.187 -0.12 +0.00    +0.012 C 
DOCKED: ENDBRANCH  17  44
DOCKED: TORSDOF 10
DOCKED: TER
DOCKED: ENDMDL
________________________________________________________________________________


	BEGINNING GENETIC ALGORITHM DOCKING 24 of 100
Run: 24 Seed: 1828853389 745798289 [ Run 24 of 100 GA/GALS ]
Beginning LAMARCKIAN GENETIC ALGORITHM (LGA), with a maximum of 25000000 energy evaluations.

Final-Value: -11.101


	FINAL GENETIC ALGORITHM DOCKED STATE
	_______________________________________________


Detailed state:  trans 18.032 27.020 28.891 quatxyzw -0.247941 -0.096781 0.911476 0.313641 center -0.174 -0.001 -0.047 ntor 10 167.6831 -67.4030 -163.4580 -128.6624 92.3270 96.4702 -13.2516 -69.0514 -157.6274 2.7727
State:	 18.032  27.020  28.891  -0.261 -0.102  0.960 143.442    167.68  -67.40 -163.46 -128.66   92.33   96.47  -13.25  -69.05 -157.63    2.77

DOCKED: MODEL       24
DOCKED: USER    Run = 24
DOCKED: USER    DPF = D:/Protein_go_brrr/autodock/final/6BB5/heme_Fe/dock.dpf
DOCKED: USER  
DOCKED: USER    Estimated Free Energy of Binding    =   -6.15 kcal/mol  [=(1)+(2)+(3)-(4)]
DOCKED: USER    Estimated Inhibition Constant, Ki   =   30.82 uM (micromolar)  [Temperature = 298.15 K]
DOCKED: USER    
DOCKED: USER    (1) Final Intermolecular Energy     =   -9.14 kcal/mol
DOCKED: USER        vdW + Hbond + desolv Energy     =   -6.86 kcal/mol
DOCKED: USER        Electrostatic Energy            =   -2.28 kcal/mol
DOCKED: USER    (2) Final Total Internal Energy     =   -1.96 kcal/mol
DOCKED: USER    (3) Torsional Free Energy           =   +2.98 kcal/mol
DOCKED: USER    (4) Unbound System's Energy  [=(2)] =   -1.96 kcal/mol
DOCKED: USER    
DOCKED: USER    
DOCKED: USER    NEWDPF move heme_Fe_opt.pdbqt
DOCKED: USER    NEWDPF about -0.174000 -0.001000 -0.047000
DOCKED: USER    NEWDPF tran0 18.031661 27.019895 28.890886
DOCKED: USER    NEWDPF quaternion0 -0.247941 -0.096781 0.911476 0.313641
DOCKED: USER    NEWDPF axisangle0 -0.261117 -0.101924 0.959911 143.442371
DOCKED: USER    NEWDPF quat0 -0.261117 -0.101924 0.959911 143.442371
DOCKED: USER    NEWDPF dihe0 167.68 -67.40 -163.46 -128.66 92.33 96.47 -13.25 -69.05 -157.63 2.77 
DOCKED: USER  keepresnum = 1 
DOCKED: USER  
DOCKED: REMARK  10 active torsions:
DOCKED: REMARK  status: ('A' for Active; 'I' for Inactive)
DOCKED: REMARK    1  A    between atoms: C_6  and  C_10 
DOCKED: REMARK    2  A    between atoms: C_10  and  C_11 
DOCKED: REMARK    3  A    between atoms: C_11  and  C_12 
DOCKED: REMARK    4  A    between atoms: C_12  and  O_14 
DOCKED: REMARK    5  A    between atoms: C_17  and  C_20 
DOCKED: REMARK    6  A    between atoms: C_24  and  C_27 
DOCKED: REMARK    7  A    between atoms: C_31  and  C_34 
DOCKED: REMARK    8  A    between atoms: C_34  and  C_35 
DOCKED: REMARK    9  A    between atoms: C_35  and  C_36 
DOCKED: REMARK   10  A    between atoms: C_36  and  O_38 
DOCKED: USER                              x       y       z     vdW  Elec       q    Type
DOCKED: USER                           _______ _______ _______ _____ _____    ______ ____
DOCKED: ROOT
DOCKED: ATOM      1  C   UNL d   1      19.135  27.927  30.364 -0.12 +0.01    +0.064 C 
DOCKED: ATOM      2  C   UNL d   1      14.665  28.687  28.395 -0.19 -0.01    +0.064 A 
DOCKED: ATOM      3  C   UNL d   1      14.881  24.326  26.395 -0.23 -0.00    +0.064 C 
DOCKED: ATOM      4  C   UNL d   1      19.251  23.612  28.205 -0.18 +0.00    +0.064 C 
DOCKED: ATOM      5  C   UNL d   1      17.893  28.579  29.927 -0.04 +0.01    +0.066 A 
DOCKED: ATOM      6  C   UNL d   1      17.541  29.887  30.217 -0.24 -0.00    -0.021 A 
DOCKED: ATOM      7  C   UNL d   1      16.298  30.096  29.673 -0.26 -0.00    -0.025 A 
DOCKED: ATOM      8  C   UNL d   1      15.938  28.906  29.070 -0.23 -0.00    +0.066 A 
DOCKED: ATOM      9  C   UNL d   1      15.519  31.375  29.717 +0.01 +0.00    +0.051 C 
DOCKED: ATOM     10  C   UNL d   1      14.317  27.569  27.757 -0.19 -0.01    +0.066 A 
DOCKED: ATOM     11  C   UNL d   1      13.047  27.347  27.218 -0.22 +0.00    -0.021 A 
DOCKED: ATOM     12  C   UNL d   1      13.078  26.089  26.650 -0.25 -0.00    +0.000 A 
DOCKED: ATOM     13  C   UNL d   1      14.376  25.600  26.881 -0.16 -0.01    +0.070 A 
DOCKED: ATOM     14  C   UNL d   1      11.842  28.261  27.301 -0.30 -0.01    +0.052 C 
DOCKED: ATOM     15  C   UNL d   1      16.112  23.828  26.659 -0.20 -0.00    +0.066 A 
DOCKED: ATOM     16  C   UNL d   1      16.592  22.654  26.094 -0.25 +0.00    -0.021 A 
DOCKED: ATOM     17  C   UNL d   1      17.852  22.444  26.617 -0.19 -0.00    +0.000 A 
DOCKED: ATOM     18  C   UNL d   1      18.108  23.495  27.494 -0.19 -0.00    +0.070 A 
DOCKED: ATOM     19  C   UNL d   1      15.888  21.748  25.120 -0.34 -0.01    +0.052 C 
DOCKED: ATOM     20  C   UNL d   1      19.582  24.735  29.089 -0.14 +0.00    +0.066 A 
DOCKED: ATOM     21  C   UNL d   1      20.664  24.774  29.980 -0.09 -0.00    -0.025 A 
DOCKED: ATOM     22  C   UNL d   1      20.619  26.017  30.575 -0.07 -0.00    -0.021 A 
DOCKED: ATOM     23  C   UNL d   1      19.514  26.683  30.033 -0.09 +0.01    +0.066 A 
DOCKED: ATOM     24  C   UNL d   1      21.690  23.701  30.265 -0.09 -0.00    +0.051 C 
DOCKED: ATOM     25  N   UNL d   1      16.914  27.988  29.219 -0.09 -0.01    -0.248 N 
DOCKED: ATOM     26  N   UNL d   1      15.128  26.498  27.564 -0.10 +0.02    -0.248 N 
DOCKED: ATOM     27  N   UNL d   1      17.058  24.370  27.487 -0.12 -0.00    -0.248 N 
DOCKED: ATOM     28  N   UNL d   1      18.859  25.879  29.160 -0.10 -0.03    -0.248 N 
DOCKED: ATOM     29 FE   UNL d   1      16.995  26.187  28.362 -0.04 +0.00    +0.000 Fe
DOCKED: ENDROOT
DOCKED: BRANCH   6  30
DOCKED: ATOM     30  C   UNL d   1      18.353  30.896  30.955 -0.28 +0.02    +0.052 C 
DOCKED: BRANCH  30  31
DOCKED: ATOM     31  C   UNL d   1      18.488  30.511  32.424 -0.12 +0.04    +0.115 C 
DOCKED: BRANCH  31  32
DOCKED: ATOM     32  C   UNL d   1      19.555  31.336  33.088 -0.06 +0.10    +0.139 C 
DOCKED: ATOM     33  O   UNL d   1      19.271  32.382  33.655 -0.03 -0.35    -0.650 OA
DOCKED: BRANCH  32  34
DOCKED: ATOM     34  O   UNL d   1      20.836  30.930  33.064 -0.24 -1.01    -0.776 OA
DOCKED: ATOM     35  H   UNL d   1      21.036  30.027  32.779 +0.01 +0.18    +0.167 HD
DOCKED: ENDBRANCH  32  34
DOCKED: ENDBRANCH  31  32
DOCKED: ENDBRANCH  30  31
DOCKED: ENDBRANCH   6  30
DOCKED: BRANCH  22  36
DOCKED: ATOM     36  C   UNL d   1      21.558  26.517  31.642 -0.06 +0.01    +0.052 C 
DOCKED: BRANCH  36  37
DOCKED: ATOM     37  C   UNL d   1      22.618  27.411  31.015 -0.11 +0.03    +0.115 C 
DOCKED: BRANCH  37  38
DOCKED: ATOM     38  C   UNL d   1      22.419  28.845  31.417 -0.10 +0.11    +0.139 C 
DOCKED: ATOM     39  O   UNL d   1      23.045  29.325  32.350 -0.05 -0.62    -0.650 OA
DOCKED: BRANCH  38  40
DOCKED: ATOM     40  O   UNL d   1      21.541  29.614  30.748 -0.28 -0.93    -0.776 OA
DOCKED: ATOM     41  H   UNL d   1      20.740  29.914  31.200 +0.03 +0.20    +0.167 HD
DOCKED: ENDBRANCH  38  40
DOCKED: ENDBRANCH  37  38
DOCKED: ENDBRANCH  36  37
DOCKED: ENDBRANCH  22  36
DOCKED: BRANCH  12  42
DOCKED: ATOM     42  C   UNL d   1      11.924  25.432  25.963 -0.30 -0.00    +0.004 C 
DOCKED: ATOM     43  C   UNL d   1      11.372  24.316  26.457 -0.31 -0.00    +0.012 C 
DOCKED: ENDBRANCH  12  42
DOCKED: BRANCH  17  44
DOCKED: ATOM     44  C   UNL d   1      18.758  21.322  26.284 -0.07 -0.00    +0.004 C 
DOCKED: ATOM     45  C   UNL d   1      18.531  20.093  26.762 -0.17 -0.01    +0.012 C 
DOCKED: ENDBRANCH  17  44
DOCKED: TORSDOF 10
DOCKED: TER
DOCKED: ENDMDL
________________________________________________________________________________


	BEGINNING GENETIC ALGORITHM DOCKING 25 of 100
Run: 25 Seed: 203497476 447274064 [ Run 25 of 100 GA/GALS ]
Beginning LAMARCKIAN GENETIC ALGORITHM (LGA), with a maximum of 25000000 energy evaluations.

Final-Value: -16.093


	FINAL GENETIC ALGORITHM DOCKED STATE
	_______________________________________________


Detailed state:  trans 41.851 28.515 17.204 quatxyzw 0.071328 0.936670 0.043941 -0.340045 center -0.174 -0.001 -0.047 ntor 10 144.3387 147.7871 75.2505 -142.8904 162.2406 -107.9481 86.8456 24.0841 -3.8858 146.5492
State:	 41.851  28.515  17.204   0.076  0.996  0.047 -140.241    144.34  147.79   75.25 -142.89  162.24 -107.95   86.85   24.08   -3.89  146.55

DOCKED: MODEL       25
DOCKED: USER    Run = 25
DOCKED: USER    DPF = D:/Protein_go_brrr/autodock/final/6BB5/heme_Fe/dock.dpf
DOCKED: USER  
DOCKED: USER    Estimated Free Energy of Binding    =  -11.39 kcal/mol  [=(1)+(2)+(3)-(4)]
DOCKED: USER    Estimated Inhibition Constant, Ki   =    4.48 nM (nanomolar)  [Temperature = 298.15 K]
DOCKED: USER    
DOCKED: USER    (1) Final Intermolecular Energy     =  -14.37 kcal/mol
DOCKED: USER        vdW + Hbond + desolv Energy     =  -12.33 kcal/mol
DOCKED: USER        Electrostatic Energy            =   -2.04 kcal/mol
DOCKED: USER    (2) Final Total Internal Energy     =   -1.72 kcal/mol
DOCKED: USER    (3) Torsional Free Energy           =   +2.98 kcal/mol
DOCKED: USER    (4) Unbound System's Energy  [=(2)] =   -1.72 kcal/mol
DOCKED: USER    
DOCKED: USER    
DOCKED: USER    NEWDPF move heme_Fe_opt.pdbqt
DOCKED: USER    NEWDPF about -0.174000 -0.001000 -0.047000
DOCKED: USER    NEWDPF tran0 41.850657 28.514654 17.204157
DOCKED: USER    NEWDPF quaternion0 0.071328 0.936670 0.043941 -0.340045
DOCKED: USER    NEWDPF axisangle0 0.075848 0.996024 0.046725 -140.240794
DOCKED: USER    NEWDPF quat0 0.075848 0.996024 0.046725 -140.240794
DOCKED: USER    NEWDPF dihe0 144.34 147.79 75.25 -142.89 162.24 -107.95 86.85 24.08 -3.89 146.55 
DOCKED: USER  keepresnum = 1 
DOCKED: USER  
DOCKED: REMARK  10 active torsions:
DOCKED: REMARK  status: ('A' for Active; 'I' for Inactive)
DOCKED: REMARK    1  A    between atoms: C_6  and  C_10 
DOCKED: REMARK    2  A    between atoms: C_10  and  C_11 
DOCKED: REMARK    3  A    between atoms: C_11  and  C_12 
DOCKED: REMARK    4  A    between atoms: C_12  and  O_14 
DOCKED: REMARK    5  A    between atoms: C_17  and  C_20 
DOCKED: REMARK    6  A    between atoms: C_24  and  C_27 
DOCKED: REMARK    7  A    between atoms: C_31  and  C_34 
DOCKED: REMARK    8  A    between atoms: C_34  and  C_35 
DOCKED: REMARK    9  A    between atoms: C_35  and  C_36 
DOCKED: REMARK   10  A    between atoms: C_36  and  O_38 
DOCKED: USER                              x       y       z     vdW  Elec       q    Type
DOCKED: USER                           _______ _______ _______ _____ _____    ______ ____
DOCKED: ROOT
DOCKED: ATOM      1  C   UNL d   1      43.689  28.151  18.039 -0.18 +0.02    +0.064 C 
DOCKED: ATOM      2  C   UNL d   1      40.449  25.463  15.449 -0.34 +0.01    +0.064 A 
DOCKED: ATOM      3  C   UNL d   1      38.196  29.515  14.194 -0.35 +0.01    +0.064 C 
DOCKED: ATOM      4  C   UNL d   1      41.258  32.126  16.781 -0.47 +0.01    +0.064 C 
DOCKED: ATOM      5  C   UNL d   1      42.937  27.012  17.495 -0.00 +0.02    +0.066 A 
DOCKED: ATOM      6  C   UNL d   1      43.228  25.681  17.743 -0.28 -0.01    -0.021 A 
DOCKED: ATOM      7  C   UNL d   1      42.330  24.935  17.020 -0.35 -0.01    -0.025 A 
DOCKED: ATOM      8  C   UNL d   1      41.524  25.841  16.358 -0.35 +0.01    +0.066 A 
DOCKED: ATOM      9  C   UNL d   1      42.247  23.439  16.990 -0.45 +0.01    +0.051 C 
DOCKED: ATOM     10  C   UNL d   1      39.621  26.315  14.842 -0.38 +0.01    +0.066 A 
DOCKED: ATOM     11  C   UNL d   1      38.676  25.930  13.889 -0.44 -0.00    -0.021 A 
DOCKED: ATOM     12  C   UNL d   1      38.024  27.083  13.499 -0.43 +0.00    +0.000 A 
DOCKED: ATOM     13  C   UNL d   1      38.617  28.123  14.236 -0.09 +0.02    +0.070 A 
DOCKED: ATOM     14  C   UNL d   1      38.451  24.542  13.326 -0.51 +0.01    +0.052 C 
DOCKED: ATOM     15  C   UNL d   1      38.798  30.527  14.863 -0.25 +0.01    +0.066 A 
DOCKED: ATOM     16  C   UNL d   1      38.305  31.826  14.875 -0.38 -0.00    -0.021 A 
DOCKED: ATOM     17  C   UNL d   1      39.188  32.581  15.618 -0.40 +0.00    +0.000 A 
DOCKED: ATOM     18  C   UNL d   1      40.204  31.725  16.038 -0.36 +0.01    +0.070 A 
DOCKED: ATOM     19  C   UNL d   1      37.066  32.344  14.196 -0.30 +0.00    +0.052 C 
DOCKED: ATOM     20  C   UNL d   1      42.313  31.242  17.292 -0.37 +0.01    +0.066 A 
DOCKED: ATOM     21  C   UNL d   1      43.508  31.669  17.888 -0.30 -0.01    -0.025 A 
DOCKED: ATOM     22  C   UNL d   1      44.180  30.519  18.250 -0.28 -0.01    -0.021 A 
DOCKED: ATOM     23  C   UNL d   1      43.375  29.443  17.858 -0.20 +0.02    +0.066 A 
DOCKED: ATOM     24  C   UNL d   1      44.003  33.080  18.105 -0.32 +0.01    +0.051 C 
DOCKED: ATOM     25  N   UNL d   1      41.890  27.103  16.656 -0.20 -0.06    -0.248 N 
DOCKED: ATOM     26  N   UNL d   1      39.597  27.656  15.048 -0.17 -0.07    -0.248 N 
DOCKED: ATOM     27  N   UNL d   1      39.942  30.453  15.611 +0.03 -0.07    -0.248 N 
DOCKED: ATOM     28  N   UNL d   1      42.258  29.890  17.234 -0.21 -0.06    -0.248 N 
DOCKED: ATOM     29 FE   UNL d   1      40.928  28.775  16.141 -0.09 +0.00    +0.000 Fe
DOCKED: ENDROOT
DOCKED: BRANCH   6  30
DOCKED: ATOM     30  C   UNL d   1      44.291  25.142  18.638 -0.22 +0.02    +0.052 C 
DOCKED: BRANCH  30  31
DOCKED: ATOM     31  C   UNL d   1      43.794  25.058  20.077 -0.27 +0.06    +0.115 C 
DOCKED: BRANCH  31  32
DOCKED: ATOM     32  C   UNL d   1      44.154  26.308  20.832 -0.24 +0.14    +0.139 C 
DOCKED: ATOM     33  O   UNL d   1      43.586  26.590  21.877 -0.53 -1.15    -0.650 OA
DOCKED: BRANCH  32  34
DOCKED: ATOM     34  O   UNL d   1      45.108  27.129  20.361 -0.02 -0.79    -0.776 OA
DOCKED: ATOM     35  H   UNL d   1      45.875  26.748  19.911 +0.04 +0.12    +0.167 HD
DOCKED: ENDBRANCH  32  34
DOCKED: ENDBRANCH  31  32
DOCKED: ENDBRANCH  30  31
DOCKED: ENDBRANCH   6  30
DOCKED: BRANCH  22  36
DOCKED: ATOM     36  C   UNL d   1      45.541  30.461  18.893 -0.22 +0.02    +0.052 C 
DOCKED: BRANCH  36  37
DOCKED: ATOM     37  C   UNL d   1      46.519  29.761  17.961 -0.15 +0.04    +0.115 C 
DOCKED: BRANCH  37  38
DOCKED: ATOM     38  C   UNL d   1      47.676  29.186  18.728 -0.09 +0.05    +0.139 C 
DOCKED: ATOM     39  O   UNL d   1      48.787  29.690  18.654 +0.02 -0.19    -0.650 OA
DOCKED: BRANCH  38  40
DOCKED: ATOM     40  O   UNL d   1      47.495  28.102  19.503 +0.04 -0.40    -0.776 OA
DOCKED: ATOM     41  H   UNL d   1      46.643  27.976  19.943 +0.03 +0.12    +0.167 HD
DOCKED: ENDBRANCH  38  40
DOCKED: ENDBRANCH  37  38
DOCKED: ENDBRANCH  36  37
DOCKED: ENDBRANCH  22  36
DOCKED: BRANCH  12  42
DOCKED: ATOM     42  C   UNL d   1      36.932  27.146  12.479 -0.57 +0.00    +0.004 C 
DOCKED: ATOM     43  C   UNL d   1      35.733  27.660  12.783 -0.63 +0.00    +0.012 C 
DOCKED: ENDBRANCH  12  42
DOCKED: BRANCH  17  44
DOCKED: ATOM     44  C   UNL d   1      39.058  34.024  15.923 -0.54 +0.00    +0.004 C 
DOCKED: ATOM     45  C   UNL d   1      39.568  34.947  15.100 -0.58 +0.00    +0.012 C 
DOCKED: ENDBRANCH  17  44
DOCKED: TORSDOF 10
DOCKED: TER
DOCKED: ENDMDL
________________________________________________________________________________


	BEGINNING GENETIC ALGORITHM DOCKING 26 of 100
Run: 26 Seed: 59402153 822631306 [ Run 26 of 100 GA/GALS ]
Beginning LAMARCKIAN GENETIC ALGORITHM (LGA), with a maximum of 25000000 energy evaluations.

Final-Value: -17.712


	FINAL GENETIC ALGORITHM DOCKED STATE
	_______________________________________________


Detailed state:  trans 41.191 28.537 16.552 quatxyzw -0.145329 -0.925774 -0.077118 0.340405 center -0.174 -0.001 -0.047 ntor 10 155.3079 44.3895 77.2194 -122.9476 -61.2554 137.8814 2.6533 -48.5243 -25.9408 14.9374
State:	 41.191  28.537  16.552  -0.155 -0.985 -0.082 140.197    155.31   44.39   77.22 -122.95  -61.26  137.88    2.65  -48.52  -25.94   14.94

DOCKED: MODEL       26
DOCKED: USER    Run = 26
DOCKED: USER    DPF = D:/Protein_go_brrr/autodock/final/6BB5/heme_Fe/dock.dpf
DOCKED: USER  
DOCKED: USER    Estimated Free Energy of Binding    =  -12.65 kcal/mol  [=(1)+(2)+(3)-(4)]
DOCKED: USER    Estimated Inhibition Constant, Ki   =  532.07 pM (picomolar)  [Temperature = 298.15 K]
DOCKED: USER    
DOCKED: USER    (1) Final Intermolecular Energy     =  -15.63 kcal/mol
DOCKED: USER        vdW + Hbond + desolv Energy     =  -13.97 kcal/mol
DOCKED: USER        Electrostatic Energy            =   -1.66 kcal/mol
DOCKED: USER    (2) Final Total Internal Energy     =   -2.08 kcal/mol
DOCKED: USER    (3) Torsional Free Energy           =   +2.98 kcal/mol
DOCKED: USER    (4) Unbound System's Energy  [=(2)] =   -2.08 kcal/mol
DOCKED: USER    
DOCKED: USER    
DOCKED: USER    NEWDPF move heme_Fe_opt.pdbqt
DOCKED: USER    NEWDPF about -0.174000 -0.001000 -0.047000
DOCKED: USER    NEWDPF tran0 41.191426 28.537216 16.551501
DOCKED: USER    NEWDPF quaternion0 -0.145329 -0.925774 -0.077118 0.340405
DOCKED: USER    NEWDPF axisangle0 -0.154560 -0.984573 -0.082016 140.196940
DOCKED: USER    NEWDPF quat0 -0.154560 -0.984573 -0.082016 140.196940
DOCKED: USER    NEWDPF dihe0 155.31 44.39 77.22 -122.95 -61.26 137.88 2.65 -48.52 -25.94 14.94 
DOCKED: USER  keepresnum = 1 
DOCKED: USER  
DOCKED: REMARK  10 active torsions:
DOCKED: REMARK  status: ('A' for Active; 'I' for Inactive)
DOCKED: REMARK    1  A    between atoms: C_6  and  C_10 
DOCKED: REMARK    2  A    between atoms: C_10  and  C_11 
DOCKED: REMARK    3  A    between atoms: C_11  and  C_12 
DOCKED: REMARK    4  A    between atoms: C_12  and  O_14 
DOCKED: REMARK    5  A    between atoms: C_17  and  C_20 
DOCKED: REMARK    6  A    between atoms: C_24  and  C_27 
DOCKED: REMARK    7  A    between atoms: C_31  and  C_34 
DOCKED: REMARK    8  A    between atoms: C_34  and  C_35 
DOCKED: REMARK    9  A    between atoms: C_35  and  C_36 
DOCKED: REMARK   10  A    between atoms: C_36  and  O_38 
DOCKED: USER                              x       y       z     vdW  Elec       q    Type
DOCKED: USER                           _______ _______ _______ _____ _____    ______ ____
DOCKED: ROOT
DOCKED: ATOM      1  C   UNL d   1      42.964  27.868  17.339 -0.10 +0.02    +0.064 C 
DOCKED: ATOM      2  C   UNL d   1      39.466  25.889  14.462 -0.40 +0.01    +0.064 A 
DOCKED: ATOM      3  C   UNL d   1      37.718  30.293  13.676 -0.40 +0.01    +0.064 C 
DOCKED: ATOM      4  C   UNL d   1      41.031  32.218  16.540 -0.48 +0.01    +0.064 C 
DOCKED: ATOM      5  C   UNL d   1      42.091  26.894  16.669 -0.25 +0.01    +0.066 A 
DOCKED: ATOM      6  C   UNL d   1      42.221  25.518  16.765 -0.35 -0.00    -0.021 A 
DOCKED: ATOM      7  C   UNL d   1      41.251  24.969  15.963 -0.40 -0.00    -0.025 A 
DOCKED: ATOM      8  C   UNL d   1      40.566  26.033  15.408 -0.39 +0.01    +0.066 A 
DOCKED: ATOM      9  C   UNL d   1      40.994  23.507  15.763 -0.52 +0.00    +0.051 C 
DOCKED: ATOM     10  C   UNL d   1      38.751  26.895  13.956 -0.37 +0.01    +0.066 A 
DOCKED: ATOM     11  C   UNL d   1      37.779  26.734  12.966 -0.44 -0.00    -0.021 A 
DOCKED: ATOM     12  C   UNL d   1      37.272  27.992  12.709 -0.50 +0.00    +0.000 A 
DOCKED: ATOM     13  C   UNL d   1      37.973  28.865  13.559 -0.33 +0.01    +0.070 A 
DOCKED: ATOM     14  C   UNL d   1      37.401  25.454  12.249 -0.29 +0.01    +0.052 C 
DOCKED: ATOM     15  C   UNL d   1      38.425  31.146  14.454 -0.36 +0.01    +0.066 A 
DOCKED: ATOM     16  C   UNL d   1      38.087  32.483  14.615 -0.38 -0.00    -0.021 A 
DOCKED: ATOM     17  C   UNL d   1      39.043  33.042  15.438 -0.43 +0.00    +0.000 A 
DOCKED: ATOM     18  C   UNL d   1      39.946  32.030  15.757 -0.36 +0.01    +0.070 A 
DOCKED: ATOM     19  C   UNL d   1      36.926  33.217  13.999 -0.44 +0.00    +0.052 C 
DOCKED: ATOM     20  C   UNL d   1      41.968  31.164  16.948 -0.37 +0.01    +0.066 A 
DOCKED: ATOM     21  C   UNL d   1      43.197  31.377  17.588 -0.29 -0.01    -0.025 A 
DOCKED: ATOM     22  C   UNL d   1      43.725  30.123  17.817 -0.30 -0.01    -0.021 A 
DOCKED: ATOM     23  C   UNL d   1      42.805  29.200  17.306 -0.18 +0.02    +0.066 A 
DOCKED: ATOM     24  C   UNL d   1      43.851  32.686  17.963 -0.32 +0.01    +0.051 C 
DOCKED: ATOM     25  N   UNL d   1      41.073  27.202  15.847 -0.25 -0.05    -0.248 N 
DOCKED: ATOM     26  N   UNL d   1      38.881  28.198  14.313 -0.07 -0.07    -0.248 N 
DOCKED: ATOM     27  N   UNL d   1      39.543  30.854  15.189 -0.14 -0.05    -0.248 N 
DOCKED: ATOM     28  N   UNL d   1      41.757  29.843  16.737 -0.22 -0.05    -0.248 N 
DOCKED: ATOM     29 FE   UNL d   1      40.319  29.022  15.525 -0.09 +0.00    +0.000 Fe
DOCKED: ENDROOT
DOCKED: BRANCH   6  30
DOCKED: ATOM     30  C   UNL d   1      43.202  24.761  17.593 -0.32 +0.01    +0.052 C 
DOCKED: BRANCH  30  31
DOCKED: ATOM     31  C   UNL d   1      42.977  25.028  19.077 -0.34 +0.04    +0.115 C 
DOCKED: BRANCH  31  32
DOCKED: ATOM     32  C   UNL d   1      44.010  24.313  19.903 -0.25 +0.06    +0.139 C 
DOCKED: ATOM     33  O   UNL d   1      44.096  23.093  19.874 -0.46 -0.30    -0.650 OA
DOCKED: BRANCH  32  34
DOCKED: ATOM     34  O   UNL d   1      44.851  25.012  20.684 +0.07 -0.52    -0.776 OA
DOCKED: ATOM     35  H   UNL d   1      45.043  25.933  20.460 +0.05 +0.14    +0.167 HD
DOCKED: ENDBRANCH  32  34
DOCKED: ENDBRANCH  31  32
DOCKED: ENDBRANCH  30  31
DOCKED: ENDBRANCH   6  30
DOCKED: BRANCH  22  36
DOCKED: ATOM     36  C   UNL d   1      45.062  29.834  18.449 -0.24 +0.02    +0.052 C 
DOCKED: BRANCH  36  37
DOCKED: ATOM     37  C   UNL d   1      44.857  29.185  19.809 -0.20 +0.08    +0.115 C 
DOCKED: BRANCH  37  38
DOCKED: ATOM     38  C   UNL d   1      45.697  27.947  19.948 -0.16 +0.11    +0.139 C 
DOCKED: ATOM     39  O   UNL d   1      46.294  27.710  20.988 -0.40 -0.90    -0.650 OA
DOCKED: BRANCH  38  40
DOCKED: ATOM     40  O   UNL d   1      45.801  27.087  18.919 +0.07 -0.42    -0.776 OA
DOCKED: ATOM     41  H   UNL d   1      45.733  26.138  19.091 +0.05 +0.09    +0.167 HD
DOCKED: ENDBRANCH  38  40
DOCKED: ENDBRANCH  37  38
DOCKED: ENDBRANCH  36  37
DOCKED: ENDBRANCH  22  36
DOCKED: BRANCH  12  42
DOCKED: ATOM     42  C   UNL d   1      36.208  28.298  11.703 -0.69 +0.00    +0.004 C 
DOCKED: ATOM     43  C   UNL d   1      35.091  28.946  12.057 -0.58 +0.00    +0.012 C 
DOCKED: ENDBRANCH  12  42
DOCKED: BRANCH  17  44
DOCKED: ATOM     44  C   UNL d   1      39.079  34.446  15.904 -0.58 +0.00    +0.004 C 
DOCKED: ATOM     45  C   UNL d   1      39.335  35.444  15.052 -0.60 +0.00    +0.012 C 
DOCKED: ENDBRANCH  17  44
DOCKED: TORSDOF 10
DOCKED: TER
DOCKED: ENDMDL
________________________________________________________________________________


	BEGINNING GENETIC ALGORITHM DOCKING 27 of 100
Run: 27 Seed: 105537769 1079847902 [ Run 27 of 100 GA/GALS ]
Beginning LAMARCKIAN GENETIC ALGORITHM (LGA), with a maximum of 25000000 energy evaluations.

Final-Value: -17.308


	FINAL GENETIC ALGORITHM DOCKED STATE
	_______________________________________________


Detailed state:  trans 41.215 28.254 16.558 quatxyzw -0.150499 -0.927712 -0.079172 0.332313 center -0.174 -0.001 -0.047 ntor 10 -64.8196 82.5512 91.0644 -126.2841 121.9372 -99.1126 -57.1548 -69.9748 -162.1476 -16.7624
State:	 41.215  28.254  16.558  -0.160 -0.984 -0.084 141.182    -64.82   82.55   91.06 -126.28  121.94  -99.11  -57.15  -69.97 -162.15  -16.76

DOCKED: MODEL       27
DOCKED: USER    Run = 27
DOCKED: USER    DPF = D:/Protein_go_brrr/autodock/final/6BB5/heme_Fe/dock.dpf
DOCKED: USER  
DOCKED: USER    Estimated Free Energy of Binding    =  -12.35 kcal/mol  [=(1)+(2)+(3)-(4)]
DOCKED: USER    Estimated Inhibition Constant, Ki   =  892.32 pM (picomolar)  [Temperature = 298.15 K]
DOCKED: USER    
DOCKED: USER    (1) Final Intermolecular Energy     =  -15.33 kcal/mol
DOCKED: USER        vdW + Hbond + desolv Energy     =  -13.27 kcal/mol
DOCKED: USER        Electrostatic Energy            =   -2.06 kcal/mol
DOCKED: USER    (2) Final Total Internal Energy     =   -1.98 kcal/mol
DOCKED: USER    (3) Torsional Free Energy           =   +2.98 kcal/mol
DOCKED: USER    (4) Unbound System's Energy  [=(2)] =   -1.98 kcal/mol
DOCKED: USER    
DOCKED: USER    
DOCKED: USER    NEWDPF move heme_Fe_opt.pdbqt
DOCKED: USER    NEWDPF about -0.174000 -0.001000 -0.047000
DOCKED: USER    NEWDPF tran0 41.215480 28.253573 16.557700
DOCKED: USER    NEWDPF quaternion0 -0.150499 -0.927712 -0.079172 0.332313
DOCKED: USER    NEWDPF axisangle0 -0.159567 -0.983612 -0.083943 141.181526
DOCKED: USER    NEWDPF quat0 -0.159567 -0.983612 -0.083943 141.181526
DOCKED: USER    NEWDPF dihe0 -64.82 82.55 91.06 -126.28 121.94 -99.11 -57.15 -69.97 -162.15 -16.76 
DOCKED: USER  keepresnum = 1 
DOCKED: USER  
DOCKED: REMARK  10 active torsions:
DOCKED: REMARK  status: ('A' for Active; 'I' for Inactive)
DOCKED: REMARK    1  A    between atoms: C_6  and  C_10 
DOCKED: REMARK    2  A    between atoms: C_10  and  C_11 
DOCKED: REMARK    3  A    between atoms: C_11  and  C_12 
DOCKED: REMARK    4  A    between atoms: C_12  and  O_14 
DOCKED: REMARK    5  A    between atoms: C_17  and  C_20 
DOCKED: REMARK    6  A    between atoms: C_24  and  C_27 
DOCKED: REMARK    7  A    between atoms: C_31  and  C_34 
DOCKED: REMARK    8  A    between atoms: C_34  and  C_35 
DOCKED: REMARK    9  A    between atoms: C_35  and  C_36 
DOCKED: REMARK   10  A    between atoms: C_36  and  O_38 
DOCKED: USER                              x       y       z     vdW  Elec       q    Type
DOCKED: USER                           _______ _______ _______ _____ _____    ______ ____
DOCKED: ROOT
DOCKED: ATOM      1  C   UNL d   1      42.997  27.566  17.310 -0.17 +0.02    +0.064 C 
DOCKED: ATOM      2  C   UNL d   1      39.439  25.636  14.473 -0.40 +0.01    +0.064 A 
DOCKED: ATOM      3  C   UNL d   1      37.707  30.058  13.756 -0.39 +0.01    +0.064 C 
DOCKED: ATOM      4  C   UNL d   1      41.078  31.935  16.584 -0.47 +0.01    +0.064 C 
DOCKED: ATOM      5  C   UNL d   1      42.106  26.604  16.645 -0.30 +0.01    +0.066 A 
DOCKED: ATOM      6  C   UNL d   1      42.229  25.226  16.726 -0.35 -0.00    -0.021 A 
DOCKED: ATOM      7  C   UNL d   1      41.243  24.691  15.935 -0.41 -0.00    -0.025 A 
DOCKED: ATOM      8  C   UNL d   1      40.555  25.764  15.401 -0.38 +0.01    +0.066 A 
DOCKED: ATOM      9  C   UNL d   1      40.973  23.233  15.726 -0.52 +0.00    +0.051 C 
DOCKED: ATOM     10  C   UNL d   1      38.722  26.651  13.988 -0.38 +0.01    +0.066 A 
DOCKED: ATOM     11  C   UNL d   1      37.733  26.506  13.012 -0.44 -0.00    -0.021 A 
DOCKED: ATOM     12  C   UNL d   1      37.230  27.770  12.776 -0.50 +0.00    +0.000 A 
DOCKED: ATOM     13  C   UNL d   1      37.950  28.630  13.622 -0.34 +0.01    +0.070 A 
DOCKED: ATOM     14  C   UNL d   1      37.335  25.235  12.290 -0.40 +0.01    +0.052 C 
DOCKED: ATOM     15  C   UNL d   1      38.432  30.899  14.531 -0.35 +0.01    +0.066 A 
DOCKED: ATOM     16  C   UNL d   1      38.105  32.237  14.709 -0.38 -0.00    -0.021 A 
DOCKED: ATOM     17  C   UNL d   1      39.079  32.782  15.522 -0.41 +0.00    +0.000 A 
DOCKED: ATOM     18  C   UNL d   1      39.980  31.761  15.817 -0.35 +0.01    +0.070 A 
DOCKED: ATOM     19  C   UNL d   1      36.939  32.984  14.120 -0.41 +0.00    +0.052 C 
DOCKED: ATOM     20  C   UNL d   1      42.015  30.872  16.966 -0.35 +0.01    +0.066 A 
DOCKED: ATOM     21  C   UNL d   1      43.256  31.071  17.587 -0.30 -0.01    -0.025 A 
DOCKED: ATOM     22  C   UNL d   1      43.780  29.812  17.796 -0.29 -0.01    -0.021 A 
DOCKED: ATOM     23  C   UNL d   1      42.846  28.899  17.291 -0.14 +0.02    +0.066 A 
DOCKED: ATOM     24  C   UNL d   1      43.925  32.373  17.964 -0.30 +0.01    +0.051 C 
DOCKED: ATOM     25  N   UNL d   1      41.077  26.926  15.843 -0.27 -0.05    -0.248 N 
DOCKED: ATOM     26  N   UNL d   1      38.866  27.950  14.355 -0.14 -0.06    -0.248 N 
DOCKED: ATOM     27  N   UNL d   1      39.560  30.593  15.244 -0.01 -0.06    -0.248 N 
DOCKED: ATOM     28  N   UNL d   1      41.792  29.554  16.746 -0.20 -0.05    -0.248 N 
DOCKED: ATOM     29 FE   UNL d   1      40.330  28.754  15.551 -0.09 +0.00    +0.000 Fe
DOCKED: ENDROOT
DOCKED: BRANCH   6  30
DOCKED: ATOM     30  C   UNL d   1      43.218  24.455  17.530 -0.33 +0.01    +0.052 C 
DOCKED: BRANCH  30  31
DOCKED: ATOM     31  C   UNL d   1      44.609  24.548  16.911 -0.20 +0.04    +0.115 C 
DOCKED: BRANCH  31  32
DOCKED: ATOM     32  C   UNL d   1      45.591  25.103  17.905 -0.14 +0.06    +0.139 C 
DOCKED: ATOM     33  O   UNL d   1      46.585  24.465  18.222 +0.04 -0.35    -0.650 OA
DOCKED: BRANCH  32  34
DOCKED: ATOM     34  O   UNL d   1      45.384  26.311  18.456 +0.09 -0.36    -0.776 OA
DOCKED: ATOM     35  H   UNL d   1      45.224  26.371  19.408 +0.06 +0.10    +0.167 HD
DOCKED: ENDBRANCH  32  34
DOCKED: ENDBRANCH  31  32
DOCKED: ENDBRANCH  30  31
DOCKED: ENDBRANCH   6  30
DOCKED: BRANCH  22  36
DOCKED: ATOM     36  C   UNL d   1      45.125  29.508  18.403 -0.23 +0.02    +0.052 C 
DOCKED: BRANCH  36  37
DOCKED: ATOM     37  C   UNL d   1      45.038  29.607  19.918 -0.15 +0.08    +0.115 C 
DOCKED: BRANCH  37  38
DOCKED: ATOM     38  C   UNL d   1      45.135  28.249  20.554 -0.11 +0.17    +0.139 C 
DOCKED: ATOM     39  O   UNL d   1      44.130  27.656  20.917 -0.20 -0.98    -0.650 OA
DOCKED: BRANCH  38  40
DOCKED: ATOM     40  O   UNL d   1      46.338  27.674  20.730 -0.24 -0.90    -0.776 OA
DOCKED: ATOM     41  H   UNL d   1      46.649  27.026  20.083 +0.03 +0.12    +0.167 HD
DOCKED: ENDBRANCH  38  40
DOCKED: ENDBRANCH  37  38
DOCKED: ENDBRANCH  36  37
DOCKED: ENDBRANCH  22  36
DOCKED: BRANCH  12  42
DOCKED: ATOM     42  C   UNL d   1      36.152  28.091  11.790 -0.69 +0.00    +0.004 C 
DOCKED: ATOM     43  C   UNL d   1      35.184  28.968  12.089 -0.63 +0.00    +0.012 C 
DOCKED: ENDBRANCH  12  42
DOCKED: BRANCH  17  44
DOCKED: ATOM     44  C   UNL d   1      39.131  34.181  16.001 -0.56 +0.00    +0.004 C 
DOCKED: ATOM     45  C   UNL d   1      39.444  35.179  15.167 -0.59 +0.00    +0.012 C 
DOCKED: ENDBRANCH  17  44
DOCKED: TORSDOF 10
DOCKED: TER
DOCKED: ENDMDL
________________________________________________________________________________


	BEGINNING GENETIC ALGORITHM DOCKING 28 of 100
Run: 28 Seed: 1694282862 796316878 [ Run 28 of 100 GA/GALS ]
Beginning LAMARCKIAN GENETIC ALGORITHM (LGA), with a maximum of 25000000 energy evaluations.

Final-Value: -10.537


	FINAL GENETIC ALGORITHM DOCKED STATE
	_______________________________________________


Detailed state:  trans 26.070 36.970 -2.166 quatxyzw -0.391471 -0.806863 0.069499 0.436914 center -0.174 -0.001 -0.047 ntor 10 165.0896 -97.3010 31.8177 46.8117 94.4030 111.9029 51.0842 88.9409 -36.5563 171.7538
State:	 26.070  36.970  -2.166  -0.435 -0.897  0.077 128.186    165.09  -97.30   31.82   46.81   94.40  111.90   51.08   88.94  -36.56  171.75

DOCKED: MODEL       28
DOCKED: USER    Run = 28
DOCKED: USER    DPF = D:/Protein_go_brrr/autodock/final/6BB5/heme_Fe/dock.dpf
DOCKED: USER  
DOCKED: USER    Estimated Free Energy of Binding    =   -6.46 kcal/mol  [=(1)+(2)+(3)-(4)]
DOCKED: USER    Estimated Inhibition Constant, Ki   =   18.42 uM (micromolar)  [Temperature = 298.15 K]
DOCKED: USER    
DOCKED: USER    (1) Final Intermolecular Energy     =   -9.44 kcal/mol
DOCKED: USER        vdW + Hbond + desolv Energy     =   -7.21 kcal/mol
DOCKED: USER        Electrostatic Energy            =   -2.23 kcal/mol
DOCKED: USER    (2) Final Total Internal Energy     =   -1.09 kcal/mol
DOCKED: USER    (3) Torsional Free Energy           =   +2.98 kcal/mol
DOCKED: USER    (4) Unbound System's Energy  [=(2)] =   -1.09 kcal/mol
DOCKED: USER    
DOCKED: USER    
DOCKED: USER    NEWDPF move heme_Fe_opt.pdbqt
DOCKED: USER    NEWDPF about -0.174000 -0.001000 -0.047000
DOCKED: USER    NEWDPF tran0 26.070412 36.970329 -2.165503
DOCKED: USER    NEWDPF quaternion0 -0.391471 -0.806863 0.069499 0.436914
DOCKED: USER    NEWDPF axisangle0 -0.435207 -0.897009 0.077264 128.185751
DOCKED: USER    NEWDPF quat0 -0.435207 -0.897009 0.077264 128.185751
DOCKED: USER    NEWDPF dihe0 165.09 -97.30 31.82 46.81 94.40 111.90 51.08 88.94 -36.56 171.75 
DOCKED: USER  keepresnum = 1 
DOCKED: USER  
DOCKED: REMARK  10 active torsions:
DOCKED: REMARK  status: ('A' for Active; 'I' for Inactive)
DOCKED: REMARK    1  A    between atoms: C_6  and  C_10 
DOCKED: REMARK    2  A    between atoms: C_10  and  C_11 
DOCKED: REMARK    3  A    between atoms: C_11  and  C_12 
DOCKED: REMARK    4  A    between atoms: C_12  and  O_14 
DOCKED: REMARK    5  A    between atoms: C_17  and  C_20 
DOCKED: REMARK    6  A    between atoms: C_24  and  C_27 
DOCKED: REMARK    7  A    between atoms: C_31  and  C_34 
DOCKED: REMARK    8  A    between atoms: C_34  and  C_35 
DOCKED: REMARK    9  A    between atoms: C_35  and  C_36 
DOCKED: REMARK   10  A    between atoms: C_36  and  O_38 
DOCKED: USER                              x       y       z     vdW  Elec       q    Type
DOCKED: USER                           _______ _______ _______ _____ _____    ______ ____
DOCKED: ROOT
DOCKED: ATOM      1  C   UNL d   1      26.993  35.557  -0.998 -0.18 +0.01    +0.064 C 
DOCKED: ATOM      2  C   UNL d   1      23.426  35.457  -4.418 -0.24 -0.01    +0.064 A 
DOCKED: ATOM      3  C   UNL d   1      24.701  39.883  -5.779 -0.18 +0.01    +0.064 C 
DOCKED: ATOM      4  C   UNL d   1      28.090  40.042  -2.406 -0.14 +0.01    +0.064 C 
DOCKED: ATOM      5  C   UNL d   1      25.817  35.151  -1.779 -0.14 +0.00    +0.066 A 
DOCKED: ATOM      6  C   UNL d   1      25.105  33.978  -1.585 -0.27 +0.00    -0.021 A 
DOCKED: ATOM      7  C   UNL d   1      24.117  33.950  -2.538 -0.33 +0.01    -0.025 A 
DOCKED: ATOM      8  C   UNL d   1      24.263  35.107  -3.277 -0.22 -0.01    +0.066 A 
DOCKED: ATOM      9  C   UNL d   1      23.085  32.877  -2.708 -0.38 -0.02    +0.051 C 
DOCKED: ATOM     10  C   UNL d   1      23.509  36.593  -5.112 -0.15 -0.00    +0.066 A 
DOCKED: ATOM     11  C   UNL d   1      22.771  36.850  -6.270 -0.18 -0.00    -0.021 A 
DOCKED: ATOM     12  C   UNL d   1      23.133  38.114  -6.692 -0.18 +0.00    +0.000 A 
DOCKED: ATOM     13  C   UNL d   1      24.089  38.564  -5.765 -0.16 +0.01    +0.070 A 
DOCKED: ATOM     14  C   UNL d   1      21.818  35.909  -6.980 -0.16 +0.00    +0.052 C 
DOCKED: ATOM     15  C   UNL d   1      25.660  40.302  -4.919 -0.19 +0.01    +0.066 A 
DOCKED: ATOM     16  C   UNL d   1      26.148  41.603  -4.903 -0.14 -0.00    -0.021 A 
DOCKED: ATOM     17  C   UNL d   1      27.128  41.650  -3.933 -0.13 +0.00    +0.000 A 
DOCKED: ATOM     18  C   UNL d   1      27.218  40.374  -3.382 -0.15 +0.01    +0.070 A 
DOCKED: ATOM     19  C   UNL d   1      25.729  42.752  -5.781 -0.09 +0.00    +0.052 C 
DOCKED: ATOM     20  C   UNL d   1      28.171  38.727  -1.760 -0.13 +0.00    +0.066 A 
DOCKED: ATOM     21  C   UNL d   1      29.193  38.311  -0.895 -0.09 -0.00    -0.025 A 
DOCKED: ATOM     22  C   UNL d   1      28.854  37.034  -0.496 -0.10 -0.00    -0.021 A 
DOCKED: ATOM     23  C   UNL d   1      27.648  36.721  -1.134 -0.13 +0.01    +0.066 A 
DOCKED: ATOM     24  C   UNL d   1      30.430  39.065  -0.464 -0.04 +0.00    +0.051 C 
DOCKED: ATOM     25  N   UNL d   1      25.292  35.841  -2.807 -0.16 +0.01    -0.248 N 
DOCKED: ATOM     26  N   UNL d   1      24.325  37.634  -4.807 -0.14 -0.01    -0.248 N 
DOCKED: ATOM     27  N   UNL d   1      26.286  39.556  -3.957 -0.15 -0.02    -0.248 N 
DOCKED: ATOM     28  N   UNL d   1      27.259  37.740  -1.939 -0.13 -0.02    -0.248 N 
DOCKED: ATOM     29 FE   UNL d   1      25.794  37.689  -3.372 -0.06 +0.00    +0.000 Fe
DOCKED: ENDROOT
DOCKED: BRANCH   6  30
DOCKED: ATOM     30  C   UNL d   1      25.337  32.946  -0.536 +0.10 -0.00    +0.052 C 
DOCKED: BRANCH  30  31
DOCKED: ATOM     31  C   UNL d   1      25.370  33.582   0.850 -0.32 +0.00    +0.115 C 
DOCKED: BRANCH  31  32
DOCKED: ATOM     32  C   UNL d   1      26.604  33.155   1.595 -0.28 +0.08    +0.139 C 
DOCKED: ATOM     33  O   UNL d   1      27.614  33.844   1.576 +0.01 -0.53    -0.650 OA
DOCKED: BRANCH  32  34
DOCKED: ATOM     34  O   UNL d   1      26.607  32.006   2.292 -0.54 -0.85    -0.776 OA
DOCKED: ATOM     35  H   UNL d   1      25.764  31.574   2.490 -0.42 -0.05    +0.167 HD
DOCKED: ENDBRANCH  32  34
DOCKED: ENDBRANCH  31  32
DOCKED: ENDBRANCH  30  31
DOCKED: ENDBRANCH   6  30
DOCKED: BRANCH  22  36
DOCKED: ATOM     36  C   UNL d   1      29.670  36.149   0.409 -0.07 +0.01    +0.052 C 
DOCKED: BRANCH  36  37
DOCKED: ATOM     37  C   UNL d   1      30.611  35.291  -0.424 -0.03 +0.03    +0.115 C 
DOCKED: BRANCH  37  38
DOCKED: ATOM     38  C   UNL d   1      29.976  33.973  -0.766 -0.05 +0.07    +0.139 C 
DOCKED: ATOM     39  O   UNL d   1      29.667  33.709  -1.919 +0.01 -0.19    -0.650 OA
DOCKED: BRANCH  38  40
DOCKED: ATOM     40  O   UNL d   1      29.740  33.070   0.202 -0.35 -1.09    -0.776 OA
DOCKED: ATOM     41  H   UNL d   1      28.941  33.157   0.741 +0.04 +0.30    +0.167 HD
DOCKED: ENDBRANCH  38  40
DOCKED: ENDBRANCH  37  38
DOCKED: ENDBRANCH  36  37
DOCKED: ENDBRANCH  22  36
DOCKED: BRANCH  12  42
DOCKED: ATOM     42  C   UNL d   1      22.595  38.797  -7.909 -0.16 +0.00    +0.004 C 
DOCKED: ATOM     43  C   UNL d   1      21.396  39.393  -7.891 -0.26 +0.00    +0.012 C 
DOCKED: ENDBRANCH  12  42
DOCKED: BRANCH  17  44
DOCKED: ATOM     44  C   UNL d   1      27.913  42.844  -3.545 -0.07 +0.00    +0.004 C 
DOCKED: ATOM     45  C   UNL d   1      27.601  43.541  -2.447 -0.10 +0.00    +0.012 C 
DOCKED: ENDBRANCH  17  44
DOCKED: TORSDOF 10
DOCKED: TER
DOCKED: ENDMDL
________________________________________________________________________________


	BEGINNING GENETIC ALGORITHM DOCKING 29 of 100
Run: 29 Seed: 1312644688 1620698239 [ Run 29 of 100 GA/GALS ]
Beginning LAMARCKIAN GENETIC ALGORITHM (LGA), with a maximum of 25000000 energy evaluations.

Final-Value: -16.100


	FINAL GENETIC ALGORITHM DOCKED STATE
	_______________________________________________


Detailed state:  trans 41.272 28.755 16.595 quatxyzw 0.111262 0.929983 0.075893 -0.342042 center -0.174 -0.001 -0.047 ntor 10 -87.6960 97.6065 69.8425 -130.1508 148.6559 -109.2318 74.8385 25.0251 -19.4050 171.8886
State:	 41.272  28.755  16.595   0.118  0.990  0.081 -139.997    -87.70   97.61   69.84 -130.15  148.66 -109.23   74.84   25.03  -19.41  171.89

DOCKED: MODEL       29
DOCKED: USER    Run = 29
DOCKED: USER    DPF = D:/Protein_go_brrr/autodock/final/6BB5/heme_Fe/dock.dpf
DOCKED: USER  
DOCKED: USER    Estimated Free Energy of Binding    =  -11.39 kcal/mol  [=(1)+(2)+(3)-(4)]
DOCKED: USER    Estimated Inhibition Constant, Ki   =    4.47 nM (nanomolar)  [Temperature = 298.15 K]
DOCKED: USER    
DOCKED: USER    (1) Final Intermolecular Energy     =  -14.37 kcal/mol
DOCKED: USER        vdW + Hbond + desolv Energy     =  -13.00 kcal/mol
DOCKED: USER        Electrostatic Energy            =   -1.38 kcal/mol
DOCKED: USER    (2) Final Total Internal Energy     =   -1.73 kcal/mol
DOCKED: USER    (3) Torsional Free Energy           =   +2.98 kcal/mol
DOCKED: USER    (4) Unbound System's Energy  [=(2)] =   -1.73 kcal/mol
DOCKED: USER    
DOCKED: USER    
DOCKED: USER    NEWDPF move heme_Fe_opt.pdbqt
DOCKED: USER    NEWDPF about -0.174000 -0.001000 -0.047000
DOCKED: USER    NEWDPF tran0 41.271808 28.755061 16.595151
DOCKED: USER    NEWDPF quaternion0 0.111262 0.929983 0.075893 -0.342042
DOCKED: USER    NEWDPF axisangle0 0.118404 0.989676 0.080764 -139.997308
DOCKED: USER    NEWDPF quat0 0.118404 0.989676 0.080764 -139.997308
DOCKED: USER    NEWDPF dihe0 -87.70 97.61 69.84 -130.15 148.66 -109.23 74.84 25.03 -19.41 171.89 
DOCKED: USER  keepresnum = 1 
DOCKED: USER  
DOCKED: REMARK  10 active torsions:
DOCKED: REMARK  status: ('A' for Active; 'I' for Inactive)
DOCKED: REMARK    1  A    between atoms: C_6  and  C_10 
DOCKED: REMARK    2  A    between atoms: C_10  and  C_11 
DOCKED: REMARK    3  A    between atoms: C_11  and  C_12 
DOCKED: REMARK    4  A    between atoms: C_12  and  O_14 
DOCKED: REMARK    5  A    between atoms: C_17  and  C_20 
DOCKED: REMARK    6  A    between atoms: C_24  and  C_27 
DOCKED: REMARK    7  A    between atoms: C_31  and  C_34 
DOCKED: REMARK    8  A    between atoms: C_34  and  C_35 
DOCKED: REMARK    9  A    between atoms: C_35  and  C_36 
DOCKED: REMARK   10  A    between atoms: C_36  and  O_38 
DOCKED: USER                              x       y       z     vdW  Elec       q    Type
DOCKED: USER                           _______ _______ _______ _____ _____    ______ ____
DOCKED: ROOT
DOCKED: ATOM      1  C   UNL d   1      43.079  28.220  17.408 -0.04 +0.02    +0.064 C 
DOCKED: ATOM      2  C   UNL d   1      39.729  25.948  14.570 -0.40 +0.01    +0.064 A 
DOCKED: ATOM      3  C   UNL d   1      37.712  30.211  13.659 -0.40 +0.01    +0.064 C 
DOCKED: ATOM      4  C   UNL d   1      40.879  32.417  16.485 -0.48 +0.01    +0.064 C 
DOCKED: ATOM      5  C   UNL d   1      42.272  27.176  16.761 -0.13 +0.02    +0.066 A 
DOCKED: ATOM      6  C   UNL d   1      42.488  25.814  16.894 -0.33 -0.00    -0.021 A 
DOCKED: ATOM      7  C   UNL d   1      41.560  25.184  16.102 -0.39 -0.00    -0.025 A 
DOCKED: ATOM      8  C   UNL d   1      40.812  26.187  15.516 -0.39 +0.01    +0.066 A 
DOCKED: ATOM      9  C   UNL d   1      41.397  23.704  15.941 -0.49 +0.01    +0.051 C 
DOCKED: ATOM     10  C   UNL d   1      38.955  26.894  14.035 -0.37 +0.01    +0.066 A 
DOCKED: ATOM     11  C   UNL d   1      38.002  26.646  13.045 -0.43 -0.00    -0.021 A 
DOCKED: ATOM     12  C   UNL d   1      37.417  27.862  12.752 -0.50 +0.00    +0.000 A 
DOCKED: ATOM     13  C   UNL d   1      38.057  28.800  13.582 -0.32 +0.01    +0.070 A 
DOCKED: ATOM     14  C   UNL d   1      37.709  25.326  12.361 -0.28 +0.01    +0.052 C 
DOCKED: ATOM     15  C   UNL d   1      38.359  31.127  14.417 -0.36 +0.01    +0.066 A 
DOCKED: ATOM     16  C   UNL d   1      37.936  32.444  14.540 -0.38 -0.00    -0.021 A 
DOCKED: ATOM     17  C   UNL d   1      38.850  33.084  15.352 -0.43 +0.00    +0.000 A 
DOCKED: ATOM     18  C   UNL d   1      39.813  32.140  15.703 -0.37 +0.01    +0.070 A 
DOCKED: ATOM     19  C   UNL d   1      36.735  33.087  13.901 -0.42 +0.00    +0.052 C 
DOCKED: ATOM     20  C   UNL d   1      41.879  31.436  16.925 -0.38 +0.01    +0.066 A 
DOCKED: ATOM     21  C   UNL d   1      43.088  31.742  17.564 -0.30 -0.00    -0.025 A 
DOCKED: ATOM     22  C   UNL d   1      43.693  30.531  17.829 -0.30 -0.01    -0.021 A 
DOCKED: ATOM     23  C   UNL d   1      42.836  29.539  17.338 -0.25 +0.02    +0.066 A 
DOCKED: ATOM     24  C   UNL d   1      43.656  33.100  17.907 -0.31 +0.01    +0.051 C 
DOCKED: ATOM     25  N   UNL d   1      41.242  27.397  15.926 -0.25 -0.06    -0.248 N 
DOCKED: ATOM     26  N   UNL d   1      39.001  28.212  14.357 -0.04 -0.07    -0.248 N 
DOCKED: ATOM     27  N   UNL d   1      39.488  30.926  15.164 -0.19 -0.05    -0.248 N 
DOCKED: ATOM     28  N   UNL d   1      41.752  30.098  16.748 -0.23 -0.05    -0.248 N 
DOCKED: ATOM     29 FE   UNL d   1      40.377  29.157  15.553 -0.09 +0.00    +0.000 Fe
DOCKED: ENDROOT
DOCKED: BRANCH   6  30
DOCKED: ATOM     30  C   UNL d   1      43.510  25.142  17.745 -0.29 +0.02    +0.052 C 
DOCKED: BRANCH  30  31
DOCKED: ATOM     31  C   UNL d   1      43.169  25.299  19.223 -0.28 +0.04    +0.115 C 
DOCKED: BRANCH  31  32
DOCKED: ATOM     32  C   UNL d   1      44.073  26.313  19.867 -0.22 +0.09    +0.139 C 
DOCKED: ATOM     33  O   UNL d   1      43.674  27.004  20.795 -0.26 -0.76    -0.650 OA
DOCKED: BRANCH  32  34
DOCKED: ATOM     34  O   UNL d   1      45.332  26.472  19.426 +0.08 -0.47    -0.776 OA
DOCKED: ATOM     35  H   UNL d   1      45.512  27.136  18.746 +0.05 +0.08    +0.167 HD
DOCKED: ENDBRANCH  32  34
DOCKED: ENDBRANCH  31  32
DOCKED: ENDBRANCH  30  31
DOCKED: ENDBRANCH   6  30
DOCKED: BRANCH  22  36
DOCKED: ATOM     36  C   UNL d   1      45.041  30.343  18.473 -0.25 +0.02    +0.052 C 
DOCKED: BRANCH  36  37
DOCKED: ATOM     37  C   UNL d   1      46.119  30.284  17.401 -0.12 +0.03    +0.115 C 
DOCKED: BRANCH  37  38
DOCKED: ATOM     38  C   UNL d   1      47.328  29.540  17.893 -0.10 +0.04    +0.139 C 
DOCKED: ATOM     39  O   UNL d   1      48.371  30.131  18.131 +0.02 -0.17    -0.650 OA
DOCKED: BRANCH  38  40
DOCKED: ATOM     40  O   UNL d   1      47.271  28.209  18.074 +0.04 -0.30    -0.776 OA
DOCKED: ATOM     41  H   UNL d   1      46.897  27.862  18.896 +0.04 +0.08    +0.167 HD
DOCKED: ENDBRANCH  38  40
DOCKED: ENDBRANCH  37  38
DOCKED: ENDBRANCH  36  37
DOCKED: ENDBRANCH  22  36
DOCKED: BRANCH  12  42
DOCKED: ATOM     42  C   UNL d   1      36.342  28.073  11.734 -0.69 +0.00    +0.004 C 
DOCKED: ATOM     43  C   UNL d   1      35.132  28.522  12.092 -0.63 +0.00    +0.012 C 
DOCKED: ENDBRANCH  12  42
DOCKED: BRANCH  17  44
DOCKED: ATOM     44  C   UNL d   1      38.795  34.499  15.781 -0.55 +0.00    +0.004 C 
DOCKED: ATOM     45  C   UNL d   1      39.131  35.483  14.941 -0.61 +0.00    +0.012 C 
DOCKED: ENDBRANCH  17  44
DOCKED: TORSDOF 10
DOCKED: TER
DOCKED: ENDMDL
________________________________________________________________________________


	BEGINNING GENETIC ALGORITHM DOCKING 30 of 100
Run: 30 Seed: 1512215494 1041426110 [ Run 30 of 100 GA/GALS ]
Beginning LAMARCKIAN GENETIC ALGORITHM (LGA), with a maximum of 25000000 energy evaluations.

Final-Value: -12.647


	FINAL GENETIC ALGORITHM DOCKED STATE
	_______________________________________________


Detailed state:  trans 44.246 23.846 17.578 quatxyzw 0.196266 -0.897326 -0.043361 0.392945 center -0.174 -0.001 -0.047 ntor 10 167.6196 172.4023 -107.8665 61.6390 40.6269 -110.1138 -145.3660 -149.4684 143.0735 -12.6255
State:	 44.246  23.846  17.578   0.213 -0.976 -0.047 133.724    167.62  172.40 -107.87   61.64   40.63 -110.11 -145.37 -149.47  143.07  -12.63

DOCKED: MODEL       30
DOCKED: USER    Run = 30
DOCKED: USER    DPF = D:/Protein_go_brrr/autodock/final/6BB5/heme_Fe/dock.dpf
DOCKED: USER  
DOCKED: USER    Estimated Free Energy of Binding    =   -9.23 kcal/mol  [=(1)+(2)+(3)-(4)]
DOCKED: USER    Estimated Inhibition Constant, Ki   =  170.21 nM (nanomolar)  [Temperature = 298.15 K]
DOCKED: USER    
DOCKED: USER    (1) Final Intermolecular Energy     =  -12.22 kcal/mol
DOCKED: USER        vdW + Hbond + desolv Energy     =   -8.88 kcal/mol
DOCKED: USER        Electrostatic Energy            =   -3.34 kcal/mol
DOCKED: USER    (2) Final Total Internal Energy     =   -0.43 kcal/mol
DOCKED: USER    (3) Torsional Free Energy           =   +2.98 kcal/mol
DOCKED: USER    (4) Unbound System's Energy  [=(2)] =   -0.43 kcal/mol
DOCKED: USER    
DOCKED: USER    
DOCKED: USER    NEWDPF move heme_Fe_opt.pdbqt
DOCKED: USER    NEWDPF about -0.174000 -0.001000 -0.047000
DOCKED: USER    NEWDPF tran0 44.246436 23.845818 17.578009
DOCKED: USER    NEWDPF quaternion0 0.196266 -0.897326 -0.043361 0.392945
DOCKED: USER    NEWDPF axisangle0 0.213435 -0.975819 -0.047154 133.724255
DOCKED: USER    NEWDPF quat0 0.213435 -0.975819 -0.047154 133.724255
DOCKED: USER    NEWDPF dihe0 167.62 172.40 -107.87 61.64 40.63 -110.11 -145.37 -149.47 143.07 -12.63 
DOCKED: USER  keepresnum = 1 
DOCKED: USER  
DOCKED: REMARK  10 active torsions:
DOCKED: REMARK  status: ('A' for Active; 'I' for Inactive)
DOCKED: REMARK    1  A    between atoms: C_6  and  C_10 
DOCKED: REMARK    2  A    between atoms: C_10  and  C_11 
DOCKED: REMARK    3  A    between atoms: C_11  and  C_12 
DOCKED: REMARK    4  A    between atoms: C_12  and  O_14 
DOCKED: REMARK    5  A    between atoms: C_17  and  C_20 
DOCKED: REMARK    6  A    between atoms: C_24  and  C_27 
DOCKED: REMARK    7  A    between atoms: C_31  and  C_34 
DOCKED: REMARK    8  A    between atoms: C_34  and  C_35 
DOCKED: REMARK    9  A    between atoms: C_35  and  C_36 
DOCKED: REMARK   10  A    between atoms: C_36  and  O_38 
DOCKED: USER                              x       y       z     vdW  Elec       q    Type
DOCKED: USER                           _______ _______ _______ _____ _____    ______ ____
DOCKED: ROOT
DOCKED: ATOM      1  C   UNL d   1      45.852  24.545  18.648 -0.12 +0.03    +0.064 C 
DOCKED: ATOM      2  C   UNL d   1      44.760  20.282  16.397 -0.19 +0.03    +0.064 A 
DOCKED: ATOM      3  C   UNL d   1      41.185  22.500  14.081 -0.33 +0.01    +0.064 C 
DOCKED: ATOM      4  C   UNL d   1      42.158  26.611  16.326 -0.37 +0.01    +0.064 C 
DOCKED: ATOM      5  C   UNL d   1      45.823  23.120  18.292 -0.13 +0.03    +0.066 A 
DOCKED: ATOM      6  C   UNL d   1      46.639  22.149  18.850 -0.12 -0.01    -0.021 A 
DOCKED: ATOM      7  C   UNL d   1      46.337  20.966  18.222 -0.15 -0.01    -0.025 A 
DOCKED: ATOM      8  C   UNL d   1      45.348  21.261  17.304 -0.17 +0.03    +0.066 A 
DOCKED: ATOM      9  C   UNL d   1      46.956  19.632  18.508 -0.13 +0.02    +0.051 C 
DOCKED: ATOM     10  C   UNL d   1      43.766  20.527  15.543 -0.22 +0.02    +0.066 A 
DOCKED: ATOM     11  C   UNL d   1      43.301  19.599  14.607 -0.28 -0.00    -0.021 A 
DOCKED: ATOM     12  C   UNL d   1      42.281  20.221  13.915 -0.42 +0.00    +0.000 A 
DOCKED: ATOM     13  C   UNL d   1      42.180  21.511  14.464 -0.08 +0.01    +0.070 A 
DOCKED: ATOM     14  C   UNL d   1      43.848  18.212  14.339 -0.17 +0.01    +0.052 C 
DOCKED: ATOM     15  C   UNL d   1      41.117  23.761  14.569 -0.44 +0.01    +0.066 A 
DOCKED: ATOM     16  C   UNL d   1      40.092  24.643  14.252 -0.51 -0.00    -0.021 A 
DOCKED: ATOM     17  C   UNL d   1      40.372  25.831  14.896 -0.45 +0.00    +0.000 A 
DOCKED: ATOM     18  C   UNL d   1      41.566  25.646  15.589 -0.31 +0.01    +0.070 A 
DOCKED: ATOM     19  C   UNL d   1      38.907  24.391  13.359 -0.51 +0.01    +0.052 C 
DOCKED: ATOM     20  C   UNL d   1      43.382  26.435  17.118 -0.26 +0.02    +0.066 A 
DOCKED: ATOM     21  C   UNL d   1      44.112  27.468  17.721 -0.22 -0.01    -0.025 A 
DOCKED: ATOM     22  C   UNL d   1      45.153  26.856  18.387 -0.17 -0.01    -0.021 A 
DOCKED: ATOM     23  C   UNL d   1      45.021  25.481  18.161 -0.15 +0.03    +0.066 A 
DOCKED: ATOM     24  C   UNL d   1      43.854  28.957  17.674 -0.29 +0.02    +0.051 C 
DOCKED: ATOM     25  N   UNL d   1      45.031  22.570  17.355 -0.12 -0.11    -0.248 N 
DOCKED: ATOM     26  N   UNL d   1      43.091  21.701  15.450 +0.11 -0.05    -0.248 N 
DOCKED: ATOM     27  N   UNL d   1      42.002  24.361  15.424 -0.17 -0.05    -0.248 N 
DOCKED: ATOM     28  N   UNL d   1      43.965  25.234  17.349 -0.13 -0.08    -0.248 N 
DOCKED: ATOM     29 FE   UNL d   1      43.527  23.469  16.399 -0.07 +0.00    +0.000 Fe
DOCKED: ENDROOT
DOCKED: BRANCH   6  30
DOCKED: ATOM     30  C   UNL d   1      47.639  22.329  19.940 -0.06 +0.02    +0.052 C 
DOCKED: BRANCH  30  31
DOCKED: ATOM     31  C   UNL d   1      48.997  21.773  19.525 -0.03 +0.07    +0.115 C 
DOCKED: BRANCH  31  32
DOCKED: ATOM     32  C   UNL d   1      49.225  21.986  18.054 -0.02 +0.18    +0.139 C 
DOCKED: ATOM     33  O   UNL d   1      48.893  23.034  17.517 -0.45 -0.96    -0.650 OA
DOCKED: BRANCH  32  34
DOCKED: ATOM     34  O   UNL d   1      49.798  21.022  17.314 +0.30 -1.59    -0.776 OA
DOCKED: ATOM     35  H   UNL d   1      50.221  20.276  17.761 +0.00 +0.21    +0.167 HD
DOCKED: ENDBRANCH  32  34
DOCKED: ENDBRANCH  31  32
DOCKED: ENDBRANCH  30  31
DOCKED: ENDBRANCH   6  30
DOCKED: BRANCH  22  36
DOCKED: ATOM     36  C   UNL d   1      46.240  27.560  19.157 -0.13 +0.03    +0.052 C 
DOCKED: BRANCH  36  37
DOCKED: ATOM     37  C   UNL d   1      45.759  27.854  20.570 -0.14 +0.13    +0.115 C 
DOCKED: BRANCH  37  38
DOCKED: ATOM     38  C   UNL d   1      44.765  26.825  21.027 +0.02 +0.20    +0.139 C 
DOCKED: ATOM     39  O   UNL d   1      43.586  27.115  21.171 -0.45 -0.95    -0.650 OA
DOCKED: BRANCH  38  40
DOCKED: ATOM     40  O   UNL d   1      45.170  25.569  21.285 +0.05 -0.77    -0.776 OA
DOCKED: ATOM     41  H   UNL d   1      46.076  25.312  21.064 +0.04 +0.13    +0.167 HD
DOCKED: ENDBRANCH  38  40
DOCKED: ENDBRANCH  37  38
DOCKED: ENDBRANCH  36  37
DOCKED: ENDBRANCH  22  36
DOCKED: BRANCH  12  42
DOCKED: ATOM     42  C   UNL d   1      41.497  19.598  12.804 -0.19 +0.00    +0.004 C 
DOCKED: ATOM     43  C   UNL d   1      42.102  19.176  11.686 -0.40 +0.00    +0.012 C 
DOCKED: ENDBRANCH  12  42
DOCKED: BRANCH  17  44
DOCKED: ATOM     44  C   UNL d   1      39.541  27.055  14.867 -0.43 +0.00    +0.004 C 
DOCKED: ATOM     45  C   UNL d   1      38.965  27.518  15.981 -0.42 +0.00    +0.012 C 
DOCKED: ENDBRANCH  17  44
DOCKED: TORSDOF 10
DOCKED: TER
DOCKED: ENDMDL
________________________________________________________________________________


	BEGINNING GENETIC ALGORITHM DOCKING 31 of 100
Run: 31 Seed: 245441503 111369914 [ Run 31 of 100 GA/GALS ]
Beginning LAMARCKIAN GENETIC ALGORITHM (LGA), with a maximum of 25000000 energy evaluations.

Final-Value: -10.988


	FINAL GENETIC ALGORITHM DOCKED STATE
	_______________________________________________


Detailed state:  trans 5.689 41.127 -5.200 quatxyzw 0.860310 -0.154994 -0.258513 -0.411114 center -0.174 -0.001 -0.047 ntor 10 -150.9202 148.8301 66.3803 -160.2347 100.2559 1.1334 79.5789 -68.3276 27.4744 180.0000
State:	  5.689  41.127  -5.200   0.944 -0.170 -0.284 -131.450   -150.92  148.83   66.38 -160.23  100.26    1.13   79.58  -68.33   27.47  180.00

DOCKED: MODEL       31
DOCKED: USER    Run = 31
DOCKED: USER    DPF = D:/Protein_go_brrr/autodock/final/6BB5/heme_Fe/dock.dpf
DOCKED: USER  
DOCKED: USER    Estimated Free Energy of Binding    =   -7.34 kcal/mol  [=(1)+(2)+(3)-(4)]
DOCKED: USER    Estimated Inhibition Constant, Ki   =    4.15 uM (micromolar)  [Temperature = 298.15 K]
DOCKED: USER    
DOCKED: USER    (1) Final Intermolecular Energy     =  -10.33 kcal/mol
DOCKED: USER        vdW + Hbond + desolv Energy     =   -7.84 kcal/mol
DOCKED: USER        Electrostatic Energy            =   -2.49 kcal/mol
DOCKED: USER    (2) Final Total Internal Energy     =   -0.66 kcal/mol
DOCKED: USER    (3) Torsional Free Energy           =   +2.98 kcal/mol
DOCKED: USER    (4) Unbound System's Energy  [=(2)] =   -0.66 kcal/mol
DOCKED: USER    
DOCKED: USER    
DOCKED: USER    NEWDPF move heme_Fe_opt.pdbqt
DOCKED: USER    NEWDPF about -0.174000 -0.001000 -0.047000
DOCKED: USER    NEWDPF tran0 5.689101 41.126902 -5.200292
DOCKED: USER    NEWDPF quaternion0 0.860310 -0.154994 -0.258513 -0.411114
DOCKED: USER    NEWDPF axisangle0 0.943753 -0.170027 -0.283586 -131.450296
DOCKED: USER    NEWDPF quat0 0.943753 -0.170027 -0.283586 -131.450296
DOCKED: USER    NEWDPF dihe0 -150.92 148.83 66.38 -160.23 100.26 1.13 79.58 -68.33 27.47 180.00 
DOCKED: USER  keepresnum = 1 
DOCKED: USER  
DOCKED: REMARK  10 active torsions:
DOCKED: REMARK  status: ('A' for Active; 'I' for Inactive)
DOCKED: REMARK    1  A    between atoms: C_6  and  C_10 
DOCKED: REMARK    2  A    between atoms: C_10  and  C_11 
DOCKED: REMARK    3  A    between atoms: C_11  and  C_12 
DOCKED: REMARK    4  A    between atoms: C_12  and  O_14 
DOCKED: REMARK    5  A    between atoms: C_17  and  C_20 
DOCKED: REMARK    6  A    between atoms: C_24  and  C_27 
DOCKED: REMARK    7  A    between atoms: C_31  and  C_34 
DOCKED: REMARK    8  A    between atoms: C_34  and  C_35 
DOCKED: REMARK    9  A    between atoms: C_35  and  C_36 
DOCKED: REMARK   10  A    between atoms: C_36  and  O_38 
DOCKED: USER                              x       y       z     vdW  Elec       q    Type
DOCKED: USER                           _______ _______ _______ _____ _____    ______ ____
DOCKED: ROOT
DOCKED: ATOM      1  C   UNL d   1       3.767  41.779  -4.899 -0.10 +0.02    +0.064 C 
DOCKED: ATOM      2  C   UNL d   1       7.046  42.192  -8.574 -0.12 -0.02    +0.064 A 
DOCKED: ATOM      3  C   UNL d   1       9.642  38.689  -6.559 -0.23 -0.02    +0.064 C 
DOCKED: ATOM      4  C   UNL d   1       6.535  38.345  -2.937 -0.29 +0.00    +0.064 C 
DOCKED: ATOM      5  C   UNL d   1       4.492  42.277  -6.076 -0.07 +0.02    +0.066 A 
DOCKED: ATOM      6  C   UNL d   1       4.100  43.360  -6.846 -0.07 -0.01    -0.021 A 
DOCKED: ATOM      7  C   UNL d   1       5.009  43.472  -7.869 -0.01 -0.00    -0.025 A 
DOCKED: ATOM      8  C   UNL d   1       5.923  42.452  -7.683 -0.09 +0.00    +0.066 A 
DOCKED: ATOM      9  C   UNL d   1       5.004  44.513  -8.945 -0.07 +0.01    +0.051 C 
DOCKED: ATOM     10  C   UNL d   1       7.974  41.251  -8.386 -0.15 -0.03    +0.066 A 
DOCKED: ATOM     11  C   UNL d   1       8.972  40.951  -9.316 -0.16 +0.01    -0.021 A 
DOCKED: ATOM     12  C   UNL d   1       9.724  39.932  -8.766 -0.26 -0.00    +0.000 A 
DOCKED: ATOM     13  C   UNL d   1       9.135  39.655  -7.520 -0.24 -0.03    +0.070 A 
DOCKED: ATOM     14  C   UNL d   1       9.159  41.558 -10.692 -0.11 -0.04    +0.052 C 
DOCKED: ATOM     15  C   UNL d   1       9.049  38.382  -5.381 -0.27 -0.01    +0.066 A 
DOCKED: ATOM     16  C   UNL d   1       9.617  37.527  -4.446 -0.44 +0.00    -0.021 A 
DOCKED: ATOM     17  C   UNL d   1       8.721  37.423  -3.402 -0.40 -0.00    +0.000 A 
DOCKED: ATOM     18  C   UNL d   1       7.623  38.216  -3.728 -0.29 -0.00    +0.070 A 
DOCKED: ATOM     19  C   UNL d   1      10.939  36.813  -4.538 -0.50 -0.00    +0.052 C 
DOCKED: ATOM     20  C   UNL d   1       5.389  39.218  -3.218 -0.19 +0.01    +0.066 A 
DOCKED: ATOM     21  C   UNL d   1       4.175  39.212  -2.517 -0.18 -0.01    -0.025 A 
DOCKED: ATOM     22  C   UNL d   1       3.406  40.207  -3.084 -0.10 -0.01    -0.021 A 
DOCKED: ATOM     23  C   UNL d   1       4.174  40.773  -4.108 -0.09 +0.02    +0.066 A 
DOCKED: ATOM     24  C   UNL d   1       3.750  38.318  -1.374 +0.13 +0.03    +0.051 C 
DOCKED: ATOM     25  N   UNL d   1       5.610  41.733  -6.586 -0.07 -0.02    -0.248 N 
DOCKED: ATOM     26  N   UNL d   1       8.062  40.453  -7.292 -0.11 +0.10    -0.248 N 
DOCKED: ATOM     27  N   UNL d   1       7.842  38.840  -4.924 -0.15 +0.03    -0.248 N 
DOCKED: ATOM     28  N   UNL d   1       5.365  40.136  -4.215 -0.07 -0.03    -0.248 N 
DOCKED: ATOM     29 FE   UNL d   1       6.714  40.293  -5.752 -0.04 -0.00    +0.000 Fe
DOCKED: ENDROOT
DOCKED: BRANCH   6  30
DOCKED: ATOM     30  C   UNL d   1       2.934  44.258  -6.612 -0.08 +0.02    +0.052 C 
DOCKED: BRANCH  30  31
DOCKED: ATOM     31  C   UNL d   1       3.396  45.686  -6.345 -0.08 +0.06    +0.115 C 
DOCKED: BRANCH  31  32
DOCKED: ATOM     32  C   UNL d   1       3.375  45.978  -4.870 -0.19 +0.14    +0.139 C 
DOCKED: ATOM     33  O   UNL d   1       4.405  45.940  -4.212 -0.70 -0.84    -0.650 OA
DOCKED: BRANCH  32  34
DOCKED: ATOM     34  O   UNL d   1       2.218  46.285  -4.260 -0.02 -0.83    -0.776 OA
DOCKED: ATOM     35  H   UNL d   1       1.392  45.926  -4.612 +0.03 +0.11    +0.167 HD
DOCKED: ENDBRANCH  32  34
DOCKED: ENDBRANCH  31  32
DOCKED: ENDBRANCH  30  31
DOCKED: ENDBRANCH   6  30
DOCKED: BRANCH  22  36
DOCKED: ATOM     36  C   UNL d   1       1.994  40.557  -2.695 -0.08 +0.03    +0.052 C 
DOCKED: BRANCH  36  37
DOCKED: ATOM     37  C   UNL d   1       1.020  39.620  -3.394 -0.02 +0.05    +0.115 C 
DOCKED: BRANCH  37  38
DOCKED: ATOM     38  C   UNL d   1       0.366  38.691  -2.410 -0.06 +0.10    +0.139 C 
DOCKED: ATOM     39  O   UNL d   1       0.623  38.762  -1.218 -0.28 -1.06    -0.650 OA
DOCKED: BRANCH  38  40
DOCKED: ATOM     40  O   UNL d   1      -0.511  37.767  -2.841 +0.02 -0.32    -0.776 OA
DOCKED: ATOM     41  H   UNL d   1      -1.056  37.962  -3.617 +0.01 +0.05    +0.167 HD
DOCKED: ENDBRANCH  38  40
DOCKED: ENDBRANCH  37  38
DOCKED: ENDBRANCH  36  37
DOCKED: ENDBRANCH  22  36
DOCKED: BRANCH  12  42
DOCKED: ATOM     42  C   UNL d   1      10.901  39.285  -9.424 -0.32 -0.00    +0.004 C 
DOCKED: ATOM     43  C   UNL d   1      12.133  39.412  -8.913 -0.46 -0.01    +0.012 C 
DOCKED: ENDBRANCH  12  42
DOCKED: BRANCH  17  44
DOCKED: ATOM     44  C   UNL d   1       8.912  36.634  -2.164 -0.43 +0.00    +0.004 C 
DOCKED: ATOM     45  C   UNL d   1       8.244  35.492  -1.970 -0.41 +0.00    +0.012 C 
DOCKED: ENDBRANCH  17  44
DOCKED: TORSDOF 10
DOCKED: TER
DOCKED: ENDMDL
________________________________________________________________________________


	BEGINNING GENETIC ALGORITHM DOCKING 32 of 100
Run: 32 Seed: 2059378283 272511817 [ Run 32 of 100 GA/GALS ]
Beginning LAMARCKIAN GENETIC ALGORITHM (LGA), with a maximum of 25000000 energy evaluations.

Final-Value: -17.937


	FINAL GENETIC ALGORITHM DOCKED STATE
	_______________________________________________


Detailed state:  trans 41.307 28.661 16.591 quatxyzw 0.130820 0.932245 0.080868 -0.327514 center -0.174 -0.001 -0.047 ntor 10 20.8325 -107.8124 100.2722 -119.8040 -40.9684 63.7755 68.0024 -24.0874 -12.6972 -12.2894
State:	 41.307  28.661  16.591   0.138  0.987  0.086 -141.764     20.83 -107.81  100.27 -119.80  -40.97   63.78   68.00  -24.09  -12.70  -12.29

DOCKED: MODEL       32
DOCKED: USER    Run = 32
DOCKED: USER    DPF = D:/Protein_go_brrr/autodock/final/6BB5/heme_Fe/dock.dpf
DOCKED: USER  
DOCKED: USER    Estimated Free Energy of Binding    =  -12.87 kcal/mol  [=(1)+(2)+(3)-(4)]
DOCKED: USER    Estimated Inhibition Constant, Ki   =  370.02 pM (picomolar)  [Temperature = 298.15 K]
DOCKED: USER    
DOCKED: USER    (1) Final Intermolecular Energy     =  -15.85 kcal/mol
DOCKED: USER        vdW + Hbond + desolv Energy     =  -13.66 kcal/mol
DOCKED: USER        Electrostatic Energy            =   -2.19 kcal/mol
DOCKED: USER    (2) Final Total Internal Energy     =   -2.09 kcal/mol
DOCKED: USER    (3) Torsional Free Energy           =   +2.98 kcal/mol
DOCKED: USER    (4) Unbound System's Energy  [=(2)] =   -2.09 kcal/mol
DOCKED: USER    
DOCKED: USER    
DOCKED: USER    NEWDPF move heme_Fe_opt.pdbqt
DOCKED: USER    NEWDPF about -0.174000 -0.001000 -0.047000
DOCKED: USER    NEWDPF tran0 41.306813 28.660924 16.591252
DOCKED: USER    NEWDPF quaternion0 0.130820 0.932245 0.080868 -0.327514
DOCKED: USER    NEWDPF axisangle0 0.138456 0.986663 0.085589 -141.764130
DOCKED: USER    NEWDPF quat0 0.138456 0.986663 0.085589 -141.764130
DOCKED: USER    NEWDPF dihe0 20.83 -107.81 100.27 -119.80 -40.97 63.78 68.00 -24.09 -12.70 -12.29 
DOCKED: USER  keepresnum = 1 
DOCKED: USER  
DOCKED: REMARK  10 active torsions:
DOCKED: REMARK  status: ('A' for Active; 'I' for Inactive)
DOCKED: REMARK    1  A    between atoms: C_6  and  C_10 
DOCKED: REMARK    2  A    between atoms: C_10  and  C_11 
DOCKED: REMARK    3  A    between atoms: C_11  and  C_12 
DOCKED: REMARK    4  A    between atoms: C_12  and  O_14 
DOCKED: REMARK    5  A    between atoms: C_17  and  C_20 
DOCKED: REMARK    6  A    between atoms: C_24  and  C_27 
DOCKED: REMARK    7  A    between atoms: C_31  and  C_34 
DOCKED: REMARK    8  A    between atoms: C_34  and  C_35 
DOCKED: REMARK    9  A    between atoms: C_35  and  C_36 
DOCKED: REMARK   10  A    between atoms: C_36  and  O_38 
DOCKED: USER                              x       y       z     vdW  Elec       q    Type
DOCKED: USER                           _______ _______ _______ _____ _____    ______ ____
DOCKED: ROOT
DOCKED: ATOM      1  C   UNL d   1      43.120  28.051  17.334 -0.16 +0.02    +0.064 C 
DOCKED: ATOM      2  C   UNL d   1      39.619  25.955  14.545 -0.40 +0.01    +0.064 A 
DOCKED: ATOM      3  C   UNL d   1      37.707  30.298  13.804 -0.38 +0.01    +0.064 C 
DOCKED: ATOM      4  C   UNL d   1      41.024  32.334  16.585 -0.49 +0.01    +0.064 C 
DOCKED: ATOM      5  C   UNL d   1      42.263  27.049  16.686 -0.25 +0.02    +0.066 A 
DOCKED: ATOM      6  C   UNL d   1      42.441  25.678  16.778 -0.34 -0.00    -0.021 A 
DOCKED: ATOM      7  C   UNL d   1      41.471  25.097  16.000 -0.39 -0.00    -0.025 A 
DOCKED: ATOM      8  C   UNL d   1      40.737  26.136  15.463 -0.39 +0.01    +0.066 A 
DOCKED: ATOM      9  C   UNL d   1      41.257  23.627  15.807 -0.50 +0.01    +0.051 C 
DOCKED: ATOM     10  C   UNL d   1      38.859  26.937  14.058 -0.37 +0.01    +0.066 A 
DOCKED: ATOM     11  C   UNL d   1      37.868  26.743  13.091 -0.43 -0.00    -0.021 A 
DOCKED: ATOM     12  C   UNL d   1      37.313  27.984  12.848 -0.49 +0.00    +0.000 A 
DOCKED: ATOM     13  C   UNL d   1      38.006  28.880  13.680 -0.33 +0.01    +0.070 A 
DOCKED: ATOM     14  C   UNL d   1      37.515  25.451  12.384 -0.32 +0.01    +0.052 C 
DOCKED: ATOM     15  C   UNL d   1      38.404  31.174  14.564 -0.36 +0.01    +0.066 A 
DOCKED: ATOM     16  C   UNL d   1      38.026  32.500  14.733 -0.38 -0.00    -0.021 A 
DOCKED: ATOM     17  C   UNL d   1      38.983  33.091  15.532 -0.41 +0.00    +0.000 A 
DOCKED: ATOM     18  C   UNL d   1      39.927  32.110  15.829 -0.37 +0.01    +0.070 A 
DOCKED: ATOM     19  C   UNL d   1      36.826  33.195  14.147 -0.42 +0.00    +0.052 C 
DOCKED: ATOM     20  C   UNL d   1      42.005  31.313  16.969 -0.37 +0.01    +0.066 A 
DOCKED: ATOM     21  C   UNL d   1      43.242  31.567  17.578 -0.27 -0.00    -0.025 A 
DOCKED: ATOM     22  C   UNL d   1      43.817  30.331  17.794 -0.29 -0.01    -0.021 A 
DOCKED: ATOM     23  C   UNL d   1      42.916  29.378  17.305 -0.26 +0.02    +0.066 A 
DOCKED: ATOM     24  C   UNL d   1      43.861  32.897  17.937 -0.28 +0.01    +0.051 C 
DOCKED: ATOM     25  N   UNL d   1      41.215  27.322  15.889 -0.25 -0.05    -0.248 N 
DOCKED: ATOM     26  N   UNL d   1      38.954  28.244  14.411 -0.06 -0.07    -0.248 N 
DOCKED: ATOM     27  N   UNL d   1      39.549  30.921  15.271 -0.21 -0.05    -0.248 N 
DOCKED: ATOM     28  N   UNL d   1      41.833  29.985  16.763 -0.22 -0.05    -0.248 N 
DOCKED: ATOM     29 FE   UNL d   1      40.394  29.116  15.587 -0.09 +0.00    +0.000 Fe
DOCKED: ENDROOT
DOCKED: BRANCH   6  30
DOCKED: ATOM     30  C   UNL d   1      43.467  24.954  17.581 -0.30 +0.02    +0.052 C 
DOCKED: BRANCH  30  31
DOCKED: ATOM     31  C   UNL d   1      43.088  24.941  19.058 -0.33 +0.04    +0.115 C 
DOCKED: BRANCH  31  32
DOCKED: ATOM     32  C   UNL d   1      44.045  25.784  19.854 -0.23 +0.08    +0.139 C 
DOCKED: ATOM     33  O   UNL d   1      45.245  25.754  19.620 +0.05 -0.38    -0.650 OA
DOCKED: BRANCH  32  34
DOCKED: ATOM     34  O   UNL d   1      43.588  26.580  20.835 -0.15 -0.81    -0.776 OA
DOCKED: ATOM     35  H   UNL d   1      44.133  27.323  21.130 +0.04 +0.27    +0.167 HD
DOCKED: ENDBRANCH  32  34
DOCKED: ENDBRANCH  31  32
DOCKED: ENDBRANCH  30  31
DOCKED: ENDBRANCH   6  30
DOCKED: BRANCH  22  36
DOCKED: ATOM     36  C   UNL d   1      45.178  30.087  18.391 -0.24 +0.02    +0.052 C 
DOCKED: BRANCH  36  37
DOCKED: ATOM     37  C   UNL d   1      45.079  30.087  19.910 -0.14 +0.07    +0.115 C 
DOCKED: BRANCH  37  38
DOCKED: ATOM     38  C   UNL d   1      46.193  29.285  20.522 -0.12 +0.13    +0.139 C 
DOCKED: ATOM     39  O   UNL d   1      47.358  29.629  20.387 -0.01 -0.39    -0.650 OA
DOCKED: BRANCH  38  40
DOCKED: ATOM     40  O   UNL d   1      45.911  28.174  21.225 -0.33 -1.37    -0.776 OA
DOCKED: ATOM     41  H   UNL d   1      45.611  27.383  20.755 +0.03 +0.22    +0.167 HD
DOCKED: ENDBRANCH  38  40
DOCKED: ENDBRANCH  37  38
DOCKED: ENDBRANCH  36  37
DOCKED: ENDBRANCH  22  36
DOCKED: BRANCH  12  42
DOCKED: ATOM     42  C   UNL d   1      36.215  28.253  11.869 -0.69 +0.00    +0.004 C 
DOCKED: ATOM     43  C   UNL d   1      35.319  29.224  12.087 -0.59 +0.00    +0.012 C 
DOCKED: ENDBRANCH  12  42
DOCKED: BRANCH  17  44
DOCKED: ATOM     44  C   UNL d   1      38.984  34.496  15.998 -0.58 +0.00    +0.004 C 
DOCKED: ATOM     45  C   UNL d   1      39.122  35.504  15.132 -0.61 +0.00    +0.012 C 
DOCKED: ENDBRANCH  17  44
DOCKED: TORSDOF 10
DOCKED: TER
DOCKED: ENDMDL
________________________________________________________________________________


	BEGINNING GENETIC ALGORITHM DOCKING 33 of 100
Run: 33 Seed: 1592012852 1666755990 [ Run 33 of 100 GA/GALS ]
Beginning LAMARCKIAN GENETIC ALGORITHM (LGA), with a maximum of 25000000 energy evaluations.

Final-Value: -15.945


	FINAL GENETIC ALGORITHM DOCKED STATE
	_______________________________________________


Detailed state:  trans 41.831 28.533 17.211 quatxyzw 0.065676 0.933263 0.049549 -0.349646 center -0.174 -0.001 -0.047 ntor 10 -159.3167 143.8441 80.6105 -138.3921 155.2171 180.0000 87.9317 65.5852 -9.4564 -179.8967
State:	 41.831  28.533  17.211   0.070  0.996  0.053 -139.069   -159.32  143.84   80.61 -138.39  155.22  180.00   87.93   65.59   -9.46 -179.90

DOCKED: MODEL       33
DOCKED: USER    Run = 33
DOCKED: USER    DPF = D:/Protein_go_brrr/autodock/final/6BB5/heme_Fe/dock.dpf
DOCKED: USER  
DOCKED: USER    Estimated Free Energy of Binding    =  -11.29 kcal/mol  [=(1)+(2)+(3)-(4)]
DOCKED: USER    Estimated Inhibition Constant, Ki   =    5.29 nM (nanomolar)  [Temperature = 298.15 K]
DOCKED: USER    
DOCKED: USER    (1) Final Intermolecular Energy     =  -14.27 kcal/mol
DOCKED: USER        vdW + Hbond + desolv Energy     =  -12.19 kcal/mol
DOCKED: USER        Electrostatic Energy            =   -2.09 kcal/mol
DOCKED: USER    (2) Final Total Internal Energy     =   -1.67 kcal/mol
DOCKED: USER    (3) Torsional Free Energy           =   +2.98 kcal/mol
DOCKED: USER    (4) Unbound System's Energy  [=(2)] =   -1.67 kcal/mol
DOCKED: USER    
DOCKED: USER    
DOCKED: USER    NEWDPF move heme_Fe_opt.pdbqt
DOCKED: USER    NEWDPF about -0.174000 -0.001000 -0.047000
DOCKED: USER    NEWDPF tran0 41.831331 28.532573 17.210719
DOCKED: USER    NEWDPF quaternion0 0.065676 0.933263 0.049549 -0.349646
DOCKED: USER    NEWDPF axisangle0 0.070101 0.996137 0.052887 -139.068724
DOCKED: USER    NEWDPF quat0 0.070101 0.996137 0.052887 -139.068724
DOCKED: USER    NEWDPF dihe0 -159.32 143.84 80.61 -138.39 155.22 180.00 87.93 65.59 -9.46 -179.90 
DOCKED: USER  keepresnum = 1 
DOCKED: USER  
DOCKED: REMARK  10 active torsions:
DOCKED: REMARK  status: ('A' for Active; 'I' for Inactive)
DOCKED: REMARK    1  A    between atoms: C_6  and  C_10 
DOCKED: REMARK    2  A    between atoms: C_10  and  C_11 
DOCKED: REMARK    3  A    between atoms: C_11  and  C_12 
DOCKED: REMARK    4  A    between atoms: C_12  and  O_14 
DOCKED: REMARK    5  A    between atoms: C_17  and  C_20 
DOCKED: REMARK    6  A    between atoms: C_24  and  C_27 
DOCKED: REMARK    7  A    between atoms: C_31  and  C_34 
DOCKED: REMARK    8  A    between atoms: C_34  and  C_35 
DOCKED: REMARK    9  A    between atoms: C_35  and  C_36 
DOCKED: REMARK   10  A    between atoms: C_36  and  O_38 
DOCKED: USER                              x       y       z     vdW  Elec       q    Type
DOCKED: USER                           _______ _______ _______ _____ _____    ______ ____
DOCKED: ROOT
DOCKED: ATOM      1  C   UNL d   1      43.656  28.188  18.083 -0.16 +0.02    +0.064 C 
DOCKED: ATOM      2  C   UNL d   1      40.509  25.473  15.409 -0.36 +0.01    +0.064 A 
DOCKED: ATOM      3  C   UNL d   1      38.230  29.502  14.128 -0.35 +0.01    +0.064 C 
DOCKED: ATOM      4  C   UNL d   1      41.201  32.138  16.794 -0.47 +0.01    +0.064 C 
DOCKED: ATOM      5  C   UNL d   1      42.931  27.042  17.516 +0.04 +0.02    +0.066 A 
DOCKED: ATOM      6  C   UNL d   1      43.234  25.714  17.764 -0.27 -0.01    -0.021 A 
DOCKED: ATOM      7  C   UNL d   1      42.362  24.960  17.018 -0.35 -0.01    -0.025 A 
DOCKED: ATOM      8  C   UNL d   1      41.559  25.859  16.343 -0.35 +0.01    +0.066 A 
DOCKED: ATOM      9  C   UNL d   1      42.298  23.464  16.977 -0.44 +0.01    +0.051 C 
DOCKED: ATOM     10  C   UNL d   1      39.683  26.318  14.789 -0.38 +0.01    +0.066 A 
DOCKED: ATOM     11  C   UNL d   1      38.763  25.926  13.813 -0.45 -0.00    -0.021 A 
DOCKED: ATOM     12  C   UNL d   1      38.104  27.073  13.416 -0.44 +0.00    +0.000 A 
DOCKED: ATOM     13  C   UNL d   1      38.668  28.116  14.171 -0.03 +0.02    +0.070 A 
DOCKED: ATOM     14  C   UNL d   1      38.568  24.538  13.238 -0.48 +0.01    +0.052 C 
DOCKED: ATOM     15  C   UNL d   1      38.803  30.518  14.815 -0.24 +0.01    +0.066 A 
DOCKED: ATOM     16  C   UNL d   1      38.293  31.810  14.824 -0.38 -0.00    -0.021 A 
DOCKED: ATOM     17  C   UNL d   1      39.151  32.573  15.590 -0.40 +0.00    +0.000 A 
DOCKED: ATOM     18  C   UNL d   1      40.168  31.728  16.027 -0.36 +0.01    +0.070 A 
DOCKED: ATOM     19  C   UNL d   1      37.063  32.317  14.121 -0.31 +0.00    +0.052 C 
DOCKED: ATOM     20  C   UNL d   1      42.255  31.266  17.324 -0.38 +0.01    +0.066 A 
DOCKED: ATOM     21  C   UNL d   1      43.432  31.704  17.947 -0.34 -0.01    -0.025 A 
DOCKED: ATOM     22  C   UNL d   1      44.111  30.561  18.318 -0.29 -0.01    -0.021 A 
DOCKED: ATOM     23  C   UNL d   1      43.329  29.477  17.902 -0.19 +0.02    +0.066 A 
DOCKED: ATOM     24  C   UNL d   1      43.904  33.120  18.183 -0.35 +0.01    +0.051 C 
DOCKED: ATOM     25  N   UNL d   1      41.901  27.125  16.656 -0.20 -0.06    -0.248 N 
DOCKED: ATOM     26  N   UNL d   1      39.636  27.657  15.002 -0.15 -0.07    -0.248 N 
DOCKED: ATOM     27  N   UNL d   1      39.932  30.455  15.587 +0.04 -0.07    -0.248 N 
DOCKED: ATOM     28  N   UNL d   1      42.220  29.913  17.257 -0.20 -0.05    -0.248 N 
DOCKED: ATOM     29 FE   UNL d   1      40.928  28.787  16.130 -0.09 +0.00    +0.000 Fe
DOCKED: ENDROOT
DOCKED: BRANCH   6  30
DOCKED: ATOM     30  C   UNL d   1      44.284  25.183  18.679 -0.22 +0.02    +0.052 C 
DOCKED: BRANCH  30  31
DOCKED: ATOM     31  C   UNL d   1      43.805  25.214  20.126 -0.27 +0.06    +0.115 C 
DOCKED: BRANCH  31  32
DOCKED: ATOM     32  C   UNL d   1      44.210  26.502  20.787 -0.22 +0.15    +0.139 C 
DOCKED: ATOM     33  O   UNL d   1      43.582  26.937  21.742 -0.52 -1.25    -0.650 OA
DOCKED: BRANCH  32  34
DOCKED: ATOM     34  O   UNL d   1      45.271  27.190  20.332 -0.03 -0.78    -0.776 OA
DOCKED: ATOM     35  H   UNL d   1      45.580  27.032  19.428 +0.05 +0.11    +0.167 HD
DOCKED: ENDBRANCH  32  34
DOCKED: ENDBRANCH  31  32
DOCKED: ENDBRANCH  30  31
DOCKED: ENDBRANCH   6  30
DOCKED: BRANCH  22  36
DOCKED: ATOM     36  C   UNL d   1      45.458  30.517  18.989 -0.22 +0.02    +0.052 C 
DOCKED: BRANCH  36  37
DOCKED: ATOM     37  C   UNL d   1      46.557  30.647  17.945 -0.16 +0.03    +0.115 C 
DOCKED: BRANCH  37  38
DOCKED: ATOM     38  C   UNL d   1      47.384  29.395  17.874 -0.08 +0.04    +0.139 C 
DOCKED: ATOM     39  O   UNL d   1      48.317  29.305  17.090 +0.03 -0.17    -0.650 OA
DOCKED: BRANCH  38  40
DOCKED: ATOM     40  O   UNL d   1      47.097  28.355  18.677 +0.04 -0.34    -0.776 OA
DOCKED: ATOM     41  H   UNL d   1      46.790  28.527  19.578 +0.03 +0.10    +0.167 HD
DOCKED: ENDBRANCH  38  40
DOCKED: ENDBRANCH  37  38
DOCKED: ENDBRANCH  36  37
DOCKED: ENDBRANCH  22  36
DOCKED: BRANCH  12  42
DOCKED: ATOM     42  C   UNL d   1      37.034  27.127  12.373 -0.55 +0.00    +0.004 C 
DOCKED: ATOM     43  C   UNL d   1      35.859  27.719  12.621 -0.64 +0.00    +0.012 C 
DOCKED: ENDBRANCH  12  42
DOCKED: BRANCH  17  44
DOCKED: ATOM     44  C   UNL d   1      38.995  34.013  15.900 -0.53 +0.00    +0.004 C 
DOCKED: ATOM     45  C   UNL d   1      39.432  34.947  15.049 -0.59 +0.00    +0.012 C 
DOCKED: ENDBRANCH  17  44
DOCKED: TORSDOF 10
DOCKED: TER
DOCKED: ENDMDL
________________________________________________________________________________


	BEGINNING GENETIC ALGORITHM DOCKING 34 of 100
Run: 34 Seed: 211370591 2144391204 [ Run 34 of 100 GA/GALS ]
Beginning LAMARCKIAN GENETIC ALGORITHM (LGA), with a maximum of 25000000 energy evaluations.

Final-Value: -18.236


	FINAL GENETIC ALGORITHM DOCKED STATE
	_______________________________________________


Detailed state:  trans 41.746 28.532 15.965 quatxyzw 0.238606 0.100676 -0.950175 0.173492 center -0.174 -0.001 -0.047 ntor 10 50.6238 88.5772 69.3003 -133.7478 157.1706 -94.9093 -63.6227 24.5243 -170.0160 -178.2895
State:	 41.746  28.532  15.965   0.242  0.102 -0.965 160.018     50.62   88.58   69.30 -133.75  157.17  -94.91  -63.62   24.52 -170.02 -178.29

DOCKED: MODEL       34
DOCKED: USER    Run = 34
DOCKED: USER    DPF = D:/Protein_go_brrr/autodock/final/6BB5/heme_Fe/dock.dpf
DOCKED: USER  
DOCKED: USER    Estimated Free Energy of Binding    =  -13.23 kcal/mol  [=(1)+(2)+(3)-(4)]
DOCKED: USER    Estimated Inhibition Constant, Ki   =  200.68 pM (picomolar)  [Temperature = 298.15 K]
DOCKED: USER    
DOCKED: USER    (1) Final Intermolecular Energy     =  -16.21 kcal/mol
DOCKED: USER        vdW + Hbond + desolv Energy     =  -14.13 kcal/mol
DOCKED: USER        Electrostatic Energy            =   -2.08 kcal/mol
DOCKED: USER    (2) Final Total Internal Energy     =   -2.02 kcal/mol
DOCKED: USER    (3) Torsional Free Energy           =   +2.98 kcal/mol
DOCKED: USER    (4) Unbound System's Energy  [=(2)] =   -2.02 kcal/mol
DOCKED: USER    
DOCKED: USER    
DOCKED: USER    NEWDPF move heme_Fe_opt.pdbqt
DOCKED: USER    NEWDPF about -0.174000 -0.001000 -0.047000
DOCKED: USER    NEWDPF tran0 41.746097 28.532239 15.965460
DOCKED: USER    NEWDPF quaternion0 0.238606 0.100676 -0.950175 0.173492
DOCKED: USER    NEWDPF axisangle0 0.242280 0.102226 -0.964806 160.018118
DOCKED: USER    NEWDPF quat0 0.242280 0.102226 -0.964806 160.018118
DOCKED: USER    NEWDPF dihe0 50.62 88.58 69.30 -133.75 157.17 -94.91 -63.62 24.52 -170.02 -178.29 
DOCKED: USER  keepresnum = 1 
DOCKED: USER  
DOCKED: REMARK  10 active torsions:
DOCKED: REMARK  status: ('A' for Active; 'I' for Inactive)
DOCKED: REMARK    1  A    between atoms: C_6  and  C_10 
DOCKED: REMARK    2  A    between atoms: C_10  and  C_11 
DOCKED: REMARK    3  A    between atoms: C_11  and  C_12 
DOCKED: REMARK    4  A    between atoms: C_12  and  O_14 
DOCKED: REMARK    5  A    between atoms: C_17  and  C_20 
DOCKED: REMARK    6  A    between atoms: C_24  and  C_27 
DOCKED: REMARK    7  A    between atoms: C_31  and  C_34 
DOCKED: REMARK    8  A    between atoms: C_34  and  C_35 
DOCKED: REMARK    9  A    between atoms: C_35  and  C_36 
DOCKED: REMARK   10  A    between atoms: C_36  and  O_38 
DOCKED: USER                              x       y       z     vdW  Elec       q    Type
DOCKED: USER                           _______ _______ _______ _____ _____    ______ ____
DOCKED: ROOT
DOCKED: ATOM      1  C   UNL d   1      43.139  27.780  17.271 -0.21 +0.02    +0.064 C 
DOCKED: ATOM      2  C   UNL d   1      41.154  32.238  16.486 -0.42 +0.01    +0.064 A 
DOCKED: ATOM      3  C   UNL d   1      37.701  30.164  13.871 -0.37 +0.01    +0.064 C 
DOCKED: ATOM      4  C   UNL d   1      39.665  25.852  14.531 -0.47 +0.01    +0.064 C 
DOCKED: ATOM      5  C   UNL d   1      42.948  29.237  17.224 -0.26 +0.02    +0.066 A 
DOCKED: ATOM      6  C   UNL d   1      43.815  30.166  17.774 -0.29 -0.01    -0.021 A 
DOCKED: ATOM      7  C   UNL d   1      43.261  31.404  17.559 -0.27 -0.01    -0.025 A 
DOCKED: ATOM      8  C   UNL d   1      42.076  31.182  16.884 -0.36 +0.01    +0.066 A 
DOCKED: ATOM      9  C   UNL d   1      43.853  32.719  17.964 -0.32 +0.01    +0.051 C 
DOCKED: ATOM     10  C   UNL d   1      40.034  32.057  15.785 -0.37 +0.01    +0.066 A 
DOCKED: ATOM     11  C   UNL d   1      39.113  33.073  15.518 -0.41 -0.00    -0.021 A 
DOCKED: ATOM     12  C   UNL d   1      38.099  32.497  14.780 -0.39 +0.00    +0.000 A 
DOCKED: ATOM     13  C   UNL d   1      38.453  31.143  14.640 -0.35 +0.01    +0.070 A 
DOCKED: ATOM     14  C   UNL d   1      39.162  34.508  16.002 -0.53 +0.00    +0.052 C 
DOCKED: ATOM     15  C   UNL d   1      38.010  28.849  13.776 -0.33 +0.01    +0.066 A 
DOCKED: ATOM     16  C   UNL d   1      37.324  27.966  12.952 -0.46 -0.00    -0.021 A 
DOCKED: ATOM     17  C   UNL d   1      37.886  26.721  13.143 -0.45 +0.00    +0.000 A 
DOCKED: ATOM     18  C   UNL d   1      38.901  26.873  14.085 -0.37 +0.01    +0.070 A 
DOCKED: ATOM     19  C   UNL d   1      36.168  28.273  12.038 -0.65 +0.01    +0.052 C 
DOCKED: ATOM     20  C   UNL d   1      40.782  25.985  15.474 -0.39 +0.01    +0.066 A 
DOCKED: ATOM     21  C   UNL d   1      41.448  24.919  16.095 -0.39 -0.00    -0.025 A 
DOCKED: ATOM     22  C   UNL d   1      42.442  25.491  16.862 -0.34 -0.00    -0.021 A 
DOCKED: ATOM     23  C   UNL d   1      42.340  26.876  16.684 -0.27 +0.02    +0.066 A 
DOCKED: ATOM     24  C   UNL d   1      41.169  23.438  15.983 -0.50 +0.00    +0.051 C 
DOCKED: ATOM     25  N   UNL d   1      41.893  29.863  16.674 -0.23 -0.05    -0.248 N 
DOCKED: ATOM     26  N   UNL d   1      39.628  30.873  15.260 -0.17 -0.05    -0.248 N 
DOCKED: ATOM     27  N   UNL d   1      39.007  28.189  14.442 -0.07 -0.07    -0.248 N 
DOCKED: ATOM     28  N   UNL d   1      41.297  27.173  15.872 -0.25 -0.05    -0.248 N 
DOCKED: ATOM     29 FE   UNL d   1      40.462  29.021  15.566 -0.09 +0.00    +0.000 Fe
DOCKED: ENDROOT
DOCKED: BRANCH   6  30
DOCKED: ATOM     30  C   UNL d   1      45.115  29.897  18.451 -0.24 +0.02    +0.052 C 
DOCKED: BRANCH  30  31
DOCKED: ATOM     31  C   UNL d   1      44.892  29.467  19.897 -0.16 +0.08    +0.115 C 
DOCKED: BRANCH  31  32
DOCKED: ATOM     32  C   UNL d   1      45.376  28.059  20.107 -0.17 +0.13    +0.139 C 
DOCKED: ATOM     33  O   UNL d   1      45.679  27.664  21.224 -0.29 -1.21    -0.650 OA
DOCKED: BRANCH  32  34
DOCKED: ATOM     34  O   UNL d   1      45.479  27.218  19.064 +0.07 -0.44    -0.776 OA
DOCKED: ATOM     35  H   UNL d   1      45.076  26.341  19.126 +0.06 +0.09    +0.167 HD
DOCKED: ENDBRANCH  32  34
DOCKED: ENDBRANCH  31  32
DOCKED: ENDBRANCH  30  31
DOCKED: ENDBRANCH   6  30
DOCKED: BRANCH  22  36
DOCKED: ATOM     36  C   UNL d   1      43.404  24.748  17.752 -0.30 +0.02    +0.052 C 
DOCKED: BRANCH  36  37
DOCKED: ATOM     37  C   UNL d   1      42.731  24.428  19.079 -0.37 +0.03    +0.115 C 
DOCKED: BRANCH  37  38
DOCKED: ATOM     38  C   UNL d   1      43.751  24.229  20.165 -0.24 +0.06    +0.139 C 
DOCKED: ATOM     39  O   UNL d   1      44.149  23.109  20.451 -0.54 -0.34    -0.650 OA
DOCKED: BRANCH  38  40
DOCKED: ATOM     40  O   UNL d   1      44.232  25.290  20.836 +0.04 -0.58    -0.776 OA
DOCKED: ATOM     41  H   UNL d   1      45.036  25.723  20.516 +0.06 +0.13    +0.167 HD
DOCKED: ENDBRANCH  38  40
DOCKED: ENDBRANCH  37  38
DOCKED: ENDBRANCH  36  37
DOCKED: ENDBRANCH  22  36
DOCKED: BRANCH  12  42
DOCKED: ATOM     42  C   UNL d   1      36.888  33.218  14.279 -0.46 +0.00    +0.004 C 
DOCKED: ATOM     43  C   UNL d   1      36.652  33.340  12.967 -0.53 +0.00    +0.012 C 
DOCKED: ENDBRANCH  12  42
DOCKED: BRANCH  17  44
DOCKED: ATOM     44  C   UNL d   1      37.492  25.472  12.455 -0.42 +0.00    +0.004 C 
DOCKED: ATOM     45  C   UNL d   1      36.418  24.780  12.852 -0.68 +0.00    +0.012 C 
DOCKED: ENDBRANCH  17  44
DOCKED: TORSDOF 10
DOCKED: TER
DOCKED: ENDMDL
________________________________________________________________________________


	BEGINNING GENETIC ALGORITHM DOCKING 35 of 100
Run: 35 Seed: 978075755 1057057537 [ Run 35 of 100 GA/GALS ]
Beginning LAMARCKIAN GENETIC ALGORITHM (LGA), with a maximum of 25000000 energy evaluations.

Final-Value: -18.129


	FINAL GENETIC ALGORITHM DOCKED STATE
	_______________________________________________


Detailed state:  trans 41.692 28.426 15.944 quatxyzw -0.241028 -0.098604 0.946683 -0.189666 center -0.174 -0.001 -0.047 ntor 10 -5.9224 163.0452 72.6299 -146.4235 -146.5845 -44.3364 -82.8852 5.7341 -180.0000 150.2277
State:	 41.692  28.426  15.944  -0.245 -0.100  0.964 -158.133     -5.92  163.05   72.63 -146.42 -146.58  -44.34  -82.89    5.73 -180.00  150.23

DOCKED: MODEL       35
DOCKED: USER    Run = 35
DOCKED: USER    DPF = D:/Protein_go_brrr/autodock/final/6BB5/heme_Fe/dock.dpf
DOCKED: USER  
DOCKED: USER    Estimated Free Energy of Binding    =  -12.95 kcal/mol  [=(1)+(2)+(3)-(4)]
DOCKED: USER    Estimated Inhibition Constant, Ki   =  319.88 pM (picomolar)  [Temperature = 298.15 K]
DOCKED: USER    
DOCKED: USER    (1) Final Intermolecular Energy     =  -15.94 kcal/mol
DOCKED: USER        vdW + Hbond + desolv Energy     =  -13.96 kcal/mol
DOCKED: USER        Electrostatic Energy            =   -1.98 kcal/mol
DOCKED: USER    (2) Final Total Internal Energy     =   -2.19 kcal/mol
DOCKED: USER    (3) Torsional Free Energy           =   +2.98 kcal/mol
DOCKED: USER    (4) Unbound System's Energy  [=(2)] =   -2.19 kcal/mol
DOCKED: USER    
DOCKED: USER    
DOCKED: USER    NEWDPF move heme_Fe_opt.pdbqt
DOCKED: USER    NEWDPF about -0.174000 -0.001000 -0.047000
DOCKED: USER    NEWDPF tran0 41.692024 28.426088 15.944419
DOCKED: USER    NEWDPF quaternion0 -0.241028 -0.098604 0.946683 -0.189666
DOCKED: USER    NEWDPF axisangle0 -0.245484 -0.100427 0.964185 -158.133360
DOCKED: USER    NEWDPF quat0 -0.245484 -0.100427 0.964185 -158.133360
DOCKED: USER    NEWDPF dihe0 -5.92 163.05 72.63 -146.42 -146.58 -44.34 -82.89 5.73 -180.00 150.23 
DOCKED: USER  keepresnum = 1 
DOCKED: USER  
DOCKED: REMARK  10 active torsions:
DOCKED: REMARK  status: ('A' for Active; 'I' for Inactive)
DOCKED: REMARK    1  A    between atoms: C_6  and  C_10 
DOCKED: REMARK    2  A    between atoms: C_10  and  C_11 
DOCKED: REMARK    3  A    between atoms: C_11  and  C_12 
DOCKED: REMARK    4  A    between atoms: C_12  and  O_14 
DOCKED: REMARK    5  A    between atoms: C_17  and  C_20 
DOCKED: REMARK    6  A    between atoms: C_24  and  C_27 
DOCKED: REMARK    7  A    between atoms: C_31  and  C_34 
DOCKED: REMARK    8  A    between atoms: C_34  and  C_35 
DOCKED: REMARK    9  A    between atoms: C_35  and  C_36 
DOCKED: REMARK   10  A    between atoms: C_36  and  O_38 
DOCKED: USER                              x       y       z     vdW  Elec       q    Type
DOCKED: USER                           _______ _______ _______ _____ _____    ______ ____
DOCKED: ROOT
DOCKED: ATOM      1  C   UNL d   1      43.056  27.623  17.251 -0.19 +0.02    +0.064 C 
DOCKED: ATOM      2  C   UNL d   1      41.223  32.148  16.478 -0.41 +0.01    +0.064 A 
DOCKED: ATOM      3  C   UNL d   1      37.709  30.200  13.847 -0.38 +0.01    +0.064 C 
DOCKED: ATOM      4  C   UNL d   1      39.526  25.822  14.495 -0.46 +0.01    +0.064 C 
DOCKED: ATOM      5  C   UNL d   1      42.914  29.085  17.208 -0.23 +0.02    +0.066 A 
DOCKED: ATOM      6  C   UNL d   1      43.810  29.984  17.763 -0.29 -0.01    -0.021 A 
DOCKED: ATOM      7  C   UNL d   1      43.298  31.240  17.551 -0.27 -0.01    -0.025 A 
DOCKED: ATOM      8  C   UNL d   1      42.108  31.060  16.874 -0.35 +0.01    +0.066 A 
DOCKED: ATOM      9  C   UNL d   1      43.933  32.533  17.963 -0.30 +0.01    +0.051 C 
DOCKED: ATOM     10  C   UNL d   1      40.099  32.006  15.774 -0.37 +0.01    +0.066 A 
DOCKED: ATOM     11  C   UNL d   1      39.213  33.054  15.508 -0.41 -0.00    -0.021 A 
DOCKED: ATOM     12  C   UNL d   1      38.182  32.514  14.765 -0.40 +0.00    +0.000 A 
DOCKED: ATOM     13  C   UNL d   1      38.491  31.150  14.621 -0.35 +0.01    +0.070 A 
DOCKED: ATOM     14  C   UNL d   1      39.309  34.485  15.997 -0.51 +0.00    +0.052 C 
DOCKED: ATOM     15  C   UNL d   1      37.973  28.876  13.748 -0.33 +0.01    +0.066 A 
DOCKED: ATOM     16  C   UNL d   1      37.260  28.019  12.919 -0.47 -0.00    -0.021 A 
DOCKED: ATOM     17  C   UNL d   1      37.780  26.755  13.107 -0.45 +0.00    +0.000 A 
DOCKED: ATOM     18  C   UNL d   1      38.798  26.870  14.051 -0.37 +0.01    +0.070 A 
DOCKED: ATOM     19  C   UNL d   1      36.117  28.368  12.004 -0.65 +0.00    +0.052 C 
DOCKED: ATOM     20  C   UNL d   1      40.644  25.914  15.441 -0.38 +0.01    +0.066 A 
DOCKED: ATOM     21  C   UNL d   1      41.273  24.824  16.060 -0.39 -0.00    -0.025 A 
DOCKED: ATOM     22  C   UNL d   1      42.284  25.360  16.831 -0.35 -0.00    -0.021 A 
DOCKED: ATOM     23  C   UNL d   1      42.229  26.748  16.658 -0.29 +0.01    +0.066 A 
DOCKED: ATOM     24  C   UNL d   1      40.945  23.354  15.942 -0.48 +0.00    +0.051 C 
DOCKED: ATOM     25  N   UNL d   1      41.882  29.748  16.658 -0.23 -0.05    -0.248 N 
DOCKED: ATOM     26  N   UNL d   1      39.654  30.838  15.243 -0.14 -0.05    -0.248 N 
DOCKED: ATOM     27  N   UNL d   1      38.947  28.180  14.414 -0.08 -0.07    -0.248 N 
DOCKED: ATOM     28  N   UNL d   1      41.198  27.083  15.845 -0.26 -0.05    -0.248 N 
DOCKED: ATOM     29 FE   UNL d   1      40.425  28.959  15.543 -0.09 +0.00    +0.000 Fe
DOCKED: ENDROOT
DOCKED: BRANCH   6  30
DOCKED: ATOM     30  C   UNL d   1      45.098  29.668  18.443 -0.24 +0.02    +0.052 C 
DOCKED: BRANCH  30  31
DOCKED: ATOM     31  C   UNL d   1      44.888  29.481  19.941 -0.11 +0.08    +0.115 C 
DOCKED: BRANCH  31  32
DOCKED: ATOM     32  C   UNL d   1      44.759  28.020  20.275 -0.17 +0.15    +0.139 C 
DOCKED: ATOM     33  O   UNL d   1      44.032  27.651  21.187 -0.25 -1.14    -0.650 OA
DOCKED: BRANCH  32  34
DOCKED: ATOM     34  O   UNL d   1      45.446  27.104  19.572 +0.06 -0.54    -0.776 OA
DOCKED: ATOM     35  H   UNL d   1      45.421  26.179  19.855 +0.05 +0.11    +0.167 HD
DOCKED: ENDBRANCH  32  34
DOCKED: ENDBRANCH  31  32
DOCKED: ENDBRANCH  30  31
DOCKED: ENDBRANCH   6  30
DOCKED: BRANCH  22  36
DOCKED: ATOM     36  C   UNL d   1      43.218  24.582  17.721 -0.32 +0.01    +0.052 C 
DOCKED: BRANCH  36  37
DOCKED: ATOM     37  C   UNL d   1      42.944  24.926  19.177 -0.35 +0.04    +0.115 C 
DOCKED: BRANCH  37  38
DOCKED: ATOM     38  C   UNL d   1      43.938  24.257  20.085 -0.24 +0.06    +0.139 C 
DOCKED: ATOM     39  O   UNL d   1      44.244  23.085  19.921 -0.50 -0.31    -0.650 OA
DOCKED: BRANCH  38  40
DOCKED: ATOM     40  O   UNL d   1      44.498  24.950  21.093 +0.05 -0.56    -0.776 OA
DOCKED: ATOM     41  H   UNL d   1      44.457  25.916  21.079 +0.05 +0.17    +0.167 HD
DOCKED: ENDBRANCH  38  40
DOCKED: ENDBRANCH  37  38
DOCKED: ENDBRANCH  36  37
DOCKED: ENDBRANCH  22  36
DOCKED: BRANCH  12  42
DOCKED: ATOM     42  C   UNL d   1      36.997  33.277  14.265 -0.47 +0.00    +0.004 C 
DOCKED: ATOM     43  C   UNL d   1      36.732  33.357  12.954 -0.52 +0.00    +0.012 C 
DOCKED: ENDBRANCH  12  42
DOCKED: BRANCH  17  44
DOCKED: ATOM     44  C   UNL d   1      37.346  25.522  12.413 -0.43 +0.00    +0.004 C 
DOCKED: ATOM     45  C   UNL d   1      36.410  24.730  12.946 -0.68 +0.00    +0.012 C 
DOCKED: ENDBRANCH  17  44
DOCKED: TORSDOF 10
DOCKED: TER
DOCKED: ENDMDL
________________________________________________________________________________


	BEGINNING GENETIC ALGORITHM DOCKING 36 of 100
Run: 36 Seed: 1371106392 811635427 [ Run 36 of 100 GA/GALS ]
Beginning LAMARCKIAN GENETIC ALGORITHM (LGA), with a maximum of 25000000 energy evaluations.

Final-Value: -18.078


	FINAL GENETIC ALGORITHM DOCKED STATE
	_______________________________________________


Detailed state:  trans 41.734 28.638 15.966 quatxyzw -0.238949 -0.102640 0.951838 -0.162397 center -0.174 -0.001 -0.047 ntor 10 -14.8653 156.9598 69.0336 -134.5127 14.5604 -82.5643 -78.9575 -1.1896 -171.9390 159.8653
State:	 41.734  28.638  15.966  -0.242 -0.104  0.965 -161.308    -14.87  156.96   69.03 -134.51   14.56  -82.56  -78.96   -1.19 -171.94  159.87

DOCKED: MODEL       36
DOCKED: USER    Run = 36
DOCKED: USER    DPF = D:/Protein_go_brrr/autodock/final/6BB5/heme_Fe/dock.dpf
DOCKED: USER  
DOCKED: USER    Estimated Free Energy of Binding    =  -12.83 kcal/mol  [=(1)+(2)+(3)-(4)]
DOCKED: USER    Estimated Inhibition Constant, Ki   =  395.12 pM (picomolar)  [Temperature = 298.15 K]
DOCKED: USER    
DOCKED: USER    (1) Final Intermolecular Energy     =  -15.81 kcal/mol
DOCKED: USER        vdW + Hbond + desolv Energy     =  -13.75 kcal/mol
DOCKED: USER        Electrostatic Energy            =   -2.06 kcal/mol
DOCKED: USER    (2) Final Total Internal Energy     =   -2.27 kcal/mol
DOCKED: USER    (3) Torsional Free Energy           =   +2.98 kcal/mol
DOCKED: USER    (4) Unbound System's Energy  [=(2)] =   -2.27 kcal/mol
DOCKED: USER    
DOCKED: USER    
DOCKED: USER    NEWDPF move heme_Fe_opt.pdbqt
DOCKED: USER    NEWDPF about -0.174000 -0.001000 -0.047000
DOCKED: USER    NEWDPF tran0 41.734398 28.637918 15.966436
DOCKED: USER    NEWDPF quaternion0 -0.238949 -0.102640 0.951838 -0.162397
DOCKED: USER    NEWDPF axisangle0 -0.242164 -0.104021 0.964643 -161.307919
DOCKED: USER    NEWDPF quat0 -0.242164 -0.104021 0.964643 -161.307919
DOCKED: USER    NEWDPF dihe0 -14.87 156.96 69.03 -134.51 14.56 -82.56 -78.96 -1.19 -171.94 159.87 
DOCKED: USER  keepresnum = 1 
DOCKED: USER  
DOCKED: REMARK  10 active torsions:
DOCKED: REMARK  status: ('A' for Active; 'I' for Inactive)
DOCKED: REMARK    1  A    between atoms: C_6  and  C_10 
DOCKED: REMARK    2  A    between atoms: C_10  and  C_11 
DOCKED: REMARK    3  A    between atoms: C_11  and  C_12 
DOCKED: REMARK    4  A    between atoms: C_12  and  O_14 
DOCKED: REMARK    5  A    between atoms: C_17  and  C_20 
DOCKED: REMARK    6  A    between atoms: C_24  and  C_27 
DOCKED: REMARK    7  A    between atoms: C_31  and  C_34 
DOCKED: REMARK    8  A    between atoms: C_34  and  C_35 
DOCKED: REMARK    9  A    between atoms: C_35  and  C_36 
DOCKED: REMARK   10  A    between atoms: C_36  and  O_38 
DOCKED: USER                              x       y       z     vdW  Elec       q    Type
DOCKED: USER                           _______ _______ _______ _____ _____    ______ ____
DOCKED: ROOT
DOCKED: ATOM      1  C   UNL d   1      43.140  27.920  17.278 -0.21 +0.02    +0.064 C 
DOCKED: ATOM      2  C   UNL d   1      41.058  32.331  16.478 -0.42 +0.01    +0.064 A 
DOCKED: ATOM      3  C   UNL d   1      37.659  30.174  13.858 -0.31 +0.01    +0.064 C 
DOCKED: ATOM      4  C   UNL d   1      39.718  25.909  14.531 -0.47 +0.01    +0.064 C 
DOCKED: ATOM      5  C   UNL d   1      42.916  29.372  17.226 -0.27 +0.02    +0.066 A 
DOCKED: ATOM      6  C   UNL d   1      43.761  30.322  17.777 -0.29 -0.01    -0.021 A 
DOCKED: ATOM      7  C   UNL d   1      43.180  31.546  17.558 -0.28 -0.00    -0.025 A 
DOCKED: ATOM      8  C   UNL d   1      42.002  31.296  16.881 -0.36 +0.01    +0.066 A 
DOCKED: ATOM      9  C   UNL d   1      43.741  32.875  17.962 -0.35 +0.01    +0.051 C 
DOCKED: ATOM     10  C   UNL d   1      39.943  32.122  15.775 -0.37 +0.01    +0.066 A 
DOCKED: ATOM     11  C   UNL d   1      39.001  33.117  15.503 -0.41 -0.00    -0.021 A 
DOCKED: ATOM     12  C   UNL d   1      38.002  32.517  14.762 -0.39 +0.00    +0.000 A 
DOCKED: ATOM     13  C   UNL d   1      38.387  31.171  14.626 -0.36 +0.01    +0.070 A 
DOCKED: ATOM     14  C   UNL d   1      39.017  34.554  15.984 -0.55 +0.00    +0.052 C 
DOCKED: ATOM     15  C   UNL d   1      37.998  28.866  13.766 -0.33 +0.01    +0.066 A 
DOCKED: ATOM     16  C   UNL d   1      37.334  27.966  12.942 -0.47 -0.00    -0.021 A 
DOCKED: ATOM     17  C   UNL d   1      37.924  26.735  13.137 -0.45 +0.00    +0.000 A 
DOCKED: ATOM     18  C   UNL d   1      38.933  26.912  14.081 -0.36 +0.01    +0.070 A 
DOCKED: ATOM     19  C   UNL d   1      36.174  28.245  12.024 -0.65 +0.01    +0.052 C 
DOCKED: ATOM     20  C   UNL d   1      40.829  26.068  15.478 -0.39 +0.01    +0.066 A 
DOCKED: ATOM     21  C   UNL d   1      41.517  25.019  16.103 -0.39 -0.00    -0.025 A 
DOCKED: ATOM     22  C   UNL d   1      42.496  25.615  16.871 -0.33 -0.00    -0.021 A 
DOCKED: ATOM     23  C   UNL d   1      42.363  26.997  16.690 -0.26 +0.02    +0.066 A 
DOCKED: ATOM     24  C   UNL d   1      41.272  23.532  15.993 -0.50 +0.00    +0.051 C 
DOCKED: ATOM     25  N   UNL d   1      41.849  29.973  16.672 -0.23 -0.05    -0.248 N 
DOCKED: ATOM     26  N   UNL d   1      39.566  30.929  15.251 -0.20 -0.05    -0.248 N 
DOCKED: ATOM     27  N   UNL d   1      39.008  28.230  14.436 -0.06 -0.07    -0.248 N 
DOCKED: ATOM     28  N   UNL d   1      41.316  27.269  15.874 -0.25 -0.05    -0.248 N 
DOCKED: ATOM     29 FE   UNL d   1      40.440  29.097  15.562 -0.09 +0.00    +0.000 Fe
DOCKED: ENDROOT
DOCKED: BRANCH   6  30
DOCKED: ATOM     30  C   UNL d   1      45.064  30.083  18.459 -0.24 +0.02    +0.052 C 
DOCKED: BRANCH  30  31
DOCKED: ATOM     31  C   UNL d   1      44.849  29.697  19.918 -0.14 +0.08    +0.115 C 
DOCKED: BRANCH  31  32
DOCKED: ATOM     32  C   UNL d   1      44.987  28.210  20.094 -0.18 +0.13    +0.139 C 
DOCKED: ATOM     33  O   UNL d   1      45.490  27.522  19.217 +0.03 -0.39    -0.650 OA
DOCKED: BRANCH  32  34
DOCKED: ATOM     34  O   UNL d   1      44.556  27.621  21.223 -0.03 -1.46    -0.776 OA
DOCKED: ATOM     35  H   UNL d   1      44.448  26.660  21.239 +0.04 +0.25    +0.167 HD
DOCKED: ENDBRANCH  32  34
DOCKED: ENDBRANCH  31  32
DOCKED: ENDBRANCH  30  31
DOCKED: ENDBRANCH   6  30
DOCKED: BRANCH  22  36
DOCKED: ATOM     36  C   UNL d   1      43.472  24.896  17.765 -0.29 +0.02    +0.052 C 
DOCKED: BRANCH  36  37
DOCKED: ATOM     37  C   UNL d   1      43.037  25.037  19.217 -0.33 +0.04    +0.115 C 
DOCKED: BRANCH  37  38
DOCKED: ATOM     38  C   UNL d   1      43.964  24.288  20.132 -0.24 +0.07    +0.139 C 
DOCKED: ATOM     39  O   UNL d   1      43.830  23.087  20.311 -0.45 -0.32    -0.650 OA
DOCKED: BRANCH  38  40
DOCKED: ATOM     40  O   UNL d   1      44.953  24.942  20.766 +0.07 -0.53    -0.776 OA
DOCKED: ATOM     41  H   UNL d   1      45.280  25.774  20.396 +0.05 +0.13    +0.167 HD
DOCKED: ENDBRANCH  38  40
DOCKED: ENDBRANCH  37  38
DOCKED: ENDBRANCH  36  37
DOCKED: ENDBRANCH  22  36
DOCKED: BRANCH  12  42
DOCKED: ATOM     42  C   UNL d   1      36.777  33.209  14.257 -0.45 +0.00    +0.004 C 
DOCKED: ATOM     43  C   UNL d   1      36.544  33.329  12.944 -0.53 +0.00    +0.012 C 
DOCKED: ENDBRANCH  12  42
DOCKED: BRANCH  17  44
DOCKED: ATOM     44  C   UNL d   1      37.560  25.475  12.450 -0.39 +0.00    +0.004 C 
DOCKED: ATOM     45  C   UNL d   1      36.510  24.753  12.856 -0.68 +0.00    +0.012 C 
DOCKED: ENDBRANCH  17  44
DOCKED: TORSDOF 10
DOCKED: TER
DOCKED: ENDMDL
________________________________________________________________________________


	BEGINNING GENETIC ALGORITHM DOCKING 37 of 100
Run: 37 Seed: 1142208629 922835117 [ Run 37 of 100 GA/GALS ]
Beginning LAMARCKIAN GENETIC ALGORITHM (LGA), with a maximum of 25000000 energy evaluations.

Final-Value: -15.119


	FINAL GENETIC ALGORITHM DOCKED STATE
	_______________________________________________


Detailed state:  trans 41.322 28.777 16.674 quatxyzw -0.108970 -0.933373 -0.071608 0.334384 center -0.174 -0.001 -0.047 ntor 10 -173.2627 39.9374 99.7013 -127.5328 -10.1289 -2.6673 73.4543 -56.9781 -9.9745 -180.0000
State:	 41.322  28.777  16.674  -0.116 -0.990 -0.076 140.930   -173.26   39.94   99.70 -127.53  -10.13   -2.67   73.45  -56.98   -9.97 -180.00

DOCKED: MODEL       37
DOCKED: USER    Run = 37
DOCKED: USER    DPF = D:/Protein_go_brrr/autodock/final/6BB5/heme_Fe/dock.dpf
DOCKED: USER  
DOCKED: USER    Estimated Free Energy of Binding    =  -11.45 kcal/mol  [=(1)+(2)+(3)-(4)]
DOCKED: USER    Estimated Inhibition Constant, Ki   =    4.03 nM (nanomolar)  [Temperature = 298.15 K]
DOCKED: USER    
DOCKED: USER    (1) Final Intermolecular Energy     =  -14.44 kcal/mol
DOCKED: USER        vdW + Hbond + desolv Energy     =  -13.08 kcal/mol
DOCKED: USER        Electrostatic Energy            =   -1.36 kcal/mol
DOCKED: USER    (2) Final Total Internal Energy     =   -0.68 kcal/mol
DOCKED: USER    (3) Torsional Free Energy           =   +2.98 kcal/mol
DOCKED: USER    (4) Unbound System's Energy  [=(2)] =   -0.68 kcal/mol
DOCKED: USER    
DOCKED: USER    
DOCKED: USER    NEWDPF move heme_Fe_opt.pdbqt
DOCKED: USER    NEWDPF about -0.174000 -0.001000 -0.047000
DOCKED: USER    NEWDPF tran0 41.322211 28.776576 16.674316
DOCKED: USER    NEWDPF quaternion0 -0.108970 -0.933373 -0.071608 0.334384
DOCKED: USER    NEWDPF axisangle0 -0.115626 -0.990382 -0.075981 140.929828
DOCKED: USER    NEWDPF quat0 -0.115626 -0.990382 -0.075981 140.929828
DOCKED: USER    NEWDPF dihe0 -173.26 39.94 99.70 -127.53 -10.13 -2.67 73.45 -56.98 -9.97 -180.00 
DOCKED: USER  keepresnum = 1 
DOCKED: USER  
DOCKED: REMARK  10 active torsions:
DOCKED: REMARK  status: ('A' for Active; 'I' for Inactive)
DOCKED: REMARK    1  A    between atoms: C_6  and  C_10 
DOCKED: REMARK    2  A    between atoms: C_10  and  C_11 
DOCKED: REMARK    3  A    between atoms: C_11  and  C_12 
DOCKED: REMARK    4  A    between atoms: C_12  and  O_14 
DOCKED: REMARK    5  A    between atoms: C_17  and  C_20 
DOCKED: REMARK    6  A    between atoms: C_24  and  C_27 
DOCKED: REMARK    7  A    between atoms: C_31  and  C_34 
DOCKED: REMARK    8  A    between atoms: C_34  and  C_35 
DOCKED: REMARK    9  A    between atoms: C_35  and  C_36 
DOCKED: REMARK   10  A    between atoms: C_36  and  O_38 
DOCKED: USER                              x       y       z     vdW  Elec       q    Type
DOCKED: USER                           _______ _______ _______ _____ _____    ______ ____
DOCKED: ROOT
DOCKED: ATOM      1  C   UNL d   1      43.144  28.254  17.460 -0.00 +0.02    +0.064 C 
DOCKED: ATOM      2  C   UNL d   1      39.755  25.948  14.699 -0.40 +0.01    +0.064 A 
DOCKED: ATOM      3  C   UNL d   1      37.708  30.196  13.788 -0.38 +0.01    +0.064 C 
DOCKED: ATOM      4  C   UNL d   1      40.916  32.436  16.540 -0.49 +0.01    +0.064 C 
DOCKED: ATOM      5  C   UNL d   1      42.331  27.202  16.836 -0.05 +0.02    +0.066 A 
DOCKED: ATOM      6  C   UNL d   1      42.553  25.842  16.976 -0.32 -0.01    -0.021 A 
DOCKED: ATOM      7  C   UNL d   1      41.614  25.202  16.206 -0.39 -0.00    -0.025 A 
DOCKED: ATOM      8  C   UNL d   1      40.853  26.198  15.625 -0.38 +0.01    +0.066 A 
DOCKED: ATOM      9  C   UNL d   1      41.453  23.720  16.060 -0.48 +0.01    +0.051 C 
DOCKED: ATOM     10  C   UNL d   1      38.968  26.887  14.170 -0.37 +0.01    +0.066 A 
DOCKED: ATOM     11  C   UNL d   1      37.999  26.627  13.198 -0.43 -0.00    -0.021 A 
DOCKED: ATOM     12  C   UNL d   1      37.405  27.839  12.906 -0.48 +0.00    +0.000 A 
DOCKED: ATOM     13  C   UNL d   1      38.056  28.786  13.716 -0.32 +0.01    +0.070 A 
DOCKED: ATOM     14  C   UNL d   1      37.698  25.301  12.530 -0.41 +0.01    +0.052 C 
DOCKED: ATOM     15  C   UNL d   1      38.364  31.121  14.527 -0.36 +0.01    +0.066 A 
DOCKED: ATOM     16  C   UNL d   1      37.940  32.438  14.647 -0.38 -0.00    -0.021 A 
DOCKED: ATOM     17  C   UNL d   1      38.866  33.087  15.437 -0.41 +0.00    +0.000 A 
DOCKED: ATOM     18  C   UNL d   1      39.837  32.149  15.779 -0.37 +0.01    +0.070 A 
DOCKED: ATOM     19  C   UNL d   1      36.726  33.071  14.022 -0.41 +0.00    +0.052 C 
DOCKED: ATOM     20  C   UNL d   1      41.926  31.462  16.971 -0.38 +0.01    +0.066 A 
DOCKED: ATOM     21  C   UNL d   1      43.145  31.778  17.587 -0.28 -0.00    -0.025 A 
DOCKED: ATOM     22  C   UNL d   1      43.758  30.571  17.851 -0.29 -0.01    -0.021 A 
DOCKED: ATOM     23  C   UNL d   1      42.897  29.571  17.384 -0.26 +0.02    +0.066 A 
DOCKED: ATOM     24  C   UNL d   1      43.714  33.140  17.909 -0.29 +0.01    +0.051 C 
DOCKED: ATOM     25  N   UNL d   1      41.285  27.413  16.017 -0.25 -0.06    -0.248 N 
DOCKED: ATOM     26  N   UNL d   1      39.015  28.207  14.480 -0.07 -0.07    -0.248 N 
DOCKED: ATOM     27  N   UNL d   1      39.507  30.930  15.256 -0.21 -0.05    -0.248 N 
DOCKED: ATOM     28  N   UNL d   1      41.801  30.122  16.807 -0.23 -0.05    -0.248 N 
DOCKED: ATOM     29 FE   UNL d   1      40.408  29.167  15.644 -0.09 +0.00    +0.000 Fe
DOCKED: ENDROOT
DOCKED: BRANCH   6  30
DOCKED: ATOM     30  C   UNL d   1      43.592  25.180  17.816 -0.28 +0.02    +0.052 C 
DOCKED: BRANCH  30  31
DOCKED: ATOM     31  C   UNL d   1      43.162  25.144  19.279 -0.31 +0.04    +0.115 C 
DOCKED: BRANCH  31  32
DOCKED: ATOM     32  C   UNL d   1      43.950  26.140  20.083 -0.23 +0.10    +0.139 C 
DOCKED: ATOM     33  O   UNL d   1      44.921  26.705  19.598 +0.02 -0.44    -0.650 OA
DOCKED: BRANCH  32  34
DOCKED: ATOM     34  O   UNL d   1      43.593  26.419  21.348 -0.27 -0.98    -0.776 OA
DOCKED: ATOM     35  H   UNL d   1      42.889  25.901  21.762 +0.06 +0.17    +0.167 HD
DOCKED: ENDBRANCH  32  34
DOCKED: ENDBRANCH  31  32
DOCKED: ENDBRANCH  30  31
DOCKED: ENDBRANCH   6  30
DOCKED: BRANCH  22  36
DOCKED: ATOM     36  C   UNL d   1      45.118  30.392  18.474 -0.24 +0.02    +0.052 C 
DOCKED: BRANCH  36  37
DOCKED: ATOM     37  C   UNL d   1      46.193  30.528  17.406 -0.10 +0.03    +0.115 C 
DOCKED: BRANCH  37  38
DOCKED: ATOM     38  C   UNL d   1      47.160  31.625  17.751 -0.14 +0.03    +0.139 C 
DOCKED: ATOM     39  O   UNL d   1      46.998  32.309  18.751 +0.03 -0.14    -0.650 OA
DOCKED: BRANCH  38  40
DOCKED: ATOM     40  O   UNL d   1      48.215  31.866  16.953 +0.02 -0.13    -0.776 OA
DOCKED: ATOM     41  H   UNL d   1      49.069  32.081  17.354 +0.04 +0.03    +0.167 HD
DOCKED: ENDBRANCH  38  40
DOCKED: ENDBRANCH  37  38
DOCKED: ENDBRANCH  36  37
DOCKED: ENDBRANCH  22  36
DOCKED: BRANCH  12  42
DOCKED: ATOM     42  C   UNL d   1      36.312  28.038  11.904 -0.69 +0.00    +0.004 C 
DOCKED: ATOM     43  C   UNL d   1      35.375  28.977  12.084 -0.65 +0.00    +0.012 C 
DOCKED: ENDBRANCH  12  42
DOCKED: BRANCH  17  44
DOCKED: ATOM     44  C   UNL d   1      38.813  34.506  15.855 -0.55 +0.00    +0.004 C 
DOCKED: ATOM     45  C   UNL d   1      39.081  35.486  14.987 -0.62 +0.00    +0.012 C 
DOCKED: ENDBRANCH  17  44
DOCKED: TORSDOF 10
DOCKED: TER
DOCKED: ENDMDL
________________________________________________________________________________


	BEGINNING GENETIC ALGORITHM DOCKING 38 of 100
Run: 38 Seed: 561738794 961251790 [ Run 38 of 100 GA/GALS ]
Beginning LAMARCKIAN GENETIC ALGORITHM (LGA), with a maximum of 25000000 energy evaluations.

Final-Value: -11.642


	FINAL GENETIC ALGORITHM DOCKED STATE
	_______________________________________________


Detailed state:  trans 5.152 34.723 -1.125 quatxyzw -0.426331 -0.038794 0.151575 -0.890933 center -0.174 -0.001 -0.047 ntor 10 -62.7139 133.7019 66.2863 -139.5931 -167.5935 -99.4260 73.4545 -114.4017 -163.6912 174.5696
State:	  5.152  34.723  -1.125  -0.939 -0.085  0.334 -54.019    -62.71  133.70   66.29 -139.59 -167.59  -99.43   73.45 -114.40 -163.69  174.57

DOCKED: MODEL       38
DOCKED: USER    Run = 38
DOCKED: USER    DPF = D:/Protein_go_brrr/autodock/final/6BB5/heme_Fe/dock.dpf
DOCKED: USER  
DOCKED: USER    Estimated Free Energy of Binding    =   -7.95 kcal/mol  [=(1)+(2)+(3)-(4)]
DOCKED: USER    Estimated Inhibition Constant, Ki   =    1.49 uM (micromolar)  [Temperature = 298.15 K]
DOCKED: USER    
DOCKED: USER    (1) Final Intermolecular Energy     =  -10.93 kcal/mol
DOCKED: USER        vdW + Hbond + desolv Energy     =   -9.57 kcal/mol
DOCKED: USER        Electrostatic Energy            =   -1.36 kcal/mol
DOCKED: USER    (2) Final Total Internal Energy     =   -0.71 kcal/mol
DOCKED: USER    (3) Torsional Free Energy           =   +2.98 kcal/mol
DOCKED: USER    (4) Unbound System's Energy  [=(2)] =   -0.71 kcal/mol
DOCKED: USER    
DOCKED: USER    
DOCKED: USER    NEWDPF move heme_Fe_opt.pdbqt
DOCKED: USER    NEWDPF about -0.174000 -0.001000 -0.047000
DOCKED: USER    NEWDPF tran0 5.152062 34.723285 -1.125411
DOCKED: USER    NEWDPF quaternion0 -0.426331 -0.038794 0.151575 -0.890933
DOCKED: USER    NEWDPF axisangle0 -0.938777 -0.085425 0.333767 -54.018542
DOCKED: USER    NEWDPF quat0 -0.938777 -0.085425 0.333767 -54.018542
DOCKED: USER    NEWDPF dihe0 -62.71 133.70 66.29 -139.59 -167.59 -99.43 73.45 -114.40 -163.69 174.57 
DOCKED: USER  keepresnum = 1 
DOCKED: USER  
DOCKED: REMARK  10 active torsions:
DOCKED: REMARK  status: ('A' for Active; 'I' for Inactive)
DOCKED: REMARK    1  A    between atoms: C_6  and  C_10 
DOCKED: REMARK    2  A    between atoms: C_10  and  C_11 
DOCKED: REMARK    3  A    between atoms: C_11  and  C_12 
DOCKED: REMARK    4  A    between atoms: C_12  and  O_14 
DOCKED: REMARK    5  A    between atoms: C_17  and  C_20 
DOCKED: REMARK    6  A    between atoms: C_24  and  C_27 
DOCKED: REMARK    7  A    between atoms: C_31  and  C_34 
DOCKED: REMARK    8  A    between atoms: C_34  and  C_35 
DOCKED: REMARK    9  A    between atoms: C_35  and  C_36 
DOCKED: REMARK   10  A    between atoms: C_36  and  O_38 
DOCKED: USER                              x       y       z     vdW  Elec       q    Type
DOCKED: USER                           _______ _______ _______ _____ _____    ______ ____
DOCKED: ROOT
DOCKED: ATOM      1  C   UNL d   1       3.177  34.486  -0.624 -0.20 +0.02    +0.064 C 
DOCKED: ATOM      2  C   UNL d   1       7.476  33.484   1.599 -0.33 +0.01    +0.064 A 
DOCKED: ATOM      3  C   UNL d   1       9.702  36.303  -1.590 -0.39 +0.01    +0.064 C 
DOCKED: ATOM      4  C   UNL d   1       5.566  37.202  -3.820 -0.17 +0.01    +0.064 C 
DOCKED: ATOM      5  C   UNL d   1       4.191  33.876   0.247 -0.24 +0.01    +0.066 A 
DOCKED: ATOM      6  C   UNL d   1       3.931  32.922   1.216 -0.28 -0.00    -0.021 A 
DOCKED: ATOM      7  C   UNL d   1       5.125  32.647   1.836 -0.35 -0.00    -0.025 A 
DOCKED: ATOM      8  C   UNL d   1       6.070  33.445   1.219 -0.36 +0.01    +0.066 A 
DOCKED: ATOM      9  C   UNL d   1       5.340  31.659   2.941 -0.19 +0.00    +0.051 C 
DOCKED: ATOM     10  C   UNL d   1       8.418  34.202   0.984 -0.28 +0.01    +0.066 A 
DOCKED: ATOM     11  C   UNL d   1       9.734  34.308   1.441 -0.28 -0.00    -0.021 A 
DOCKED: ATOM     12  C   UNL d   1      10.392  35.129   0.548 -0.35 +0.00    +0.000 A 
DOCKED: ATOM     13  C   UNL d   1       9.432  35.492  -0.413 -0.15 +0.02    +0.070 A 
DOCKED: ATOM     14  C   UNL d   1      10.318  33.711   2.705 -0.11 +0.00    +0.052 C 
DOCKED: ATOM     15  C   UNL d   1       8.771  36.698  -2.490 -0.37 +0.00    +0.066 A 
DOCKED: ATOM     16  C   UNL d   1       9.085  37.389  -3.653 -0.41 +0.00    -0.021 A 
DOCKED: ATOM     17  C   UNL d   1       7.893  37.652  -4.296 -0.30 -0.00    +0.000 A 
DOCKED: ATOM     18  C   UNL d   1       6.877  37.118  -3.506 -0.23 +0.00    +0.070 A 
DOCKED: ATOM     19  C   UNL d   1      10.448  37.808  -4.132 -0.31 -0.01    +0.052 C 
DOCKED: ATOM     20  C   UNL d   1       4.475  36.600  -3.044 -0.13 +0.01    +0.066 A 
DOCKED: ATOM     21  C   UNL d   1       3.109  36.844  -3.244 -0.08 -0.01    -0.025 A 
DOCKED: ATOM     22  C   UNL d   1       2.446  36.051  -2.331 -0.10 -0.01    -0.021 A 
DOCKED: ATOM     23  C   UNL d   1       3.428  35.361  -1.610 -0.14 +0.02    +0.066 A 
DOCKED: ATOM     24  C   UNL d   1       2.452  37.777  -4.235 -0.03 +0.01    +0.051 C 
DOCKED: ATOM     25  N   UNL d   1       5.500  34.184   0.246 -0.20 -0.04    -0.248 N 
DOCKED: ATOM     26  N   UNL d   1       8.227  34.934  -0.143 -0.02 -0.07    -0.248 N 
DOCKED: ATOM     27  N   UNL d   1       7.419  36.494  -2.417 -0.19 -0.02    -0.248 N 
DOCKED: ATOM     28  N   UNL d   1       4.665  35.734  -2.020 -0.09 -0.05    -0.248 N 
DOCKED: ATOM     29 FE   UNL d   1       6.445  35.335  -1.083 -0.07 +0.00    +0.000 Fe
DOCKED: ENDROOT
DOCKED: BRANCH   6  30
DOCKED: ATOM     30  C   UNL d   1       2.620  32.286   1.526 -0.23 +0.00    +0.052 C 
DOCKED: BRANCH  30  31
DOCKED: ATOM     31  C   UNL d   1       1.711  33.257   2.272 -0.20 +0.02    +0.115 C 
DOCKED: BRANCH  31  32
DOCKED: ATOM     32  C   UNL d   1       1.604  32.871   3.721 -0.24 +0.01    +0.139 C 
DOCKED: ATOM     33  O   UNL d   1       0.756  33.379   4.441 -0.03 -0.09    -0.650 OA
DOCKED: BRANCH  32  34
DOCKED: ATOM     34  O   UNL d   1       2.444  31.959   4.240 +0.00 +0.08    -0.776 OA
DOCKED: ATOM     35  H   UNL d   1       3.047  32.226   4.948 -0.41 -0.07    +0.167 HD
DOCKED: ENDBRANCH  32  34
DOCKED: ENDBRANCH  31  32
DOCKED: ENDBRANCH  30  31
DOCKED: ENDBRANCH   6  30
DOCKED: BRANCH  22  36
DOCKED: ATOM     36  C   UNL d   1       0.954  35.997  -2.131 -0.07 +0.02    +0.052 C 
DOCKED: BRANCH  36  37
DOCKED: ATOM     37  C   UNL d   1       0.533  37.052  -1.120 -0.10 +0.10    +0.115 C 
DOCKED: BRANCH  37  38
DOCKED: ATOM     38  C   UNL d   1       0.798  38.436  -1.643 -0.07 +0.15    +0.139 C 
DOCKED: ATOM     39  O   UNL d   1       1.792  39.056  -1.295 -0.40 -1.08    -0.650 OA
DOCKED: BRANCH  38  40
DOCKED: ATOM     40  O   UNL d   1      -0.067  39.006  -2.501 -0.00 -0.49    -0.776 OA
DOCKED: ATOM     41  H   UNL d   1      -0.391  38.491  -3.253 +0.01 +0.07    +0.167 HD
DOCKED: ENDBRANCH  38  40
DOCKED: ENDBRANCH  37  38
DOCKED: ENDBRANCH  36  37
DOCKED: ENDBRANCH  22  36
DOCKED: BRANCH  12  42
DOCKED: ATOM     42  C   UNL d   1      11.830  35.529   0.652 -0.46 +0.00    +0.004 C 
DOCKED: ATOM     43  C   UNL d   1      12.724  35.130  -0.261 -0.47 +0.00    +0.012 C 
DOCKED: ENDBRANCH  12  42
DOCKED: BRANCH  17  44
DOCKED: ATOM     44  C   UNL d   1       7.738  38.350  -5.592 -0.27 -0.00    +0.004 C 
DOCKED: ATOM     45  C   UNL d   1       7.674  39.685  -5.648 -0.28 -0.00    +0.012 C 
DOCKED: ENDBRANCH  17  44
DOCKED: TORSDOF 10
DOCKED: TER
DOCKED: ENDMDL
________________________________________________________________________________


	BEGINNING GENETIC ALGORITHM DOCKING 39 of 100
Run: 39 Seed: 789663000 107258885 [ Run 39 of 100 GA/GALS ]
Beginning LAMARCKIAN GENETIC ALGORITHM (LGA), with a maximum of 25000000 energy evaluations.

Final-Value: -17.301


	FINAL GENETIC ALGORITHM DOCKED STATE
	_______________________________________________


Detailed state:  trans 41.739 28.154 15.932 quatxyzw 0.223539 0.105340 -0.948873 0.196404 center -0.174 -0.001 -0.047 ntor 10 85.9565 180.0000 65.8251 -149.4948 -73.6767 3.2750 -73.6221 54.5554 161.7794 100.5012
State:	 41.739  28.154  15.932   0.228  0.107 -0.968 157.347     85.96  180.00   65.83 -149.49  -73.68    3.28  -73.62   54.56  161.78  100.50

DOCKED: MODEL       39
DOCKED: USER    Run = 39
DOCKED: USER    DPF = D:/Protein_go_brrr/autodock/final/6BB5/heme_Fe/dock.dpf
DOCKED: USER  
DOCKED: USER    Estimated Free Energy of Binding    =  -12.79 kcal/mol  [=(1)+(2)+(3)-(4)]
DOCKED: USER    Estimated Inhibition Constant, Ki   =  420.07 pM (picomolar)  [Temperature = 298.15 K]
DOCKED: USER    
DOCKED: USER    (1) Final Intermolecular Energy     =  -15.78 kcal/mol
DOCKED: USER        vdW + Hbond + desolv Energy     =  -13.59 kcal/mol
DOCKED: USER        Electrostatic Energy            =   -2.19 kcal/mol
DOCKED: USER    (2) Final Total Internal Energy     =   -1.53 kcal/mol
DOCKED: USER    (3) Torsional Free Energy           =   +2.98 kcal/mol
DOCKED: USER    (4) Unbound System's Energy  [=(2)] =   -1.53 kcal/mol
DOCKED: USER    
DOCKED: USER    
DOCKED: USER    NEWDPF move heme_Fe_opt.pdbqt
DOCKED: USER    NEWDPF about -0.174000 -0.001000 -0.047000
DOCKED: USER    NEWDPF tran0 41.739380 28.154345 15.931609
DOCKED: USER    NEWDPF quaternion0 0.223539 0.105340 -0.948873 0.196404
DOCKED: USER    NEWDPF axisangle0 0.227980 0.107433 -0.967721 157.346528
DOCKED: USER    NEWDPF quat0 0.227980 0.107433 -0.967721 157.346528
DOCKED: USER    NEWDPF dihe0 85.96 180.00 65.83 -149.49 -73.68 3.28 -73.62 54.56 161.78 100.50 
DOCKED: USER  keepresnum = 1 
DOCKED: USER  
DOCKED: REMARK  10 active torsions:
DOCKED: REMARK  status: ('A' for Active; 'I' for Inactive)
DOCKED: REMARK    1  A    between atoms: C_6  and  C_10 
DOCKED: REMARK    2  A    between atoms: C_10  and  C_11 
DOCKED: REMARK    3  A    between atoms: C_11  and  C_12 
DOCKED: REMARK    4  A    between atoms: C_12  and  O_14 
DOCKED: REMARK    5  A    between atoms: C_17  and  C_20 
DOCKED: REMARK    6  A    between atoms: C_24  and  C_27 
DOCKED: REMARK    7  A    between atoms: C_31  and  C_34 
DOCKED: REMARK    8  A    between atoms: C_34  and  C_35 
DOCKED: REMARK    9  A    between atoms: C_35  and  C_36 
DOCKED: REMARK   10  A    between atoms: C_36  and  O_38 
DOCKED: USER                              x       y       z     vdW  Elec       q    Type
DOCKED: USER                           _______ _______ _______ _____ _____    ______ ____
DOCKED: ROOT
DOCKED: ATOM      1  C   UNL d   1      43.141  27.316  17.174 -0.25 +0.02    +0.064 C 
DOCKED: ATOM      2  C   UNL d   1      41.309  31.866  16.562 -0.40 +0.01    +0.064 A 
DOCKED: ATOM      3  C   UNL d   1      37.699  29.994  14.006 -0.35 +0.01    +0.064 C 
DOCKED: ATOM      4  C   UNL d   1      39.512  25.594  14.497 -0.46 +0.01    +0.064 C 
DOCKED: ATOM      5  C   UNL d   1      43.006  28.779  17.168 -0.22 +0.02    +0.066 A 
DOCKED: ATOM      6  C   UNL d   1      43.925  29.661  17.714 -0.28 -0.01    -0.021 A 
DOCKED: ATOM      7  C   UNL d   1      43.413  30.924  17.547 -0.29 -0.01    -0.025 A 
DOCKED: ATOM      8  C   UNL d   1      42.200  30.765  16.905 -0.34 +0.01    +0.066 A 
DOCKED: ATOM      9  C   UNL d   1      44.068  32.204  17.965 -0.27 +0.01    +0.051 C 
DOCKED: ATOM     10  C   UNL d   1      40.161  31.745  15.893 -0.36 +0.01    +0.066 A 
DOCKED: ATOM     11  C   UNL d   1      39.273  32.803  15.680 -0.39 -0.00    -0.021 A 
DOCKED: ATOM     12  C   UNL d   1      38.216  32.285  14.959 -0.39 +0.00    +0.000 A 
DOCKED: ATOM     13  C   UNL d   1      38.512  30.923  14.775 -0.35 +0.01    +0.070 A 
DOCKED: ATOM     14  C   UNL d   1      39.394  34.222  16.197 -0.41 +0.00    +0.052 C 
DOCKED: ATOM     15  C   UNL d   1      37.953  28.671  13.870 -0.34 +0.01    +0.066 A 
DOCKED: ATOM     16  C   UNL d   1      37.208  27.836  13.046 -0.46 -0.00    -0.021 A 
DOCKED: ATOM     17  C   UNL d   1      37.727  26.566  13.189 -0.45 +0.00    +0.000 A 
DOCKED: ATOM     18  C   UNL d   1      38.776  26.655  14.101 -0.37 +0.01    +0.070 A 
DOCKED: ATOM     19  C   UNL d   1      36.038  28.211  12.177 -0.65 +0.00    +0.052 C 
DOCKED: ATOM     20  C   UNL d   1      40.661  25.659  15.408 -0.38 +0.01    +0.066 A 
DOCKED: ATOM     21  C   UNL d   1      41.304  24.553  15.981 -0.41 -0.00    -0.025 A 
DOCKED: ATOM     22  C   UNL d   1      42.343  25.066  16.730 -0.35 -0.00    -0.021 A 
DOCKED: ATOM     23  C   UNL d   1      42.290  26.458  16.590 -0.31 +0.01    +0.066 A 
DOCKED: ATOM     24  C   UNL d   1      40.964  23.087  15.842 -0.50 +0.00    +0.051 C 
DOCKED: ATOM     25  N   UNL d   1      41.960  29.460  16.667 -0.22 -0.05    -0.248 N 
DOCKED: ATOM     26  N   UNL d   1      39.693  30.592  15.351 -0.11 -0.06    -0.248 N 
DOCKED: ATOM     27  N   UNL d   1      38.944  27.955  14.487 -0.15 -0.06    -0.248 N 
DOCKED: ATOM     28  N   UNL d   1      41.234  26.816  15.819 -0.26 -0.05    -0.248 N 
DOCKED: ATOM     29 FE   UNL d   1      40.463  28.702  15.584 -0.09 +0.00    +0.000 Fe
DOCKED: ENDROOT
DOCKED: BRANCH   6  30
DOCKED: ATOM     30  C   UNL d   1      45.233  29.324  18.343 -0.22 +0.02    +0.052 C 
DOCKED: BRANCH  30  31
DOCKED: ATOM     31  C   UNL d   1      45.179  29.542  19.851 -0.17 +0.08    +0.115 C 
DOCKED: BRANCH  31  32
DOCKED: ATOM     32  C   UNL d   1      45.130  28.224  20.572 -0.11 +0.17    +0.139 C 
DOCKED: ATOM     33  O   UNL d   1      44.107  27.553  20.574 -0.17 -0.76    -0.650 OA
DOCKED: BRANCH  32  34
DOCKED: ATOM     34  O   UNL d   1      46.214  27.770  21.223 -0.48 -1.26    -0.776 OA
DOCKED: ATOM     35  H   UNL d   1      46.819  27.169  20.765 +0.02 +0.16    +0.167 HD
DOCKED: ENDBRANCH  32  34
DOCKED: ENDBRANCH  31  32
DOCKED: ENDBRANCH  30  31
DOCKED: ENDBRANCH   6  30
DOCKED: BRANCH  22  36
DOCKED: ATOM     36  C   UNL d   1      43.301  24.265  17.571 -0.32 +0.01    +0.052 C 
DOCKED: BRANCH  36  37
DOCKED: ATOM     37  C   UNL d   1      44.003  25.180  18.564 -0.21 +0.04    +0.115 C 
DOCKED: BRANCH  37  38
DOCKED: ATOM     38  C   UNL d   1      45.496  25.045  18.458 -0.11 +0.06    +0.139 C 
DOCKED: ATOM     39  O   UNL d   1      46.000  24.320  17.614 +0.03 -0.33    -0.650 OA
DOCKED: BRANCH  38  40
DOCKED: ATOM     40  O   UNL d   1      46.292  25.725  19.303 +0.09 -0.42    -0.776 OA
DOCKED: ATOM     41  H   UNL d   1      45.889  26.299  19.969 +0.05 +0.12    +0.167 HD
DOCKED: ENDBRANCH  38  40
DOCKED: ENDBRANCH  37  38
DOCKED: ENDBRANCH  36  37
DOCKED: ENDBRANCH  22  36
DOCKED: BRANCH  12  42
DOCKED: ATOM     42  C   UNL d   1      37.019  33.065  14.515 -0.45 +0.00    +0.004 C 
DOCKED: ATOM     43  C   UNL d   1      36.786  33.289  13.216 -0.51 +0.00    +0.012 C 
DOCKED: ENDBRANCH  12  42
DOCKED: BRANCH  17  44
DOCKED: ATOM     44  C   UNL d   1      37.263  25.351  12.482 -0.52 +0.00    +0.004 C 
DOCKED: ATOM     45  C   UNL d   1      36.387  24.519  13.054 -0.69 +0.00    +0.012 C 
DOCKED: ENDBRANCH  17  44
DOCKED: TORSDOF 10
DOCKED: TER
DOCKED: ENDMDL
________________________________________________________________________________


	BEGINNING GENETIC ALGORITHM DOCKING 40 of 100
Run: 40 Seed: 1943206531 1639892689 [ Run 40 of 100 GA/GALS ]
Beginning LAMARCKIAN GENETIC ALGORITHM (LGA), with a maximum of 25000000 energy evaluations.

Final-Value: -17.228


	FINAL GENETIC ALGORITHM DOCKED STATE
	_______________________________________________


Detailed state:  trans 41.697 28.625 15.955 quatxyzw -0.253250 -0.100998 0.948175 -0.163179 center -0.174 -0.001 -0.047 ntor 10 -43.4175 115.2577 73.6532 -136.6965 166.6332 -97.4514 66.9898 21.5693 -58.0093 -180.0000
State:	 41.697  28.625  15.955  -0.257 -0.102  0.961 -161.217    -43.42  115.26   73.65 -136.70  166.63  -97.45   66.99   21.57  -58.01 -180.00

DOCKED: MODEL       40
DOCKED: USER    Run = 40
DOCKED: USER    DPF = D:/Protein_go_brrr/autodock/final/6BB5/heme_Fe/dock.dpf
DOCKED: USER  
DOCKED: USER    Estimated Free Energy of Binding    =  -12.37 kcal/mol  [=(1)+(2)+(3)-(4)]
DOCKED: USER    Estimated Inhibition Constant, Ki   =  859.30 pM (picomolar)  [Temperature = 298.15 K]
DOCKED: USER    
DOCKED: USER    (1) Final Intermolecular Energy     =  -15.35 kcal/mol
DOCKED: USER        vdW + Hbond + desolv Energy     =  -13.81 kcal/mol
DOCKED: USER        Electrostatic Energy            =   -1.54 kcal/mol
DOCKED: USER    (2) Final Total Internal Energy     =   -1.88 kcal/mol
DOCKED: USER    (3) Torsional Free Energy           =   +2.98 kcal/mol
DOCKED: USER    (4) Unbound System's Energy  [=(2)] =   -1.88 kcal/mol
DOCKED: USER    
DOCKED: USER    
DOCKED: USER    NEWDPF move heme_Fe_opt.pdbqt
DOCKED: USER    NEWDPF about -0.174000 -0.001000 -0.047000
DOCKED: USER    NEWDPF tran0 41.696816 28.624882 15.955076
DOCKED: USER    NEWDPF quaternion0 -0.253250 -0.100998 0.948175 -0.163179
DOCKED: USER    NEWDPF axisangle0 -0.256691 -0.102370 0.961057 -161.217059
DOCKED: USER    NEWDPF quat0 -0.256691 -0.102370 0.961057 -161.217059
DOCKED: USER    NEWDPF dihe0 -43.42 115.26 73.65 -136.70 166.63 -97.45 66.99 21.57 -58.01 -180.00 
DOCKED: USER  keepresnum = 1 
DOCKED: USER  
DOCKED: REMARK  10 active torsions:
DOCKED: REMARK  status: ('A' for Active; 'I' for Inactive)
DOCKED: REMARK    1  A    between atoms: C_6  and  C_10 
DOCKED: REMARK    2  A    between atoms: C_10  and  C_11 
DOCKED: REMARK    3  A    between atoms: C_11  and  C_12 
DOCKED: REMARK    4  A    between atoms: C_12  and  O_14 
DOCKED: REMARK    5  A    between atoms: C_17  and  C_20 
DOCKED: REMARK    6  A    between atoms: C_24  and  C_27 
DOCKED: REMARK    7  A    between atoms: C_31  and  C_34 
DOCKED: REMARK    8  A    between atoms: C_34  and  C_35 
DOCKED: REMARK    9  A    between atoms: C_35  and  C_36 
DOCKED: REMARK   10  A    between atoms: C_36  and  O_38 
DOCKED: USER                              x       y       z     vdW  Elec       q    Type
DOCKED: USER                           _______ _______ _______ _____ _____    ______ ____
DOCKED: ROOT
DOCKED: ATOM      1  C   UNL d   1      43.060  27.907  17.310 -0.18 +0.02    +0.064 C 
DOCKED: ATOM      2  C   UNL d   1      41.030  32.325  16.423 -0.42 +0.01    +0.064 A 
DOCKED: ATOM      3  C   UNL d   1      37.693  30.172  13.722 -0.38 +0.01    +0.064 C 
DOCKED: ATOM      4  C   UNL d   1      39.704  25.899  14.482 -0.47 +0.01    +0.064 C 
DOCKED: ATOM      5  C   UNL d   1      42.848  29.360  17.243 -0.24 +0.02    +0.066 A 
DOCKED: ATOM      6  C   UNL d   1      43.682  30.308  17.811 -0.30 -0.01    -0.021 A 
DOCKED: ATOM      7  C   UNL d   1      43.115  31.535  17.568 -0.30 -0.00    -0.025 A 
DOCKED: ATOM      8  C   UNL d   1      41.955  31.287  16.859 -0.37 +0.01    +0.066 A 
DOCKED: ATOM      9  C   UNL d   1      43.674  32.863  17.979 -0.36 +0.01    +0.051 C 
DOCKED: ATOM     10  C   UNL d   1      39.935  32.119  15.690 -0.37 +0.01    +0.066 A 
DOCKED: ATOM     11  C   UNL d   1      39.007  33.118  15.385 -0.42 -0.00    -0.021 A 
DOCKED: ATOM     12  C   UNL d   1      38.026  32.519  14.620 -0.40 +0.00    +0.000 A 
DOCKED: ATOM     13  C   UNL d   1      38.405  31.170  14.504 -0.36 +0.01    +0.070 A 
DOCKED: ATOM     14  C   UNL d   1      39.018  34.558  15.857 -0.56 +0.00    +0.052 C 
DOCKED: ATOM     15  C   UNL d   1      38.025  28.862  13.649 -0.33 +0.01    +0.066 A 
DOCKED: ATOM     16  C   UNL d   1      37.380  27.961  12.812 -0.48 -0.00    -0.021 A 
DOCKED: ATOM     17  C   UNL d   1      37.956  26.727  13.032 -0.45 +0.00    +0.000 A 
DOCKED: ATOM     18  C   UNL d   1      38.939  26.904  14.003 -0.36 +0.01    +0.070 A 
DOCKED: ATOM     19  C   UNL d   1      36.248  28.241  11.860 -0.65 +0.01    +0.052 C 
DOCKED: ATOM     20  C   UNL d   1      40.789  26.058  15.458 -0.39 +0.01    +0.066 A 
DOCKED: ATOM     21  C   UNL d   1      41.453  25.008  16.109 -0.38 -0.00    -0.025 A 
DOCKED: ATOM     22  C   UNL d   1      42.413  25.603  16.900 -0.34 -0.00    -0.021 A 
DOCKED: ATOM     23  C   UNL d   1      42.294  26.985  16.707 -0.24 +0.02    +0.066 A 
DOCKED: ATOM     24  C   UNL d   1      41.201  23.522  16.002 -0.50 +0.00    +0.051 C 
DOCKED: ATOM     25  N   UNL d   1      41.800  29.964  16.655 -0.23 -0.05    -0.248 N 
DOCKED: ATOM     26  N   UNL d   1      39.564  30.924  15.163 -0.18 -0.05    -0.248 N 
DOCKED: ATOM     27  N   UNL d   1      39.012  28.223  14.351 -0.03 -0.07    -0.248 N 
DOCKED: ATOM     28  N   UNL d   1      41.272  27.258  15.860 -0.25 -0.05    -0.248 N 
DOCKED: ATOM     29 FE   UNL d   1      40.418  29.089  15.511 -0.09 +0.00    +0.000 Fe
DOCKED: ENDROOT
DOCKED: BRANCH   6  30
DOCKED: ATOM     30  C   UNL d   1      44.964  30.066  18.531 -0.25 +0.02    +0.052 C 
DOCKED: BRANCH  30  31
DOCKED: ATOM     31  C   UNL d   1      45.673  28.836  17.974 -0.15 +0.04    +0.115 C 
DOCKED: BRANCH  31  32
DOCKED: ATOM     32  C   UNL d   1      45.703  27.737  18.999 -0.14 +0.08    +0.139 C 
DOCKED: ATOM     33  O   UNL d   1      46.002  26.594  18.680 +0.04 -0.32    -0.650 OA
DOCKED: BRANCH  32  34
DOCKED: ATOM     34  O   UNL d   1      45.401  28.002  20.282 -0.08 -0.80    -0.776 OA
DOCKED: ATOM     35  H   UNL d   1      44.830  27.388  20.766 +0.04 +0.23    +0.167 HD
DOCKED: ENDBRANCH  32  34
DOCKED: ENDBRANCH  31  32
DOCKED: ENDBRANCH  30  31
DOCKED: ENDBRANCH   6  30
DOCKED: BRANCH  22  36
DOCKED: ATOM     36  C   UNL d   1      43.358  24.884  17.827 -0.30 +0.02    +0.052 C 
DOCKED: BRANCH  36  37
DOCKED: ATOM     37  C   UNL d   1      42.664  24.602  19.151 -0.37 +0.04    +0.115 C 
DOCKED: BRANCH  37  38
DOCKED: ATOM     38  C   UNL d   1      43.666  24.360  20.244 -0.25 +0.07    +0.139 C 
DOCKED: ATOM     39  O   UNL d   1      43.975  23.224  20.569 -0.45 -0.33    -0.650 OA
DOCKED: BRANCH  38  40
DOCKED: ATOM     40  O   UNL d   1      44.231  25.403  20.879 +0.04 -0.61    -0.776 OA
DOCKED: ATOM     41  H   UNL d   1      44.805  26.001  20.381 +0.06 +0.13    +0.167 HD
DOCKED: ENDBRANCH  38  40
DOCKED: ENDBRANCH  37  38
DOCKED: ENDBRANCH  36  37
DOCKED: ENDBRANCH  22  36
DOCKED: BRANCH  12  42
DOCKED: ATOM     42  C   UNL d   1      36.819  33.216  14.076 -0.46 +0.00    +0.004 C 
DOCKED: ATOM     43  C   UNL d   1      36.577  33.249  12.759 -0.54 +0.00    +0.012 C 
DOCKED: ENDBRANCH  12  42
DOCKED: BRANCH  17  44
DOCKED: ATOM     44  C   UNL d   1      37.603  25.465  12.343 -0.30 +0.00    +0.004 C 
DOCKED: ATOM     45  C   UNL d   1      36.563  24.730  12.751 -0.68 +0.00    +0.012 C 
DOCKED: ENDBRANCH  17  44
DOCKED: TORSDOF 10
DOCKED: TER
DOCKED: ENDMDL
________________________________________________________________________________


	BEGINNING GENETIC ALGORITHM DOCKING 41 of 100
Run: 41 Seed: 719734575 776505630 [ Run 41 of 100 GA/GALS ]
Beginning LAMARCKIAN GENETIC ALGORITHM (LGA), with a maximum of 25000000 energy evaluations.

Final-Value: -16.181


	FINAL GENETIC ALGORITHM DOCKED STATE
	_______________________________________________


Detailed state:  trans 41.737 28.509 15.962 quatxyzw 0.242897 0.104157 -0.948838 0.172796 center -0.174 -0.001 -0.047 ntor 10 87.6942 -164.4178 70.9366 -135.7347 -180.0000 -6.1476 25.3894 55.1716 -126.6547 19.6759
State:	 41.737  28.509  15.962   0.247  0.106 -0.963 160.099     87.69 -164.42   70.94 -135.73 -180.00   -6.15   25.39   55.17 -126.65   19.68

DOCKED: MODEL       41
DOCKED: USER    Run = 41
DOCKED: USER    DPF = D:/Protein_go_brrr/autodock/final/6BB5/heme_Fe/dock.dpf
DOCKED: USER  
DOCKED: USER    Estimated Free Energy of Binding    =  -12.81 kcal/mol  [=(1)+(2)+(3)-(4)]
DOCKED: USER    Estimated Inhibition Constant, Ki   =  408.05 pM (picomolar)  [Temperature = 298.15 K]
DOCKED: USER    
DOCKED: USER    (1) Final Intermolecular Energy     =  -15.79 kcal/mol
DOCKED: USER        vdW + Hbond + desolv Energy     =  -13.66 kcal/mol
DOCKED: USER        Electrostatic Energy            =   -2.13 kcal/mol
DOCKED: USER    (2) Final Total Internal Energy     =   -0.39 kcal/mol
DOCKED: USER    (3) Torsional Free Energy           =   +2.98 kcal/mol
DOCKED: USER    (4) Unbound System's Energy  [=(2)] =   -0.39 kcal/mol
DOCKED: USER    
DOCKED: USER    
DOCKED: USER    NEWDPF move heme_Fe_opt.pdbqt
DOCKED: USER    NEWDPF about -0.174000 -0.001000 -0.047000
DOCKED: USER    NEWDPF tran0 41.737214 28.509116 15.962427
DOCKED: USER    NEWDPF quaternion0 0.242897 0.104157 -0.948838 0.172796
DOCKED: USER    NEWDPF axisangle0 0.246607 0.105747 -0.963329 160.099128
DOCKED: USER    NEWDPF quat0 0.246607 0.105747 -0.963329 160.099128
DOCKED: USER    NEWDPF dihe0 87.69 -164.42 70.94 -135.73 -180.00 -6.15 25.39 55.17 -126.65 19.68 
DOCKED: USER  keepresnum = 1 
DOCKED: USER  
DOCKED: REMARK  10 active torsions:
DOCKED: REMARK  status: ('A' for Active; 'I' for Inactive)
DOCKED: REMARK    1  A    between atoms: C_6  and  C_10 
DOCKED: REMARK    2  A    between atoms: C_10  and  C_11 
DOCKED: REMARK    3  A    between atoms: C_11  and  C_12 
DOCKED: REMARK    4  A    between atoms: C_12  and  O_14 
DOCKED: REMARK    5  A    between atoms: C_17  and  C_20 
DOCKED: REMARK    6  A    between atoms: C_24  and  C_27 
DOCKED: REMARK    7  A    between atoms: C_31  and  C_34 
DOCKED: REMARK    8  A    between atoms: C_34  and  C_35 
DOCKED: REMARK    9  A    between atoms: C_35  and  C_36 
DOCKED: REMARK   10  A    between atoms: C_36  and  O_38 
DOCKED: USER                              x       y       z     vdW  Elec       q    Type
DOCKED: USER                           _______ _______ _______ _____ _____    ______ ____
DOCKED: ROOT
DOCKED: ATOM      1  C   UNL d   1      43.118  27.753  17.279 -0.20 +0.02    +0.064 C 
DOCKED: ATOM      2  C   UNL d   1      41.134  32.212  16.496 -0.42 +0.01    +0.064 A 
DOCKED: ATOM      3  C   UNL d   1      37.711  30.145  13.835 -0.38 +0.01    +0.064 C 
DOCKED: ATOM      4  C   UNL d   1      39.675  25.833  14.493 -0.47 +0.01    +0.064 C 
DOCKED: ATOM      5  C   UNL d   1      42.925  29.209  17.236 -0.25 +0.02    +0.066 A 
DOCKED: ATOM      6  C   UNL d   1      43.785  30.138  17.800 -0.29 -0.01    -0.021 A 
DOCKED: ATOM      7  C   UNL d   1      43.231  31.375  17.585 -0.28 -0.01    -0.025 A 
DOCKED: ATOM      8  C   UNL d   1      42.053  31.154  16.898 -0.36 +0.01    +0.066 A 
DOCKED: ATOM      9  C   UNL d   1      43.817  32.689  18.003 -0.33 +0.01    +0.051 C 
DOCKED: ATOM     10  C   UNL d   1      40.021  32.031  15.783 -0.37 +0.01    +0.066 A 
DOCKED: ATOM     11  C   UNL d   1      39.101  33.048  15.512 -0.41 -0.00    -0.021 A 
DOCKED: ATOM     12  C   UNL d   1      38.096  32.473  14.760 -0.39 +0.00    +0.000 A 
DOCKED: ATOM     13  C   UNL d   1      38.453  31.121  14.617 -0.35 +0.01    +0.070 A 
DOCKED: ATOM     14  C   UNL d   1      39.143  34.480  16.003 -0.53 +0.00    +0.052 C 
DOCKED: ATOM     15  C   UNL d   1      38.023  28.831  13.737 -0.33 +0.01    +0.066 A 
DOCKED: ATOM     16  C   UNL d   1      37.346  27.951  12.901 -0.47 -0.00    -0.021 A 
DOCKED: ATOM     17  C   UNL d   1      37.909  26.706  13.092 -0.45 +0.00    +0.000 A 
DOCKED: ATOM     18  C   UNL d   1      38.914  26.855  14.045 -0.37 +0.01    +0.070 A 
DOCKED: ATOM     19  C   UNL d   1      36.199  28.261  11.978 -0.65 +0.01    +0.052 C 
DOCKED: ATOM     20  C   UNL d   1      40.782  25.962  15.448 -0.39 +0.01    +0.066 A 
DOCKED: ATOM     21  C   UNL d   1      41.444  24.895  16.071 -0.39 -0.00    -0.025 A 
DOCKED: ATOM     22  C   UNL d   1      42.429  25.464  16.850 -0.34 -0.00    -0.021 A 
DOCKED: ATOM     23  C   UNL d   1      42.327  26.850  16.679 -0.28 +0.02    +0.066 A 
DOCKED: ATOM     24  C   UNL d   1      41.168  23.414  15.948 -0.50 +0.00    +0.051 C 
DOCKED: ATOM     25  N   UNL d   1      41.875  29.836  16.679 -0.23 -0.05    -0.248 N 
DOCKED: ATOM     26  N   UNL d   1      39.622  30.850  15.248 -0.15 -0.05    -0.248 N 
DOCKED: ATOM     27  N   UNL d   1      39.014  28.169  14.410 -0.07 -0.07    -0.248 N 
DOCKED: ATOM     28  N   UNL d   1      41.291  27.150  15.857 -0.25 -0.05    -0.248 N 
DOCKED: ATOM     29 FE   UNL d   1      40.456  28.998  15.552 -0.09 +0.00    +0.000 Fe
DOCKED: ENDROOT
DOCKED: BRANCH   6  30
DOCKED: ATOM     30  C   UNL d   1      45.078  29.867  18.489 -0.24 +0.02    +0.052 C 
DOCKED: BRANCH  30  31
DOCKED: ATOM     31  C   UNL d   1      44.993  28.587  19.314 -0.21 +0.07    +0.115 C 
DOCKED: BRANCH  31  32
DOCKED: ATOM     32  C   UNL d   1      45.984  28.624  20.445 -0.12 +0.14    +0.139 C 
DOCKED: ATOM     33  O   UNL d   1      46.072  27.688  21.227 -0.46 -1.10    -0.650 OA
DOCKED: BRANCH  32  34
DOCKED: ATOM     34  O   UNL d   1      46.785  29.691  20.606 -0.01 -0.58    -0.776 OA
DOCKED: ATOM     35  H   UNL d   1      47.659  29.688  20.192 +0.02 +0.09    +0.167 HD
DOCKED: ENDBRANCH  32  34
DOCKED: ENDBRANCH  31  32
DOCKED: ENDBRANCH  30  31
DOCKED: ENDBRANCH   6  30
DOCKED: BRANCH  22  36
DOCKED: ATOM     36  C   UNL d   1      43.383  24.719  17.746 -0.31 +0.02    +0.052 C 
DOCKED: BRANCH  36  37
DOCKED: ATOM     37  C   UNL d   1      44.810  24.918  17.257 -0.21 +0.04    +0.115 C 
DOCKED: BRANCH  37  38
DOCKED: ATOM     38  C   UNL d   1      45.492  23.598  17.032 -0.15 +0.07    +0.139 C 
DOCKED: ATOM     39  O   UNL d   1      44.946  22.551  17.346 +0.02 -0.28    -0.650 OA
DOCKED: BRANCH  38  40
DOCKED: ATOM     40  O   UNL d   1      46.719  23.562  16.483 -0.03 -0.67    -0.776 OA
DOCKED: ATOM     41  H   UNL d   1      47.241  24.376  16.444 +0.04 +0.14    +0.167 HD
DOCKED: ENDBRANCH  38  40
DOCKED: ENDBRANCH  37  38
DOCKED: ENDBRANCH  36  37
DOCKED: ENDBRANCH  22  36
DOCKED: BRANCH  12  42
DOCKED: ATOM     42  C   UNL d   1      36.889  33.195  14.251 -0.46 +0.00    +0.004 C 
DOCKED: ATOM     43  C   UNL d   1      36.649  33.296  12.937 -0.53 +0.00    +0.012 C 
DOCKED: ENDBRANCH  12  42
DOCKED: BRANCH  17  44
DOCKED: ATOM     44  C   UNL d   1      37.524  25.459  12.393 -0.37 +0.00    +0.004 C 
DOCKED: ATOM     45  C   UNL d   1      36.471  24.743  12.801 -0.68 +0.00    +0.012 C 
DOCKED: ENDBRANCH  17  44
DOCKED: TORSDOF 10
DOCKED: TER
DOCKED: ENDMDL
________________________________________________________________________________


	BEGINNING GENETIC ALGORITHM DOCKING 42 of 100
Run: 42 Seed: 863445544 37199434 [ Run 42 of 100 GA/GALS ]
Beginning LAMARCKIAN GENETIC ALGORITHM (LGA), with a maximum of 25000000 energy evaluations.

Final-Value: -17.792


	FINAL GENETIC ALGORITHM DOCKED STATE
	_______________________________________________


Detailed state:  trans 41.694 28.587 15.961 quatxyzw 0.252427 0.104971 -0.946573 0.171058 center -0.174 -0.001 -0.047 ntor 10 -154.7694 88.8440 75.4606 -140.8587 18.6604 -90.0445 2.7961 30.8200 -144.1176 -180.0000
State:	 41.694  28.587  15.961   0.256  0.107 -0.961 160.301   -154.77   88.84   75.46 -140.86   18.66  -90.04    2.80   30.82 -144.12 -180.00

DOCKED: MODEL       42
DOCKED: USER    Run = 42
DOCKED: USER    DPF = D:/Protein_go_brrr/autodock/final/6BB5/heme_Fe/dock.dpf
DOCKED: USER  
DOCKED: USER    Estimated Free Energy of Binding    =  -13.34 kcal/mol  [=(1)+(2)+(3)-(4)]
DOCKED: USER    Estimated Inhibition Constant, Ki   =  167.42 pM (picomolar)  [Temperature = 298.15 K]
DOCKED: USER    
DOCKED: USER    (1) Final Intermolecular Energy     =  -16.32 kcal/mol
DOCKED: USER        vdW + Hbond + desolv Energy     =  -14.31 kcal/mol
DOCKED: USER        Electrostatic Energy            =   -2.01 kcal/mol
DOCKED: USER    (2) Final Total Internal Energy     =   -1.47 kcal/mol
DOCKED: USER    (3) Torsional Free Energy           =   +2.98 kcal/mol
DOCKED: USER    (4) Unbound System's Energy  [=(2)] =   -1.47 kcal/mol
DOCKED: USER    
DOCKED: USER    
DOCKED: USER    NEWDPF move heme_Fe_opt.pdbqt
DOCKED: USER    NEWDPF about -0.174000 -0.001000 -0.047000
DOCKED: USER    NEWDPF tran0 41.694278 28.586839 15.961151
DOCKED: USER    NEWDPF quaternion0 0.252427 0.104971 -0.946573 0.171058
DOCKED: USER    NEWDPF axisangle0 0.256204 0.106541 -0.960733 160.301350
DOCKED: USER    NEWDPF quat0 0.256204 0.106541 -0.960733 160.301350
DOCKED: USER    NEWDPF dihe0 -154.77 88.84 75.46 -140.86 18.66 -90.04 2.80 30.82 -144.12 -180.00 
DOCKED: USER  keepresnum = 1 
DOCKED: USER  
DOCKED: REMARK  10 active torsions:
DOCKED: REMARK  status: ('A' for Active; 'I' for Inactive)
DOCKED: REMARK    1  A    between atoms: C_6  and  C_10 
DOCKED: REMARK    2  A    between atoms: C_10  and  C_11 
DOCKED: REMARK    3  A    between atoms: C_11  and  C_12 
DOCKED: REMARK    4  A    between atoms: C_12  and  O_14 
DOCKED: REMARK    5  A    between atoms: C_17  and  C_20 
DOCKED: REMARK    6  A    between atoms: C_24  and  C_27 
DOCKED: REMARK    7  A    between atoms: C_31  and  C_34 
DOCKED: REMARK    8  A    between atoms: C_34  and  C_35 
DOCKED: REMARK    9  A    between atoms: C_35  and  C_36 
DOCKED: REMARK   10  A    between atoms: C_36  and  O_38 
DOCKED: USER                              x       y       z     vdW  Elec       q    Type
DOCKED: USER                           _______ _______ _______ _____ _____    ______ ____
DOCKED: ROOT
DOCKED: ATOM      1  C   UNL d   1      43.050  27.835  17.306 -0.18 +0.02    +0.064 C 
DOCKED: ATOM      2  C   UNL d   1      41.077  32.290  16.475 -0.42 +0.01    +0.064 A 
DOCKED: ATOM      3  C   UNL d   1      37.709  30.214  13.751 -0.39 +0.01    +0.064 C 
DOCKED: ATOM      4  C   UNL d   1      39.664  25.906  14.457 -0.47 +0.01    +0.064 C 
DOCKED: ATOM      5  C   UNL d   1      42.856  29.291  17.257 -0.23 +0.02    +0.066 A 
DOCKED: ATOM      6  C   UNL d   1      43.703  30.221  17.835 -0.30 -0.01    -0.021 A 
DOCKED: ATOM      7  C   UNL d   1      43.153  31.458  17.607 -0.30 -0.00    -0.025 A 
DOCKED: ATOM      8  C   UNL d   1      41.989  31.234  16.897 -0.36 +0.01    +0.066 A 
DOCKED: ATOM      9  C   UNL d   1      43.729  32.773  18.034 -0.35 +0.01    +0.051 C 
DOCKED: ATOM     10  C   UNL d   1      39.978  32.107  15.740 -0.37 +0.01    +0.066 A 
DOCKED: ATOM     11  C   UNL d   1      39.064  33.122  15.448 -0.42 -0.00    -0.021 A 
DOCKED: ATOM     12  C   UNL d   1      38.074  32.545  14.678 -0.40 +0.00    +0.000 A 
DOCKED: ATOM     13  C   UNL d   1      38.435  31.193  14.545 -0.35 +0.01    +0.070 A 
DOCKED: ATOM     14  C   UNL d   1      39.094  34.556  15.938 -0.54 +0.00    +0.052 C 
DOCKED: ATOM     15  C   UNL d   1      38.024  28.901  13.662 -0.33 +0.01    +0.066 A 
DOCKED: ATOM     16  C   UNL d   1      37.366  28.018  12.815 -0.48 -0.00    -0.021 A 
DOCKED: ATOM     17  C   UNL d   1      37.926  26.774  13.019 -0.45 +0.00    +0.000 A 
DOCKED: ATOM     18  C   UNL d   1      38.912  26.926  13.991 -0.36 +0.01    +0.070 A 
DOCKED: ATOM     19  C   UNL d   1      36.237  28.325  11.868 -0.64 +0.01    +0.052 C 
DOCKED: ATOM     20  C   UNL d   1      40.752  26.038  15.434 -0.39 +0.01    +0.066 A 
DOCKED: ATOM     21  C   UNL d   1      41.402  24.972  16.071 -0.39 -0.00    -0.025 A 
DOCKED: ATOM     22  C   UNL d   1      42.372  25.545  16.869 -0.34 -0.00    -0.021 A 
DOCKED: ATOM     23  C   UNL d   1      42.271  26.930  16.692 -0.25 +0.02    +0.066 A 
DOCKED: ATOM     24  C   UNL d   1      41.131  23.491  15.947 -0.50 +0.00    +0.051 C 
DOCKED: ATOM     25  N   UNL d   1      41.816  29.916  16.677 -0.23 -0.05    -0.248 N 
DOCKED: ATOM     26  N   UNL d   1      39.591  30.924  15.199 -0.19 -0.05    -0.248 N 
DOCKED: ATOM     27  N   UNL d   1      39.003  28.241  14.355 -0.03 -0.07    -0.248 N 
DOCKED: ATOM     28  N   UNL d   1      41.251  27.227  15.850 -0.25 -0.05    -0.248 N 
DOCKED: ATOM     29 FE   UNL d   1      40.421  29.073  15.524 -0.09 +0.00    +0.000 Fe
DOCKED: ENDROOT
DOCKED: BRANCH   6  30
DOCKED: ATOM     30  C   UNL d   1      44.983  29.953  18.551 -0.25 +0.02    +0.052 C 
DOCKED: BRANCH  30  31
DOCKED: ATOM     31  C   UNL d   1      44.770  28.957  19.685 -0.22 +0.08    +0.115 C 
DOCKED: BRANCH  31  32
DOCKED: ATOM     32  C   UNL d   1      46.049  28.744  20.446 -0.12 +0.14    +0.139 C 
DOCKED: ATOM     33  O   UNL d   1      46.965  29.550  20.363 -0.02 -0.44    -0.650 OA
DOCKED: BRANCH  32  34
DOCKED: ATOM     34  O   UNL d   1      46.197  27.660  21.226 -0.48 -1.27    -0.776 OA
DOCKED: ATOM     35  H   UNL d   1      45.680  26.866  21.030 +0.03 +0.23    +0.167 HD
DOCKED: ENDBRANCH  32  34
DOCKED: ENDBRANCH  31  32
DOCKED: ENDBRANCH  30  31
DOCKED: ENDBRANCH   6  30
DOCKED: BRANCH  22  36
DOCKED: ATOM     36  C   UNL d   1      43.308  24.802  17.786 -0.31 +0.02    +0.052 C 
DOCKED: BRANCH  36  37
DOCKED: ATOM     37  C   UNL d   1      42.611  24.513  19.107 -0.38 +0.03    +0.115 C 
DOCKED: BRANCH  37  38
DOCKED: ATOM     38  C   UNL d   1      43.598  24.467  20.238 -0.26 +0.07    +0.139 C 
DOCKED: ATOM     39  O   UNL d   1      44.139  23.417  20.554 -0.40 -0.33    -0.650 OA
DOCKED: BRANCH  38  40
DOCKED: ATOM     40  O   UNL d   1      43.894  25.589  20.918 +0.01 -0.63    -0.776 OA
DOCKED: ATOM     41  H   UNL d   1      44.638  26.134  20.625 +0.06 +0.15    +0.167 HD
DOCKED: ENDBRANCH  38  40
DOCKED: ENDBRANCH  37  38
DOCKED: ENDBRANCH  36  37
DOCKED: ENDBRANCH  22  36
DOCKED: BRANCH  12  42
DOCKED: ATOM     42  C   UNL d   1      36.876  33.265  14.144 -0.47 +0.00    +0.004 C 
DOCKED: ATOM     43  C   UNL d   1      36.614  33.286  12.830 -0.53 +0.00    +0.012 C 
DOCKED: ENDBRANCH  12  42
DOCKED: BRANCH  17  44
DOCKED: ATOM     44  C   UNL d   1      37.555  25.526  12.316 -0.28 +0.00    +0.004 C 
DOCKED: ATOM     45  C   UNL d   1      36.558  24.756  12.765 -0.67 +0.00    +0.012 C 
DOCKED: ENDBRANCH  17  44
DOCKED: TORSDOF 10
DOCKED: TER
DOCKED: ENDMDL
________________________________________________________________________________


	BEGINNING GENETIC ALGORITHM DOCKING 43 of 100
Run: 43 Seed: 1049698787 1821997910 [ Run 43 of 100 GA/GALS ]
Beginning LAMARCKIAN GENETIC ALGORITHM (LGA), with a maximum of 25000000 energy evaluations.

Final-Value: -15.321


	FINAL GENETIC ALGORITHM DOCKED STATE
	_______________________________________________


Detailed state:  trans 41.836 28.580 17.168 quatxyzw -0.063628 -0.936991 -0.035393 0.341682 center -0.174 -0.001 -0.047 ntor 10 179.3066 -118.3716 78.3387 -148.8225 -30.2589 165.4041 -75.3972 46.4017 -101.8374 164.3501
State:	 41.836  28.580  17.168  -0.068 -0.997 -0.038 140.041    179.31 -118.37   78.34 -148.82  -30.26  165.40  -75.40   46.40 -101.84  164.35

DOCKED: MODEL       43
DOCKED: USER    Run = 43
DOCKED: USER    DPF = D:/Protein_go_brrr/autodock/final/6BB5/heme_Fe/dock.dpf
DOCKED: USER  
DOCKED: USER    Estimated Free Energy of Binding    =  -11.25 kcal/mol  [=(1)+(2)+(3)-(4)]
DOCKED: USER    Estimated Inhibition Constant, Ki   =    5.63 nM (nanomolar)  [Temperature = 298.15 K]
DOCKED: USER    
DOCKED: USER    (1) Final Intermolecular Energy     =  -14.24 kcal/mol
DOCKED: USER        vdW + Hbond + desolv Energy     =  -12.15 kcal/mol
DOCKED: USER        Electrostatic Energy            =   -2.08 kcal/mol
DOCKED: USER    (2) Final Total Internal Energy     =   -1.08 kcal/mol
DOCKED: USER    (3) Torsional Free Energy           =   +2.98 kcal/mol
DOCKED: USER    (4) Unbound System's Energy  [=(2)] =   -1.08 kcal/mol
DOCKED: USER    
DOCKED: USER    
DOCKED: USER    NEWDPF move heme_Fe_opt.pdbqt
DOCKED: USER    NEWDPF about -0.174000 -0.001000 -0.047000
DOCKED: USER    NEWDPF tran0 41.836063 28.579628 17.168306
DOCKED: USER    NEWDPF quaternion0 -0.063628 -0.936991 -0.035393 0.341682
DOCKED: USER    NEWDPF axisangle0 -0.067703 -0.996994 -0.037660 140.041257
DOCKED: USER    NEWDPF quat0 -0.067703 -0.996994 -0.037660 140.041257
DOCKED: USER    NEWDPF dihe0 179.31 -118.37 78.34 -148.82 -30.26 165.40 -75.40 46.40 -101.84 164.35 
DOCKED: USER  keepresnum = 1 
DOCKED: USER  
DOCKED: REMARK  10 active torsions:
DOCKED: REMARK  status: ('A' for Active; 'I' for Inactive)
DOCKED: REMARK    1  A    between atoms: C_6  and  C_10 
DOCKED: REMARK    2  A    between atoms: C_10  and  C_11 
DOCKED: REMARK    3  A    between atoms: C_11  and  C_12 
DOCKED: REMARK    4  A    between atoms: C_12  and  O_14 
DOCKED: REMARK    5  A    between atoms: C_17  and  C_20 
DOCKED: REMARK    6  A    between atoms: C_24  and  C_27 
DOCKED: REMARK    7  A    between atoms: C_31  and  C_34 
DOCKED: REMARK    8  A    between atoms: C_34  and  C_35 
DOCKED: REMARK    9  A    between atoms: C_35  and  C_36 
DOCKED: REMARK   10  A    between atoms: C_36  and  O_38 
DOCKED: USER                              x       y       z     vdW  Elec       q    Type
DOCKED: USER                           _______ _______ _______ _____ _____    ______ ____
DOCKED: ROOT
DOCKED: ATOM      1  C   UNL d   1      43.676  28.249  18.015 -0.19 +0.02    +0.064 C 
DOCKED: ATOM      2  C   UNL d   1      40.465  25.479  15.476 -0.34 +0.01    +0.064 A 
DOCKED: ATOM      3  C   UNL d   1      38.180  29.483  14.130 -0.35 +0.01    +0.064 C 
DOCKED: ATOM      4  C   UNL d   1      41.214  32.176  16.666 -0.48 +0.01    +0.064 C 
DOCKED: ATOM      5  C   UNL d   1      42.935  27.093  17.493 +0.03 +0.02    +0.066 A 
DOCKED: ATOM      6  C   UNL d   1      43.236  25.770  17.771 -0.27 -0.01    -0.021 A 
DOCKED: ATOM      7  C   UNL d   1      42.346  25.001  17.063 -0.35 -0.01    -0.025 A 
DOCKED: ATOM      8  C   UNL d   1      41.535  25.885  16.379 -0.35 +0.01    +0.066 A 
DOCKED: ATOM      9  C   UNL d   1      42.276  23.504  17.064 -0.44 +0.01    +0.051 C 
DOCKED: ATOM     10  C   UNL d   1      39.631  26.311  14.850 -0.38 +0.01    +0.066 A 
DOCKED: ATOM     11  C   UNL d   1      38.691  25.898  13.902 -0.45 -0.00    -0.021 A 
DOCKED: ATOM     12  C   UNL d   1      38.030  27.036  13.486 -0.43 +0.00    +0.000 A 
DOCKED: ATOM     13  C   UNL d   1      38.613  28.097  14.202 -0.10 +0.02    +0.070 A 
DOCKED: ATOM     14  C   UNL d   1      38.479  24.496  13.369 -0.52 +0.01    +0.052 C 
DOCKED: ATOM     15  C   UNL d   1      38.772  30.515  14.777 -0.24 +0.01    +0.066 A 
DOCKED: ATOM     16  C   UNL d   1      38.268  31.809  14.761 -0.38 -0.00    -0.021 A 
DOCKED: ATOM     17  C   UNL d   1      39.143  32.588  15.489 -0.41 +0.00    +0.000 A 
DOCKED: ATOM     18  C   UNL d   1      40.165  31.750  15.930 -0.36 +0.01    +0.070 A 
DOCKED: ATOM     19  C   UNL d   1      37.026  32.303  14.068 -0.27 +0.00    +0.052 C 
DOCKED: ATOM     20  C   UNL d   1      42.275  31.313  17.199 -0.37 +0.01    +0.066 A 
DOCKED: ATOM     21  C   UNL d   1      43.465  31.761  17.788 -0.26 -0.00    -0.025 A 
DOCKED: ATOM     22  C   UNL d   1      44.146  30.626  18.176 -0.28 -0.01    -0.021 A 
DOCKED: ATOM     23  C   UNL d   1      43.351  29.535  17.805 -0.23 +0.02    +0.066 A 
DOCKED: ATOM     24  C   UNL d   1      43.948  33.181  17.976 -0.32 +0.01    +0.051 C 
DOCKED: ATOM     25  N   UNL d   1      41.889  27.157  16.651 -0.19 -0.06    -0.248 N 
DOCKED: ATOM     26  N   UNL d   1      39.595  27.656  15.027 -0.16 -0.07    -0.248 N 
DOCKED: ATOM     27  N   UNL d   1      39.914  30.467  15.530 +0.06 -0.07    -0.248 N 
DOCKED: ATOM     28  N   UNL d   1      42.232  29.959  17.169 -0.21 -0.05    -0.248 N 
DOCKED: ATOM     29 FE   UNL d   1      40.914  28.809  16.098 -0.09 +0.00    +0.000 Fe
DOCKED: ENDROOT
DOCKED: BRANCH   6  30
DOCKED: ATOM     30  C   UNL d   1      44.301  25.259  18.680 -0.21 +0.02    +0.052 C 
DOCKED: BRANCH  30  31
DOCKED: ATOM     31  C   UNL d   1      45.264  26.377  19.065 -0.14 +0.06    +0.115 C 
DOCKED: BRANCH  31  32
DOCKED: ATOM     32  C   UNL d   1      45.006  26.831  20.475 -0.19 +0.14    +0.139 C 
DOCKED: ATOM     33  O   UNL d   1      43.881  26.772  20.953 -0.23 -0.80    -0.650 OA
DOCKED: BRANCH  32  34
DOCKED: ATOM     34  O   UNL d   1      46.013  27.308  21.226 -0.37 -1.23    -0.776 OA
DOCKED: ATOM     35  H   UNL d   1      46.903  27.345  20.848 +0.02 +0.17    +0.167 HD
DOCKED: ENDBRANCH  32  34
DOCKED: ENDBRANCH  31  32
DOCKED: ENDBRANCH  30  31
DOCKED: ENDBRANCH   6  30
DOCKED: BRANCH  22  36
DOCKED: ATOM     36  C   UNL d   1      45.505  30.594  18.823 -0.22 +0.02    +0.052 C 
DOCKED: BRANCH  36  37
DOCKED: ATOM     37  C   UNL d   1      46.566  30.298  17.773 -0.14 +0.03    +0.115 C 
DOCKED: BRANCH  37  38
DOCKED: ATOM     38  C   UNL d   1      47.533  29.257  18.262 -0.11 +0.05    +0.139 C 
DOCKED: ATOM     39  O   UNL d   1      48.289  28.692  17.486 +0.00 -0.20    -0.650 OA
DOCKED: BRANCH  38  40
DOCKED: ATOM     40  O   UNL d   1      47.571  28.937  19.568 +0.03 -0.38    -0.776 OA
DOCKED: ATOM     41  H   UNL d   1      46.780  28.566  19.984 +0.03 +0.11    +0.167 HD
DOCKED: ENDBRANCH  38  40
DOCKED: ENDBRANCH  37  38
DOCKED: ENDBRANCH  36  37
DOCKED: ENDBRANCH  22  36
DOCKED: BRANCH  12  42
DOCKED: ATOM     42  C   UNL d   1      36.940  27.068  12.462 -0.56 +0.00    +0.004 C 
DOCKED: ATOM     43  C   UNL d   1      35.757  27.633  12.733 -0.63 +0.00    +0.012 C 
DOCKED: ENDBRANCH  12  42
DOCKED: BRANCH  17  44
DOCKED: ATOM     44  C   UNL d   1      39.000  34.036  15.763 -0.54 +0.00    +0.004 C 
DOCKED: ATOM     45  C   UNL d   1      39.603  34.943  14.986 -0.58 +0.00    +0.012 C 
DOCKED: ENDBRANCH  17  44
DOCKED: TORSDOF 10
DOCKED: TER
DOCKED: ENDMDL
________________________________________________________________________________


	BEGINNING GENETIC ALGORITHM DOCKING 44 of 100
Run: 44 Seed: 862141809 1484867440 [ Run 44 of 100 GA/GALS ]
Beginning LAMARCKIAN GENETIC ALGORITHM (LGA), with a maximum of 25000000 energy evaluations.

Final-Value: -18.169


	FINAL GENETIC ALGORITHM DOCKED STATE
	_______________________________________________


Detailed state:  trans 41.762 28.616 15.960 quatxyzw 0.233690 0.100056 -0.952732 0.166371 center -0.174 -0.001 -0.047 ntor 10 -155.8150 34.3616 66.3571 -138.2953 61.2025 176.3500 -15.8950 78.0959 176.5778 162.2603
State:	 41.762  28.616  15.960   0.237  0.101 -0.966 160.846   -155.82   34.36   66.36 -138.30   61.20  176.35  -15.89   78.10  176.58  162.26

DOCKED: MODEL       44
DOCKED: USER    Run = 44
DOCKED: USER    DPF = D:/Protein_go_brrr/autodock/final/6BB5/heme_Fe/dock.dpf
DOCKED: USER  
DOCKED: USER    Estimated Free Energy of Binding    =  -13.00 kcal/mol  [=(1)+(2)+(3)-(4)]
DOCKED: USER    Estimated Inhibition Constant, Ki   =  296.30 pM (picomolar)  [Temperature = 298.15 K]
DOCKED: USER    
DOCKED: USER    (1) Final Intermolecular Energy     =  -15.98 kcal/mol
DOCKED: USER        vdW + Hbond + desolv Energy     =  -13.81 kcal/mol
DOCKED: USER        Electrostatic Energy            =   -2.17 kcal/mol
DOCKED: USER    (2) Final Total Internal Energy     =   -2.19 kcal/mol
DOCKED: USER    (3) Torsional Free Energy           =   +2.98 kcal/mol
DOCKED: USER    (4) Unbound System's Energy  [=(2)] =   -2.19 kcal/mol
DOCKED: USER    
DOCKED: USER    
DOCKED: USER    NEWDPF move heme_Fe_opt.pdbqt
DOCKED: USER    NEWDPF about -0.174000 -0.001000 -0.047000
DOCKED: USER    NEWDPF tran0 41.762193 28.615992 15.960451
DOCKED: USER    NEWDPF quaternion0 0.233690 0.100056 -0.952732 0.166371
DOCKED: USER    NEWDPF axisangle0 0.236992 0.101471 -0.966198 160.846249
DOCKED: USER    NEWDPF quat0 0.236992 0.101471 -0.966198 160.846249
DOCKED: USER    NEWDPF dihe0 -155.82 34.36 66.36 -138.30 61.20 176.35 -15.89 78.10 176.58 162.26 
DOCKED: USER  keepresnum = 1 
DOCKED: USER  
DOCKED: REMARK  10 active torsions:
DOCKED: REMARK  status: ('A' for Active; 'I' for Inactive)
DOCKED: REMARK    1  A    between atoms: C_6  and  C_10 
DOCKED: REMARK    2  A    between atoms: C_10  and  C_11 
DOCKED: REMARK    3  A    between atoms: C_11  and  C_12 
DOCKED: REMARK    4  A    between atoms: C_12  and  O_14 
DOCKED: REMARK    5  A    between atoms: C_17  and  C_20 
DOCKED: REMARK    6  A    between atoms: C_24  and  C_27 
DOCKED: REMARK    7  A    between atoms: C_31  and  C_34 
DOCKED: REMARK    8  A    between atoms: C_34  and  C_35 
DOCKED: REMARK    9  A    between atoms: C_35  and  C_36 
DOCKED: REMARK   10  A    between atoms: C_36  and  O_38 
DOCKED: USER                              x       y       z     vdW  Elec       q    Type
DOCKED: USER                           _______ _______ _______ _____ _____    ______ ____
DOCKED: ROOT
DOCKED: ATOM      1  C   UNL d   1      43.178  27.890  17.256 -0.22 +0.02    +0.064 C 
DOCKED: ATOM      2  C   UNL d   1      41.119  32.315  16.475 -0.42 +0.01    +0.064 A 
DOCKED: ATOM      3  C   UNL d   1      37.673  30.179  13.899 -0.32 +0.01    +0.064 C 
DOCKED: ATOM      4  C   UNL d   1      39.708  25.900  14.554 -0.46 +0.01    +0.064 C 
DOCKED: ATOM      5  C   UNL d   1      42.965  29.343  17.205 -0.27 +0.02    +0.066 A 
DOCKED: ATOM      6  C   UNL d   1      43.823  30.287  17.744 -0.29 -0.01    -0.021 A 
DOCKED: ATOM      7  C   UNL d   1      43.248  31.516  17.530 -0.26 -0.00    -0.025 A 
DOCKED: ATOM      8  C   UNL d   1      42.060  31.273  16.867 -0.36 +0.01    +0.066 A 
DOCKED: ATOM      9  C   UNL d   1      43.824  32.841  17.925 -0.26 +0.01    +0.051 C 
DOCKED: ATOM     10  C   UNL d   1      39.995  32.113  15.785 -0.37 +0.01    +0.066 A 
DOCKED: ATOM     11  C   UNL d   1      39.057  33.115  15.523 -0.41 -0.00    -0.021 A 
DOCKED: ATOM     12  C   UNL d   1      38.045  32.521  14.796 -0.39 +0.00    +0.000 A 
DOCKED: ATOM     13  C   UNL d   1      38.418  31.172  14.657 -0.35 +0.01    +0.070 A 
DOCKED: ATOM     14  C   UNL d   1      39.089  34.552  16.001 -0.54 +0.00    +0.052 C 
DOCKED: ATOM     15  C   UNL d   1      38.001  28.869  13.805 -0.33 +0.01    +0.066 A 
DOCKED: ATOM     16  C   UNL d   1      37.321  27.973  12.991 -0.46 -0.00    -0.021 A 
DOCKED: ATOM     17  C   UNL d   1      37.904  26.737  13.181 -0.45 +0.00    +0.000 A 
DOCKED: ATOM     18  C   UNL d   1      38.925  26.908  14.112 -0.36 +0.01    +0.070 A 
DOCKED: ATOM     19  C   UNL d   1      36.152  28.259  12.087 -0.65 +0.01    +0.052 C 
DOCKED: ATOM     20  C   UNL d   1      40.832  26.052  15.486 -0.39 +0.01    +0.066 A 
DOCKED: ATOM     21  C   UNL d   1      41.520  24.999  16.105 -0.39 -0.00    -0.025 A 
DOCKED: ATOM     22  C   UNL d   1      42.513  25.588  16.860 -0.33 -0.00    -0.021 A 
DOCKED: ATOM     23  C   UNL d   1      42.388  26.971  16.679 -0.27 +0.02    +0.066 A 
DOCKED: ATOM     24  C   UNL d   1      41.262  23.514  16.000 -0.50 +0.00    +0.051 C 
DOCKED: ATOM     25  N   UNL d   1      41.895  29.951  16.663 -0.23 -0.05    -0.248 N 
DOCKED: ATOM     26  N   UNL d   1      39.602  30.922  15.267 -0.20 -0.05    -0.248 N 
DOCKED: ATOM     27  N   UNL d   1      39.015  28.226  14.464 -0.07 -0.07    -0.248 N 
DOCKED: ATOM     28  N   UNL d   1      41.332  27.250  15.876 -0.25 -0.05    -0.248 N 
DOCKED: ATOM     29 FE   UNL d   1      40.467  29.084  15.571 -0.09 +0.00    +0.000 Fe
DOCKED: ENDROOT
DOCKED: BRANCH   6  30
DOCKED: ATOM     30  C   UNL d   1      45.133  30.040  18.410 -0.24 +0.02    +0.052 C 
DOCKED: BRANCH  30  31
DOCKED: ATOM     31  C   UNL d   1      44.960  29.937  19.921 -0.13 +0.08    +0.115 C 
DOCKED: BRANCH  31  32
DOCKED: ATOM     32  C   UNL d   1      46.176  29.316  20.549 -0.11 +0.13    +0.139 C 
DOCKED: ATOM     33  O   UNL d   1      47.271  29.853  20.451 -0.01 -0.39    -0.650 OA
DOCKED: BRANCH  32  34
DOCKED: ATOM     34  O   UNL d   1      46.071  28.160  21.227 -0.41 -1.32    -0.776 OA
DOCKED: ATOM     35  H   UNL d   1      45.337  27.563  21.025 +0.03 +0.28    +0.167 HD
DOCKED: ENDBRANCH  32  34
DOCKED: ENDBRANCH  31  32
DOCKED: ENDBRANCH  30  31
DOCKED: ENDBRANCH   6  30
DOCKED: BRANCH  22  36
DOCKED: ATOM     36  C   UNL d   1      43.493  24.864  17.744 -0.29 +0.02    +0.052 C 
DOCKED: BRANCH  36  37
DOCKED: ATOM     37  C   UNL d   1      43.045  24.960  19.195 -0.33 +0.04    +0.115 C 
DOCKED: BRANCH  37  38
DOCKED: ATOM     38  C   UNL d   1      43.854  25.982  19.942 -0.23 +0.08    +0.139 C 
DOCKED: ATOM     39  O   UNL d   1      43.598  26.253  21.106 -0.22 -0.69    -0.650 OA
DOCKED: BRANCH  38  40
DOCKED: ATOM     40  O   UNL d   1      44.870  26.614  19.327 +0.08 -0.46    -0.776 OA
DOCKED: ATOM     41  H   UNL d   1      45.653  26.855  19.842 +0.05 +0.12    +0.167 HD
DOCKED: ENDBRANCH  38  40
DOCKED: ENDBRANCH  37  38
DOCKED: ENDBRANCH  36  37
DOCKED: ENDBRANCH  22  36
DOCKED: BRANCH  12  42
DOCKED: ATOM     42  C   UNL d   1      36.818  33.222  14.304 -0.45 +0.00    +0.004 C 
DOCKED: ATOM     43  C   UNL d   1      36.598  33.388  12.994 -0.53 +0.00    +0.012 C 
DOCKED: ENDBRANCH  12  42
DOCKED: BRANCH  17  44
DOCKED: ATOM     44  C   UNL d   1      37.522  25.479  12.500 -0.43 +0.00    +0.004 C 
DOCKED: ATOM     45  C   UNL d   1      36.519  24.727  12.964 -0.67 +0.00    +0.012 C 
DOCKED: ENDBRANCH  17  44
DOCKED: TORSDOF 10
DOCKED: TER
DOCKED: ENDMDL
________________________________________________________________________________


	BEGINNING GENETIC ALGORITHM DOCKING 45 of 100
Run: 45 Seed: 90895817 291341952 [ Run 45 of 100 GA/GALS ]
Beginning LAMARCKIAN GENETIC ALGORITHM (LGA), with a maximum of 25000000 energy evaluations.

Final-Value: -12.910


	FINAL GENETIC ALGORITHM DOCKED STATE
	_______________________________________________


Detailed state:  trans 44.235 20.267 16.315 quatxyzw 0.545561 0.714178 0.413322 -0.146556 center -0.174 -0.001 -0.047 ntor 10 173.4779 -13.1186 -177.2591 32.5569 -91.1119 106.5710 170.6795 111.5901 179.7432 175.1762
State:	 44.235  20.267  16.315   0.552  0.722  0.418 -163.145    173.48  -13.12 -177.26   32.56  -91.11  106.57  170.68  111.59  179.74  175.18

DOCKED: MODEL       45
DOCKED: USER    Run = 45
DOCKED: USER    DPF = D:/Protein_go_brrr/autodock/final/6BB5/heme_Fe/dock.dpf
DOCKED: USER  
DOCKED: USER    Estimated Free Energy of Binding    =   -7.74 kcal/mol  [=(1)+(2)+(3)-(4)]
DOCKED: USER    Estimated Inhibition Constant, Ki   =    2.11 uM (micromolar)  [Temperature = 298.15 K]
DOCKED: USER    
DOCKED: USER    (1) Final Intermolecular Energy     =  -10.73 kcal/mol
DOCKED: USER        vdW + Hbond + desolv Energy     =   -8.81 kcal/mol
DOCKED: USER        Electrostatic Energy            =   -1.92 kcal/mol
DOCKED: USER    (2) Final Total Internal Energy     =   -2.19 kcal/mol
DOCKED: USER    (3) Torsional Free Energy           =   +2.98 kcal/mol
DOCKED: USER    (4) Unbound System's Energy  [=(2)] =   -2.19 kcal/mol
DOCKED: USER    
DOCKED: USER    
DOCKED: USER    NEWDPF move heme_Fe_opt.pdbqt
DOCKED: USER    NEWDPF about -0.174000 -0.001000 -0.047000
DOCKED: USER    NEWDPF tran0 44.235367 20.267304 16.314908
DOCKED: USER    NEWDPF quaternion0 0.545561 0.714178 0.413322 -0.146556
DOCKED: USER    NEWDPF axisangle0 0.551516 0.721974 0.417833 -163.145202
DOCKED: USER    NEWDPF quat0 0.551516 0.721974 0.417833 -163.145202
DOCKED: USER    NEWDPF dihe0 173.48 -13.12 -177.26 32.56 -91.11 106.57 170.68 111.59 179.74 175.18 
DOCKED: USER  keepresnum = 1 
DOCKED: USER  
DOCKED: REMARK  10 active torsions:
DOCKED: REMARK  status: ('A' for Active; 'I' for Inactive)
DOCKED: REMARK    1  A    between atoms: C_6  and  C_10 
DOCKED: REMARK    2  A    between atoms: C_10  and  C_11 
DOCKED: REMARK    3  A    between atoms: C_11  and  C_12 
DOCKED: REMARK    4  A    between atoms: C_12  and  O_14 
DOCKED: REMARK    5  A    between atoms: C_17  and  C_20 
DOCKED: REMARK    6  A    between atoms: C_24  and  C_27 
DOCKED: REMARK    7  A    between atoms: C_31  and  C_34 
DOCKED: REMARK    8  A    between atoms: C_34  and  C_35 
DOCKED: REMARK    9  A    between atoms: C_35  and  C_36 
DOCKED: REMARK   10  A    between atoms: C_36  and  O_38 
DOCKED: USER                              x       y       z     vdW  Elec       q    Type
DOCKED: USER                           _______ _______ _______ _____ _____    ______ ____
DOCKED: ROOT
DOCKED: ATOM      1  C   UNL d   1      45.264  18.709  15.465 -0.13 +0.03    +0.064 C 
DOCKED: ATOM      2  C   UNL d   1      41.627  21.704  13.972 -0.34 +0.01    +0.064 A 
DOCKED: ATOM      3  C   UNL d   1      42.617  24.627  17.652 -0.37 +0.02    +0.064 C 
DOCKED: ATOM      4  C   UNL d   1      46.072  21.689  19.175 -0.11 +0.03    +0.064 C 
DOCKED: ATOM      5  C   UNL d   1      44.094  19.239  14.751 -0.17 +0.02    +0.066 A 
DOCKED: ATOM      6  C   UNL d   1      43.455  18.603  13.699 -0.19 -0.00    -0.021 A 
DOCKED: ATOM      7  C   UNL d   1      42.447  19.438  13.283 -0.36 -0.00    -0.025 A 
DOCKED: ATOM      8  C   UNL d   1      42.510  20.551  14.098 -0.32 +0.01    +0.066 A 
DOCKED: ATOM      9  C   UNL d   1      41.474  19.163  12.178 -0.31 +0.00    +0.051 C 
DOCKED: ATOM     10  C   UNL d   1      41.629  22.765  14.781 -0.37 +0.01    +0.066 A 
DOCKED: ATOM     11  C   UNL d   1      40.850  23.904  14.566 -0.52 -0.00    -0.021 A 
DOCKED: ATOM     12  C   UNL d   1      41.129  24.770  15.605 -0.44 +0.00    +0.000 A 
DOCKED: ATOM     13  C   UNL d   1      42.080  24.110  16.403 -0.35 +0.01    +0.070 A 
DOCKED: ATOM     14  C   UNL d   1      39.934  24.184  13.391 -0.44 +0.01    +0.052 C 
DOCKED: ATOM     15  C   UNL d   1      43.571  24.019  18.397 -0.26 +0.02    +0.066 A 
DOCKED: ATOM     16  C   UNL d   1      43.985  24.496  19.634 -0.26 -0.01    -0.021 A 
DOCKED: ATOM     17  C   UNL d   1      44.984  23.652  20.074 -0.19 +0.00    +0.000 A 
DOCKED: ATOM     18  C   UNL d   1      45.159  22.681  19.090 -0.08 +0.03    +0.070 A 
DOCKED: ATOM     19  C   UNL d   1      43.481  25.711  20.366 -0.32 +0.03    +0.052 C 
DOCKED: ATOM     20  C   UNL d   1      46.243  20.615  18.189 -0.14 +0.03    +0.066 A 
DOCKED: ATOM     21  C   UNL d   1      47.307  19.703  18.161 -0.10 -0.01    -0.025 A 
DOCKED: ATOM     22  C   UNL d   1      47.050  18.856  17.103 -0.08 -0.01    -0.021 A 
DOCKED: ATOM     23  C   UNL d   1      45.849  19.285  16.527 -0.12 +0.03    +0.066 A 
DOCKED: ATOM     24  C   UNL d   1      48.510  19.628  19.073 -0.05 +0.03    +0.051 C 
DOCKED: ATOM     25  N   UNL d   1      43.507  20.423  14.996 -0.16 -0.06    -0.248 N 
DOCKED: ATOM     26  N   UNL d   1      42.392  22.892  15.896 -0.17 -0.04    -0.248 N 
DOCKED: ATOM     27  N   UNL d   1      44.261  22.880  18.079 -0.14 -0.09    -0.248 N 
DOCKED: ATOM     28  N   UNL d   1      45.384  20.386  17.166 -0.11 -0.11    -0.248 N 
DOCKED: ATOM     29 FE   UNL d   1      43.889  21.639  16.533 -0.07 +0.00    +0.000 Fe
DOCKED: ENDROOT
DOCKED: BRANCH   6  30
DOCKED: ATOM     30  C   UNL d   1      43.770  17.262  13.130 -0.10 +0.01    +0.052 C 
DOCKED: BRANCH  30  31
DOCKED: ATOM     31  C   UNL d   1      44.775  17.382  11.990 -0.09 +0.04    +0.115 C 
DOCKED: BRANCH  31  32
DOCKED: ATOM     32  C   UNL d   1      44.984  18.825  11.622 -0.25 +0.07    +0.139 C 
DOCKED: ATOM     33  O   UNL d   1      44.301  19.352  10.756 -0.09 -0.30    -0.650 OA
DOCKED: BRANCH  32  34
DOCKED: ATOM     34  O   UNL d   1      45.928  19.550  12.245 -0.01 -0.43    -0.776 OA
DOCKED: ATOM     35  H   UNL d   1      46.402  19.160  12.993 +0.05 +0.11    +0.167 HD
DOCKED: ENDBRANCH  32  34
DOCKED: ENDBRANCH  31  32
DOCKED: ENDBRANCH  30  31
DOCKED: ENDBRANCH   6  30
DOCKED: BRANCH  22  36
DOCKED: ATOM     36  C   UNL d   1      47.937  17.728  16.645 -0.04 +0.03    +0.052 C 
DOCKED: BRANCH  36  37
DOCKED: ATOM     37  C   UNL d   1      48.959  18.252  15.647 -0.06 +0.11    +0.115 C 
DOCKED: BRANCH  37  38
DOCKED: ATOM     38  C   UNL d   1      48.300  18.642  14.354 -0.06 +0.15    +0.139 C 
DOCKED: ATOM     39  O   UNL d   1      48.155  19.818  14.057 -0.31 -1.31    -0.650 OA
DOCKED: BRANCH  38  40
DOCKED: ATOM     40  O   UNL d   1      47.859  17.691  13.512 +0.05 -0.48    -0.776 OA
DOCKED: ATOM     41  H   UNL d   1      47.270  17.941  12.787 +0.04 +0.10    +0.167 HD
DOCKED: ENDBRANCH  38  40
DOCKED: ENDBRANCH  37  38
DOCKED: ENDBRANCH  36  37
DOCKED: ENDBRANCH  22  36
DOCKED: BRANCH  12  42
DOCKED: ATOM     42  C   UNL d   1      40.524  26.127  15.775 -0.45 +0.00    +0.004 C 
DOCKED: ATOM     43  C   UNL d   1      41.293  27.202  15.991 -0.43 +0.00    +0.012 C 
DOCKED: ENDBRANCH  12  42
DOCKED: BRANCH  17  44
DOCKED: ATOM     44  C   UNL d   1      45.709  23.756  21.360 -0.16 +0.00    +0.004 C 
DOCKED: ATOM     45  C   UNL d   1      45.220  23.192  22.469 -0.21 +0.01    +0.012 C 
DOCKED: ENDBRANCH  17  44
DOCKED: TORSDOF 10
DOCKED: TER
DOCKED: ENDMDL
________________________________________________________________________________


	BEGINNING GENETIC ALGORITHM DOCKING 46 of 100
Run: 46 Seed: 328901505 46212656 [ Run 46 of 100 GA/GALS ]
Beginning LAMARCKIAN GENETIC ALGORITHM (LGA), with a maximum of 25000000 energy evaluations.

Final-Value: -17.582


	FINAL GENETIC ALGORITHM DOCKED STATE
	_______________________________________________


Detailed state:  trans 41.297 28.204 16.575 quatxyzw 0.146691 0.929841 0.080591 -0.327693 center -0.174 -0.001 -0.047 ntor 10 -83.7392 78.8383 99.7449 -124.1755 82.8991 -74.6221 -38.9890 -80.1829 -147.1018 -19.0511
State:	 41.297  28.204  16.575   0.155  0.984  0.085 -141.742    -83.74   78.84   99.74 -124.18   82.90  -74.62  -38.99  -80.18 -147.10  -19.05

DOCKED: MODEL       46
DOCKED: USER    Run = 46
DOCKED: USER    DPF = D:/Protein_go_brrr/autodock/final/6BB5/heme_Fe/dock.dpf
DOCKED: USER  
DOCKED: USER    Estimated Free Energy of Binding    =  -12.58 kcal/mol  [=(1)+(2)+(3)-(4)]
DOCKED: USER    Estimated Inhibition Constant, Ki   =  605.76 pM (picomolar)  [Temperature = 298.15 K]
DOCKED: USER    
DOCKED: USER    (1) Final Intermolecular Energy     =  -15.56 kcal/mol
DOCKED: USER        vdW + Hbond + desolv Energy     =  -13.37 kcal/mol
DOCKED: USER        Electrostatic Energy            =   -2.19 kcal/mol
DOCKED: USER    (2) Final Total Internal Energy     =   -2.02 kcal/mol
DOCKED: USER    (3) Torsional Free Energy           =   +2.98 kcal/mol
DOCKED: USER    (4) Unbound System's Energy  [=(2)] =   -2.02 kcal/mol
DOCKED: USER    
DOCKED: USER    
DOCKED: USER    NEWDPF move heme_Fe_opt.pdbqt
DOCKED: USER    NEWDPF about -0.174000 -0.001000 -0.047000
DOCKED: USER    NEWDPF tran0 41.297188 28.203645 16.575119
DOCKED: USER    NEWDPF quaternion0 0.146691 0.929841 0.080591 -0.327693
DOCKED: USER    NEWDPF axisangle0 0.155264 0.984183 0.085301 -141.742367
DOCKED: USER    NEWDPF quat0 0.155264 0.984183 0.085301 -141.742367
DOCKED: USER    NEWDPF dihe0 -83.74 78.84 99.74 -124.18 82.90 -74.62 -38.99 -80.18 -147.10 -19.05 
DOCKED: USER  keepresnum = 1 
DOCKED: USER  
DOCKED: REMARK  10 active torsions:
DOCKED: REMARK  status: ('A' for Active; 'I' for Inactive)
DOCKED: REMARK    1  A    between atoms: C_6  and  C_10 
DOCKED: REMARK    2  A    between atoms: C_10  and  C_11 
DOCKED: REMARK    3  A    between atoms: C_11  and  C_12 
DOCKED: REMARK    4  A    between atoms: C_12  and  O_14 
DOCKED: REMARK    5  A    between atoms: C_17  and  C_20 
DOCKED: REMARK    6  A    between atoms: C_24  and  C_27 
DOCKED: REMARK    7  A    between atoms: C_31  and  C_34 
DOCKED: REMARK    8  A    between atoms: C_34  and  C_35 
DOCKED: REMARK    9  A    between atoms: C_35  and  C_36 
DOCKED: REMARK   10  A    between atoms: C_36  and  O_38 
DOCKED: USER                              x       y       z     vdW  Elec       q    Type
DOCKED: USER                           _______ _______ _______ _____ _____    ______ ____
DOCKED: ROOT
DOCKED: ATOM      1  C   UNL d   1      43.091  27.531  17.310 -0.19 +0.02    +0.064 C 
DOCKED: ATOM      2  C   UNL d   1      39.527  25.572  14.503 -0.40 +0.01    +0.064 A 
DOCKED: ATOM      3  C   UNL d   1      37.747  29.978  13.808 -0.39 +0.01    +0.064 C 
DOCKED: ATOM      4  C   UNL d   1      41.126  31.884  16.607 -0.47 +0.01    +0.064 C 
DOCKED: ATOM      5  C   UNL d   1      42.204  26.562  16.653 -0.31 +0.01    +0.066 A 
DOCKED: ATOM      6  C   UNL d   1      42.340  25.186  16.731 -0.35 -0.00    -0.021 A 
DOCKED: ATOM      7  C   UNL d   1      41.352  24.642  15.948 -0.41 -0.00    -0.025 A 
DOCKED: ATOM      8  C   UNL d   1      40.650  25.709  15.421 -0.38 +0.01    +0.066 A 
DOCKED: ATOM      9  C   UNL d   1      41.094  23.182  15.739 -0.51 +0.00    +0.051 C 
DOCKED: ATOM     10  C   UNL d   1      38.796  26.581  14.026 -0.38 +0.01    +0.066 A 
DOCKED: ATOM     11  C   UNL d   1      37.800  26.428  13.059 -0.44 -0.00    -0.021 A 
DOCKED: ATOM     12  C   UNL d   1      37.282  27.687  12.828 -0.49 +0.00    +0.000 A 
DOCKED: ATOM     13  C   UNL d   1      38.003  28.553  13.669 -0.34 +0.01    +0.070 A 
DOCKED: ATOM     14  C   UNL d   1      37.407  25.154  12.339 -0.42 +0.01    +0.052 C 
DOCKED: ATOM     15  C   UNL d   1      38.471  30.825  14.577 -0.34 +0.01    +0.066 A 
DOCKED: ATOM     16  C   UNL d   1      38.133  32.160  14.759 -0.37 -0.00    -0.021 A 
DOCKED: ATOM     17  C   UNL d   1      39.109  32.713  15.564 -0.40 +0.00    +0.000 A 
DOCKED: ATOM     18  C   UNL d   1      40.022  31.701  15.850 -0.35 +0.01    +0.070 A 
DOCKED: ATOM     19  C   UNL d   1      36.955  32.897  14.181 -0.40 +0.00    +0.052 C 
DOCKED: ATOM     20  C   UNL d   1      42.076  30.829  16.979 -0.35 +0.01    +0.066 A 
DOCKED: ATOM     21  C   UNL d   1      43.321  31.039  17.590 -0.30 -0.01    -0.025 A 
DOCKED: ATOM     22  C   UNL d   1      43.858  29.784  17.792 -0.28 -0.01    -0.021 A 
DOCKED: ATOM     23  C   UNL d   1      42.928  28.864  17.295 -0.20 +0.02    +0.066 A 
DOCKED: ATOM     24  C   UNL d   1      43.980  32.346  17.962 -0.29 +0.01    +0.051 C 
DOCKED: ATOM     25  N   UNL d   1      41.164  26.875  15.860 -0.27 -0.05    -0.248 N 
DOCKED: ATOM     26  N   UNL d   1      38.931  27.881  14.393 -0.15 -0.06    -0.248 N 
DOCKED: ATOM     27  N   UNL d   1      39.608  30.529  15.280 -0.01 -0.06    -0.248 N 
DOCKED: ATOM     28  N   UNL d   1      41.863  29.509  16.760 -0.19 -0.06    -0.248 N 
DOCKED: ATOM     29 FE   UNL d   1      40.398  28.697  15.577 -0.09 +0.00    +0.000 Fe
DOCKED: ENDROOT
DOCKED: BRANCH   6  30
DOCKED: ATOM     30  C   UNL d   1      43.344  24.423  17.525 -0.31 +0.01    +0.052 C 
DOCKED: BRANCH  30  31
DOCKED: ATOM     31  C   UNL d   1      44.762  24.819  17.128 -0.21 +0.04    +0.115 C 
DOCKED: BRANCH  31  32
DOCKED: ATOM     32  C   UNL d   1      45.650  24.884  18.340 -0.11 +0.06    +0.139 C 
DOCKED: ATOM     33  O   UNL d   1      46.162  23.869  18.792 +0.05 -0.32    -0.650 OA
DOCKED: BRANCH  32  34
DOCKED: ATOM     34  O   UNL d   1      45.888  26.062  18.939 +0.09 -0.40    -0.776 OA
DOCKED: ATOM     35  H   UNL d   1      45.356  26.315  19.706 +0.05 +0.11    +0.167 HD
DOCKED: ENDBRANCH  32  34
DOCKED: ENDBRANCH  31  32
DOCKED: ENDBRANCH  30  31
DOCKED: ENDBRANCH   6  30
DOCKED: BRANCH  22  36
DOCKED: ATOM     36  C   UNL d   1      45.211  29.492  18.386 -0.23 +0.02    +0.052 C 
DOCKED: BRANCH  36  37
DOCKED: ATOM     37  C   UNL d   1      45.151  29.645  19.899 -0.16 +0.08    +0.115 C 
DOCKED: BRANCH  37  38
DOCKED: ATOM     38  C   UNL d   1      45.000  28.308  20.569 -0.09 +0.17    +0.139 C 
DOCKED: ATOM     39  O   UNL d   1      43.931  27.717  20.552 -0.18 -0.75    -0.650 OA
DOCKED: BRANCH  38  40
DOCKED: ATOM     40  O   UNL d   1      46.049  27.752  21.201 -0.40 -1.30    -0.776 OA
DOCKED: ATOM     41  H   UNL d   1      46.544  27.048  20.760 +0.03 +0.17    +0.167 HD
DOCKED: ENDBRANCH  38  40
DOCKED: ENDBRANCH  37  38
DOCKED: ENDBRANCH  36  37
DOCKED: ENDBRANCH  22  36
DOCKED: BRANCH  12  42
DOCKED: ATOM     42  C   UNL d   1      36.192  27.999  11.853 -0.69 +0.00    +0.004 C 
DOCKED: ATOM     43  C   UNL d   1      35.320  28.988  12.088 -0.64 +0.00    +0.012 C 
DOCKED: ENDBRANCH  12  42
DOCKED: BRANCH  17  44
DOCKED: ATOM     44  C   UNL d   1      39.152  34.112  16.044 -0.52 +0.00    +0.004 C 
DOCKED: ATOM     45  C   UNL d   1      39.408  35.118  15.201 -0.59 +0.00    +0.012 C 
DOCKED: ENDBRANCH  17  44
DOCKED: TORSDOF 10
DOCKED: TER
DOCKED: ENDMDL
________________________________________________________________________________


	BEGINNING GENETIC ALGORITHM DOCKING 47 of 100
Run: 47 Seed: 2007254210 1135625577 [ Run 47 of 100 GA/GALS ]
Beginning LAMARCKIAN GENETIC ALGORITHM (LGA), with a maximum of 25000000 energy evaluations.

Final-Value: -17.136


	FINAL GENETIC ALGORITHM DOCKED STATE
	_______________________________________________


Detailed state:  trans 41.276 28.631 16.547 quatxyzw 0.132302 0.929469 0.085060 -0.333688 center -0.174 -0.001 -0.047 ntor 10 -180.0000 -32.1508 82.7338 -117.9636 -6.1352 17.8416 -40.4015 -47.6709 -54.2048 5.3516
State:	 41.276  28.631  16.547   0.140  0.986  0.090 -141.014   -180.00  -32.15   82.73 -117.96   -6.14   17.84  -40.40  -47.67  -54.20    5.35

DOCKED: MODEL       47
DOCKED: USER    Run = 47
DOCKED: USER    DPF = D:/Protein_go_brrr/autodock/final/6BB5/heme_Fe/dock.dpf
DOCKED: USER  
DOCKED: USER    Estimated Free Energy of Binding    =  -12.68 kcal/mol  [=(1)+(2)+(3)-(4)]
DOCKED: USER    Estimated Inhibition Constant, Ki   =  509.00 pM (picomolar)  [Temperature = 298.15 K]
DOCKED: USER    
DOCKED: USER    (1) Final Intermolecular Energy     =  -15.66 kcal/mol
DOCKED: USER        vdW + Hbond + desolv Energy     =  -13.65 kcal/mol
DOCKED: USER        Electrostatic Energy            =   -2.01 kcal/mol
DOCKED: USER    (2) Final Total Internal Energy     =   -1.48 kcal/mol
DOCKED: USER    (3) Torsional Free Energy           =   +2.98 kcal/mol
DOCKED: USER    (4) Unbound System's Energy  [=(2)] =   -1.48 kcal/mol
DOCKED: USER    
DOCKED: USER    
DOCKED: USER    NEWDPF move heme_Fe_opt.pdbqt
DOCKED: USER    NEWDPF about -0.174000 -0.001000 -0.047000
DOCKED: USER    NEWDPF tran0 41.276439 28.631217 16.547238
DOCKED: USER    NEWDPF quaternion0 0.132302 0.929469 0.085060 -0.333688
DOCKED: USER    NEWDPF axisangle0 0.140346 0.985982 0.090231 -141.014430
DOCKED: USER    NEWDPF quat0 0.140346 0.985982 0.090231 -141.014430
DOCKED: USER    NEWDPF dihe0 -180.00 -32.15 82.73 -117.96 -6.14 17.84 -40.40 -47.67 -54.20 5.35 
DOCKED: USER  keepresnum = 1 
DOCKED: USER  
DOCKED: REMARK  10 active torsions:
DOCKED: REMARK  status: ('A' for Active; 'I' for Inactive)
DOCKED: REMARK    1  A    between atoms: C_6  and  C_10 
DOCKED: REMARK    2  A    between atoms: C_10  and  C_11 
DOCKED: REMARK    3  A    between atoms: C_11  and  C_12 
DOCKED: REMARK    4  A    between atoms: C_12  and  O_14 
DOCKED: REMARK    5  A    between atoms: C_17  and  C_20 
DOCKED: REMARK    6  A    between atoms: C_24  and  C_27 
DOCKED: REMARK    7  A    between atoms: C_31  and  C_34 
DOCKED: REMARK    8  A    between atoms: C_34  and  C_35 
DOCKED: REMARK    9  A    between atoms: C_35  and  C_36 
DOCKED: REMARK   10  A    between atoms: C_36  and  O_38 
DOCKED: USER                              x       y       z     vdW  Elec       q    Type
DOCKED: USER                           _______ _______ _______ _____ _____    ______ ____
DOCKED: ROOT
DOCKED: ATOM      1  C   UNL d   1      43.078  28.013  17.311 -0.18 +0.02    +0.064 C 
DOCKED: ATOM      2  C   UNL d   1      39.613  25.944  14.457 -0.40 +0.01    +0.064 A 
DOCKED: ATOM      3  C   UNL d   1      37.719  30.296  13.721 -0.39 +0.01    +0.064 C 
DOCKED: ATOM      4  C   UNL d   1      41.000  32.305  16.565 -0.49 +0.01    +0.064 C 
DOCKED: ATOM      5  C   UNL d   1      42.229  27.017  16.643 -0.28 +0.02    +0.066 A 
DOCKED: ATOM      6  C   UNL d   1      42.403  25.645  16.728 -0.34 -0.00    -0.021 A 
DOCKED: ATOM      7  C   UNL d   1      41.443  25.071  15.932 -0.39 -0.00    -0.025 A 
DOCKED: ATOM      8  C   UNL d   1      40.718  26.116  15.392 -0.39 +0.01    +0.066 A 
DOCKED: ATOM      9  C   UNL d   1      41.230  23.603  15.724 -0.51 +0.01    +0.051 C 
DOCKED: ATOM     10  C   UNL d   1      38.862  26.931  13.966 -0.36 +0.01    +0.066 A 
DOCKED: ATOM     11  C   UNL d   1      37.885  26.747  12.984 -0.44 -0.00    -0.021 A 
DOCKED: ATOM     12  C   UNL d   1      37.335  27.990  12.742 -0.50 +0.00    +0.000 A 
DOCKED: ATOM     13  C   UNL d   1      38.017  28.878  13.591 -0.33 +0.01    +0.070 A 
DOCKED: ATOM     14  C   UNL d   1      37.539  25.460  12.262 -0.23 +0.01    +0.052 C 
DOCKED: ATOM     15  C   UNL d   1      38.407  31.165  14.499 -0.36 +0.01    +0.066 A 
DOCKED: ATOM     16  C   UNL d   1      38.029  32.491  14.672 -0.38 -0.00    -0.021 A 
DOCKED: ATOM     17  C   UNL d   1      38.975  33.073  15.489 -0.41 +0.00    +0.000 A 
DOCKED: ATOM     18  C   UNL d   1      39.913  32.088  15.792 -0.37 +0.01    +0.070 A 
DOCKED: ATOM     19  C   UNL d   1      36.839  33.192  14.074 -0.43 +0.00    +0.052 C 
DOCKED: ATOM     20  C   UNL d   1      41.974  31.279  16.955 -0.37 +0.01    +0.066 A 
DOCKED: ATOM     21  C   UNL d   1      43.203  31.526  17.583 -0.28 -0.00    -0.025 A 
DOCKED: ATOM     22  C   UNL d   1      43.772  30.288  17.798 -0.29 -0.01    -0.021 A 
DOCKED: ATOM     23  C   UNL d   1      42.877  29.340  17.289 -0.24 +0.02    +0.066 A 
DOCKED: ATOM     24  C   UNL d   1      43.819  32.853  17.962 -0.33 +0.01    +0.051 C 
DOCKED: ATOM     25  N   UNL d   1      41.193  27.298  15.834 -0.24 -0.05    -0.248 N 
DOCKED: ATOM     26  N   UNL d   1      38.954  28.235  14.331 -0.04 -0.07    -0.248 N 
DOCKED: ATOM     27  N   UNL d   1      39.541  30.904  15.219 -0.19 -0.05    -0.248 N 
DOCKED: ATOM     28  N   UNL d   1      41.802  29.953  16.736 -0.23 -0.05    -0.248 N 
DOCKED: ATOM     29 FE   UNL d   1      40.378  29.096  15.534 -0.09 +0.00    +0.000 Fe
DOCKED: ENDROOT
DOCKED: BRANCH   6  30
DOCKED: ATOM     30  C   UNL d   1      43.416  24.913  17.539 -0.30 +0.02    +0.052 C 
DOCKED: BRANCH  30  31
DOCKED: ATOM     31  C   UNL d   1      43.679  25.636  18.856 -0.24 +0.05    +0.115 C 
DOCKED: BRANCH  31  32
DOCKED: ATOM     32  C   UNL d   1      43.814  24.648  19.981 -0.26 +0.07    +0.139 C 
DOCKED: ATOM     33  O   UNL d   1      43.601  23.459  19.795 -0.27 -0.27    -0.650 OA
DOCKED: BRANCH  32  34
DOCKED: ATOM     34  O   UNL d   1      44.172  25.067  21.207 +0.04 -0.59    -0.776 OA
DOCKED: ATOM     35  H   UNL d   1      44.341  26.009  21.351 +0.05 +0.20    +0.167 HD
DOCKED: ENDBRANCH  32  34
DOCKED: ENDBRANCH  31  32
DOCKED: ENDBRANCH  30  31
DOCKED: ENDBRANCH   6  30
DOCKED: BRANCH  22  36
DOCKED: ATOM     36  C   UNL d   1      45.124  30.036  18.413 -0.24 +0.02    +0.052 C 
DOCKED: BRANCH  36  37
DOCKED: ATOM     37  C   UNL d   1      44.955  29.594  19.859 -0.16 +0.08    +0.115 C 
DOCKED: BRANCH  37  38
DOCKED: ATOM     38  C   UNL d   1      45.774  28.367  20.146 -0.15 +0.13    +0.139 C 
DOCKED: ATOM     39  O   UNL d   1      46.690  28.039  19.406 +0.01 -0.38    -0.650 OA
DOCKED: BRANCH  38  40
DOCKED: ATOM     40  O   UNL d   1      45.499  27.614  21.226 -0.18 -1.48    -0.776 OA
DOCKED: ATOM     41  H   UNL d   1      45.648  26.660  21.184 +0.03 +0.23    +0.167 HD
DOCKED: ENDBRANCH  38  40
DOCKED: ENDBRANCH  37  38
DOCKED: ENDBRANCH  36  37
DOCKED: ENDBRANCH  22  36
DOCKED: BRANCH  12  42
DOCKED: ATOM     42  C   UNL d   1      36.251  28.268  11.750 -0.69 +0.00    +0.004 C 
DOCKED: ATOM     43  C   UNL d   1      35.166  28.974  12.094 -0.62 +0.00    +0.012 C 
DOCKED: ENDBRANCH  12  42
DOCKED: BRANCH  17  44
DOCKED: ATOM     44  C   UNL d   1      38.972  34.475  15.966 -0.58 +0.00    +0.004 C 
DOCKED: ATOM     45  C   UNL d   1      39.088  35.491  15.105 -0.62 +0.00    +0.012 C 
DOCKED: ENDBRANCH  17  44
DOCKED: TORSDOF 10
DOCKED: TER
DOCKED: ENDMDL
________________________________________________________________________________


	BEGINNING GENETIC ALGORITHM DOCKING 48 of 100
Run: 48 Seed: 812453147 1391168806 [ Run 48 of 100 GA/GALS ]
Beginning LAMARCKIAN GENETIC ALGORITHM (LGA), with a maximum of 25000000 energy evaluations.

Final-Value: -16.456


	FINAL GENETIC ALGORITHM DOCKED STATE
	_______________________________________________


Detailed state:  trans 41.656 28.929 15.992 quatxyzw -0.253381 -0.066116 0.958848 -0.109714 center -0.174 -0.001 -0.047 ntor 10 27.7280 -123.4126 66.1154 -127.1816 -90.0061 164.3004 55.6588 61.1188 -26.4103 -179.9951
State:	 41.656  28.929  15.992  -0.255 -0.067  0.965 -167.402     27.73 -123.41   66.12 -127.18  -90.01  164.30   55.66   61.12  -26.41 -180.00

DOCKED: MODEL       48
DOCKED: USER    Run = 48
DOCKED: USER    DPF = D:/Protein_go_brrr/autodock/final/6BB5/heme_Fe/dock.dpf
DOCKED: USER  
DOCKED: USER    Estimated Free Energy of Binding    =  -11.77 kcal/mol  [=(1)+(2)+(3)-(4)]
DOCKED: USER    Estimated Inhibition Constant, Ki   =    2.34 nM (nanomolar)  [Temperature = 298.15 K]
DOCKED: USER    
DOCKED: USER    (1) Final Intermolecular Energy     =  -14.76 kcal/mol
DOCKED: USER        vdW + Hbond + desolv Energy     =  -13.02 kcal/mol
DOCKED: USER        Electrostatic Energy            =   -1.73 kcal/mol
DOCKED: USER    (2) Final Total Internal Energy     =   -1.70 kcal/mol
DOCKED: USER    (3) Torsional Free Energy           =   +2.98 kcal/mol
DOCKED: USER    (4) Unbound System's Energy  [=(2)] =   -1.70 kcal/mol
DOCKED: USER    
DOCKED: USER    
DOCKED: USER    NEWDPF move heme_Fe_opt.pdbqt
DOCKED: USER    NEWDPF about -0.174000 -0.001000 -0.047000
DOCKED: USER    NEWDPF tran0 41.656477 28.928827 15.991860
DOCKED: USER    NEWDPF quaternion0 -0.253381 -0.066116 0.958848 -0.109714
DOCKED: USER    NEWDPF axisangle0 -0.254920 -0.066518 0.964671 -167.402352
DOCKED: USER    NEWDPF quat0 -0.254920 -0.066518 0.964671 -167.402352
DOCKED: USER    NEWDPF dihe0 27.73 -123.41 66.12 -127.18 -90.01 164.30 55.66 61.12 -26.41 -180.00 
DOCKED: USER  keepresnum = 1 
DOCKED: USER  
DOCKED: REMARK  10 active torsions:
DOCKED: REMARK  status: ('A' for Active; 'I' for Inactive)
DOCKED: REMARK    1  A    between atoms: C_6  and  C_10 
DOCKED: REMARK    2  A    between atoms: C_10  and  C_11 
DOCKED: REMARK    3  A    between atoms: C_11  and  C_12 
DOCKED: REMARK    4  A    between atoms: C_12  and  O_14 
DOCKED: REMARK    5  A    between atoms: C_17  and  C_20 
DOCKED: REMARK    6  A    between atoms: C_24  and  C_27 
DOCKED: REMARK    7  A    between atoms: C_31  and  C_34 
DOCKED: REMARK    8  A    between atoms: C_34  and  C_35 
DOCKED: REMARK    9  A    between atoms: C_35  and  C_36 
DOCKED: REMARK   10  A    between atoms: C_36  and  O_38 
DOCKED: USER                              x       y       z     vdW  Elec       q    Type
DOCKED: USER                           _______ _______ _______ _____ _____    ______ ____
DOCKED: ROOT
DOCKED: ATOM      1  C   UNL d   1      43.080  28.465  17.396 -0.10 +0.02    +0.064 C 
DOCKED: ATOM      2  C   UNL d   1      40.670  32.585  16.113 -0.41 +0.01    +0.064 A 
DOCKED: ATOM      3  C   UNL d   1      37.529  29.903  13.661 -0.27 +0.01    +0.064 C 
DOCKED: ATOM      4  C   UNL d   1      39.907  25.912  14.804 -0.44 +0.01    +0.064 C 
DOCKED: ATOM      5  C   UNL d   1      42.741  29.880  17.193 -0.29 +0.02    +0.066 A 
DOCKED: ATOM      6  C   UNL d   1      43.490  30.947  17.660 -0.29 -0.00    -0.021 A 
DOCKED: ATOM      7  C   UNL d   1      42.818  32.091  17.307 -0.33 -0.00    -0.025 A 
DOCKED: ATOM      8  C   UNL d   1      41.683  31.678  16.636 -0.38 +0.01    +0.066 A 
DOCKED: ATOM      9  C   UNL d   1      43.259  33.496  17.584 -0.18 +0.01    +0.051 C 
DOCKED: ATOM     10  C   UNL d   1      39.596  32.216  15.413 -0.37 +0.01    +0.066 A 
DOCKED: ATOM     11  C   UNL d   1      38.584  33.097  15.024 -0.40 -0.00    -0.021 A 
DOCKED: ATOM     12  C   UNL d   1      37.657  32.344  14.330 -0.38 +0.00    +0.000 A 
DOCKED: ATOM     13  C   UNL d   1      38.153  31.029  14.338 -0.33 +0.01    +0.070 A 
DOCKED: ATOM     14  C   UNL d   1      38.470  34.570  15.357 -0.54 +0.00    +0.052 C 
DOCKED: ATOM     15  C   UNL d   1      37.975  28.625  13.710 -0.34 +0.01    +0.066 A 
DOCKED: ATOM     16  C   UNL d   1      37.409  27.596  12.969 -0.46 -0.00    -0.021 A 
DOCKED: ATOM     17  C   UNL d   1      38.091  26.443  13.299 -0.45 +0.00    +0.000 A 
DOCKED: ATOM     18  C   UNL d   1      39.056  26.796  14.239 -0.36 +0.01    +0.070 A 
DOCKED: ATOM     19  C   UNL d   1      36.255  27.684  12.006 -0.64 +0.01    +0.052 C 
DOCKED: ATOM     20  C   UNL d   1      40.975  26.257  15.749 -0.39 +0.01    +0.066 A 
DOCKED: ATOM     21  C   UNL d   1      41.729  25.336  16.491 -0.37 -0.00    -0.025 A 
DOCKED: ATOM     22  C   UNL d   1      42.636  26.085  17.213 -0.28 -0.01    -0.021 A 
DOCKED: ATOM     23  C   UNL d   1      42.396  27.426  16.890 +0.08 +0.02    +0.066 A 
DOCKED: ATOM     24  C   UNL d   1      41.608  23.830  16.528 -0.46 +0.01    +0.051 C 
DOCKED: ATOM     25  N   UNL d   1      41.644  30.332  16.560 -0.20 -0.05    -0.248 N 
DOCKED: ATOM     26  N   UNL d   1      39.330  30.948  15.006 -0.19 -0.04    -0.248 N 
DOCKED: ATOM     27  N   UNL d   1      39.015  28.145  14.460 -0.09 -0.07    -0.248 N 
DOCKED: ATOM     28  N   UNL d   1      41.353  27.527  16.031 -0.25 -0.06    -0.248 N 
DOCKED: ATOM     29 FE   UNL d   1      40.341  29.236  15.518 -0.09 +0.00    +0.000 Fe
DOCKED: ENDROOT
DOCKED: BRANCH   6  30
DOCKED: ATOM     30  C   UNL d   1      44.790  30.887  18.387 -0.27 +0.02    +0.052 C 
DOCKED: BRANCH  30  31
DOCKED: ATOM     31  C   UNL d   1      45.870  30.262  17.511 -0.14 +0.03    +0.115 C 
DOCKED: BRANCH  31  32
DOCKED: ATOM     32  C   UNL d   1      46.493  29.082  18.204 -0.12 +0.05    +0.139 C 
DOCKED: ATOM     33  O   UNL d   1      47.470  29.227  18.924 +0.02 -0.26    -0.650 OA
DOCKED: BRANCH  32  34
DOCKED: ATOM     34  O   UNL d   1      45.977  27.853  18.036 +0.07 -0.32    -0.776 OA
DOCKED: ATOM     35  H   UNL d   1      46.086  27.198  18.741 +0.05 +0.08    +0.167 HD
DOCKED: ENDBRANCH  32  34
DOCKED: ENDBRANCH  31  32
DOCKED: ENDBRANCH  30  31
DOCKED: ENDBRANCH   6  30
DOCKED: BRANCH  22  36
DOCKED: ATOM     36  C   UNL d   1      43.641  25.542  18.194 -0.27 +0.02    +0.052 C 
DOCKED: BRANCH  36  37
DOCKED: ATOM     37  C   UNL d   1      42.976  25.329  19.546 -0.29 +0.05    +0.115 C 
DOCKED: BRANCH  37  38
DOCKED: ATOM     38  C   UNL d   1      43.638  26.158  20.609 -0.26 +0.11    +0.139 C 
DOCKED: ATOM     39  O   UNL d   1      43.089  26.351  21.684 -0.41 -0.81    -0.650 OA
DOCKED: BRANCH  38  40
DOCKED: ATOM     40  O   UNL d   1      44.848  26.700  20.381 +0.02 -0.74    -0.776 OA
DOCKED: ATOM     41  H   UNL d   1      44.967  27.277  19.614 +0.06 +0.12    +0.167 HD
DOCKED: ENDBRANCH  38  40
DOCKED: ENDBRANCH  37  38
DOCKED: ENDBRANCH  36  37
DOCKED: ENDBRANCH  22  36
DOCKED: BRANCH  12  42
DOCKED: ATOM     42  C   UNL d   1      36.394  32.879  13.734 -0.43 +0.00    +0.004 C 
DOCKED: ATOM     43  C   UNL d   1      36.213  32.900  12.407 -0.58 +0.00    +0.012 C 
DOCKED: ENDBRANCH  12  42
DOCKED: BRANCH  17  44
DOCKED: ATOM     44  C   UNL d   1      37.848  25.095  12.737 -0.59 +0.00    +0.004 C 
DOCKED: ATOM     45  C   UNL d   1      36.767  24.391  13.088 -0.67 +0.00    +0.012 C 
DOCKED: ENDBRANCH  17  44
DOCKED: TORSDOF 10
DOCKED: TER
DOCKED: ENDMDL
________________________________________________________________________________


	BEGINNING GENETIC ALGORITHM DOCKING 49 of 100
Run: 49 Seed: 1075350820 267496560 [ Run 49 of 100 GA/GALS ]
Beginning LAMARCKIAN GENETIC ALGORITHM (LGA), with a maximum of 25000000 energy evaluations.

Final-Value: -13.765


	FINAL GENETIC ALGORITHM DOCKED STATE
	_______________________________________________


Detailed state:  trans 8.257 33.615 0.307 quatxyzw 0.401749 -0.136811 -0.405990 0.809353 center -0.174 -0.001 -0.047 ntor 10 -163.7713 -11.5275 -109.8698 63.7683 -128.2485 -11.5613 -83.7172 65.7827 13.3012 -33.9012
State:	  8.257  33.615   0.307   0.684 -0.233 -0.691 71.934   -163.77  -11.53 -109.87   63.77 -128.25  -11.56  -83.72   65.78   13.30  -33.90

DOCKED: MODEL       49
DOCKED: USER    Run = 49
DOCKED: USER    DPF = D:/Protein_go_brrr/autodock/final/6BB5/heme_Fe/dock.dpf
DOCKED: USER  
DOCKED: USER    Estimated Free Energy of Binding    =  -10.17 kcal/mol  [=(1)+(2)+(3)-(4)]
DOCKED: USER    Estimated Inhibition Constant, Ki   =   35.00 nM (nanomolar)  [Temperature = 298.15 K]
DOCKED: USER    
DOCKED: USER    (1) Final Intermolecular Energy     =  -13.15 kcal/mol
DOCKED: USER        vdW + Hbond + desolv Energy     =  -12.85 kcal/mol
DOCKED: USER        Electrostatic Energy            =   -0.31 kcal/mol
DOCKED: USER    (2) Final Total Internal Energy     =   -0.61 kcal/mol
DOCKED: USER    (3) Torsional Free Energy           =   +2.98 kcal/mol
DOCKED: USER    (4) Unbound System's Energy  [=(2)] =   -0.61 kcal/mol
DOCKED: USER    
DOCKED: USER    
DOCKED: USER    NEWDPF move heme_Fe_opt.pdbqt
DOCKED: USER    NEWDPF about -0.174000 -0.001000 -0.047000
DOCKED: USER    NEWDPF tran0 8.256725 33.615417 0.306817
DOCKED: USER    NEWDPF quaternion0 0.401749 -0.136811 -0.405990 0.809353
DOCKED: USER    NEWDPF axisangle0 0.684035 -0.232940 -0.691256 71.934490
DOCKED: USER    NEWDPF quat0 0.684035 -0.232940 -0.691256 71.934490
DOCKED: USER    NEWDPF dihe0 -163.77 -11.53 -109.87 63.77 -128.25 -11.56 -83.72 65.78 13.30 -33.90 
DOCKED: USER  keepresnum = 1 
DOCKED: USER  
DOCKED: REMARK  10 active torsions:
DOCKED: REMARK  status: ('A' for Active; 'I' for Inactive)
DOCKED: REMARK    1  A    between atoms: C_6  and  C_10 
DOCKED: REMARK    2  A    between atoms: C_10  and  C_11 
DOCKED: REMARK    3  A    between atoms: C_11  and  C_12 
DOCKED: REMARK    4  A    between atoms: C_12  and  O_14 
DOCKED: REMARK    5  A    between atoms: C_17  and  C_20 
DOCKED: REMARK    6  A    between atoms: C_24  and  C_27 
DOCKED: REMARK    7  A    between atoms: C_31  and  C_34 
DOCKED: REMARK    8  A    between atoms: C_34  and  C_35 
DOCKED: REMARK    9  A    between atoms: C_35  and  C_36 
DOCKED: REMARK   10  A    between atoms: C_36  and  O_38 
DOCKED: USER                              x       y       z     vdW  Elec       q    Type
DOCKED: USER                           _______ _______ _______ _____ _____    ______ ____
DOCKED: ROOT
DOCKED: ATOM      1  C   UNL d   1       6.992  32.916   1.764 -0.44 +0.01    +0.064 C 
DOCKED: ATOM      2  C   UNL d   1      11.875  33.611   1.433 -0.27 +0.00    +0.064 A 
DOCKED: ATOM      3  C   UNL d   1      11.154  36.323  -2.465 -0.46 +0.00    +0.064 C 
DOCKED: ATOM      4  C   UNL d   1       6.435  35.577  -2.224 -0.25 +0.01    +0.064 C 
DOCKED: ATOM      5  C   UNL d   1       8.440  32.791   1.983 -0.33 +0.01    +0.066 A 
DOCKED: ATOM      6  C   UNL d   1       9.027  31.995   2.952 -0.43 -0.00    -0.021 A 
DOCKED: ATOM      7  C   UNL d   1      10.383  32.192   2.862 -0.40 -0.00    -0.025 A 
DOCKED: ATOM      8  C   UNL d   1      10.571  33.101   1.840 -0.35 +0.00    +0.066 A 
DOCKED: ATOM      9  C   UNL d   1      11.430  31.524   3.701 -0.41 +0.00    +0.051 C 
DOCKED: ATOM     10  C   UNL d   1      12.089  34.445   0.413 -0.35 +0.00    +0.066 A 
DOCKED: ATOM     11  C   UNL d   1      13.334  35.005   0.119 -0.42 -0.00    -0.021 A 
DOCKED: ATOM     12  C   UNL d   1      13.150  35.805  -0.991 -0.45 +0.00    +0.000 A 
DOCKED: ATOM     13  C   UNL d   1      11.786  35.696  -1.315 -0.37 +0.00    +0.070 A 
DOCKED: ATOM     14  C   UNL d   1      14.623  34.841   0.899 -0.55 +0.00    +0.052 C 
DOCKED: ATOM     15  C   UNL d   1       9.833  36.264  -2.752 -0.40 +0.00    +0.066 A 
DOCKED: ATOM     16  C   UNL d   1       9.284  36.793  -3.913 -0.34 +0.00    -0.021 A 
DOCKED: ATOM     17  C   UNL d   1       7.922  36.582  -3.844 -0.22 +0.00    +0.000 A 
DOCKED: ATOM     18  C   UNL d   1       7.671  35.932  -2.638 -0.32 +0.01    +0.070 A 
DOCKED: ATOM     19  C   UNL d   1      10.005  37.492  -5.034 -0.41 -0.01    +0.052 C 
DOCKED: ATOM     20  C   UNL d   1       6.140  34.838  -0.991 -0.19 +0.01    +0.066 A 
DOCKED: ATOM     21  C   UNL d   1       4.860  34.640  -0.453 -0.21 -0.00    -0.025 A 
DOCKED: ATOM     22  C   UNL d   1       5.041  33.868   0.677 -0.33 -0.00    -0.021 A 
DOCKED: ATOM     23  C   UNL d   1       6.417  33.633   0.785 -0.34 +0.01    +0.066 A 
DOCKED: ATOM     24  C   UNL d   1       3.532  35.149  -0.963 -0.21 +0.01    +0.051 C 
DOCKED: ATOM     25  N   UNL d   1       9.388  33.457   1.301 -0.11 -0.03    -0.248 N 
DOCKED: ATOM     26  N   UNL d   1      11.138  34.874  -0.454 -0.18 -0.04    -0.248 N 
DOCKED: ATOM     27  N   UNL d   1       8.850  35.697  -1.986 -0.26 -0.03    -0.248 N 
DOCKED: ATOM     28  N   UNL d   1       7.086  34.264  -0.210 -0.20 -0.04    -0.248 N 
DOCKED: ATOM     29 FE   UNL d   1       9.110  34.570  -0.333 -0.07 +0.00    +0.000 Fe
DOCKED: ENDROOT
DOCKED: BRANCH   6  30
DOCKED: ATOM     30  C   UNL d   1       8.339  31.076   3.903 -0.51 +0.00    +0.052 C 
DOCKED: BRANCH  30  31
DOCKED: ATOM     31  C   UNL d   1       8.475  29.627   3.449 -0.49 +0.00    +0.115 C 
DOCKED: BRANCH  31  32
DOCKED: ATOM     32  C   UNL d   1       9.623  28.960   4.154 -0.48 +0.00    +0.139 C 
DOCKED: ATOM     33  O   UNL d   1      10.484  28.367   3.520 +0.04 -0.01    -0.650 OA
DOCKED: BRANCH  32  34
DOCKED: ATOM     34  O   UNL d   1       9.712  29.010   5.494 +0.11 +0.00    -0.776 OA
DOCKED: ATOM     35  H   UNL d   1       8.932  29.262   6.007 +0.09 -0.01    +0.167 HD
DOCKED: ENDBRANCH  32  34
DOCKED: ENDBRANCH  31  32
DOCKED: ENDBRANCH  30  31
DOCKED: ENDBRANCH   6  30
DOCKED: BRANCH  22  36
DOCKED: ATOM     36  C   UNL d   1       3.957  33.426   1.623 -0.36 +0.01    +0.052 C 
DOCKED: BRANCH  36  37
DOCKED: ATOM     37  C   UNL d   1       2.974  32.523   0.891 -0.18 +0.01    +0.115 C 
DOCKED: BRANCH  37  38
DOCKED: ATOM     38  C   UNL d   1       1.616  33.159   0.810 -0.14 +0.02    +0.139 C 
DOCKED: ATOM     39  O   UNL d   1       1.351  34.154   1.469 -0.01 -0.20    -0.650 OA
DOCKED: BRANCH  38  40
DOCKED: ATOM     40  O   UNL d   1       0.674  32.631   0.009 +0.05 -0.09    -0.776 OA
DOCKED: ATOM     41  H   UNL d   1      -0.240  32.938   0.091 +0.02 +0.02    +0.167 HD
DOCKED: ENDBRANCH  38  40
DOCKED: ENDBRANCH  37  38
DOCKED: ENDBRANCH  36  37
DOCKED: ENDBRANCH  22  36
DOCKED: BRANCH  12  42
DOCKED: ATOM     42  C   UNL d   1      14.222  36.612  -1.652 -0.63 +0.00    +0.004 C 
DOCKED: ATOM     43  C   UNL d   1      14.852  37.592  -0.991 -0.58 +0.00    +0.012 C 
DOCKED: ENDBRANCH  12  42
DOCKED: BRANCH  17  44
DOCKED: ATOM     44  C   UNL d   1       6.929  36.959  -4.875 -0.26 +0.00    +0.004 C 
DOCKED: ATOM     45  C   UNL d   1       6.198  36.027  -5.495 -0.25 +0.00    +0.012 C 
DOCKED: ENDBRANCH  17  44
DOCKED: TORSDOF 10
DOCKED: TER
DOCKED: ENDMDL
________________________________________________________________________________


	BEGINNING GENETIC ALGORITHM DOCKING 50 of 100
Run: 50 Seed: 635884299 783339881 [ Run 50 of 100 GA/GALS ]
Beginning LAMARCKIAN GENETIC ALGORITHM (LGA), with a maximum of 25000000 energy evaluations.

Final-Value: -16.012


	FINAL GENETIC ALGORITHM DOCKED STATE
	_______________________________________________


Detailed state:  trans 41.430 28.574 16.627 quatxyzw 0.128763 0.937403 0.088607 -0.311198 center -0.174 -0.001 -0.047 ntor 10 133.3856 -50.3098 2.3507 -118.5566 -59.5091 9.6601 -65.6781 8.8521 -22.4018 24.9266
State:	 41.430  28.574  16.627   0.135  0.986  0.093 -143.737    133.39  -50.31    2.35 -118.56  -59.51    9.66  -65.68    8.85  -22.40   24.93

DOCKED: MODEL       50
DOCKED: USER    Run = 50
DOCKED: USER    DPF = D:/Protein_go_brrr/autodock/final/6BB5/heme_Fe/dock.dpf
DOCKED: USER  
DOCKED: USER    Estimated Free Energy of Binding    =  -12.52 kcal/mol  [=(1)+(2)+(3)-(4)]
DOCKED: USER    Estimated Inhibition Constant, Ki   =  660.67 pM (picomolar)  [Temperature = 298.15 K]
DOCKED: USER    
DOCKED: USER    (1) Final Intermolecular Energy     =  -15.51 kcal/mol
DOCKED: USER        vdW + Hbond + desolv Energy     =  -14.09 kcal/mol
DOCKED: USER        Electrostatic Energy            =   -1.42 kcal/mol
DOCKED: USER    (2) Final Total Internal Energy     =   -0.51 kcal/mol
DOCKED: USER    (3) Torsional Free Energy           =   +2.98 kcal/mol
DOCKED: USER    (4) Unbound System's Energy  [=(2)] =   -0.51 kcal/mol
DOCKED: USER    
DOCKED: USER    
DOCKED: USER    NEWDPF move heme_Fe_opt.pdbqt
DOCKED: USER    NEWDPF about -0.174000 -0.001000 -0.047000
DOCKED: USER    NEWDPF tran0 41.430327 28.574040 16.627182
DOCKED: USER    NEWDPF quaternion0 0.128763 0.937403 0.088607 -0.311198
DOCKED: USER    NEWDPF axisangle0 0.135491 0.986382 0.093237 -143.737173
DOCKED: USER    NEWDPF quat0 0.135491 0.986382 0.093237 -143.737173
DOCKED: USER    NEWDPF dihe0 133.39 -50.31 2.35 -118.56 -59.51 9.66 -65.68 8.85 -22.40 24.93 
DOCKED: USER  keepresnum = 1 
DOCKED: USER  
DOCKED: REMARK  10 active torsions:
DOCKED: REMARK  status: ('A' for Active; 'I' for Inactive)
DOCKED: REMARK    1  A    between atoms: C_6  and  C_10 
DOCKED: REMARK    2  A    between atoms: C_10  and  C_11 
DOCKED: REMARK    3  A    between atoms: C_11  and  C_12 
DOCKED: REMARK    4  A    between atoms: C_12  and  O_14 
DOCKED: REMARK    5  A    between atoms: C_17  and  C_20 
DOCKED: REMARK    6  A    between atoms: C_24  and  C_27 
DOCKED: REMARK    7  A    between atoms: C_31  and  C_34 
DOCKED: REMARK    8  A    between atoms: C_34  and  C_35 
DOCKED: REMARK    9  A    between atoms: C_35  and  C_36 
DOCKED: REMARK   10  A    between atoms: C_36  and  O_38 
DOCKED: USER                              x       y       z     vdW  Elec       q    Type
DOCKED: USER                           _______ _______ _______ _____ _____    ______ ____
DOCKED: ROOT
DOCKED: ATOM      1  C   UNL d   1      43.273  27.976  17.303 -0.23 +0.02    +0.064 C 
DOCKED: ATOM      2  C   UNL d   1      39.713  25.880  14.590 -0.40 +0.01    +0.064 A 
DOCKED: ATOM      3  C   UNL d   1      37.723  30.209  13.981 -0.36 +0.01    +0.064 C 
DOCKED: ATOM      4  C   UNL d   1      41.101  32.243  16.691 -0.48 +0.01    +0.064 C 
DOCKED: ATOM      5  C   UNL d   1      42.409  26.973  16.665 -0.28 +0.02    +0.066 A 
DOCKED: ATOM      6  C   UNL d   1      42.608  25.604  16.729 -0.33 -0.00    -0.021 A 
DOCKED: ATOM      7  C   UNL d   1      41.621  25.022  15.972 -0.39 -0.00    -0.025 A 
DOCKED: ATOM      8  C   UNL d   1      40.857  26.061  15.475 -0.39 +0.01    +0.066 A 
DOCKED: ATOM      9  C   UNL d   1      41.420  23.553  15.761 -0.50 +0.01    +0.051 C 
DOCKED: ATOM     10  C   UNL d   1      38.925  26.860  14.143 -0.37 +0.01    +0.066 A 
DOCKED: ATOM     11  C   UNL d   1      37.908  26.669  13.205 -0.43 -0.00    -0.021 A 
DOCKED: ATOM     12  C   UNL d   1      37.329  27.905  13.000 -0.48 +0.00    +0.000 A 
DOCKED: ATOM     13  C   UNL d   1      38.036  28.797  13.825 -0.32 +0.01    +0.070 A 
DOCKED: ATOM     14  C   UNL d   1      37.548  25.384  12.488 -0.40 +0.01    +0.052 C 
DOCKED: ATOM     15  C   UNL d   1      38.433  31.082  14.734 -0.35 +0.01    +0.066 A 
DOCKED: ATOM     16  C   UNL d   1      38.044  32.400  14.937 -0.37 -0.00    -0.021 A 
DOCKED: ATOM     17  C   UNL d   1      39.019  32.989  15.716 -0.39 +0.00    +0.000 A 
DOCKED: ATOM     18  C   UNL d   1      39.983  32.016  15.967 -0.37 +0.01    +0.070 A 
DOCKED: ATOM     19  C   UNL d   1      36.818  33.088  14.401 -0.39 +0.00    +0.052 C 
DOCKED: ATOM     20  C   UNL d   1      42.107  31.228  17.027 -0.37 +0.01    +0.066 A 
DOCKED: ATOM     21  C   UNL d   1      43.359  31.488  17.601 -0.25 -0.01    -0.025 A 
DOCKED: ATOM     22  C   UNL d   1      43.956  30.257  17.778 -0.28 -0.01    -0.021 A 
DOCKED: ATOM     23  C   UNL d   1      43.052  29.300  17.302 -0.26 +0.02    +0.066 A 
DOCKED: ATOM     24  C   UNL d   1      43.972  32.821  17.963 -0.30 +0.01    +0.051 C 
DOCKED: ATOM     25  N   UNL d   1      41.334  27.246  15.906 -0.25 -0.05    -0.248 N 
DOCKED: ATOM     26  N   UNL d   1      39.015  28.162  14.515 -0.09 -0.07    -0.248 N 
DOCKED: ATOM     27  N   UNL d   1      39.603  30.832  15.401 -0.20 -0.05    -0.248 N 
DOCKED: ATOM     28  N   UNL d   1      41.944  29.902  16.804 -0.22 -0.05    -0.248 N 
DOCKED: ATOM     29 FE   UNL d   1      40.480  29.034  15.660 -0.09 +0.00    +0.000 Fe
DOCKED: ENDROOT
DOCKED: BRANCH   6  30
DOCKED: ATOM     30  C   UNL d   1      43.667  24.880  17.487 -0.28 +0.02    +0.052 C 
DOCKED: BRANCH  30  31
DOCKED: ATOM     31  C   UNL d   1      43.463  25.042  18.989 -0.28 +0.04    +0.115 C 
DOCKED: BRANCH  31  32
DOCKED: ATOM     32  C   UNL d   1      43.134  23.718  19.621 -0.22 +0.05    +0.139 C 
DOCKED: ATOM     33  O   UNL d   1      42.146  23.088  19.270 -0.10 -0.15    -0.650 OA
DOCKED: BRANCH  32  34
DOCKED: ATOM     34  O   UNL d   1      43.926  23.214  20.582 -0.37 -0.40    -0.776 OA
DOCKED: ATOM     35  H   UNL d   1      44.884  23.215  20.449 +0.05 +0.08    +0.167 HD
DOCKED: ENDBRANCH  32  34
DOCKED: ENDBRANCH  31  32
DOCKED: ENDBRANCH  30  31
DOCKED: ENDBRANCH   6  30
DOCKED: BRANCH  22  36
DOCKED: ATOM     36  C   UNL d   1      45.338  30.021  18.329 -0.23 +0.02    +0.052 C 
DOCKED: BRANCH  36  37
DOCKED: ATOM     37  C   UNL d   1      45.255  29.129  19.559 -0.20 +0.07    +0.115 C 
DOCKED: BRANCH  37  38
DOCKED: ATOM     38  C   UNL d   1      46.588  29.032  20.245 -0.13 +0.11    +0.139 C 
DOCKED: ATOM     39  O   UNL d   1      47.516  29.755  19.914 +0.01 -0.31    -0.650 OA
DOCKED: BRANCH  38  40
DOCKED: ATOM     40  O   UNL d   1      46.770  28.138  21.234 -0.53 -1.02    -0.776 OA
DOCKED: ATOM     41  H   UNL d   1      47.534  27.546  21.197 +0.02 +0.15    +0.167 HD
DOCKED: ENDBRANCH  38  40
DOCKED: ENDBRANCH  37  38
DOCKED: ENDBRANCH  36  37
DOCKED: ENDBRANCH  22  36
DOCKED: BRANCH  12  42
DOCKED: ATOM     42  C   UNL d   1      36.197  28.176  12.060 -0.69 +0.00    +0.004 C 
DOCKED: ATOM     43  C   UNL d   1      35.086  27.428  12.086 -0.59 +0.00    +0.012 C 
DOCKED: ENDBRANCH  12  42
DOCKED: BRANCH  17  44
DOCKED: ATOM     44  C   UNL d   1      39.016  34.387  16.205 -0.37 +0.00    +0.004 C 
DOCKED: ATOM     45  C   UNL d   1      39.090  35.412  15.350 -0.62 +0.00    +0.012 C 
DOCKED: ENDBRANCH  17  44
DOCKED: TORSDOF 10
DOCKED: TER
DOCKED: ENDMDL
________________________________________________________________________________


	BEGINNING GENETIC ALGORITHM DOCKING 51 of 100
Run: 51 Seed: 1106452909 1050712812 [ Run 51 of 100 GA/GALS ]
Beginning LAMARCKIAN GENETIC ALGORITHM (LGA), with a maximum of 25000000 energy evaluations.

Final-Value: -11.808


	FINAL GENETIC ALGORITHM DOCKED STATE
	_______________________________________________


Detailed state:  trans 44.189 20.242 16.416 quatxyzw 0.548421 0.710172 0.413857 -0.153666 center -0.174 -0.001 -0.047 ntor 10 61.3565 -115.1301 -175.1253 32.8320 86.6992 -177.9721 -160.9213 -95.2767 178.4575 147.9306
State:	 44.189  20.242  16.416   0.555  0.719  0.419 -162.321     61.36 -115.13 -175.13   32.83   86.70 -177.97 -160.92  -95.28  178.46  147.93

DOCKED: MODEL       51
DOCKED: USER    Run = 51
DOCKED: USER    DPF = D:/Protein_go_brrr/autodock/final/6BB5/heme_Fe/dock.dpf
DOCKED: USER  
DOCKED: USER    Estimated Free Energy of Binding    =   -8.25 kcal/mol  [=(1)+(2)+(3)-(4)]
DOCKED: USER    Estimated Inhibition Constant, Ki   =  897.07 nM (nanomolar)  [Temperature = 298.15 K]
DOCKED: USER    
DOCKED: USER    (1) Final Intermolecular Energy     =  -11.23 kcal/mol
DOCKED: USER        vdW + Hbond + desolv Energy     =   -8.97 kcal/mol
DOCKED: USER        Electrostatic Energy            =   -2.26 kcal/mol
DOCKED: USER    (2) Final Total Internal Energy     =   -0.57 kcal/mol
DOCKED: USER    (3) Torsional Free Energy           =   +2.98 kcal/mol
DOCKED: USER    (4) Unbound System's Energy  [=(2)] =   -0.57 kcal/mol
DOCKED: USER    
DOCKED: USER    
DOCKED: USER    NEWDPF move heme_Fe_opt.pdbqt
DOCKED: USER    NEWDPF about -0.174000 -0.001000 -0.047000
DOCKED: USER    NEWDPF tran0 44.189469 20.241958 16.415777
DOCKED: USER    NEWDPF quaternion0 0.548421 0.710172 0.413857 -0.153666
DOCKED: USER    NEWDPF axisangle0 0.555012 0.718708 0.418832 -162.321121
DOCKED: USER    NEWDPF quat0 0.555012 0.718708 0.418832 -162.321121
DOCKED: USER    NEWDPF dihe0 61.36 -115.13 -175.13 32.83 86.70 -177.97 -160.92 -95.28 178.46 147.93 
DOCKED: USER  keepresnum = 1 
DOCKED: USER  
DOCKED: REMARK  10 active torsions:
DOCKED: REMARK  status: ('A' for Active; 'I' for Inactive)
DOCKED: REMARK    1  A    between atoms: C_6  and  C_10 
DOCKED: REMARK    2  A    between atoms: C_10  and  C_11 
DOCKED: REMARK    3  A    between atoms: C_11  and  C_12 
DOCKED: REMARK    4  A    between atoms: C_12  and  O_14 
DOCKED: REMARK    5  A    between atoms: C_17  and  C_20 
DOCKED: REMARK    6  A    between atoms: C_24  and  C_27 
DOCKED: REMARK    7  A    between atoms: C_31  and  C_34 
DOCKED: REMARK    8  A    between atoms: C_34  and  C_35 
DOCKED: REMARK    9  A    between atoms: C_35  and  C_36 
DOCKED: REMARK   10  A    between atoms: C_36  and  O_38 
DOCKED: USER                              x       y       z     vdW  Elec       q    Type
DOCKED: USER                           _______ _______ _______ _____ _____    ______ ____
DOCKED: ROOT
DOCKED: ATOM      1  C   UNL d   1      45.204  18.667  15.580 -0.14 +0.03    +0.064 C 
DOCKED: ATOM      2  C   UNL d   1      41.624  21.709  14.044 -0.36 +0.01    +0.064 A 
DOCKED: ATOM      3  C   UNL d   1      42.620  24.628  17.725 -0.37 +0.02    +0.064 C 
DOCKED: ATOM      4  C   UNL d   1      46.019  21.646  19.289 -0.06 +0.03    +0.064 C 
DOCKED: ATOM      5  C   UNL d   1      44.048  19.211  14.854 -0.18 +0.02    +0.066 A 
DOCKED: ATOM      6  C   UNL d   1      43.410  18.582  13.797 -0.20 -0.00    -0.021 A 
DOCKED: ATOM      7  C   UNL d   1      42.419  19.429  13.369 -0.36 -0.00    -0.025 A 
DOCKED: ATOM      8  C   UNL d   1      42.489  20.544  14.182 -0.30 +0.01    +0.066 A 
DOCKED: ATOM      9  C   UNL d   1      41.452  19.165  12.256 -0.31 +0.00    +0.051 C 
DOCKED: ATOM     10  C   UNL d   1      41.633  22.772  14.850 -0.36 +0.01    +0.066 A 
DOCKED: ATOM     11  C   UNL d   1      40.872  23.921  14.625 -0.51 -0.00    -0.021 A 
DOCKED: ATOM     12  C   UNL d   1      41.154  24.786  15.664 -0.43 +0.00    +0.000 A 
DOCKED: ATOM     13  C   UNL d   1      42.088  24.115  16.472 -0.35 +0.01    +0.070 A 
DOCKED: ATOM     14  C   UNL d   1      39.973  24.211  13.440 -0.46 +0.01    +0.052 C 
DOCKED: ATOM     15  C   UNL d   1      43.558  24.009  18.481 -0.27 +0.02    +0.066 A 
DOCKED: ATOM     16  C   UNL d   1      43.967  24.483  19.721 -0.26 -0.01    -0.021 A 
DOCKED: ATOM     17  C   UNL d   1      44.950  23.626  20.172 -0.19 +0.00    +0.000 A 
DOCKED: ATOM     18  C   UNL d   1      45.120  22.651  19.193 -0.05 +0.03    +0.070 A 
DOCKED: ATOM     19  C   UNL d   1      43.474  25.707  20.444 -0.32 +0.03    +0.052 C 
DOCKED: ATOM     20  C   UNL d   1      46.184  20.567  18.308 -0.14 +0.03    +0.066 A 
DOCKED: ATOM     21  C   UNL d   1      47.235  19.640  18.292 -0.10 -0.01    -0.025 A 
DOCKED: ATOM     22  C   UNL d   1      46.977  18.793  17.235 -0.08 -0.01    -0.021 A 
DOCKED: ATOM     23  C   UNL d   1      45.787  19.237  16.646 -0.13 +0.03    +0.066 A 
DOCKED: ATOM     24  C   UNL d   1      48.428  19.551  19.217 -0.05 +0.02    +0.051 C 
DOCKED: ATOM     25  N   UNL d   1      43.476  20.404  15.090 -0.17 -0.06    -0.248 N 
DOCKED: ATOM     26  N   UNL d   1      42.387  22.891  15.972 -0.21 -0.03    -0.248 N 
DOCKED: ATOM     27  N   UNL d   1      44.235  22.860  18.173 -0.13 -0.09    -0.248 N 
DOCKED: ATOM     28  N   UNL d   1      45.332  20.347  17.277 -0.11 -0.11    -0.248 N 
DOCKED: ATOM     29 FE   UNL d   1      43.861  21.619  16.626 -0.07 +0.00    +0.000 Fe
DOCKED: ENDROOT
DOCKED: BRANCH   6  30
DOCKED: ATOM     30  C   UNL d   1      43.712  17.235  13.235 -0.10 +0.01    +0.052 C 
DOCKED: BRANCH  30  31
DOCKED: ATOM     31  C   UNL d   1      44.705  17.340  12.083 -0.09 +0.04    +0.115 C 
DOCKED: BRANCH  31  32
DOCKED: ATOM     32  C   UNL d   1      45.439  18.651  12.139 -0.20 +0.07    +0.139 C 
DOCKED: ATOM     33  O   UNL d   1      46.452  18.771  12.813 +0.01 -0.40    -0.650 OA
DOCKED: BRANCH  32  34
DOCKED: ATOM     34  O   UNL d   1      44.984  19.709  11.446 -0.02 -0.36    -0.776 OA
DOCKED: ATOM     35  H   UNL d   1      45.544  20.097  10.760 -0.52 +0.08    +0.167 HD
DOCKED: ENDBRANCH  32  34
DOCKED: ENDBRANCH  31  32
DOCKED: ENDBRANCH  30  31
DOCKED: ENDBRANCH   6  30
DOCKED: BRANCH  22  36
DOCKED: ATOM     36  C   UNL d   1      47.851  17.651  16.788 -0.04 +0.03    +0.052 C 
DOCKED: BRANCH  36  37
DOCKED: ATOM     37  C   UNL d   1      48.396  17.937  15.396 -0.05 +0.09    +0.115 C 
DOCKED: BRANCH  37  38
DOCKED: ATOM     38  C   UNL d   1      49.626  18.797  15.466 +0.46 +0.20    +0.139 C 
DOCKED: ATOM     39  O   UNL d   1      50.190  19.165  14.446 -0.05 -1.09    -0.650 OA
DOCKED: BRANCH  38  40
DOCKED: ATOM     40  O   UNL d   1      50.119  19.168  16.661 -0.42 -1.04    -0.776 OA
DOCKED: ATOM     41  H   UNL d   1      50.463  18.489  17.258 +0.01 +0.12    +0.167 HD
DOCKED: ENDBRANCH  38  40
DOCKED: ENDBRANCH  37  38
DOCKED: ENDBRANCH  36  37
DOCKED: ENDBRANCH  22  36
DOCKED: BRANCH  12  42
DOCKED: ATOM     42  C   UNL d   1      40.567  26.152  15.824 -0.45 +0.00    +0.004 C 
DOCKED: ATOM     43  C   UNL d   1      41.352  27.223  16.002 -0.44 +0.00    +0.012 C 
DOCKED: ENDBRANCH  12  42
DOCKED: BRANCH  17  44
DOCKED: ATOM     44  C   UNL d   1      45.664  23.724  21.465 -0.17 +0.00    +0.004 C 
DOCKED: ATOM     45  C   UNL d   1      45.159  23.166  22.570 -0.22 +0.01    +0.012 C 
DOCKED: ENDBRANCH  17  44
DOCKED: TORSDOF 10
DOCKED: TER
DOCKED: ENDMDL
________________________________________________________________________________


	BEGINNING GENETIC ALGORITHM DOCKING 52 of 100
Run: 52 Seed: 982164164 1994142720 [ Run 52 of 100 GA/GALS ]
Beginning LAMARCKIAN GENETIC ALGORITHM (LGA), with a maximum of 25000000 energy evaluations.

Final-Value: -17.882


	FINAL GENETIC ALGORITHM DOCKED STATE
	_______________________________________________


Detailed state:  trans 41.658 28.078 15.682 quatxyzw -0.207381 -0.135586 0.940352 -0.233128 center -0.174 -0.001 -0.047 ntor 10 16.7931 58.7222 66.4894 -159.4162 -170.8876 -75.4529 -78.6799 59.4852 169.3313 -175.5738
State:	 41.658  28.078  15.682  -0.213 -0.139  0.967 -153.037     16.79   58.72   66.49 -159.42 -170.89  -75.45  -78.68   59.49  169.33 -175.57

DOCKED: MODEL       52
DOCKED: USER    Run = 52
DOCKED: USER    DPF = D:/Protein_go_brrr/autodock/final/6BB5/heme_Fe/dock.dpf
DOCKED: USER  
DOCKED: USER    Estimated Free Energy of Binding    =  -12.39 kcal/mol  [=(1)+(2)+(3)-(4)]
DOCKED: USER    Estimated Inhibition Constant, Ki   =  821.23 pM (picomolar)  [Temperature = 298.15 K]
DOCKED: USER    
DOCKED: USER    (1) Final Intermolecular Energy     =  -15.38 kcal/mol
DOCKED: USER        vdW + Hbond + desolv Energy     =  -13.63 kcal/mol
DOCKED: USER        Electrostatic Energy            =   -1.75 kcal/mol
DOCKED: USER    (2) Final Total Internal Energy     =   -2.50 kcal/mol
DOCKED: USER    (3) Torsional Free Energy           =   +2.98 kcal/mol
DOCKED: USER    (4) Unbound System's Energy  [=(2)] =   -2.50 kcal/mol
DOCKED: USER    
DOCKED: USER    
DOCKED: USER    NEWDPF move heme_Fe_opt.pdbqt
DOCKED: USER    NEWDPF about -0.174000 -0.001000 -0.047000
DOCKED: USER    NEWDPF tran0 41.657708 28.077593 15.681908
DOCKED: USER    NEWDPF quaternion0 -0.207381 -0.135586 0.940352 -0.233128
DOCKED: USER    NEWDPF axisangle0 -0.213257 -0.139427 0.966996 -153.037454
DOCKED: USER    NEWDPF quat0 -0.213257 -0.139427 0.966996 -153.037454
DOCKED: USER    NEWDPF dihe0 16.79 58.72 66.49 -159.42 -170.89 -75.45 -78.68 59.49 169.33 -175.57 
DOCKED: USER  keepresnum = 1 
DOCKED: USER  
DOCKED: REMARK  10 active torsions:
DOCKED: REMARK  status: ('A' for Active; 'I' for Inactive)
DOCKED: REMARK    1  A    between atoms: C_6  and  C_10 
DOCKED: REMARK    2  A    between atoms: C_10  and  C_11 
DOCKED: REMARK    3  A    between atoms: C_11  and  C_12 
DOCKED: REMARK    4  A    between atoms: C_12  and  O_14 
DOCKED: REMARK    5  A    between atoms: C_17  and  C_20 
DOCKED: REMARK    6  A    between atoms: C_24  and  C_27 
DOCKED: REMARK    7  A    between atoms: C_31  and  C_34 
DOCKED: REMARK    8  A    between atoms: C_34  and  C_35 
DOCKED: REMARK    9  A    between atoms: C_35  and  C_36 
DOCKED: REMARK   10  A    between atoms: C_36  and  O_38 
DOCKED: USER                              x       y       z     vdW  Elec       q    Type
DOCKED: USER                           _______ _______ _______ _____ _____    ______ ____
DOCKED: ROOT
DOCKED: ATOM      1  C   UNL d   1      43.034  27.064  16.817 -0.32 +0.02    +0.064 C 
DOCKED: ATOM      2  C   UNL d   1      41.452  31.742  16.622 -0.39 +0.01    +0.064 A 
DOCKED: ATOM      3  C   UNL d   1      37.690  30.289  14.014 -0.32 +0.01    +0.064 C 
DOCKED: ATOM      4  C   UNL d   1      39.259  25.771  14.101 -0.48 +0.01    +0.064 C 
DOCKED: ATOM      5  C   UNL d   1      42.982  28.528  16.933 -0.25 +0.02    +0.066 A 
DOCKED: ATOM      6  C   UNL d   1      43.961  29.309  17.525 -0.27 -0.01    -0.021 A 
DOCKED: ATOM      7  C   UNL d   1      43.519  30.608  17.474 -0.29 -0.01    -0.025 A 
DOCKED: ATOM      8  C   UNL d   1      42.286  30.569  16.852 -0.32 +0.01    +0.066 A 
DOCKED: ATOM      9  C   UNL d   1      44.255  31.811  17.979 -0.25 +0.01    +0.051 C 
DOCKED: ATOM     10  C   UNL d   1      40.286  31.741  15.974 -0.37 +0.01    +0.066 A 
DOCKED: ATOM     11  C   UNL d   1      39.456  32.859  15.870 -0.40 -0.00    -0.021 A 
DOCKED: ATOM     12  C   UNL d   1      38.356  32.462  15.137 -0.39 +0.00    +0.000 A 
DOCKED: ATOM     13  C   UNL d   1      38.570  31.106  14.835 -0.35 +0.01    +0.070 A 
DOCKED: ATOM     14  C   UNL d   1      39.667  34.222  16.498 -0.34 +0.00    +0.052 C 
DOCKED: ATOM     15  C   UNL d   1      37.866  28.970  13.764 -0.34 +0.01    +0.066 A 
DOCKED: ATOM     16  C   UNL d   1      37.058  28.249  12.894 -0.48 -0.00    -0.021 A 
DOCKED: ATOM     17  C   UNL d   1      37.507  26.945  12.920 -0.47 +0.00    +0.000 A 
DOCKED: ATOM     18  C   UNL d   1      38.577  26.900  13.810 -0.37 +0.01    +0.070 A 
DOCKED: ATOM     19  C   UNL d   1      35.893  28.758  12.088 -0.65 +0.00    +0.052 C 
DOCKED: ATOM     20  C   UNL d   1      40.429  25.697  14.985 -0.40 +0.01    +0.066 A 
DOCKED: ATOM     21  C   UNL d   1      41.019  24.514  15.450 -0.45 -0.00    -0.025 A 
DOCKED: ATOM     22  C   UNL d   1      42.101  24.906  16.212 -0.35 -0.00    -0.021 A 
DOCKED: ATOM     23  C   UNL d   1      42.124  26.305  16.187 -0.33 +0.01    +0.066 A 
DOCKED: ATOM     24  C   UNL d   1      40.593  23.086  15.200 -0.44 +0.00    +0.051 C 
DOCKED: ATOM     25  N   UNL d   1      41.967  29.304  16.515 -0.17 -0.06    -0.248 N 
DOCKED: ATOM     26  N   UNL d   1      39.743  30.663  15.353 -0.10 -0.06    -0.248 N 
DOCKED: ATOM     27  N   UNL d   1      38.826  28.153  14.296 -0.09 -0.06    -0.248 N 
DOCKED: ATOM     28  N   UNL d   1      41.075  26.783  15.473 -0.26 -0.05    -0.248 N 
DOCKED: ATOM     29 FE   UNL d   1      40.408  28.722  15.412 -0.09 +0.00    +0.000 Fe
DOCKED: ENDROOT
DOCKED: BRANCH   6  30
DOCKED: ATOM     30  C   UNL d   1      45.261  28.850  18.092 -0.21 +0.02    +0.052 C 
DOCKED: BRANCH  30  31
DOCKED: ATOM     31  C   UNL d   1      45.188  28.769  19.613 -0.20 +0.08    +0.115 C 
DOCKED: BRANCH  31  32
DOCKED: ATOM     32  C   UNL d   1      45.003  27.343  20.055 -0.19 +0.12    +0.139 C 
DOCKED: ATOM     33  O   UNL d   1      44.758  27.080  21.224 -0.11 -1.11    -0.650 OA
DOCKED: BRANCH  32  34
DOCKED: ATOM     34  O   UNL d   1      45.107  26.342  19.165 +0.09 -0.43    -0.776 OA
DOCKED: ATOM     35  H   UNL d   1      44.753  25.471  19.395 +0.06 +0.09    +0.167 HD
DOCKED: ENDBRANCH  32  34
DOCKED: ENDBRANCH  31  32
DOCKED: ENDBRANCH  30  31
DOCKED: ENDBRANCH   6  30
DOCKED: BRANCH  22  36
DOCKED: ATOM     36  C   UNL d   1      43.029  23.986  16.960 -0.34 +0.01    +0.052 C 
DOCKED: BRANCH  36  37
DOCKED: ATOM     37  C   UNL d   1      42.367  23.530  18.253 -0.42 +0.02    +0.115 C 
DOCKED: BRANCH  37  38
DOCKED: ATOM     38  C   UNL d   1      43.195  23.915  19.446 -0.29 +0.05    +0.139 C 
DOCKED: ATOM     39  O   UNL d   1      44.213  23.300  19.726 -0.33 -0.29    -0.650 OA
DOCKED: BRANCH  38  40
DOCKED: ATOM     40  O   UNL d   1      42.815  24.946  20.222 +0.09 -0.33    -0.776 OA
DOCKED: ATOM     41  H   UNL d   1      43.419  25.693  20.341 +0.07 +0.10    +0.167 HD
DOCKED: ENDBRANCH  38  40
DOCKED: ENDBRANCH  37  38
DOCKED: ENDBRANCH  36  37
DOCKED: ENDBRANCH  22  36
DOCKED: BRANCH  12  42
DOCKED: ATOM     42  C   UNL d   1      37.197  33.341  14.787 -0.46 +0.00    +0.004 C 
DOCKED: ATOM     43  C   UNL d   1      36.943  33.673  13.515 -0.51 +0.00    +0.012 C 
DOCKED: ENDBRANCH  12  42
DOCKED: BRANCH  17  44
DOCKED: ATOM     44  C   UNL d   1      36.960  25.819  12.129 -0.44 +0.00    +0.004 C 
DOCKED: ATOM     45  C   UNL d   1      36.204  24.880  12.707 -0.69 +0.00    +0.012 C 
DOCKED: ENDBRANCH  17  44
DOCKED: TORSDOF 10
DOCKED: TER
DOCKED: ENDMDL
________________________________________________________________________________


	BEGINNING GENETIC ALGORITHM DOCKING 53 of 100
Run: 53 Seed: 1148355607 975426084 [ Run 53 of 100 GA/GALS ]
Beginning LAMARCKIAN GENETIC ALGORITHM (LGA), with a maximum of 25000000 energy evaluations.

Final-Value: -17.957


	FINAL GENETIC ALGORITHM DOCKED STATE
	_______________________________________________


Detailed state:  trans 41.302 28.262 16.586 quatxyzw -0.139903 -0.931656 -0.083616 0.324735 center -0.174 -0.001 -0.047 ntor 10 -109.5894 44.6868 103.7065 -123.7582 -131.1972 -113.2049 28.0181 -76.9104 2.5183 -14.9322
State:	 41.302  28.262  16.586  -0.148 -0.985 -0.088 142.101   -109.59   44.69  103.71 -123.76 -131.20 -113.20   28.02  -76.91    2.52  -14.93

DOCKED: MODEL       53
DOCKED: USER    Run = 53
DOCKED: USER    DPF = D:/Protein_go_brrr/autodock/final/6BB5/heme_Fe/dock.dpf
DOCKED: USER  
DOCKED: USER    Estimated Free Energy of Binding    =  -12.93 kcal/mol  [=(1)+(2)+(3)-(4)]
DOCKED: USER    Estimated Inhibition Constant, Ki   =  330.07 pM (picomolar)  [Temperature = 298.15 K]
DOCKED: USER    
DOCKED: USER    (1) Final Intermolecular Energy     =  -15.92 kcal/mol
DOCKED: USER        vdW + Hbond + desolv Energy     =  -13.87 kcal/mol
DOCKED: USER        Electrostatic Energy            =   -2.05 kcal/mol
DOCKED: USER    (2) Final Total Internal Energy     =   -2.04 kcal/mol
DOCKED: USER    (3) Torsional Free Energy           =   +2.98 kcal/mol
DOCKED: USER    (4) Unbound System's Energy  [=(2)] =   -2.04 kcal/mol
DOCKED: USER    
DOCKED: USER    
DOCKED: USER    NEWDPF move heme_Fe_opt.pdbqt
DOCKED: USER    NEWDPF about -0.174000 -0.001000 -0.047000
DOCKED: USER    NEWDPF tran0 41.301730 28.261977 16.586116
DOCKED: USER    NEWDPF quaternion0 -0.139903 -0.931656 -0.083616 0.324735
DOCKED: USER    NEWDPF axisangle0 -0.147920 -0.985040 -0.088407 142.100984
DOCKED: USER    NEWDPF quat0 -0.147920 -0.985040 -0.088407 142.100984
DOCKED: USER    NEWDPF dihe0 -109.59 44.69 103.71 -123.76 -131.20 -113.20 28.02 -76.91 2.52 -14.93 
DOCKED: USER  keepresnum = 1 
DOCKED: USER  
DOCKED: REMARK  10 active torsions:
DOCKED: REMARK  status: ('A' for Active; 'I' for Inactive)
DOCKED: REMARK    1  A    between atoms: C_6  and  C_10 
DOCKED: REMARK    2  A    between atoms: C_10  and  C_11 
DOCKED: REMARK    3  A    between atoms: C_11  and  C_12 
DOCKED: REMARK    4  A    between atoms: C_12  and  O_14 
DOCKED: REMARK    5  A    between atoms: C_17  and  C_20 
DOCKED: REMARK    6  A    between atoms: C_24  and  C_27 
DOCKED: REMARK    7  A    between atoms: C_31  and  C_34 
DOCKED: REMARK    8  A    between atoms: C_34  and  C_35 
DOCKED: REMARK    9  A    between atoms: C_35  and  C_36 
DOCKED: REMARK   10  A    between atoms: C_36  and  O_38 
DOCKED: USER                              x       y       z     vdW  Elec       q    Type
DOCKED: USER                           _______ _______ _______ _____ _____    ______ ____
DOCKED: ROOT
DOCKED: ATOM      1  C   UNL d   1      43.110  27.617  17.312 -0.19 +0.02    +0.064 C 
DOCKED: ATOM      2  C   UNL d   1      39.563  25.606  14.517 -0.40 +0.01    +0.064 A 
DOCKED: ATOM      3  C   UNL d   1      37.711  29.985  13.838 -0.38 +0.01    +0.064 C 
DOCKED: ATOM      4  C   UNL d   1      41.073  31.939  16.625 -0.47 +0.01    +0.064 C 
DOCKED: ATOM      5  C   UNL d   1      42.234  26.635  16.656 -0.30 +0.01    +0.066 A 
DOCKED: ATOM      6  C   UNL d   1      42.393  25.261  16.731 -0.34 -0.00    -0.021 A 
DOCKED: ATOM      7  C   UNL d   1      41.409  24.703  15.952 -0.40 -0.00    -0.025 A 
DOCKED: ATOM      8  C   UNL d   1      40.688  25.760  15.431 -0.38 +0.01    +0.066 A 
DOCKED: ATOM      9  C   UNL d   1      41.173  23.239  15.742 -0.51 +0.00    +0.051 C 
DOCKED: ATOM     10  C   UNL d   1      38.814  26.605  14.046 -0.38 +0.01    +0.066 A 
DOCKED: ATOM     11  C   UNL d   1      37.816  26.437  13.083 -0.44 -0.00    -0.021 A 
DOCKED: ATOM     12  C   UNL d   1      37.278  27.689  12.857 -0.49 +0.00    +0.000 A 
DOCKED: ATOM     13  C   UNL d   1      37.988  28.565  13.697 -0.34 +0.01    +0.070 A 
DOCKED: ATOM     14  C   UNL d   1      37.439  25.159  12.362 -0.41 +0.01    +0.052 C 
DOCKED: ATOM     15  C   UNL d   1      38.425  30.842  14.606 -0.35 +0.01    +0.066 A 
DOCKED: ATOM     16  C   UNL d   1      38.068  32.172  14.792 -0.37 -0.00    -0.021 A 
DOCKED: ATOM     17  C   UNL d   1      39.038  32.738  15.593 -0.40 +0.00    +0.000 A 
DOCKED: ATOM     18  C   UNL d   1      39.969  31.740  15.873 -0.35 +0.01    +0.070 A 
DOCKED: ATOM     19  C   UNL d   1      36.876  32.891  14.221 -0.39 +0.00    +0.052 C 
DOCKED: ATOM     20  C   UNL d   1      42.041  30.898  16.991 -0.35 +0.01    +0.066 A 
DOCKED: ATOM     21  C   UNL d   1      43.286  31.127  17.596 -0.29 -0.01    -0.025 A 
DOCKED: ATOM     22  C   UNL d   1      43.843  29.880  17.794 -0.29 -0.01    -0.021 A 
DOCKED: ATOM     23  C   UNL d   1      42.925  28.946  17.299 -0.21 +0.02    +0.066 A 
DOCKED: ATOM     24  C   UNL d   1      43.926  32.444  17.968 -0.30 +0.01    +0.051 C 
DOCKED: ATOM     25  N   UNL d   1      41.186  26.933  15.869 -0.26 -0.05    -0.248 N 
DOCKED: ATOM     26  N   UNL d   1      38.931  27.906  14.415 -0.15 -0.06    -0.248 N 
DOCKED: ATOM     27  N   UNL d   1      39.570  30.563  15.303 -0.07 -0.06    -0.248 N 
DOCKED: ATOM     28  N   UNL d   1      41.848  29.576  16.770 -0.20 -0.05    -0.248 N 
DOCKED: ATOM     29 FE   UNL d   1      40.390  28.743  15.593 -0.09 +0.00    +0.000 Fe
DOCKED: ENDROOT
DOCKED: BRANCH   6  30
DOCKED: ATOM     30  C   UNL d   1      43.412  24.512  17.520 -0.31 +0.02    +0.052 C 
DOCKED: BRANCH  30  31
DOCKED: ATOM     31  C   UNL d   1      42.875  24.162  18.903 -0.36 +0.03    +0.115 C 
DOCKED: BRANCH  31  32
DOCKED: ATOM     32  C   UNL d   1      44.001  24.053  19.893 -0.24 +0.06    +0.139 C 
DOCKED: ATOM     33  O   UNL d   1      44.085  23.087  20.638 -0.53 -0.34    -0.650 OA
DOCKED: BRANCH  32  34
DOCKED: ATOM     34  O   UNL d   1      44.930  25.022  19.968 +0.09 -0.44    -0.776 OA
DOCKED: ATOM     35  H   UNL d   1      44.681  25.883  20.330 +0.06 +0.13    +0.167 HD
DOCKED: ENDBRANCH  32  34
DOCKED: ENDBRANCH  31  32
DOCKED: ENDBRANCH  30  31
DOCKED: ENDBRANCH   6  30
DOCKED: BRANCH  22  36
DOCKED: ATOM     36  C   UNL d   1      45.203  29.609  18.381 -0.23 +0.02    +0.052 C 
DOCKED: BRANCH  36  37
DOCKED: ATOM     37  C   UNL d   1      45.126  29.657  19.900 -0.16 +0.08    +0.115 C 
DOCKED: BRANCH  37  38
DOCKED: ATOM     38  C   UNL d   1      45.109  28.272  20.483 -0.11 +0.16    +0.139 C 
DOCKED: ATOM     39  O   UNL d   1      44.118  27.848  21.059 -0.08 -1.07    -0.650 OA
DOCKED: BRANCH  38  40
DOCKED: ATOM     40  O   UNL d   1      46.195  27.486  20.377 -0.10 -0.75    -0.776 OA
DOCKED: ATOM     41  H   UNL d   1      46.082  26.559  20.125 +0.04 +0.13    +0.167 HD
DOCKED: ENDBRANCH  38  40
DOCKED: ENDBRANCH  37  38
DOCKED: ENDBRANCH  36  37
DOCKED: ENDBRANCH  22  36
DOCKED: BRANCH  12  42
DOCKED: ATOM     42  C   UNL d   1      36.179  27.986  11.888 -0.69 +0.00    +0.004 C 
DOCKED: ATOM     43  C   UNL d   1      35.340  29.010  12.089 -0.64 +0.00    +0.012 C 
DOCKED: ENDBRANCH  12  42
DOCKED: BRANCH  17  44
DOCKED: ATOM     44  C   UNL d   1      39.062  34.137  16.075 -0.49 +0.00    +0.004 C 
DOCKED: ATOM     45  C   UNL d   1      39.290  35.149  15.231 -0.60 +0.00    +0.012 C 
DOCKED: ENDBRANCH  17  44
DOCKED: TORSDOF 10
DOCKED: TER
DOCKED: ENDMDL
________________________________________________________________________________


	BEGINNING GENETIC ALGORITHM DOCKING 54 of 100
Run: 54 Seed: 1936540022 1484733405 [ Run 54 of 100 GA/GALS ]
Beginning LAMARCKIAN GENETIC ALGORITHM (LGA), with a maximum of 25000000 energy evaluations.

Final-Value: -15.376


	FINAL GENETIC ALGORITHM DOCKED STATE
	_______________________________________________


Detailed state:  trans 7.971 35.034 -0.426 quatxyzw 0.882159 -0.263171 0.090179 -0.380005 center -0.174 -0.001 -0.047 ntor 10 63.9420 39.1744 45.8787 -102.8741 -89.8400 165.6501 42.4098 -67.6705 12.9502 -2.3145
State:	  7.971  35.034  -0.426   0.954 -0.285  0.097 -135.332     63.94   39.17   45.88 -102.87  -89.84  165.65   42.41  -67.67   12.95   -2.31

DOCKED: MODEL       54
DOCKED: USER    Run = 54
DOCKED: USER    DPF = D:/Protein_go_brrr/autodock/final/6BB5/heme_Fe/dock.dpf
DOCKED: USER  
DOCKED: USER    Estimated Free Energy of Binding    =  -10.35 kcal/mol  [=(1)+(2)+(3)-(4)]
DOCKED: USER    Estimated Inhibition Constant, Ki   =   25.95 nM (nanomolar)  [Temperature = 298.15 K]
DOCKED: USER    
DOCKED: USER    (1) Final Intermolecular Energy     =  -13.33 kcal/mol
DOCKED: USER        vdW + Hbond + desolv Energy     =  -12.19 kcal/mol
DOCKED: USER        Electrostatic Energy            =   -1.15 kcal/mol
DOCKED: USER    (2) Final Total Internal Energy     =   -2.04 kcal/mol
DOCKED: USER    (3) Torsional Free Energy           =   +2.98 kcal/mol
DOCKED: USER    (4) Unbound System's Energy  [=(2)] =   -2.04 kcal/mol
DOCKED: USER    
DOCKED: USER    
DOCKED: USER    NEWDPF move heme_Fe_opt.pdbqt
DOCKED: USER    NEWDPF about -0.174000 -0.001000 -0.047000
DOCKED: USER    NEWDPF tran0 7.970617 35.034269 -0.425641
DOCKED: USER    NEWDPF quaternion0 0.882159 -0.263171 0.090179 -0.380005
DOCKED: USER    NEWDPF axisangle0 0.953702 -0.284514 0.097492 -135.331961
DOCKED: USER    NEWDPF quat0 0.953702 -0.284514 0.097492 -135.331961
DOCKED: USER    NEWDPF dihe0 63.94 39.17 45.88 -102.87 -89.84 165.65 42.41 -67.67 12.95 -2.31 
DOCKED: USER  keepresnum = 1 
DOCKED: USER  
DOCKED: REMARK  10 active torsions:
DOCKED: REMARK  status: ('A' for Active; 'I' for Inactive)
DOCKED: REMARK    1  A    between atoms: C_6  and  C_10 
DOCKED: REMARK    2  A    between atoms: C_10  and  C_11 
DOCKED: REMARK    3  A    between atoms: C_11  and  C_12 
DOCKED: REMARK    4  A    between atoms: C_12  and  O_14 
DOCKED: REMARK    5  A    between atoms: C_17  and  C_20 
DOCKED: REMARK    6  A    between atoms: C_24  and  C_27 
DOCKED: REMARK    7  A    between atoms: C_31  and  C_34 
DOCKED: REMARK    8  A    between atoms: C_34  and  C_35 
DOCKED: REMARK    9  A    between atoms: C_35  and  C_36 
DOCKED: REMARK   10  A    between atoms: C_36  and  O_38 
DOCKED: USER                              x       y       z     vdW  Elec       q    Type
DOCKED: USER                           _______ _______ _______ _____ _____    ______ ____
DOCKED: ROOT
DOCKED: ATOM      1  C   UNL d   1       6.306  35.470  -1.544 +0.12 +0.01    +0.064 C 
DOCKED: ATOM      2  C   UNL d   1      11.172  36.068  -2.169 -0.42 +0.00    +0.064 A 
DOCKED: ATOM      3  C   UNL d   1      11.944  33.010   1.453 -0.40 +0.00    +0.064 C 
DOCKED: ATOM      4  C   UNL d   1       7.238  32.498   2.144 -0.46 +0.00    +0.064 C 
DOCKED: ATOM      5  C   UNL d   1       7.603  35.987  -2.001 -0.11 +0.01    +0.066 A 
DOCKED: ATOM      6  C   UNL d   1       7.768  36.972  -2.960 -0.34 -0.00    -0.021 A 
DOCKED: ATOM      7  C   UNL d   1       9.120  37.135  -3.136 -0.40 +0.00    -0.025 A 
DOCKED: ATOM      8  C   UNL d   1       9.729  36.242  -2.276 -0.39 +0.00    +0.066 A 
DOCKED: ATOM      9  C   UNL d   1       9.779  38.109  -4.064 -0.47 -0.01    +0.051 C 
DOCKED: ATOM     10  C   UNL d   1      11.786  35.255  -1.307 -0.35 +0.01    +0.066 A 
DOCKED: ATOM     11  C   UNL d   1      13.164  35.025  -1.306 -0.43 -0.00    -0.021 A 
DOCKED: ATOM     12  C   UNL d   1      13.410  34.134  -0.282 -0.47 +0.00    +0.000 A 
DOCKED: ATOM     13  C   UNL d   1      12.156  33.856   0.290 -0.35 +0.00    +0.070 A 
DOCKED: ATOM     14  C   UNL d   1      14.188  35.575  -2.278 -0.32 +0.00    +0.052 C 
DOCKED: ATOM     15  C   UNL d   1      10.734  32.699   1.975 -0.36 +0.00    +0.066 A 
DOCKED: ATOM     16  C   UNL d   1      10.578  31.968   3.147 -0.38 -0.00    -0.021 A 
DOCKED: ATOM     17  C   UNL d   1       9.221  31.816   3.346 -0.39 +0.00    +0.000 A 
DOCKED: ATOM     18  C   UNL d   1       8.580  32.456   2.287 -0.37 +0.00    +0.070 A 
DOCKED: ATOM     19  C   UNL d   1      11.660  31.412   4.032 -0.36 +0.00    +0.052 C 
DOCKED: ATOM     20  C   UNL d   1       6.526  33.213   1.078 -0.34 +0.01    +0.066 A 
DOCKED: ATOM     21  C   UNL d   1       5.156  33.101   0.801 -0.28 -0.00    -0.025 A 
DOCKED: ATOM     22  C   UNL d   1       4.910  33.966  -0.245 -0.28 -0.00    -0.021 A 
DOCKED: ATOM     23  C   UNL d   1       6.134  34.564  -0.568 -0.16 +0.01    +0.066 A 
DOCKED: ATOM     24  C   UNL d   1       4.126  32.227   1.478 -0.15 +0.00    +0.051 C 
DOCKED: ATOM     25  N   UNL d   1       8.804  35.551  -1.580 -0.24 -0.05    -0.248 N 
DOCKED: ATOM     26  N   UNL d   1      11.165  34.533  -0.340 +0.06 -0.04    -0.248 N 
DOCKED: ATOM     27  N   UNL d   1       9.508  33.036   1.468 -0.13 -0.02    -0.248 N 
DOCKED: ATOM     28  N   UNL d   1       7.125  34.067   0.212 -0.19 -0.03    -0.248 N 
DOCKED: ATOM     29 FE   UNL d   1       9.144  34.299  -0.063 -0.07 +0.00    +0.000 Fe
DOCKED: ENDROOT
DOCKED: BRANCH   6  30
DOCKED: ATOM     30  C   UNL d   1       6.698  37.738  -3.660 -0.26 +0.00    +0.052 C 
DOCKED: BRANCH  30  31
DOCKED: ATOM     31  C   UNL d   1       6.556  39.135  -3.066 -0.30 +0.01    +0.115 C 
DOCKED: BRANCH  31  32
DOCKED: ATOM     32  C   UNL d   1       5.104  39.497  -2.916 -0.21 +0.03    +0.139 C 
DOCKED: ATOM     33  O   UNL d   1       4.505  40.059  -3.823 +0.04 -0.14    -0.650 OA
DOCKED: BRANCH  32  34
DOCKED: ATOM     34  O   UNL d   1       4.450  39.207  -1.779 +0.05 -0.35    -0.776 OA
DOCKED: ATOM     35  H   UNL d   1       3.713  38.580  -1.808 +0.04 +0.10    +0.167 HD
DOCKED: ENDBRANCH  32  34
DOCKED: ENDBRANCH  31  32
DOCKED: ENDBRANCH  30  31
DOCKED: ENDBRANCH   6  30
DOCKED: BRANCH  22  36
DOCKED: ATOM     36  C   UNL d   1       3.582  34.169  -0.925 -0.21 +0.01    +0.052 C 
DOCKED: BRANCH  36  37
DOCKED: ATOM     37  C   UNL d   1       2.861  35.354  -0.301 -0.20 +0.05    +0.115 C 
DOCKED: BRANCH  37  38
DOCKED: ATOM     38  C   UNL d   1       2.775  36.502  -1.266 -0.17 +0.07    +0.139 C 
DOCKED: ATOM     39  O   UNL d   1       2.017  37.438  -1.059 -0.26 -0.65    -0.650 OA
DOCKED: BRANCH  38  40
DOCKED: ATOM     40  O   UNL d   1       3.536  36.504  -2.375 +0.05 -0.24    -0.776 OA
DOCKED: ATOM     41  H   UNL d   1       3.930  37.336  -2.673 +0.04 +0.05    +0.167 HD
DOCKED: ENDBRANCH  38  40
DOCKED: ENDBRANCH  37  38
DOCKED: ENDBRANCH  36  37
DOCKED: ENDBRANCH  22  36
DOCKED: BRANCH  12  42
DOCKED: ATOM     42  C   UNL d   1      14.758  33.595   0.080 -0.63 +0.00    +0.004 C 
DOCKED: ATOM     43  C   UNL d   1      15.504  34.182   1.026 -0.58 +0.00    +0.012 C 
DOCKED: ENDBRANCH  12  42
DOCKED: BRANCH  17  44
DOCKED: ATOM     44  C   UNL d   1       8.580  31.123   4.486 -0.46 -0.00    +0.004 C 
DOCKED: ATOM     45  C   UNL d   1       8.980  29.902   4.857 -0.72 -0.00    +0.012 C 
DOCKED: ENDBRANCH  17  44
DOCKED: TORSDOF 10
DOCKED: TER
DOCKED: ENDMDL
________________________________________________________________________________


	BEGINNING GENETIC ALGORITHM DOCKING 55 of 100
Run: 55 Seed: 994637480 2059939054 [ Run 55 of 100 GA/GALS ]
Beginning LAMARCKIAN GENETIC ALGORITHM (LGA), with a maximum of 25000000 energy evaluations.

Final-Value: -17.245


	FINAL GENETIC ALGORITHM DOCKED STATE
	_______________________________________________


Detailed state:  trans 41.275 28.681 16.543 quatxyzw 0.124294 0.929239 0.084815 -0.337451 center -0.174 -0.001 -0.047 ntor 10 81.4549 -10.3448 70.7795 -126.4137 -173.9914 180.0000 -32.2504 -61.8565 -169.8421 12.0444
State:	 41.275  28.681  16.543   0.132  0.987  0.090 -140.557     81.45  -10.34   70.78 -126.41 -173.99  180.00  -32.25  -61.86 -169.84   12.04

DOCKED: MODEL       55
DOCKED: USER    Run = 55
DOCKED: USER    DPF = D:/Protein_go_brrr/autodock/final/6BB5/heme_Fe/dock.dpf
DOCKED: USER  
DOCKED: USER    Estimated Free Energy of Binding    =  -11.85 kcal/mol  [=(1)+(2)+(3)-(4)]
DOCKED: USER    Estimated Inhibition Constant, Ki   =    2.05 nM (nanomolar)  [Temperature = 298.15 K]
DOCKED: USER    
DOCKED: USER    (1) Final Intermolecular Energy     =  -14.83 kcal/mol
DOCKED: USER        vdW + Hbond + desolv Energy     =  -13.11 kcal/mol
DOCKED: USER        Electrostatic Energy            =   -1.73 kcal/mol
DOCKED: USER    (2) Final Total Internal Energy     =   -2.41 kcal/mol
DOCKED: USER    (3) Torsional Free Energy           =   +2.98 kcal/mol
DOCKED: USER    (4) Unbound System's Energy  [=(2)] =   -2.41 kcal/mol
DOCKED: USER    
DOCKED: USER    
DOCKED: USER    NEWDPF move heme_Fe_opt.pdbqt
DOCKED: USER    NEWDPF about -0.174000 -0.001000 -0.047000
DOCKED: USER    NEWDPF tran0 41.275379 28.680731 16.543179
DOCKED: USER    NEWDPF quaternion0 0.124294 0.929239 0.084815 -0.337451
DOCKED: USER    NEWDPF axisangle0 0.132039 0.987141 0.090100 -140.556740
DOCKED: USER    NEWDPF quat0 0.132039 0.987141 0.090100 -140.556740
DOCKED: USER    NEWDPF dihe0 81.45 -10.34 70.78 -126.41 -173.99 180.00 -32.25 -61.86 -169.84 12.04 
DOCKED: USER  keepresnum = 1 
DOCKED: USER  
DOCKED: REMARK  10 active torsions:
DOCKED: REMARK  status: ('A' for Active; 'I' for Inactive)
DOCKED: REMARK    1  A    between atoms: C_6  and  C_10 
DOCKED: REMARK    2  A    between atoms: C_10  and  C_11 
DOCKED: REMARK    3  A    between atoms: C_11  and  C_12 
DOCKED: REMARK    4  A    between atoms: C_12  and  O_14 
DOCKED: REMARK    5  A    between atoms: C_17  and  C_20 
DOCKED: REMARK    6  A    between atoms: C_24  and  C_27 
DOCKED: REMARK    7  A    between atoms: C_31  and  C_34 
DOCKED: REMARK    8  A    between atoms: C_34  and  C_35 
DOCKED: REMARK    9  A    between atoms: C_35  and  C_36 
DOCKED: REMARK   10  A    between atoms: C_36  and  O_38 
DOCKED: USER                              x       y       z     vdW  Elec       q    Type
DOCKED: USER                           _______ _______ _______ _____ _____    ______ ____
DOCKED: ROOT
DOCKED: ATOM      1  C   UNL d   1      43.079  28.093  17.326 -0.16 +0.02    +0.064 C 
DOCKED: ATOM      2  C   UNL d   1      39.668  25.957  14.457 -0.41 +0.01    +0.064 A 
DOCKED: ATOM      3  C   UNL d   1      37.719  30.276  13.676 -0.40 +0.01    +0.064 C 
DOCKED: ATOM      4  C   UNL d   1      40.947  32.350  16.534 -0.49 +0.01    +0.064 C 
DOCKED: ATOM      5  C   UNL d   1      42.249  27.080  16.658 -0.27 +0.02    +0.066 A 
DOCKED: ATOM      6  C   UNL d   1      42.442  25.712  16.753 -0.34 -0.00    -0.021 A 
DOCKED: ATOM      7  C   UNL d   1      41.497  25.119  15.953 -0.39 -0.00    -0.025 A 
DOCKED: ATOM      8  C   UNL d   1      40.762  26.150  15.400 -0.39 +0.01    +0.066 A 
DOCKED: ATOM      9  C   UNL d   1      41.306  23.647  15.754 -0.50 +0.01    +0.051 C 
DOCKED: ATOM     10  C   UNL d   1      38.906  26.930  13.953 -0.36 +0.01    +0.066 A 
DOCKED: ATOM     11  C   UNL d   1      37.941  26.725  12.965 -0.43 -0.00    -0.021 A 
DOCKED: ATOM     12  C   UNL d   1      37.376  27.958  12.710 -0.50 +0.00    +0.000 A 
DOCKED: ATOM     13  C   UNL d   1      38.038  28.862  13.559 -0.32 +0.01    +0.070 A 
DOCKED: ATOM     14  C   UNL d   1      37.619  25.429  12.249 -0.20 +0.01    +0.052 C 
DOCKED: ATOM     15  C   UNL d   1      38.388  31.160  14.453 -0.36 +0.01    +0.066 A 
DOCKED: ATOM     16  C   UNL d   1      37.990  32.481  14.615 -0.38 -0.00    -0.021 A 
DOCKED: ATOM     17  C   UNL d   1      38.921  33.083  15.436 -0.42 +0.00    +0.000 A 
DOCKED: ATOM     18  C   UNL d   1      39.870  32.113  15.753 -0.37 +0.01    +0.070 A 
DOCKED: ATOM     19  C   UNL d   1      36.795  33.162  14.002 -0.43 +0.00    +0.052 C 
DOCKED: ATOM     20  C   UNL d   1      41.932  31.341  16.939 -0.37 +0.01    +0.066 A 
DOCKED: ATOM     21  C   UNL d   1      43.152  31.609  17.576 -0.29 -0.00    -0.025 A 
DOCKED: ATOM     22  C   UNL d   1      43.737  30.381  17.804 -0.29 -0.01    -0.021 A 
DOCKED: ATOM     23  C   UNL d   1      42.859  29.417  17.294 -0.25 +0.02    +0.066 A 
DOCKED: ATOM     24  C   UNL d   1      43.746  32.947  17.950 -0.33 +0.01    +0.051 C 
DOCKED: ATOM     25  N   UNL d   1      41.216  27.342  15.838 -0.24 -0.05    -0.248 N 
DOCKED: ATOM     26  N   UNL d   1      38.977  28.237  14.310 -0.03 -0.07    -0.248 N 
DOCKED: ATOM     27  N   UNL d   1      39.520  30.920  15.185 -0.19 -0.05    -0.248 N 
DOCKED: ATOM     28  N   UNL d   1      41.781  30.011  16.727 -0.23 -0.05    -0.248 N 
DOCKED: ATOM     29 FE   UNL d   1      40.379  29.126  15.519 -0.09 +0.00    +0.000 Fe
DOCKED: ENDROOT
DOCKED: BRANCH   6  30
DOCKED: ATOM     30  C   UNL d   1      43.458  25.000  17.579 -0.30 +0.02    +0.052 C 
DOCKED: BRANCH  30  31
DOCKED: ATOM     31  C   UNL d   1      44.815  24.999  16.882 -0.22 +0.04    +0.115 C 
DOCKED: BRANCH  31  32
DOCKED: ATOM     32  C   UNL d   1      45.926  25.035  17.895 -0.14 +0.07    +0.139 C 
DOCKED: ATOM     33  O   UNL d   1      47.091  25.148  17.539 +0.00 -0.36    -0.650 OA
DOCKED: BRANCH  32  34
DOCKED: ATOM     34  O   UNL d   1      45.647  24.943  19.206 +0.10 -0.39    -0.776 OA
DOCKED: ATOM     35  H   UNL d   1      45.605  25.752  19.735 +0.05 +0.10    +0.167 HD
DOCKED: ENDBRANCH  32  34
DOCKED: ENDBRANCH  31  32
DOCKED: ENDBRANCH  30  31
DOCKED: ENDBRANCH   6  30
DOCKED: BRANCH  22  36
DOCKED: ATOM     36  C   UNL d   1      45.087  30.152  18.432 -0.24 +0.02    +0.052 C 
DOCKED: BRANCH  36  37
DOCKED: ATOM     37  C   UNL d   1      44.912  29.560  19.822 -0.16 +0.08    +0.115 C 
DOCKED: BRANCH  37  38
DOCKED: ATOM     38  C   UNL d   1      45.521  28.189  19.905 -0.18 +0.11    +0.139 C 
DOCKED: ATOM     39  O   UNL d   1      45.483  27.549  20.945 -0.20 -1.03    -0.650 OA
DOCKED: BRANCH  38  40
DOCKED: ATOM     40  O   UNL d   1      46.119  27.654  18.825 +0.06 -0.40    -0.776 OA
DOCKED: ATOM     41  H   UNL d   1      46.639  26.845  18.928 +0.04 +0.09    +0.167 HD
DOCKED: ENDBRANCH  38  40
DOCKED: ENDBRANCH  37  38
DOCKED: ENDBRANCH  36  37
DOCKED: ENDBRANCH  22  36
DOCKED: BRANCH  12  42
DOCKED: ATOM     42  C   UNL d   1      36.297  28.215  11.706 -0.69 +0.00    +0.004 C 
DOCKED: ATOM     43  C   UNL d   1      35.104  28.694  12.084 -0.63 +0.00    +0.012 C 
DOCKED: ENDBRANCH  12  42
DOCKED: BRANCH  17  44
DOCKED: ATOM     44  C   UNL d   1      38.894  34.487  15.903 -0.56 +0.00    +0.004 C 
DOCKED: ATOM     45  C   UNL d   1      39.170  35.492  15.066 -0.61 +0.00    +0.012 C 
DOCKED: ENDBRANCH  17  44
DOCKED: TORSDOF 10
DOCKED: TER
DOCKED: ENDMDL
________________________________________________________________________________


	BEGINNING GENETIC ALGORITHM DOCKING 56 of 100
Run: 56 Seed: 1447129334 672697265 [ Run 56 of 100 GA/GALS ]
Beginning LAMARCKIAN GENETIC ALGORITHM (LGA), with a maximum of 25000000 energy evaluations.

Final-Value: -9.850


	FINAL GENETIC ALGORITHM DOCKED STATE
	_______________________________________________


Detailed state:  trans 42.369 44.289 3.322 quatxyzw -0.928878 0.206090 0.302932 -0.054257 center -0.174 -0.001 -0.047 ntor 10 54.8410 -125.3105 65.8430 -178.5371 -93.3511 -167.9017 -96.6737 22.1620 177.0672 -173.4387
State:	 42.369  44.289   3.322  -0.930  0.206  0.303 -173.780     54.84 -125.31   65.84 -178.54  -93.35 -167.90  -96.67   22.16  177.07 -173.44

DOCKED: MODEL       56
DOCKED: USER    Run = 56
DOCKED: USER    DPF = D:/Protein_go_brrr/autodock/final/6BB5/heme_Fe/dock.dpf
DOCKED: USER  
DOCKED: USER    Estimated Free Energy of Binding    =   -5.33 kcal/mol  [=(1)+(2)+(3)-(4)]
DOCKED: USER    Estimated Inhibition Constant, Ki   =  124.86 uM (micromolar)  [Temperature = 298.15 K]
DOCKED: USER    
DOCKED: USER    (1) Final Intermolecular Energy     =   -8.31 kcal/mol
DOCKED: USER        vdW + Hbond + desolv Energy     =   -5.53 kcal/mol
DOCKED: USER        Electrostatic Energy            =   -2.77 kcal/mol
DOCKED: USER    (2) Final Total Internal Energy     =   -1.54 kcal/mol
DOCKED: USER    (3) Torsional Free Energy           =   +2.98 kcal/mol
DOCKED: USER    (4) Unbound System's Energy  [=(2)] =   -1.54 kcal/mol
DOCKED: USER    
DOCKED: USER    
DOCKED: USER    NEWDPF move heme_Fe_opt.pdbqt
DOCKED: USER    NEWDPF about -0.174000 -0.001000 -0.047000
DOCKED: USER    NEWDPF tran0 42.368521 44.288797 3.322120
DOCKED: USER    NEWDPF quaternion0 -0.928878 0.206090 0.302932 -0.054257
DOCKED: USER    NEWDPF axisangle0 -0.930249 0.206394 0.303379 -173.779602
DOCKED: USER    NEWDPF quat0 -0.930249 0.206394 0.303379 -173.779602
DOCKED: USER    NEWDPF dihe0 54.84 -125.31 65.84 -178.54 -93.35 -167.90 -96.67 22.16 177.07 -173.44 
DOCKED: USER  keepresnum = 1 
DOCKED: USER  
DOCKED: REMARK  10 active torsions:
DOCKED: REMARK  status: ('A' for Active; 'I' for Inactive)
DOCKED: REMARK    1  A    between atoms: C_6  and  C_10 
DOCKED: REMARK    2  A    between atoms: C_10  and  C_11 
DOCKED: REMARK    3  A    between atoms: C_11  and  C_12 
DOCKED: REMARK    4  A    between atoms: C_12  and  O_14 
DOCKED: REMARK    5  A    between atoms: C_17  and  C_20 
DOCKED: REMARK    6  A    between atoms: C_24  and  C_27 
DOCKED: REMARK    7  A    between atoms: C_31  and  C_34 
DOCKED: REMARK    8  A    between atoms: C_34  and  C_35 
DOCKED: REMARK    9  A    between atoms: C_35  and  C_36 
DOCKED: REMARK   10  A    between atoms: C_36  and  O_38 
DOCKED: USER                              x       y       z     vdW  Elec       q    Type
DOCKED: USER                           _______ _______ _______ _____ _____    ______ ____
DOCKED: ROOT
DOCKED: ATOM      1  C   UNL d   1      40.656  45.156   4.049 -0.19 +0.01    +0.064 C 
DOCKED: ATOM      2  C   UNL d   1      44.815  46.857   1.989 -0.05 -0.01    +0.064 A 
DOCKED: ATOM      3  C   UNL d   1      45.824  42.400   0.511 -0.06 +0.00    +0.064 C 
DOCKED: ATOM      4  C   UNL d   1      41.858  40.715   2.588 -0.24 +0.01    +0.064 C 
DOCKED: ATOM      5  C   UNL d   1      41.775  46.034   3.678 -0.14 +0.00    +0.066 A 
DOCKED: ATOM      6  C   UNL d   1      41.885  47.367   4.035 -0.17 +0.00    -0.021 A 
DOCKED: ATOM      7  C   UNL d   1      43.039  47.840   3.459 -0.12 +0.00    -0.025 A 
DOCKED: ATOM      8  C   UNL d   1      43.589  46.775   2.773 -0.09 -0.01    +0.066 A 
DOCKED: ATOM      9  C   UNL d   1      43.582  49.230   3.584 -0.12 -0.01    +0.051 C 
DOCKED: ATOM     10  C   UNL d   1      45.397  45.832   1.365 -0.04 -0.01    +0.066 A 
DOCKED: ATOM     11  C   UNL d   1      46.508  45.964   0.528 -0.02 +0.00    -0.021 A 
DOCKED: ATOM     12  C   UNL d   1      46.809  44.695   0.075 -0.02 -0.00    +0.000 A 
DOCKED: ATOM     13  C   UNL d   1      45.851  43.847   0.659 -0.04 -0.00    +0.070 A 
DOCKED: ATOM     14  C   UNL d   1      47.207  47.246   0.124 -0.01 -0.00    +0.052 C 
DOCKED: ATOM     15  C   UNL d   1      44.875  41.585   1.028 -0.08 +0.00    +0.066 A 
DOCKED: ATOM     16  C   UNL d   1      44.939  40.200   0.949 -0.11 -0.00    -0.021 A 
DOCKED: ATOM     17  C   UNL d   1      43.794  39.712   1.544 -0.18 +0.00    +0.000 A 
DOCKED: ATOM     18  C   UNL d   1      43.055  40.813   1.970 -0.10 +0.01    +0.070 A 
DOCKED: ATOM     19  C   UNL d   1      46.020  39.365   0.316 -0.08 +0.00    +0.052 C 
DOCKED: ATOM     20  C   UNL d   1      41.081  41.848   3.104 -0.19 +0.01    +0.066 A 
DOCKED: ATOM     21  C   UNL d   1      39.758  41.781   3.563 -0.28 -0.00    -0.025 A 
DOCKED: ATOM     22  C   UNL d   1      39.440  43.055   3.986 -0.23 -0.00    -0.021 A 
DOCKED: ATOM     23  C   UNL d   1      40.573  43.847   3.764 -0.16 +0.01    +0.066 A 
DOCKED: ATOM     24  C   UNL d   1      38.832  40.588   3.601 -0.36 +0.01    +0.051 C 
DOCKED: ATOM     25  N   UNL d   1      42.823  45.675   2.915 -0.06 +0.01    -0.248 N 
DOCKED: ATOM     26  N   UNL d   1      44.986  44.540   1.438 -0.04 +0.01    -0.248 N 
DOCKED: ATOM     27  N   UNL d   1      43.739  41.964   1.692 -0.04 -0.02    -0.248 N 
DOCKED: ATOM     28  N   UNL d   1      41.556  43.115   3.184 -0.10 -0.03    -0.248 N 
DOCKED: ATOM     29 FE   UNL d   1      43.270  43.826   2.311 -0.03 +0.00    +0.000 Fe
DOCKED: ENDROOT
DOCKED: BRANCH   6  30
DOCKED: ATOM     30  C   UNL d   1      40.955  48.150   4.897 -0.28 -0.00    +0.052 C 
DOCKED: BRANCH  30  31
DOCKED: ATOM     31  C   UNL d   1      39.918  48.879   4.049 -0.15 +0.03    +0.115 C 
DOCKED: BRANCH  31  32
DOCKED: ATOM     32  C   UNL d   1      38.776  47.961   3.710 -0.14 +0.10    +0.139 C 
DOCKED: ATOM     33  O   UNL d   1      38.777  47.326   2.665 +0.01 -0.40    -0.650 OA
DOCKED: BRANCH  32  34
DOCKED: ATOM     34  O   UNL d   1      37.741  47.830   4.557 -0.34 -1.26    -0.776 OA
DOCKED: ATOM     35  H   UNL d   1      37.495  46.946   4.864 +0.06 +0.28    +0.167 HD
DOCKED: ENDBRANCH  32  34
DOCKED: ENDBRANCH  31  32
DOCKED: ENDBRANCH  30  31
DOCKED: ENDBRANCH   6  30
DOCKED: BRANCH  22  36
DOCKED: ATOM     36  C   UNL d   1      38.105  43.495   4.527 -0.05 +0.01    +0.052 C 
DOCKED: BRANCH  36  37
DOCKED: ATOM     37  C   UNL d   1      37.115  43.654   3.383 -0.13 +0.04    +0.115 C 
DOCKED: BRANCH  37  38
DOCKED: ATOM     38  C   UNL d   1      35.978  44.555   3.776 -0.05 +0.14    +0.139 C 
DOCKED: ATOM     39  O   UNL d   1      34.975  44.635   3.082 -0.52 -0.73    -0.650 OA
DOCKED: BRANCH  38  40
DOCKED: ATOM     40  O   UNL d   1      36.060  45.287   4.901 -0.10 -1.22    -0.776 OA
DOCKED: ATOM     41  H   UNL d   1      36.820  45.872   5.027 +0.05 +0.26    +0.167 HD
DOCKED: ENDBRANCH  38  40
DOCKED: ENDBRANCH  37  38
DOCKED: ENDBRANCH  36  37
DOCKED: ENDBRANCH  22  36
DOCKED: BRANCH  12  42
DOCKED: ATOM     42  C   UNL d   1      47.926  44.362  -0.861 -0.01 -0.00    +0.004 C 
DOCKED: ATOM     43  C   UNL d   1      48.968  43.623  -0.457 -0.01 -0.00    +0.012 C 
DOCKED: ENDBRANCH  12  42
DOCKED: BRANCH  17  44
DOCKED: ATOM     44  C   UNL d   1      43.440  38.284   1.713 -0.30 +0.00    +0.004 C 
DOCKED: ATOM     45  C   UNL d   1      42.280  37.807   1.251 -0.27 +0.00    +0.012 C 
DOCKED: ENDBRANCH  17  44
DOCKED: TORSDOF 10
DOCKED: TER
DOCKED: ENDMDL
________________________________________________________________________________


	BEGINNING GENETIC ALGORITHM DOCKING 57 of 100
Run: 57 Seed: 1967823495 1460842457 [ Run 57 of 100 GA/GALS ]
Beginning LAMARCKIAN GENETIC ALGORITHM (LGA), with a maximum of 25000000 energy evaluations.

Final-Value: -17.625


	FINAL GENETIC ALGORITHM DOCKED STATE
	_______________________________________________


Detailed state:  trans 41.792 28.211 15.996 quatxyzw -0.227239 -0.099793 0.952078 -0.178750 center -0.174 -0.001 -0.047 ntor 10 35.5286 -57.0869 66.0648 -140.8538 -81.9259 151.4511 -81.8489 67.7993 165.9827 -179.7934
State:	 41.792  28.211  15.996  -0.231 -0.101  0.968 -159.406     35.53  -57.09   66.06 -140.85  -81.93  151.45  -81.85   67.80  165.98 -179.79

DOCKED: MODEL       57
DOCKED: USER    Run = 57
DOCKED: USER    DPF = D:/Protein_go_brrr/autodock/final/6BB5/heme_Fe/dock.dpf
DOCKED: USER  
DOCKED: USER    Estimated Free Energy of Binding    =  -12.91 kcal/mol  [=(1)+(2)+(3)-(4)]
DOCKED: USER    Estimated Inhibition Constant, Ki   =  341.51 pM (picomolar)  [Temperature = 298.15 K]
DOCKED: USER    
DOCKED: USER    (1) Final Intermolecular Energy     =  -15.90 kcal/mol
DOCKED: USER        vdW + Hbond + desolv Energy     =  -13.63 kcal/mol
DOCKED: USER        Electrostatic Energy            =   -2.26 kcal/mol
DOCKED: USER    (2) Final Total Internal Energy     =   -1.73 kcal/mol
DOCKED: USER    (3) Torsional Free Energy           =   +2.98 kcal/mol
DOCKED: USER    (4) Unbound System's Energy  [=(2)] =   -1.73 kcal/mol
DOCKED: USER    
DOCKED: USER    
DOCKED: USER    NEWDPF move heme_Fe_opt.pdbqt
DOCKED: USER    NEWDPF about -0.174000 -0.001000 -0.047000
DOCKED: USER    NEWDPF tran0 41.791733 28.211422 15.996174
DOCKED: USER    NEWDPF quaternion0 -0.227239 -0.099793 0.952078 -0.178750
DOCKED: USER    NEWDPF axisangle0 -0.230959 -0.101426 0.967662 -159.406126
DOCKED: USER    NEWDPF quat0 -0.230959 -0.101426 0.967662 -159.406126
DOCKED: USER    NEWDPF dihe0 35.53 -57.09 66.06 -140.85 -81.93 151.45 -81.85 67.80 165.98 -179.79 
DOCKED: USER  keepresnum = 1 
DOCKED: USER  
DOCKED: REMARK  10 active torsions:
DOCKED: REMARK  status: ('A' for Active; 'I' for Inactive)
DOCKED: REMARK    1  A    between atoms: C_6  and  C_10 
DOCKED: REMARK    2  A    between atoms: C_10  and  C_11 
DOCKED: REMARK    3  A    between atoms: C_11  and  C_12 
DOCKED: REMARK    4  A    between atoms: C_12  and  O_14 
DOCKED: REMARK    5  A    between atoms: C_17  and  C_20 
DOCKED: REMARK    6  A    between atoms: C_24  and  C_27 
DOCKED: REMARK    7  A    between atoms: C_31  and  C_34 
DOCKED: REMARK    8  A    between atoms: C_34  and  C_35 
DOCKED: REMARK    9  A    between atoms: C_35  and  C_36 
DOCKED: REMARK   10  A    between atoms: C_36  and  O_38 
DOCKED: USER                              x       y       z     vdW  Elec       q    Type
DOCKED: USER                           _______ _______ _______ _____ _____    ______ ____
DOCKED: ROOT
DOCKED: ATOM      1  C   UNL d   1      43.210  27.443  17.265 -0.23 +0.02    +0.064 C 
DOCKED: ATOM      2  C   UNL d   1      41.240  31.920  16.547 -0.40 +0.01    +0.064 A 
DOCKED: ATOM      3  C   UNL d   1      37.710  29.882  14.006 -0.37 +0.01    +0.064 C 
DOCKED: ATOM      4  C   UNL d   1      39.657  25.553  14.600 -0.47 +0.01    +0.064 C 
DOCKED: ATOM      5  C   UNL d   1      43.028  28.901  17.228 -0.23 +0.02    +0.066 A 
DOCKED: ATOM      6  C   UNL d   1      43.915  29.822  17.761 -0.28 -0.01    -0.021 A 
DOCKED: ATOM      7  C   UNL d   1      43.366  31.065  17.565 -0.28 -0.01    -0.025 A 
DOCKED: ATOM      8  C   UNL d   1      42.163  30.854  16.918 -0.34 +0.01    +0.066 A 
DOCKED: ATOM      9  C   UNL d   1      43.977  32.373  17.962 -0.29 +0.01    +0.051 C 
DOCKED: ATOM     10  C   UNL d   1      40.102  31.749  15.872 -0.36 +0.01    +0.066 A 
DOCKED: ATOM     11  C   UNL d   1      39.183  32.773  15.632 -0.39 -0.00    -0.021 A 
DOCKED: ATOM     12  C   UNL d   1      38.147  32.208  14.915 -0.38 +0.00    +0.000 A 
DOCKED: ATOM     13  C   UNL d   1      38.488  30.853  14.761 -0.34 +0.01    +0.070 A 
DOCKED: ATOM     14  C   UNL d   1      39.254  34.206  16.120 -0.44 +0.00    +0.052 C 
DOCKED: ATOM     15  C   UNL d   1      38.007  28.566  13.898 -0.33 +0.01    +0.066 A 
DOCKED: ATOM     16  C   UNL d   1      37.295  27.692  13.087 -0.45 -0.00    -0.021 A 
DOCKED: ATOM     17  C   UNL d   1      37.852  26.442  13.259 -0.45 +0.00    +0.000 A 
DOCKED: ATOM     18  C   UNL d   1      38.891  26.582  14.177 -0.38 +0.01    +0.070 A 
DOCKED: ATOM     19  C   UNL d   1      36.119  28.011  12.202 -0.64 +0.01    +0.052 C 
DOCKED: ATOM     20  C   UNL d   1      40.797  25.673  15.517 -0.38 +0.01    +0.066 A 
DOCKED: ATOM     21  C   UNL d   1      41.470  24.600  16.117 -0.39 -0.00    -0.025 A 
DOCKED: ATOM     22  C   UNL d   1      42.486  25.161  16.862 -0.34 -0.00    -0.021 A 
DOCKED: ATOM     23  C   UNL d   1      42.390  26.547  16.693 -0.29 +0.02    +0.066 A 
DOCKED: ATOM     24  C   UNL d   1      41.177  23.122  16.006 -0.49 +0.00    +0.051 C 
DOCKED: ATOM     25  N   UNL d   1      41.965  29.538  16.706 -0.22 -0.05    -0.248 N 
DOCKED: ATOM     26  N   UNL d   1      39.675  30.571  15.352 -0.12 -0.06    -0.248 N 
DOCKED: ATOM     27  N   UNL d   1      39.015  27.895  14.537 -0.16 -0.06    -0.248 N 
DOCKED: ATOM     28  N   UNL d   1      41.330  26.856  15.908 -0.26 -0.05    -0.248 N 
DOCKED: ATOM     29 FE   UNL d   1      40.502  28.711  15.629 -0.09 +0.00    +0.000 Fe
DOCKED: ENDROOT
DOCKED: BRANCH   6  30
DOCKED: ATOM     30  C   UNL d   1      45.229  29.540  18.406 -0.23 +0.02    +0.052 C 
DOCKED: BRANCH  30  31
DOCKED: ATOM     31  C   UNL d   1      45.130  29.687  19.921 -0.16 +0.08    +0.115 C 
DOCKED: BRANCH  31  32
DOCKED: ATOM     32  C   UNL d   1      44.947  28.342  20.569 -0.06 +0.17    +0.139 C 
DOCKED: ATOM     33  O   UNL d   1      43.841  27.824  20.629 -0.18 -0.79    -0.650 OA
DOCKED: BRANCH  32  34
DOCKED: ATOM     34  O   UNL d   1      46.003  27.696  21.091 -0.35 -1.23    -0.776 OA
DOCKED: ATOM     35  H   UNL d   1      46.041  26.731  21.029 +0.03 +0.21    +0.167 HD
DOCKED: ENDBRANCH  32  34
DOCKED: ENDBRANCH  31  32
DOCKED: ENDBRANCH  30  31
DOCKED: ENDBRANCH   6  30
DOCKED: BRANCH  22  36
DOCKED: ATOM     36  C   UNL d   1      43.463  24.407  17.726 -0.30 +0.02    +0.052 C 
DOCKED: BRANCH  36  37
DOCKED: ATOM     37  C   UNL d   1      42.833  24.119  19.081 -0.37 +0.04    +0.115 C 
DOCKED: BRANCH  37  38
DOCKED: ATOM     38  C   UNL d   1      43.532  24.879  20.173 -0.27 +0.07    +0.139 C 
DOCKED: ATOM     39  O   UNL d   1      42.932  25.214  21.183 +0.10 -0.41    -0.650 OA
DOCKED: BRANCH  38  40
DOCKED: ATOM     40  O   UNL d   1      44.831  25.202  20.041 +0.08 -0.46    -0.776 OA
DOCKED: ATOM     41  H   UNL d   1      45.091  26.132  20.093 +0.05 +0.12    +0.167 HD
DOCKED: ENDBRANCH  38  40
DOCKED: ENDBRANCH  37  38
DOCKED: ENDBRANCH  36  37
DOCKED: ENDBRANCH  22  36
DOCKED: BRANCH  12  42
DOCKED: ATOM     42  C   UNL d   1      36.930  32.940  14.447 -0.43 +0.00    +0.004 C 
DOCKED: ATOM     43  C   UNL d   1      36.697  33.126  13.141 -0.51 +0.00    +0.012 C 
DOCKED: ENDBRANCH  12  42
DOCKED: BRANCH  17  44
DOCKED: ATOM     44  C   UNL d   1      37.432  25.198  12.575 -0.55 +0.00    +0.004 C 
DOCKED: ATOM     45  C   UNL d   1      36.453  24.438  13.076 -0.69 +0.00    +0.012 C 
DOCKED: ENDBRANCH  17  44
DOCKED: TORSDOF 10
DOCKED: TER
DOCKED: ENDMDL
________________________________________________________________________________


	BEGINNING GENETIC ALGORITHM DOCKING 58 of 100
Run: 58 Seed: 1651112039 1026824896 [ Run 58 of 100 GA/GALS ]
Beginning LAMARCKIAN GENETIC ALGORITHM (LGA), with a maximum of 25000000 energy evaluations.

Final-Value: -15.465


	FINAL GENETIC ALGORITHM DOCKED STATE
	_______________________________________________


Detailed state:  trans 8.149 34.466 -0.915 quatxyzw 0.386520 0.193571 0.274134 0.859059 center -0.174 -0.001 -0.047 ntor 10 -167.7219 -51.0953 65.2304 -155.1495 -0.4173 -142.5414 58.3762 49.7331 -133.8051 180.0000
State:	  8.149  34.466  -0.915   0.755  0.378  0.536 61.578   -167.72  -51.10   65.23 -155.15   -0.42 -142.54   58.38   49.73 -133.81  180.00

DOCKED: MODEL       58
DOCKED: USER    Run = 58
DOCKED: USER    DPF = D:/Protein_go_brrr/autodock/final/6BB5/heme_Fe/dock.dpf
DOCKED: USER  
DOCKED: USER    Estimated Free Energy of Binding    =  -10.95 kcal/mol  [=(1)+(2)+(3)-(4)]
DOCKED: USER    Estimated Inhibition Constant, Ki   =    9.38 nM (nanomolar)  [Temperature = 298.15 K]
DOCKED: USER    
DOCKED: USER    (1) Final Intermolecular Energy     =  -13.94 kcal/mol
DOCKED: USER        vdW + Hbond + desolv Energy     =  -12.39 kcal/mol
DOCKED: USER        Electrostatic Energy            =   -1.55 kcal/mol
DOCKED: USER    (2) Final Total Internal Energy     =   -1.53 kcal/mol
DOCKED: USER    (3) Torsional Free Energy           =   +2.98 kcal/mol
DOCKED: USER    (4) Unbound System's Energy  [=(2)] =   -1.53 kcal/mol
DOCKED: USER    
DOCKED: USER    
DOCKED: USER    NEWDPF move heme_Fe_opt.pdbqt
DOCKED: USER    NEWDPF about -0.174000 -0.001000 -0.047000
DOCKED: USER    NEWDPF tran0 8.149044 34.465868 -0.914600
DOCKED: USER    NEWDPF quaternion0 0.386520 0.193571 0.274134 0.859059
DOCKED: USER    NEWDPF axisangle0 0.755105 0.378160 0.535548 61.577736
DOCKED: USER    NEWDPF quat0 0.755105 0.378160 0.535548 61.577736
DOCKED: USER    NEWDPF dihe0 -167.72 -51.10 65.23 -155.15 -0.42 -142.54 58.38 49.73 -133.81 180.00 
DOCKED: USER  keepresnum = 1 
DOCKED: USER  
DOCKED: REMARK  10 active torsions:
DOCKED: REMARK  status: ('A' for Active; 'I' for Inactive)
DOCKED: REMARK    1  A    between atoms: C_6  and  C_10 
DOCKED: REMARK    2  A    between atoms: C_10  and  C_11 
DOCKED: REMARK    3  A    between atoms: C_11  and  C_12 
DOCKED: REMARK    4  A    between atoms: C_12  and  O_14 
DOCKED: REMARK    5  A    between atoms: C_17  and  C_20 
DOCKED: REMARK    6  A    between atoms: C_24  and  C_27 
DOCKED: REMARK    7  A    between atoms: C_31  and  C_34 
DOCKED: REMARK    8  A    between atoms: C_34  and  C_35 
DOCKED: REMARK    9  A    between atoms: C_35  and  C_36 
DOCKED: REMARK   10  A    between atoms: C_36  and  O_38 
DOCKED: USER                              x       y       z     vdW  Elec       q    Type
DOCKED: USER                           _______ _______ _______ _____ _____    ______ ____
DOCKED: ROOT
DOCKED: ATOM      1  C   UNL d   1       6.513  35.480  -1.627 -0.11 +0.01    +0.064 C 
DOCKED: ATOM      2  C   UNL d   1       7.303  32.325   2.095 -0.40 +0.00    +0.064 A 
DOCKED: ATOM      3  C   UNL d   1      12.028  33.018   1.589 -0.37 +0.00    +0.064 C 
DOCKED: ATOM      4  C   UNL d   1      11.291  35.993  -2.084 -0.47 +0.00    +0.064 C 
DOCKED: ATOM      5  C   UNL d   1       6.301  34.463  -0.587 -0.20 +0.01    +0.066 A 
DOCKED: ATOM      6  C   UNL d   1       5.070  33.929  -0.244 -0.29 -0.00    -0.021 A 
DOCKED: ATOM      7  C   UNL d   1       5.289  33.056   0.792 -0.28 -0.00    -0.025 A 
DOCKED: ATOM      8  C   UNL d   1       6.648  33.091   1.042 -0.32 +0.01    +0.066 A 
DOCKED: ATOM      9  C   UNL d   1       4.251  32.226   1.483 -0.12 +0.00    +0.051 C 
DOCKED: ATOM     10  C   UNL d   1       8.617  32.296   2.320 -0.39 +0.00    +0.066 A 
DOCKED: ATOM     11  C   UNL d   1       9.204  31.644   3.407 -0.43 -0.00    -0.021 A 
DOCKED: ATOM     12  C   UNL d   1      10.565  31.843   3.293 -0.40 +0.00    +0.000 A 
DOCKED: ATOM     13  C   UNL d   1      10.740  32.621   2.136 -0.36 +0.00    +0.070 A 
DOCKED: ATOM     14  C   UNL d   1       8.497  30.925   4.537 -0.46 -0.00    +0.052 C 
DOCKED: ATOM     15  C   UNL d   1      12.200  33.810   0.505 -0.37 +0.00    +0.066 A 
DOCKED: ATOM     16  C   UNL d   1      13.446  34.085  -0.045 -0.45 -0.00    -0.021 A 
DOCKED: ATOM     17  C   UNL d   1      13.236  34.945  -1.102 -0.45 +0.00    +0.000 A 
DOCKED: ATOM     18  C   UNL d   1      11.865  35.179  -1.171 -0.35 +0.01    +0.070 A 
DOCKED: ATOM     19  C   UNL d   1      14.785  33.579   0.420 -0.60 +0.00    +0.052 C 
DOCKED: ATOM     20  C   UNL d   1       9.847  36.215  -2.225 -0.39 +0.00    +0.066 A 
DOCKED: ATOM     21  C   UNL d   1       9.254  37.201  -3.027 -0.40 +0.00    -0.025 A 
DOCKED: ATOM     22  C   UNL d   1       7.892  37.028  -2.892 -0.34 -0.00    -0.021 A 
DOCKED: ATOM     23  C   UNL d   1       7.709  35.954  -2.012 -0.17 +0.01    +0.066 A 
DOCKED: ATOM     24  C   UNL d   1       9.924  38.256  -3.876 -0.31 -0.01    +0.051 C 
DOCKED: ATOM     25  N   UNL d   1       7.261  33.941   0.194 -0.07 -0.04    -0.248 N 
DOCKED: ATOM     26  N   UNL d   1       9.553  32.905   1.547 -0.18 -0.02    -0.248 N 
DOCKED: ATOM     27  N   UNL d   1      11.222  34.448  -0.211 +0.02 -0.04    -0.248 N 
DOCKED: ATOM     28  N   UNL d   1       8.905  35.492  -1.574 -0.24 -0.05    -0.248 N 
DOCKED: ATOM     29 FE   UNL d   1       9.230  34.200  -0.015 -0.07 +0.00    +0.000 Fe
DOCKED: ENDROOT
DOCKED: BRANCH   6  30
DOCKED: ATOM     30  C   UNL d   1       3.753  34.216  -0.881 -0.22 +0.01    +0.052 C 
DOCKED: BRANCH  30  31
DOCKED: ATOM     31  C   UNL d   1       3.580  35.713  -1.114 -0.17 +0.04    +0.115 C 
DOCKED: BRANCH  31  32
DOCKED: ATOM     32  C   UNL d   1       2.355  36.218  -0.403 -0.10 +0.09    +0.139 C 
DOCKED: ATOM     33  O   UNL d   1       1.649  35.454   0.241 +0.02 -0.36    -0.650 OA
DOCKED: BRANCH  32  34
DOCKED: ATOM     34  O   UNL d   1       2.024  37.518  -0.471 -0.18 -1.09    -0.776 OA
DOCKED: ATOM     35  H   UNL d   1       2.470  38.083  -1.117 +0.03 +0.20    +0.167 HD
DOCKED: ENDBRANCH  32  34
DOCKED: ENDBRANCH  31  32
DOCKED: ENDBRANCH  30  31
DOCKED: ENDBRANCH   6  30
DOCKED: BRANCH  22  36
DOCKED: ATOM     36  C   UNL d   1       6.829  37.880  -3.534 -0.27 +0.00    +0.052 C 
DOCKED: BRANCH  36  37
DOCKED: ATOM     37  C   UNL d   1       6.597  39.129  -2.697 -0.28 +0.01    +0.115 C 
DOCKED: BRANCH  37  38
DOCKED: ATOM     38  C   UNL d   1       5.132  39.345  -2.446 -0.22 +0.03    +0.139 C 
DOCKED: ATOM     39  O   UNL d   1       4.659  40.472  -2.436 -0.00 -0.22    -0.650 OA
DOCKED: BRANCH  38  40
DOCKED: ATOM     40  O   UNL d   1       4.326  38.291  -2.226 +0.06 -0.28    -0.776 OA
DOCKED: ATOM     41  H   UNL d   1       3.750  38.294  -1.449 +0.04 +0.11    +0.167 HD
DOCKED: ENDBRANCH  38  40
DOCKED: ENDBRANCH  37  38
DOCKED: ENDBRANCH  36  37
DOCKED: ENDBRANCH  22  36
DOCKED: BRANCH  12  42
DOCKED: ATOM     42  C   UNL d   1      11.589  31.327   4.254 -0.44 +0.00    +0.004 C 
DOCKED: ATOM     43  C   UNL d   1      12.470  30.389   3.883 -0.64 +0.00    +0.012 C 
DOCKED: ENDBRANCH  12  42
DOCKED: BRANCH  17  44
DOCKED: ATOM     44  C   UNL d   1      14.278  35.492  -2.001 -0.37 +0.00    +0.004 C 
DOCKED: ATOM     45  C   UNL d   1      14.735  36.738  -1.842 -0.65 +0.00    +0.012 C 
DOCKED: ENDBRANCH  17  44
DOCKED: TORSDOF 10
DOCKED: TER
DOCKED: ENDMDL
________________________________________________________________________________


	BEGINNING GENETIC ALGORITHM DOCKING 59 of 100
Run: 59 Seed: 841859533 1109217846 [ Run 59 of 100 GA/GALS ]
Beginning LAMARCKIAN GENETIC ALGORITHM (LGA), with a maximum of 25000000 energy evaluations.

Final-Value: -18.269


	FINAL GENETIC ALGORITHM DOCKED STATE
	_______________________________________________


Detailed state:  trans 41.728 28.590 15.955 quatxyzw 0.235214 0.098248 -0.951440 0.172577 center -0.174 -0.001 -0.047 ntor 10 -161.8748 4.9601 71.1103 -138.3501 64.0617 163.2824 -10.4000 76.9743 176.0362 158.4272
State:	 41.728  28.590  15.955   0.239  0.100 -0.966 160.125   -161.87    4.96   71.11 -138.35   64.06  163.28  -10.40   76.97  176.04  158.43

DOCKED: MODEL       59
DOCKED: USER    Run = 59
DOCKED: USER    DPF = D:/Protein_go_brrr/autodock/final/6BB5/heme_Fe/dock.dpf
DOCKED: USER  
DOCKED: USER    Estimated Free Energy of Binding    =  -13.01 kcal/mol  [=(1)+(2)+(3)-(4)]
DOCKED: USER    Estimated Inhibition Constant, Ki   =  289.88 pM (picomolar)  [Temperature = 298.15 K]
DOCKED: USER    
DOCKED: USER    (1) Final Intermolecular Energy     =  -15.99 kcal/mol
DOCKED: USER        vdW + Hbond + desolv Energy     =  -13.88 kcal/mol
DOCKED: USER        Electrostatic Energy            =   -2.12 kcal/mol
DOCKED: USER    (2) Final Total Internal Energy     =   -2.27 kcal/mol
DOCKED: USER    (3) Torsional Free Energy           =   +2.98 kcal/mol
DOCKED: USER    (4) Unbound System's Energy  [=(2)] =   -2.27 kcal/mol
DOCKED: USER    
DOCKED: USER    
DOCKED: USER    NEWDPF move heme_Fe_opt.pdbqt
DOCKED: USER    NEWDPF about -0.174000 -0.001000 -0.047000
DOCKED: USER    NEWDPF tran0 41.728155 28.590211 15.954924
DOCKED: USER    NEWDPF quaternion0 0.235214 0.098248 -0.951440 0.172577
DOCKED: USER    NEWDPF axisangle0 0.238797 0.099745 -0.965933 160.124682
DOCKED: USER    NEWDPF quat0 0.238797 0.099745 -0.965933 160.124682
DOCKED: USER    NEWDPF dihe0 -161.87 4.96 71.11 -138.35 64.06 163.28 -10.40 76.97 176.04 158.43 
DOCKED: USER  keepresnum = 1 
DOCKED: USER  
DOCKED: REMARK  10 active torsions:
DOCKED: REMARK  status: ('A' for Active; 'I' for Inactive)
DOCKED: REMARK    1  A    between atoms: C_6  and  C_10 
DOCKED: REMARK    2  A    between atoms: C_10  and  C_11 
DOCKED: REMARK    3  A    between atoms: C_11  and  C_12 
DOCKED: REMARK    4  A    between atoms: C_12  and  O_14 
DOCKED: REMARK    5  A    between atoms: C_17  and  C_20 
DOCKED: REMARK    6  A    between atoms: C_24  and  C_27 
DOCKED: REMARK    7  A    between atoms: C_31  and  C_34 
DOCKED: REMARK    8  A    between atoms: C_34  and  C_35 
DOCKED: REMARK    9  A    between atoms: C_35  and  C_36 
DOCKED: REMARK   10  A    between atoms: C_36  and  O_38 
DOCKED: USER                              x       y       z     vdW  Elec       q    Type
DOCKED: USER                           _______ _______ _______ _____ _____    ______ ____
DOCKED: ROOT
DOCKED: ATOM      1  C   UNL d   1      43.132  27.846  17.253 -0.21 +0.02    +0.064 C 
DOCKED: ATOM      2  C   UNL d   1      41.134  32.298  16.465 -0.42 +0.01    +0.064 A 
DOCKED: ATOM      3  C   UNL d   1      37.664  30.206  13.885 -0.30 +0.01    +0.064 C 
DOCKED: ATOM      4  C   UNL d   1      39.641  25.901  14.547 -0.46 +0.01    +0.064 C 
DOCKED: ATOM      5  C   UNL d   1      42.938  29.302  17.201 -0.27 +0.02    +0.066 A 
DOCKED: ATOM      6  C   UNL d   1      43.808  30.235  17.740 -0.29 -0.01    -0.021 A 
DOCKED: ATOM      7  C   UNL d   1      43.250  31.471  17.524 -0.26 -0.00    -0.025 A 
DOCKED: ATOM      8  C   UNL d   1      42.060  31.244  16.860 -0.36 +0.01    +0.066 A 
DOCKED: ATOM      9  C   UNL d   1      43.843  32.789  17.920 -0.25 +0.01    +0.051 C 
DOCKED: ATOM     10  C   UNL d   1      40.008  32.111  15.774 -0.37 +0.01    +0.066 A 
DOCKED: ATOM     11  C   UNL d   1      39.084  33.124  15.509 -0.41 -0.00    -0.021 A 
DOCKED: ATOM     12  C   UNL d   1      38.065  32.543  14.781 -0.39 +0.00    +0.000 A 
DOCKED: ATOM     13  C   UNL d   1      38.420  31.190  14.644 -0.35 +0.01    +0.070 A 
DOCKED: ATOM     14  C   UNL d   1      39.134  34.562  15.987 -0.54 +0.00    +0.052 C 
DOCKED: ATOM     15  C   UNL d   1      37.974  28.892  13.793 -0.33 +0.01    +0.066 A 
DOCKED: ATOM     16  C   UNL d   1      37.284  28.004  12.978 -0.46 -0.00    -0.021 A 
DOCKED: ATOM     17  C   UNL d   1      37.850  26.761  13.170 -0.45 +0.00    +0.000 A 
DOCKED: ATOM     18  C   UNL d   1      38.872  26.919  14.103 -0.36 +0.01    +0.070 A 
DOCKED: ATOM     19  C   UNL d   1      36.120  28.305  12.072 -0.65 +0.00    +0.052 C 
DOCKED: ATOM     20  C   UNL d   1      40.764  26.039  15.481 -0.39 +0.01    +0.066 A 
DOCKED: ATOM     21  C   UNL d   1      41.437  24.977  16.102 -0.38 -0.00    -0.025 A 
DOCKED: ATOM     22  C   UNL d   1      42.437  25.554  16.858 -0.34 -0.00    -0.021 A 
DOCKED: ATOM     23  C   UNL d   1      42.330  26.938  16.676 -0.27 +0.02    +0.066 A 
DOCKED: ATOM     24  C   UNL d   1      41.160  23.495  15.998 -0.50 +0.00    +0.051 C 
DOCKED: ATOM     25  N   UNL d   1      41.878  29.924  16.656 -0.23 -0.05    -0.248 N 
DOCKED: ATOM     26  N   UNL d   1      39.600  30.924  15.256 -0.20 -0.05    -0.248 N 
DOCKED: ATOM     27  N   UNL d   1      38.978  28.236  14.454 -0.07 -0.07    -0.248 N 
DOCKED: ATOM     28  N   UNL d   1      41.280  27.230  15.870 -0.25 -0.05    -0.248 N 
DOCKED: ATOM     29 FE   UNL d   1      40.440  29.075  15.563 -0.09 +0.00    +0.000 Fe
DOCKED: ENDROOT
DOCKED: BRANCH   6  30
DOCKED: ATOM     30  C   UNL d   1      45.113  29.971  18.409 -0.24 +0.02    +0.052 C 
DOCKED: BRANCH  30  31
DOCKED: ATOM     31  C   UNL d   1      44.938  29.885  19.921 -0.13 +0.08    +0.115 C 
DOCKED: BRANCH  31  32
DOCKED: ATOM     32  C   UNL d   1      46.195  29.372  20.568 -0.11 +0.13    +0.139 C 
DOCKED: ATOM     33  O   UNL d   1      47.234  30.016  20.509 -0.01 -0.38    -0.650 OA
DOCKED: BRANCH  32  34
DOCKED: ATOM     34  O   UNL d   1      46.188  28.197  21.219 -0.47 -1.27    -0.776 OA
DOCKED: ATOM     35  H   UNL d   1      45.470  27.571  21.051 +0.03 +0.28    +0.167 HD
DOCKED: ENDBRANCH  32  34
DOCKED: ENDBRANCH  31  32
DOCKED: ENDBRANCH  30  31
DOCKED: ENDBRANCH   6  30
DOCKED: BRANCH  22  36
DOCKED: ATOM     36  C   UNL d   1      43.406  24.816  17.744 -0.30 +0.02    +0.052 C 
DOCKED: BRANCH  36  37
DOCKED: ATOM     37  C   UNL d   1      43.010  24.999  19.202 -0.34 +0.04    +0.115 C 
DOCKED: BRANCH  37  38
DOCKED: ATOM     38  C   UNL d   1      43.911  25.988  19.885 -0.23 +0.08    +0.139 C 
DOCKED: ATOM     39  O   UNL d   1      43.587  26.500  20.947 -0.23 -0.70    -0.650 OA
DOCKED: BRANCH  38  40
DOCKED: ATOM     40  O   UNL d   1      45.088  26.321  19.326 +0.08 -0.45    -0.776 OA
DOCKED: ATOM     41  H   UNL d   1      45.689  26.906  19.809 +0.05 +0.12    +0.167 HD
DOCKED: ENDBRANCH  38  40
DOCKED: ENDBRANCH  37  38
DOCKED: ENDBRANCH  36  37
DOCKED: ENDBRANCH  22  36
DOCKED: BRANCH  12  42
DOCKED: ATOM     42  C   UNL d   1      36.849  33.261  14.287 -0.46 +0.00    +0.004 C 
DOCKED: ATOM     43  C   UNL d   1      36.584  33.346  12.977 -0.53 +0.00    +0.012 C 
DOCKED: ENDBRANCH  12  42
DOCKED: BRANCH  17  44
DOCKED: ATOM     44  C   UNL d   1      37.452  25.508  12.490 -0.44 +0.00    +0.004 C 
DOCKED: ATOM     45  C   UNL d   1      36.439  24.769  12.953 -0.68 +0.00    +0.012 C 
DOCKED: ENDBRANCH  17  44
DOCKED: TORSDOF 10
DOCKED: TER
DOCKED: ENDMDL
________________________________________________________________________________


	BEGINNING GENETIC ALGORITHM DOCKING 60 of 100
Run: 60 Seed: 1294496535 2094805686 [ Run 60 of 100 GA/GALS ]
Beginning LAMARCKIAN GENETIC ALGORITHM (LGA), with a maximum of 25000000 energy evaluations.

Final-Value: -15.292


	FINAL GENETIC ALGORITHM DOCKED STATE
	_______________________________________________


Detailed state:  trans 42.220 28.165 17.233 quatxyzw 0.113170 0.948326 0.062060 -0.289859 center -0.174 -0.001 -0.047 ntor 10 67.6178 139.8497 179.3161 -101.6889 -4.5554 129.8081 47.3101 -79.9648 177.1941 -26.3908
State:	 42.220  28.165  17.233   0.118  0.991  0.065 -146.301     67.62  139.85  179.32 -101.69   -4.56  129.81   47.31  -79.96  177.19  -26.39

DOCKED: MODEL       60
DOCKED: USER    Run = 60
DOCKED: USER    DPF = D:/Protein_go_brrr/autodock/final/6BB5/heme_Fe/dock.dpf
DOCKED: USER  
DOCKED: USER    Estimated Free Energy of Binding    =  -11.76 kcal/mol  [=(1)+(2)+(3)-(4)]
DOCKED: USER    Estimated Inhibition Constant, Ki   =    2.39 nM (nanomolar)  [Temperature = 298.15 K]
DOCKED: USER    
DOCKED: USER    (1) Final Intermolecular Energy     =  -14.75 kcal/mol
DOCKED: USER        vdW + Hbond + desolv Energy     =  -12.07 kcal/mol
DOCKED: USER        Electrostatic Energy            =   -2.68 kcal/mol
DOCKED: USER    (2) Final Total Internal Energy     =   -0.55 kcal/mol
DOCKED: USER    (3) Torsional Free Energy           =   +2.98 kcal/mol
DOCKED: USER    (4) Unbound System's Energy  [=(2)] =   -0.55 kcal/mol
DOCKED: USER    
DOCKED: USER    
DOCKED: USER    NEWDPF move heme_Fe_opt.pdbqt
DOCKED: USER    NEWDPF about -0.174000 -0.001000 -0.047000
DOCKED: USER    NEWDPF tran0 42.219814 28.165405 17.232708
DOCKED: USER    NEWDPF quaternion0 0.113170 0.948326 0.062060 -0.289859
DOCKED: USER    NEWDPF axisangle0 0.118247 0.990865 0.064844 -146.300999
DOCKED: USER    NEWDPF quat0 0.118247 0.990865 0.064844 -146.300999
DOCKED: USER    NEWDPF dihe0 67.62 139.85 179.32 -101.69 -4.56 129.81 47.31 -79.96 177.19 -26.39 
DOCKED: USER  keepresnum = 1 
DOCKED: USER  
DOCKED: REMARK  10 active torsions:
DOCKED: REMARK  status: ('A' for Active; 'I' for Inactive)
DOCKED: REMARK    1  A    between atoms: C_6  and  C_10 
DOCKED: REMARK    2  A    between atoms: C_10  and  C_11 
DOCKED: REMARK    3  A    between atoms: C_11  and  C_12 
DOCKED: REMARK    4  A    between atoms: C_12  and  O_14 
DOCKED: REMARK    5  A    between atoms: C_17  and  C_20 
DOCKED: REMARK    6  A    between atoms: C_24  and  C_27 
DOCKED: REMARK    7  A    between atoms: C_31  and  C_34 
DOCKED: REMARK    8  A    between atoms: C_34  and  C_35 
DOCKED: REMARK    9  A    between atoms: C_35  and  C_36 
DOCKED: REMARK   10  A    between atoms: C_36  and  O_38 
DOCKED: USER                              x       y       z     vdW  Elec       q    Type
DOCKED: USER                           _______ _______ _______ _____ _____    ______ ____
DOCKED: ROOT
DOCKED: ATOM      1  C   UNL d   1      44.107  27.640  17.845 -0.23 +0.02    +0.064 C 
DOCKED: ATOM      2  C   UNL d   1      40.458  25.331  15.439 -0.34 +0.01    +0.064 A 
DOCKED: ATOM      3  C   UNL d   1      38.352  29.582  14.694 -0.36 +0.01    +0.064 C 
DOCKED: ATOM      4  C   UNL d   1      41.818  31.826  17.110 -0.47 +0.01    +0.064 C 
DOCKED: ATOM      5  C   UNL d   1      43.233  26.587  17.309 -0.24 +0.02    +0.066 A 
DOCKED: ATOM      6  C   UNL d   1      43.462  25.227  17.438 -0.27 -0.01    -0.021 A 
DOCKED: ATOM      7  C   UNL d   1      42.450  24.586  16.766 -0.35 -0.01    -0.025 A 
DOCKED: ATOM      8  C   UNL d   1      41.641  25.581  16.253 -0.36 +0.01    +0.066 A 
DOCKED: ATOM      9  C   UNL d   1      42.270  23.104  16.647 -0.46 +0.01    +0.051 C 
DOCKED: ATOM     10  C   UNL d   1      39.629  26.269  14.979 -0.36 +0.01    +0.066 A 
DOCKED: ATOM     11  C   UNL d   1      38.570  26.008  14.107 -0.43 -0.00    -0.021 A 
DOCKED: ATOM     12  C   UNL d   1      37.956  27.220  13.864 -0.42 +0.00    +0.000 A 
DOCKED: ATOM     13  C   UNL d   1      38.685  28.170  14.601 -0.15 +0.02    +0.070 A 
DOCKED: ATOM     14  C   UNL d   1      38.201  24.678  13.481 -0.53 +0.01    +0.052 C 
DOCKED: ATOM     15  C   UNL d   1      39.080  30.509  15.361 -0.29 +0.01    +0.066 A 
DOCKED: ATOM     16  C   UNL d   1      38.674  31.829  15.510 -0.33 -0.00    -0.021 A 
DOCKED: ATOM     17  C   UNL d   1      39.674  32.479  16.203 -0.33 +0.00    +0.000 A 
DOCKED: ATOM     18  C   UNL d   1      40.670  31.539  16.458 -0.35 +0.01    +0.070 A 
DOCKED: ATOM     19  C   UNL d   1      37.409  32.464  15.000 -0.29 +0.00    +0.052 C 
DOCKED: ATOM     20  C   UNL d   1      42.860  30.850  17.450 -0.32 +0.01    +0.066 A 
DOCKED: ATOM     21  C   UNL d   1      44.134  31.164  17.943 -0.25 -0.01    -0.025 A 
DOCKED: ATOM     22  C   UNL d   1      44.765  29.956  18.157 -0.24 -0.01    -0.021 A 
DOCKED: ATOM     23  C   UNL d   1      43.858  28.957  17.782 -0.23 +0.02    +0.066 A 
DOCKED: ATOM     24  C   UNL d   1      44.737  32.526  18.199 -0.20 +0.01    +0.051 C 
DOCKED: ATOM     25  N   UNL d   1      42.114  26.797  16.592 -0.22 -0.06    -0.248 N 
DOCKED: ATOM     26  N   UNL d   1      39.711  27.592  15.274 -0.22 -0.07    -0.248 N 
DOCKED: ATOM     27  N   UNL d   1      40.287  30.317  15.979 -0.18 -0.06    -0.248 N 
DOCKED: ATOM     28  N   UNL d   1      42.715  29.510  17.309 -0.18 -0.06    -0.248 N 
DOCKED: ATOM     29 FE   UNL d   1      41.213  28.553  16.292 -0.08 +0.00    +0.000 Fe
DOCKED: ENDROOT
DOCKED: BRANCH   6  30
DOCKED: ATOM     30  C   UNL d   1      44.573  24.566  18.180 -0.21 +0.02    +0.052 C 
DOCKED: BRANCH  30  31
DOCKED: ATOM     31  C   UNL d   1      45.743  24.270  17.248 -0.19 +0.06    +0.115 C 
DOCKED: BRANCH  31  32
DOCKED: ATOM     32  C   UNL d   1      46.223  22.858  17.439 -0.16 +0.09    +0.139 C 
DOCKED: ATOM     33  O   UNL d   1      45.743  22.149  18.312 +0.01 -0.31    -0.650 OA
DOCKED: BRANCH  32  34
DOCKED: ATOM     34  O   UNL d   1      47.189  22.361  16.648 -0.16 -1.07    -0.776 OA
DOCKED: ATOM     35  H   UNL d   1      46.969  21.653  16.026 +0.03 +0.25    +0.167 HD
DOCKED: ENDBRANCH  32  34
DOCKED: ENDBRANCH  31  32
DOCKED: ENDBRANCH  30  31
DOCKED: ENDBRANCH   6  30
DOCKED: BRANCH  22  36
DOCKED: ATOM     36  C   UNL d   1      46.177  29.775  18.649 -0.17 +0.02    +0.052 C 
DOCKED: BRANCH  36  37
DOCKED: ATOM     37  C   UNL d   1      46.266  30.176  20.114 -0.15 +0.07    +0.115 C 
DOCKED: BRANCH  37  38
DOCKED: ATOM     38  C   UNL d   1      46.221  28.968  21.006 +0.12 +0.18    +0.139 C 
DOCKED: ATOM     39  O   UNL d   1      47.057  28.807  21.883 -0.39 -0.96    -0.650 OA
DOCKED: BRANCH  38  40
DOCKED: ATOM     40  O   UNL d   1      45.254  28.048  20.841 -0.07 -1.18    -0.776 OA
DOCKED: ATOM     41  H   UNL d   1      44.352  28.342  20.650 +0.04 +0.21    +0.167 HD
DOCKED: ENDBRANCH  38  40
DOCKED: ENDBRANCH  37  38
DOCKED: ENDBRANCH  36  37
DOCKED: ENDBRANCH  22  36
DOCKED: BRANCH  12  42
DOCKED: ATOM     42  C   UNL d   1      36.773  27.417  12.970 -0.56 +0.00    +0.004 C 
DOCKED: ATOM     43  C   UNL d   1      36.752  28.402  12.062 -0.64 +0.00    +0.012 C 
DOCKED: ENDBRANCH  12  42
DOCKED: BRANCH  17  44
DOCKED: ATOM     44  C   UNL d   1      39.668  33.901  16.614 -0.36 +0.00    +0.004 C 
DOCKED: ATOM     45  C   UNL d   1      39.343  34.863  15.744 -0.54 +0.00    +0.012 C 
DOCKED: ENDBRANCH  17  44
DOCKED: TORSDOF 10
DOCKED: TER
DOCKED: ENDMDL
________________________________________________________________________________


	BEGINNING GENETIC ALGORITHM DOCKING 61 of 100
Run: 61 Seed: 607222457 697426219 [ Run 61 of 100 GA/GALS ]
Beginning LAMARCKIAN GENETIC ALGORITHM (LGA), with a maximum of 25000000 energy evaluations.

Final-Value: -13.793


	FINAL GENETIC ALGORITHM DOCKED STATE
	_______________________________________________


Detailed state:  trans 40.326 29.933 16.267 quatxyzw 0.586201 -0.746631 0.112876 0.293547 center -0.174 -0.001 -0.047 ntor 10 -67.4639 -63.3966 166.7738 175.0736 -89.0185 -155.3092 51.7224 -33.8941 145.2567 161.2052
State:	 40.326  29.933  16.267   0.613 -0.781  0.118 145.859    -67.46  -63.40  166.77  175.07  -89.02 -155.31   51.72  -33.89  145.26  161.21

DOCKED: MODEL       61
DOCKED: USER    Run = 61
DOCKED: USER    DPF = D:/Protein_go_brrr/autodock/final/6BB5/heme_Fe/dock.dpf
DOCKED: USER  
DOCKED: USER    Estimated Free Energy of Binding    =  -10.30 kcal/mol  [=(1)+(2)+(3)-(4)]
DOCKED: USER    Estimated Inhibition Constant, Ki   =   28.32 nM (nanomolar)  [Temperature = 298.15 K]
DOCKED: USER    
DOCKED: USER    (1) Final Intermolecular Energy     =  -13.28 kcal/mol
DOCKED: USER        vdW + Hbond + desolv Energy     =  -12.89 kcal/mol
DOCKED: USER        Electrostatic Energy            =   -0.39 kcal/mol
DOCKED: USER    (2) Final Total Internal Energy     =   -0.51 kcal/mol
DOCKED: USER    (3) Torsional Free Energy           =   +2.98 kcal/mol
DOCKED: USER    (4) Unbound System's Energy  [=(2)] =   -0.51 kcal/mol
DOCKED: USER    
DOCKED: USER    
DOCKED: USER    NEWDPF move heme_Fe_opt.pdbqt
DOCKED: USER    NEWDPF about -0.174000 -0.001000 -0.047000
DOCKED: USER    NEWDPF tran0 40.325970 29.933303 16.267171
DOCKED: USER    NEWDPF quaternion0 0.586201 -0.746631 0.112876 0.293547
DOCKED: USER    NEWDPF axisangle0 0.613216 -0.781040 0.118078 145.859199
DOCKED: USER    NEWDPF quat0 0.613216 -0.781040 0.118078 145.859199
DOCKED: USER    NEWDPF dihe0 -67.46 -63.40 166.77 175.07 -89.02 -155.31 51.72 -33.89 145.26 161.21 
DOCKED: USER  keepresnum = 1 
DOCKED: USER  
DOCKED: REMARK  10 active torsions:
DOCKED: REMARK  status: ('A' for Active; 'I' for Inactive)
DOCKED: REMARK    1  A    between atoms: C_6  and  C_10 
DOCKED: REMARK    2  A    between atoms: C_10  and  C_11 
DOCKED: REMARK    3  A    between atoms: C_11  and  C_12 
DOCKED: REMARK    4  A    between atoms: C_12  and  O_14 
DOCKED: REMARK    5  A    between atoms: C_17  and  C_20 
DOCKED: REMARK    6  A    between atoms: C_24  and  C_27 
DOCKED: REMARK    7  A    between atoms: C_31  and  C_34 
DOCKED: REMARK    8  A    between atoms: C_34  and  C_35 
DOCKED: REMARK    9  A    between atoms: C_35  and  C_36 
DOCKED: REMARK   10  A    between atoms: C_36  and  O_38 
DOCKED: USER                              x       y       z     vdW  Elec       q    Type
DOCKED: USER                           _______ _______ _______ _____ _____    ______ ____
DOCKED: ROOT
DOCKED: ATOM      1  C   UNL d   1      40.955  31.875  16.477 -0.46 +0.01    +0.064 C 
DOCKED: ATOM      2  C   UNL d   1      43.022  27.447  17.220 -0.17 +0.02    +0.064 A 
DOCKED: ATOM      3  C   UNL d   1      39.466  25.440  14.691 -0.43 +0.01    +0.064 C 
DOCKED: ATOM      4  C   UNL d   1      37.393  29.703  14.049 -0.01 +0.01    +0.064 C 
DOCKED: ATOM      5  C   UNL d   1      41.822  30.806  16.991 -0.36 +0.01    +0.066 A 
DOCKED: ATOM      6  C   UNL d   1      42.889  30.998  17.853 -0.37 -0.00    -0.021 A 
DOCKED: ATOM      7  C   UNL d   1      43.465  29.769  18.055 -0.28 -0.01    -0.025 A 
DOCKED: ATOM      8  C   UNL d   1      42.726  28.871  17.309 -0.02 +0.02    +0.066 A 
DOCKED: ATOM      9  C   UNL d   1      44.645  29.480  18.932 -0.27 +0.02    +0.051 C 
DOCKED: ATOM     10  C   UNL d   1      42.292  26.551  16.554 -0.31 +0.01    +0.066 A 
DOCKED: ATOM     11  C   UNL d   1      42.664  25.215  16.391 -0.27 -0.00    -0.021 A 
DOCKED: ATOM     12  C   UNL d   1      41.663  24.618  15.651 -0.38 +0.00    +0.000 A 
DOCKED: ATOM     13  C   UNL d   1      40.727  25.633  15.390 -0.38 +0.01    +0.070 A 
DOCKED: ATOM     14  C   UNL d   1      43.945  24.554  16.860 -0.25 +0.02    +0.052 C 
DOCKED: ATOM     15  C   UNL d   1      38.586  26.424  14.392 -0.37 +0.01    +0.066 A 
DOCKED: ATOM     16  C   UNL d   1      37.348  26.184  13.811 -0.43 -0.00    -0.021 A 
DOCKED: ATOM     17  C   UNL d   1      36.749  27.413  13.622 -0.44 +0.00    +0.000 A 
DOCKED: ATOM     18  C   UNL d   1      37.640  28.376  14.089 -0.35 +0.01    +0.070 A 
DOCKED: ATOM     19  C   UNL d   1      36.757  24.855  13.424 -0.60 +0.01    +0.052 C 
DOCKED: ATOM     20  C   UNL d   1      38.280  30.742  14.587 -0.34 +0.01    +0.066 A 
DOCKED: ATOM     21  C   UNL d   1      38.134  32.120  14.376 -0.38 -0.00    -0.025 A 
DOCKED: ATOM     22  C   UNL d   1      39.152  32.721  15.088 -0.41 -0.00    -0.021 A 
DOCKED: ATOM     23  C   UNL d   1      39.879  31.690  15.696 -0.35 +0.01    +0.066 A 
DOCKED: ATOM     24  C   UNL d   1      37.098  32.844  13.548 -0.44 +0.00    +0.051 C 
DOCKED: ATOM     25  N   UNL d   1      41.721  29.504  16.671 -0.22 -0.06    -0.248 N 
DOCKED: ATOM     26  N   UNL d   1      41.114  26.814  15.933 -0.27 -0.05    -0.248 N 
DOCKED: ATOM     27  N   UNL d   1      38.751  27.767  14.603 -0.21 -0.06    -0.248 N 
DOCKED: ATOM     28  N   UNL d   1      39.369  30.483  15.350 -0.17 -0.06    -0.248 N 
DOCKED: ATOM     29 FE   UNL d   1      40.240  28.649  15.641 -0.09 +0.00    +0.000 Fe
DOCKED: ENDROOT
DOCKED: BRANCH   6  30
DOCKED: ATOM     30  C   UNL d   1      43.329  32.282  18.470 -0.42 +0.01    +0.052 C 
DOCKED: BRANCH  30  31
DOCKED: ATOM     31  C   UNL d   1      44.801  32.547  18.174 -0.15 +0.02    +0.115 C 
DOCKED: BRANCH  31  32
DOCKED: ATOM     32  C   UNL d   1      45.549  32.843  19.444 -0.21 +0.03    +0.139 C 
DOCKED: ATOM     33  O   UNL d   1      45.637  33.988  19.864 +0.02 -0.09    -0.650 OA
DOCKED: BRANCH  32  34
DOCKED: ATOM     34  O   UNL d   1      46.130  31.846  20.132 +0.03 -0.29    -0.776 OA
DOCKED: ATOM     35  H   UNL d   1      47.096  31.811  20.183 +0.03 +0.06    +0.167 HD
DOCKED: ENDBRANCH  32  34
DOCKED: ENDBRANCH  31  32
DOCKED: ENDBRANCH  30  31
DOCKED: ENDBRANCH   6  30
DOCKED: BRANCH  22  36
DOCKED: ATOM     36  C   UNL d   1      39.438  34.199  15.138 -0.52 +0.00    +0.052 C 
DOCKED: BRANCH  36  37
DOCKED: ATOM     37  C   UNL d   1      40.607  34.527  14.222 -0.42 +0.01    +0.115 C 
DOCKED: BRANCH  37  38
DOCKED: ATOM     38  C   UNL d   1      40.428  35.875  13.581 -0.34 +0.01    +0.139 C 
DOCKED: ATOM     39  O   UNL d   1      40.973  36.140  12.520 +0.20 -0.06    -0.650 OA
DOCKED: BRANCH  38  40
DOCKED: ATOM     40  O   UNL d   1      39.663  36.805  14.179 +0.02 -0.05    -0.776 OA
DOCKED: ATOM     41  H   UNL d   1      40.073  37.628  14.482 +0.10 +0.00    +0.167 HD
DOCKED: ENDBRANCH  38  40
DOCKED: ENDBRANCH  37  38
DOCKED: ENDBRANCH  36  37
DOCKED: ENDBRANCH  22  36
DOCKED: BRANCH  12  42
DOCKED: ATOM     42  C   UNL d   1      41.651  23.183  15.228 -0.51 +0.00    +0.004 C 
DOCKED: ATOM     43  C   UNL d   1      41.127  22.816  14.051 -0.45 +0.00    +0.012 C 
DOCKED: ENDBRANCH  12  42
DOCKED: BRANCH  17  44
DOCKED: ATOM     44  C   UNL d   1      35.404  27.648  13.051 -0.61 +0.00    +0.004 C 
DOCKED: ATOM     45  C   UNL d   1      35.221  28.548  12.079 -0.64 +0.00    +0.012 C 
DOCKED: ENDBRANCH  17  44
DOCKED: TORSDOF 10
DOCKED: TER
DOCKED: ENDMDL
________________________________________________________________________________


	BEGINNING GENETIC ALGORITHM DOCKING 62 of 100
Run: 62 Seed: 2070678864 403430827 [ Run 62 of 100 GA/GALS ]
Beginning LAMARCKIAN GENETIC ALGORITHM (LGA), with a maximum of 25000000 energy evaluations.

Final-Value: -15.835


	FINAL GENETIC ALGORITHM DOCKED STATE
	_______________________________________________


Detailed state:  trans 8.097 34.468 -0.917 quatxyzw -0.386322 -0.192970 -0.274051 -0.859310 center -0.174 -0.001 -0.047 ntor 10 -156.0587 -51.3524 65.7625 -149.5308 -29.7051 -171.1793 61.3649 45.3121 -119.9666 168.9163
State:	  8.097  34.468  -0.917  -0.755 -0.377 -0.536 -61.522   -156.06  -51.35   65.76 -149.53  -29.71 -171.18   61.36   45.31 -119.97  168.92

DOCKED: MODEL       62
DOCKED: USER    Run = 62
DOCKED: USER    DPF = D:/Protein_go_brrr/autodock/final/6BB5/heme_Fe/dock.dpf
DOCKED: USER  
DOCKED: USER    Estimated Free Energy of Binding    =  -11.03 kcal/mol  [=(1)+(2)+(3)-(4)]
DOCKED: USER    Estimated Inhibition Constant, Ki   =    8.16 nM (nanomolar)  [Temperature = 298.15 K]
DOCKED: USER    
DOCKED: USER    (1) Final Intermolecular Energy     =  -14.02 kcal/mol
DOCKED: USER        vdW + Hbond + desolv Energy     =  -12.44 kcal/mol
DOCKED: USER        Electrostatic Energy            =   -1.58 kcal/mol
DOCKED: USER    (2) Final Total Internal Energy     =   -1.82 kcal/mol
DOCKED: USER    (3) Torsional Free Energy           =   +2.98 kcal/mol
DOCKED: USER    (4) Unbound System's Energy  [=(2)] =   -1.82 kcal/mol
DOCKED: USER    
DOCKED: USER    
DOCKED: USER    NEWDPF move heme_Fe_opt.pdbqt
DOCKED: USER    NEWDPF about -0.174000 -0.001000 -0.047000
DOCKED: USER    NEWDPF tran0 8.096580 34.467677 -0.916958
DOCKED: USER    NEWDPF quaternion0 -0.386322 -0.192970 -0.274051 -0.859310
DOCKED: USER    NEWDPF axisangle0 -0.755340 -0.377296 -0.535827 -61.521628
DOCKED: USER    NEWDPF quat0 -0.755340 -0.377296 -0.535827 -61.521628
DOCKED: USER    NEWDPF dihe0 -156.06 -51.35 65.76 -149.53 -29.71 -171.18 61.36 45.31 -119.97 168.92 
DOCKED: USER  keepresnum = 1 
DOCKED: USER  
DOCKED: REMARK  10 active torsions:
DOCKED: REMARK  status: ('A' for Active; 'I' for Inactive)
DOCKED: REMARK    1  A    between atoms: C_6  and  C_10 
DOCKED: REMARK    2  A    between atoms: C_10  and  C_11 
DOCKED: REMARK    3  A    between atoms: C_11  and  C_12 
DOCKED: REMARK    4  A    between atoms: C_12  and  O_14 
DOCKED: REMARK    5  A    between atoms: C_17  and  C_20 
DOCKED: REMARK    6  A    between atoms: C_24  and  C_27 
DOCKED: REMARK    7  A    between atoms: C_31  and  C_34 
DOCKED: REMARK    8  A    between atoms: C_34  and  C_35 
DOCKED: REMARK    9  A    between atoms: C_35  and  C_36 
DOCKED: REMARK   10  A    between atoms: C_36  and  O_38 
DOCKED: USER                              x       y       z     vdW  Elec       q    Type
DOCKED: USER                           _______ _______ _______ _____ _____    ______ ____
DOCKED: ROOT
DOCKED: ATOM      1  C   UNL d   1       6.460  35.482  -1.627 -0.09 +0.01    +0.064 C 
DOCKED: ATOM      2  C   UNL d   1       7.253  32.324   2.092 -0.40 +0.00    +0.064 A 
DOCKED: ATOM      3  C   UNL d   1      11.978  33.018   1.581 -0.38 +0.00    +0.064 C 
DOCKED: ATOM      4  C   UNL d   1      11.238  35.996  -2.088 -0.47 +0.00    +0.064 C 
DOCKED: ATOM      5  C   UNL d   1       6.249  34.465  -0.588 -0.20 +0.01    +0.066 A 
DOCKED: ATOM      6  C   UNL d   1       5.018  33.931  -0.243 -0.28 -0.00    -0.021 A 
DOCKED: ATOM      7  C   UNL d   1       5.239  33.057   0.792 -0.28 -0.00    -0.025 A 
DOCKED: ATOM      8  C   UNL d   1       6.597  33.091   1.040 -0.32 +0.01    +0.066 A 
DOCKED: ATOM      9  C   UNL d   1       4.201  32.227   1.483 -0.13 +0.00    +0.051 C 
DOCKED: ATOM     10  C   UNL d   1       8.568  32.296   2.315 -0.39 +0.00    +0.066 A 
DOCKED: ATOM     11  C   UNL d   1       9.156  31.642   3.401 -0.44 -0.00    -0.021 A 
DOCKED: ATOM     12  C   UNL d   1      10.517  31.842   3.286 -0.41 +0.00    +0.000 A 
DOCKED: ATOM     13  C   UNL d   1      10.691  32.620   2.129 -0.36 +0.00    +0.070 A 
DOCKED: ATOM     14  C   UNL d   1       8.450  30.922   4.532 -0.45 -0.00    +0.052 C 
DOCKED: ATOM     15  C   UNL d   1      12.149  33.810   0.497 -0.36 +0.00    +0.066 A 
DOCKED: ATOM     16  C   UNL d   1      13.394  34.085  -0.053 -0.45 -0.00    -0.021 A 
DOCKED: ATOM     17  C   UNL d   1      13.183  34.947  -1.110 -0.45 +0.00    +0.000 A 
DOCKED: ATOM     18  C   UNL d   1      11.812  35.181  -1.176 -0.34 +0.01    +0.070 A 
DOCKED: ATOM     19  C   UNL d   1      14.734  33.579   0.409 -0.60 +0.00    +0.052 C 
DOCKED: ATOM     20  C   UNL d   1       9.794  36.218  -2.228 -0.39 +0.00    +0.066 A 
DOCKED: ATOM     21  C   UNL d   1       9.200  37.204  -3.028 -0.40 +0.00    -0.025 A 
DOCKED: ATOM     22  C   UNL d   1       7.838  37.031  -2.892 -0.34 -0.00    -0.021 A 
DOCKED: ATOM     23  C   UNL d   1       7.655  35.957  -2.013 -0.16 +0.01    +0.066 A 
DOCKED: ATOM     24  C   UNL d   1       9.869  38.260  -3.877 -0.32 -0.01    +0.051 C 
DOCKED: ATOM     25  N   UNL d   1       7.210  33.942   0.193 -0.09 -0.03    -0.248 N 
DOCKED: ATOM     26  N   UNL d   1       9.503  32.905   1.541 -0.18 -0.02    -0.248 N 
DOCKED: ATOM     27  N   UNL d   1      11.171  34.449  -0.217 +0.05 -0.04    -0.248 N 
DOCKED: ATOM     28  N   UNL d   1       8.852  35.494  -1.576 -0.24 -0.05    -0.248 N 
DOCKED: ATOM     29 FE   UNL d   1       9.178  34.200  -0.018 -0.07 +0.00    +0.000 Fe
DOCKED: ENDROOT
DOCKED: BRANCH   6  30
DOCKED: ATOM     30  C   UNL d   1       3.701  34.218  -0.878 -0.22 +0.01    +0.052 C 
DOCKED: BRANCH  30  31
DOCKED: ATOM     31  C   UNL d   1       3.661  35.643  -1.419 -0.17 +0.03    +0.115 C 
DOCKED: BRANCH  31  32
DOCKED: ATOM     32  C   UNL d   1       2.580  36.435  -0.735 -0.14 +0.09    +0.139 C 
DOCKED: ATOM     33  O   UNL d   1       1.571  35.882  -0.319 -0.02 -0.41    -0.650 OA
DOCKED: BRANCH  32  34
DOCKED: ATOM     34  O   UNL d   1       2.714  37.762  -0.576 -0.27 -0.97    -0.776 OA
DOCKED: ATOM     35  H   UNL d   1       3.295  38.251  -1.176 +0.04 +0.15    +0.167 HD
DOCKED: ENDBRANCH  32  34
DOCKED: ENDBRANCH  31  32
DOCKED: ENDBRANCH  30  31
DOCKED: ENDBRANCH   6  30
DOCKED: BRANCH  22  36
DOCKED: ATOM     36  C   UNL d   1       6.774  37.884  -3.532 -0.27 +0.00    +0.052 C 
DOCKED: BRANCH  36  37
DOCKED: ATOM     37  C   UNL d   1       6.348  38.982  -2.569 -0.20 +0.01    +0.115 C 
DOCKED: BRANCH  37  38
DOCKED: ATOM     38  C   UNL d   1       4.852  39.123  -2.541 -0.18 +0.04    +0.139 C 
DOCKED: ATOM     39  O   UNL d   1       4.322  40.053  -1.952 -0.03 -0.30    -0.650 OA
DOCKED: BRANCH  38  40
DOCKED: ATOM     40  O   UNL d   1       4.081  38.215  -3.166 +0.06 -0.22    -0.776 OA
DOCKED: ATOM     41  H   UNL d   1       3.358  37.797  -2.678 +0.04 +0.07    +0.167 HD
DOCKED: ENDBRANCH  38  40
DOCKED: ENDBRANCH  37  38
DOCKED: ENDBRANCH  36  37
DOCKED: ENDBRANCH  22  36
DOCKED: BRANCH  12  42
DOCKED: ATOM     42  C   UNL d   1      11.542  31.324   4.245 -0.45 +0.00    +0.004 C 
DOCKED: ATOM     43  C   UNL d   1      12.429  30.394   3.870 -0.64 +0.00    +0.012 C 
DOCKED: ENDBRANCH  12  42
DOCKED: BRANCH  17  44
DOCKED: ATOM     44  C   UNL d   1      14.224  35.494  -2.009 -0.40 +0.00    +0.004 C 
DOCKED: ATOM     45  C   UNL d   1      14.762  36.697  -1.783 -0.65 +0.00    +0.012 C 
DOCKED: ENDBRANCH  17  44
DOCKED: TORSDOF 10
DOCKED: TER
DOCKED: ENDMDL
________________________________________________________________________________


	BEGINNING GENETIC ALGORITHM DOCKING 63 of 100
Run: 63 Seed: 678350525 2071238564 [ Run 63 of 100 GA/GALS ]
Beginning LAMARCKIAN GENETIC ALGORITHM (LGA), with a maximum of 25000000 energy evaluations.

Final-Value: -17.561


	FINAL GENETIC ALGORITHM DOCKED STATE
	_______________________________________________


Detailed state:  trans 41.629 28.104 15.904 quatxyzw -0.230658 -0.110837 0.940548 -0.223342 center -0.174 -0.001 -0.047 ntor 10 119.3542 -38.1594 71.2858 -151.3287 141.4701 151.4437 -16.4892 73.9569 160.4722 148.4355
State:	 41.629  28.104  15.904  -0.237 -0.114  0.965 -154.189    119.35  -38.16   71.29 -151.33  141.47  151.44  -16.49   73.96  160.47  148.44

DOCKED: MODEL       63
DOCKED: USER    Run = 63
DOCKED: USER    DPF = D:/Protein_go_brrr/autodock/final/6BB5/heme_Fe/dock.dpf
DOCKED: USER  
DOCKED: USER    Estimated Free Energy of Binding    =  -12.41 kcal/mol  [=(1)+(2)+(3)-(4)]
DOCKED: USER    Estimated Inhibition Constant, Ki   =  805.52 pM (picomolar)  [Temperature = 298.15 K]
DOCKED: USER    
DOCKED: USER    (1) Final Intermolecular Energy     =  -15.39 kcal/mol
DOCKED: USER        vdW + Hbond + desolv Energy     =  -13.53 kcal/mol
DOCKED: USER        Electrostatic Energy            =   -1.86 kcal/mol
DOCKED: USER    (2) Final Total Internal Energy     =   -2.17 kcal/mol
DOCKED: USER    (3) Torsional Free Energy           =   +2.98 kcal/mol
DOCKED: USER    (4) Unbound System's Energy  [=(2)] =   -2.17 kcal/mol
DOCKED: USER    
DOCKED: USER    
DOCKED: USER    NEWDPF move heme_Fe_opt.pdbqt
DOCKED: USER    NEWDPF about -0.174000 -0.001000 -0.047000
DOCKED: USER    NEWDPF tran0 41.628594 28.104119 15.903535
DOCKED: USER    NEWDPF quaternion0 -0.230658 -0.110837 0.940548 -0.223342
DOCKED: USER    NEWDPF axisangle0 -0.236636 -0.113709 0.964922 -154.189215
DOCKED: USER    NEWDPF quat0 -0.236636 -0.113709 0.964922 -154.189215
DOCKED: USER    NEWDPF dihe0 119.35 -38.16 71.29 -151.33 141.47 151.44 -16.49 73.96 160.47 148.44 
DOCKED: USER  keepresnum = 1 
DOCKED: USER  
DOCKED: REMARK  10 active torsions:
DOCKED: REMARK  status: ('A' for Active; 'I' for Inactive)
DOCKED: REMARK    1  A    between atoms: C_6  and  C_10 
DOCKED: REMARK    2  A    between atoms: C_10  and  C_11 
DOCKED: REMARK    3  A    between atoms: C_11  and  C_12 
DOCKED: REMARK    4  A    between atoms: C_12  and  O_14 
DOCKED: REMARK    5  A    between atoms: C_17  and  C_20 
DOCKED: REMARK    6  A    between atoms: C_24  and  C_27 
DOCKED: REMARK    7  A    between atoms: C_31  and  C_34 
DOCKED: REMARK    8  A    between atoms: C_34  and  C_35 
DOCKED: REMARK    9  A    between atoms: C_35  and  C_36 
DOCKED: REMARK   10  A    between atoms: C_36  and  O_38 
DOCKED: USER                              x       y       z     vdW  Elec       q    Type
DOCKED: USER                           _______ _______ _______ _____ _____    ______ ____
DOCKED: ROOT
DOCKED: ATOM      1  C   UNL d   1      42.966  27.166  17.146 -0.25 +0.02    +0.064 C 
DOCKED: ATOM      2  C   UNL d   1      41.387  31.819  16.609 -0.40 +0.01    +0.064 A 
DOCKED: ATOM      3  C   UNL d   1      37.720  30.197  13.966 -0.37 +0.01    +0.064 C 
DOCKED: ATOM      4  C   UNL d   1      39.289  25.697  14.385 -0.46 +0.01    +0.064 C 
DOCKED: ATOM      5  C   UNL d   1      42.908  28.634  17.170 -0.17 +0.02    +0.066 A 
DOCKED: ATOM      6  C   UNL d   1      43.865  29.453  17.746 -0.28 -0.01    -0.021 A 
DOCKED: ATOM      7  C   UNL d   1      43.424  30.745  17.600 -0.30 -0.01    -0.025 A 
DOCKED: ATOM      8  C   UNL d   1      42.214  30.665  16.939 -0.33 +0.01    +0.066 A 
DOCKED: ATOM      9  C   UNL d   1      44.141  31.980  18.055 -0.27 +0.01    +0.051 C 
DOCKED: ATOM     10  C   UNL d   1      40.245  31.774  15.922 -0.37 +0.01    +0.066 A 
DOCKED: ATOM     11  C   UNL d   1      39.418  32.882  15.721 -0.41 -0.00    -0.021 A 
DOCKED: ATOM     12  C   UNL d   1      38.344  32.437  14.975 -0.39 +0.00    +0.000 A 
DOCKED: ATOM     13  C   UNL d   1      38.570  31.065  14.765 -0.35 +0.01    +0.070 A 
DOCKED: ATOM     14  C   UNL d   1      39.606  34.281  16.270 -0.38 +0.00    +0.052 C 
DOCKED: ATOM     15  C   UNL d   1      37.905  28.866  13.804 -0.34 +0.01    +0.066 A 
DOCKED: ATOM     16  C   UNL d   1      37.129  28.090  12.952 -0.47 -0.00    -0.021 A 
DOCKED: ATOM     17  C   UNL d   1      37.577  26.791  13.074 -0.46 +0.00    +0.000 A 
DOCKED: ATOM     18  C   UNL d   1      38.616  26.805  14.002 -0.37 +0.01    +0.070 A 
DOCKED: ATOM     19  C   UNL d   1      35.992  28.545  12.076 -0.65 +0.00    +0.052 C 
DOCKED: ATOM     20  C   UNL d   1      40.427  25.682  15.312 -0.39 +0.01    +0.066 A 
DOCKED: ATOM     21  C   UNL d   1      41.002  24.531  15.869 -0.42 -0.00    -0.025 A 
DOCKED: ATOM     22  C   UNL d   1      42.056  24.972  16.642 -0.36 -0.00    -0.021 A 
DOCKED: ATOM     23  C   UNL d   1      42.078  26.367  16.532 -0.32 +0.01    +0.066 A 
DOCKED: ATOM     24  C   UNL d   1      40.586  23.089  15.693 -0.38 +0.00    +0.051 C 
DOCKED: ATOM     25  N   UNL d   1      41.908  29.380  16.670 -0.21 -0.06    -0.248 N 
DOCKED: ATOM     26  N   UNL d   1      39.724  30.659  15.350 -0.11 -0.06    -0.248 N 
DOCKED: ATOM     27  N   UNL d   1      38.847  28.086  14.419 -0.12 -0.06    -0.248 N 
DOCKED: ATOM     28  N   UNL d   1      41.055  26.798  15.755 -0.27 -0.05    -0.248 N 
DOCKED: ATOM     29 FE   UNL d   1      40.389  28.727  15.552 -0.09 +0.00    +0.000 Fe
DOCKED: ENDROOT
DOCKED: BRANCH   6  30
DOCKED: ATOM     30  C   UNL d   1      45.145  29.034  18.385 -0.22 +0.02    +0.052 C 
DOCKED: BRANCH  30  31
DOCKED: ATOM     31  C   UNL d   1      45.093  29.253  19.894 -0.19 +0.08    +0.115 C 
DOCKED: BRANCH  31  32
DOCKED: ATOM     32  C   UNL d   1      46.188  28.480  20.575 -0.13 +0.15    +0.139 C 
DOCKED: ATOM     33  O   UNL d   1      46.790  28.960  21.526 -0.34 -0.90    -0.650 OA
DOCKED: BRANCH  32  34
DOCKED: ATOM     34  O   UNL d   1      46.515  27.251  20.144 -0.00 -0.62    -0.776 OA
DOCKED: ATOM     35  H   UNL d   1      45.844  26.553  20.160 +0.04 +0.13    +0.167 HD
DOCKED: ENDBRANCH  32  34
DOCKED: ENDBRANCH  31  32
DOCKED: ENDBRANCH  30  31
DOCKED: ENDBRANCH   6  30
DOCKED: BRANCH  22  36
DOCKED: ATOM     36  C   UNL d   1      42.958  24.103  17.478 -0.36 +0.01    +0.052 C 
DOCKED: BRANCH  36  37
DOCKED: ATOM     37  C   UNL d   1      42.761  24.427  18.952 -0.37 +0.03    +0.115 C 
DOCKED: BRANCH  37  38
DOCKED: ATOM     38  C   UNL d   1      43.935  25.190  19.497 -0.23 +0.07    +0.139 C 
DOCKED: ATOM     39  O   UNL d   1      43.797  25.971  20.426 -0.04 -0.48    -0.650 OA
DOCKED: BRANCH  38  40
DOCKED: ATOM     40  O   UNL d   1      45.156  25.019  18.957 +0.10 -0.36    -0.776 OA
DOCKED: ATOM     41  H   UNL d   1      45.738  25.786  18.859 +0.05 +0.08    +0.167 HD
DOCKED: ENDBRANCH  38  40
DOCKED: ENDBRANCH  37  38
DOCKED: ENDBRANCH  36  37
DOCKED: ENDBRANCH  22  36
DOCKED: BRANCH  12  42
DOCKED: ATOM     42  C   UNL d   1      37.197  33.289  14.533 -0.48 +0.00    +0.004 C 
DOCKED: ATOM     43  C   UNL d   1      36.930  33.464  13.232 -0.51 +0.00    +0.012 C 
DOCKED: ENDBRANCH  12  42
DOCKED: BRANCH  17  44
DOCKED: ATOM     44  C   UNL d   1      37.059  25.618  12.335 -0.48 +0.00    +0.004 C 
DOCKED: ATOM     45  C   UNL d   1      36.159  24.801  12.892 -0.69 +0.00    +0.012 C 
DOCKED: ENDBRANCH  17  44
DOCKED: TORSDOF 10
DOCKED: TER
DOCKED: ENDMDL
________________________________________________________________________________


	BEGINNING GENETIC ALGORITHM DOCKING 64 of 100
Run: 64 Seed: 1977791510 1425544222 [ Run 64 of 100 GA/GALS ]
Beginning LAMARCKIAN GENETIC ALGORITHM (LGA), with a maximum of 25000000 energy evaluations.

Final-Value: -16.547


	FINAL GENETIC ALGORITHM DOCKED STATE
	_______________________________________________


Detailed state:  trans 41.370 28.205 16.584 quatxyzw 0.142583 0.930547 0.083429 -0.326791 center -0.174 -0.001 -0.047 ntor 10 -180.0000 85.7164 98.1578 -120.1108 -23.2691 -75.0236 44.8956 -81.9117 -154.5649 -18.6728
State:	 41.370  28.205  16.584   0.151  0.985  0.088 -141.852   -180.00   85.72   98.16 -120.11  -23.27  -75.02   44.90  -81.91 -154.56  -18.67

DOCKED: MODEL       64
DOCKED: USER    Run = 64
DOCKED: USER    DPF = D:/Protein_go_brrr/autodock/final/6BB5/heme_Fe/dock.dpf
DOCKED: USER  
DOCKED: USER    Estimated Free Energy of Binding    =  -12.99 kcal/mol  [=(1)+(2)+(3)-(4)]
DOCKED: USER    Estimated Inhibition Constant, Ki   =  302.34 pM (picomolar)  [Temperature = 298.15 K]
DOCKED: USER    
DOCKED: USER    (1) Final Intermolecular Energy     =  -15.97 kcal/mol
DOCKED: USER        vdW + Hbond + desolv Energy     =  -13.50 kcal/mol
DOCKED: USER        Electrostatic Energy            =   -2.47 kcal/mol
DOCKED: USER    (2) Final Total Internal Energy     =   -0.58 kcal/mol
DOCKED: USER    (3) Torsional Free Energy           =   +2.98 kcal/mol
DOCKED: USER    (4) Unbound System's Energy  [=(2)] =   -0.58 kcal/mol
DOCKED: USER    
DOCKED: USER    
DOCKED: USER    NEWDPF move heme_Fe_opt.pdbqt
DOCKED: USER    NEWDPF about -0.174000 -0.001000 -0.047000
DOCKED: USER    NEWDPF tran0 41.370030 28.204843 16.583759
DOCKED: USER    NEWDPF quaternion0 0.142583 0.930547 0.083429 -0.326791
DOCKED: USER    NEWDPF axisangle0 0.150866 0.984605 0.088276 -141.851812
DOCKED: USER    NEWDPF quat0 0.150866 0.984605 0.088276 -141.851812
DOCKED: USER    NEWDPF dihe0 -180.00 85.72 98.16 -120.11 -23.27 -75.02 44.90 -81.91 -154.56 -18.67 
DOCKED: USER  keepresnum = 1 
DOCKED: USER  
DOCKED: REMARK  10 active torsions:
DOCKED: REMARK  status: ('A' for Active; 'I' for Inactive)
DOCKED: REMARK    1  A    between atoms: C_6  and  C_10 
DOCKED: REMARK    2  A    between atoms: C_10  and  C_11 
DOCKED: REMARK    3  A    between atoms: C_11  and  C_12 
DOCKED: REMARK    4  A    between atoms: C_12  and  O_14 
DOCKED: REMARK    5  A    between atoms: C_17  and  C_20 
DOCKED: REMARK    6  A    between atoms: C_24  and  C_27 
DOCKED: REMARK    7  A    between atoms: C_31  and  C_34 
DOCKED: REMARK    8  A    between atoms: C_34  and  C_35 
DOCKED: REMARK    9  A    between atoms: C_35  and  C_36 
DOCKED: REMARK   10  A    between atoms: C_36  and  O_38 
DOCKED: USER                              x       y       z     vdW  Elec       q    Type
DOCKED: USER                           _______ _______ _______ _____ _____    ______ ____
DOCKED: ROOT
DOCKED: ATOM      1  C   UNL d   1      43.171  27.548  17.316 -0.20 +0.02    +0.064 C 
DOCKED: ATOM      2  C   UNL d   1      39.624  25.561  14.505 -0.41 +0.01    +0.064 A 
DOCKED: ATOM      3  C   UNL d   1      37.800  29.952  13.823 -0.39 +0.01    +0.064 C 
DOCKED: ATOM      4  C   UNL d   1      41.163  31.883  16.625 -0.47 +0.01    +0.064 C 
DOCKED: ATOM      5  C   UNL d   1      42.293  26.572  16.656 -0.31 +0.01    +0.066 A 
DOCKED: ATOM      6  C   UNL d   1      42.443  25.197  16.730 -0.34 -0.00    -0.021 A 
DOCKED: ATOM      7  C   UNL d   1      41.460  24.646  15.947 -0.40 -0.00    -0.025 A 
DOCKED: ATOM      8  C   UNL d   1      40.746  25.707  15.424 -0.39 +0.01    +0.066 A 
DOCKED: ATOM      9  C   UNL d   1      41.216  23.183  15.734 -0.51 +0.00    +0.051 C 
DOCKED: ATOM     10  C   UNL d   1      38.883  26.565  14.032 -0.38 +0.01    +0.066 A 
DOCKED: ATOM     11  C   UNL d   1      37.888  26.404  13.065 -0.43 -0.00    -0.021 A 
DOCKED: ATOM     12  C   UNL d   1      37.358  27.658  12.838 -0.49 +0.00    +0.000 A 
DOCKED: ATOM     13  C   UNL d   1      38.070  28.529  13.681 -0.33 +0.01    +0.070 A 
DOCKED: ATOM     14  C   UNL d   1      37.507  25.128  12.341 -0.39 +0.01    +0.052 C 
DOCKED: ATOM     15  C   UNL d   1      38.517  30.804  14.594 -0.33 +0.01    +0.066 A 
DOCKED: ATOM     16  C   UNL d   1      38.166  32.135  14.781 -0.37 -0.00    -0.021 A 
DOCKED: ATOM     17  C   UNL d   1      39.137  32.695  15.586 -0.40 +0.00    +0.000 A 
DOCKED: ATOM     18  C   UNL d   1      40.060  31.691  15.869 -0.35 +0.01    +0.070 A 
DOCKED: ATOM     19  C   UNL d   1      36.980  32.861  14.206 -0.40 +0.00    +0.052 C 
DOCKED: ATOM     20  C   UNL d   1      42.123  30.837  16.995 -0.35 +0.01    +0.066 A 
DOCKED: ATOM     21  C   UNL d   1      43.366  31.057  17.605 -0.29 -0.01    -0.025 A 
DOCKED: ATOM     22  C   UNL d   1      43.916  29.807  17.804 -0.28 -0.01    -0.021 A 
DOCKED: ATOM     23  C   UNL d   1      42.995  28.879  17.304 -0.21 +0.02    +0.066 A 
DOCKED: ATOM     24  C   UNL d   1      44.013  32.370  17.980 -0.28 +0.01    +0.051 C 
DOCKED: ATOM     25  N   UNL d   1      41.250  26.877  15.865 -0.26 -0.05    -0.248 N 
DOCKED: ATOM     26  N   UNL d   1      39.006  27.865  14.402 -0.15 -0.06    -0.248 N 
DOCKED: ATOM     27  N   UNL d   1      39.657  30.517  15.296 -0.02 -0.07    -0.248 N 
DOCKED: ATOM     28  N   UNL d   1      41.923  29.515  16.771 -0.19 -0.06    -0.248 N 
DOCKED: ATOM     29 FE   UNL d   1      40.465  28.692  15.587 -0.09 +0.00    +0.000 Fe
DOCKED: ENDROOT
DOCKED: BRANCH   6  30
DOCKED: ATOM     30  C   UNL d   1      43.455  24.442  17.522 -0.30 +0.02    +0.052 C 
DOCKED: BRANCH  30  31
DOCKED: ATOM     31  C   UNL d   1      44.862  24.715  17.001 -0.20 +0.05    +0.115 C 
DOCKED: BRANCH  31  32
DOCKED: ATOM     32  C   UNL d   1      45.639  23.433  16.891 -0.15 +0.08    +0.139 C 
DOCKED: ATOM     33  O   UNL d   1      45.333  22.457  17.562 +0.02 -0.32    -0.650 OA
DOCKED: BRANCH  32  34
DOCKED: ATOM     34  O   UNL d   1      46.684  23.347  16.049 -0.05 -0.75    -0.776 OA
DOCKED: ATOM     35  H   UNL d   1      46.924  24.121  15.519 +0.04 +0.15    +0.167 HD
DOCKED: ENDBRANCH  32  34
DOCKED: ENDBRANCH  31  32
DOCKED: ENDBRANCH  30  31
DOCKED: ENDBRANCH   6  30
DOCKED: BRANCH  22  36
DOCKED: ATOM     36  C   UNL d   1      45.272  29.527  18.396 -0.22 +0.02    +0.052 C 
DOCKED: BRANCH  36  37
DOCKED: ATOM     37  C   UNL d   1      45.209  29.665  19.910 -0.16 +0.08    +0.115 C 
DOCKED: BRANCH  37  38
DOCKED: ATOM     38  C   UNL d   1      45.033  28.326  20.567 -0.08 +0.17    +0.139 C 
DOCKED: ATOM     39  O   UNL d   1      43.951  27.757  20.546 -0.17 -0.75    -0.650 OA
DOCKED: BRANCH  38  40
DOCKED: ATOM     40  O   UNL d   1      46.072  27.741  21.189 -0.41 -1.28    -0.776 OA
DOCKED: ATOM     41  H   UNL d   1      46.613  27.104  20.703 +0.03 +0.16    +0.167 HD
DOCKED: ENDBRANCH  38  40
DOCKED: ENDBRANCH  37  38
DOCKED: ENDBRANCH  36  37
DOCKED: ENDBRANCH  22  36
DOCKED: BRANCH  12  42
DOCKED: ATOM     42  C   UNL d   1      36.264  27.963  11.864 -0.69 +0.00    +0.004 C 
DOCKED: ATOM     43  C   UNL d   1      35.364  28.921  12.117 -0.63 +0.00    +0.012 C 
DOCKED: ENDBRANCH  12  42
DOCKED: BRANCH  17  44
DOCKED: ATOM     44  C   UNL d   1      39.167  34.093  16.070 -0.50 +0.00    +0.004 C 
DOCKED: ATOM     45  C   UNL d   1      39.331  35.110  15.217 -0.59 +0.00    +0.012 C 
DOCKED: ENDBRANCH  17  44
DOCKED: TORSDOF 10
DOCKED: TER
DOCKED: ENDMDL
________________________________________________________________________________


	BEGINNING GENETIC ALGORITHM DOCKING 65 of 100
Run: 65 Seed: 622161041 1146770542 [ Run 65 of 100 GA/GALS ]
Beginning LAMARCKIAN GENETIC ALGORITHM (LGA), with a maximum of 25000000 energy evaluations.

Final-Value: -17.888


	FINAL GENETIC ALGORITHM DOCKED STATE
	_______________________________________________


Detailed state:  trans 41.242 28.315 16.560 quatxyzw 0.144387 0.928874 0.081230 -0.331281 center -0.174 -0.001 -0.047 ntor 10 55.8290 90.5021 92.2367 -124.6665 -152.6717 -102.6836 -64.4650 -74.8993 -152.5465 -15.1882
State:	 41.242  28.315  16.560   0.153  0.984  0.086 -141.307     55.83   90.50   92.24 -124.67 -152.67 -102.68  -64.47  -74.90 -152.55  -15.19

DOCKED: MODEL       65
DOCKED: USER    Run = 65
DOCKED: USER    DPF = D:/Protein_go_brrr/autodock/final/6BB5/heme_Fe/dock.dpf
DOCKED: USER  
DOCKED: USER    Estimated Free Energy of Binding    =  -12.25 kcal/mol  [=(1)+(2)+(3)-(4)]
DOCKED: USER    Estimated Inhibition Constant, Ki   =    1.06 nM (nanomolar)  [Temperature = 298.15 K]
DOCKED: USER    
DOCKED: USER    (1) Final Intermolecular Energy     =  -15.23 kcal/mol
DOCKED: USER        vdW + Hbond + desolv Energy     =  -13.24 kcal/mol
DOCKED: USER        Electrostatic Energy            =   -1.99 kcal/mol
DOCKED: USER    (2) Final Total Internal Energy     =   -2.66 kcal/mol
DOCKED: USER    (3) Torsional Free Energy           =   +2.98 kcal/mol
DOCKED: USER    (4) Unbound System's Energy  [=(2)] =   -2.66 kcal/mol
DOCKED: USER    
DOCKED: USER    
DOCKED: USER    NEWDPF move heme_Fe_opt.pdbqt
DOCKED: USER    NEWDPF about -0.174000 -0.001000 -0.047000
DOCKED: USER    NEWDPF tran0 41.242297 28.315334 16.559555
DOCKED: USER    NEWDPF quaternion0 0.144387 0.928874 0.081230 -0.331281
DOCKED: USER    NEWDPF axisangle0 0.153028 0.984465 0.086091 -141.306852
DOCKED: USER    NEWDPF quat0 0.153028 0.984465 0.086091 -141.306852
DOCKED: USER    NEWDPF dihe0 55.83 90.50 92.24 -124.67 -152.67 -102.68 -64.47 -74.90 -152.55 -15.19 
DOCKED: USER  keepresnum = 1 
DOCKED: USER  
DOCKED: REMARK  10 active torsions:
DOCKED: REMARK  status: ('A' for Active; 'I' for Inactive)
DOCKED: REMARK    1  A    between atoms: C_6  and  C_10 
DOCKED: REMARK    2  A    between atoms: C_10  and  C_11 
DOCKED: REMARK    3  A    between atoms: C_11  and  C_12 
DOCKED: REMARK    4  A    between atoms: C_12  and  O_14 
DOCKED: REMARK    5  A    between atoms: C_17  and  C_20 
DOCKED: REMARK    6  A    between atoms: C_24  and  C_27 
DOCKED: REMARK    7  A    between atoms: C_31  and  C_34 
DOCKED: REMARK    8  A    between atoms: C_34  and  C_35 
DOCKED: REMARK    9  A    between atoms: C_35  and  C_36 
DOCKED: REMARK   10  A    between atoms: C_36  and  O_38 
DOCKED: USER                              x       y       z     vdW  Elec       q    Type
DOCKED: USER                           _______ _______ _______ _____ _____    ______ ____
DOCKED: ROOT
DOCKED: ATOM      1  C   UNL d   1      43.033  27.651  17.310 -0.17 +0.02    +0.064 C 
DOCKED: ATOM      2  C   UNL d   1      39.498  25.674  14.477 -0.40 +0.01    +0.064 A 
DOCKED: ATOM      3  C   UNL d   1      37.707  30.073  13.762 -0.39 +0.01    +0.064 C 
DOCKED: ATOM      4  C   UNL d   1      41.057  31.995  16.585 -0.47 +0.01    +0.064 C 
DOCKED: ATOM      5  C   UNL d   1      42.155  26.677  16.646 -0.29 +0.01    +0.066 A 
DOCKED: ATOM      6  C   UNL d   1      42.296  25.302  16.727 -0.35 -0.00    -0.021 A 
DOCKED: ATOM      7  C   UNL d   1      41.316  24.754  15.937 -0.40 -0.00    -0.025 A 
DOCKED: ATOM      8  C   UNL d   1      40.614  25.817  15.404 -0.38 +0.01    +0.066 A 
DOCKED: ATOM      9  C   UNL d   1      41.065  23.291  15.728 -0.51 +0.00    +0.051 C 
DOCKED: ATOM     10  C   UNL d   1      38.768  26.680  13.993 -0.38 +0.01    +0.066 A 
DOCKED: ATOM     11  C   UNL d   1      37.780  26.522  13.018 -0.44 -0.00    -0.021 A 
DOCKED: ATOM     12  C   UNL d   1      37.259  27.778  12.782 -0.50 +0.00    +0.000 A 
DOCKED: ATOM     13  C   UNL d   1      37.969  28.648  13.628 -0.34 +0.01    +0.070 A 
DOCKED: ATOM     14  C   UNL d   1      37.397  25.245  12.296 -0.38 +0.01    +0.052 C 
DOCKED: ATOM     15  C   UNL d   1      38.422  30.923  14.536 -0.35 +0.01    +0.066 A 
DOCKED: ATOM     16  C   UNL d   1      38.078  32.257  14.714 -0.38 -0.00    -0.021 A 
DOCKED: ATOM     17  C   UNL d   1      39.045  32.815  15.525 -0.41 +0.00    +0.000 A 
DOCKED: ATOM     18  C   UNL d   1      39.960  31.806  15.820 -0.35 +0.01    +0.070 A 
DOCKED: ATOM     19  C   UNL d   1      36.901  32.989  14.126 -0.41 +0.00    +0.052 C 
DOCKED: ATOM     20  C   UNL d   1      42.008  30.944  16.967 -0.36 +0.01    +0.066 A 
DOCKED: ATOM     21  C   UNL d   1      43.247  31.159  17.586 -0.30 -0.01    -0.025 A 
DOCKED: ATOM     22  C   UNL d   1      43.787  29.907  17.795 -0.29 -0.01    -0.021 A 
DOCKED: ATOM     23  C   UNL d   1      42.865  28.983  17.291 -0.18 +0.02    +0.066 A 
DOCKED: ATOM     24  C   UNL d   1      43.899  32.470  17.963 -0.31 +0.01    +0.051 C 
DOCKED: ATOM     25  N   UNL d   1      41.120  26.986  15.845 -0.27 -0.05    -0.248 N 
DOCKED: ATOM     26  N   UNL d   1      38.895  27.981  14.359 -0.13 -0.06    -0.248 N 
DOCKED: ATOM     27  N   UNL d   1      39.554  30.633  15.248 -0.04 -0.06    -0.248 N 
DOCKED: ATOM     28  N   UNL d   1      41.802  29.623  16.747 -0.21 -0.05    -0.248 N 
DOCKED: ATOM     29 FE   UNL d   1      40.349  28.804  15.554 -0.09 +0.00    +0.000 Fe
DOCKED: ENDROOT
DOCKED: BRANCH   6  30
DOCKED: ATOM     30  C   UNL d   1      43.296  24.543  17.530 -0.32 +0.01    +0.052 C 
DOCKED: BRANCH  30  31
DOCKED: ATOM     31  C   UNL d   1      44.713  24.844  17.053 -0.21 +0.04    +0.115 C 
DOCKED: BRANCH  31  32
DOCKED: ATOM     32  C   UNL d   1      45.496  25.538  18.132 -0.14 +0.06    +0.139 C 
DOCKED: ATOM     33  O   UNL d   1      46.419  26.288  17.849 +0.02 -0.29    -0.650 OA
DOCKED: BRANCH  32  34
DOCKED: ATOM     34  O   UNL d   1      45.187  25.338  19.425 +0.10 -0.41    -0.776 OA
DOCKED: ATOM     35  H   UNL d   1      44.983  26.102  19.982 +0.06 +0.12    +0.167 HD
DOCKED: ENDBRANCH  32  34
DOCKED: ENDBRANCH  31  32
DOCKED: ENDBRANCH  30  31
DOCKED: ENDBRANCH   6  30
DOCKED: BRANCH  22  36
DOCKED: ATOM     36  C   UNL d   1      45.137  29.621  18.400 -0.23 +0.02    +0.052 C 
DOCKED: BRANCH  36  37
DOCKED: ATOM     37  C   UNL d   1      45.042  29.681  19.917 -0.15 +0.08    +0.115 C 
DOCKED: BRANCH  37  38
DOCKED: ATOM     38  C   UNL d   1      45.049  28.302  20.513 -0.10 +0.17    +0.139 C 
DOCKED: ATOM     39  O   UNL d   1      44.014  27.787  20.910 -0.17 -0.97    -0.650 OA
DOCKED: BRANCH  38  40
DOCKED: ATOM     40  O   UNL d   1      46.204  27.621  20.615 -0.19 -0.86    -0.776 OA
DOCKED: ATOM     41  H   UNL d   1      46.482  27.054  19.882 +0.04 +0.12    +0.167 HD
DOCKED: ENDBRANCH  38  40
DOCKED: ENDBRANCH  37  38
DOCKED: ENDBRANCH  36  37
DOCKED: ENDBRANCH  22  36
DOCKED: BRANCH  12  42
DOCKED: ATOM     42  C   UNL d   1      36.176  28.085  11.798 -0.69 +0.00    +0.004 C 
DOCKED: ATOM     43  C   UNL d   1      35.210  28.967  12.088 -0.63 +0.00    +0.012 C 
DOCKED: ENDBRANCH  12  42
DOCKED: BRANCH  17  44
DOCKED: ATOM     44  C   UNL d   1      39.079  34.215  16.004 -0.56 +0.00    +0.004 C 
DOCKED: ATOM     45  C   UNL d   1      39.347  35.220  15.164 -0.59 +0.00    +0.012 C 
DOCKED: ENDBRANCH  17  44
DOCKED: TORSDOF 10
DOCKED: TER
DOCKED: ENDMDL
________________________________________________________________________________


	BEGINNING GENETIC ALGORITHM DOCKING 66 of 100
Run: 66 Seed: 1423670227 241227497 [ Run 66 of 100 GA/GALS ]
Beginning LAMARCKIAN GENETIC ALGORITHM (LGA), with a maximum of 25000000 energy evaluations.

Final-Value: -16.020


	FINAL GENETIC ALGORITHM DOCKED STATE
	_______________________________________________


Detailed state:  trans 41.725 28.804 17.087 quatxyzw -0.084272 -0.942773 -0.045728 0.319353 center -0.174 -0.001 -0.047 ntor 10 138.9501 -173.1269 -164.6983 -127.2103 167.4008 -151.4439 83.2187 45.6023 1.8611 162.2079
State:	 41.725  28.804  17.087  -0.089 -0.995 -0.048 142.752    138.95 -173.13 -164.70 -127.21  167.40 -151.44   83.22   45.60    1.86  162.21

DOCKED: MODEL       66
DOCKED: USER    Run = 66
DOCKED: USER    DPF = D:/Protein_go_brrr/autodock/final/6BB5/heme_Fe/dock.dpf
DOCKED: USER  
DOCKED: USER    Estimated Free Energy of Binding    =  -11.32 kcal/mol  [=(1)+(2)+(3)-(4)]
DOCKED: USER    Estimated Inhibition Constant, Ki   =    5.04 nM (nanomolar)  [Temperature = 298.15 K]
DOCKED: USER    
DOCKED: USER    (1) Final Intermolecular Energy     =  -14.30 kcal/mol
DOCKED: USER        vdW + Hbond + desolv Energy     =  -12.42 kcal/mol
DOCKED: USER        Electrostatic Energy            =   -1.89 kcal/mol
DOCKED: USER    (2) Final Total Internal Energy     =   -1.72 kcal/mol
DOCKED: USER    (3) Torsional Free Energy           =   +2.98 kcal/mol
DOCKED: USER    (4) Unbound System's Energy  [=(2)] =   -1.72 kcal/mol
DOCKED: USER    
DOCKED: USER    
DOCKED: USER    NEWDPF move heme_Fe_opt.pdbqt
DOCKED: USER    NEWDPF about -0.174000 -0.001000 -0.047000
DOCKED: USER    NEWDPF tran0 41.724744 28.804048 17.087333
DOCKED: USER    NEWDPF quaternion0 -0.084272 -0.942773 -0.045728 0.319353
DOCKED: USER    NEWDPF axisangle0 -0.088929 -0.994868 -0.048255 142.752363
DOCKED: USER    NEWDPF quat0 -0.088929 -0.994868 -0.048255 142.752363
DOCKED: USER    NEWDPF dihe0 138.95 -173.13 -164.70 -127.21 167.40 -151.44 83.22 45.60 1.86 162.21 
DOCKED: USER  keepresnum = 1 
DOCKED: USER  
DOCKED: REMARK  10 active torsions:
DOCKED: REMARK  status: ('A' for Active; 'I' for Inactive)
DOCKED: REMARK    1  A    between atoms: C_6  and  C_10 
DOCKED: REMARK    2  A    between atoms: C_10  and  C_11 
DOCKED: REMARK    3  A    between atoms: C_11  and  C_12 
DOCKED: REMARK    4  A    between atoms: C_12  and  O_14 
DOCKED: REMARK    5  A    between atoms: C_17  and  C_20 
DOCKED: REMARK    6  A    between atoms: C_24  and  C_27 
DOCKED: REMARK    7  A    between atoms: C_31  and  C_34 
DOCKED: REMARK    8  A    between atoms: C_34  and  C_35 
DOCKED: REMARK    9  A    between atoms: C_35  and  C_36 
DOCKED: REMARK   10  A    between atoms: C_36  and  O_38 
DOCKED: USER                              x       y       z     vdW  Elec       q    Type
DOCKED: USER                           _______ _______ _______ _____ _____    ______ ____
DOCKED: ROOT
DOCKED: ATOM      1  C   UNL d   1      43.590  28.391  17.835 -0.23 +0.02    +0.064 C 
DOCKED: ATOM      2  C   UNL d   1      40.186  25.808  15.352 -0.35 +0.01    +0.064 A 
DOCKED: ATOM      3  C   UNL d   1      37.964  29.922  14.255 -0.35 +0.01    +0.064 C 
DOCKED: ATOM      4  C   UNL d   1      41.189  32.433  16.741 -0.49 +0.01    +0.064 C 
DOCKED: ATOM      5  C   UNL d   1      42.792  27.276  17.308 +0.04 +0.02    +0.066 A 
DOCKED: ATOM      6  C   UNL d   1      43.065  25.935  17.525 -0.27 -0.01    -0.021 A 
DOCKED: ATOM      7  C   UNL d   1      42.122  25.218  16.832 -0.35 -0.01    -0.025 A 
DOCKED: ATOM      8  C   UNL d   1      41.307  26.150  16.219 -0.35 +0.01    +0.066 A 
DOCKED: ATOM      9  C   UNL d   1      42.006  23.726  16.784 -0.44 +0.01    +0.051 C 
DOCKED: ATOM     10  C   UNL d   1      39.350  26.685  14.795 -0.36 +0.01    +0.066 A 
DOCKED: ATOM     11  C   UNL d   1      38.355  26.334  13.879 -0.42 -0.00    -0.021 A 
DOCKED: ATOM     12  C   UNL d   1      37.711  27.505  13.534 -0.44 +0.00    +0.000 A 
DOCKED: ATOM     13  C   UNL d   1      38.357  28.522  14.259 -0.32 +0.01    +0.070 A 
DOCKED: ATOM     14  C   UNL d   1      38.077  24.959  13.306 -0.55 +0.01    +0.052 C 
DOCKED: ATOM     15  C   UNL d   1      38.615  30.912  14.911 -0.34 +0.01    +0.066 A 
DOCKED: ATOM     16  C   UNL d   1      38.150  32.220  14.964 -0.37 -0.00    -0.021 A 
DOCKED: ATOM     17  C   UNL d   1      39.080  32.947  15.677 -0.40 +0.00    +0.000 A 
DOCKED: ATOM     18  C   UNL d   1      40.095  32.064  16.040 -0.36 +0.01    +0.070 A 
DOCKED: ATOM     19  C   UNL d   1      36.893  32.773  14.347 -0.29 +0.00    +0.052 C 
DOCKED: ATOM     20  C   UNL d   1      42.246  31.520  17.194 -0.38 +0.01    +0.066 A 
DOCKED: ATOM     21  C   UNL d   1      43.475  31.913  17.742 -0.22 -0.00    -0.025 A 
DOCKED: ATOM     22  C   UNL d   1      44.138  30.746  18.058 -0.28 -0.01    -0.021 A 
DOCKED: ATOM     23  C   UNL d   1      43.295  29.692  17.687 -0.26 +0.02    +0.066 A 
DOCKED: ATOM     24  C   UNL d   1      44.009  33.311  17.957 -0.31 +0.01    +0.051 C 
DOCKED: ATOM     25  N   UNL d   1      41.711  27.401  16.518 -0.19 -0.06    -0.248 N 
DOCKED: ATOM     26  N   UNL d   1      39.362  28.024  15.021 +0.30 -0.08    -0.248 N 
DOCKED: ATOM     27  N   UNL d   1      39.788  30.804  15.607 -0.18 -0.05    -0.248 N 
DOCKED: ATOM     28  N   UNL d   1      42.162  30.170  17.118 -0.22 -0.05    -0.248 N 
DOCKED: ATOM     29 FE   UNL d   1      40.762  29.099  16.070 -0.09 +0.00    +0.000 Fe
DOCKED: ENDROOT
DOCKED: BRANCH   6  30
DOCKED: ATOM     30  C   UNL d   1      44.155  25.362  18.365 -0.23 +0.02    +0.052 C 
DOCKED: BRANCH  30  31
DOCKED: ATOM     31  C   UNL d   1      43.673  25.135  19.794 -0.28 +0.06    +0.115 C 
DOCKED: BRANCH  31  32
DOCKED: ATOM     32  C   UNL d   1      44.070  26.288  20.672 -0.25 +0.13    +0.139 C 
DOCKED: ATOM     33  O   UNL d   1      43.588  26.416  21.789 -0.49 -1.02    -0.650 OA
DOCKED: BRANCH  32  34
DOCKED: ATOM     34  O   UNL d   1      44.961  27.194  20.235 +0.00 -0.75    -0.776 OA
DOCKED: ATOM     35  H   UNL d   1      45.737  26.890  19.744 +0.05 +0.12    +0.167 HD
DOCKED: ENDBRANCH  32  34
DOCKED: ENDBRANCH  31  32
DOCKED: ENDBRANCH  30  31
DOCKED: ENDBRANCH   6  30
DOCKED: BRANCH  22  36
DOCKED: ATOM     36  C   UNL d   1      45.524  30.651  18.640 -0.22 +0.02    +0.052 C 
DOCKED: BRANCH  36  37
DOCKED: ATOM     37  C   UNL d   1      46.520  30.311  17.540 -0.13 +0.03    +0.115 C 
DOCKED: BRANCH  37  38
DOCKED: ATOM     38  C   UNL d   1      47.474  29.241  17.989 -0.11 +0.05    +0.139 C 
DOCKED: ATOM     39  O   UNL d   1      48.605  29.178  17.530 +0.00 -0.18    -0.650 OA
DOCKED: BRANCH  38  40
DOCKED: ATOM     40  O   UNL d   1      47.085  28.336  18.905 +0.04 -0.36    -0.776 OA
DOCKED: ATOM     41  H   UNL d   1      46.161  28.326  19.193 +0.04 +0.09    +0.167 HD
DOCKED: ENDBRANCH  38  40
DOCKED: ENDBRANCH  37  38
DOCKED: ENDBRANCH  36  37
DOCKED: ENDBRANCH  22  36
DOCKED: BRANCH  12  42
DOCKED: ATOM     42  C   UNL d   1      36.577  27.605  12.564 -0.61 +0.00    +0.004 C 
DOCKED: ATOM     43  C   UNL d   1      36.701  28.305  11.428 -0.62 +0.00    +0.012 C 
DOCKED: ENDBRANCH  12  42
DOCKED: BRANCH  17  44
DOCKED: ATOM     44  C   UNL d   1      38.994  34.387  16.008 -0.57 +0.00    +0.004 C 
DOCKED: ATOM     45  C   UNL d   1      39.191  35.318  15.069 -0.61 +0.00    +0.012 C 
DOCKED: ENDBRANCH  17  44
DOCKED: TORSDOF 10
DOCKED: TER
DOCKED: ENDMDL
________________________________________________________________________________


	BEGINNING GENETIC ALGORITHM DOCKING 67 of 100
Run: 67 Seed: 788261165 1107891547 [ Run 67 of 100 GA/GALS ]
Beginning LAMARCKIAN GENETIC ALGORITHM (LGA), with a maximum of 25000000 energy evaluations.

Final-Value: -9.142


	FINAL GENETIC ALGORITHM DOCKED STATE
	_______________________________________________


Detailed state:  trans 24.808 45.575 -1.152 quatxyzw -0.131830 -0.902946 -0.327717 0.244769 center -0.174 -0.001 -0.047 ntor 10 -55.4152 178.6136 52.3699 15.2253 42.8420 107.6115 -104.1643 155.9893 177.8452 -173.1022
State:	 24.808  45.575  -1.152  -0.136 -0.931 -0.338 151.664    -55.42  178.61   52.37   15.23   42.84  107.61 -104.16  155.99  177.85 -173.10

DOCKED: MODEL       67
DOCKED: USER    Run = 67
DOCKED: USER    DPF = D:/Protein_go_brrr/autodock/final/6BB5/heme_Fe/dock.dpf
DOCKED: USER  
DOCKED: USER    Estimated Free Energy of Binding    =   -3.85 kcal/mol  [=(1)+(2)+(3)-(4)]
DOCKED: USER    Estimated Inhibition Constant, Ki   =    1.50 mM (millimolar)  [Temperature = 298.15 K]
DOCKED: USER    
DOCKED: USER    (1) Final Intermolecular Energy     =   -6.83 kcal/mol
DOCKED: USER        vdW + Hbond + desolv Energy     =   -6.56 kcal/mol
DOCKED: USER        Electrostatic Energy            =   -0.28 kcal/mol
DOCKED: USER    (2) Final Total Internal Energy     =   -2.31 kcal/mol
DOCKED: USER    (3) Torsional Free Energy           =   +2.98 kcal/mol
DOCKED: USER    (4) Unbound System's Energy  [=(2)] =   -2.31 kcal/mol
DOCKED: USER    
DOCKED: USER    
DOCKED: USER    NEWDPF move heme_Fe_opt.pdbqt
DOCKED: USER    NEWDPF about -0.174000 -0.001000 -0.047000
DOCKED: USER    NEWDPF tran0 24.808217 45.575247 -1.151581
DOCKED: USER    NEWDPF quaternion0 -0.131830 -0.902946 -0.327717 0.244769
DOCKED: USER    NEWDPF axisangle0 -0.135966 -0.931274 -0.337998 151.663669
DOCKED: USER    NEWDPF quat0 -0.135966 -0.931274 -0.337998 151.663669
DOCKED: USER    NEWDPF dihe0 -55.42 178.61 52.37 15.23 42.84 107.61 -104.16 155.99 177.85 -173.10 
DOCKED: USER  keepresnum = 1 
DOCKED: USER  
DOCKED: REMARK  10 active torsions:
DOCKED: REMARK  status: ('A' for Active; 'I' for Inactive)
DOCKED: REMARK    1  A    between atoms: C_6  and  C_10 
DOCKED: REMARK    2  A    between atoms: C_10  and  C_11 
DOCKED: REMARK    3  A    between atoms: C_11  and  C_12 
DOCKED: REMARK    4  A    between atoms: C_12  and  O_14 
DOCKED: REMARK    5  A    between atoms: C_17  and  C_20 
DOCKED: REMARK    6  A    between atoms: C_24  and  C_27 
DOCKED: REMARK    7  A    between atoms: C_31  and  C_34 
DOCKED: REMARK    8  A    between atoms: C_34  and  C_35 
DOCKED: REMARK    9  A    between atoms: C_35  and  C_36 
DOCKED: REMARK   10  A    between atoms: C_36  and  O_38 
DOCKED: USER                              x       y       z     vdW  Elec       q    Type
DOCKED: USER                           _______ _______ _______ _____ _____    ______ ____
DOCKED: ROOT
DOCKED: ATOM      1  C   UNL d   1      26.760  45.022  -0.840 -0.14 +0.02    +0.064 C 
DOCKED: ATOM      2  C   UNL d   1      23.311  43.880  -4.192 -0.24 +0.01    +0.064 A 
DOCKED: ATOM      3  C   UNL d   1      20.730  47.654  -2.721 -0.26 -0.01    +0.064 C 
DOCKED: ATOM      4  C   UNL d   1      24.005  48.715   0.601 -0.10 +0.01    +0.064 C 
DOCKED: ATOM      5  C   UNL d   1      25.989  44.302  -1.863 -0.15 +0.01    +0.066 A 
DOCKED: ATOM      6  C   UNL d   1      26.370  43.101  -2.440 -0.20 -0.00    -0.021 A 
DOCKED: ATOM      7  C   UNL d   1      25.414  42.787  -3.373 -0.27 -0.00    -0.025 A 
DOCKED: ATOM      8  C   UNL d   1      24.485  43.808  -3.330 -0.28 +0.01    +0.066 A 
DOCKED: ATOM      9  C   UNL d   1      25.392  41.564  -4.238 -0.25 +0.01    +0.051 C 
DOCKED: ATOM     10  C   UNL d   1      22.370  44.824  -4.131 -0.24 +0.00    +0.066 A 
DOCKED: ATOM     11  C   UNL d   1      21.319  44.929  -5.045 -0.27 -0.00    -0.021 A 
DOCKED: ATOM     12  C   UNL d   1      20.569  46.020  -4.652 -0.27 -0.00    +0.000 A 
DOCKED: ATOM     13  C   UNL d   1      21.213  46.534  -3.513 -0.25 -0.01    +0.070 A 
DOCKED: ATOM     14  C   UNL d   1      21.079  44.074  -6.272 -0.29 +0.00    +0.052 C 
DOCKED: ATOM     15  C   UNL d   1      21.374  48.184  -1.654 -0.21 -0.01    +0.066 A 
DOCKED: ATOM     16  C   UNL d   1      20.831  49.189  -0.864 -0.22 +0.00    -0.021 A 
DOCKED: ATOM     17  C   UNL d   1      21.775  49.499   0.093 -0.17 -0.00    +0.000 A 
DOCKED: ATOM     18  C   UNL d   1      22.876  48.677  -0.140 -0.12 +0.00    +0.070 A 
DOCKED: ATOM     19  C   UNL d   1      19.488  49.851  -1.014 -0.31 -0.02    +0.052 C 
DOCKED: ATOM     20  C   UNL d   1      25.158  47.824   0.424 -0.09 +0.01    +0.066 A 
DOCKED: ATOM     21  C   UNL d   1      26.405  47.980   1.046 -0.09 -0.01    -0.025 A 
DOCKED: ATOM     22  C   UNL d   1      27.170  46.910   0.631 -0.10 -0.01    -0.021 A 
DOCKED: ATOM     23  C   UNL d   1      26.367  46.150  -0.228 -0.09 +0.02    +0.066 A 
DOCKED: ATOM     24  C   UNL d   1      26.863  49.077   1.978 -0.08 +0.01    +0.051 C 
DOCKED: ATOM     25  N   UNL d   1      24.833  44.724  -2.404 -0.11 -0.04    -0.248 N 
DOCKED: ATOM     26  N   UNL d   1      22.316  45.810  -3.200 -0.17 -0.00    -0.248 N 
DOCKED: ATOM     27  N   UNL d   1      22.613  47.838  -1.186 -0.08 -0.01    -0.248 N 
DOCKED: ATOM     28  N   UNL d   1      25.155  46.737  -0.385 +0.04 -0.06    -0.248 N 
DOCKED: ATOM     29 FE   UNL d   1      23.736  46.275  -1.791 -0.05 +0.00    +0.000 Fe
DOCKED: ENDROOT
DOCKED: BRANCH   6  30
DOCKED: ATOM     30  C   UNL d   1      27.570  42.282  -2.108 -0.15 +0.01    +0.052 C 
DOCKED: BRANCH  30  31
DOCKED: ATOM     31  C   UNL d   1      28.740  42.644  -3.016 -0.04 +0.01    +0.115 C 
DOCKED: BRANCH  31  32
DOCKED: ATOM     32  C   UNL d   1      29.349  43.952  -2.592 -0.02 +0.02    +0.139 C 
DOCKED: ATOM     33  O   UNL d   1      29.531  44.201  -1.409 +0.02 -0.11    -0.650 OA
DOCKED: BRANCH  32  34
DOCKED: ATOM     34  O   UNL d   1      29.699  44.864  -3.515 +0.01 -0.08    -0.776 OA
DOCKED: ATOM     35  H   UNL d   1      29.338  45.759  -3.452 +0.00 +0.02    +0.167 HD
DOCKED: ENDBRANCH  32  34
DOCKED: ENDBRANCH  31  32
DOCKED: ENDBRANCH  30  31
DOCKED: ENDBRANCH   6  30
DOCKED: BRANCH  22  36
DOCKED: ATOM     36  C   UNL d   1      28.609  46.661   1.002 -0.09 +0.02    +0.052 C 
DOCKED: BRANCH  36  37
DOCKED: ATOM     37  C   UNL d   1      29.512  47.593   0.208 -0.04 +0.03    +0.115 C 
DOCKED: BRANCH  37  38
DOCKED: ATOM     38  C   UNL d   1      28.852  48.022  -1.072 -0.01 +0.02    +0.139 C 
DOCKED: ATOM     39  O   UNL d   1      28.433  49.162  -1.207 +0.02 -0.08    -0.650 OA
DOCKED: BRANCH  38  40
DOCKED: ATOM     40  O   UNL d   1      28.714  47.146  -2.083 +0.02 -0.10    -0.776 OA
DOCKED: ATOM     41  H   UNL d   1      29.066  46.251  -1.981 +0.01 +0.02    +0.167 HD
DOCKED: ENDBRANCH  38  40
DOCKED: ENDBRANCH  37  38
DOCKED: ENDBRANCH  36  37
DOCKED: ENDBRANCH  22  36
DOCKED: BRANCH  12  42
DOCKED: ATOM     42  C   UNL d   1      19.344  46.514  -5.354 -0.26 -0.00    +0.004 C 
DOCKED: ATOM     43  C   UNL d   1      18.121  46.220  -4.895 -0.37 -0.00    +0.012 C 
DOCKED: ENDBRANCH  12  42
DOCKED: BRANCH  17  44
DOCKED: ATOM     44  C   UNL d   1      21.626  50.502   1.172 -0.22 -0.00    +0.004 C 
DOCKED: ATOM     45  C   UNL d   1      20.773  50.300   2.181 -0.38 -0.00    +0.012 C 
DOCKED: ENDBRANCH  17  44
DOCKED: TORSDOF 10
DOCKED: TER
DOCKED: ENDMDL
________________________________________________________________________________


	BEGINNING GENETIC ALGORITHM DOCKING 68 of 100
Run: 68 Seed: 1686838543 314879725 [ Run 68 of 100 GA/GALS ]
Beginning LAMARCKIAN GENETIC ALGORITHM (LGA), with a maximum of 25000000 energy evaluations.

Final-Value: -17.598


	FINAL GENETIC ALGORITHM DOCKED STATE
	_______________________________________________


Detailed state:  trans 41.711 28.165 15.977 quatxyzw -0.237650 -0.106414 0.946770 -0.189276 center -0.174 -0.001 -0.047 ntor 10 89.0976 142.9721 69.3800 -143.4216 105.7306 -96.5690 -9.7323 22.8030 -146.5540 157.3746
State:	 41.711  28.165  15.977  -0.242 -0.108  0.964 -158.179     89.10  142.97   69.38 -143.42  105.73  -96.57   -9.73   22.80 -146.55  157.37

DOCKED: MODEL       68
DOCKED: USER    Run = 68
DOCKED: USER    DPF = D:/Protein_go_brrr/autodock/final/6BB5/heme_Fe/dock.dpf
DOCKED: USER  
DOCKED: USER    Estimated Free Energy of Binding    =  -13.09 kcal/mol  [=(1)+(2)+(3)-(4)]
DOCKED: USER    Estimated Inhibition Constant, Ki   =  256.03 pM (picomolar)  [Temperature = 298.15 K]
DOCKED: USER    
DOCKED: USER    (1) Final Intermolecular Energy     =  -16.07 kcal/mol
DOCKED: USER        vdW + Hbond + desolv Energy     =  -14.35 kcal/mol
DOCKED: USER        Electrostatic Energy            =   -1.72 kcal/mol
DOCKED: USER    (2) Final Total Internal Energy     =   -1.53 kcal/mol
DOCKED: USER    (3) Torsional Free Energy           =   +2.98 kcal/mol
DOCKED: USER    (4) Unbound System's Energy  [=(2)] =   -1.53 kcal/mol
DOCKED: USER    
DOCKED: USER    
DOCKED: USER    NEWDPF move heme_Fe_opt.pdbqt
DOCKED: USER    NEWDPF about -0.174000 -0.001000 -0.047000
DOCKED: USER    NEWDPF tran0 41.710547 28.164736 15.976645
DOCKED: USER    NEWDPF quaternion0 -0.237650 -0.106414 0.946770 -0.189276
DOCKED: USER    NEWDPF axisangle0 -0.242025 -0.108373 0.964199 -158.178948
DOCKED: USER    NEWDPF quat0 -0.242025 -0.108373 0.964199 -158.178948
DOCKED: USER    NEWDPF dihe0 89.10 142.97 69.38 -143.42 105.73 -96.57 -9.73 22.80 -146.55 157.37 
DOCKED: USER  keepresnum = 1 
DOCKED: USER  
DOCKED: REMARK  10 active torsions:
DOCKED: REMARK  status: ('A' for Active; 'I' for Inactive)
DOCKED: REMARK    1  A    between atoms: C_6  and  C_10 
DOCKED: REMARK    2  A    between atoms: C_10  and  C_11 
DOCKED: REMARK    3  A    between atoms: C_11  and  C_12 
DOCKED: REMARK    4  A    between atoms: C_12  and  O_14 
DOCKED: REMARK    5  A    between atoms: C_17  and  C_20 
DOCKED: REMARK    6  A    between atoms: C_24  and  C_27 
DOCKED: REMARK    7  A    between atoms: C_31  and  C_34 
DOCKED: REMARK    8  A    between atoms: C_34  and  C_35 
DOCKED: REMARK    9  A    between atoms: C_35  and  C_36 
DOCKED: REMARK   10  A    between atoms: C_36  and  O_38 
DOCKED: USER                              x       y       z     vdW  Elec       q    Type
DOCKED: USER                           _______ _______ _______ _____ _____    ______ ____
DOCKED: ROOT
DOCKED: ATOM      1  C   UNL d   1      43.083  27.349  17.265 -0.22 +0.02    +0.064 C 
DOCKED: ATOM      2  C   UNL d   1      41.224  31.875  16.570 -0.40 +0.01    +0.064 A 
DOCKED: ATOM      3  C   UNL d   1      37.711  29.951  13.921 -0.38 +0.01    +0.064 C 
DOCKED: ATOM      4  C   UNL d   1      39.553  25.573  14.494 -0.47 +0.01    +0.064 C 
DOCKED: ATOM      5  C   UNL d   1      42.933  28.810  17.246 -0.21 +0.02    +0.066 A 
DOCKED: ATOM      6  C   UNL d   1      43.827  29.704  17.813 -0.28 -0.01    -0.021 A 
DOCKED: ATOM      7  C   UNL d   1      43.308  30.961  17.623 -0.31 -0.01    -0.025 A 
DOCKED: ATOM      8  C   UNL d   1      42.116  30.785  16.946 -0.34 +0.01    +0.066 A 
DOCKED: ATOM      9  C   UNL d   1      43.937  32.251  18.053 -0.30 +0.01    +0.051 C 
DOCKED: ATOM     10  C   UNL d   1      40.098  31.739  15.868 -0.36 +0.01    +0.066 A 
DOCKED: ATOM     11  C   UNL d   1      39.206  32.786  15.622 -0.39 -0.00    -0.021 A 
DOCKED: ATOM     12  C   UNL d   1      38.176  32.253  14.874 -0.39 +0.00    +0.000 A 
DOCKED: ATOM     13  C   UNL d   1      38.491  30.893  14.707 -0.34 +0.01    +0.070 A 
DOCKED: ATOM     14  C   UNL d   1      39.297  34.209  16.134 -0.44 +0.00    +0.052 C 
DOCKED: ATOM     15  C   UNL d   1      37.982  28.630  13.800 -0.34 +0.01    +0.066 A 
DOCKED: ATOM     16  C   UNL d   1      37.271  27.783  12.960 -0.46 -0.00    -0.021 A 
DOCKED: ATOM     17  C   UNL d   1      37.798  26.519  13.126 -0.45 +0.00    +0.000 A 
DOCKED: ATOM     18  C   UNL d   1      38.818  26.624  14.069 -0.38 +0.01    +0.070 A 
DOCKED: ATOM     19  C   UNL d   1      36.123  28.140  12.054 -0.65 +0.01    +0.052 C 
DOCKED: ATOM     20  C   UNL d   1      40.674  25.655  15.437 -0.38 +0.01    +0.066 A 
DOCKED: ATOM     21  C   UNL d   1      41.311  24.559  16.037 -0.40 -0.00    -0.025 A 
DOCKED: ATOM     22  C   UNL d   1      42.322  25.088  16.812 -0.35 -0.00    -0.021 A 
DOCKED: ATOM     23  C   UNL d   1      42.258  26.478  16.662 -0.31 +0.01    +0.066 A 
DOCKED: ATOM     24  C   UNL d   1      40.990  23.089  15.896 -0.50 +0.00    +0.051 C 
DOCKED: ATOM     25  N   UNL d   1      41.896  29.477  16.710 -0.21 -0.06    -0.248 N 
DOCKED: ATOM     26  N   UNL d   1      39.658  30.577  15.321 -0.09 -0.06    -0.248 N 
DOCKED: ATOM     27  N   UNL d   1      38.961  27.928  14.451 -0.15 -0.06    -0.248 N 
DOCKED: ATOM     28  N   UNL d   1      41.223  26.821  15.857 -0.26 -0.05    -0.248 N 
DOCKED: ATOM     29 FE   UNL d   1      40.440  28.697  15.588 -0.09 +0.00    +0.000 Fe
DOCKED: ENDROOT
DOCKED: BRANCH   6  30
DOCKED: ATOM     30  C   UNL d   1      45.119  29.385  18.483 -0.23 +0.02    +0.052 C 
DOCKED: BRANCH  30  31
DOCKED: ATOM     31  C   UNL d   1      44.902  28.423  19.645 -0.22 +0.08    +0.115 C 
DOCKED: BRANCH  31  32
DOCKED: ATOM     32  C   UNL d   1      46.220  27.921  20.166 -0.13 +0.12    +0.139 C 
DOCKED: ATOM     33  O   UNL d   1      46.669  28.334  21.226 -0.55 -0.88    -0.650 OA
DOCKED: BRANCH  32  34
DOCKED: ATOM     34  O   UNL d   1      46.919  27.010  19.468 +0.05 -0.45    -0.776 OA
DOCKED: ATOM     35  H   UNL d   1      46.773  26.070  19.644 +0.04 +0.10    +0.167 HD
DOCKED: ENDBRANCH  32  34
DOCKED: ENDBRANCH  31  32
DOCKED: ENDBRANCH  30  31
DOCKED: ENDBRANCH   6  30
DOCKED: BRANCH  22  36
DOCKED: ATOM     36  C   UNL d   1      43.262  24.301  17.686 -0.33 +0.01    +0.052 C 
DOCKED: BRANCH  36  37
DOCKED: ATOM     37  C   UNL d   1      42.878  24.482  19.148 -0.36 +0.04    +0.115 C 
DOCKED: BRANCH  37  38
DOCKED: ATOM     38  C   UNL d   1      44.041  24.186  20.051 -0.24 +0.06    +0.139 C 
DOCKED: ATOM     39  O   UNL d   1      44.164  23.087  20.571 -0.57 -0.34    -0.650 OA
DOCKED: BRANCH  38  40
DOCKED: ATOM     40  O   UNL d   1      44.959  25.137  20.298 +0.08 -0.49    -0.776 OA
DOCKED: ATOM     41  H   UNL d   1      45.217  25.738  19.585 +0.06 +0.10    +0.167 HD
DOCKED: ENDBRANCH  38  40
DOCKED: ENDBRANCH  37  38
DOCKED: ENDBRANCH  36  37
DOCKED: ENDBRANCH  22  36
DOCKED: BRANCH  12  42
DOCKED: ATOM     42  C   UNL d   1      36.985  33.017  14.390 -0.45 +0.00    +0.004 C 
DOCKED: ATOM     43  C   UNL d   1      36.750  33.171  13.080 -0.51 +0.00    +0.012 C 
DOCKED: ENDBRANCH  12  42
DOCKED: BRANCH  17  44
DOCKED: ATOM     44  C   UNL d   1      37.367  25.294  12.414 -0.47 +0.00    +0.004 C 
DOCKED: ATOM     45  C   UNL d   1      36.396  24.520  12.909 -0.69 +0.00    +0.012 C 
DOCKED: ENDBRANCH  17  44
DOCKED: TORSDOF 10
DOCKED: TER
DOCKED: ENDMDL
________________________________________________________________________________


	BEGINNING GENETIC ALGORITHM DOCKING 69 of 100
Run: 69 Seed: 228378687 1621613895 [ Run 69 of 100 GA/GALS ]
Beginning LAMARCKIAN GENETIC ALGORITHM (LGA), with a maximum of 25000000 energy evaluations.

Final-Value: -17.209


	FINAL GENETIC ALGORITHM DOCKED STATE
	_______________________________________________


Detailed state:  trans 41.729 28.153 15.950 quatxyzw -0.228483 -0.106920 0.947775 -0.195158 center -0.174 -0.001 -0.047 ntor 10 131.1908 -122.0664 66.5613 -148.0209 -121.7494 169.9172 -89.9988 -75.8954 171.3584 -18.7651
State:	 41.729  28.153  15.950  -0.233 -0.109  0.966 -157.492    131.19 -122.07   66.56 -148.02 -121.75  169.92  -90.00  -75.90  171.36  -18.77

DOCKED: MODEL       69
DOCKED: USER    Run = 69
DOCKED: USER    DPF = D:/Protein_go_brrr/autodock/final/6BB5/heme_Fe/dock.dpf
DOCKED: USER  
DOCKED: USER    Estimated Free Energy of Binding    =  -12.41 kcal/mol  [=(1)+(2)+(3)-(4)]
DOCKED: USER    Estimated Inhibition Constant, Ki   =  798.96 pM (picomolar)  [Temperature = 298.15 K]
DOCKED: USER    
DOCKED: USER    (1) Final Intermolecular Energy     =  -15.39 kcal/mol
DOCKED: USER        vdW + Hbond + desolv Energy     =  -13.33 kcal/mol
DOCKED: USER        Electrostatic Energy            =   -2.06 kcal/mol
DOCKED: USER    (2) Final Total Internal Energy     =   -1.82 kcal/mol
DOCKED: USER    (3) Torsional Free Energy           =   +2.98 kcal/mol
DOCKED: USER    (4) Unbound System's Energy  [=(2)] =   -1.82 kcal/mol
DOCKED: USER    
DOCKED: USER    
DOCKED: USER    NEWDPF move heme_Fe_opt.pdbqt
DOCKED: USER    NEWDPF about -0.174000 -0.001000 -0.047000
DOCKED: USER    NEWDPF tran0 41.728594 28.152793 15.949898
DOCKED: USER    NEWDPF quaternion0 -0.228483 -0.106920 0.947775 -0.195158
DOCKED: USER    NEWDPF axisangle0 -0.232963 -0.109016 0.966356 -157.492064
DOCKED: USER    NEWDPF quat0 -0.232963 -0.109016 0.966356 -157.492064
DOCKED: USER    NEWDPF dihe0 131.19 -122.07 66.56 -148.02 -121.75 169.92 -90.00 -75.90 171.36 -18.77 
DOCKED: USER  keepresnum = 1 
DOCKED: USER  
DOCKED: REMARK  10 active torsions:
DOCKED: REMARK  status: ('A' for Active; 'I' for Inactive)
DOCKED: REMARK    1  A    between atoms: C_6  and  C_10 
DOCKED: REMARK    2  A    between atoms: C_10  and  C_11 
DOCKED: REMARK    3  A    between atoms: C_11  and  C_12 
DOCKED: REMARK    4  A    between atoms: C_12  and  O_14 
DOCKED: REMARK    5  A    between atoms: C_17  and  C_20 
DOCKED: REMARK    6  A    between atoms: C_24  and  C_27 
DOCKED: REMARK    7  A    between atoms: C_31  and  C_34 
DOCKED: REMARK    8  A    between atoms: C_34  and  C_35 
DOCKED: REMARK    9  A    between atoms: C_35  and  C_36 
DOCKED: REMARK   10  A    between atoms: C_36  and  O_38 
DOCKED: USER                              x       y       z     vdW  Elec       q    Type
DOCKED: USER                           _______ _______ _______ _____ _____    ______ ____
DOCKED: ROOT
DOCKED: ATOM      1  C   UNL d   1      43.118  27.316  17.207 -0.24 +0.02    +0.064 C 
DOCKED: ATOM      2  C   UNL d   1      41.285  31.863  16.579 -0.40 +0.01    +0.064 A 
DOCKED: ATOM      3  C   UNL d   1      37.706  29.987  13.983 -0.36 +0.01    +0.064 C 
DOCKED: ATOM      4  C   UNL d   1      39.521  25.590  14.490 -0.46 +0.01    +0.064 C 
DOCKED: ATOM      5  C   UNL d   1      42.980  28.779  17.201 -0.22 +0.02    +0.066 A 
DOCKED: ATOM      6  C   UNL d   1      43.892  29.661  17.756 -0.28 -0.01    -0.021 A 
DOCKED: ATOM      7  C   UNL d   1      43.380  30.924  17.585 -0.30 -0.01    -0.025 A 
DOCKED: ATOM      8  C   UNL d   1      42.175  30.763  16.930 -0.34 +0.01    +0.066 A 
DOCKED: ATOM      9  C   UNL d   1      44.029  32.205  18.012 -0.28 +0.01    +0.051 C 
DOCKED: ATOM     10  C   UNL d   1      40.145  31.741  15.897 -0.36 +0.01    +0.066 A 
DOCKED: ATOM     11  C   UNL d   1      39.258  32.797  15.675 -0.39 -0.00    -0.021 A 
DOCKED: ATOM     12  C   UNL d   1      38.209  32.278  14.943 -0.39 +0.00    +0.000 A 
DOCKED: ATOM     13  C   UNL d   1      38.509  30.917  14.761 -0.35 +0.01    +0.070 A 
DOCKED: ATOM     14  C   UNL d   1      39.370  34.216  16.194 -0.41 +0.00    +0.052 C 
DOCKED: ATOM     15  C   UNL d   1      37.964  28.665  13.848 -0.34 +0.01    +0.066 A 
DOCKED: ATOM     16  C   UNL d   1      37.229  27.830  13.015 -0.46 -0.00    -0.021 A 
DOCKED: ATOM     17  C   UNL d   1      37.749  26.560  13.163 -0.45 +0.00    +0.000 A 
DOCKED: ATOM     18  C   UNL d   1      38.787  26.650  14.087 -0.37 +0.01    +0.070 A 
DOCKED: ATOM     19  C   UNL d   1      36.068  28.203  12.134 -0.65 +0.00    +0.052 C 
DOCKED: ATOM     20  C   UNL d   1      40.660  25.656  15.413 -0.38 +0.01    +0.066 A 
DOCKED: ATOM     21  C   UNL d   1      41.299  24.551  15.992 -0.41 -0.00    -0.025 A 
DOCKED: ATOM     22  C   UNL d   1      42.329  25.065  16.753 -0.35 -0.00    -0.021 A 
DOCKED: ATOM     23  C   UNL d   1      42.274  26.457  16.613 -0.31 +0.01    +0.066 A 
DOCKED: ATOM     24  C   UNL d   1      40.963  23.085  15.848 -0.49 +0.00    +0.051 C 
DOCKED: ATOM     25  N   UNL d   1      41.939  29.458  16.689 -0.21 -0.06    -0.248 N 
DOCKED: ATOM     26  N   UNL d   1      39.685  30.587  15.349 -0.12 -0.06    -0.248 N 
DOCKED: ATOM     27  N   UNL d   1      38.949  27.951  14.475 -0.15 -0.06    -0.248 N 
DOCKED: ATOM     28  N   UNL d   1      41.227  26.814  15.831 -0.26 -0.05    -0.248 N 
DOCKED: ATOM     29 FE   UNL d   1      40.455  28.699  15.589 -0.09 +0.00    +0.000 Fe
DOCKED: ENDROOT
DOCKED: BRANCH   6  30
DOCKED: ATOM     30  C   UNL d   1      45.194  29.326  18.399 -0.22 +0.02    +0.052 C 
DOCKED: BRANCH  30  31
DOCKED: ATOM     31  C   UNL d   1      45.059  29.314  19.918 -0.18 +0.09    +0.115 C 
DOCKED: BRANCH  31  32
DOCKED: ATOM     32  C   UNL d   1      44.682  27.942  20.402 -0.16 +0.16    +0.139 C 
DOCKED: ATOM     33  O   UNL d   1      43.660  27.769  21.051 -0.31 -1.01    -0.650 OA
DOCKED: BRANCH  32  34
DOCKED: ATOM     34  O   UNL d   1      45.469  26.888  20.124 +0.02 -0.67    -0.776 OA
DOCKED: ATOM     35  H   UNL d   1      45.770  26.754  19.214 +0.05 +0.10    +0.167 HD
DOCKED: ENDBRANCH  32  34
DOCKED: ENDBRANCH  31  32
DOCKED: ENDBRANCH  30  31
DOCKED: ENDBRANCH   6  30
DOCKED: BRANCH  22  36
DOCKED: ATOM     36  C   UNL d   1      43.279  24.264  17.603 -0.32 +0.01    +0.052 C 
DOCKED: BRANCH  36  37
DOCKED: ATOM     37  C   UNL d   1      44.340  23.621  16.722 -0.10 +0.04    +0.115 C 
DOCKED: BRANCH  37  38
DOCKED: ATOM     38  C   UNL d   1      45.643  24.362  16.821 -0.19 +0.07    +0.139 C 
DOCKED: ATOM     39  O   UNL d   1      46.664  23.898  16.335 -0.07 -0.52    -0.650 OA
DOCKED: BRANCH  38  40
DOCKED: ATOM     40  O   UNL d   1      45.696  25.548  17.453 +0.06 -0.34    -0.776 OA
DOCKED: ATOM     41  H   UNL d   1      45.414  25.601  18.377 +0.06 +0.08    +0.167 HD
DOCKED: ENDBRANCH  38  40
DOCKED: ENDBRANCH  37  38
DOCKED: ENDBRANCH  36  37
DOCKED: ENDBRANCH  22  36
DOCKED: BRANCH  12  42
DOCKED: ATOM     42  C   UNL d   1      37.016  33.057  14.486 -0.45 +0.00    +0.004 C 
DOCKED: ATOM     43  C   UNL d   1      36.788  33.269  13.184 -0.51 +0.00    +0.012 C 
DOCKED: ENDBRANCH  12  42
DOCKED: BRANCH  17  44
DOCKED: ATOM     44  C   UNL d   1      37.294  25.345  12.450 -0.50 +0.00    +0.004 C 
DOCKED: ATOM     45  C   UNL d   1      36.391  24.526  13.000 -0.69 +0.00    +0.012 C 
DOCKED: ENDBRANCH  17  44
DOCKED: TORSDOF 10
DOCKED: TER
DOCKED: ENDMDL
________________________________________________________________________________


	BEGINNING GENETIC ALGORITHM DOCKING 70 of 100
Run: 70 Seed: 1161333360 78087465 [ Run 70 of 100 GA/GALS ]
Beginning LAMARCKIAN GENETIC ALGORITHM (LGA), with a maximum of 25000000 energy evaluations.

Final-Value: -17.167


	FINAL GENETIC ALGORITHM DOCKED STATE
	_______________________________________________


Detailed state:  trans 41.730 28.607 15.945 quatxyzw 0.243984 0.102128 -0.949731 0.167492 center -0.174 -0.001 -0.047 ntor 10 -89.8908 -140.9790 73.6336 -136.0642 127.8792 -180.0000 -51.1698 -73.7809 -171.3004 -37.9176
State:	 41.730  28.607  15.945   0.247  0.104 -0.963 160.716    -89.89 -140.98   73.63 -136.06  127.88 -180.00  -51.17  -73.78 -171.30  -37.92

DOCKED: MODEL       70
DOCKED: USER    Run = 70
DOCKED: USER    DPF = D:/Protein_go_brrr/autodock/final/6BB5/heme_Fe/dock.dpf
DOCKED: USER  
DOCKED: USER    Estimated Free Energy of Binding    =  -12.54 kcal/mol  [=(1)+(2)+(3)-(4)]
DOCKED: USER    Estimated Inhibition Constant, Ki   =  643.20 pM (picomolar)  [Temperature = 298.15 K]
DOCKED: USER    
DOCKED: USER    (1) Final Intermolecular Energy     =  -15.52 kcal/mol
DOCKED: USER        vdW + Hbond + desolv Energy     =  -13.56 kcal/mol
DOCKED: USER        Electrostatic Energy            =   -1.96 kcal/mol
DOCKED: USER    (2) Final Total Internal Energy     =   -1.64 kcal/mol
DOCKED: USER    (3) Torsional Free Energy           =   +2.98 kcal/mol
DOCKED: USER    (4) Unbound System's Energy  [=(2)] =   -1.64 kcal/mol
DOCKED: USER    
DOCKED: USER    
DOCKED: USER    NEWDPF move heme_Fe_opt.pdbqt
DOCKED: USER    NEWDPF about -0.174000 -0.001000 -0.047000
DOCKED: USER    NEWDPF tran0 41.730203 28.606676 15.944719
DOCKED: USER    NEWDPF quaternion0 0.243984 0.102128 -0.949731 0.167492
DOCKED: USER    NEWDPF axisangle0 0.247480 0.103591 -0.963339 160.715954
DOCKED: USER    NEWDPF quat0 0.247480 0.103591 -0.963339 160.715954
DOCKED: USER    NEWDPF dihe0 -89.89 -140.98 73.63 -136.06 127.88 -180.00 -51.17 -73.78 -171.30 -37.92 
DOCKED: USER  keepresnum = 1 
DOCKED: USER  
DOCKED: REMARK  10 active torsions:
DOCKED: REMARK  status: ('A' for Active; 'I' for Inactive)
DOCKED: REMARK    1  A    between atoms: C_6  and  C_10 
DOCKED: REMARK    2  A    between atoms: C_10  and  C_11 
DOCKED: REMARK    3  A    between atoms: C_11  and  C_12 
DOCKED: REMARK    4  A    between atoms: C_12  and  O_14 
DOCKED: REMARK    5  A    between atoms: C_17  and  C_20 
DOCKED: REMARK    6  A    between atoms: C_24  and  C_27 
DOCKED: REMARK    7  A    between atoms: C_31  and  C_34 
DOCKED: REMARK    8  A    between atoms: C_34  and  C_35 
DOCKED: REMARK    9  A    between atoms: C_35  and  C_36 
DOCKED: REMARK   10  A    between atoms: C_36  and  O_38 
DOCKED: USER                              x       y       z     vdW  Elec       q    Type
DOCKED: USER                           _______ _______ _______ _____ _____    ______ ____
DOCKED: ROOT
DOCKED: ATOM      1  C   UNL d   1      43.115  27.872  17.269 -0.20 +0.02    +0.064 C 
DOCKED: ATOM      2  C   UNL d   1      41.092  32.307  16.451 -0.42 +0.01    +0.064 A 
DOCKED: ATOM      3  C   UNL d   1      37.693  30.191  13.798 -0.36 +0.01    +0.064 C 
DOCKED: ATOM      4  C   UNL d   1      39.696  25.901  14.490 -0.47 +0.01    +0.064 C 
DOCKED: ATOM      5  C   UNL d   1      42.909  29.326  17.216 -0.26 +0.02    +0.066 A 
DOCKED: ATOM      6  C   UNL d   1      43.759  30.267  17.775 -0.30 -0.01    -0.021 A 
DOCKED: ATOM      7  C   UNL d   1      43.194  31.498  17.550 -0.28 -0.00    -0.025 A 
DOCKED: ATOM      8  C   UNL d   1      42.020  31.261  16.862 -0.36 +0.01    +0.066 A 
DOCKED: ATOM      9  C   UNL d   1      43.767  32.820  17.960 -0.34 +0.01    +0.051 C 
DOCKED: ATOM     10  C   UNL d   1      39.982  32.112  15.737 -0.37 +0.01    +0.066 A 
DOCKED: ATOM     11  C   UNL d   1      39.054  33.118  15.457 -0.41 -0.00    -0.021 A 
DOCKED: ATOM     12  C   UNL d   1      38.055  32.529  14.707 -0.40 +0.00    +0.000 A 
DOCKED: ATOM     13  C   UNL d   1      38.425  31.179  14.574 -0.35 +0.01    +0.070 A 
DOCKED: ATOM     14  C   UNL d   1      39.081  34.554  15.938 -0.55 +0.00    +0.052 C 
DOCKED: ATOM     15  C   UNL d   1      38.017  28.879  13.710 -0.33 +0.01    +0.066 A 
DOCKED: ATOM     16  C   UNL d   1      37.351  27.987  12.879 -0.47 -0.00    -0.021 A 
DOCKED: ATOM     17  C   UNL d   1      37.925  26.749  13.079 -0.45 +0.00    +0.000 A 
DOCKED: ATOM     18  C   UNL d   1      38.927  26.914  14.033 -0.36 +0.01    +0.070 A 
DOCKED: ATOM     19  C   UNL d   1      36.203  28.280  11.951 -0.65 +0.01    +0.052 C 
DOCKED: ATOM     20  C   UNL d   1      40.799  26.048  15.447 -0.39 +0.01    +0.066 A 
DOCKED: ATOM     21  C   UNL d   1      41.470  24.991  16.078 -0.39 -0.00    -0.025 A 
DOCKED: ATOM     22  C   UNL d   1      42.448  25.575  16.855 -0.34 -0.00    -0.021 A 
DOCKED: ATOM     23  C   UNL d   1      42.333  26.958  16.674 -0.27 +0.02    +0.066 A 
DOCKED: ATOM     24  C   UNL d   1      41.208  23.507  15.965 -0.50 +0.00    +0.051 C 
DOCKED: ATOM     25  N   UNL d   1      41.854  29.940  16.652 -0.23 -0.05    -0.248 N 
DOCKED: ATOM     26  N   UNL d   1      39.595  30.923  15.209 -0.19 -0.05    -0.248 N 
DOCKED: ATOM     27  N   UNL d   1      39.014  28.231  14.389 -0.04 -0.07    -0.248 N 
DOCKED: ATOM     28  N   UNL d   1      41.297  27.243  15.848 -0.25 -0.05    -0.248 N 
DOCKED: ATOM     29 FE   UNL d   1      40.445  29.081  15.528 -0.09 +0.00    +0.000 Fe
DOCKED: ENDROOT
DOCKED: BRANCH   6  30
DOCKED: ATOM     30  C   UNL d   1      45.053  30.012  18.468 -0.24 +0.02    +0.052 C 
DOCKED: BRANCH  30  31
DOCKED: ATOM     31  C   UNL d   1      44.819  29.613  19.921 -0.14 +0.08    +0.115 C 
DOCKED: BRANCH  31  32
DOCKED: ATOM     32  C   UNL d   1      45.563  28.347  20.245 -0.15 +0.14    +0.139 C 
DOCKED: ATOM     33  O   UNL d   1      46.308  28.293  21.214 -0.51 -1.02    -0.650 OA
DOCKED: BRANCH  32  34
DOCKED: ATOM     34  O   UNL d   1      45.415  27.260  19.470 +0.06 -0.52    -0.776 OA
DOCKED: ATOM     35  H   UNL d   1      46.010  27.136  18.717 +0.05 +0.08    +0.167 HD
DOCKED: ENDBRANCH  32  34
DOCKED: ENDBRANCH  31  32
DOCKED: ENDBRANCH  30  31
DOCKED: ENDBRANCH   6  30
DOCKED: BRANCH  22  36
DOCKED: ATOM     36  C   UNL d   1      43.407  24.844  17.758 -0.30 +0.02    +0.052 C 
DOCKED: BRANCH  36  37
DOCKED: ATOM     37  C   UNL d   1      44.229  23.856  16.944 -0.16 +0.04    +0.115 C 
DOCKED: BRANCH  37  38
DOCKED: ATOM     38  C   UNL d   1      45.632  24.356  16.747 -0.19 +0.07    +0.139 C 
DOCKED: ATOM     39  O   UNL d   1      46.447  23.699  16.116 -0.05 -0.51    -0.650 OA
DOCKED: BRANCH  38  40
DOCKED: ATOM     40  O   UNL d   1      46.003  25.538  17.271 +0.05 -0.35    -0.776 OA
DOCKED: ATOM     41  H   UNL d   1      45.676  25.787  18.146 +0.06 +0.07    +0.167 HD
DOCKED: ENDBRANCH  38  40
DOCKED: ENDBRANCH  37  38
DOCKED: ENDBRANCH  36  37
DOCKED: ENDBRANCH  22  36
DOCKED: BRANCH  12  42
DOCKED: ATOM     42  C   UNL d   1      36.842  33.236  14.191 -0.46 +0.00    +0.004 C 
DOCKED: ATOM     43  C   UNL d   1      36.576  33.280  12.879 -0.53 +0.00    +0.012 C 
DOCKED: ENDBRANCH  12  42
DOCKED: BRANCH  17  44
DOCKED: ATOM     44  C   UNL d   1      37.552  25.494  12.389 -0.35 +0.00    +0.004 C 
DOCKED: ATOM     45  C   UNL d   1      36.509  24.767  12.803 -0.68 +0.00    +0.012 C 
DOCKED: ENDBRANCH  17  44
DOCKED: TORSDOF 10
DOCKED: TER
DOCKED: ENDMDL
________________________________________________________________________________


	BEGINNING GENETIC ALGORITHM DOCKING 71 of 100
Run: 71 Seed: 1721999356 32182175 [ Run 71 of 100 GA/GALS ]
Beginning LAMARCKIAN GENETIC ALGORITHM (LGA), with a maximum of 25000000 energy evaluations.

Final-Value: -16.389


	FINAL GENETIC ALGORITHM DOCKED STATE
	_______________________________________________


Detailed state:  trans 41.720 28.266 15.960 quatxyzw 0.232126 0.099511 -0.948602 0.190706 center -0.174 -0.001 -0.047 ntor 10 95.9817 56.9453 70.3203 -146.8713 -70.1522 -153.3686 -70.2481 -0.2278 169.5175 -24.0218
State:	 41.720  28.266  15.960   0.236  0.101 -0.966 158.012     95.98   56.95   70.32 -146.87  -70.15 -153.37  -70.25   -0.23  169.52  -24.02

DOCKED: MODEL       71
DOCKED: USER    Run = 71
DOCKED: USER    DPF = D:/Protein_go_brrr/autodock/final/6BB5/heme_Fe/dock.dpf
DOCKED: USER  
DOCKED: USER    Estimated Free Energy of Binding    =  -12.90 kcal/mol  [=(1)+(2)+(3)-(4)]
DOCKED: USER    Estimated Inhibition Constant, Ki   =  351.83 pM (picomolar)  [Temperature = 298.15 K]
DOCKED: USER    
DOCKED: USER    (1) Final Intermolecular Energy     =  -15.88 kcal/mol
DOCKED: USER        vdW + Hbond + desolv Energy     =  -13.68 kcal/mol
DOCKED: USER        Electrostatic Energy            =   -2.20 kcal/mol
DOCKED: USER    (2) Final Total Internal Energy     =   -0.51 kcal/mol
DOCKED: USER    (3) Torsional Free Energy           =   +2.98 kcal/mol
DOCKED: USER    (4) Unbound System's Energy  [=(2)] =   -0.51 kcal/mol
DOCKED: USER    
DOCKED: USER    
DOCKED: USER    NEWDPF move heme_Fe_opt.pdbqt
DOCKED: USER    NEWDPF about -0.174000 -0.001000 -0.047000
DOCKED: USER    NEWDPF tran0 41.720437 28.266453 15.960402
DOCKED: USER    NEWDPF quaternion0 0.232126 0.099511 -0.948602 0.190706
DOCKED: USER    NEWDPF axisangle0 0.236466 0.101372 -0.966337 158.011990
DOCKED: USER    NEWDPF quat0 0.236466 0.101372 -0.966337 158.011990
DOCKED: USER    NEWDPF dihe0 95.98 56.95 70.32 -146.87 -70.15 -153.37 -70.25 -0.23 169.52 -24.02 
DOCKED: USER  keepresnum = 1 
DOCKED: USER  
DOCKED: REMARK  10 active torsions:
DOCKED: REMARK  status: ('A' for Active; 'I' for Inactive)
DOCKED: REMARK    1  A    between atoms: C_6  and  C_10 
DOCKED: REMARK    2  A    between atoms: C_10  and  C_11 
DOCKED: REMARK    3  A    between atoms: C_11  and  C_12 
DOCKED: REMARK    4  A    between atoms: C_12  and  O_14 
DOCKED: REMARK    5  A    between atoms: C_17  and  C_20 
DOCKED: REMARK    6  A    between atoms: C_24  and  C_27 
DOCKED: REMARK    7  A    between atoms: C_31  and  C_34 
DOCKED: REMARK    8  A    between atoms: C_34  and  C_35 
DOCKED: REMARK    9  A    between atoms: C_35  and  C_36 
DOCKED: REMARK   10  A    between atoms: C_36  and  O_38 
DOCKED: USER                              x       y       z     vdW  Elec       q    Type
DOCKED: USER                           _______ _______ _______ _____ _____    ______ ____
DOCKED: ROOT
DOCKED: ATOM      1  C   UNL d   1      43.108  27.458  17.238 -0.22 +0.02    +0.064 C 
DOCKED: ATOM      2  C   UNL d   1      41.257  31.985  16.521 -0.40 +0.01    +0.064 A 
DOCKED: ATOM      3  C   UNL d   1      37.699  30.047  13.943 -0.36 +0.01    +0.064 C 
DOCKED: ATOM      4  C   UNL d   1      39.531  25.668  14.536 -0.46 +0.01    +0.064 C 
DOCKED: ATOM      5  C   UNL d   1      42.964  28.920  17.205 -0.23 +0.02    +0.066 A 
DOCKED: ATOM      6  C   UNL d   1      43.869  29.817  17.750 -0.28 -0.01    -0.021 A 
DOCKED: ATOM      7  C   UNL d   1      43.352  31.073  17.554 -0.28 -0.01    -0.025 A 
DOCKED: ATOM      8  C   UNL d   1      42.150  30.896  16.896 -0.34 +0.01    +0.066 A 
DOCKED: ATOM      9  C   UNL d   1      43.993  32.365  17.960 -0.28 +0.01    +0.051 C 
DOCKED: ATOM     10  C   UNL d   1      40.121  31.846  15.836 -0.36 +0.01    +0.066 A 
DOCKED: ATOM     11  C   UNL d   1      39.230  32.894  15.592 -0.40 -0.00    -0.021 A 
DOCKED: ATOM     12  C   UNL d   1      38.187  32.357  14.864 -0.39 +0.00    +0.000 A 
DOCKED: ATOM     13  C   UNL d   1      38.494  30.995  14.708 -0.35 +0.01    +0.070 A 
DOCKED: ATOM     14  C   UNL d   1      39.333  34.322  16.087 -0.45 +0.00    +0.052 C 
DOCKED: ATOM     15  C   UNL d   1      37.963  28.724  13.833 -0.33 +0.01    +0.066 A 
DOCKED: ATOM     16  C   UNL d   1      37.236  27.871  13.012 -0.46 -0.00    -0.021 A 
DOCKED: ATOM     17  C   UNL d   1      37.761  26.607  13.184 -0.45 +0.00    +0.000 A 
DOCKED: ATOM     18  C   UNL d   1      38.795  26.717  14.111 -0.37 +0.01    +0.070 A 
DOCKED: ATOM     19  C   UNL d   1      36.077  28.223  12.119 -0.65 +0.00    +0.052 C 
DOCKED: ATOM     20  C   UNL d   1      40.666  25.756  15.463 -0.38 +0.01    +0.066 A 
DOCKED: ATOM     21  C   UNL d   1      41.307  24.664  16.065 -0.39 -0.00    -0.025 A 
DOCKED: ATOM     22  C   UNL d   1      42.331  25.196  16.820 -0.35 -0.00    -0.021 A 
DOCKED: ATOM     23  C   UNL d   1      42.271  26.585  16.656 -0.31 +0.01    +0.066 A 
DOCKED: ATOM     24  C   UNL d   1      40.978  23.194  15.945 -0.49 +0.00    +0.051 C 
DOCKED: ATOM     25  N   UNL d   1      41.921  29.585  16.677 -0.22 -0.05    -0.248 N 
DOCKED: ATOM     26  N   UNL d   1      39.669  30.680  15.308 -0.10 -0.06    -0.248 N 
DOCKED: ATOM     27  N   UNL d   1      38.949  28.025  14.477 -0.13 -0.07    -0.248 N 
DOCKED: ATOM     28  N   UNL d   1      41.226  26.923  15.863 -0.26 -0.05    -0.248 N 
DOCKED: ATOM     29 FE   UNL d   1      40.446  28.800  15.585 -0.09 +0.00    +0.000 Fe
DOCKED: ENDROOT
DOCKED: BRANCH   6  30
DOCKED: ATOM     30  C   UNL d   1      45.169  29.499  18.405 -0.23 +0.02    +0.052 C 
DOCKED: BRANCH  30  31
DOCKED: ATOM     31  C   UNL d   1      45.038  29.558  19.923 -0.15 +0.08    +0.115 C 
DOCKED: BRANCH  31  32
DOCKED: ATOM     32  C   UNL d   1      45.129  28.178  20.512 -0.12 +0.16    +0.139 C 
DOCKED: ATOM     33  O   UNL d   1      44.226  27.370  20.350 -0.11 -0.67    -0.650 OA
DOCKED: BRANCH  32  34
DOCKED: ATOM     34  O   UNL d   1      46.210  27.819  21.226 -0.48 -1.26    -0.776 OA
DOCKED: ATOM     35  H   UNL d   1      46.995  27.498  20.761 +0.02 +0.16    +0.167 HD
DOCKED: ENDBRANCH  32  34
DOCKED: ENDBRANCH  31  32
DOCKED: ENDBRANCH  30  31
DOCKED: ENDBRANCH   6  30
DOCKED: BRANCH  22  36
DOCKED: ATOM     36  C   UNL d   1      43.281  24.415  17.689 -0.32 +0.01    +0.052 C 
DOCKED: BRANCH  36  37
DOCKED: ATOM     37  C   UNL d   1      44.270  23.657  16.816 -0.12 +0.04    +0.115 C 
DOCKED: BRANCH  37  38
DOCKED: ATOM     38  C   UNL d   1      45.249  22.886  17.656 -0.18 +0.06    +0.139 C 
DOCKED: ATOM     39  O   UNL d   1      46.364  22.620  17.230 -0.01 -0.48    -0.650 OA
DOCKED: BRANCH  38  40
DOCKED: ATOM     40  O   UNL d   1      44.901  22.479  18.889 -0.05 -0.32    -0.776 OA
DOCKED: ATOM     41  H   UNL d   1      45.443  22.748  19.644 +0.04 +0.07    +0.167 HD
DOCKED: ENDBRANCH  38  40
DOCKED: ENDBRANCH  37  38
DOCKED: ENDBRANCH  36  37
DOCKED: ENDBRANCH  22  36
DOCKED: BRANCH  12  42
DOCKED: ATOM     42  C   UNL d   1      36.992  33.122  14.389 -0.46 +0.00    +0.004 C 
DOCKED: ATOM     43  C   UNL d   1      36.729  33.246  13.082 -0.51 +0.00    +0.012 C 
DOCKED: ENDBRANCH  12  42
DOCKED: BRANCH  17  44
DOCKED: ATOM     44  C   UNL d   1      37.315  25.376  12.491 -0.50 +0.00    +0.004 C 
DOCKED: ATOM     45  C   UNL d   1      36.397  24.576  13.041 -0.69 +0.00    +0.012 C 
DOCKED: ENDBRANCH  17  44
DOCKED: TORSDOF 10
DOCKED: TER
DOCKED: ENDMDL
________________________________________________________________________________


	BEGINNING GENETIC ALGORITHM DOCKING 72 of 100
Run: 72 Seed: 1772480055 697141243 [ Run 72 of 100 GA/GALS ]
Beginning LAMARCKIAN GENETIC ALGORITHM (LGA), with a maximum of 25000000 energy evaluations.

Final-Value: -10.374


	FINAL GENETIC ALGORITHM DOCKED STATE
	_______________________________________________


Detailed state:  trans -0.851 36.277 2.088 quatxyzw 0.495541 -0.591471 -0.045762 -0.634434 center -0.174 -0.001 -0.047 ntor 10 -84.6039 173.8888 -163.1020 -156.0234 107.9689 -85.5541 117.9432 -153.8285 22.8752 -11.3028
State:	 -0.851  36.277   2.088   0.641 -0.765 -0.059 -101.244    -84.60  173.89 -163.10 -156.02  107.97  -85.55  117.94 -153.83   22.88  -11.30

DOCKED: MODEL       72
DOCKED: USER    Run = 72
DOCKED: USER    DPF = D:/Protein_go_brrr/autodock/final/6BB5/heme_Fe/dock.dpf
DOCKED: USER  
DOCKED: USER    Estimated Free Energy of Binding    =   -5.94 kcal/mol  [=(1)+(2)+(3)-(4)]
DOCKED: USER    Estimated Inhibition Constant, Ki   =   44.15 uM (micromolar)  [Temperature = 298.15 K]
DOCKED: USER    
DOCKED: USER    (1) Final Intermolecular Energy     =   -8.92 kcal/mol
DOCKED: USER        vdW + Hbond + desolv Energy     =   -5.63 kcal/mol
DOCKED: USER        Electrostatic Energy            =   -3.29 kcal/mol
DOCKED: USER    (2) Final Total Internal Energy     =   -1.45 kcal/mol
DOCKED: USER    (3) Torsional Free Energy           =   +2.98 kcal/mol
DOCKED: USER    (4) Unbound System's Energy  [=(2)] =   -1.45 kcal/mol
DOCKED: USER    
DOCKED: USER    
DOCKED: USER    NEWDPF move heme_Fe_opt.pdbqt
DOCKED: USER    NEWDPF about -0.174000 -0.001000 -0.047000
DOCKED: USER    NEWDPF tran0 -0.851390 36.276890 2.087622
DOCKED: USER    NEWDPF quaternion0 0.495541 -0.591471 -0.045762 -0.634434
DOCKED: USER    NEWDPF axisangle0 0.641081 -0.765186 -0.059202 -101.243890
DOCKED: USER    NEWDPF quat0 0.641081 -0.765186 -0.059202 -101.243890
DOCKED: USER    NEWDPF dihe0 -84.60 173.89 -163.10 -156.02 107.97 -85.55 117.94 -153.83 22.88 -11.30 
DOCKED: USER  keepresnum = 1 
DOCKED: USER  
DOCKED: REMARK  10 active torsions:
DOCKED: REMARK  status: ('A' for Active; 'I' for Inactive)
DOCKED: REMARK    1  A    between atoms: C_6  and  C_10 
DOCKED: REMARK    2  A    between atoms: C_10  and  C_11 
DOCKED: REMARK    3  A    between atoms: C_11  and  C_12 
DOCKED: REMARK    4  A    between atoms: C_12  and  O_14 
DOCKED: REMARK    5  A    between atoms: C_17  and  C_20 
DOCKED: REMARK    6  A    between atoms: C_24  and  C_27 
DOCKED: REMARK    7  A    between atoms: C_31  and  C_34 
DOCKED: REMARK    8  A    between atoms: C_34  and  C_35 
DOCKED: REMARK    9  A    between atoms: C_35  and  C_36 
DOCKED: REMARK   10  A    between atoms: C_36  and  O_38 
DOCKED: USER                              x       y       z     vdW  Elec       q    Type
DOCKED: USER                           _______ _______ _______ _____ _____    ______ ____
DOCKED: ROOT
DOCKED: ATOM      1  C   UNL d   1      -1.830  37.218   0.549 +0.01 +0.04    +0.064 C 
DOCKED: ATOM      2  C   UNL d   1       1.162  33.298   0.890 -0.12 +0.01    +0.064 A 
DOCKED: ATOM      3  C   UNL d   1       0.480  33.279   5.645 -0.31 +0.01    +0.064 C 
DOCKED: ATOM      4  C   UNL d   1      -2.335  37.136   5.349 -0.13 +0.02    +0.064 C 
DOCKED: ATOM      5  C   UNL d   1      -0.859  36.168   0.214 -0.08 +0.04    +0.066 A 
DOCKED: ATOM      6  C   UNL d   1      -0.336  35.948  -1.050 -0.08 -0.01    -0.021 A 
DOCKED: ATOM      7  C   UNL d   1       0.491  34.857  -0.955 -0.08 -0.01    -0.025 A 
DOCKED: ATOM      8  C   UNL d   1       0.443  34.452   0.365 -0.10 +0.02    +0.066 A 
DOCKED: ATOM      9  C   UNL d   1       1.293  34.257  -2.070 -0.07 +0.01    +0.051 C 
DOCKED: ATOM     10  C   UNL d   1       1.178  32.921   2.170 -0.16 +0.01    +0.066 A 
DOCKED: ATOM     11  C   UNL d   1       1.781  31.746   2.624 -0.21 -0.00    -0.021 A 
DOCKED: ATOM     12  C   UNL d   1       1.584  31.708   3.990 -0.29 -0.00    +0.000 A 
DOCKED: ATOM     13  C   UNL d   1       0.856  32.870   4.300 -0.23 +0.01    +0.070 A 
DOCKED: ATOM     14  C   UNL d   1       2.454  30.676   1.788 -0.19 -0.00    +0.052 C 
DOCKED: ATOM     15  C   UNL d   1      -0.266  34.368   5.944 -0.23 +0.01    +0.066 A 
DOCKED: ATOM     16  C   UNL d   1      -0.520  34.780   7.246 -0.25 -0.00    -0.021 A 
DOCKED: ATOM     17  C   UNL d   1      -1.334  35.890   7.163 -0.20 +0.00    +0.000 A 
DOCKED: ATOM     18  C   UNL d   1      -1.562  36.128   5.810 -0.15 +0.02    +0.070 A 
DOCKED: ATOM     19  C   UNL d   1      -0.038  34.142   8.521 -0.28 +0.00    +0.052 C 
DOCKED: ATOM     20  C   UNL d   1      -2.548  37.453   3.932 -0.09 +0.03    +0.066 A 
DOCKED: ATOM     21  C   UNL d   1      -3.496  38.360   3.439 -0.05 -0.01    -0.025 A 
DOCKED: ATOM     22  C   UNL d   1      -3.326  38.378   2.070 -0.06 -0.01    -0.021 A 
DOCKED: ATOM     23  C   UNL d   1      -2.291  37.481   1.782 +0.01 +0.04    +0.066 A 
DOCKED: ATOM     24  C   UNL d   1      -4.516  39.170   4.206 -0.02 +0.01    +0.051 C 
DOCKED: ATOM     25  N   UNL d   1      -0.372  35.258   1.075 -0.07 -0.12    -0.248 N 
DOCKED: ATOM     26  N   UNL d   1       0.600  33.605   3.190 -0.13 -0.05    -0.248 N 
DOCKED: ATOM     27  N   UNL d   1      -0.870  35.220   5.058 -0.12 -0.07    -0.248 N 
DOCKED: ATOM     28  N   UNL d   1      -1.850  36.886   2.918 +0.01 -0.15    -0.248 N 
DOCKED: ATOM     29 FE   UNL d   1      -0.626  35.247   3.056 -0.04 +0.00    +0.000 Fe
DOCKED: ENDROOT
DOCKED: BRANCH   6  30
DOCKED: ATOM     30  C   UNL d   1      -0.593  36.745  -2.283 -0.04 +0.02    +0.052 C 
DOCKED: BRANCH  30  31
DOCKED: ATOM     31  C   UNL d   1       0.666  37.487  -2.718 -0.05 +0.05    +0.115 C 
DOCKED: BRANCH  31  32
DOCKED: ATOM     32  C   UNL d   1       1.097  38.461  -1.656 -0.06 +0.16    +0.139 C 
DOCKED: ATOM     33  O   UNL d   1       2.090  38.243  -0.977 -0.56 -0.97    -0.650 OA
DOCKED: BRANCH  32  34
DOCKED: ATOM     34  O   UNL d   1       0.389  39.583  -1.443 -0.11 -1.10    -0.776 OA
DOCKED: ATOM     35  H   UNL d   1      -0.282  39.590  -0.746 +0.01 +0.30    +0.167 HD
DOCKED: ENDBRANCH  32  34
DOCKED: ENDBRANCH  31  32
DOCKED: ENDBRANCH  30  31
DOCKED: ENDBRANCH   6  30
DOCKED: BRANCH  22  36
DOCKED: ATOM     36  C   UNL d   1      -4.148  39.175   1.091 -0.02 +0.02    +0.052 C 
DOCKED: BRANCH  36  37
DOCKED: ATOM     37  C   UNL d   1      -3.573  40.578   0.962 -0.03 +0.05    +0.115 C 
DOCKED: BRANCH  37  38
DOCKED: ATOM     38  C   UNL d   1      -2.110  40.594   1.304 -0.06 +0.13    +0.139 C 
DOCKED: ATOM     39  O   UNL d   1      -1.740  40.712   2.463 -0.13 -0.69    -0.650 OA
DOCKED: BRANCH  38  40
DOCKED: ATOM     40  O   UNL d   1      -1.191  40.483   0.329 -0.12 -1.29    -0.776 OA
DOCKED: ATOM     41  H   UNL d   1      -1.484  40.300  -0.575 +0.01 +0.17    +0.167 HD
DOCKED: ENDBRANCH  38  40
DOCKED: ENDBRANCH  37  38
DOCKED: ENDBRANCH  36  37
DOCKED: ENDBRANCH  22  36
DOCKED: BRANCH  12  42
DOCKED: ATOM     42  C   UNL d   1       2.057  30.614   4.893 -0.29 -0.00    +0.004 C 
DOCKED: ATOM     43  C   UNL d   1       1.186  29.838   5.550 -0.31 -0.00    +0.012 C 
DOCKED: ENDBRANCH  12  42
DOCKED: BRANCH  17  44
DOCKED: ATOM     44  C   UNL d   1      -1.844  36.684   8.304 -0.07 +0.00    +0.004 C 
DOCKED: ATOM     45  C   UNL d   1      -3.103  36.538   8.731 -0.10 +0.00    +0.012 C 
DOCKED: ENDBRANCH  17  44
DOCKED: TORSDOF 10
DOCKED: TER
DOCKED: ENDMDL
________________________________________________________________________________


	BEGINNING GENETIC ALGORITHM DOCKING 73 of 100
Run: 73 Seed: 1576937605 760048338 [ Run 73 of 100 GA/GALS ]
Beginning LAMARCKIAN GENETIC ALGORITHM (LGA), with a maximum of 25000000 energy evaluations.

Final-Value: -17.219


	FINAL GENETIC ALGORITHM DOCKED STATE
	_______________________________________________


Detailed state:  trans 41.778 28.275 15.975 quatxyzw -0.229861 -0.101426 0.951190 -0.179204 center -0.174 -0.001 -0.047 ntor 10 -59.5878 164.8339 68.4500 -140.7145 124.1166 180.0000 -65.1993 -76.8667 176.8785 -20.7696
State:	 41.778  28.275  15.975  -0.234 -0.103  0.967 -159.353    -59.59  164.83   68.45 -140.71  124.12  180.00  -65.20  -76.87  176.88  -20.77

DOCKED: MODEL       73
DOCKED: USER    Run = 73
DOCKED: USER    DPF = D:/Protein_go_brrr/autodock/final/6BB5/heme_Fe/dock.dpf
DOCKED: USER  
DOCKED: USER    Estimated Free Energy of Binding    =  -12.56 kcal/mol  [=(1)+(2)+(3)-(4)]
DOCKED: USER    Estimated Inhibition Constant, Ki   =  616.52 pM (picomolar)  [Temperature = 298.15 K]
DOCKED: USER    
DOCKED: USER    (1) Final Intermolecular Energy     =  -15.55 kcal/mol
DOCKED: USER        vdW + Hbond + desolv Energy     =  -13.52 kcal/mol
DOCKED: USER        Electrostatic Energy            =   -2.03 kcal/mol
DOCKED: USER    (2) Final Total Internal Energy     =   -1.67 kcal/mol
DOCKED: USER    (3) Torsional Free Energy           =   +2.98 kcal/mol
DOCKED: USER    (4) Unbound System's Energy  [=(2)] =   -1.67 kcal/mol
DOCKED: USER    
DOCKED: USER    
DOCKED: USER    NEWDPF move heme_Fe_opt.pdbqt
DOCKED: USER    NEWDPF about -0.174000 -0.001000 -0.047000
DOCKED: USER    NEWDPF tran0 41.777816 28.275259 15.975088
DOCKED: USER    NEWDPF quaternion0 -0.229861 -0.101426 0.951190 -0.179204
DOCKED: USER    NEWDPF axisangle0 -0.233644 -0.103095 0.966841 -159.353211
DOCKED: USER    NEWDPF quat0 -0.233644 -0.103095 0.966841 -159.353211
DOCKED: USER    NEWDPF dihe0 -59.59 164.83 68.45 -140.71 124.12 180.00 -65.20 -76.87 176.88 -20.77 
DOCKED: USER  keepresnum = 1 
DOCKED: USER  
DOCKED: REMARK  10 active torsions:
DOCKED: REMARK  status: ('A' for Active; 'I' for Inactive)
DOCKED: REMARK    1  A    between atoms: C_6  and  C_10 
DOCKED: REMARK    2  A    between atoms: C_10  and  C_11 
DOCKED: REMARK    3  A    between atoms: C_11  and  C_12 
DOCKED: REMARK    4  A    between atoms: C_12  and  O_14 
DOCKED: REMARK    5  A    between atoms: C_17  and  C_20 
DOCKED: REMARK    6  A    between atoms: C_24  and  C_27 
DOCKED: REMARK    7  A    between atoms: C_31  and  C_34 
DOCKED: REMARK    8  A    between atoms: C_34  and  C_35 
DOCKED: REMARK    9  A    between atoms: C_35  and  C_36 
DOCKED: REMARK   10  A    between atoms: C_36  and  O_38 
DOCKED: USER                              x       y       z     vdW  Elec       q    Type
DOCKED: USER                           _______ _______ _______ _____ _____    ______ ____
DOCKED: ROOT
DOCKED: ATOM      1  C   UNL d   1      43.188  27.503  17.250 -0.23 +0.02    +0.064 C 
DOCKED: ATOM      2  C   UNL d   1      41.226  31.982  16.532 -0.40 +0.01    +0.064 A 
DOCKED: ATOM      3  C   UNL d   1      37.710  29.955  13.965 -0.37 +0.01    +0.064 C 
DOCKED: ATOM      4  C   UNL d   1      39.649  25.623  14.560 -0.47 +0.01    +0.064 C 
DOCKED: ATOM      5  C   UNL d   1      43.008  28.961  17.216 -0.24 +0.02    +0.066 A 
DOCKED: ATOM      6  C   UNL d   1      43.892  29.879  17.757 -0.28 -0.01    -0.021 A 
DOCKED: ATOM      7  C   UNL d   1      43.345  31.123  17.560 -0.28 -0.01    -0.025 A 
DOCKED: ATOM      8  C   UNL d   1      42.146  30.915  16.906 -0.35 +0.01    +0.066 A 
DOCKED: ATOM      9  C   UNL d   1      43.956  32.430  17.964 -0.29 +0.01    +0.051 C 
DOCKED: ATOM     10  C   UNL d   1      40.092  31.815  15.850 -0.36 +0.01    +0.066 A 
DOCKED: ATOM     11  C   UNL d   1      39.176  32.841  15.607 -0.39 -0.00    -0.021 A 
DOCKED: ATOM     12  C   UNL d   1      38.144  32.278  14.882 -0.39 +0.00    +0.000 A 
DOCKED: ATOM     13  C   UNL d   1      38.484  30.923  14.727 -0.35 +0.01    +0.070 A 
DOCKED: ATOM     14  C   UNL d   1      39.246  34.272  16.099 -0.45 +0.00    +0.052 C 
DOCKED: ATOM     15  C   UNL d   1      38.005  28.639  13.856 -0.33 +0.01    +0.066 A 
DOCKED: ATOM     16  C   UNL d   1      37.297  27.767  13.038 -0.46 -0.00    -0.021 A 
DOCKED: ATOM     17  C   UNL d   1      37.853  26.516  13.211 -0.45 +0.00    +0.000 A 
DOCKED: ATOM     18  C   UNL d   1      38.886  26.654  14.135 -0.37 +0.01    +0.070 A 
DOCKED: ATOM     19  C   UNL d   1      36.128  28.090  12.147 -0.65 +0.01    +0.052 C 
DOCKED: ATOM     20  C   UNL d   1      40.783  25.739  15.484 -0.38 +0.01    +0.066 A 
DOCKED: ATOM     21  C   UNL d   1      41.452  24.664  16.085 -0.39 -0.00    -0.025 A 
DOCKED: ATOM     22  C   UNL d   1      42.464  25.222  16.838 -0.34 -0.00    -0.021 A 
DOCKED: ATOM     23  C   UNL d   1      42.370  26.609  16.671 -0.30 +0.02    +0.066 A 
DOCKED: ATOM     24  C   UNL d   1      41.158  23.186  15.968 -0.50 +0.00    +0.051 C 
DOCKED: ATOM     25  N   UNL d   1      41.949  29.600  16.690 -0.22 -0.05    -0.248 N 
DOCKED: ATOM     26  N   UNL d   1      39.667  30.638  15.324 -0.11 -0.06    -0.248 N 
DOCKED: ATOM     27  N   UNL d   1      39.009  27.965  14.499 -0.14 -0.07    -0.248 N 
DOCKED: ATOM     28  N   UNL d   1      41.315  26.921  15.880 -0.26 -0.05    -0.248 N 
DOCKED: ATOM     29 FE   UNL d   1      40.490  28.778  15.602 -0.09 +0.00    +0.000 Fe
DOCKED: ENDROOT
DOCKED: BRANCH   6  30
DOCKED: ATOM     30  C   UNL d   1      45.202  29.594  18.409 -0.23 +0.02    +0.052 C 
DOCKED: BRANCH  30  31
DOCKED: ATOM     31  C   UNL d   1      45.038  29.472  19.920 -0.17 +0.08    +0.115 C 
DOCKED: BRANCH  31  32
DOCKED: ATOM     32  C   UNL d   1      45.350  28.073  20.372 -0.14 +0.15    +0.139 C 
DOCKED: ATOM     33  O   UNL d   1      46.203  27.869  21.225 -0.51 -1.06    -0.650 OA
DOCKED: BRANCH  32  34
DOCKED: ATOM     34  O   UNL d   1      44.692  27.029  19.840 +0.05 -0.59    -0.776 OA
DOCKED: ATOM     35  H   UNL d   1      45.195  26.342  19.380 +0.06 +0.10    +0.167 HD
DOCKED: ENDBRANCH  32  34
DOCKED: ENDBRANCH  31  32
DOCKED: ENDBRANCH  30  31
DOCKED: ENDBRANCH   6  30
DOCKED: BRANCH  22  36
DOCKED: ATOM     36  C   UNL d   1      43.435  24.465  17.705 -0.31 +0.02    +0.052 C 
DOCKED: BRANCH  36  37
DOCKED: ATOM     37  C   UNL d   1      44.488  23.795  16.834 -0.12 +0.04    +0.115 C 
DOCKED: BRANCH  37  38
DOCKED: ATOM     38  C   UNL d   1      45.779  24.563  16.863 -0.20 +0.07    +0.139 C 
DOCKED: ATOM     39  O   UNL d   1      46.748  24.181  16.225 -0.08 -0.50    -0.650 OA
DOCKED: BRANCH  38  40
DOCKED: ATOM     40  O   UNL d   1      45.877  25.683  17.601 +0.06 -0.34    -0.776 OA
DOCKED: ATOM     41  H   UNL d   1      45.069  26.107  17.922 +0.07 +0.07    +0.167 HD
DOCKED: ENDBRANCH  38  40
DOCKED: ENDBRANCH  37  38
DOCKED: ENDBRANCH  36  37
DOCKED: ENDBRANCH  22  36
DOCKED: BRANCH  12  42
DOCKED: ATOM     42  C   UNL d   1      36.930  33.013  14.409 -0.44 +0.00    +0.004 C 
DOCKED: ATOM     43  C   UNL d   1      36.680  33.161  13.102 -0.51 +0.00    +0.012 C 
DOCKED: ENDBRANCH  12  42
DOCKED: BRANCH  17  44
DOCKED: ATOM     44  C   UNL d   1      37.435  25.275  12.520 -0.51 +0.00    +0.004 C 
DOCKED: ATOM     45  C   UNL d   1      36.451  24.516  13.012 -0.69 +0.00    +0.012 C 
DOCKED: ENDBRANCH  17  44
DOCKED: TORSDOF 10
DOCKED: TER
DOCKED: ENDMDL
________________________________________________________________________________


	BEGINNING GENETIC ALGORITHM DOCKING 74 of 100
Run: 74 Seed: 699499432 296980116 [ Run 74 of 100 GA/GALS ]
Beginning LAMARCKIAN GENETIC ALGORITHM (LGA), with a maximum of 25000000 energy evaluations.

Final-Value: -17.549


	FINAL GENETIC ALGORITHM DOCKED STATE
	_______________________________________________


Detailed state:  trans 41.703 28.134 15.897 quatxyzw -0.222548 -0.108891 0.946540 -0.206586 center -0.174 -0.001 -0.047 ntor 10 -140.9278 -114.9366 65.8630 -152.4836 -30.6342 -79.4763 71.8159 10.9933 -120.4610 130.2987
State:	 41.703  28.134  15.897  -0.227 -0.111  0.967 -156.155   -140.93 -114.94   65.86 -152.48  -30.63  -79.48   71.82   10.99 -120.46  130.30

DOCKED: MODEL       74
DOCKED: USER    Run = 74
DOCKED: USER    DPF = D:/Protein_go_brrr/autodock/final/6BB5/heme_Fe/dock.dpf
DOCKED: USER  
DOCKED: USER    Estimated Free Energy of Binding    =  -13.23 kcal/mol  [=(1)+(2)+(3)-(4)]
DOCKED: USER    Estimated Inhibition Constant, Ki   =  201.95 pM (picomolar)  [Temperature = 298.15 K]
DOCKED: USER    
DOCKED: USER    (1) Final Intermolecular Energy     =  -16.21 kcal/mol
DOCKED: USER        vdW + Hbond + desolv Energy     =  -13.80 kcal/mol
DOCKED: USER        Electrostatic Energy            =   -2.41 kcal/mol
DOCKED: USER    (2) Final Total Internal Energy     =   -1.34 kcal/mol
DOCKED: USER    (3) Torsional Free Energy           =   +2.98 kcal/mol
DOCKED: USER    (4) Unbound System's Energy  [=(2)] =   -1.34 kcal/mol
DOCKED: USER    
DOCKED: USER    
DOCKED: USER    NEWDPF move heme_Fe_opt.pdbqt
DOCKED: USER    NEWDPF about -0.174000 -0.001000 -0.047000
DOCKED: USER    NEWDPF tran0 41.703433 28.134052 15.897138
DOCKED: USER    NEWDPF quaternion0 -0.222548 -0.108891 0.946540 -0.206586
DOCKED: USER    NEWDPF axisangle0 -0.227454 -0.111292 0.967408 -156.155228
DOCKED: USER    NEWDPF quat0 -0.227454 -0.111292 0.967408 -156.155228
DOCKED: USER    NEWDPF dihe0 -140.93 -114.94 65.86 -152.48 -30.63 -79.48 71.82 10.99 -120.46 130.30 
DOCKED: USER  keepresnum = 1 
DOCKED: USER  
DOCKED: REMARK  10 active torsions:
DOCKED: REMARK  status: ('A' for Active; 'I' for Inactive)
DOCKED: REMARK    1  A    between atoms: C_6  and  C_10 
DOCKED: REMARK    2  A    between atoms: C_10  and  C_11 
DOCKED: REMARK    3  A    between atoms: C_11  and  C_12 
DOCKED: REMARK    4  A    between atoms: C_12  and  O_14 
DOCKED: REMARK    5  A    between atoms: C_17  and  C_20 
DOCKED: REMARK    6  A    between atoms: C_24  and  C_27 
DOCKED: REMARK    7  A    between atoms: C_31  and  C_34 
DOCKED: REMARK    8  A    between atoms: C_34  and  C_35 
DOCKED: REMARK    9  A    between atoms: C_35  and  C_36 
DOCKED: REMARK   10  A    between atoms: C_36  and  O_38 
DOCKED: USER                              x       y       z     vdW  Elec       q    Type
DOCKED: USER                           _______ _______ _______ _____ _____    ______ ____
DOCKED: ROOT
DOCKED: ATOM      1  C   UNL d   1      43.091  27.255  17.127 -0.26 +0.02    +0.064 C 
DOCKED: ATOM      2  C   UNL d   1      41.342  31.845  16.574 -0.40 +0.01    +0.064 A 
DOCKED: ATOM      3  C   UNL d   1      37.695  30.071  14.001 -0.34 +0.01    +0.064 C 
DOCKED: ATOM      4  C   UNL d   1      39.427  25.633  14.436 -0.46 +0.01    +0.064 C 
DOCKED: ATOM      5  C   UNL d   1      42.983  28.720  17.139 -0.22 +0.02    +0.066 A 
DOCKED: ATOM      6  C   UNL d   1      43.919  29.578  17.694 -0.28 -0.01    -0.021 A 
DOCKED: ATOM      7  C   UNL d   1      43.430  30.852  17.543 -0.29 -0.01    -0.025 A 
DOCKED: ATOM      8  C   UNL d   1      42.214  30.723  16.901 -0.34 +0.01    +0.066 A 
DOCKED: ATOM      9  C   UNL d   1      44.110  32.115  17.976 -0.26 +0.01    +0.051 C 
DOCKED: ATOM     10  C   UNL d   1      40.192  31.754  15.905 -0.36 +0.01    +0.066 A 
DOCKED: ATOM     11  C   UNL d   1      39.323  32.830  15.706 -0.40 -0.00    -0.021 A 
DOCKED: ATOM     12  C   UNL d   1      38.255  32.340  14.981 -0.39 +0.00    +0.000 A 
DOCKED: ATOM     13  C   UNL d   1      38.526  30.976  14.780 -0.35 +0.01    +0.070 A 
DOCKED: ATOM     14  C   UNL d   1      39.470  34.240  16.240 -0.39 +0.00    +0.052 C 
DOCKED: ATOM     15  C   UNL d   1      37.924  28.745  13.848 -0.34 +0.01    +0.066 A 
DOCKED: ATOM     16  C   UNL d   1      37.163  27.935  13.015 -0.46 -0.00    -0.021 A 
DOCKED: ATOM     17  C   UNL d   1      37.659  26.654  13.142 -0.46 +0.00    +0.000 A 
DOCKED: ATOM     18  C   UNL d   1      38.710  26.712  14.054 -0.37 +0.01    +0.070 A 
DOCKED: ATOM     19  C   UNL d   1      35.998  28.341  12.153 -0.65 +0.00    +0.052 C 
DOCKED: ATOM     20  C   UNL d   1      40.579  25.666  15.345 -0.39 +0.01    +0.066 A 
DOCKED: ATOM     21  C   UNL d   1      41.202  24.541  15.904 -0.41 -0.00    -0.025 A 
DOCKED: ATOM     22  C   UNL d   1      42.251  25.026  16.657 -0.35 -0.00    -0.021 A 
DOCKED: ATOM     23  C   UNL d   1      42.223  26.420  16.534 -0.32 +0.01    +0.066 A 
DOCKED: ATOM     24  C   UNL d   1      40.835  23.084  15.747 -0.45 +0.00    +0.051 C 
DOCKED: ATOM     25  N   UNL d   1      41.949  29.426  16.648 -0.22 -0.06    -0.248 N 
DOCKED: ATOM     26  N   UNL d   1      39.702  30.616  15.350 -0.11 -0.06    -0.248 N 
DOCKED: ATOM     27  N   UNL d   1      38.902  28.004  14.455 -0.14 -0.06    -0.248 N 
DOCKED: ATOM     28  N   UNL d   1      41.174  26.807  15.769 -0.26 -0.05    -0.248 N 
DOCKED: ATOM     29 FE   UNL d   1      40.437  28.710  15.559 -0.09 +0.00    +0.000 Fe
DOCKED: ENDROOT
DOCKED: BRANCH   6  30
DOCKED: ATOM     30  C   UNL d   1      45.222  29.210  18.317 -0.22 +0.02    +0.052 C 
DOCKED: BRANCH  30  31
DOCKED: ATOM     31  C   UNL d   1      45.137  27.837  18.975 -0.18 +0.06    +0.115 C 
DOCKED: BRANCH  31  32
DOCKED: ATOM     32  C   UNL d   1      45.141  27.970  20.472 -0.14 +0.16    +0.139 C 
DOCKED: ATOM     33  O   UNL d   1      45.734  28.893  21.014 -0.06 -0.95    -0.650 OA
DOCKED: BRANCH  32  34
DOCKED: ATOM     34  O   UNL d   1      44.490  27.073  21.231 -0.10 -1.30    -0.776 OA
DOCKED: ATOM     35  H   UNL d   1      44.517  26.139  20.981 +0.05 +0.18    +0.167 HD
DOCKED: ENDBRANCH  32  34
DOCKED: ENDBRANCH  31  32
DOCKED: ENDBRANCH  30  31
DOCKED: ENDBRANCH   6  30
DOCKED: BRANCH  22  36
DOCKED: ATOM     36  C   UNL d   1      43.196  24.196  17.487 -0.33 +0.01    +0.052 C 
DOCKED: BRANCH  36  37
DOCKED: ATOM     37  C   UNL d   1      43.345  24.816  18.868 -0.29 +0.04    +0.115 C 
DOCKED: BRANCH  37  38
DOCKED: ATOM     38  C   UNL d   1      44.460  24.162  19.634 -0.20 +0.06    +0.139 C 
DOCKED: ATOM     39  O   UNL d   1      44.291  23.085  20.187 -0.53 -0.32    -0.650 OA
DOCKED: BRANCH  38  40
DOCKED: ATOM     40  O   UNL d   1      45.659  24.765  19.721 +0.09 -0.41    -0.776 OA
DOCKED: ATOM     41  H   UNL d   1      45.728  25.609  20.188 +0.05 +0.11    +0.167 HD
DOCKED: ENDBRANCH  38  40
DOCKED: ENDBRANCH  37  38
DOCKED: ENDBRANCH  36  37
DOCKED: ENDBRANCH  22  36
DOCKED: BRANCH  12  42
DOCKED: ATOM     42  C   UNL d   1      37.073  33.147  14.549 -0.47 +0.00    +0.004 C 
DOCKED: ATOM     43  C   UNL d   1      36.841  33.391  13.252 -0.51 +0.00    +0.012 C 
DOCKED: ENDBRANCH  12  42
DOCKED: BRANCH  17  44
DOCKED: ATOM     44  C   UNL d   1      37.171  25.456  12.421 -0.50 +0.00    +0.004 C 
DOCKED: ATOM     45  C   UNL d   1      36.326  24.601  13.007 -0.69 +0.00    +0.012 C 
DOCKED: ENDBRANCH  17  44
DOCKED: TORSDOF 10
DOCKED: TER
DOCKED: ENDMDL
________________________________________________________________________________


	BEGINNING GENETIC ALGORITHM DOCKING 75 of 100
Run: 75 Seed: 1298133775 691011928 [ Run 75 of 100 GA/GALS ]
Beginning LAMARCKIAN GENETIC ALGORITHM (LGA), with a maximum of 25000000 energy evaluations.

Final-Value: -18.046


	FINAL GENETIC ALGORITHM DOCKED STATE
	_______________________________________________


Detailed state:  trans 41.735 28.151 15.954 quatxyzw -0.226337 -0.104136 0.948370 -0.196271 center -0.174 -0.001 -0.047 ntor 10 172.4526 34.6627 66.1541 -150.0180 7.2982 -63.6952 44.6007 59.5263 -123.4288 170.9395
State:	 41.735  28.151  15.954  -0.231 -0.106  0.967 -157.362    172.45   34.66   66.15 -150.02    7.30  -63.70   44.60   59.53 -123.43  170.94

DOCKED: MODEL       75
DOCKED: USER    Run = 75
DOCKED: USER    DPF = D:/Protein_go_brrr/autodock/final/6BB5/heme_Fe/dock.dpf
DOCKED: USER  
DOCKED: USER    Estimated Free Energy of Binding    =  -13.11 kcal/mol  [=(1)+(2)+(3)-(4)]
DOCKED: USER    Estimated Inhibition Constant, Ki   =  244.60 pM (picomolar)  [Temperature = 298.15 K]
DOCKED: USER    
DOCKED: USER    (1) Final Intermolecular Energy     =  -16.10 kcal/mol
DOCKED: USER        vdW + Hbond + desolv Energy     =  -13.91 kcal/mol
DOCKED: USER        Electrostatic Energy            =   -2.19 kcal/mol
DOCKED: USER    (2) Final Total Internal Energy     =   -1.95 kcal/mol
DOCKED: USER    (3) Torsional Free Energy           =   +2.98 kcal/mol
DOCKED: USER    (4) Unbound System's Energy  [=(2)] =   -1.95 kcal/mol
DOCKED: USER    
DOCKED: USER    
DOCKED: USER    NEWDPF move heme_Fe_opt.pdbqt
DOCKED: USER    NEWDPF about -0.174000 -0.001000 -0.047000
DOCKED: USER    NEWDPF tran0 41.735258 28.151273 15.954299
DOCKED: USER    NEWDPF quaternion0 -0.226337 -0.104136 0.948370 -0.196271
DOCKED: USER    NEWDPF axisangle0 -0.230827 -0.106201 0.967182 -157.362087
DOCKED: USER    NEWDPF quat0 -0.230827 -0.106201 0.967182 -157.362087
DOCKED: USER    NEWDPF dihe0 172.45 34.66 66.15 -150.02 7.30 -63.70 44.60 59.53 -123.43 170.94 
DOCKED: USER  keepresnum = 1 
DOCKED: USER  
DOCKED: REMARK  10 active torsions:
DOCKED: REMARK  status: ('A' for Active; 'I' for Inactive)
DOCKED: REMARK    1  A    between atoms: C_6  and  C_10 
DOCKED: REMARK    2  A    between atoms: C_10  and  C_11 
DOCKED: REMARK    3  A    between atoms: C_11  and  C_12 
DOCKED: REMARK    4  A    between atoms: C_12  and  O_14 
DOCKED: REMARK    5  A    between atoms: C_17  and  C_20 
DOCKED: REMARK    6  A    between atoms: C_24  and  C_27 
DOCKED: REMARK    7  A    between atoms: C_31  and  C_34 
DOCKED: REMARK    8  A    between atoms: C_34  and  C_35 
DOCKED: REMARK    9  A    between atoms: C_35  and  C_36 
DOCKED: REMARK   10  A    between atoms: C_36  and  O_38 
DOCKED: USER                              x       y       z     vdW  Elec       q    Type
DOCKED: USER                           _______ _______ _______ _____ _____    ______ ____
DOCKED: ROOT
DOCKED: ATOM      1  C   UNL d   1      43.130  27.316  17.207 -0.24 +0.02    +0.064 C 
DOCKED: ATOM      2  C   UNL d   1      41.306  31.865  16.570 -0.40 +0.01    +0.064 A 
DOCKED: ATOM      3  C   UNL d   1      37.707  29.988  14.003 -0.36 +0.01    +0.064 C 
DOCKED: ATOM      4  C   UNL d   1      39.513  25.588  14.517 -0.46 +0.01    +0.064 C 
DOCKED: ATOM      5  C   UNL d   1      42.996  28.779  17.195 -0.22 +0.02    +0.066 A 
DOCKED: ATOM      6  C   UNL d   1      43.913  29.661  17.742 -0.28 -0.01    -0.021 A 
DOCKED: ATOM      7  C   UNL d   1      43.404  30.924  17.569 -0.30 -0.01    -0.025 A 
DOCKED: ATOM      8  C   UNL d   1      42.194  30.764  16.921 -0.34 +0.01    +0.066 A 
DOCKED: ATOM      9  C   UNL d   1      44.058  32.205  17.986 -0.27 +0.01    +0.051 C 
DOCKED: ATOM     10  C   UNL d   1      40.161  31.744  15.895 -0.36 +0.01    +0.066 A 
DOCKED: ATOM     11  C   UNL d   1      39.276  32.801  15.674 -0.39 -0.00    -0.021 A 
DOCKED: ATOM     12  C   UNL d   1      38.221  32.282  14.950 -0.39 +0.00    +0.000 A 
DOCKED: ATOM     13  C   UNL d   1      38.517  30.920  14.772 -0.35 +0.01    +0.070 A 
DOCKED: ATOM     14  C   UNL d   1      39.395  34.222  16.187 -0.41 +0.00    +0.052 C 
DOCKED: ATOM     15  C   UNL d   1      37.960  28.665  13.872 -0.34 +0.01    +0.066 A 
DOCKED: ATOM     16  C   UNL d   1      37.219  27.829  13.047 -0.46 -0.00    -0.021 A 
DOCKED: ATOM     17  C   UNL d   1      37.736  26.558  13.196 -0.45 +0.00    +0.000 A 
DOCKED: ATOM     18  C   UNL d   1      38.780  26.649  14.114 -0.37 +0.01    +0.070 A 
DOCKED: ATOM     19  C   UNL d   1      36.053  28.201  12.170 -0.65 +0.00    +0.052 C 
DOCKED: ATOM     20  C   UNL d   1      40.657  25.655  15.434 -0.38 +0.01    +0.066 A 
DOCKED: ATOM     21  C   UNL d   1      41.296  24.550  16.014 -0.41 -0.00    -0.025 A 
DOCKED: ATOM     22  C   UNL d   1      42.332  25.065  16.766 -0.35 -0.00    -0.021 A 
DOCKED: ATOM     23  C   UNL d   1      42.280  26.457  16.621 -0.31 +0.01    +0.066 A 
DOCKED: ATOM     24  C   UNL d   1      40.955  23.085  15.877 -0.49 +0.00    +0.051 C 
DOCKED: ATOM     25  N   UNL d   1      41.953  29.459  16.687 -0.21 -0.05    -0.248 N 
DOCKED: ATOM     26  N   UNL d   1      39.695  30.589  15.356 -0.11 -0.06    -0.248 N 
DOCKED: ATOM     27  N   UNL d   1      38.947  27.951  14.496 -0.15 -0.06    -0.248 N 
DOCKED: ATOM     28  N   UNL d   1      41.229  26.813  15.843 -0.26 -0.05    -0.248 N 
DOCKED: ATOM     29 FE   UNL d   1      40.462  28.699  15.599 -0.09 +0.00    +0.000 Fe
DOCKED: ENDROOT
DOCKED: BRANCH   6  30
DOCKED: ATOM     30  C   UNL d   1      45.218  29.325  18.379 -0.22 +0.02    +0.052 C 
DOCKED: BRANCH  30  31
DOCKED: ATOM     31  C   UNL d   1      45.131  27.996  19.120 -0.19 +0.07    +0.115 C 
DOCKED: BRANCH  31  32
DOCKED: ATOM     32  C   UNL d   1      45.782  28.103  20.471 -0.13 +0.15    +0.139 C 
DOCKED: ATOM     33  O   UNL d   1      46.169  29.183  20.893 -0.18 -0.75    -0.650 OA
DOCKED: BRANCH  32  34
DOCKED: ATOM     34  O   UNL d   1      45.945  27.006  21.230 -0.32 -1.17    -0.776 OA
DOCKED: ATOM     35  H   UNL d   1      45.542  26.174  20.946 +0.04 +0.18    +0.167 HD
DOCKED: ENDBRANCH  32  34
DOCKED: ENDBRANCH  31  32
DOCKED: ENDBRANCH  30  31
DOCKED: ENDBRANCH   6  30
DOCKED: BRANCH  22  36
DOCKED: ATOM     36  C   UNL d   1      43.285  24.265  17.615 -0.32 +0.01    +0.052 C 
DOCKED: BRANCH  36  37
DOCKED: ATOM     37  C   UNL d   1      42.750  24.170  19.036 -0.37 +0.03    +0.115 C 
DOCKED: BRANCH  37  38
DOCKED: ATOM     38  C   UNL d   1      43.729  24.746  20.020 -0.27 +0.07    +0.139 C 
DOCKED: ATOM     39  O   UNL d   1      44.830  24.239  20.176 -0.01 -0.33    -0.650 OA
DOCKED: BRANCH  38  40
DOCKED: ATOM     40  O   UNL d   1      43.394  25.829  20.743 +0.00 -0.58    -0.776 OA
DOCKED: ATOM     41  H   UNL d   1      44.079  26.476  20.965 +0.05 +0.19    +0.167 HD
DOCKED: ENDBRANCH  38  40
DOCKED: ENDBRANCH  37  38
DOCKED: ENDBRANCH  36  37
DOCKED: ENDBRANCH  22  36
DOCKED: BRANCH  12  42
DOCKED: ATOM     42  C   UNL d   1      37.028  33.062  14.498 -0.46 +0.00    +0.004 C 
DOCKED: ATOM     43  C   UNL d   1      36.798  33.276  13.196 -0.51 +0.00    +0.012 C 
DOCKED: ENDBRANCH  12  42
DOCKED: BRANCH  17  44
DOCKED: ATOM     44  C   UNL d   1      37.274  25.341  12.491 -0.52 +0.00    +0.004 C 
DOCKED: ATOM     45  C   UNL d   1      36.402  24.506  13.066 -0.69 +0.00    +0.012 C 
DOCKED: ENDBRANCH  17  44
DOCKED: TORSDOF 10
DOCKED: TER
DOCKED: ENDMDL
________________________________________________________________________________


	BEGINNING GENETIC ALGORITHM DOCKING 76 of 100
Run: 76 Seed: 124567170 719165568 [ Run 76 of 100 GA/GALS ]
Beginning LAMARCKIAN GENETIC ALGORITHM (LGA), with a maximum of 25000000 energy evaluations.

Final-Value: -14.185


	FINAL GENETIC ALGORITHM DOCKED STATE
	_______________________________________________


Detailed state:  trans 44.146 26.727 17.882 quatxyzw -0.309603 -0.925843 -0.082809 0.200259 center -0.174 -0.001 -0.047 ntor 10 25.5014 148.6532 -105.4850 -160.6384 -96.9284 -73.9093 -88.4051 20.1508 179.0643 176.8484
State:	 44.146  26.727  17.882  -0.316 -0.945 -0.085 156.896     25.50  148.65 -105.48 -160.64  -96.93  -73.91  -88.41   20.15  179.06  176.85

DOCKED: MODEL       76
DOCKED: USER    Run = 76
DOCKED: USER    DPF = D:/Protein_go_brrr/autodock/final/6BB5/heme_Fe/dock.dpf
DOCKED: USER  
DOCKED: USER    Estimated Free Energy of Binding    =   -9.08 kcal/mol  [=(1)+(2)+(3)-(4)]
DOCKED: USER    Estimated Inhibition Constant, Ki   =  219.42 nM (nanomolar)  [Temperature = 298.15 K]
DOCKED: USER    
DOCKED: USER    (1) Final Intermolecular Energy     =  -12.07 kcal/mol
DOCKED: USER        vdW + Hbond + desolv Energy     =   -9.73 kcal/mol
DOCKED: USER        Electrostatic Energy            =   -2.34 kcal/mol
DOCKED: USER    (2) Final Total Internal Energy     =   -2.12 kcal/mol
DOCKED: USER    (3) Torsional Free Energy           =   +2.98 kcal/mol
DOCKED: USER    (4) Unbound System's Energy  [=(2)] =   -2.12 kcal/mol
DOCKED: USER    
DOCKED: USER    
DOCKED: USER    NEWDPF move heme_Fe_opt.pdbqt
DOCKED: USER    NEWDPF about -0.174000 -0.001000 -0.047000
DOCKED: USER    NEWDPF tran0 44.146038 26.727029 17.882369
DOCKED: USER    NEWDPF quaternion0 -0.309603 -0.925843 -0.082809 0.200259
DOCKED: USER    NEWDPF axisangle0 -0.316004 -0.944985 -0.084522 156.895839
DOCKED: USER    NEWDPF quat0 -0.316004 -0.944985 -0.084522 156.895839
DOCKED: USER    NEWDPF dihe0 25.50 148.65 -105.48 -160.64 -96.93 -73.91 -88.41 20.15 179.06 176.85 
DOCKED: USER  keepresnum = 1 
DOCKED: USER  
DOCKED: REMARK  10 active torsions:
DOCKED: REMARK  status: ('A' for Active; 'I' for Inactive)
DOCKED: REMARK    1  A    between atoms: C_6  and  C_10 
DOCKED: REMARK    2  A    between atoms: C_10  and  C_11 
DOCKED: REMARK    3  A    between atoms: C_11  and  C_12 
DOCKED: REMARK    4  A    between atoms: C_12  and  O_14 
DOCKED: REMARK    5  A    between atoms: C_17  and  C_20 
DOCKED: REMARK    6  A    between atoms: C_24  and  C_27 
DOCKED: REMARK    7  A    between atoms: C_31  and  C_34 
DOCKED: REMARK    8  A    between atoms: C_34  and  C_35 
DOCKED: REMARK    9  A    between atoms: C_35  and  C_36 
DOCKED: REMARK   10  A    between atoms: C_36  and  O_38 
DOCKED: USER                              x       y       z     vdW  Elec       q    Type
DOCKED: USER                           _______ _______ _______ _____ _____    ______ ____
DOCKED: ROOT
DOCKED: ATOM      1  C   UNL d   1      45.781  25.494  18.017 -0.16 +0.03    +0.064 C 
DOCKED: ATOM      2  C   UNL d   1      41.244  25.061  16.104 -0.35 +0.01    +0.064 A 
DOCKED: ATOM      3  C   UNL d   1      40.735  29.827  16.410 -0.20 +0.02    +0.064 C 
DOCKED: ATOM      4  C   UNL d   1      45.082  30.258  18.361 -0.24 +0.02    +0.064 C 
DOCKED: ATOM      5  C   UNL d   1      44.519  24.922  17.528 -0.19 +0.02    +0.066 A 
DOCKED: ATOM      6  C   UNL d   1      44.257  23.567  17.415 -0.23 -0.01    -0.021 A 
DOCKED: ATOM      7  C   UNL d   1      42.998  23.447  16.880 -0.32 -0.01    -0.025 A 
DOCKED: ATOM      8  C   UNL d   1      42.540  24.736  16.687 -0.31 +0.01    +0.066 A 
DOCKED: ATOM      9  C   UNL d   1      42.279  22.165  16.592 -0.35 +0.00    +0.051 C 
DOCKED: ATOM     10  C   UNL d   1      40.755  26.294  15.960 -0.37 +0.01    +0.066 A 
DOCKED: ATOM     11  C   UNL d   1      39.561  26.581  15.293 -0.38 -0.00    -0.021 A 
DOCKED: ATOM     12  C   UNL d   1      39.400  27.950  15.353 -0.16 +0.00    +0.000 A 
DOCKED: ATOM     13  C   UNL d   1      40.519  28.434  16.053 -0.07 +0.02    +0.070 A 
DOCKED: ATOM     14  C   UNL d   1      38.652  25.604  14.575 -0.36 +0.01    +0.052 C 
DOCKED: ATOM     15  C   UNL d   1      41.836  30.305  17.038 -0.33 +0.01    +0.066 A 
DOCKED: ATOM     16  C   UNL d   1      41.960  31.626  17.451 -0.44 -0.00    -0.021 A 
DOCKED: ATOM     17  C   UNL d   1      43.215  31.753  18.011 -0.39 +0.00    +0.000 A 
DOCKED: ATOM     18  C   UNL d   1      43.829  30.506  17.922 -0.27 +0.02    +0.070 A 
DOCKED: ATOM     19  C   UNL d   1      40.951  32.733  17.304 -0.41 +0.01    +0.052 C 
DOCKED: ATOM     20  C   UNL d   1      45.738  28.945  18.340 -0.15 +0.03    +0.066 A 
DOCKED: ATOM     21  C   UNL d   1      47.095  28.713  18.603 -0.11 -0.01    -0.025 A 
DOCKED: ATOM     22  C   UNL d   1      47.270  27.348  18.512 -0.10 -0.01    -0.021 A 
DOCKED: ATOM     23  C   UNL d   1      46.020  26.804  18.193 -0.13 +0.03    +0.066 A 
DOCKED: ATOM     24  C   UNL d   1      48.179  29.717  18.920 -0.09 +0.02    +0.051 C 
DOCKED: ATOM     25  N   UNL d   1      43.464  25.631  17.091 -0.16 -0.07    -0.248 N 
DOCKED: ATOM     26  N   UNL d   1      41.350  27.426  16.415 -0.17 -0.06    -0.248 N 
DOCKED: ATOM     27  N   UNL d   1      42.966  29.604  17.364 -0.20 -0.06    -0.248 N 
DOCKED: ATOM     28  N   UNL d   1      45.099  27.787  18.045 -0.10 -0.10    -0.248 N 
DOCKED: ATOM     29 FE   UNL d   1      43.225  27.608  17.230 -0.06 +0.00    +0.000 Fe
DOCKED: ENDROOT
DOCKED: BRANCH   6  30
DOCKED: ATOM     30  C   UNL d   1      45.147  22.440  17.814 -0.22 +0.02    +0.052 C 
DOCKED: BRANCH  30  31
DOCKED: ATOM     31  C   UNL d   1      46.019  22.000  16.643 -0.19 +0.09    +0.115 C 
DOCKED: BRANCH  31  32
DOCKED: ATOM     32  C   UNL d   1      47.328  22.740  16.654 -0.02 +0.19    +0.139 C 
DOCKED: ATOM     33  O   UNL d   1      47.488  23.734  15.959 -0.30 -0.81    -0.650 OA
DOCKED: BRANCH  32  34
DOCKED: ATOM     34  O   UNL d   1      48.337  22.315  17.432 -0.29 -1.25    -0.776 OA
DOCKED: ATOM     35  H   UNL d   1      49.004  22.952  17.726 +0.02 +0.23    +0.167 HD
DOCKED: ENDBRANCH  32  34
DOCKED: ENDBRANCH  31  32
DOCKED: ENDBRANCH  30  31
DOCKED: ENDBRANCH   6  30
DOCKED: BRANCH  22  36
DOCKED: ATOM     36  C   UNL d   1      48.575  26.615  18.675 -0.07 +0.02    +0.052 C 
DOCKED: BRANCH  36  37
DOCKED: ATOM     37  C   UNL d   1      49.312  26.577  17.344 -0.13 +0.05    +0.115 C 
DOCKED: BRANCH  37  38
DOCKED: ATOM     38  C   UNL d   1      50.351  25.492  17.334 -0.12 +0.08    +0.139 C 
DOCKED: ATOM     39  O   UNL d   1      51.393  25.618  17.961 +0.01 -0.28    -0.650 OA
DOCKED: BRANCH  38  40
DOCKED: ATOM     40  O   UNL d   1      50.140  24.368  16.627 -0.10 -0.88    -0.776 OA
DOCKED: ATOM     41  H   UNL d   1      49.236  24.042  16.521 +0.02 +0.26    +0.167 HD
DOCKED: ENDBRANCH  38  40
DOCKED: ENDBRANCH  37  38
DOCKED: ENDBRANCH  36  37
DOCKED: ENDBRANCH  22  36
DOCKED: BRANCH  12  42
DOCKED: ATOM     42  C   UNL d   1      38.254  28.705  14.756 -0.41 +0.00    +0.004 C 
DOCKED: ATOM     43  C   UNL d   1      37.980  28.619  13.448 -0.44 +0.00    +0.012 C 
DOCKED: ENDBRANCH  12  42
DOCKED: BRANCH  17  44
DOCKED: ATOM     44  C   UNL d   1      43.781  32.982  18.610 -0.43 +0.00    +0.004 C 
DOCKED: ATOM     45  C   UNL d   1      44.732  33.677  17.977 -0.26 +0.00    +0.012 C 
DOCKED: ENDBRANCH  17  44
DOCKED: TORSDOF 10
DOCKED: TER
DOCKED: ENDMDL
________________________________________________________________________________


	BEGINNING GENETIC ALGORITHM DOCKING 77 of 100
Run: 77 Seed: 510769149 492991874 [ Run 77 of 100 GA/GALS ]
Beginning LAMARCKIAN GENETIC ALGORITHM (LGA), with a maximum of 25000000 energy evaluations.

Final-Value: -13.635


	FINAL GENETIC ALGORITHM DOCKED STATE
	_______________________________________________


Detailed state:  trans 44.846 26.841 18.574 quatxyzw -0.113822 -0.947072 -0.061575 0.293783 center -0.174 -0.001 -0.047 ntor 10 129.3906 167.7283 79.2672 160.5616 -85.0566 125.9034 -138.2857 140.2004 150.7213 29.8700
State:	 44.846  26.841  18.574  -0.119 -0.991 -0.064 145.831    129.39  167.73   79.27  160.56  -85.06  125.90 -138.29  140.20  150.72   29.87

DOCKED: MODEL       77
DOCKED: USER    Run = 77
DOCKED: USER    DPF = D:/Protein_go_brrr/autodock/final/6BB5/heme_Fe/dock.dpf
DOCKED: USER  
DOCKED: USER    Estimated Free Energy of Binding    =  -10.11 kcal/mol  [=(1)+(2)+(3)-(4)]
DOCKED: USER    Estimated Inhibition Constant, Ki   =   39.02 nM (nanomolar)  [Temperature = 298.15 K]
DOCKED: USER    
DOCKED: USER    (1) Final Intermolecular Energy     =  -13.09 kcal/mol
DOCKED: USER        vdW + Hbond + desolv Energy     =   -9.56 kcal/mol
DOCKED: USER        Electrostatic Energy            =   -3.53 kcal/mol
DOCKED: USER    (2) Final Total Internal Energy     =   -0.54 kcal/mol
DOCKED: USER    (3) Torsional Free Energy           =   +2.98 kcal/mol
DOCKED: USER    (4) Unbound System's Energy  [=(2)] =   -0.54 kcal/mol
DOCKED: USER    
DOCKED: USER    
DOCKED: USER    NEWDPF move heme_Fe_opt.pdbqt
DOCKED: USER    NEWDPF about -0.174000 -0.001000 -0.047000
DOCKED: USER    NEWDPF tran0 44.846438 26.841483 18.573970
DOCKED: USER    NEWDPF quaternion0 -0.113822 -0.947072 -0.061575 0.293783
DOCKED: USER    NEWDPF axisangle0 -0.119076 -0.990793 -0.064418 145.830797
DOCKED: USER    NEWDPF quat0 -0.119076 -0.990793 -0.064418 145.830797
DOCKED: USER    NEWDPF dihe0 129.39 167.73 79.27 160.56 -85.06 125.90 -138.29 140.20 150.72 29.87 
DOCKED: USER  keepresnum = 1 
DOCKED: USER  
DOCKED: REMARK  10 active torsions:
DOCKED: REMARK  status: ('A' for Active; 'I' for Inactive)
DOCKED: REMARK    1  A    between atoms: C_6  and  C_10 
DOCKED: REMARK    2  A    between atoms: C_10  and  C_11 
DOCKED: REMARK    3  A    between atoms: C_11  and  C_12 
DOCKED: REMARK    4  A    between atoms: C_12  and  O_14 
DOCKED: REMARK    5  A    between atoms: C_17  and  C_20 
DOCKED: REMARK    6  A    between atoms: C_24  and  C_27 
DOCKED: REMARK    7  A    between atoms: C_31  and  C_34 
DOCKED: REMARK    8  A    between atoms: C_34  and  C_35 
DOCKED: REMARK    9  A    between atoms: C_35  and  C_36 
DOCKED: REMARK   10  A    between atoms: C_36  and  O_38 
DOCKED: USER                              x       y       z     vdW  Elec       q    Type
DOCKED: USER                           _______ _______ _______ _____ _____    ______ ____
DOCKED: ROOT
DOCKED: ATOM      1  C   UNL d   1      46.727  26.312  19.202 -0.08 +0.03    +0.064 C 
DOCKED: ATOM      2  C   UNL d   1      43.093  24.008  16.769 -0.27 +0.02    +0.064 A 
DOCKED: ATOM      3  C   UNL d   1      41.002  28.264  16.003 -0.19 +0.02    +0.064 C 
DOCKED: ATOM      4  C   UNL d   1      44.454  30.502  18.444 -0.28 +0.02    +0.064 C 
DOCKED: ATOM      5  C   UNL d   1      45.855  25.261  18.660 -0.09 +0.03    +0.066 A 
DOCKED: ATOM      6  C   UNL d   1      46.080  23.900  18.793 -0.10 -0.01    -0.021 A 
DOCKED: ATOM      7  C   UNL d   1      45.073  23.261  18.114 -0.18 -0.01    -0.025 A 
DOCKED: ATOM      8  C   UNL d   1      44.270  24.258  17.593 -0.20 +0.02    +0.066 A 
DOCKED: ATOM      9  C   UNL d   1      44.889  21.779  17.995 -0.15 +0.02    +0.051 C 
DOCKED: ATOM     10  C   UNL d   1      42.269  24.948  16.302 -0.31 +0.01    +0.066 A 
DOCKED: ATOM     11  C   UNL d   1      41.216  24.688  15.422 -0.42 -0.00    -0.021 A 
DOCKED: ATOM     12  C   UNL d   1      40.608  25.902  15.172 -0.44 +0.00    +0.000 A 
DOCKED: ATOM     13  C   UNL d   1      41.333  26.850  15.914 -0.36 +0.01    +0.070 A 
DOCKED: ATOM     14  C   UNL d   1      40.850  23.358  14.795 -0.53 +0.01    +0.052 C 
DOCKED: ATOM     15  C   UNL d   1      41.727  29.189  16.674 -0.21 +0.02    +0.066 A 
DOCKED: ATOM     16  C   UNL d   1      41.323  30.511  16.818 -0.37 -0.00    -0.021 A 
DOCKED: ATOM     17  C   UNL d   1      42.319  31.159  17.519 -0.42 +0.00    +0.000 A 
DOCKED: ATOM     18  C   UNL d   1      43.311  30.217  17.782 -0.29 +0.02    +0.070 A 
DOCKED: ATOM     19  C   UNL d   1      40.063  31.148  16.297 -0.28 +0.01    +0.052 C 
DOCKED: ATOM     20  C   UNL d   1      45.491  29.525  18.793 -0.18 +0.03    +0.066 A 
DOCKED: ATOM     21  C   UNL d   1      46.762  29.837  19.296 -0.13 -0.01    -0.025 A 
DOCKED: ATOM     22  C   UNL d   1      47.388  28.627  19.517 -0.09 -0.01    -0.021 A 
DOCKED: ATOM     23  C   UNL d   1      46.482  27.630  19.136 -0.10 +0.04    +0.066 A 
DOCKED: ATOM     24  C   UNL d   1      47.366  31.197  19.555 -0.11 +0.02    +0.051 C 
DOCKED: ATOM     25  N   UNL d   1      44.743  25.473  17.935 -0.09 -0.10    -0.248 N 
DOCKED: ATOM     26  N   UNL d   1      42.352  26.271  16.596 -0.21 -0.06    -0.248 N 
DOCKED: ATOM     27  N   UNL d   1      42.928  28.996  17.302 -0.18 -0.07    -0.248 N 
DOCKED: ATOM     28  N   UNL d   1      45.344  28.185  18.653 -0.10 -0.12    -0.248 N 
DOCKED: ATOM     29 FE   UNL d   1      43.848  27.230  17.625 -0.06 +0.00    +0.000 Fe
DOCKED: ENDROOT
DOCKED: BRANCH   6  30
DOCKED: ATOM     30  C   UNL d   1      47.184  23.238  19.544 -0.07 +0.03    +0.052 C 
DOCKED: BRANCH  30  31
DOCKED: ATOM     31  C   UNL d   1      48.029  22.375  18.614 -0.08 +0.09    +0.115 C 
DOCKED: BRANCH  31  32
DOCKED: ATOM     32  C   UNL d   1      48.267  23.085  17.310 +0.01 +0.19    +0.139 C 
DOCKED: ATOM     33  O   UNL d   1      47.447  23.019  16.405 -0.36 -0.95    -0.650 OA
DOCKED: BRANCH  32  34
DOCKED: ATOM     34  O   UNL d   1      49.389  23.801  17.126 -0.39 -1.06    -0.776 OA
DOCKED: ATOM     35  H   UNL d   1      49.643  24.456  17.792 +0.02 +0.13    +0.167 HD
DOCKED: ENDBRANCH  32  34
DOCKED: ENDBRANCH  31  32
DOCKED: ENDBRANCH  30  31
DOCKED: ENDBRANCH   6  30
DOCKED: BRANCH  22  36
DOCKED: ATOM     36  C   UNL d   1      48.796  28.444  20.019 -0.04 +0.02    +0.052 C 
DOCKED: BRANCH  36  37
DOCKED: ATOM     37  C   UNL d   1      48.793  27.523  21.230 -0.03 +0.06    +0.115 C 
DOCKED: BRANCH  37  38
DOCKED: ATOM     38  C   UNL d   1      47.632  27.825  22.134 +0.02 +0.17    +0.139 C 
DOCKED: ATOM     39  O   UNL d   1      46.852  26.944  22.465 -0.15 -1.24    -0.650 OA
DOCKED: BRANCH  38  40
DOCKED: ATOM     40  O   UNL d   1      47.441  29.077  22.586 -0.18 -1.05    -0.776 OA
DOCKED: ATOM     41  H   UNL d   1      48.147  29.729  22.476 +0.01 +0.13    +0.167 HD
DOCKED: ENDBRANCH  38  40
DOCKED: ENDBRANCH  37  38
DOCKED: ENDBRANCH  36  37
DOCKED: ENDBRANCH  22  36
DOCKED: BRANCH  12  42
DOCKED: ATOM     42  C   UNL d   1      39.432  26.100  14.269 -0.51 +0.00    +0.004 C 
DOCKED: ATOM     43  C   UNL d   1      38.332  26.732  14.698 -0.46 +0.00    +0.012 C 
DOCKED: ENDBRANCH  12  42
DOCKED: BRANCH  17  44
DOCKED: ATOM     44  C   UNL d   1      42.312  32.582  17.927 -0.53 +0.00    +0.004 C 
DOCKED: ATOM     45  C   UNL d   1      43.446  33.289  17.964 -0.41 +0.00    +0.012 C 
DOCKED: ENDBRANCH  17  44
DOCKED: TORSDOF 10
DOCKED: TER
DOCKED: ENDMDL
________________________________________________________________________________


	BEGINNING GENETIC ALGORITHM DOCKING 78 of 100
Run: 78 Seed: 1312829893 394422967 [ Run 78 of 100 GA/GALS ]
Beginning LAMARCKIAN GENETIC ALGORITHM (LGA), with a maximum of 25000000 energy evaluations.

Final-Value: -18.122


	FINAL GENETIC ALGORITHM DOCKED STATE
	_______________________________________________


Detailed state:  trans 41.740 28.526 15.975 quatxyzw 0.239597 0.098730 -0.949759 0.175511 center -0.174 -0.001 -0.047 ntor 10 75.5041 107.0061 68.5423 -137.0522 139.1585 -83.5942 -67.0109 22.1244 -172.1363 -179.8836
State:	 41.740  28.526  15.975   0.243  0.100 -0.965 159.783     75.50  107.01   68.54 -137.05  139.16  -83.59  -67.01   22.12 -172.14 -179.88

DOCKED: MODEL       78
DOCKED: USER    Run = 78
DOCKED: USER    DPF = D:/Protein_go_brrr/autodock/final/6BB5/heme_Fe/dock.dpf
DOCKED: USER  
DOCKED: USER    Estimated Free Energy of Binding    =  -13.20 kcal/mol  [=(1)+(2)+(3)-(4)]
DOCKED: USER    Estimated Inhibition Constant, Ki   =  211.72 pM (picomolar)  [Temperature = 298.15 K]
DOCKED: USER    
DOCKED: USER    (1) Final Intermolecular Energy     =  -16.18 kcal/mol
DOCKED: USER        vdW + Hbond + desolv Energy     =  -14.19 kcal/mol
DOCKED: USER        Electrostatic Energy            =   -1.99 kcal/mol
DOCKED: USER    (2) Final Total Internal Energy     =   -1.94 kcal/mol
DOCKED: USER    (3) Torsional Free Energy           =   +2.98 kcal/mol
DOCKED: USER    (4) Unbound System's Energy  [=(2)] =   -1.94 kcal/mol
DOCKED: USER    
DOCKED: USER    
DOCKED: USER    NEWDPF move heme_Fe_opt.pdbqt
DOCKED: USER    NEWDPF about -0.174000 -0.001000 -0.047000
DOCKED: USER    NEWDPF tran0 41.740399 28.525764 15.975038
DOCKED: USER    NEWDPF quaternion0 0.239597 0.098730 -0.949759 0.175511
DOCKED: USER    NEWDPF axisangle0 0.243374 0.100286 -0.964734 159.783207
DOCKED: USER    NEWDPF quat0 0.243374 0.100286 -0.964734 159.783207
DOCKED: USER    NEWDPF dihe0 75.50 107.01 68.54 -137.05 139.16 -83.59 -67.01 22.12 -172.14 -179.88 
DOCKED: USER  keepresnum = 1 
DOCKED: USER  
DOCKED: REMARK  10 active torsions:
DOCKED: REMARK  status: ('A' for Active; 'I' for Inactive)
DOCKED: REMARK    1  A    between atoms: C_6  and  C_10 
DOCKED: REMARK    2  A    between atoms: C_10  and  C_11 
DOCKED: REMARK    3  A    between atoms: C_11  and  C_12 
DOCKED: REMARK    4  A    between atoms: C_12  and  O_14 
DOCKED: REMARK    5  A    between atoms: C_17  and  C_20 
DOCKED: REMARK    6  A    between atoms: C_24  and  C_27 
DOCKED: REMARK    7  A    between atoms: C_31  and  C_34 
DOCKED: REMARK    8  A    between atoms: C_34  and  C_35 
DOCKED: REMARK    9  A    between atoms: C_35  and  C_36 
DOCKED: REMARK   10  A    between atoms: C_36  and  O_38 
DOCKED: USER                              x       y       z     vdW  Elec       q    Type
DOCKED: USER                           _______ _______ _______ _____ _____    ______ ____
DOCKED: ROOT
DOCKED: ATOM      1  C   UNL d   1      43.128  27.771  17.285 -0.20 +0.02    +0.064 C 
DOCKED: ATOM      2  C   UNL d   1      41.167  32.236  16.484 -0.42 +0.01    +0.064 A 
DOCKED: ATOM      3  C   UNL d   1      37.706  30.172  13.872 -0.37 +0.01    +0.064 C 
DOCKED: ATOM      4  C   UNL d   1      39.647  25.852  14.546 -0.46 +0.01    +0.064 C 
DOCKED: ATOM      5  C   UNL d   1      42.944  29.228  17.232 -0.26 +0.02    +0.066 A 
DOCKED: ATOM      6  C   UNL d   1      43.816  30.155  17.780 -0.29 -0.01    -0.021 A 
DOCKED: ATOM      7  C   UNL d   1      43.268  31.395  17.561 -0.27 -0.01    -0.025 A 
DOCKED: ATOM      8  C   UNL d   1      42.083  31.176  16.886 -0.36 +0.01    +0.066 A 
DOCKED: ATOM      9  C   UNL d   1      43.867  32.708  17.963 -0.32 +0.01    +0.051 C 
DOCKED: ATOM     10  C   UNL d   1      40.046  32.058  15.783 -0.37 +0.01    +0.066 A 
DOCKED: ATOM     11  C   UNL d   1      39.131  33.078  15.512 -0.41 -0.00    -0.021 A 
DOCKED: ATOM     12  C   UNL d   1      38.115  32.505  14.774 -0.39 +0.00    +0.000 A 
DOCKED: ATOM     13  C   UNL d   1      38.462  31.150  14.638 -0.35 +0.01    +0.070 A 
DOCKED: ATOM     14  C   UNL d   1      39.187  34.515  15.991 -0.53 +0.00    +0.052 C 
DOCKED: ATOM     15  C   UNL d   1      38.008  28.855  13.781 -0.33 +0.01    +0.066 A 
DOCKED: ATOM     16  C   UNL d   1      37.318  27.973  12.959 -0.46 -0.00    -0.021 A 
DOCKED: ATOM     17  C   UNL d   1      37.874  26.726  13.154 -0.45 +0.00    +0.000 A 
DOCKED: ATOM     18  C   UNL d   1      38.889  26.876  14.097 -0.37 +0.01    +0.070 A 
DOCKED: ATOM     19  C   UNL d   1      36.165  28.283  12.043 -0.65 +0.01    +0.052 C 
DOCKED: ATOM     20  C   UNL d   1      40.763  25.982  15.490 -0.38 +0.01    +0.066 A 
DOCKED: ATOM     21  C   UNL d   1      41.424  24.914  16.115 -0.38 -0.00    -0.025 A 
DOCKED: ATOM     22  C   UNL d   1      42.420  25.483  16.881 -0.34 -0.00    -0.021 A 
DOCKED: ATOM     23  C   UNL d   1      42.325  26.868  16.699 -0.26 +0.02    +0.066 A 
DOCKED: ATOM     24  C   UNL d   1      41.137  23.435  16.007 -0.49 +0.00    +0.051 C 
DOCKED: ATOM     25  N   UNL d   1      41.893  29.858  16.679 -0.23 -0.05    -0.248 N 
DOCKED: ATOM     26  N   UNL d   1      39.635  30.875  15.261 -0.17 -0.05    -0.248 N 
DOCKED: ATOM     27  N   UNL d   1      39.001  28.192  14.450 -0.07 -0.07    -0.248 N 
DOCKED: ATOM     28  N   UNL d   1      41.284  27.169  15.885 -0.25 -0.05    -0.248 N 
DOCKED: ATOM     29 FE   UNL d   1      40.459  29.020  15.572 -0.09 +0.00    +0.000 Fe
DOCKED: ENDROOT
DOCKED: BRANCH   6  30
DOCKED: ATOM     30  C   UNL d   1      45.113  29.881  18.460 -0.24 +0.02    +0.052 C 
DOCKED: BRANCH  30  31
DOCKED: ATOM     31  C   UNL d   1      44.890  29.506  19.921 -0.16 +0.08    +0.115 C 
DOCKED: BRANCH  31  32
DOCKED: ATOM     32  C   UNL d   1      45.267  28.071  20.160 -0.17 +0.13    +0.139 C 
DOCKED: ATOM     33  O   UNL d   1      45.869  27.745  21.174 -0.36 -1.12    -0.650 OA
DOCKED: BRANCH  32  34
DOCKED: ATOM     34  O   UNL d   1      44.945  27.129  19.258 +0.07 -0.47    -0.776 OA
DOCKED: ATOM     35  H   UNL d   1      44.210  26.529  19.447 +0.06 +0.10    +0.167 HD
DOCKED: ENDBRANCH  32  34
DOCKED: ENDBRANCH  31  32
DOCKED: ENDBRANCH  30  31
DOCKED: ENDBRANCH   6  30
DOCKED: BRANCH  22  36
DOCKED: ATOM     36  C   UNL d   1      43.377  24.739  17.774 -0.31 +0.02    +0.052 C 
DOCKED: BRANCH  36  37
DOCKED: ATOM     37  C   UNL d   1      42.715  24.461  19.116 -0.37 +0.03    +0.115 C 
DOCKED: BRANCH  37  38
DOCKED: ATOM     38  C   UNL d   1      43.744  24.204  20.181 -0.24 +0.06    +0.139 C 
DOCKED: ATOM     39  O   UNL d   1      44.233  23.093  20.323 -0.55 -0.33    -0.650 OA
DOCKED: BRANCH  38  40
DOCKED: ATOM     40  O   UNL d   1      44.133  25.203  20.993 +0.04 -0.58    -0.776 OA
DOCKED: ATOM     41  H   UNL d   1      44.705  25.899  20.641 +0.06 +0.14    +0.167 HD
DOCKED: ENDBRANCH  38  40
DOCKED: ENDBRANCH  37  38
DOCKED: ENDBRANCH  36  37
DOCKED: ENDBRANCH  22  36
DOCKED: BRANCH  12  42
DOCKED: ATOM     42  C   UNL d   1      36.908  33.231  14.270 -0.46 +0.00    +0.004 C 
DOCKED: ATOM     43  C   UNL d   1      36.682  33.364  12.956 -0.53 +0.00    +0.012 C 
DOCKED: ENDBRANCH  12  42
DOCKED: BRANCH  17  44
DOCKED: ATOM     44  C   UNL d   1      37.474  25.476  12.469 -0.43 +0.00    +0.004 C 
DOCKED: ATOM     45  C   UNL d   1      36.436  24.757  12.908 -0.68 +0.00    +0.012 C 
DOCKED: ENDBRANCH  17  44
DOCKED: TORSDOF 10
DOCKED: TER
DOCKED: ENDMDL
________________________________________________________________________________


	BEGINNING GENETIC ALGORITHM DOCKING 79 of 100
Run: 79 Seed: 44422012 1502056768 [ Run 79 of 100 GA/GALS ]
Beginning LAMARCKIAN GENETIC ALGORITHM (LGA), with a maximum of 25000000 energy evaluations.

Final-Value: -10.630


	FINAL GENETIC ALGORITHM DOCKED STATE
	_______________________________________________


Detailed state:  trans 35.518 14.718 21.276 quatxyzw -0.570493 0.300956 0.120861 0.754556 center -0.174 -0.001 -0.047 ntor 10 -148.8803 -56.7961 65.1392 14.9383 99.4566 175.6549 -44.8444 80.3321 144.3665 -178.4459
State:	 35.518  14.718  21.276  -0.869  0.459  0.184 82.027   -148.88  -56.80   65.14   14.94   99.46  175.65  -44.84   80.33  144.37 -178.45

DOCKED: MODEL       79
DOCKED: USER    Run = 79
DOCKED: USER    DPF = D:/Protein_go_brrr/autodock/final/6BB5/heme_Fe/dock.dpf
DOCKED: USER  
DOCKED: USER    Estimated Free Energy of Binding    =   -6.29 kcal/mol  [=(1)+(2)+(3)-(4)]
DOCKED: USER    Estimated Inhibition Constant, Ki   =   24.57 uM (micromolar)  [Temperature = 298.15 K]
DOCKED: USER    
DOCKED: USER    (1) Final Intermolecular Energy     =   -9.27 kcal/mol
DOCKED: USER        vdW + Hbond + desolv Energy     =   -7.04 kcal/mol
DOCKED: USER        Electrostatic Energy            =   -2.23 kcal/mol
DOCKED: USER    (2) Final Total Internal Energy     =   -1.36 kcal/mol
DOCKED: USER    (3) Torsional Free Energy           =   +2.98 kcal/mol
DOCKED: USER    (4) Unbound System's Energy  [=(2)] =   -1.36 kcal/mol
DOCKED: USER    
DOCKED: USER    
DOCKED: USER    NEWDPF move heme_Fe_opt.pdbqt
DOCKED: USER    NEWDPF about -0.174000 -0.001000 -0.047000
DOCKED: USER    NEWDPF tran0 35.517615 14.717838 21.276375
DOCKED: USER    NEWDPF quaternion0 -0.570493 0.300956 0.120861 0.754556
DOCKED: USER    NEWDPF axisangle0 -0.869342 0.458611 0.184174 82.026761
DOCKED: USER    NEWDPF quat0 -0.869342 0.458611 0.184174 82.026761
DOCKED: USER    NEWDPF dihe0 -148.88 -56.80 65.14 14.94 99.46 175.65 -44.84 80.33 144.37 -178.45 
DOCKED: USER  keepresnum = 1 
DOCKED: USER  
DOCKED: REMARK  10 active torsions:
DOCKED: REMARK  status: ('A' for Active; 'I' for Inactive)
DOCKED: REMARK    1  A    between atoms: C_6  and  C_10 
DOCKED: REMARK    2  A    between atoms: C_10  and  C_11 
DOCKED: REMARK    3  A    between atoms: C_11  and  C_12 
DOCKED: REMARK    4  A    between atoms: C_12  and  O_14 
DOCKED: REMARK    5  A    between atoms: C_17  and  C_20 
DOCKED: REMARK    6  A    between atoms: C_24  and  C_27 
DOCKED: REMARK    7  A    between atoms: C_31  and  C_34 
DOCKED: REMARK    8  A    between atoms: C_34  and  C_35 
DOCKED: REMARK    9  A    between atoms: C_35  and  C_36 
DOCKED: REMARK   10  A    between atoms: C_36  and  O_38 
DOCKED: USER                              x       y       z     vdW  Elec       q    Type
DOCKED: USER                           _______ _______ _______ _____ _____    ______ ____
DOCKED: ROOT
DOCKED: ATOM      1  C   UNL d   1      33.648  15.321  20.684 -0.27 +0.01    +0.064 C 
DOCKED: ATOM      2  C   UNL d   1      37.182  12.490  18.702 -0.13 +0.01    +0.064 A 
DOCKED: ATOM      3  C   UNL d   1      39.309  12.256  23.002 -0.10 -0.01    +0.064 C 
DOCKED: ATOM      4  C   UNL d   1      35.957  15.081  24.916 -0.19 -0.03    +0.064 C 
DOCKED: ATOM      5  C   UNL d   1      34.490  14.615  19.709 -0.21 +0.01    +0.066 A 
DOCKED: ATOM      6  C   UNL d   1      34.250  14.566  18.346 -0.27 -0.00    -0.021 A 
DOCKED: ATOM      7  C   UNL d   1      35.230  13.776  17.796 -0.24 -0.00    -0.025 A 
DOCKED: ATOM      8  C   UNL d   1      36.032  13.374  18.847 -0.18 +0.01    +0.066 A 
DOCKED: ATOM      9  C   UNL d   1      35.389  13.450  16.343 -0.24 +0.01    +0.051 C 
DOCKED: ATOM     10  C   UNL d   1      38.005  12.133  19.689 -0.11 +0.00    +0.066 A 
DOCKED: ATOM     11  C   UNL d   1      39.030  11.195  19.543 -0.12 -0.00    -0.021 A 
DOCKED: ATOM     12  C   UNL d   1      39.648  11.097  20.773 -0.11 +0.00    +0.000 A 
DOCKED: ATOM     13  C   UNL d   1      38.956  11.983  21.617 -0.11 -0.01    +0.070 A 
DOCKED: ATOM     14  C   UNL d   1      39.360  10.381  18.308 -0.07 +0.00    +0.052 C 
DOCKED: ATOM     15  C   UNL d   1      38.616  13.069  23.833 -0.14 -0.01    +0.066 A 
DOCKED: ATOM     16  C   UNL d   1      39.041  13.382  25.118 -0.13 +0.00    -0.021 A 
DOCKED: ATOM     17  C   UNL d   1      38.074  14.193  25.673 -0.20 -0.00    +0.000 A 
DOCKED: ATOM     18  C   UNL d   1      37.077  14.354  24.714 -0.21 -0.02    +0.070 A 
DOCKED: ATOM     19  C   UNL d   1      40.295  12.917  25.808 -0.07 -0.00    +0.052 C 
DOCKED: ATOM     20  C   UNL d   1      34.916  15.322  23.910 -0.26 -0.02    +0.066 A 
DOCKED: ATOM     21  C   UNL d   1      33.664  15.901  24.162 -0.34 +0.00    -0.025 A 
DOCKED: ATOM     22  C   UNL d   1      33.027  15.971  22.940 -0.28 -0.00    -0.021 A 
DOCKED: ATOM     23  C   UNL d   1      33.909  15.430  21.996 -0.23 +0.00    +0.066 A 
DOCKED: ATOM     24  C   UNL d   1      33.086  16.362  25.480 -0.19 -0.03    +0.051 C 
DOCKED: ATOM     25  N   UNL d   1      35.585  13.894  20.008 -0.13 -0.01    -0.248 N 
DOCKED: ATOM     26  N   UNL d   1      37.949  12.608  20.960 -0.05 +0.04    -0.248 N 
DOCKED: ATOM     27  N   UNL d   1      37.429  13.699  23.567 -0.12 +0.07    -0.248 N 
DOCKED: ATOM     28  N   UNL d   1      35.041  14.995  22.601 -0.16 +0.04    -0.248 N 
DOCKED: ATOM     29 FE   UNL d   1      36.495  13.802  21.782 -0.05 -0.00    +0.000 Fe
DOCKED: ENDROOT
DOCKED: BRANCH   6  30
DOCKED: ATOM     30  C   UNL d   1      33.158  15.251  17.597 -0.35 +0.02    +0.052 C 
DOCKED: BRANCH  30  31
DOCKED: ATOM     31  C   UNL d   1      32.372  14.252  16.754 -0.23 +0.05    +0.115 C 
DOCKED: BRANCH  31  32
DOCKED: ATOM     32  C   UNL d   1      30.895  14.492  16.897 -0.14 +0.11    +0.139 C 
DOCKED: ATOM     33  O   UNL d   1      30.279  15.118  16.045 -0.04 -0.48    -0.650 OA
DOCKED: BRANCH  32  34
DOCKED: ATOM     34  O   UNL d   1      30.234  14.019  17.967 +0.03 -0.82    -0.776 OA
DOCKED: ATOM     35  H   UNL d   1      30.701  13.944  18.812 +0.02 +0.16    +0.167 HD
DOCKED: ENDBRANCH  32  34
DOCKED: ENDBRANCH  31  32
DOCKED: ENDBRANCH  30  31
DOCKED: ENDBRANCH   6  30
DOCKED: BRANCH  22  36
DOCKED: ATOM     36  C   UNL d   1      31.632  16.484  22.703 -0.32 +0.02    +0.052 C 
DOCKED: BRANCH  36  37
DOCKED: ATOM     37  C   UNL d   1      30.622  15.394  23.027 -0.12 +0.04    +0.115 C 
DOCKED: BRANCH  37  38
DOCKED: ATOM     38  C   UNL d   1      30.132  14.724  21.775 -0.07 +0.11    +0.139 C 
DOCKED: ATOM     39  O   UNL d   1      29.375  13.766  21.833 -0.01 -0.38    -0.650 OA
DOCKED: BRANCH  38  40
DOCKED: ATOM     40  O   UNL d   1      30.531  15.175  20.572 -0.33 -1.30    -0.776 OA
DOCKED: ATOM     41  H   UNL d   1      30.974  14.567  19.965 +0.03 +0.19    +0.167 HD
DOCKED: ENDBRANCH  38  40
DOCKED: ENDBRANCH  37  38
DOCKED: ENDBRANCH  36  37
DOCKED: ENDBRANCH  22  36
DOCKED: BRANCH  12  42
DOCKED: ATOM     42  C   UNL d   1      40.801  10.196  21.083 -0.05 +0.00    +0.004 C 
DOCKED: ATOM     43  C   UNL d   1      42.009  10.696  21.371 -0.05 +0.00    +0.012 C 
DOCKED: ENDBRANCH  12  42
DOCKED: BRANCH  17  44
DOCKED: ATOM     44  C   UNL d   1      38.112  14.794  27.026 -0.21 -0.00    +0.004 C 
DOCKED: ATOM     45  C   UNL d   1      38.994  15.752  27.326 -0.28 -0.00    +0.012 C 
DOCKED: ENDBRANCH  17  44
DOCKED: TORSDOF 10
DOCKED: TER
DOCKED: ENDMDL
________________________________________________________________________________


	BEGINNING GENETIC ALGORITHM DOCKING 80 of 100
Run: 80 Seed: 1213926861 1904124051 [ Run 80 of 100 GA/GALS ]
Beginning LAMARCKIAN GENETIC ALGORITHM (LGA), with a maximum of 25000000 energy evaluations.

Final-Value: -17.649


	FINAL GENETIC ALGORITHM DOCKED STATE
	_______________________________________________


Detailed state:  trans 41.664 28.319 15.972 quatxyzw 0.251722 0.105573 -0.944474 0.182919 center -0.174 -0.001 -0.047 ntor 10 -145.6727 95.7487 70.6756 -138.2558 32.9395 -24.2880 2.4580 -4.8877 -152.1496 133.0846
State:	 41.664  28.319  15.972   0.256  0.107 -0.961 158.920   -145.67   95.75   70.68 -138.26   32.94  -24.29    2.46   -4.89 -152.15  133.08

DOCKED: MODEL       80
DOCKED: USER    Run = 80
DOCKED: USER    DPF = D:/Protein_go_brrr/autodock/final/6BB5/heme_Fe/dock.dpf
DOCKED: USER  
DOCKED: USER    Estimated Free Energy of Binding    =  -13.15 kcal/mol  [=(1)+(2)+(3)-(4)]
DOCKED: USER    Estimated Inhibition Constant, Ki   =  230.42 pM (picomolar)  [Temperature = 298.15 K]
DOCKED: USER    
DOCKED: USER    (1) Final Intermolecular Energy     =  -16.13 kcal/mol
DOCKED: USER        vdW + Hbond + desolv Energy     =  -14.20 kcal/mol
DOCKED: USER        Electrostatic Energy            =   -1.93 kcal/mol
DOCKED: USER    (2) Final Total Internal Energy     =   -1.52 kcal/mol
DOCKED: USER    (3) Torsional Free Energy           =   +2.98 kcal/mol
DOCKED: USER    (4) Unbound System's Energy  [=(2)] =   -1.52 kcal/mol
DOCKED: USER    
DOCKED: USER    
DOCKED: USER    NEWDPF move heme_Fe_opt.pdbqt
DOCKED: USER    NEWDPF about -0.174000 -0.001000 -0.047000
DOCKED: USER    NEWDPF tran0 41.663698 28.318504 15.972294
DOCKED: USER    NEWDPF quaternion0 0.251722 0.105573 -0.944474 0.182919
DOCKED: USER    NEWDPF axisangle0 0.256042 0.107385 -0.960683 158.920320
DOCKED: USER    NEWDPF quat0 0.256042 0.107385 -0.960683 158.920320
DOCKED: USER    NEWDPF dihe0 -145.67 95.75 70.68 -138.26 32.94 -24.29 2.46 -4.89 -152.15 133.08 
DOCKED: USER  keepresnum = 1 
DOCKED: USER  
DOCKED: REMARK  10 active torsions:
DOCKED: REMARK  status: ('A' for Active; 'I' for Inactive)
DOCKED: REMARK    1  A    between atoms: C_6  and  C_10 
DOCKED: REMARK    2  A    between atoms: C_10  and  C_11 
DOCKED: REMARK    3  A    between atoms: C_11  and  C_12 
DOCKED: REMARK    4  A    between atoms: C_12  and  O_14 
DOCKED: REMARK    5  A    between atoms: C_17  and  C_20 
DOCKED: REMARK    6  A    between atoms: C_24  and  C_27 
DOCKED: REMARK    7  A    between atoms: C_31  and  C_34 
DOCKED: REMARK    8  A    between atoms: C_34  and  C_35 
DOCKED: REMARK    9  A    between atoms: C_35  and  C_36 
DOCKED: REMARK   10  A    between atoms: C_36  and  O_38 
DOCKED: USER                              x       y       z     vdW  Elec       q    Type
DOCKED: USER                           _______ _______ _______ _____ _____    ______ ____
DOCKED: ROOT
DOCKED: ATOM      1  C   UNL d   1      43.005  27.525  17.308 -0.18 +0.02    +0.064 C 
DOCKED: ATOM      2  C   UNL d   1      41.132  32.031  16.516 -0.41 +0.01    +0.064 A 
DOCKED: ATOM      3  C   UNL d   1      37.711  30.053  13.786 -0.39 +0.01    +0.064 C 
DOCKED: ATOM      4  C   UNL d   1      39.569  25.696  14.453 -0.47 +0.01    +0.064 C 
DOCKED: ATOM      5  C   UNL d   1      42.844  28.986  17.270 -0.17 +0.02    +0.066 A 
DOCKED: ATOM      6  C   UNL d   1      43.714  29.892  17.854 -0.29 -0.01    -0.021 A 
DOCKED: ATOM      7  C   UNL d   1      43.191  31.143  17.637 -0.31 -0.01    -0.025 A 
DOCKED: ATOM      8  C   UNL d   1      42.021  30.951  16.928 -0.35 +0.01    +0.066 A 
DOCKED: ATOM      9  C   UNL d   1      43.798  32.441  18.072 -0.34 +0.01    +0.051 C 
DOCKED: ATOM     10  C   UNL d   1      40.028  31.879  15.783 -0.36 +0.01    +0.066 A 
DOCKED: ATOM     11  C   UNL d   1      39.136  32.916  15.502 -0.40 -0.00    -0.021 A 
DOCKED: ATOM     12  C   UNL d   1      38.131  32.368  14.729 -0.39 +0.00    +0.000 A 
DOCKED: ATOM     13  C   UNL d   1      38.461  31.009  14.585 -0.35 +0.01    +0.070 A 
DOCKED: ATOM     14  C   UNL d   1      39.200  34.345  16.002 -0.52 +0.00    +0.052 C 
DOCKED: ATOM     15  C   UNL d   1      37.996  28.734  13.685 -0.34 +0.01    +0.066 A 
DOCKED: ATOM     16  C   UNL d   1      37.315  27.873  12.833 -0.47 -0.00    -0.021 A 
DOCKED: ATOM     17  C   UNL d   1      37.847  26.615  13.027 -0.45 +0.00    +0.000 A 
DOCKED: ATOM     18  C   UNL d   1      38.839  26.737  13.997 -0.37 +0.01    +0.070 A 
DOCKED: ATOM     19  C   UNL d   1      36.192  28.213  11.892 -0.65 +0.01    +0.052 C 
DOCKED: ATOM     20  C   UNL d   1      40.662  25.796  15.427 -0.38 +0.01    +0.066 A 
DOCKED: ATOM     21  C   UNL d   1      41.290  24.711  16.055 -0.39 -0.00    -0.025 A 
DOCKED: ATOM     22  C   UNL d   1      42.274  25.255  16.855 -0.35 -0.00    -0.021 A 
DOCKED: ATOM     23  C   UNL d   1      42.204  26.643  16.689 -0.27 +0.01    +0.066 A 
DOCKED: ATOM     24  C   UNL d   1      40.984  23.237  15.920 -0.50 +0.00    +0.051 C 
DOCKED: ATOM     25  N   UNL d   1      41.818  29.639  16.698 -0.22 -0.05    -0.248 N 
DOCKED: ATOM     26  N   UNL d   1      39.613  30.708  15.234 -0.05 -0.06    -0.248 N 
DOCKED: ATOM     27  N   UNL d   1      38.961  28.046  14.371 -0.10 -0.07    -0.248 N 
DOCKED: ATOM     28  N   UNL d   1      41.190  26.970  15.852 -0.26 -0.05    -0.248 N 
DOCKED: ATOM     29 FE   UNL d   1      40.401  28.837  15.543 -0.09 +0.00    +0.000 Fe
DOCKED: ENDROOT
DOCKED: BRANCH   6  30
DOCKED: ATOM     30  C   UNL d   1      44.989  29.589  18.564 -0.24 +0.02    +0.052 C 
DOCKED: BRANCH  30  31
DOCKED: ATOM     31  C   UNL d   1      44.728  28.749  19.809 -0.22 +0.09    +0.115 C 
DOCKED: BRANCH  31  32
DOCKED: ATOM     32  C   UNL d   1      46.010  28.498  20.553 -0.12 +0.15    +0.139 C 
DOCKED: ATOM     33  O   UNL d   1      46.902  29.335  20.558 -0.05 -0.49    -0.650 OA
DOCKED: BRANCH  32  34
DOCKED: ATOM     34  O   UNL d   1      46.188  27.346  21.221 -0.43 -1.19    -0.776 OA
DOCKED: ATOM     35  H   UNL d   1      45.804  26.533  20.866 +0.04 +0.19    +0.167 HD
DOCKED: ENDBRANCH  32  34
DOCKED: ENDBRANCH  31  32
DOCKED: ENDBRANCH  30  31
DOCKED: ENDBRANCH   6  30
DOCKED: BRANCH  22  36
DOCKED: ATOM     36  C   UNL d   1      43.195  24.484  17.763 -0.33 +0.01    +0.052 C 
DOCKED: BRANCH  36  37
DOCKED: ATOM     37  C   UNL d   1      43.186  25.106  19.152 -0.31 +0.04    +0.115 C 
DOCKED: BRANCH  37  38
DOCKED: ATOM     38  C   UNL d   1      43.986  24.279  20.117 -0.24 +0.07    +0.139 C 
DOCKED: ATOM     39  O   UNL d   1      44.167  23.087  19.920 -0.49 -0.31    -0.650 OA
DOCKED: BRANCH  38  40
DOCKED: ATOM     40  O   UNL d   1      44.510  24.851  21.216 +0.05 -0.57    -0.776 OA
DOCKED: ATOM     41  H   UNL d   1      45.364  25.301  21.150 +0.05 +0.14    +0.167 HD
DOCKED: ENDBRANCH  38  40
DOCKED: ENDBRANCH  37  38
DOCKED: ENDBRANCH  36  37
DOCKED: ENDBRANCH  22  36
DOCKED: BRANCH  12  42
DOCKED: ATOM     42  C   UNL d   1      36.949  33.119  14.204 -0.46 +0.00    +0.004 C 
DOCKED: ATOM     43  C   UNL d   1      36.737  33.236  12.887 -0.52 +0.00    +0.012 C 
DOCKED: ENDBRANCH  12  42
DOCKED: BRANCH  17  44
DOCKED: ATOM     44  C   UNL d   1      37.447  25.381  12.314 -0.37 +0.00    +0.004 C 
DOCKED: ATOM     45  C   UNL d   1      36.402  24.659  12.730 -0.69 +0.00    +0.012 C 
DOCKED: ENDBRANCH  17  44
DOCKED: TORSDOF 10
DOCKED: TER
DOCKED: ENDMDL
________________________________________________________________________________


	BEGINNING GENETIC ALGORITHM DOCKING 81 of 100
Run: 81 Seed: 1661196726 903182059 [ Run 81 of 100 GA/GALS ]
Beginning LAMARCKIAN GENETIC ALGORITHM (LGA), with a maximum of 25000000 energy evaluations.

Final-Value: -18.220


	FINAL GENETIC ALGORITHM DOCKED STATE
	_______________________________________________


Detailed state:  trans 41.280 28.124 16.516 quatxyzw -0.159748 -0.928964 -0.086358 0.322566 center -0.174 -0.001 -0.047 ntor 10 -17.8402 -34.3317 101.6388 -121.0169 -172.6151 102.3608 63.3773 -78.6515 -4.0648 -24.3465
State:	 41.280  28.124  16.516  -0.169 -0.981 -0.091 142.364    -17.84  -34.33  101.64 -121.02 -172.62  102.36   63.38  -78.65   -4.06  -24.35

DOCKED: MODEL       81
DOCKED: USER    Run = 81
DOCKED: USER    DPF = D:/Protein_go_brrr/autodock/final/6BB5/heme_Fe/dock.dpf
DOCKED: USER  
DOCKED: USER    Estimated Free Energy of Binding    =  -12.84 kcal/mol  [=(1)+(2)+(3)-(4)]
DOCKED: USER    Estimated Inhibition Constant, Ki   =  385.29 pM (picomolar)  [Temperature = 298.15 K]
DOCKED: USER    
DOCKED: USER    (1) Final Intermolecular Energy     =  -15.83 kcal/mol
DOCKED: USER        vdW + Hbond + desolv Energy     =  -13.63 kcal/mol
DOCKED: USER        Electrostatic Energy            =   -2.19 kcal/mol
DOCKED: USER    (2) Final Total Internal Energy     =   -2.39 kcal/mol
DOCKED: USER    (3) Torsional Free Energy           =   +2.98 kcal/mol
DOCKED: USER    (4) Unbound System's Energy  [=(2)] =   -2.39 kcal/mol
DOCKED: USER    
DOCKED: USER    
DOCKED: USER    NEWDPF move heme_Fe_opt.pdbqt
DOCKED: USER    NEWDPF about -0.174000 -0.001000 -0.047000
DOCKED: USER    NEWDPF tran0 41.279567 28.123984 16.515548
DOCKED: USER    NEWDPF quaternion0 -0.159748 -0.928964 -0.086358 0.322566
DOCKED: USER    NEWDPF axisangle0 -0.168769 -0.981424 -0.091235 142.363634
DOCKED: USER    NEWDPF quat0 -0.168769 -0.981424 -0.091235 142.363634
DOCKED: USER    NEWDPF dihe0 -17.84 -34.33 101.64 -121.02 -172.62 102.36 63.38 -78.65 -4.06 -24.35 
DOCKED: USER  keepresnum = 1 
DOCKED: USER  
DOCKED: REMARK  10 active torsions:
DOCKED: REMARK  status: ('A' for Active; 'I' for Inactive)
DOCKED: REMARK    1  A    between atoms: C_6  and  C_10 
DOCKED: REMARK    2  A    between atoms: C_10  and  C_11 
DOCKED: REMARK    3  A    between atoms: C_11  and  C_12 
DOCKED: REMARK    4  A    between atoms: C_12  and  O_14 
DOCKED: REMARK    5  A    between atoms: C_17  and  C_20 
DOCKED: REMARK    6  A    between atoms: C_24  and  C_27 
DOCKED: REMARK    7  A    between atoms: C_31  and  C_34 
DOCKED: REMARK    8  A    between atoms: C_34  and  C_35 
DOCKED: REMARK    9  A    between atoms: C_35  and  C_36 
DOCKED: REMARK   10  A    between atoms: C_36  and  O_38 
DOCKED: USER                              x       y       z     vdW  Elec       q    Type
DOCKED: USER                           _______ _______ _______ _____ _____    ______ ____
DOCKED: ROOT
DOCKED: ATOM      1  C   UNL d   1      43.067  27.401  17.219 -0.22 +0.02    +0.064 C 
DOCKED: ATOM      2  C   UNL d   1      39.438  25.572  14.406 -0.40 +0.01    +0.064 A 
DOCKED: ATOM      3  C   UNL d   1      37.740  30.026  13.820 -0.39 +0.01    +0.064 C 
DOCKED: ATOM      4  C   UNL d   1      41.182  31.805  16.625 -0.46 +0.01    +0.064 C 
DOCKED: ATOM      5  C   UNL d   1      42.154  26.464  16.550 -0.31 +0.01    +0.066 A 
DOCKED: ATOM      6  C   UNL d   1      42.263  25.083  16.598 -0.35 -0.00    -0.021 A 
DOCKED: ATOM      7  C   UNL d   1      41.258  24.576  15.814 -0.41 -0.00    -0.025 A 
DOCKED: ATOM      8  C   UNL d   1      40.572  25.668  15.316 -0.39 +0.01    +0.066 A 
DOCKED: ATOM      9  C   UNL d   1      40.968  23.126  15.577 -0.53 +0.00    +0.051 C 
DOCKED: ATOM     10  C   UNL d   1      38.723  26.605  13.957 -0.38 +0.01    +0.066 A 
DOCKED: ATOM     11  C   UNL d   1      37.715  26.492  12.997 -0.44 -0.00    -0.021 A 
DOCKED: ATOM     12  C   UNL d   1      37.221  27.765  12.798 -0.49 +0.00    +0.000 A 
DOCKED: ATOM     13  C   UNL d   1      37.966  28.599  13.649 -0.34 +0.01    +0.070 A 
DOCKED: ATOM     14  C   UNL d   1      37.290  25.242  12.254 -0.40 +0.01    +0.052 C 
DOCKED: ATOM     15  C   UNL d   1      38.488  30.842  14.599 -0.34 +0.01    +0.066 A 
DOCKED: ATOM     16  C   UNL d   1      38.179  32.180  14.813 -0.37 -0.00    -0.021 A 
DOCKED: ATOM     17  C   UNL d   1      39.173  32.696  15.619 -0.40 +0.00    +0.000 A 
DOCKED: ATOM     18  C   UNL d   1      40.068  31.660  15.875 -0.35 +0.01    +0.070 A 
DOCKED: ATOM     19  C   UNL d   1      37.011  32.951  14.262 -0.41 +0.00    +0.052 C 
DOCKED: ATOM     20  C   UNL d   1      42.115  30.724  16.967 -0.34 +0.01    +0.066 A 
DOCKED: ATOM     21  C   UNL d   1      43.369  30.896  17.569 -0.30 -0.01    -0.025 A 
DOCKED: ATOM     22  C   UNL d   1      43.883  29.628  17.741 -0.28 -0.01    -0.021 A 
DOCKED: ATOM     23  C   UNL d   1      42.930  28.736  17.233 -0.20 +0.02    +0.066 A 
DOCKED: ATOM     24  C   UNL d   1      44.058  32.183  17.963 -0.27 +0.01    +0.051 C 
DOCKED: ATOM     25  N   UNL d   1      41.114  26.814  15.774 -0.27 -0.05    -0.248 N 
DOCKED: ATOM     26  N   UNL d   1      38.888  27.894  14.350 -0.15 -0.06    -0.248 N 
DOCKED: ATOM     27  N   UNL d   1      39.625  30.509  15.285 -0.00 -0.06    -0.248 N 
DOCKED: ATOM     28  N   UNL d   1      41.873  29.414  16.722 -0.19 -0.06    -0.248 N 
DOCKED: ATOM     29 FE   UNL d   1      40.381  28.656  15.536 -0.09 +0.00    +0.000 Fe
DOCKED: ENDROOT
DOCKED: BRANCH   6  30
DOCKED: ATOM     30  C   UNL d   1      43.259  24.284  17.367 -0.32 +0.01    +0.052 C 
DOCKED: BRANCH  30  31
DOCKED: ATOM     31  C   UNL d   1      42.786  24.065  18.800 -0.37 +0.03    +0.115 C 
DOCKED: BRANCH  31  32
DOCKED: ATOM     32  C   UNL d   1      43.726  24.723  19.771 -0.27 +0.06    +0.139 C 
DOCKED: ATOM     33  O   UNL d   1      43.598  24.553  20.975 -0.01 -0.37    -0.650 OA
DOCKED: BRANCH  32  34
DOCKED: ATOM     34  O   UNL d   1      44.719  25.509  19.322 +0.10 -0.40    -0.776 OA
DOCKED: ATOM     35  H   UNL d   1      45.145  26.124  19.935 +0.05 +0.12    +0.167 HD
DOCKED: ENDBRANCH  32  34
DOCKED: ENDBRANCH  31  32
DOCKED: ENDBRANCH  30  31
DOCKED: ENDBRANCH   6  30
DOCKED: BRANCH  22  36
DOCKED: ATOM     36  C   UNL d   1      45.235  29.296  18.316 -0.22 +0.02    +0.052 C 
DOCKED: BRANCH  36  37
DOCKED: ATOM     37  C   UNL d   1      45.229  29.544  19.817 -0.18 +0.08    +0.115 C 
DOCKED: BRANCH  37  38
DOCKED: ATOM     38  C   UNL d   1      45.063  28.257  20.575 -0.10 +0.17    +0.139 C 
DOCKED: ATOM     39  O   UNL d   1      46.021  27.716  21.106 -0.39 -1.04    -0.650 OA
DOCKED: BRANCH  38  40
DOCKED: ATOM     40  O   UNL d   1      43.848  27.687  20.670 -0.14 -0.97    -0.776 OA
DOCKED: ATOM     41  H   UNL d   1      43.782  26.722  20.678 +0.05 +0.17    +0.167 HD
DOCKED: ENDBRANCH  38  40
DOCKED: ENDBRANCH  37  38
DOCKED: ENDBRANCH  36  37
DOCKED: ENDBRANCH  22  36
DOCKED: BRANCH  12  42
DOCKED: ATOM     42  C   UNL d   1      36.129  28.120  11.839 -0.69 +0.00    +0.004 C 
DOCKED: ATOM     43  C   UNL d   1      35.302  29.145  12.085 -0.61 +0.00    +0.012 C 
DOCKED: ENDBRANCH  12  42
DOCKED: BRANCH  17  44
DOCKED: ATOM     44  C   UNL d   1      39.249  34.084  16.128 -0.46 +0.00    +0.004 C 
DOCKED: ATOM     45  C   UNL d   1      39.454  35.108  15.294 -0.58 +0.00    +0.012 C 
DOCKED: ENDBRANCH  17  44
DOCKED: TORSDOF 10
DOCKED: TER
DOCKED: ENDMDL
________________________________________________________________________________


	BEGINNING GENETIC ALGORITHM DOCKING 82 of 100
Run: 82 Seed: 1703616567 781759419 [ Run 82 of 100 GA/GALS ]
Beginning LAMARCKIAN GENETIC ALGORITHM (LGA), with a maximum of 25000000 energy evaluations.

Final-Value: -17.260


	FINAL GENETIC ALGORITHM DOCKED STATE
	_______________________________________________


Detailed state:  trans 41.600 28.090 15.828 quatxyzw -0.232502 -0.132327 0.936643 -0.226125 center -0.174 -0.001 -0.047 ntor 10 167.5015 -70.8924 69.2374 -157.3420 113.4227 -135.2048 -22.3836 22.0057 172.5314 149.6592
State:	 41.600  28.090  15.828  -0.239 -0.136  0.962 -153.862    167.50  -70.89   69.24 -157.34  113.42 -135.20  -22.38   22.01  172.53  149.66

DOCKED: MODEL       82
DOCKED: USER    Run = 82
DOCKED: USER    DPF = D:/Protein_go_brrr/autodock/final/6BB5/heme_Fe/dock.dpf
DOCKED: USER  
DOCKED: USER    Estimated Free Energy of Binding    =  -12.73 kcal/mol  [=(1)+(2)+(3)-(4)]
DOCKED: USER    Estimated Inhibition Constant, Ki   =  466.88 pM (picomolar)  [Temperature = 298.15 K]
DOCKED: USER    
DOCKED: USER    (1) Final Intermolecular Energy     =  -15.71 kcal/mol
DOCKED: USER        vdW + Hbond + desolv Energy     =  -14.05 kcal/mol
DOCKED: USER        Electrostatic Energy            =   -1.66 kcal/mol
DOCKED: USER    (2) Final Total Internal Energy     =   -1.55 kcal/mol
DOCKED: USER    (3) Torsional Free Energy           =   +2.98 kcal/mol
DOCKED: USER    (4) Unbound System's Energy  [=(2)] =   -1.55 kcal/mol
DOCKED: USER    
DOCKED: USER    
DOCKED: USER    NEWDPF move heme_Fe_opt.pdbqt
DOCKED: USER    NEWDPF about -0.174000 -0.001000 -0.047000
DOCKED: USER    NEWDPF tran0 41.599913 28.089771 15.827759
DOCKED: USER    NEWDPF quaternion0 -0.232502 -0.132327 0.936643 -0.226125
DOCKED: USER    NEWDPF axisangle0 -0.238685 -0.135845 0.961549 -153.861883
DOCKED: USER    NEWDPF quat0 -0.238685 -0.135845 0.961549 -153.861883
DOCKED: USER    NEWDPF dihe0 167.50 -70.89 69.24 -157.34 113.42 -135.20 -22.38 22.01 172.53 149.66 
DOCKED: USER  keepresnum = 1 
DOCKED: USER  
DOCKED: REMARK  10 active torsions:
DOCKED: REMARK  status: ('A' for Active; 'I' for Inactive)
DOCKED: REMARK    1  A    between atoms: C_6  and  C_10 
DOCKED: REMARK    2  A    between atoms: C_10  and  C_11 
DOCKED: REMARK    3  A    between atoms: C_11  and  C_12 
DOCKED: REMARK    4  A    between atoms: C_12  and  O_14 
DOCKED: REMARK    5  A    between atoms: C_17  and  C_20 
DOCKED: REMARK    6  A    between atoms: C_24  and  C_27 
DOCKED: REMARK    7  A    between atoms: C_31  and  C_34 
DOCKED: REMARK    8  A    between atoms: C_34  and  C_35 
DOCKED: REMARK    9  A    between atoms: C_35  and  C_36 
DOCKED: REMARK   10  A    between atoms: C_36  and  O_38 
DOCKED: USER                              x       y       z     vdW  Elec       q    Type
DOCKED: USER                           _______ _______ _______ _____ _____    ______ ____
DOCKED: ROOT
DOCKED: ATOM      1  C   UNL d   1      42.922  27.104  17.049 -0.26 +0.02    +0.064 C 
DOCKED: ATOM      2  C   UNL d   1      41.338  31.772  16.684 -0.40 +0.01    +0.064 A 
DOCKED: ATOM      3  C   UNL d   1      37.713  30.253  13.924 -0.37 +0.01    +0.064 C 
DOCKED: ATOM      4  C   UNL d   1      39.289  25.743  14.177 -0.48 +0.01    +0.064 C 
DOCKED: ATOM      5  C   UNL d   1      42.860  28.569  17.133 -0.12 +0.02    +0.066 A 
DOCKED: ATOM      6  C   UNL d   1      43.806  29.366  17.757 -0.27 -0.01    -0.021 A 
DOCKED: ATOM      7  C   UNL d   1      43.364  30.662  17.659 -0.31 -0.01    -0.025 A 
DOCKED: ATOM      8  C   UNL d   1      42.163  30.606  16.978 -0.34 +0.01    +0.066 A 
DOCKED: ATOM      9  C   UNL d   1      44.070  31.878  18.175 -0.30 +0.01    +0.051 C 
DOCKED: ATOM     10  C   UNL d   1      40.206  31.753  15.980 -0.37 +0.01    +0.066 A 
DOCKED: ATOM     11  C   UNL d   1      39.378  32.866  15.813 -0.40 -0.00    -0.021 A 
DOCKED: ATOM     12  C   UNL d   1      38.317  32.450  15.034 -0.39 +0.00    +0.000 A 
DOCKED: ATOM     13  C   UNL d   1      38.550  31.089  14.770 -0.35 +0.01    +0.070 A 
DOCKED: ATOM     14  C   UNL d   1      39.555  34.242  16.423 -0.31 +0.00    +0.052 C 
DOCKED: ATOM     15  C   UNL d   1      37.904  28.930  13.709 -0.34 +0.01    +0.066 A 
DOCKED: ATOM     16  C   UNL d   1      37.142  28.189  12.814 -0.48 -0.00    -0.021 A 
DOCKED: ATOM     17  C   UNL d   1      37.593  26.887  12.888 -0.47 +0.00    +0.000 A 
DOCKED: ATOM     18  C   UNL d   1      38.618  26.864  13.831 -0.37 +0.01    +0.070 A 
DOCKED: ATOM     19  C   UNL d   1      36.017  28.677  11.942 -0.62 +0.00    +0.052 C 
DOCKED: ATOM     20  C   UNL d   1      40.413  25.692  15.118 -0.40 +0.01    +0.066 A 
DOCKED: ATOM     21  C   UNL d   1      40.984  24.520  15.635 -0.44 -0.00    -0.025 A 
DOCKED: ATOM     22  C   UNL d   1      42.025  24.930  16.441 -0.36 -0.00    -0.021 A 
DOCKED: ATOM     23  C   UNL d   1      42.046  26.329  16.390 -0.33 +0.01    +0.066 A 
DOCKED: ATOM     24  C   UNL d   1      40.575  23.085  15.393 -0.44 +0.00    +0.051 C 
DOCKED: ATOM     25  N   UNL d   1      41.864  29.333  16.651 -0.22 -0.06    -0.248 N 
DOCKED: ATOM     26  N   UNL d   1      39.696  30.661  15.354 -0.13 -0.06    -0.248 N 
DOCKED: ATOM     27  N   UNL d   1      38.840  28.127  14.304 -0.10 -0.06    -0.248 N 
DOCKED: ATOM     28  N   UNL d   1      41.032  26.789  15.617 -0.27 -0.05    -0.248 N 
DOCKED: ATOM     29 FE   UNL d   1      40.363  28.724  15.484 -0.09 +0.00    +0.000 Fe
DOCKED: ENDROOT
DOCKED: BRANCH   6  30
DOCKED: ATOM     30  C   UNL d   1      45.078  28.923  18.396 -0.22 +0.02    +0.052 C 
DOCKED: BRANCH  30  31
DOCKED: ATOM     31  C   UNL d   1      44.908  28.795  19.906 -0.22 +0.09    +0.115 C 
DOCKED: BRANCH  31  32
DOCKED: ATOM     32  C   UNL d   1      45.945  27.867  20.476 -0.13 +0.15    +0.139 C 
DOCKED: ATOM     33  O   UNL d   1      46.815  28.290  21.224 -0.57 -0.83    -0.650 OA
DOCKED: BRANCH  32  34
DOCKED: ATOM     34  O   UNL d   1      45.924  26.560  20.165 +0.04 -0.62    -0.776 OA
DOCKED: ATOM     35  H   UNL d   1      45.142  26.194  19.729 +0.06 +0.11    +0.167 HD
DOCKED: ENDBRANCH  32  34
DOCKED: ENDBRANCH  31  32
DOCKED: ENDBRANCH  30  31
DOCKED: ENDBRANCH   6  30
DOCKED: BRANCH  22  36
DOCKED: ATOM     36  C   UNL d   1      42.918  24.029  17.253 -0.36 +0.01    +0.052 C 
DOCKED: BRANCH  36  37
DOCKED: ATOM     37  C   UNL d   1      42.678  24.269  18.736 -0.37 +0.03    +0.115 C 
DOCKED: BRANCH  37  38
DOCKED: ATOM     38  C   UNL d   1      43.850  23.806  19.554 -0.26 +0.06    +0.139 C 
DOCKED: ATOM     39  O   UNL d   1      43.682  23.157  20.576 -0.39 -0.33    -0.650 OA
DOCKED: BRANCH  38  40
DOCKED: ATOM     40  O   UNL d   1      45.102  24.107  19.163 +0.08 -0.35    -0.776 OA
DOCKED: ATOM     41  H   UNL d   1      45.609  24.756  19.671 +0.05 +0.09    +0.167 HD
DOCKED: ENDBRANCH  38  40
DOCKED: ENDBRANCH  37  38
DOCKED: ENDBRANCH  36  37
DOCKED: ENDBRANCH  22  36
DOCKED: BRANCH  12  42
DOCKED: ATOM     42  C   UNL d   1      37.174  33.317  14.611 -0.48 +0.00    +0.004 C 
DOCKED: ATOM     43  C   UNL d   1      36.949  33.579  13.317 -0.51 +0.00    +0.012 C 
DOCKED: ENDBRANCH  12  42
DOCKED: BRANCH  17  44
DOCKED: ATOM     44  C   UNL d   1      37.089  25.744  12.094 -0.38 +0.00    +0.004 C 
DOCKED: ATOM     45  C   UNL d   1      36.275  24.836  12.641 -0.68 +0.00    +0.012 C 
DOCKED: ENDBRANCH  17  44
DOCKED: TORSDOF 10
DOCKED: TER
DOCKED: ENDMDL
________________________________________________________________________________


	BEGINNING GENETIC ALGORITHM DOCKING 83 of 100
Run: 83 Seed: 502274437 999586662 [ Run 83 of 100 GA/GALS ]
Beginning LAMARCKIAN GENETIC ALGORITHM (LGA), with a maximum of 25000000 energy evaluations.

Final-Value: -16.680


	FINAL GENETIC ALGORITHM DOCKED STATE
	_______________________________________________


Detailed state:  trans 41.808 28.165 15.894 quatxyzw -0.213828 -0.119349 0.950644 -0.190552 center -0.174 -0.001 -0.047 ntor 10 179.9792 -124.9966 65.4279 -149.8338 98.0226 7.9135 82.4932 43.7138 -119.0190 25.0469
State:	 41.808  28.165  15.894  -0.218 -0.122  0.968 -158.030    179.98 -125.00   65.43 -149.83   98.02    7.91   82.49   43.71 -119.02   25.05

DOCKED: MODEL       83
DOCKED: USER    Run = 83
DOCKED: USER    DPF = D:/Protein_go_brrr/autodock/final/6BB5/heme_Fe/dock.dpf
DOCKED: USER  
DOCKED: USER    Estimated Free Energy of Binding    =  -13.37 kcal/mol  [=(1)+(2)+(3)-(4)]
DOCKED: USER    Estimated Inhibition Constant, Ki   =  158.12 pM (picomolar)  [Temperature = 298.15 K]
DOCKED: USER    
DOCKED: USER    (1) Final Intermolecular Energy     =  -16.35 kcal/mol
DOCKED: USER        vdW + Hbond + desolv Energy     =  -13.62 kcal/mol
DOCKED: USER        Electrostatic Energy            =   -2.73 kcal/mol
DOCKED: USER    (2) Final Total Internal Energy     =   -0.33 kcal/mol
DOCKED: USER    (3) Torsional Free Energy           =   +2.98 kcal/mol
DOCKED: USER    (4) Unbound System's Energy  [=(2)] =   -0.33 kcal/mol
DOCKED: USER    
DOCKED: USER    
DOCKED: USER    NEWDPF move heme_Fe_opt.pdbqt
DOCKED: USER    NEWDPF about -0.174000 -0.001000 -0.047000
DOCKED: USER    NEWDPF tran0 41.808462 28.165182 15.893986
DOCKED: USER    NEWDPF quaternion0 -0.213828 -0.119349 0.950644 -0.190552
DOCKED: USER    NEWDPF axisangle0 -0.217819 -0.121577 0.968387 -158.029984
DOCKED: USER    NEWDPF quat0 -0.217819 -0.121577 0.968387 -158.029984
DOCKED: USER    NEWDPF dihe0 179.98 -125.00 65.43 -149.83 98.02 7.91 82.49 43.71 -119.02 25.05 
DOCKED: USER  keepresnum = 1 
DOCKED: USER  
DOCKED: REMARK  10 active torsions:
DOCKED: REMARK  status: ('A' for Active; 'I' for Inactive)
DOCKED: REMARK    1  A    between atoms: C_6  and  C_10 
DOCKED: REMARK    2  A    between atoms: C_10  and  C_11 
DOCKED: REMARK    3  A    between atoms: C_11  and  C_12 
DOCKED: REMARK    4  A    between atoms: C_12  and  O_14 
DOCKED: REMARK    5  A    between atoms: C_17  and  C_20 
DOCKED: REMARK    6  A    between atoms: C_24  and  C_27 
DOCKED: REMARK    7  A    between atoms: C_31  and  C_34 
DOCKED: REMARK    8  A    between atoms: C_34  and  C_35 
DOCKED: REMARK    9  A    between atoms: C_35  and  C_36 
DOCKED: REMARK   10  A    between atoms: C_36  and  O_38 
DOCKED: USER                              x       y       z     vdW  Elec       q    Type
DOCKED: USER                           _______ _______ _______ _____ _____    ______ ____
DOCKED: ROOT
DOCKED: ATOM      1  C   UNL d   1      43.242  27.322  17.096 -0.27 +0.02    +0.064 C 
DOCKED: ATOM      2  C   UNL d   1      41.312  31.849  16.632 -0.40 +0.01    +0.064 A 
DOCKED: ATOM      3  C   UNL d   1      37.708  29.974  14.070 -0.36 +0.01    +0.064 C 
DOCKED: ATOM      4  C   UNL d   1      39.615  25.600  14.417 -0.48 +0.01    +0.064 C 
DOCKED: ATOM      5  C   UNL d   1      43.078  28.782  17.132 -0.24 +0.02    +0.066 A 
DOCKED: ATOM      6  C   UNL d   1      43.986  29.666  17.690 -0.28 -0.01    -0.021 A 
DOCKED: ATOM      7  C   UNL d   1      43.447  30.923  17.564 -0.29 -0.01    -0.025 A 
DOCKED: ATOM      8  C   UNL d   1      42.230  30.757  16.933 -0.34 +0.01    +0.066 A 
DOCKED: ATOM      9  C   UNL d   1      44.082  32.204  18.010 -0.27 +0.01    +0.051 C 
DOCKED: ATOM     10  C   UNL d   1      40.159  31.723  15.973 -0.37 +0.01    +0.066 A 
DOCKED: ATOM     11  C   UNL d   1      39.247  32.768  15.800 -0.38 -0.00    -0.021 A 
DOCKED: ATOM     12  C   UNL d   1      38.191  32.248  15.079 -0.38 +0.00    +0.000 A 
DOCKED: ATOM     13  C   UNL d   1      38.512  30.898  14.854 -0.34 +0.01    +0.070 A 
DOCKED: ATOM     14  C   UNL d   1      39.346  34.174  16.355 -0.31 +0.00    +0.052 C 
DOCKED: ATOM     15  C   UNL d   1      37.987  28.661  13.894 -0.33 +0.01    +0.066 A 
DOCKED: ATOM     16  C   UNL d   1      37.248  27.834  13.056 -0.46 -0.00    -0.021 A 
DOCKED: ATOM     17  C   UNL d   1      37.794  26.571  13.157 -0.45 +0.00    +0.000 A 
DOCKED: ATOM     18  C   UNL d   1      38.852  26.657  14.059 -0.37 +0.01    +0.070 A 
DOCKED: ATOM     19  C   UNL d   1      36.060  28.208  12.212 -0.64 +0.00    +0.052 C 
DOCKED: ATOM     20  C   UNL d   1      40.774  25.664  15.315 -0.40 +0.01    +0.066 A 
DOCKED: ATOM     21  C   UNL d   1      41.446  24.556  15.850 -0.41 -0.00    -0.025 A 
DOCKED: ATOM     22  C   UNL d   1      42.484  25.069  16.600 -0.33 -0.00    -0.021 A 
DOCKED: ATOM     23  C   UNL d   1      42.401  26.463  16.499 -0.31 +0.01    +0.066 A 
DOCKED: ATOM     24  C   UNL d   1      41.133  23.088  15.674 -0.52 +0.00    +0.051 C 
DOCKED: ATOM     25  N   UNL d   1      42.012  29.454  16.663 -0.22 -0.05    -0.248 N 
DOCKED: ATOM     26  N   UNL d   1      39.707  30.575  15.406 -0.11 -0.06    -0.248 N 
DOCKED: ATOM     27  N   UNL d   1      38.999  27.949  14.479 -0.14 -0.06    -0.248 N 
DOCKED: ATOM     28  N   UNL d   1      41.329  26.821  15.750 -0.26 -0.05    -0.248 N 
DOCKED: ATOM     29 FE   UNL d   1      40.517  28.696  15.578 -0.09 +0.00    +0.000 Fe
DOCKED: ENDROOT
DOCKED: BRANCH   6  30
DOCKED: ATOM     30  C   UNL d   1      45.309  29.339  18.294 -0.22 +0.02    +0.052 C 
DOCKED: BRANCH  30  31
DOCKED: ATOM     31  C   UNL d   1      45.295  27.940  18.900 -0.17 +0.06    +0.115 C 
DOCKED: BRANCH  31  32
DOCKED: ATOM     32  C   UNL d   1      45.039  28.011  20.380 -0.15 +0.15    +0.139 C 
DOCKED: ATOM     33  O   UNL d   1      43.916  27.830  20.828 -0.17 -0.91    -0.650 OA
DOCKED: BRANCH  32  34
DOCKED: ATOM     34  O   UNL d   1      46.049  28.275  21.227 -0.40 -1.33    -0.776 OA
DOCKED: ATOM     35  H   UNL d   1      46.937  28.417  20.870 +0.02 +0.17    +0.167 HD
DOCKED: ENDBRANCH  32  34
DOCKED: ENDBRANCH  31  32
DOCKED: ENDBRANCH  30  31
DOCKED: ENDBRANCH   6  30
DOCKED: BRANCH  22  36
DOCKED: ATOM     36  C   UNL d   1      43.468  24.265  17.407 -0.31 +0.02    +0.052 C 
DOCKED: BRANCH  36  37
DOCKED: ATOM     37  C   UNL d   1      44.884  24.563  16.935 -0.19 +0.05    +0.115 C 
DOCKED: BRANCH  37  38
DOCKED: ATOM     38  C   UNL d   1      45.695  23.303  16.833 -0.15 +0.08    +0.139 C 
DOCKED: ATOM     39  O   UNL d   1      45.170  22.208  16.972 +0.02 -0.32    -0.650 OA
DOCKED: BRANCH  38  40
DOCKED: ATOM     40  O   UNL d   1      47.016  23.372  16.589 -0.12 -0.79    -0.776 OA
DOCKED: ATOM     41  H   UNL d   1      47.574  23.909  17.170 +0.04 +0.15    +0.167 HD
DOCKED: ENDBRANCH  38  40
DOCKED: ENDBRANCH  37  38
DOCKED: ENDBRANCH  36  37
DOCKED: ENDBRANCH  22  36
DOCKED: BRANCH  12  42
DOCKED: ATOM     42  C   UNL d   1      36.974  33.016  14.671 -0.43 +0.00    +0.004 C 
DOCKED: ATOM     43  C   UNL d   1      36.723  33.277  13.382 -0.50 +0.00    +0.012 C 
DOCKED: ENDBRANCH  12  42
DOCKED: BRANCH  17  44
DOCKED: ATOM     44  C   UNL d   1      37.346  25.367  12.423 -0.47 +0.00    +0.004 C 
DOCKED: ATOM     45  C   UNL d   1      36.499  24.498  12.985 -0.69 +0.00    +0.012 C 
DOCKED: ENDBRANCH  17  44
DOCKED: TORSDOF 10
DOCKED: TER
DOCKED: ENDMDL
________________________________________________________________________________


	BEGINNING GENETIC ALGORITHM DOCKING 84 of 100
Run: 84 Seed: 1945075999 1432059970 [ Run 84 of 100 GA/GALS ]
Beginning LAMARCKIAN GENETIC ALGORITHM (LGA), with a maximum of 25000000 energy evaluations.

Final-Value: -8.969


	FINAL GENETIC ALGORITHM DOCKED STATE
	_______________________________________________


Detailed state:  trans 0.437 31.660 8.454 quatxyzw 0.237527 -0.660838 -0.368496 -0.609167 center -0.174 -0.001 -0.047 ntor 10 112.5697 139.6873 46.2646 -144.6273 88.9578 -41.4696 -4.8272 3.6356 -179.2170 130.7889
State:	  0.437  31.660   8.454   0.300 -0.833 -0.465 -104.941    112.57  139.69   46.26 -144.63   88.96  -41.47   -4.83    3.64 -179.22  130.79

DOCKED: MODEL       84
DOCKED: USER    Run = 84
DOCKED: USER    DPF = D:/Protein_go_brrr/autodock/final/6BB5/heme_Fe/dock.dpf
DOCKED: USER  
DOCKED: USER    Estimated Free Energy of Binding    =   -4.48 kcal/mol  [=(1)+(2)+(3)-(4)]
DOCKED: USER    Estimated Inhibition Constant, Ki   =  521.19 uM (micromolar)  [Temperature = 298.15 K]
DOCKED: USER    
DOCKED: USER    (1) Final Intermolecular Energy     =   -7.46 kcal/mol
DOCKED: USER        vdW + Hbond + desolv Energy     =   -6.42 kcal/mol
DOCKED: USER        Electrostatic Energy            =   -1.04 kcal/mol
DOCKED: USER    (2) Final Total Internal Energy     =   -1.51 kcal/mol
DOCKED: USER    (3) Torsional Free Energy           =   +2.98 kcal/mol
DOCKED: USER    (4) Unbound System's Energy  [=(2)] =   -1.51 kcal/mol
DOCKED: USER    
DOCKED: USER    
DOCKED: USER    NEWDPF move heme_Fe_opt.pdbqt
DOCKED: USER    NEWDPF about -0.174000 -0.001000 -0.047000
DOCKED: USER    NEWDPF tran0 0.437465 31.659975 8.454237
DOCKED: USER    NEWDPF quaternion0 0.237527 -0.660838 -0.368496 -0.609167
DOCKED: USER    NEWDPF axisangle0 0.299514 -0.833295 -0.464661 -104.941403
DOCKED: USER    NEWDPF quat0 0.299514 -0.833295 -0.464661 -104.941403
DOCKED: USER    NEWDPF dihe0 112.57 139.69 46.26 -144.63 88.96 -41.47 -4.83 3.64 -179.22 130.79 
DOCKED: USER  keepresnum = 1 
DOCKED: USER  
DOCKED: REMARK  10 active torsions:
DOCKED: REMARK  status: ('A' for Active; 'I' for Inactive)
DOCKED: REMARK    1  A    between atoms: C_6  and  C_10 
DOCKED: REMARK    2  A    between atoms: C_10  and  C_11 
DOCKED: REMARK    3  A    between atoms: C_11  and  C_12 
DOCKED: REMARK    4  A    between atoms: C_12  and  O_14 
DOCKED: REMARK    5  A    between atoms: C_17  and  C_20 
DOCKED: REMARK    6  A    between atoms: C_24  and  C_27 
DOCKED: REMARK    7  A    between atoms: C_31  and  C_34 
DOCKED: REMARK    8  A    between atoms: C_34  and  C_35 
DOCKED: REMARK    9  A    between atoms: C_35  and  C_36 
DOCKED: REMARK   10  A    between atoms: C_36  and  O_38 
DOCKED: USER                              x       y       z     vdW  Elec       q    Type
DOCKED: USER                           _______ _______ _______ _____ _____    ______ ____
DOCKED: ROOT
DOCKED: ATOM      1  C   UNL d   1       0.195  33.240   7.168 -0.25 +0.01    +0.064 C 
DOCKED: ATOM      2  C   UNL d   1      -0.593  28.369   6.884 -0.15 -0.03    +0.064 A 
DOCKED: ATOM      3  C   UNL d   1      -0.220  28.100  11.665 -0.19 -0.01    +0.064 C 
DOCKED: ATOM      4  C   UNL d   1       0.649  32.796  11.953 -0.28 +0.00    +0.064 C 
DOCKED: ATOM      5  C   UNL d   1       0.022  31.881   6.637 -0.17 -0.00    +0.066 A 
DOCKED: ATOM      6  C   UNL d   1      -0.014  31.556   5.291 -0.16 +0.00    -0.021 A 
DOCKED: ATOM      7  C   UNL d   1      -0.236  30.203   5.213 -0.11 +0.00    -0.025 A 
DOCKED: ATOM      8  C   UNL d   1      -0.328  29.754   6.517 -0.14 -0.02    +0.066 A 
DOCKED: ATOM      9  C   UNL d   1      -0.334  29.395   3.956 -0.08 -0.01    +0.051 C 
DOCKED: ATOM     10  C   UNL d   1      -0.629  27.899   8.132 -0.16 -0.04    +0.066 A 
DOCKED: ATOM     11  C   UNL d   1      -0.999  26.592   8.458 -0.07 +0.02    -0.021 A 
DOCKED: ATOM     12  C   UNL d   1      -0.916  26.493   9.832 -0.20 -0.00    +0.000 A 
DOCKED: ATOM     13  C   UNL d   1      -0.504  27.761  10.280 -0.18 -0.02    +0.070 A 
DOCKED: ATOM     14  C   UNL d   1      -1.474  25.508   7.511 +0.01 -0.06    +0.052 C 
DOCKED: ATOM     15  C   UNL d   1       0.126  29.332  12.107 -0.10 -0.00    +0.066 A 
DOCKED: ATOM     16  C   UNL d   1       0.486  29.593  13.423 -0.13 -0.00    -0.021 A 
DOCKED: ATOM     17  C   UNL d   1       0.734  30.948  13.509 -0.17 +0.00    +0.000 A 
DOCKED: ATOM     18  C   UNL d   1       0.515  31.483  12.241 -0.19 +0.00    +0.070 A 
DOCKED: ATOM     19  C   UNL d   1       0.570  28.614  14.563 -0.15 -0.00    +0.052 C 
DOCKED: ATOM     20  C   UNL d   1       0.487  33.385  10.618 -0.21 +0.00    +0.066 A 
DOCKED: ATOM     21  C   UNL d   1       0.426  34.758  10.341 -0.32 -0.00    -0.025 A 
DOCKED: ATOM     22  C   UNL d   1       0.309  34.862   8.971 -0.33 -0.00    -0.021 A 
DOCKED: ATOM     23  C   UNL d   1       0.298  33.556   8.468 -0.11 +0.01    +0.066 A 
DOCKED: ATOM     24  C   UNL d   1       0.469  35.919  11.309 -0.38 +0.00    +0.051 C 
DOCKED: ATOM     25  N   UNL d   1      -0.161  30.775   7.380 -0.10 +0.03    -0.248 N 
DOCKED: ATOM     26  N   UNL d   1      -0.338  28.621   9.245 -0.14 +0.08    -0.248 N 
DOCKED: ATOM     27  N   UNL d   1       0.184  30.484  11.369 -0.12 +0.01    -0.248 N 
DOCKED: ATOM     28  N   UNL d   1       0.361  32.658   9.482 +0.03 -0.02    -0.248 N 
DOCKED: ATOM     29 FE   UNL d   1       0.012  30.641   9.365 -0.05 -0.00    +0.000 Fe
DOCKED: ENDROOT
DOCKED: BRANCH   6  30
DOCKED: ATOM     30  C   UNL d   1       0.176  32.478   4.136 -0.18 +0.00    +0.052 C 
DOCKED: BRANCH  30  31
DOCKED: ATOM     31  C   UNL d   1      -1.158  33.068   3.692 -0.08 +0.01    +0.115 C 
DOCKED: BRANCH  31  32
DOCKED: ATOM     32  C   UNL d   1      -0.948  34.085   2.604 -0.10 +0.03    +0.139 C 
DOCKED: ATOM     33  O   UNL d   1      -0.934  33.746   1.429 +0.00 -0.13    -0.650 OA
DOCKED: BRANCH  32  34
DOCKED: ATOM     34  O   UNL d   1      -0.772  35.380   2.915 +0.02 -0.36    -0.776 OA
DOCKED: ATOM     35  H   UNL d   1      -1.511  35.875   3.297 +0.02 +0.08    +0.167 HD
DOCKED: ENDBRANCH  32  34
DOCKED: ENDBRANCH  31  32
DOCKED: ENDBRANCH  30  31
DOCKED: ENDBRANCH   6  30
DOCKED: BRANCH  22  36
DOCKED: ATOM     36  C   UNL d   1       0.167  36.145   8.195 -0.17 +0.01    +0.052 C 
DOCKED: BRANCH  36  37
DOCKED: ATOM     37  C   UNL d   1      -0.975  36.018   7.197 -0.24 +0.04    +0.115 C 
DOCKED: BRANCH  37  38
DOCKED: ATOM     38  C   UNL d   1      -1.099  37.259   6.359 -0.25 +0.06    +0.139 C 
DOCKED: ATOM     39  O   UNL d   1      -0.982  38.367   6.861 -0.04 -0.41    -0.650 OA
DOCKED: BRANCH  38  40
DOCKED: ATOM     40  O   UNL d   1      -1.344  37.156   5.040 +0.04 -0.39    -0.776 OA
DOCKED: ATOM     41  H   UNL d   1      -0.896  36.467   4.531 +0.04 +0.09    +0.167 HD
DOCKED: ENDBRANCH  38  40
DOCKED: ENDBRANCH  37  38
DOCKED: ENDBRANCH  36  37
DOCKED: ENDBRANCH  22  36
DOCKED: BRANCH  12  42
DOCKED: ATOM     42  C   UNL d   1      -1.234  25.265  10.624 -0.22 -0.00    +0.004 C 
DOCKED: ATOM     43  C   UNL d   1      -0.272  24.398  10.968 -0.33 -0.01    +0.012 C 
DOCKED: ENDBRANCH  12  42
DOCKED: BRANCH  17  44
DOCKED: ATOM     44  C   UNL d   1       1.172  31.678  14.720 -0.20 +0.00    +0.004 C 
DOCKED: ATOM     45  C   UNL d   1       0.278  32.213  15.557 -0.16 -0.00    +0.012 C 
DOCKED: ENDBRANCH  17  44
DOCKED: TORSDOF 10
DOCKED: TER
DOCKED: ENDMDL
________________________________________________________________________________


	BEGINNING GENETIC ALGORITHM DOCKING 85 of 100
Run: 85 Seed: 891117785 1471633119 [ Run 85 of 100 GA/GALS ]
Beginning LAMARCKIAN GENETIC ALGORITHM (LGA), with a maximum of 25000000 energy evaluations.

Final-Value: -17.465


	FINAL GENETIC ALGORITHM DOCKED STATE
	_______________________________________________


Detailed state:  trans 41.218 28.444 16.531 quatxyzw -0.151054 -0.926358 -0.079942 0.335638 center -0.174 -0.001 -0.047 ntor 10 31.8564 -66.7831 80.0806 -119.9911 -141.1469 99.0459 -74.7365 -69.4542 -163.9313 -14.7323
State:	 41.218  28.444  16.531  -0.160 -0.983 -0.085 140.777     31.86  -66.78   80.08 -119.99 -141.15   99.05  -74.74  -69.45 -163.93  -14.73

DOCKED: MODEL       85
DOCKED: USER    Run = 85
DOCKED: USER    DPF = D:/Protein_go_brrr/autodock/final/6BB5/heme_Fe/dock.dpf
DOCKED: USER  
DOCKED: USER    Estimated Free Energy of Binding    =  -12.31 kcal/mol  [=(1)+(2)+(3)-(4)]
DOCKED: USER    Estimated Inhibition Constant, Ki   =  942.49 pM (picomolar)  [Temperature = 298.15 K]
DOCKED: USER    
DOCKED: USER    (1) Final Intermolecular Energy     =  -15.30 kcal/mol
DOCKED: USER        vdW + Hbond + desolv Energy     =  -13.35 kcal/mol
DOCKED: USER        Electrostatic Energy            =   -1.95 kcal/mol
DOCKED: USER    (2) Final Total Internal Energy     =   -2.17 kcal/mol
DOCKED: USER    (3) Torsional Free Energy           =   +2.98 kcal/mol
DOCKED: USER    (4) Unbound System's Energy  [=(2)] =   -2.17 kcal/mol
DOCKED: USER    
DOCKED: USER    
DOCKED: USER    NEWDPF move heme_Fe_opt.pdbqt
DOCKED: USER    NEWDPF about -0.174000 -0.001000 -0.047000
DOCKED: USER    NEWDPF tran0 41.218250 28.443649 16.531279
DOCKED: USER    NEWDPF quaternion0 -0.151054 -0.926358 -0.079942 0.335638
DOCKED: USER    NEWDPF axisangle0 -0.160356 -0.983404 -0.084865 140.777339
DOCKED: USER    NEWDPF quat0 -0.160356 -0.983404 -0.084865 140.777339
DOCKED: USER    NEWDPF dihe0 31.86 -66.78 80.08 -119.99 -141.15 99.05 -74.74 -69.45 -163.93 -14.73 
DOCKED: USER  keepresnum = 1 
DOCKED: USER  
DOCKED: REMARK  10 active torsions:
DOCKED: REMARK  status: ('A' for Active; 'I' for Inactive)
DOCKED: REMARK    1  A    between atoms: C_6  and  C_10 
DOCKED: REMARK    2  A    between atoms: C_10  and  C_11 
DOCKED: REMARK    3  A    between atoms: C_11  and  C_12 
DOCKED: REMARK    4  A    between atoms: C_12  and  O_14 
DOCKED: REMARK    5  A    between atoms: C_17  and  C_20 
DOCKED: REMARK    6  A    between atoms: C_24  and  C_27 
DOCKED: REMARK    7  A    between atoms: C_31  and  C_34 
DOCKED: REMARK    8  A    between atoms: C_34  and  C_35 
DOCKED: REMARK    9  A    between atoms: C_35  and  C_36 
DOCKED: REMARK   10  A    between atoms: C_36  and  O_38 
DOCKED: USER                              x       y       z     vdW  Elec       q    Type
DOCKED: USER                           _______ _______ _______ _____ _____    ______ ____
DOCKED: ROOT
DOCKED: ATOM      1  C   UNL d   1      42.993  27.752  17.295 -0.17 +0.02    +0.064 C 
DOCKED: ATOM      2  C   UNL d   1      39.453  25.830  14.431 -0.40 +0.01    +0.064 A 
DOCKED: ATOM      3  C   UNL d   1      37.732  30.256  13.707 -0.40 +0.01    +0.064 C 
DOCKED: ATOM      4  C   UNL d   1      41.086  32.125  16.560 -0.48 +0.01    +0.064 C 
DOCKED: ATOM      5  C   UNL d   1      42.106  26.792  16.624 -0.28 +0.01    +0.066 A 
DOCKED: ATOM      6  C   UNL d   1      42.226  25.415  16.704 -0.35 -0.00    -0.021 A 
DOCKED: ATOM      7  C   UNL d   1      41.245  24.882  15.905 -0.40 -0.00    -0.025 A 
DOCKED: ATOM      8  C   UNL d   1      40.563  25.956  15.367 -0.39 +0.01    +0.066 A 
DOCKED: ATOM      9  C   UNL d   1      40.974  23.424  15.692 -0.52 +0.00    +0.051 C 
DOCKED: ATOM     10  C   UNL d   1      38.741  26.848  13.942 -0.37 +0.01    +0.066 A 
DOCKED: ATOM     11  C   UNL d   1      37.759  26.705  12.959 -0.44 -0.00    -0.021 A 
DOCKED: ATOM     12  C   UNL d   1      37.259  27.969  12.720 -0.50 +0.00    +0.000 A 
DOCKED: ATOM     13  C   UNL d   1      37.975  28.828  13.573 -0.33 +0.01    +0.070 A 
DOCKED: ATOM     14  C   UNL d   1      37.364  25.435  12.232 -0.30 +0.01    +0.052 C 
DOCKED: ATOM     15  C   UNL d   1      38.453  31.095  14.487 -0.36 +0.01    +0.066 A 
DOCKED: ATOM     16  C   UNL d   1      38.127  32.434  14.664 -0.38 -0.00    -0.021 A 
DOCKED: ATOM     17  C   UNL d   1      39.095  32.976  15.484 -0.42 +0.00    +0.000 A 
DOCKED: ATOM     18  C   UNL d   1      39.993  31.954  15.785 -0.36 +0.01    +0.070 A 
DOCKED: ATOM     19  C   UNL d   1      36.967  33.183  14.067 -0.43 +0.00    +0.052 C 
DOCKED: ATOM     20  C   UNL d   1      42.019  31.060  16.948 -0.36 +0.01    +0.066 A 
DOCKED: ATOM     21  C   UNL d   1      43.256  31.257  17.578 -0.29 -0.01    -0.025 A 
DOCKED: ATOM     22  C   UNL d   1      43.776  29.997  17.790 -0.29 -0.01    -0.021 A 
DOCKED: ATOM     23  C   UNL d   1      42.844  29.086  17.277 -0.18 +0.02    +0.066 A 
DOCKED: ATOM     24  C   UNL d   1      43.923  32.557  17.961 -0.30 +0.01    +0.051 C 
DOCKED: ATOM     25  N   UNL d   1      41.083  27.117  15.814 -0.26 -0.05    -0.248 N 
DOCKED: ATOM     26  N   UNL d   1      38.885  28.146  14.311 -0.08 -0.06    -0.248 N 
DOCKED: ATOM     27  N   UNL d   1      39.575  30.787  15.209 -0.10 -0.05    -0.248 N 
DOCKED: ATOM     28  N   UNL d   1      41.795  29.743  16.725 -0.22 -0.05    -0.248 N 
DOCKED: ATOM     29 FE   UNL d   1      40.340  28.946  15.519 -0.09 +0.00    +0.000 Fe
DOCKED: ENDROOT
DOCKED: BRANCH   6  30
DOCKED: ATOM     30  C   UNL d   1      43.209  24.641  17.514 -0.32 +0.01    +0.052 C 
DOCKED: BRANCH  30  31
DOCKED: ATOM     31  C   UNL d   1      44.595  24.697  16.881 -0.20 +0.04    +0.115 C 
DOCKED: BRANCH  31  32
DOCKED: ATOM     32  C   UNL d   1      45.491  25.621  17.658 -0.17 +0.06    +0.139 C 
DOCKED: ATOM     33  O   UNL d   1      46.283  26.352  17.081 +0.02 -0.27    -0.650 OA
DOCKED: BRANCH  32  34
DOCKED: ATOM     34  O   UNL d   1      45.429  25.650  19.000 +0.10 -0.39    -0.776 OA
DOCKED: ATOM     35  H   UNL d   1      45.611  26.482  19.460 +0.05 +0.10    +0.167 HD
DOCKED: ENDBRANCH  32  34
DOCKED: ENDBRANCH  31  32
DOCKED: ENDBRANCH  30  31
DOCKED: ENDBRANCH   6  30
DOCKED: BRANCH  22  36
DOCKED: ATOM     36  C   UNL d   1      45.116  29.690  18.406 -0.24 +0.02    +0.052 C 
DOCKED: BRANCH  36  37
DOCKED: ATOM     37  C   UNL d   1      45.007  29.739  19.922 -0.14 +0.08    +0.115 C 
DOCKED: BRANCH  37  38
DOCKED: ATOM     38  C   UNL d   1      45.125  28.363  20.515 -0.08 +0.16    +0.139 C 
DOCKED: ATOM     39  O   UNL d   1      46.184  27.972  20.982 -0.40 -0.93    -0.650 OA
DOCKED: BRANCH  38  40
DOCKED: ATOM     40  O   UNL d   1      44.057  27.546  20.533 -0.11 -0.88    -0.776 OA
DOCKED: ATOM     41  H   UNL d   1      44.069  26.745  19.990 +0.06 +0.13    +0.167 HD
DOCKED: ENDBRANCH  38  40
DOCKED: ENDBRANCH  37  38
DOCKED: ENDBRANCH  36  37
DOCKED: ENDBRANCH  22  36
DOCKED: BRANCH  12  42
DOCKED: ATOM     42  C   UNL d   1      36.189  28.293  11.727 -0.69 +0.00    +0.004 C 
DOCKED: ATOM     43  C   UNL d   1      35.106  28.996  12.086 -0.62 +0.00    +0.012 C 
DOCKED: ENDBRANCH  12  42
DOCKED: BRANCH  17  44
DOCKED: ATOM     44  C   UNL d   1      39.146  34.375  15.965 -0.57 +0.00    +0.004 C 
DOCKED: ATOM     45  C   UNL d   1      39.344  35.385  15.112 -0.60 +0.00    +0.012 C 
DOCKED: ENDBRANCH  17  44
DOCKED: TORSDOF 10
DOCKED: TER
DOCKED: ENDMDL
________________________________________________________________________________


	BEGINNING GENETIC ALGORITHM DOCKING 86 of 100
Run: 86 Seed: 1059378636 2102758450 [ Run 86 of 100 GA/GALS ]
Beginning LAMARCKIAN GENETIC ALGORITHM (LGA), with a maximum of 25000000 energy evaluations.

Final-Value: -17.652


	FINAL GENETIC ALGORITHM DOCKED STATE
	_______________________________________________


Detailed state:  trans 41.775 28.218 15.942 quatxyzw -0.224093 -0.105309 0.950552 -0.187465 center -0.174 -0.001 -0.047 ntor 10 -54.8171 159.3736 65.3936 -143.1889 -19.7312 -39.0441 -47.2299 -19.2494 -166.4873 118.7998
State:	 41.775  28.218  15.942  -0.228 -0.107  0.968 -158.390    -54.82  159.37   65.39 -143.19  -19.73  -39.04  -47.23  -19.25 -166.49  118.80

DOCKED: MODEL       86
DOCKED: USER    Run = 86
DOCKED: USER    DPF = D:/Protein_go_brrr/autodock/final/6BB5/heme_Fe/dock.dpf
DOCKED: USER  
DOCKED: USER    Estimated Free Energy of Binding    =  -12.72 kcal/mol  [=(1)+(2)+(3)-(4)]
DOCKED: USER    Estimated Inhibition Constant, Ki   =  470.48 pM (picomolar)  [Temperature = 298.15 K]
DOCKED: USER    
DOCKED: USER    (1) Final Intermolecular Energy     =  -15.71 kcal/mol
DOCKED: USER        vdW + Hbond + desolv Energy     =  -13.99 kcal/mol
DOCKED: USER        Electrostatic Energy            =   -1.72 kcal/mol
DOCKED: USER    (2) Final Total Internal Energy     =   -1.94 kcal/mol
DOCKED: USER    (3) Torsional Free Energy           =   +2.98 kcal/mol
DOCKED: USER    (4) Unbound System's Energy  [=(2)] =   -1.94 kcal/mol
DOCKED: USER    
DOCKED: USER    
DOCKED: USER    NEWDPF move heme_Fe_opt.pdbqt
DOCKED: USER    NEWDPF about -0.174000 -0.001000 -0.047000
DOCKED: USER    NEWDPF tran0 41.775364 28.218439 15.941556
DOCKED: USER    NEWDPF quaternion0 -0.224093 -0.105309 0.950552 -0.187465
DOCKED: USER    NEWDPF axisangle0 -0.228138 -0.107210 0.967708 -158.390213
DOCKED: USER    NEWDPF quat0 -0.228138 -0.107210 0.967708 -158.390213
DOCKED: USER    NEWDPF dihe0 -54.82 159.37 65.39 -143.19 -19.73 -39.04 -47.23 -19.25 -166.49 118.80 
DOCKED: USER  keepresnum = 1 
DOCKED: USER  
DOCKED: REMARK  10 active torsions:
DOCKED: REMARK  status: ('A' for Active; 'I' for Inactive)
DOCKED: REMARK    1  A    between atoms: C_6  and  C_10 
DOCKED: REMARK    2  A    between atoms: C_10  and  C_11 
DOCKED: REMARK    3  A    between atoms: C_11  and  C_12 
DOCKED: REMARK    4  A    between atoms: C_12  and  O_14 
DOCKED: REMARK    5  A    between atoms: C_17  and  C_20 
DOCKED: REMARK    6  A    between atoms: C_24  and  C_27 
DOCKED: REMARK    7  A    between atoms: C_31  and  C_34 
DOCKED: REMARK    8  A    between atoms: C_34  and  C_35 
DOCKED: REMARK    9  A    between atoms: C_35  and  C_36 
DOCKED: REMARK   10  A    between atoms: C_36  and  O_38 
DOCKED: USER                              x       y       z     vdW  Elec       q    Type
DOCKED: USER                           _______ _______ _______ _____ _____    ______ ____
DOCKED: ROOT
DOCKED: ATOM      1  C   UNL d   1      43.189  27.411  17.191 -0.24 +0.02    +0.064 C 
DOCKED: ATOM      2  C   UNL d   1      41.279  31.925  16.554 -0.40 +0.01    +0.064 A 
DOCKED: ATOM      3  C   UNL d   1      37.708  29.978  13.999 -0.36 +0.01    +0.064 C 
DOCKED: ATOM      4  C   UNL d   1      39.596  25.613  14.515 -0.47 +0.01    +0.064 C 
DOCKED: ATOM      5  C   UNL d   1      43.028  28.871  17.178 -0.23 +0.02    +0.066 A 
DOCKED: ATOM      6  C   UNL d   1      43.930  29.771  17.721 -0.28 -0.01    -0.021 A 
DOCKED: ATOM      7  C   UNL d   1      43.397  31.024  17.547 -0.28 -0.01    -0.025 A 
DOCKED: ATOM      8  C   UNL d   1      42.188  30.841  16.903 -0.34 +0.01    +0.066 A 
DOCKED: ATOM      9  C   UNL d   1      44.029  32.318  17.961 -0.27 +0.01    +0.051 C 
DOCKED: ATOM     10  C   UNL d   1      40.135  31.781  15.883 -0.36 +0.01    +0.066 A 
DOCKED: ATOM     11  C   UNL d   1      39.229  32.822  15.663 -0.39 -0.00    -0.021 A 
DOCKED: ATOM     12  C   UNL d   1      38.182  32.282  14.943 -0.38 +0.00    +0.000 A 
DOCKED: ATOM     13  C   UNL d   1      38.503  30.925  14.765 -0.35 +0.01    +0.070 A 
DOCKED: ATOM     14  C   UNL d   1      39.323  34.245  16.174 -0.41 +0.00    +0.052 C 
DOCKED: ATOM     15  C   UNL d   1      37.985  28.659  13.869 -0.33 +0.01    +0.066 A 
DOCKED: ATOM     16  C   UNL d   1      37.257  27.808  13.048 -0.46 -0.00    -0.021 A 
DOCKED: ATOM     17  C   UNL d   1      37.798  26.548  13.197 -0.45 +0.00    +0.000 A 
DOCKED: ATOM     18  C   UNL d   1      38.843  26.659  14.112 -0.37 +0.01    +0.070 A 
DOCKED: ATOM     19  C   UNL d   1      36.082  28.158  12.174 -0.65 +0.01    +0.052 C 
DOCKED: ATOM     20  C   UNL d   1      40.742  25.702  15.427 -0.39 +0.01    +0.066 A 
DOCKED: ATOM     21  C   UNL d   1      41.403  24.610  16.007 -0.41 -0.00    -0.025 A 
DOCKED: ATOM     22  C   UNL d   1      42.431  25.145  16.756 -0.34 -0.00    -0.021 A 
DOCKED: ATOM     23  C   UNL d   1      42.354  26.535  16.609 -0.31 +0.01    +0.066 A 
DOCKED: ATOM     24  C   UNL d   1      41.089  23.138  15.874 -0.50 +0.00    +0.051 C 
DOCKED: ATOM     25  N   UNL d   1      41.971  29.531  16.672 -0.22 -0.05    -0.248 N 
DOCKED: ATOM     26  N   UNL d   1      39.688  30.617  15.346 -0.12 -0.06    -0.248 N 
DOCKED: ATOM     27  N   UNL d   1      38.987  27.964  14.492 -0.14 -0.06    -0.248 N 
DOCKED: ATOM     28  N   UNL d   1      41.294  26.871  15.834 -0.26 -0.05    -0.248 N 
DOCKED: ATOM     29 FE   UNL d   1      40.491  28.742  15.589 -0.09 +0.00    +0.000 Fe
DOCKED: ENDROOT
DOCKED: BRANCH   6  30
DOCKED: ATOM     30  C   UNL d   1      45.243  29.460  18.355 -0.22 +0.02    +0.052 C 
DOCKED: BRANCH  30  31
DOCKED: ATOM     31  C   UNL d   1      45.047  28.922  19.768 -0.21 +0.09    +0.115 C 
DOCKED: BRANCH  31  32
DOCKED: ATOM     32  C   UNL d   1      45.879  27.689  19.982 -0.14 +0.11    +0.139 C 
DOCKED: ATOM     33  O   UNL d   1      46.295  27.045  19.029 +0.03 -0.35    -0.650 OA
DOCKED: BRANCH  32  34
DOCKED: ATOM     34  O   UNL d   1      46.175  27.282  21.228 -0.42 -1.18    -0.776 OA
DOCKED: ATOM     35  H   UNL d   1      45.955  26.378  21.491 +0.03 +0.23    +0.167 HD
DOCKED: ENDBRANCH  32  34
DOCKED: ENDBRANCH  31  32
DOCKED: ENDBRANCH  30  31
DOCKED: ENDBRANCH   6  30
DOCKED: BRANCH  22  36
DOCKED: ATOM     36  C   UNL d   1      43.401  24.364  17.602 -0.31 +0.02    +0.052 C 
DOCKED: BRANCH  36  37
DOCKED: ATOM     37  C   UNL d   1      43.741  25.156  18.856 -0.24 +0.04    +0.115 C 
DOCKED: BRANCH  37  38
DOCKED: ATOM     38  C   UNL d   1      44.289  24.258  19.929 -0.22 +0.07    +0.139 C 
DOCKED: ATOM     39  O   UNL d   1      43.824  23.142  20.109 -0.43 -0.31    -0.650 OA
DOCKED: BRANCH  38  40
DOCKED: ATOM     40  O   UNL d   1      45.302  24.681  20.706 +0.07 -0.49    -0.776 OA
DOCKED: ATOM     41  H   UNL d   1      45.865  25.404  20.393 +0.05 +0.11    +0.167 HD
DOCKED: ENDBRANCH  38  40
DOCKED: ENDBRANCH  37  38
DOCKED: ENDBRANCH  36  37
DOCKED: ENDBRANCH  22  36
DOCKED: BRANCH  12  42
DOCKED: ATOM     42  C   UNL d   1      36.973  33.039  14.492 -0.44 +0.00    +0.004 C 
DOCKED: ATOM     43  C   UNL d   1      36.743  33.260  13.192 -0.51 +0.00    +0.012 C 
DOCKED: ENDBRANCH  12  42
DOCKED: BRANCH  17  44
DOCKED: ATOM     44  C   UNL d   1      37.357  25.321  12.496 -0.50 +0.00    +0.004 C 
DOCKED: ATOM     45  C   UNL d   1      36.401  24.542  13.013 -0.69 +0.00    +0.012 C 
DOCKED: ENDBRANCH  17  44
DOCKED: TORSDOF 10
DOCKED: TER
DOCKED: ENDMDL
________________________________________________________________________________


	BEGINNING GENETIC ALGORITHM DOCKING 87 of 100
Run: 87 Seed: 1957553859 966708526 [ Run 87 of 100 GA/GALS ]
Beginning LAMARCKIAN GENETIC ALGORITHM (LGA), with a maximum of 25000000 energy evaluations.

Final-Value: -10.639


	FINAL GENETIC ALGORITHM DOCKED STATE
	_______________________________________________


Detailed state:  trans 2.568 31.978 -7.595 quatxyzw -0.643736 -0.067032 -0.751647 0.127034 center -0.174 -0.001 -0.047 ntor 10 -9.3885 -139.3207 -167.6640 51.7810 -73.9991 22.1290 57.7905 -5.0500 -9.8390 19.8098
State:	  2.568  31.978  -7.595  -0.649 -0.068 -0.758 165.404     -9.39 -139.32 -167.66   51.78  -74.00   22.13   57.79   -5.05   -9.84   19.81

DOCKED: MODEL       87
DOCKED: USER    Run = 87
DOCKED: USER    DPF = D:/Protein_go_brrr/autodock/final/6BB5/heme_Fe/dock.dpf
DOCKED: USER  
DOCKED: USER    Estimated Free Energy of Binding    =   -5.75 kcal/mol  [=(1)+(2)+(3)-(4)]
DOCKED: USER    Estimated Inhibition Constant, Ki   =   60.69 uM (micromolar)  [Temperature = 298.15 K]
DOCKED: USER    
DOCKED: USER    (1) Final Intermolecular Energy     =   -8.74 kcal/mol
DOCKED: USER        vdW + Hbond + desolv Energy     =   -6.41 kcal/mol
DOCKED: USER        Electrostatic Energy            =   -2.33 kcal/mol
DOCKED: USER    (2) Final Total Internal Energy     =   -1.90 kcal/mol
DOCKED: USER    (3) Torsional Free Energy           =   +2.98 kcal/mol
DOCKED: USER    (4) Unbound System's Energy  [=(2)] =   -1.90 kcal/mol
DOCKED: USER    
DOCKED: USER    
DOCKED: USER    NEWDPF move heme_Fe_opt.pdbqt
DOCKED: USER    NEWDPF about -0.174000 -0.001000 -0.047000
DOCKED: USER    NEWDPF tran0 2.567919 31.978004 -7.595484
DOCKED: USER    NEWDPF quaternion0 -0.643736 -0.067032 -0.751647 0.127034
DOCKED: USER    NEWDPF axisangle0 -0.648994 -0.067579 -0.757786 165.403502
DOCKED: USER    NEWDPF quat0 -0.648994 -0.067579 -0.757786 165.403502
DOCKED: USER    NEWDPF dihe0 -9.39 -139.32 -167.66 51.78 -74.00 22.13 57.79 -5.05 -9.84 19.81 
DOCKED: USER  keepresnum = 1 
DOCKED: USER  
DOCKED: REMARK  10 active torsions:
DOCKED: REMARK  status: ('A' for Active; 'I' for Inactive)
DOCKED: REMARK    1  A    between atoms: C_6  and  C_10 
DOCKED: REMARK    2  A    between atoms: C_10  and  C_11 
DOCKED: REMARK    3  A    between atoms: C_11  and  C_12 
DOCKED: REMARK    4  A    between atoms: C_12  and  O_14 
DOCKED: REMARK    5  A    between atoms: C_17  and  C_20 
DOCKED: REMARK    6  A    between atoms: C_24  and  C_27 
DOCKED: REMARK    7  A    between atoms: C_31  and  C_34 
DOCKED: REMARK    8  A    between atoms: C_34  and  C_35 
DOCKED: REMARK    9  A    between atoms: C_35  and  C_36 
DOCKED: REMARK   10  A    between atoms: C_36  and  O_38 
DOCKED: USER                              x       y       z     vdW  Elec       q    Type
DOCKED: USER                           _______ _______ _______ _____ _____    ______ ____
DOCKED: ROOT
DOCKED: ATOM      1  C   UNL d   1       3.373  31.452  -9.408 -0.24 +0.02    +0.064 C 
DOCKED: ATOM      2  C   UNL d   1       3.023  35.664  -6.847 -0.09 +0.01    +0.064 A 
DOCKED: ATOM      3  C   UNL d   1       1.859  33.115  -2.946 -0.11 +0.01    +0.064 C 
DOCKED: ATOM      4  C   UNL d   1       2.090  29.034  -5.432 -0.32 -0.01    +0.064 C 
DOCKED: ATOM      5  C   UNL d   1       3.301  32.880  -9.069 -0.14 +0.01    +0.066 A 
DOCKED: ATOM      6  C   UNL d   1       3.467  33.916  -9.973 -0.15 -0.01    -0.021 A 
DOCKED: ATOM      7  C   UNL d   1       3.373  35.086  -9.260 -0.12 -0.00    -0.025 A 
DOCKED: ATOM      8  C   UNL d   1       3.153  34.718  -7.947 -0.12 +0.01    +0.066 A 
DOCKED: ATOM      9  C   UNL d   1       3.472  36.472  -9.821 -0.07 +0.01    +0.051 C 
DOCKED: ATOM     10  C   UNL d   1       2.753  35.339  -5.581 -0.09 +0.01    +0.066 A 
DOCKED: ATOM     11  C   UNL d   1       2.748  36.257  -4.529 -0.06 -0.00    -0.021 A 
DOCKED: ATOM     12  C   UNL d   1       2.431  35.544  -3.390 -0.08 +0.00    +0.000 A 
DOCKED: ATOM     13  C   UNL d   1       2.266  34.213  -3.809 -0.09 +0.01    +0.070 A 
DOCKED: ATOM     14  C   UNL d   1       3.095  37.731  -4.593 -0.04 +0.01    +0.052 C 
DOCKED: ATOM     15  C   UNL d   1       1.749  31.823  -3.334 -0.13 +0.00    +0.066 A 
DOCKED: ATOM     16  C   UNL d   1       1.262  30.820  -2.505 -0.14 +0.00    -0.021 A 
DOCKED: ATOM     17  C   UNL d   1       1.330  29.642  -3.219 -0.23 -0.00    +0.000 A 
DOCKED: ATOM     18  C   UNL d   1       1.864  29.953  -4.468 -0.23 -0.00    +0.070 A 
DOCKED: ATOM     19  C   UNL d   1       0.773  30.958  -1.088 -0.11 +0.00    +0.052 C 
DOCKED: ATOM     20  C   UNL d   1       2.592  29.333  -6.779 -0.25 -0.01    +0.066 A 
DOCKED: ATOM     21  C   UNL d   1       3.018  28.380  -7.714 -0.32 +0.00    -0.025 A 
DOCKED: ATOM     22  C   UNL d   1       3.367  29.090  -8.844 -0.30 -0.00    -0.021 A 
DOCKED: ATOM     23  C   UNL d   1       3.148  30.442  -8.553 -0.24 +0.01    +0.066 A 
DOCKED: ATOM     24  C   UNL d   1       3.100  26.879  -7.561 -0.35 -0.03    +0.051 C 
DOCKED: ATOM     25  N   UNL d   1       3.100  33.375  -7.836 -0.06 -0.03    -0.248 N 
DOCKED: ATOM     26  N   UNL d   1       2.471  34.085  -5.143 -0.08 -0.02    -0.248 N 
DOCKED: ATOM     27  N   UNL d   1       2.081  31.300  -4.555 -0.08 -0.00    -0.248 N 
DOCKED: ATOM     28  N   UNL d   1       2.717  30.587  -7.276 -0.14 -0.01    -0.248 N 
DOCKED: ATOM     29 FE   UNL d   1       2.594  32.334  -6.209 -0.05 +0.00    +0.000 Fe
DOCKED: ENDROOT
DOCKED: BRANCH   6  30
DOCKED: ATOM     30  C   UNL d   1       3.683  33.804 -11.444 -0.03 +0.02    +0.052 C 
DOCKED: BRANCH  30  31
DOCKED: ATOM     31  C   UNL d   1       2.365  33.544 -12.165 -0.10 +0.05    +0.115 C 
DOCKED: BRANCH  31  32
DOCKED: ATOM     32  C   UNL d   1       2.442  32.268 -12.956 -0.09 +0.12    +0.139 C 
DOCKED: ATOM     33  O   UNL d   1       3.082  32.217 -13.997 -0.47 -1.06    -0.650 OA
DOCKED: BRANCH  32  34
DOCKED: ATOM     34  O   UNL d   1       1.804  31.167 -12.524 -0.02 -0.51    -0.776 OA
DOCKED: ATOM     35  H   UNL d   1       1.748  30.397 -13.108 +0.01 +0.12    +0.167 HD
DOCKED: ENDBRANCH  32  34
DOCKED: ENDBRANCH  31  32
DOCKED: ENDBRANCH  30  31
DOCKED: ENDBRANCH   6  30
DOCKED: BRANCH  22  36
DOCKED: ATOM     36  C   UNL d   1       3.927  28.504 -10.114 -0.31 +0.01    +0.052 C 
DOCKED: BRANCH  36  37
DOCKED: ATOM     37  C   UNL d   1       2.963  28.755 -11.264 -0.12 +0.05    +0.115 C 
DOCKED: BRANCH  37  38
DOCKED: ATOM     38  C   UNL d   1       3.555  28.309 -12.570 +0.09 +0.13    +0.139 C 
DOCKED: ATOM     39  O   UNL d   1       4.454  27.481 -12.599 -0.08 -0.41    -0.650 OA
DOCKED: BRANCH  38  40
DOCKED: ATOM     40  O   UNL d   1       3.099  28.825 -13.725 -0.23 -1.14    -0.776 OA
DOCKED: ATOM     41  H   UNL d   1       2.893  29.769 -13.770 +0.01 +0.32    +0.167 HD
DOCKED: ENDBRANCH  38  40
DOCKED: ENDBRANCH  37  38
DOCKED: ENDBRANCH  36  37
DOCKED: ENDBRANCH  22  36
DOCKED: BRANCH  12  42
DOCKED: ATOM     42  C   UNL d   1       2.324  36.127  -2.017 -0.13 +0.00    +0.004 C 
DOCKED: ATOM     43  C   UNL d   1       3.111  35.698  -1.022 -0.21 +0.00    +0.012 C 
DOCKED: ENDBRANCH  12  42
DOCKED: BRANCH  17  44
DOCKED: ATOM     44  C   UNL d   1       0.895  28.309  -2.744 -0.18 -0.00    +0.004 C 
DOCKED: ATOM     45  C   UNL d   1      -0.234  27.755  -3.199 -0.14 -0.00    +0.012 C 
DOCKED: ENDBRANCH  17  44
DOCKED: TORSDOF 10
DOCKED: TER
DOCKED: ENDMDL
________________________________________________________________________________


	BEGINNING GENETIC ALGORITHM DOCKING 88 of 100
Run: 88 Seed: 1551243656 85917293 [ Run 88 of 100 GA/GALS ]
Beginning LAMARCKIAN GENETIC ALGORITHM (LGA), with a maximum of 25000000 energy evaluations.

Final-Value: -17.674


	FINAL GENETIC ALGORITHM DOCKED STATE
	_______________________________________________


Detailed state:  trans 41.721 28.142 15.922 quatxyzw 0.224202 0.106083 -0.947092 0.203705 center -0.174 -0.001 -0.047 ntor 10 98.5948 -38.7270 65.6883 -151.3452 149.4076 144.8077 -30.3880 65.1374 157.0980 158.6839
State:	 41.721  28.142  15.922   0.229  0.108 -0.967 156.493     98.59  -38.73   65.69 -151.35  149.41  144.81  -30.39   65.14  157.10  158.68

DOCKED: MODEL       88
DOCKED: USER    Run = 88
DOCKED: USER    DPF = D:/Protein_go_brrr/autodock/final/6BB5/heme_Fe/dock.dpf
DOCKED: USER  
DOCKED: USER    Estimated Free Energy of Binding    =  -12.57 kcal/mol  [=(1)+(2)+(3)-(4)]
DOCKED: USER    Estimated Inhibition Constant, Ki   =  613.90 pM (picomolar)  [Temperature = 298.15 K]
DOCKED: USER    
DOCKED: USER    (1) Final Intermolecular Energy     =  -15.55 kcal/mol
DOCKED: USER        vdW + Hbond + desolv Energy     =  -13.55 kcal/mol
DOCKED: USER        Electrostatic Energy            =   -2.00 kcal/mol
DOCKED: USER    (2) Final Total Internal Energy     =   -2.12 kcal/mol
DOCKED: USER    (3) Torsional Free Energy           =   +2.98 kcal/mol
DOCKED: USER    (4) Unbound System's Energy  [=(2)] =   -2.12 kcal/mol
DOCKED: USER    
DOCKED: USER    
DOCKED: USER    NEWDPF move heme_Fe_opt.pdbqt
DOCKED: USER    NEWDPF about -0.174000 -0.001000 -0.047000
DOCKED: USER    NEWDPF tran0 41.721414 28.142240 15.921523
DOCKED: USER    NEWDPF quaternion0 0.224202 0.106083 -0.947092 0.203705
DOCKED: USER    NEWDPF axisangle0 0.229004 0.108355 -0.967376 156.492579
DOCKED: USER    NEWDPF quat0 0.229004 0.108355 -0.967376 156.492579
DOCKED: USER    NEWDPF dihe0 98.59 -38.73 65.69 -151.35 149.41 144.81 -30.39 65.14 157.10 158.68 
DOCKED: USER  keepresnum = 1 
DOCKED: USER  
DOCKED: REMARK  10 active torsions:
DOCKED: REMARK  status: ('A' for Active; 'I' for Inactive)
DOCKED: REMARK    1  A    between atoms: C_6  and  C_10 
DOCKED: REMARK    2  A    between atoms: C_10  and  C_11 
DOCKED: REMARK    3  A    between atoms: C_11  and  C_12 
DOCKED: REMARK    4  A    between atoms: C_12  and  O_14 
DOCKED: REMARK    5  A    between atoms: C_17  and  C_20 
DOCKED: REMARK    6  A    between atoms: C_24  and  C_27 
DOCKED: REMARK    7  A    between atoms: C_31  and  C_34 
DOCKED: REMARK    8  A    between atoms: C_34  and  C_35 
DOCKED: REMARK    9  A    between atoms: C_35  and  C_36 
DOCKED: REMARK   10  A    between atoms: C_36  and  O_38 
DOCKED: USER                              x       y       z     vdW  Elec       q    Type
DOCKED: USER                           _______ _______ _______ _____ _____    ______ ____
DOCKED: ROOT
DOCKED: ATOM      1  C   UNL d   1      43.110  27.278  17.161 -0.25 +0.02    +0.064 C 
DOCKED: ATOM      2  C   UNL d   1      41.344  31.856  16.570 -0.40 +0.01    +0.064 A 
DOCKED: ATOM      3  C   UNL d   1      37.710  30.049  14.002 -0.36 +0.01    +0.064 C 
DOCKED: ATOM      4  C   UNL d   1      39.459  25.621  14.473 -0.46 +0.01    +0.064 C 
DOCKED: ATOM      5  C   UNL d   1      42.995  28.743  17.162 -0.22 +0.02    +0.066 A 
DOCKED: ATOM      6  C   UNL d   1      43.927  29.609  17.712 -0.28 -0.01    -0.021 A 
DOCKED: ATOM      7  C   UNL d   1      43.433  30.880  17.551 -0.29 -0.01    -0.025 A 
DOCKED: ATOM      8  C   UNL d   1      42.219  30.741  16.907 -0.34 +0.01    +0.066 A 
DOCKED: ATOM      9  C   UNL d   1      44.107  32.148  17.976 -0.26 +0.01    +0.051 C 
DOCKED: ATOM     10  C   UNL d   1      40.195  31.755  15.899 -0.36 +0.01    +0.066 A 
DOCKED: ATOM     11  C   UNL d   1      39.323  32.827  15.690 -0.40 -0.00    -0.021 A 
DOCKED: ATOM     12  C   UNL d   1      38.258  32.328  14.966 -0.39 +0.00    +0.000 A 
DOCKED: ATOM     13  C   UNL d   1      38.535  30.963  14.776 -0.35 +0.01    +0.070 A 
DOCKED: ATOM     14  C   UNL d   1      39.463  34.241  16.214 -0.40 +0.00    +0.052 C 
DOCKED: ATOM     15  C   UNL d   1      37.945  28.723  13.859 -0.34 +0.01    +0.066 A 
DOCKED: ATOM     16  C   UNL d   1      37.189  27.903  13.031 -0.46 -0.00    -0.021 A 
DOCKED: ATOM     17  C   UNL d   1      37.689  26.625  13.168 -0.46 +0.00    +0.000 A 
DOCKED: ATOM     18  C   UNL d   1      38.738  26.694  14.082 -0.37 +0.01    +0.070 A 
DOCKED: ATOM     19  C   UNL d   1      36.025  28.299  12.163 -0.65 +0.00    +0.052 C 
DOCKED: ATOM     20  C   UNL d   1      40.608  25.665  15.385 -0.38 +0.01    +0.066 A 
DOCKED: ATOM     21  C   UNL d   1      41.235  24.547  15.954 -0.41 -0.00    -0.025 A 
DOCKED: ATOM     22  C   UNL d   1      42.280  25.042  16.706 -0.35 -0.00    -0.021 A 
DOCKED: ATOM     23  C   UNL d   1      42.247  26.435  16.572 -0.32 +0.01    +0.066 A 
DOCKED: ATOM     24  C   UNL d   1      40.874  23.087  15.807 -0.47 +0.00    +0.051 C 
DOCKED: ATOM     25  N   UNL d   1      41.960  29.441  16.664 -0.22 -0.05    -0.248 N 
DOCKED: ATOM     26  N   UNL d   1      39.711  30.611  15.351 -0.11 -0.06    -0.248 N 
DOCKED: ATOM     27  N   UNL d   1      38.924  27.990  14.474 -0.14 -0.06    -0.248 N 
DOCKED: ATOM     28  N   UNL d   1      41.197  26.812  15.802 -0.26 -0.05    -0.248 N 
DOCKED: ATOM     29 FE   UNL d   1      40.454  28.710  15.576 -0.09 +0.00    +0.000 Fe
DOCKED: ENDROOT
DOCKED: BRANCH   6  30
DOCKED: ATOM     30  C   UNL d   1      45.229  29.250  18.341 -0.22 +0.02    +0.052 C 
DOCKED: BRANCH  30  31
DOCKED: ATOM     31  C   UNL d   1      45.216  29.570  19.832 -0.17 +0.08    +0.115 C 
DOCKED: BRANCH  31  32
DOCKED: ATOM     32  C   UNL d   1      46.106  28.618  20.582 -0.11 +0.15    +0.139 C 
DOCKED: ATOM     33  O   UNL d   1      46.681  28.974  21.601 -0.27 -0.98    -0.650 OA
DOCKED: BRANCH  32  34
DOCKED: ATOM     34  O   UNL d   1      46.277  27.362  20.137 -0.02 -0.65    -0.776 OA
DOCKED: ATOM     35  H   UNL d   1      45.606  26.696  20.341 +0.04 +0.15    +0.167 HD
DOCKED: ENDBRANCH  32  34
DOCKED: ENDBRANCH  31  32
DOCKED: ENDBRANCH  30  31
DOCKED: ENDBRANCH   6  30
DOCKED: BRANCH  22  36
DOCKED: ATOM     36  C   UNL d   1      43.226  24.223  17.544 -0.33 +0.01    +0.052 C 
DOCKED: BRANCH  36  37
DOCKED: ATOM     37  C   UNL d   1      42.868  24.371  19.015 -0.36 +0.04    +0.115 C 
DOCKED: BRANCH  37  38
DOCKED: ATOM     38  C   UNL d   1      43.977  25.042  19.774 -0.24 +0.07    +0.139 C 
DOCKED: ATOM     39  O   UNL d   1      43.731  25.804  20.697 -0.06 -0.50    -0.650 OA
DOCKED: BRANCH  38  40
DOCKED: ATOM     40  O   UNL d   1      45.258  24.808  19.438 +0.10 -0.39    -0.776 OA
DOCKED: ATOM     41  H   UNL d   1      45.890  25.540  19.458 +0.05 +0.09    +0.167 HD
DOCKED: ENDBRANCH  38  40
DOCKED: ENDBRANCH  37  38
DOCKED: ENDBRANCH  36  37
DOCKED: ENDBRANCH  22  36
DOCKED: BRANCH  12  42
DOCKED: ATOM     42  C   UNL d   1      37.073  33.127  14.525 -0.46 +0.00    +0.004 C 
DOCKED: ATOM     43  C   UNL d   1      36.846  33.363  13.226 -0.51 +0.00    +0.012 C 
DOCKED: ENDBRANCH  12  42
DOCKED: BRANCH  17  44
DOCKED: ATOM     44  C   UNL d   1      37.209  25.420  12.455 -0.51 +0.00    +0.004 C 
DOCKED: ATOM     45  C   UNL d   1      36.348  24.578  13.037 -0.69 +0.00    +0.012 C 
DOCKED: ENDBRANCH  17  44
DOCKED: TORSDOF 10
DOCKED: TER
DOCKED: ENDMDL
________________________________________________________________________________


	BEGINNING GENETIC ALGORITHM DOCKING 89 of 100
Run: 89 Seed: 501712744 1922560488 [ Run 89 of 100 GA/GALS ]
Beginning LAMARCKIAN GENETIC ALGORITHM (LGA), with a maximum of 25000000 energy evaluations.

Final-Value: -18.013


	FINAL GENETIC ALGORITHM DOCKED STATE
	_______________________________________________


Detailed state:  trans 41.277 28.811 16.534 quatxyzw -0.104531 -0.932237 -0.068448 0.339592 center -0.174 -0.001 -0.047 ntor 10 -43.9966 -108.6352 68.0375 -139.8963 145.9657 19.0643 64.9491 -25.1627 -10.8341 12.4134
State:	 41.277  28.811  16.534  -0.111 -0.991 -0.073 140.296    -44.00 -108.64   68.04 -139.90  145.97   19.06   64.95  -25.16  -10.83   12.41

DOCKED: MODEL       89
DOCKED: USER    Run = 89
DOCKED: USER    DPF = D:/Protein_go_brrr/autodock/final/6BB5/heme_Fe/dock.dpf
DOCKED: USER  
DOCKED: USER    Estimated Free Energy of Binding    =  -12.84 kcal/mol  [=(1)+(2)+(3)-(4)]
DOCKED: USER    Estimated Inhibition Constant, Ki   =  387.75 pM (picomolar)  [Temperature = 298.15 K]
DOCKED: USER    
DOCKED: USER    (1) Final Intermolecular Energy     =  -15.82 kcal/mol
DOCKED: USER        vdW + Hbond + desolv Energy     =  -13.57 kcal/mol
DOCKED: USER        Electrostatic Energy            =   -2.25 kcal/mol
DOCKED: USER    (2) Final Total Internal Energy     =   -2.19 kcal/mol
DOCKED: USER    (3) Torsional Free Energy           =   +2.98 kcal/mol
DOCKED: USER    (4) Unbound System's Energy  [=(2)] =   -2.19 kcal/mol
DOCKED: USER    
DOCKED: USER    
DOCKED: USER    NEWDPF move heme_Fe_opt.pdbqt
DOCKED: USER    NEWDPF about -0.174000 -0.001000 -0.047000
DOCKED: USER    NEWDPF tran0 41.276998 28.811105 16.534017
DOCKED: USER    NEWDPF quaternion0 -0.104531 -0.932237 -0.068448 0.339592
DOCKED: USER    NEWDPF axisangle0 -0.111136 -0.991137 -0.072773 140.296005
DOCKED: USER    NEWDPF quat0 -0.111136 -0.991137 -0.072773 140.296005
DOCKED: USER    NEWDPF dihe0 -44.00 -108.64 68.04 -139.90 145.97 19.06 64.95 -25.16 -10.83 12.41 
DOCKED: USER  keepresnum = 1 
DOCKED: USER  
DOCKED: REMARK  10 active torsions:
DOCKED: REMARK  status: ('A' for Active; 'I' for Inactive)
DOCKED: REMARK    1  A    between atoms: C_6  and  C_10 
DOCKED: REMARK    2  A    between atoms: C_10  and  C_11 
DOCKED: REMARK    3  A    between atoms: C_11  and  C_12 
DOCKED: REMARK    4  A    between atoms: C_12  and  O_14 
DOCKED: REMARK    5  A    between atoms: C_17  and  C_20 
DOCKED: REMARK    6  A    between atoms: C_24  and  C_27 
DOCKED: REMARK    7  A    between atoms: C_31  and  C_34 
DOCKED: REMARK    8  A    between atoms: C_34  and  C_35 
DOCKED: REMARK    9  A    between atoms: C_35  and  C_36 
DOCKED: REMARK   10  A    between atoms: C_36  and  O_38 
DOCKED: USER                              x       y       z     vdW  Elec       q    Type
DOCKED: USER                           _______ _______ _______ _____ _____    ______ ____
DOCKED: ROOT
DOCKED: ATOM      1  C   UNL d   1      43.093  28.306  17.344 -0.15 +0.02    +0.064 C 
DOCKED: ATOM      2  C   UNL d   1      39.745  25.955  14.571 -0.40 +0.01    +0.064 A 
DOCKED: ATOM      3  C   UNL d   1      37.685  30.183  13.596 -0.39 +0.01    +0.064 C 
DOCKED: ATOM      4  C   UNL d   1      40.853  32.467  16.360 -0.48 +0.01    +0.064 C 
DOCKED: ATOM      5  C   UNL d   1      42.292  27.243  16.721 -0.18 +0.02    +0.066 A 
DOCKED: ATOM      6  C   UNL d   1      42.520  25.886  16.878 -0.32 -0.00    -0.021 A 
DOCKED: ATOM      7  C   UNL d   1      41.592  25.234  16.104 -0.39 -0.00    -0.025 A 
DOCKED: ATOM      8  C   UNL d   1      40.832  26.220  15.505 -0.39 +0.01    +0.066 A 
DOCKED: ATOM      9  C   UNL d   1      41.440  23.750  15.971 -0.49 +0.01    +0.051 C 
DOCKED: ATOM     10  C   UNL d   1      38.959  26.885  14.024 -0.37 +0.01    +0.066 A 
DOCKED: ATOM     11  C   UNL d   1      38.001  26.611  13.045 -0.43 -0.00    -0.021 A 
DOCKED: ATOM     12  C   UNL d   1      37.404  27.816  12.734 -0.50 +0.00    +0.000 A 
DOCKED: ATOM     13  C   UNL d   1      38.042  28.774  13.542 -0.33 +0.01    +0.070 A 
DOCKED: ATOM     14  C   UNL d   1      37.715  25.276  12.387 -0.31 +0.01    +0.052 C 
DOCKED: ATOM     15  C   UNL d   1      38.330  31.119  14.333 -0.36 +0.01    +0.066 A 
DOCKED: ATOM     16  C   UNL d   1      37.897  32.435  14.435 -0.38 -0.00    -0.021 A 
DOCKED: ATOM     17  C   UNL d   1      38.811  33.096  15.229 -0.43 +0.00    +0.000 A 
DOCKED: ATOM     18  C   UNL d   1      39.784  32.167  15.590 -0.37 +0.01    +0.070 A 
DOCKED: ATOM     19  C   UNL d   1      36.686  33.056  13.792 -0.43 +0.00    +0.052 C 
DOCKED: ATOM     20  C   UNL d   1      41.864  31.502  16.811 -0.38 +0.01    +0.066 A 
DOCKED: ATOM     21  C   UNL d   1      43.075  31.831  17.435 -0.27 -0.00    -0.025 A 
DOCKED: ATOM     22  C   UNL d   1      43.691  30.629  17.719 -0.29 -0.01    -0.021 A 
DOCKED: ATOM     23  C   UNL d   1      42.840  29.621  17.252 -0.28 +0.02    +0.066 A 
DOCKED: ATOM     24  C   UNL d   1      43.634  33.199  17.750 -0.16 +0.01    +0.051 C 
DOCKED: ATOM     25  N   UNL d   1      41.254  27.441  15.890 -0.24 -0.06    -0.248 N 
DOCKED: ATOM     26  N   UNL d   1      38.996  28.208  14.322 -0.03 -0.07    -0.248 N 
DOCKED: ATOM     27  N   UNL d   1      39.466  30.941  15.076 -0.18 -0.04    -0.248 N 
DOCKED: ATOM     28  N   UNL d   1      41.747  30.161  16.659 -0.23 -0.05    -0.248 N 
DOCKED: ATOM     29 FE   UNL d   1      40.372  29.186  15.491 -0.09 +0.00    +0.000 Fe
DOCKED: ENDROOT
DOCKED: BRANCH   6  30
DOCKED: ATOM     30  C   UNL d   1      43.553  25.238  17.735 -0.28 +0.02    +0.052 C 
DOCKED: BRANCH  30  31
DOCKED: ATOM     31  C   UNL d   1      43.118  25.233  19.196 -0.29 +0.04    +0.115 C 
DOCKED: BRANCH  31  32
DOCKED: ATOM     32  C   UNL d   1      44.039  26.087  20.023 -0.23 +0.09    +0.139 C 
DOCKED: ATOM     33  O   UNL d   1      43.612  26.722  20.977 -0.29 -0.77    -0.650 OA
DOCKED: BRANCH  32  34
DOCKED: ATOM     34  O   UNL d   1      45.346  26.159  19.718 +0.08 -0.50    -0.776 OA
DOCKED: ATOM     35  H   UNL d   1      45.783  27.022  19.726 +0.05 +0.12    +0.167 HD
DOCKED: ENDBRANCH  32  34
DOCKED: ENDBRANCH  31  32
DOCKED: ENDBRANCH  30  31
DOCKED: ENDBRANCH   6  30
DOCKED: BRANCH  22  36
DOCKED: ATOM     36  C   UNL d   1      45.045  30.464  18.357 -0.25 +0.02    +0.052 C 
DOCKED: BRANCH  36  37
DOCKED: ATOM     37  C   UNL d   1      44.884  29.922  19.770 -0.15 +0.07    +0.115 C 
DOCKED: BRANCH  37  38
DOCKED: ATOM     38  C   UNL d   1      46.111  29.171  20.202 -0.13 +0.11    +0.139 C 
DOCKED: ATOM     39  O   UNL d   1      47.179  29.334  19.629 +0.01 -0.33    -0.650 OA
DOCKED: BRANCH  38  40
DOCKED: ATOM     40  O   UNL d   1      46.041  28.303  21.227 -0.39 -1.33    -0.776 OA
DOCKED: ATOM     41  H   UNL d   1      45.569  27.467  21.104 +0.03 +0.28    +0.167 HD
DOCKED: ENDBRANCH  38  40
DOCKED: ENDBRANCH  37  38
DOCKED: ENDBRANCH  36  37
DOCKED: ENDBRANCH  22  36
DOCKED: BRANCH  12  42
DOCKED: ATOM     42  C   UNL d   1      36.321  27.999  11.720 -0.68 +0.00    +0.004 C 
DOCKED: ATOM     43  C   UNL d   1      35.099  28.411  12.083 -0.63 +0.00    +0.012 C 
DOCKED: ENDBRANCH  12  42
DOCKED: BRANCH  17  44
DOCKED: ATOM     44  C   UNL d   1      38.747  34.519  15.633 -0.56 +0.00    +0.004 C 
DOCKED: ATOM     45  C   UNL d   1      39.249  35.477  14.847 -0.61 +0.00    +0.012 C 
DOCKED: ENDBRANCH  17  44
DOCKED: TORSDOF 10
DOCKED: TER
DOCKED: ENDMDL
________________________________________________________________________________


	BEGINNING GENETIC ALGORITHM DOCKING 90 of 100
Run: 90 Seed: 1713549182 1228373367 [ Run 90 of 100 GA/GALS ]
Beginning LAMARCKIAN GENETIC ALGORITHM (LGA), with a maximum of 25000000 energy evaluations.

Final-Value: -12.188


	FINAL GENETIC ALGORITHM DOCKED STATE
	_______________________________________________


Detailed state:  trans 44.356 20.212 15.979 quatxyzw 0.533911 0.710518 0.444532 -0.111776 center -0.174 -0.001 -0.047 ntor 10 -150.1020 -26.2074 -164.8189 13.0297 45.1377 86.8937 -98.5052 -79.2296 169.8917 -180.0000
State:	 44.356  20.212  15.979   0.537  0.715  0.447 -167.165   -150.10  -26.21 -164.82   13.03   45.14   86.89  -98.51  -79.23  169.89 -180.00

DOCKED: MODEL       90
DOCKED: USER    Run = 90
DOCKED: USER    DPF = D:/Protein_go_brrr/autodock/final/6BB5/heme_Fe/dock.dpf
DOCKED: USER  
DOCKED: USER    Estimated Free Energy of Binding    =   -8.51 kcal/mol  [=(1)+(2)+(3)-(4)]
DOCKED: USER    Estimated Inhibition Constant, Ki   =  576.34 nM (nanomolar)  [Temperature = 298.15 K]
DOCKED: USER    
DOCKED: USER    (1) Final Intermolecular Energy     =  -11.49 kcal/mol
DOCKED: USER        vdW + Hbond + desolv Energy     =   -9.47 kcal/mol
DOCKED: USER        Electrostatic Energy            =   -2.03 kcal/mol
DOCKED: USER    (2) Final Total Internal Energy     =   -0.69 kcal/mol
DOCKED: USER    (3) Torsional Free Energy           =   +2.98 kcal/mol
DOCKED: USER    (4) Unbound System's Energy  [=(2)] =   -0.69 kcal/mol
DOCKED: USER    
DOCKED: USER    
DOCKED: USER    NEWDPF move heme_Fe_opt.pdbqt
DOCKED: USER    NEWDPF about -0.174000 -0.001000 -0.047000
DOCKED: USER    NEWDPF tran0 44.356329 20.211596 15.978637
DOCKED: USER    NEWDPF quaternion0 0.533911 0.710518 0.444532 -0.111776
DOCKED: USER    NEWDPF axisangle0 0.537278 0.714999 0.447335 -167.164569
DOCKED: USER    NEWDPF quat0 0.537278 0.714999 0.447335 -167.164569
DOCKED: USER    NEWDPF dihe0 -150.10 -26.21 -164.82 13.03 45.14 86.89 -98.51 -79.23 169.89 -180.00 
DOCKED: USER  keepresnum = 1 
DOCKED: USER  
DOCKED: REMARK  10 active torsions:
DOCKED: REMARK  status: ('A' for Active; 'I' for Inactive)
DOCKED: REMARK    1  A    between atoms: C_6  and  C_10 
DOCKED: REMARK    2  A    between atoms: C_10  and  C_11 
DOCKED: REMARK    3  A    between atoms: C_11  and  C_12 
DOCKED: REMARK    4  A    between atoms: C_12  and  O_14 
DOCKED: REMARK    5  A    between atoms: C_17  and  C_20 
DOCKED: REMARK    6  A    between atoms: C_24  and  C_27 
DOCKED: REMARK    7  A    between atoms: C_31  and  C_34 
DOCKED: REMARK    8  A    between atoms: C_34  and  C_35 
DOCKED: REMARK    9  A    between atoms: C_35  and  C_36 
DOCKED: REMARK   10  A    between atoms: C_36  and  O_38 
DOCKED: USER                              x       y       z     vdW  Elec       q    Type
DOCKED: USER                           _______ _______ _______ _____ _____    ______ ____
DOCKED: ROOT
DOCKED: ATOM      1  C   UNL d   1      45.457  18.782  15.000 -0.12 +0.03    +0.064 C 
DOCKED: ATOM      2  C   UNL d   1      41.663  21.701  13.769 -0.28 +0.01    +0.064 A 
DOCKED: ATOM      3  C   UNL d   1      42.530  24.359  17.674 -0.39 +0.01    +0.064 C 
DOCKED: ATOM      4  C   UNL d   1      46.139  21.486  18.940 -0.13 +0.03    +0.064 C 
DOCKED: ATOM      5  C   UNL d   1      44.256  19.309  14.336 -0.16 +0.02    +0.066 A 
DOCKED: ATOM      6  C   UNL d   1      43.642  18.730  13.237 -0.19 -0.01    -0.021 A 
DOCKED: ATOM      7  C   UNL d   1      42.591  19.543  12.894 -0.36 -0.00    -0.025 A 
DOCKED: ATOM      8  C   UNL d   1      42.603  20.588  13.797 -0.30 +0.01    +0.066 A 
DOCKED: ATOM      9  C   UNL d   1      41.625  19.311  11.773 -0.30 +0.00    +0.051 C 
DOCKED: ATOM     10  C   UNL d   1      41.617  22.691  14.662 -0.37 +0.01    +0.066 A 
DOCKED: ATOM     11  C   UNL d   1      40.780  23.803  14.544 -0.52 -0.00    -0.021 A 
DOCKED: ATOM     12  C   UNL d   1      41.023  24.594  15.650 -0.45 +0.00    +0.000 A 
DOCKED: ATOM     13  C   UNL d   1      42.011  23.920  16.388 -0.36 +0.01    +0.070 A 
DOCKED: ATOM     14  C   UNL d   1      39.844  24.131  13.399 -0.40 +0.01    +0.052 C 
DOCKED: ATOM     15  C   UNL d   1      43.518  23.742  18.364 -0.27 +0.02    +0.066 A 
DOCKED: ATOM     16  C   UNL d   1      43.917  24.136  19.635 -0.27 -0.01    -0.021 A 
DOCKED: ATOM     17  C   UNL d   1      44.960  23.310  20.001 -0.17 +0.00    +0.000 A 
DOCKED: ATOM     18  C   UNL d   1      45.176  22.434  18.940 -0.07 +0.03    +0.070 A 
DOCKED: ATOM     19  C   UNL d   1      43.357  25.259  20.465 -0.30 +0.03    +0.052 C 
DOCKED: ATOM     20  C   UNL d   1      46.357  20.506  17.869 -0.14 +0.04    +0.066 A 
DOCKED: ATOM     21  C   UNL d   1      47.466  19.655  17.763 -0.09 -0.02    -0.025 A 
DOCKED: ATOM     22  C   UNL d   1      47.244  18.885  16.640 -0.08 -0.02    -0.021 A 
DOCKED: ATOM     23  C   UNL d   1      46.019  19.298  16.105 -0.11 +0.04    +0.066 A 
DOCKED: ATOM     24  C   UNL d   1      48.676  19.566  18.663 -0.05 +0.03    +0.051 C 
DOCKED: ATOM     25  N   UNL d   1      43.611  20.437  14.680 -0.14 -0.06    -0.248 N 
DOCKED: ATOM     26  N   UNL d   1      42.380  22.765  15.782 -0.14 -0.03    -0.248 N 
DOCKED: ATOM     27  N   UNL d   1      44.263  22.669  17.951 -0.14 -0.09    -0.248 N 
DOCKED: ATOM     28  N   UNL d   1      45.504  20.318  16.833 -0.11 -0.12    -0.248 N 
DOCKED: ATOM     29 FE   UNL d   1      43.943  21.542  16.309 -0.07 +0.00    +0.000 Fe
DOCKED: ENDROOT
DOCKED: BRANCH   6  30
DOCKED: ATOM     30  C   UNL d   1      44.021  17.458  12.559 -0.11 +0.02    +0.052 C 
DOCKED: BRANCH  30  31
DOCKED: ATOM     31  C   UNL d   1      44.812  17.739  11.287 -0.16 +0.06    +0.115 C 
DOCKED: BRANCH  31  32
DOCKED: ATOM     32  C   UNL d   1      46.256  18.003  11.613 -0.16 +0.09    +0.139 C 
DOCKED: ATOM     33  O   UNL d   1      46.857  17.288  12.403 +0.04 -0.34    -0.650 OA
DOCKED: BRANCH  32  34
DOCKED: ATOM     34  O   UNL d   1      46.901  19.031  11.037 -0.30 -0.69    -0.776 OA
DOCKED: ATOM     35  H   UNL d   1      46.398  19.819  10.786 -0.49 +0.10    +0.167 HD
DOCKED: ENDBRANCH  32  34
DOCKED: ENDBRANCH  31  32
DOCKED: ENDBRANCH  30  31
DOCKED: ENDBRANCH   6  30
DOCKED: BRANCH  22  36
DOCKED: ATOM     36  C   UNL d   1      48.183  17.844  16.088 -0.05 +0.03    +0.052 C 
DOCKED: BRANCH  36  37
DOCKED: ATOM     37  C   UNL d   1      49.244  18.515  15.229 -0.06 +0.13    +0.115 C 
DOCKED: BRANCH  37  38
DOCKED: ATOM     38  C   UNL d   1      50.530  18.678  15.989 +0.05 +0.16    +0.139 C 
DOCKED: ATOM     39  O   UNL d   1      51.360  17.781  16.014 -0.01 -0.39    -0.650 OA
DOCKED: BRANCH  38  40
DOCKED: ATOM     40  O   UNL d   1      50.775  19.820  16.656 -0.51 -1.34    -0.776 OA
DOCKED: ATOM     41  H   UNL d   1      51.365  19.799  17.423 +0.00 +0.16    +0.167 HD
DOCKED: ENDBRANCH  38  40
DOCKED: ENDBRANCH  37  38
DOCKED: ENDBRANCH  36  37
DOCKED: ENDBRANCH  22  36
DOCKED: BRANCH  12  42
DOCKED: ATOM     42  C   UNL d   1      40.352  25.900  15.932 -0.36 +0.00    +0.004 C 
DOCKED: ATOM     43  C   UNL d   1      41.055  27.038  15.989 -0.45 +0.00    +0.012 C 
DOCKED: ENDBRANCH  12  42
DOCKED: BRANCH  17  44
DOCKED: ATOM     44  C   UNL d   1      45.688  23.345  21.289 -0.17 +0.00    +0.004 C 
DOCKED: ATOM     45  C   UNL d   1      45.076  23.014  22.431 -0.22 +0.01    +0.012 C 
DOCKED: ENDBRANCH  17  44
DOCKED: TORSDOF 10
DOCKED: TER
DOCKED: ENDMDL
________________________________________________________________________________


	BEGINNING GENETIC ALGORITHM DOCKING 91 of 100
Run: 91 Seed: 640056126 1876505861 [ Run 91 of 100 GA/GALS ]
Beginning LAMARCKIAN GENETIC ALGORITHM (LGA), with a maximum of 25000000 energy evaluations.

Final-Value: -10.064


	FINAL GENETIC ALGORITHM DOCKED STATE
	_______________________________________________


Detailed state:  trans 29.851 17.333 26.883 quatxyzw 0.358146 -0.676397 0.272639 -0.582998 center -0.174 -0.001 -0.047 ntor 10 -85.3233 57.7057 66.3581 -170.7371 70.5494 -146.7669 -56.4187 -71.7704 -179.8757 -0.1930
State:	 29.851  17.333  26.883   0.441 -0.833  0.336 -108.677    -85.32   57.71   66.36 -170.74   70.55 -146.77  -56.42  -71.77 -179.88   -0.19

DOCKED: MODEL       91
DOCKED: USER    Run = 91
DOCKED: USER    DPF = D:/Protein_go_brrr/autodock/final/6BB5/heme_Fe/dock.dpf
DOCKED: USER  
DOCKED: USER    Estimated Free Energy of Binding    =   -5.03 kcal/mol  [=(1)+(2)+(3)-(4)]
DOCKED: USER    Estimated Inhibition Constant, Ki   =  206.01 uM (micromolar)  [Temperature = 298.15 K]
DOCKED: USER    
DOCKED: USER    (1) Final Intermolecular Energy     =   -8.01 kcal/mol
DOCKED: USER        vdW + Hbond + desolv Energy     =   -5.40 kcal/mol
DOCKED: USER        Electrostatic Energy            =   -2.61 kcal/mol
DOCKED: USER    (2) Final Total Internal Energy     =   -2.05 kcal/mol
DOCKED: USER    (3) Torsional Free Energy           =   +2.98 kcal/mol
DOCKED: USER    (4) Unbound System's Energy  [=(2)] =   -2.05 kcal/mol
DOCKED: USER    
DOCKED: USER    
DOCKED: USER    NEWDPF move heme_Fe_opt.pdbqt
DOCKED: USER    NEWDPF about -0.174000 -0.001000 -0.047000
DOCKED: USER    NEWDPF tran0 29.851243 17.333124 26.883027
DOCKED: USER    NEWDPF quaternion0 0.358146 -0.676397 0.272639 -0.582998
DOCKED: USER    NEWDPF axisangle0 0.440809 -0.832516 0.335567 -108.676624
DOCKED: USER    NEWDPF quat0 0.440809 -0.832516 0.335567 -108.676624
DOCKED: USER    NEWDPF dihe0 -85.32 57.71 66.36 -170.74 70.55 -146.77 -56.42 -71.77 -179.88 -0.19 
DOCKED: USER  keepresnum = 1 
DOCKED: USER  
DOCKED: REMARK  10 active torsions:
DOCKED: REMARK  status: ('A' for Active; 'I' for Inactive)
DOCKED: REMARK    1  A    between atoms: C_6  and  C_10 
DOCKED: REMARK    2  A    between atoms: C_10  and  C_11 
DOCKED: REMARK    3  A    between atoms: C_11  and  C_12 
DOCKED: REMARK    4  A    between atoms: C_12  and  O_14 
DOCKED: REMARK    5  A    between atoms: C_17  and  C_20 
DOCKED: REMARK    6  A    between atoms: C_24  and  C_27 
DOCKED: REMARK    7  A    between atoms: C_31  and  C_34 
DOCKED: REMARK    8  A    between atoms: C_34  and  C_35 
DOCKED: REMARK    9  A    between atoms: C_35  and  C_36 
DOCKED: REMARK   10  A    between atoms: C_36  and  O_38 
DOCKED: USER                              x       y       z     vdW  Elec       q    Type
DOCKED: USER                           _______ _______ _______ _____ _____    ______ ____
DOCKED: ROOT
DOCKED: ATOM      1  C   UNL d   1      29.709  17.210  24.840 -0.24 +0.00    +0.064 C 
DOCKED: ATOM      2  C   UNL d   1      32.260  14.776  28.304 -0.08 -0.04    +0.064 A 
DOCKED: ATOM      3  C   UNL d   1      29.381  16.666  31.652 -0.07 -0.01    +0.064 C 
DOCKED: ATOM      4  C   UNL d   1      26.966  19.113  28.326 -0.20 +0.00    +0.064 C 
DOCKED: ATOM      5  C   UNL d   1      30.746  16.415  25.512 -0.22 -0.01    +0.066 A 
DOCKED: ATOM      6  C   UNL d   1      31.816  15.809  24.874 -0.25 +0.00    -0.021 A 
DOCKED: ATOM      7  C   UNL d   1      32.521  15.130  25.836 -0.21 +0.01    -0.025 A 
DOCKED: ATOM      8  C   UNL d   1      31.855  15.349  27.026 -0.16 -0.04    +0.066 A 
DOCKED: ATOM      9  C   UNL d   1      33.773  14.336  25.618 -0.16 -0.02    +0.051 C 
DOCKED: ATOM     10  C   UNL d   1      31.668  15.017  29.476 -0.11 -0.03    +0.066 A 
DOCKED: ATOM     11  C   UNL d   1      32.007  14.365  30.664 -0.05 +0.01    -0.021 A 
DOCKED: ATOM     12  C   UNL d   1      31.180  14.880  31.641 -0.03 -0.00    +0.000 A 
DOCKED: ATOM     13  C   UNL d   1      30.365  15.824  30.991 -0.07 -0.01    +0.070 A 
DOCKED: ATOM     14  C   UNL d   1      33.023  13.255  30.845 -0.02 -0.01    +0.052 C 
DOCKED: ATOM     15  C   UNL d   1      28.559  17.538  31.023 -0.11 -0.00    +0.066 A 
DOCKED: ATOM     16  C   UNL d   1      27.702  18.397  31.701 -0.11 +0.00    -0.021 A 
DOCKED: ATOM     17  C   UNL d   1      27.002  19.101  30.743 -0.17 -0.00    +0.000 A 
DOCKED: ATOM     18  C   UNL d   1      27.446  18.652  29.502 -0.16 +0.00    +0.070 A 
DOCKED: ATOM     19  C   UNL d   1      27.528  18.534  33.189 -0.05 -0.00    +0.052 C 
DOCKED: ATOM     20  C   UNL d   1      27.452  18.708  27.001 -0.18 +0.00    +0.066 A 
DOCKED: ATOM     21  C   UNL d   1      26.835  19.022  25.782 -0.19 +0.00    -0.025 A 
DOCKED: ATOM     22  C   UNL d   1      27.641  18.481  24.801 -0.20 -0.00    -0.021 A 
DOCKED: ATOM     23  C   UNL d   1      28.708  17.856  25.457 -0.17 +0.00    +0.066 A 
DOCKED: ATOM     24  C   UNL d   1      25.554  19.787  25.542 -0.19 -0.01    +0.051 C 
DOCKED: ATOM     25  N   UNL d   1      30.781  16.139  26.827 +0.00 +0.05    -0.248 N 
DOCKED: ATOM     26  N   UNL d   1      30.657  15.901  29.669 -0.06 +0.06    -0.248 N 
DOCKED: ATOM     27  N   UNL d   1      28.434  17.723  29.672 -0.09 -0.01    -0.248 N 
DOCKED: ATOM     28  N   UNL d   1      28.563  17.959  26.801 -0.09 -0.02    -0.248 N 
DOCKED: ATOM     29 FE   UNL d   1      29.608  16.931  28.235 -0.04 +0.00    +0.000 Fe
DOCKED: ENDROOT
DOCKED: BRANCH   6  30
DOCKED: ATOM     30  C   UNL d   1      32.164  15.886  23.427 -0.26 +0.01    +0.052 C 
DOCKED: BRANCH  30  31
DOCKED: ATOM     31  C   UNL d   1      31.499  14.754  22.650 -0.10 +0.03    +0.115 C 
DOCKED: BRANCH  31  32
DOCKED: ATOM     32  C   UNL d   1      30.657  15.307  21.534 -0.06 +0.14    +0.139 C 
DOCKED: ATOM     33  O   UNL d   1      31.179  15.822  20.555 -0.38 -0.89    -0.650 OA
DOCKED: BRANCH  32  34
DOCKED: ATOM     34  O   UNL d   1      29.317  15.238  21.602 -0.27 -1.05    -0.776 OA
DOCKED: ATOM     35  H   UNL d   1      28.825  15.996  21.950 +0.03 +0.20    +0.167 HD
DOCKED: ENDBRANCH  32  34
DOCKED: ENDBRANCH  31  32
DOCKED: ENDBRANCH  30  31
DOCKED: ENDBRANCH   6  30
DOCKED: BRANCH  22  36
DOCKED: ATOM     36  C   UNL d   1      27.371  18.522  23.320 -0.17 +0.01    +0.052 C 
DOCKED: BRANCH  36  37
DOCKED: ATOM     37  C   UNL d   1      28.137  19.676  22.690 -0.04 +0.02    +0.115 C 
DOCKED: BRANCH  37  38
DOCKED: ATOM     38  C   UNL d   1      29.298  19.174  21.879 -0.44 +0.07    +0.139 C 
DOCKED: ATOM     39  O   UNL d   1      30.331  19.822  21.799 -0.07 -0.20    -0.650 OA
DOCKED: BRANCH  38  40
DOCKED: ATOM     40  O   UNL d   1      29.204  18.001  21.229 +0.22 -1.17    -0.776 OA
DOCKED: ATOM     41  H   UNL d   1      29.850  17.306  21.418 +0.06 +0.26    +0.167 HD
DOCKED: ENDBRANCH  38  40
DOCKED: ENDBRANCH  37  38
DOCKED: ENDBRANCH  36  37
DOCKED: ENDBRANCH  22  36
DOCKED: BRANCH  12  42
DOCKED: ATOM     42  C   UNL d   1      31.187  14.461  33.077 -0.00 -0.00    +0.004 C 
DOCKED: ATOM     43  C   UNL d   1      31.555  15.313  34.042 -0.00 -0.00    +0.012 C 
DOCKED: ENDBRANCH  12  42
DOCKED: BRANCH  17  44
DOCKED: ATOM     44  C   UNL d   1      25.989  20.150  30.999 -0.14 -0.00    +0.004 C 
DOCKED: ATOM     45  C   UNL d   1      24.719  19.983  30.619 -0.10 -0.00    +0.012 C 
DOCKED: ENDBRANCH  17  44
DOCKED: TORSDOF 10
DOCKED: TER
DOCKED: ENDMDL
________________________________________________________________________________


	BEGINNING GENETIC ALGORITHM DOCKING 92 of 100
Run: 92 Seed: 485341403 133696427 [ Run 92 of 100 GA/GALS ]
Beginning LAMARCKIAN GENETIC ALGORITHM (LGA), with a maximum of 25000000 energy evaluations.

Final-Value: -11.852


	FINAL GENETIC ALGORITHM DOCKED STATE
	_______________________________________________


Detailed state:  trans 23.856 16.073 14.671 quatxyzw 0.075206 -0.591608 -0.308543 0.741044 center -0.174 -0.001 -0.047 ntor 10 -55.9559 -62.9007 177.4449 -123.7250 102.4534 87.2943 -96.3065 106.6773 161.9807 -174.4893
State:	 23.856  16.073  14.671   0.112 -0.881 -0.460 84.359    -55.96  -62.90  177.44 -123.73  102.45   87.29  -96.31  106.68  161.98 -174.49

DOCKED: MODEL       92
DOCKED: USER    Run = 92
DOCKED: USER    DPF = D:/Protein_go_brrr/autodock/final/6BB5/heme_Fe/dock.dpf
DOCKED: USER  
DOCKED: USER    Estimated Free Energy of Binding    =   -6.27 kcal/mol  [=(1)+(2)+(3)-(4)]
DOCKED: USER    Estimated Inhibition Constant, Ki   =   25.23 uM (micromolar)  [Temperature = 298.15 K]
DOCKED: USER    
DOCKED: USER    (1) Final Intermolecular Energy     =   -9.26 kcal/mol
DOCKED: USER        vdW + Hbond + desolv Energy     =   -6.41 kcal/mol
DOCKED: USER        Electrostatic Energy            =   -2.85 kcal/mol
DOCKED: USER    (2) Final Total Internal Energy     =   -2.60 kcal/mol
DOCKED: USER    (3) Torsional Free Energy           =   +2.98 kcal/mol
DOCKED: USER    (4) Unbound System's Energy  [=(2)] =   -2.60 kcal/mol
DOCKED: USER    
DOCKED: USER    
DOCKED: USER    NEWDPF move heme_Fe_opt.pdbqt
DOCKED: USER    NEWDPF about -0.174000 -0.001000 -0.047000
DOCKED: USER    NEWDPF tran0 23.856427 16.073180 14.671387
DOCKED: USER    NEWDPF quaternion0 0.075206 -0.591608 -0.308543 0.741044
DOCKED: USER    NEWDPF axisangle0 0.112004 -0.881081 -0.459512 84.359226
DOCKED: USER    NEWDPF quat0 0.112004 -0.881081 -0.459512 84.359226
DOCKED: USER    NEWDPF dihe0 -55.96 -62.90 177.44 -123.73 102.45 87.29 -96.31 106.68 161.98 -174.49 
DOCKED: USER  keepresnum = 1 
DOCKED: USER  
DOCKED: REMARK  10 active torsions:
DOCKED: REMARK  status: ('A' for Active; 'I' for Inactive)
DOCKED: REMARK    1  A    between atoms: C_6  and  C_10 
DOCKED: REMARK    2  A    between atoms: C_10  and  C_11 
DOCKED: REMARK    3  A    between atoms: C_11  and  C_12 
DOCKED: REMARK    4  A    between atoms: C_12  and  O_14 
DOCKED: REMARK    5  A    between atoms: C_17  and  C_20 
DOCKED: REMARK    6  A    between atoms: C_24  and  C_27 
DOCKED: REMARK    7  A    between atoms: C_31  and  C_34 
DOCKED: REMARK    8  A    between atoms: C_34  and  C_35 
DOCKED: REMARK    9  A    between atoms: C_35  and  C_36 
DOCKED: REMARK   10  A    between atoms: C_36  and  O_38 
DOCKED: USER                              x       y       z     vdW  Elec       q    Type
DOCKED: USER                           _______ _______ _______ _____ _____    ______ ____
DOCKED: ROOT
DOCKED: ATOM      1  C   UNL d   1      24.113  15.550  16.639 -0.12 +0.03    +0.064 C 
DOCKED: ATOM      2  C   UNL d   1      26.169  14.148  12.368 -0.09 +0.01    +0.064 A 
DOCKED: ATOM      3  C   UNL d   1      24.257  18.016  10.258 -0.14 +0.01    +0.064 C 
DOCKED: ATOM      4  C   UNL d   1      22.172  19.335  14.357 -0.37 +0.02    +0.064 C 
DOCKED: ATOM      5  C   UNL d   1      24.800  14.752  15.614 -0.07 +0.03    +0.066 A 
DOCKED: ATOM      6  C   UNL d   1      25.378  13.512  15.832 -0.06 -0.01    -0.021 A 
DOCKED: ATOM      7  C   UNL d   1      25.952  13.125  14.646 -0.05 -0.01    -0.025 A 
DOCKED: ATOM      8  C   UNL d   1      25.701  14.145  13.749 -0.08 +0.02    +0.066 A 
DOCKED: ATOM      9  C   UNL d   1      26.679  11.840  14.396 -0.02 +0.01    +0.051 C 
DOCKED: ATOM     10  C   UNL d   1      25.893  15.092  11.466 -0.11 +0.01    +0.066 A 
DOCKED: ATOM     11  C   UNL d   1      26.449  15.125  10.185 -0.09 -0.00    -0.021 A 
DOCKED: ATOM     12  C   UNL d   1      25.927  16.241   9.562 -0.10 +0.00    +0.000 A 
DOCKED: ATOM     13  C   UNL d   1      25.077  16.841  10.507 -0.13 +0.01    +0.070 A 
DOCKED: ATOM     14  C   UNL d   1      27.481  14.179   9.606 -0.07 +0.01    +0.052 C 
DOCKED: ATOM     15  C   UNL d   1      23.478  18.628  11.181 -0.16 +0.01    +0.066 A 
DOCKED: ATOM     16  C   UNL d   1      22.633  19.688  10.878 -0.19 -0.00    -0.021 A 
DOCKED: ATOM     17  C   UNL d   1      22.034  20.073  12.059 -0.32 +0.00    +0.000 A 
DOCKED: ATOM     18  C   UNL d   1      22.530  19.238  13.058 -0.28 +0.02    +0.070 A 
DOCKED: ATOM     19  C   UNL d   1      22.416  20.334   9.536 -0.15 +0.01    +0.052 C 
DOCKED: ATOM     20  C   UNL d   1      22.626  18.436  15.425 -0.27 +0.03    +0.066 A 
DOCKED: ATOM     21  C   UNL d   1      22.426  18.642  16.797 -0.26 -0.01    -0.025 A 
DOCKED: ATOM     22  C   UNL d   1      22.976  17.545  17.428 -0.23 -0.01    -0.021 A 
DOCKED: ATOM     23  C   UNL d   1      23.493  16.721  16.421 -0.14 +0.03    +0.066 A 
DOCKED: ATOM     24  C   UNL d   1      21.758  19.808  17.488 -0.18 -0.00    +0.051 C 
DOCKED: ATOM     25  N   UNL d   1      24.992  15.129  14.338 -0.00 -0.09    -0.248 N 
DOCKED: ATOM     26  N   UNL d   1      25.063  16.146  11.671 -0.08 -0.06    -0.248 N 
DOCKED: ATOM     27  N   UNL d   1      23.384  18.321  12.512 -0.11 -0.06    -0.248 N 
DOCKED: ATOM     28  N   UNL d   1      23.317  17.291  15.205 -0.08 -0.11    -0.248 N 
DOCKED: ATOM     29 FE   UNL d   1      24.189  16.720  13.438 -0.05 +0.00    +0.000 Fe
DOCKED: ENDROOT
DOCKED: BRANCH   6  30
DOCKED: ATOM     30  C   UNL d   1      25.368  12.723  17.096 -0.02 +0.02    +0.052 C 
DOCKED: BRANCH  30  31
DOCKED: ATOM     31  C   UNL d   1      26.753  12.707  17.734 -0.04 +0.05    +0.115 C 
DOCKED: BRANCH  31  32
DOCKED: ATOM     32  C   UNL d   1      26.968  13.945  18.559 -0.06 +0.14    +0.139 C 
DOCKED: ATOM     33  O   UNL d   1      26.879  13.905  19.778 -0.06 -0.57    -0.650 OA
DOCKED: BRANCH  32  34
DOCKED: ATOM     34  O   UNL d   1      27.260  15.112  17.960 -0.17 -1.54    -0.776 OA
DOCKED: ATOM     35  H   UNL d   1      26.696  15.881  18.129 +0.04 +0.30    +0.167 HD
DOCKED: ENDBRANCH  32  34
DOCKED: ENDBRANCH  31  32
DOCKED: ENDBRANCH  30  31
DOCKED: ENDBRANCH   6  30
DOCKED: BRANCH  22  36
DOCKED: ATOM     36  C   UNL d   1      23.043  17.328  18.916 -0.18 +0.01    +0.052 C 
DOCKED: BRANCH  36  37
DOCKED: ATOM     37  C   UNL d   1      24.161  18.174  19.509 -0.25 +0.03    +0.115 C 
DOCKED: BRANCH  37  38
DOCKED: ATOM     38  C   UNL d   1      25.507  17.591  19.182 -0.29 +0.10    +0.139 C 
DOCKED: ATOM     39  O   UNL d   1      26.079  17.882  18.142 -0.19 -0.58    -0.650 OA
DOCKED: BRANCH  38  40
DOCKED: ATOM     40  O   UNL d   1      26.094  16.736  20.039 -0.07 -0.93    -0.776 OA
DOCKED: ATOM     41  H   UNL d   1      26.263  15.827  19.754 +0.03 +0.23    +0.167 HD
DOCKED: ENDBRANCH  38  40
DOCKED: ENDBRANCH  37  38
DOCKED: ENDBRANCH  36  37
DOCKED: ENDBRANCH  22  36
DOCKED: BRANCH  12  42
DOCKED: ATOM     42  C   UNL d   1      26.257  16.677   8.170 -0.07 +0.00    +0.004 C 
DOCKED: ATOM     43  C   UNL d   1      26.530  17.959   7.896 -0.07 +0.00    +0.012 C 
DOCKED: ENDBRANCH  12  42
DOCKED: BRANCH  17  44
DOCKED: ATOM     44  C   UNL d   1      21.035  21.154  12.218 -0.44 +0.00    +0.004 C 
DOCKED: ATOM     45  C   UNL d   1      21.386  22.436  12.078 -0.56 +0.00    +0.012 C 
DOCKED: ENDBRANCH  17  44
DOCKED: TORSDOF 10
DOCKED: TER
DOCKED: ENDMDL
________________________________________________________________________________


	BEGINNING GENETIC ALGORITHM DOCKING 93 of 100
Run: 93 Seed: 493249965 248751393 [ Run 93 of 100 GA/GALS ]
Beginning LAMARCKIAN GENETIC ALGORITHM (LGA), with a maximum of 25000000 energy evaluations.

Final-Value: -16.110


	FINAL GENETIC ALGORITHM DOCKED STATE
	_______________________________________________


Detailed state:  trans 41.710 28.407 15.940 quatxyzw 0.240575 0.100887 -0.947571 0.184537 center -0.174 -0.001 -0.047 ntor 10 63.0360 -41.5665 70.4418 -142.1011 -163.9804 5.9253 7.7478 12.8632 -147.2478 -4.5809
State:	 41.710  28.407  15.940   0.245  0.103 -0.964 158.732     63.04  -41.57   70.44 -142.10 -163.98    5.93    7.75   12.86 -147.25   -4.58

DOCKED: MODEL       93
DOCKED: USER    Run = 93
DOCKED: USER    DPF = D:/Protein_go_brrr/autodock/final/6BB5/heme_Fe/dock.dpf
DOCKED: USER  
DOCKED: USER    Estimated Free Energy of Binding    =  -12.65 kcal/mol  [=(1)+(2)+(3)-(4)]
DOCKED: USER    Estimated Inhibition Constant, Ki   =  534.67 pM (picomolar)  [Temperature = 298.15 K]
DOCKED: USER    
DOCKED: USER    (1) Final Intermolecular Energy     =  -15.63 kcal/mol
DOCKED: USER        vdW + Hbond + desolv Energy     =  -13.73 kcal/mol
DOCKED: USER        Electrostatic Energy            =   -1.90 kcal/mol
DOCKED: USER    (2) Final Total Internal Energy     =   -0.48 kcal/mol
DOCKED: USER    (3) Torsional Free Energy           =   +2.98 kcal/mol
DOCKED: USER    (4) Unbound System's Energy  [=(2)] =   -0.48 kcal/mol
DOCKED: USER    
DOCKED: USER    
DOCKED: USER    NEWDPF move heme_Fe_opt.pdbqt
DOCKED: USER    NEWDPF about -0.174000 -0.001000 -0.047000
DOCKED: USER    NEWDPF tran0 41.710473 28.406798 15.940336
DOCKED: USER    NEWDPF quaternion0 0.240575 0.100887 -0.947571 0.184537
DOCKED: USER    NEWDPF axisangle0 0.244779 0.102650 -0.964130 158.731731
DOCKED: USER    NEWDPF quat0 0.244779 0.102650 -0.964130 158.731731
DOCKED: USER    NEWDPF dihe0 63.04 -41.57 70.44 -142.10 -163.98 5.93 7.75 12.86 -147.25 -4.58 
DOCKED: USER  keepresnum = 1 
DOCKED: USER  
DOCKED: REMARK  10 active torsions:
DOCKED: REMARK  status: ('A' for Active; 'I' for Inactive)
DOCKED: REMARK    1  A    between atoms: C_6  and  C_10 
DOCKED: REMARK    2  A    between atoms: C_10  and  C_11 
DOCKED: REMARK    3  A    between atoms: C_11  and  C_12 
DOCKED: REMARK    4  A    between atoms: C_12  and  O_14 
DOCKED: REMARK    5  A    between atoms: C_17  and  C_20 
DOCKED: REMARK    6  A    between atoms: C_24  and  C_27 
DOCKED: REMARK    7  A    between atoms: C_31  and  C_34 
DOCKED: REMARK    8  A    between atoms: C_34  and  C_35 
DOCKED: REMARK    9  A    between atoms: C_35  and  C_36 
DOCKED: REMARK   10  A    between atoms: C_36  and  O_38 
DOCKED: USER                              x       y       z     vdW  Elec       q    Type
DOCKED: USER                           _______ _______ _______ _____ _____    ______ ____
DOCKED: ROOT
DOCKED: ATOM      1  C   UNL d   1      43.083  27.617  17.246 -0.20 +0.02    +0.064 C 
DOCKED: ATOM      2  C   UNL d   1      41.199  32.122  16.480 -0.41 +0.01    +0.064 A 
DOCKED: ATOM      3  C   UNL d   1      37.708  30.139  13.844 -0.38 +0.01    +0.064 C 
DOCKED: ATOM      4  C   UNL d   1      39.574  25.781  14.485 -0.47 +0.01    +0.064 C 
DOCKED: ATOM      5  C   UNL d   1      42.924  29.077  17.206 -0.24 +0.02    +0.066 A 
DOCKED: ATOM      6  C   UNL d   1      43.810  29.985  17.763 -0.29 -0.01    -0.021 A 
DOCKED: ATOM      7  C   UNL d   1      43.284  31.235  17.554 -0.28 -0.01    -0.025 A 
DOCKED: ATOM      8  C   UNL d   1      42.096  31.043  16.875 -0.35 +0.01    +0.066 A 
DOCKED: ATOM      9  C   UNL d   1      43.904  32.535  17.968 -0.31 +0.01    +0.051 C 
DOCKED: ATOM     10  C   UNL d   1      40.077  31.969  15.775 -0.37 +0.01    +0.066 A 
DOCKED: ATOM     11  C   UNL d   1      39.180  33.007  15.511 -0.41 -0.00    -0.021 A 
DOCKED: ATOM     12  C   UNL d   1      38.156  32.457  14.766 -0.39 +0.00    +0.000 A 
DOCKED: ATOM     13  C   UNL d   1      38.480  31.097  14.620 -0.35 +0.01    +0.070 A 
DOCKED: ATOM     14  C   UNL d   1      39.260  34.438  16.003 -0.52 +0.00    +0.052 C 
DOCKED: ATOM     15  C   UNL d   1      37.988  28.819  13.743 -0.33 +0.01    +0.066 A 
DOCKED: ATOM     16  C   UNL d   1      37.285  27.956  12.912 -0.47 -0.00    -0.021 A 
DOCKED: ATOM     17  C   UNL d   1      37.820  26.697  13.098 -0.45 +0.00    +0.000 A 
DOCKED: ATOM     18  C   UNL d   1      38.835  26.822  14.043 -0.37 +0.01    +0.070 A 
DOCKED: ATOM     19  C   UNL d   1      36.139  28.293  11.996 -0.65 +0.01    +0.052 C 
DOCKED: ATOM     20  C   UNL d   1      40.691  25.884  15.432 -0.38 +0.01    +0.066 A 
DOCKED: ATOM     21  C   UNL d   1      41.332  24.800  16.049 -0.39 -0.00    -0.025 A 
DOCKED: ATOM     22  C   UNL d   1      42.337  25.346  16.822 -0.35 -0.00    -0.021 A 
DOCKED: ATOM     23  C   UNL d   1      42.265  26.734  16.651 -0.30 +0.01    +0.066 A 
DOCKED: ATOM     24  C   UNL d   1      41.020  23.327  15.928 -0.50 +0.00    +0.051 C 
DOCKED: ATOM     25  N   UNL d   1      41.885  29.730  16.656 -0.23 -0.05    -0.248 N 
DOCKED: ATOM     26  N   UNL d   1      39.646  30.797  15.242 -0.11 -0.05    -0.248 N 
DOCKED: ATOM     27  N   UNL d   1      38.969  28.132  14.408 -0.09 -0.07    -0.248 N 
DOCKED: ATOM     28  N   UNL d   1      41.231  27.059  15.838 -0.26 -0.05    -0.248 N 
DOCKED: ATOM     29 FE   UNL d   1      40.438  28.926  15.540 -0.09 +0.00    +0.000 Fe
DOCKED: ENDROOT
DOCKED: BRANCH   6  30
DOCKED: ATOM     30  C   UNL d   1      45.101  29.683  18.443 -0.24 +0.02    +0.052 C 
DOCKED: BRANCH  30  31
DOCKED: ATOM     31  C   UNL d   1      44.883  28.749  19.628 -0.22 +0.08    +0.115 C 
DOCKED: BRANCH  31  32
DOCKED: ATOM     32  C   UNL d   1      46.152  28.599  20.421 -0.13 +0.14    +0.139 C 
DOCKED: ATOM     33  O   UNL d   1      46.279  27.688  21.226 -0.51 -1.03    -0.650 OA
DOCKED: BRANCH  32  34
DOCKED: ATOM     34  O   UNL d   1      47.161  29.470  20.250 +0.01 -0.48    -0.776 OA
DOCKED: ATOM     35  H   UNL d   1      48.007  29.147  19.911 +0.02 +0.08    +0.167 HD
DOCKED: ENDBRANCH  32  34
DOCKED: ENDBRANCH  31  32
DOCKED: ENDBRANCH  30  31
DOCKED: ENDBRANCH   6  30
DOCKED: BRANCH  22  36
DOCKED: ATOM     36  C   UNL d   1      43.278  24.577  17.710 -0.32 +0.02    +0.052 C 
DOCKED: BRANCH  36  37
DOCKED: ATOM     37  C   UNL d   1      44.544  24.231  16.939 -0.18 +0.04    +0.115 C 
DOCKED: BRANCH  37  38
DOCKED: ATOM     38  C   UNL d   1      45.372  23.225  17.688 -0.17 +0.07    +0.139 C 
DOCKED: ATOM     39  O   UNL d   1      44.956  22.714  18.717 -0.04 -0.27    -0.650 OA
DOCKED: BRANCH  38  40
DOCKED: ATOM     40  O   UNL d   1      46.589  22.882  17.228 +0.02 -0.61    -0.776 OA
DOCKED: ATOM     41  H   UNL d   1      47.318  22.784  17.856 +0.04 +0.14    +0.167 HD
DOCKED: ENDBRANCH  38  40
DOCKED: ENDBRANCH  37  38
DOCKED: ENDBRANCH  36  37
DOCKED: ENDBRANCH  22  36
DOCKED: BRANCH  12  42
DOCKED: ATOM     42  C   UNL d   1      36.962  33.208  14.267 -0.47 +0.00    +0.004 C 
DOCKED: ATOM     43  C   UNL d   1      36.721  33.324  12.954 -0.52 +0.00    +0.012 C 
DOCKED: ENDBRANCH  12  42
DOCKED: BRANCH  17  44
DOCKED: ATOM     44  C   UNL d   1      37.399  25.461  12.401 -0.42 +0.00    +0.004 C 
DOCKED: ATOM     45  C   UNL d   1      36.413  24.702  12.888 -0.68 +0.00    +0.012 C 
DOCKED: ENDBRANCH  17  44
DOCKED: TORSDOF 10
DOCKED: TER
DOCKED: ENDMDL
________________________________________________________________________________


	BEGINNING GENETIC ALGORITHM DOCKING 94 of 100
Run: 94 Seed: 1376619958 1008496741 [ Run 94 of 100 GA/GALS ]
Beginning LAMARCKIAN GENETIC ALGORITHM (LGA), with a maximum of 25000000 energy evaluations.

Final-Value: -16.974


	FINAL GENETIC ALGORITHM DOCKED STATE
	_______________________________________________


Detailed state:  trans 41.714 28.633 15.975 quatxyzw 0.248078 0.098604 -0.950043 0.161718 center -0.174 -0.001 -0.047 ntor 10 172.9390 -105.6103 71.0134 -133.5812 157.7278 172.6752 -58.7280 -92.1145 -165.4240 -32.1787
State:	 41.714  28.633  15.975   0.251  0.100 -0.963 161.387    172.94 -105.61   71.01 -133.58  157.73  172.68  -58.73  -92.11 -165.42  -32.18

DOCKED: MODEL       94
DOCKED: USER    Run = 94
DOCKED: USER    DPF = D:/Protein_go_brrr/autodock/final/6BB5/heme_Fe/dock.dpf
DOCKED: USER  
DOCKED: USER    Estimated Free Energy of Binding    =  -12.33 kcal/mol  [=(1)+(2)+(3)-(4)]
DOCKED: USER    Estimated Inhibition Constant, Ki   =  915.98 pM (picomolar)  [Temperature = 298.15 K]
DOCKED: USER    
DOCKED: USER    (1) Final Intermolecular Energy     =  -15.31 kcal/mol
DOCKED: USER        vdW + Hbond + desolv Energy     =  -13.32 kcal/mol
DOCKED: USER        Electrostatic Energy            =   -1.99 kcal/mol
DOCKED: USER    (2) Final Total Internal Energy     =   -1.66 kcal/mol
DOCKED: USER    (3) Torsional Free Energy           =   +2.98 kcal/mol
DOCKED: USER    (4) Unbound System's Energy  [=(2)] =   -1.66 kcal/mol
DOCKED: USER    
DOCKED: USER    
DOCKED: USER    NEWDPF move heme_Fe_opt.pdbqt
DOCKED: USER    NEWDPF about -0.174000 -0.001000 -0.047000
DOCKED: USER    NEWDPF tran0 41.713821 28.632571 15.974693
DOCKED: USER    NEWDPF quaternion0 0.248078 0.098604 -0.950043 0.161718
DOCKED: USER    NEWDPF axisangle0 0.251387 0.099920 -0.962715 161.386736
DOCKED: USER    NEWDPF quat0 0.251387 0.099920 -0.962715 161.386736
DOCKED: USER    NEWDPF dihe0 172.94 -105.61 71.01 -133.58 157.73 172.68 -58.73 -92.11 -165.42 -32.18 
DOCKED: USER  keepresnum = 1 
DOCKED: USER  
DOCKED: REMARK  10 active torsions:
DOCKED: REMARK  status: ('A' for Active; 'I' for Inactive)
DOCKED: REMARK    1  A    between atoms: C_6  and  C_10 
DOCKED: REMARK    2  A    between atoms: C_10  and  C_11 
DOCKED: REMARK    3  A    between atoms: C_11  and  C_12 
DOCKED: REMARK    4  A    between atoms: C_12  and  O_14 
DOCKED: REMARK    5  A    between atoms: C_17  and  C_20 
DOCKED: REMARK    6  A    between atoms: C_24  and  C_27 
DOCKED: REMARK    7  A    between atoms: C_31  and  C_34 
DOCKED: REMARK    8  A    between atoms: C_34  and  C_35 
DOCKED: REMARK    9  A    between atoms: C_35  and  C_36 
DOCKED: REMARK   10  A    between atoms: C_36  and  O_38 
DOCKED: USER                              x       y       z     vdW  Elec       q    Type
DOCKED: USER                           _______ _______ _______ _____ _____    ______ ____
DOCKED: ROOT
DOCKED: ATOM      1  C   UNL d   1      43.095  27.925  17.317 -0.18 +0.02    +0.064 C 
DOCKED: ATOM      2  C   UNL d   1      41.040  32.333  16.436 -0.42 +0.01    +0.064 A 
DOCKED: ATOM      3  C   UNL d   1      37.680  30.158  13.780 -0.35 +0.01    +0.064 C 
DOCKED: ATOM      4  C   UNL d   1      39.714  25.894  14.534 -0.47 +0.01    +0.064 C 
DOCKED: ATOM      5  C   UNL d   1      42.877  29.376  17.247 -0.25 +0.02    +0.066 A 
DOCKED: ATOM      6  C   UNL d   1      43.714  30.330  17.802 -0.30 -0.01    -0.021 A 
DOCKED: ATOM      7  C   UNL d   1      43.141  31.553  17.560 -0.29 -0.00    -0.025 A 
DOCKED: ATOM      8  C   UNL d   1      41.974  31.299  16.865 -0.36 +0.01    +0.066 A 
DOCKED: ATOM      9  C   UNL d   1      43.699  32.885  17.959 -0.35 +0.01    +0.051 C 
DOCKED: ATOM     10  C   UNL d   1      39.938  32.120  15.715 -0.37 +0.01    +0.066 A 
DOCKED: ATOM     11  C   UNL d   1      39.003  33.115  15.417 -0.42 -0.00    -0.021 A 
DOCKED: ATOM     12  C   UNL d   1      38.015  32.509  14.666 -0.40 +0.00    +0.000 A 
DOCKED: ATOM     13  C   UNL d   1      38.398  31.162  14.551 -0.36 +0.01    +0.070 A 
DOCKED: ATOM     14  C   UNL d   1      39.015  34.556  15.883 -0.56 +0.00    +0.052 C 
DOCKED: ATOM     15  C   UNL d   1      38.016  28.849  13.709 -0.33 +0.01    +0.066 A 
DOCKED: ATOM     16  C   UNL d   1      37.364  27.942  12.883 -0.47 -0.00    -0.021 A 
DOCKED: ATOM     17  C   UNL d   1      37.946  26.711  13.101 -0.45 +0.00    +0.000 A 
DOCKED: ATOM     18  C   UNL d   1      38.939  26.895  14.061 -0.36 +0.01    +0.070 A 
DOCKED: ATOM     19  C   UNL d   1      36.220  28.215  11.943 -0.65 +0.01    +0.052 C 
DOCKED: ATOM     20  C   UNL d   1      40.809  26.061  15.498 -0.39 +0.01    +0.066 A 
DOCKED: ATOM     21  C   UNL d   1      41.483  25.016  16.145 -0.38 -0.00    -0.025 A 
DOCKED: ATOM     22  C   UNL d   1      42.451  25.617  16.924 -0.34 -0.00    -0.021 A 
DOCKED: ATOM     23  C   UNL d   1      42.325  26.997  16.726 -0.22 +0.02    +0.066 A 
DOCKED: ATOM     24  C   UNL d   1      41.235  23.529  16.047 -0.48 +0.00    +0.051 C 
DOCKED: ATOM     25  N   UNL d   1      41.821  29.975  16.668 -0.23 -0.05    -0.248 N 
DOCKED: ATOM     26  N   UNL d   1      39.565  30.922  15.198 -0.19 -0.05    -0.248 N 
DOCKED: ATOM     27  N   UNL d   1      39.013  28.216  14.403 -0.05 -0.07    -0.248 N 
DOCKED: ATOM     28  N   UNL d   1      41.293  27.264  15.890 -0.25 -0.05    -0.248 N 
DOCKED: ATOM     29 FE   UNL d   1      40.428  29.091  15.543 -0.09 +0.00    +0.000 Fe
DOCKED: ENDROOT
DOCKED: BRANCH   6  30
DOCKED: ATOM     30  C   UNL d   1      45.005  30.094  18.508 -0.25 +0.02    +0.052 C 
DOCKED: BRANCH  30  31
DOCKED: ATOM     31  C   UNL d   1      44.762  29.569  19.919 -0.14 +0.08    +0.115 C 
DOCKED: BRANCH  31  32
DOCKED: ATOM     32  C   UNL d   1      45.422  28.231  20.103 -0.17 +0.13    +0.139 C 
DOCKED: ATOM     33  O   UNL d   1      45.704  27.824  21.222 -0.29 -1.20    -0.650 OA
DOCKED: BRANCH  32  34
DOCKED: ATOM     34  O   UNL d   1      45.710  27.467  19.036 +0.06 -0.43    -0.776 OA
DOCKED: ATOM     35  H   UNL d   1      45.394  27.742  18.163 +0.06 +0.07    +0.167 HD
DOCKED: ENDBRANCH  32  34
DOCKED: ENDBRANCH  31  32
DOCKED: ENDBRANCH  30  31
DOCKED: ENDBRANCH   6  30
DOCKED: BRANCH  22  36
DOCKED: ATOM     36  C   UNL d   1      43.408  24.905  17.842 -0.30 +0.02    +0.052 C 
DOCKED: BRANCH  36  37
DOCKED: ATOM     37  C   UNL d   1      44.340  24.020  17.027 -0.18 +0.04    +0.115 C 
DOCKED: BRANCH  37  38
DOCKED: ATOM     38  C   UNL d   1      45.542  24.792  16.559 -0.17 +0.06    +0.139 C 
DOCKED: ATOM     39  O   UNL d   1      46.471  24.225  16.004 -0.07 -0.46    -0.650 OA
DOCKED: BRANCH  38  40
DOCKED: ATOM     40  O   UNL d   1      45.604  26.121  16.753 +0.05 -0.30    -0.776 OA
DOCKED: ATOM     41  H   UNL d   1      45.777  26.458  17.644 +0.06 +0.07    +0.167 HD
DOCKED: ENDBRANCH  38  40
DOCKED: ENDBRANCH  37  38
DOCKED: ENDBRANCH  36  37
DOCKED: ENDBRANCH  22  36
DOCKED: BRANCH  12  42
DOCKED: ATOM     42  C   UNL d   1      36.801  33.201  14.133 -0.46 +0.00    +0.004 C 
DOCKED: ATOM     43  C   UNL d   1      36.571  33.272  12.815 -0.54 +0.00    +0.012 C 
DOCKED: ENDBRANCH  12  42
DOCKED: BRANCH  17  44
DOCKED: ATOM     44  C   UNL d   1      37.590  25.445  12.421 -0.37 +0.00    +0.004 C 
DOCKED: ATOM     45  C   UNL d   1      36.520  24.740  12.804 -0.68 +0.00    +0.012 C 
DOCKED: ENDBRANCH  17  44
DOCKED: TORSDOF 10
DOCKED: TER
DOCKED: ENDMDL
________________________________________________________________________________


	BEGINNING GENETIC ALGORITHM DOCKING 95 of 100
Run: 95 Seed: 1694522024 1673113821 [ Run 95 of 100 GA/GALS ]
Beginning LAMARCKIAN GENETIC ALGORITHM (LGA), with a maximum of 25000000 energy evaluations.

Final-Value: -9.347


	FINAL GENETIC ALGORITHM DOCKED STATE
	_______________________________________________


Detailed state:  trans 21.633 48.271 -3.025 quatxyzw -0.194475 -0.247299 0.940695 0.126950 center -0.174 -0.001 -0.047 ntor 10 56.3713 -180.0000 -168.3729 169.7183 -21.7277 -96.8266 80.1886 -162.2184 -4.8541 -16.3579
State:	 21.633  48.271  -3.025  -0.196 -0.249  0.948 165.413     56.37 -180.00 -168.37  169.72  -21.73  -96.83   80.19 -162.22   -4.85  -16.36

DOCKED: MODEL       95
DOCKED: USER    Run = 95
DOCKED: USER    DPF = D:/Protein_go_brrr/autodock/final/6BB5/heme_Fe/dock.dpf
DOCKED: USER  
DOCKED: USER    Estimated Free Energy of Binding    =   -4.12 kcal/mol  [=(1)+(2)+(3)-(4)]
DOCKED: USER    Estimated Inhibition Constant, Ki   =  961.31 uM (micromolar)  [Temperature = 298.15 K]
DOCKED: USER    
DOCKED: USER    (1) Final Intermolecular Energy     =   -7.10 kcal/mol
DOCKED: USER        vdW + Hbond + desolv Energy     =   -7.05 kcal/mol
DOCKED: USER        Electrostatic Energy            =   -0.05 kcal/mol
DOCKED: USER    (2) Final Total Internal Energy     =   -2.25 kcal/mol
DOCKED: USER    (3) Torsional Free Energy           =   +2.98 kcal/mol
DOCKED: USER    (4) Unbound System's Energy  [=(2)] =   -2.25 kcal/mol
DOCKED: USER    
DOCKED: USER    
DOCKED: USER    NEWDPF move heme_Fe_opt.pdbqt
DOCKED: USER    NEWDPF about -0.174000 -0.001000 -0.047000
DOCKED: USER    NEWDPF tran0 21.633231 48.270866 -3.024877
DOCKED: USER    NEWDPF quaternion0 -0.194475 -0.247299 0.940695 0.126950
DOCKED: USER    NEWDPF axisangle0 -0.196061 -0.249317 0.948368 165.413215
DOCKED: USER    NEWDPF quat0 -0.196061 -0.249317 0.948368 165.413215
DOCKED: USER    NEWDPF dihe0 56.37 -180.00 -168.37 169.72 -21.73 -96.83 80.19 -162.22 -4.85 -16.36 
DOCKED: USER  keepresnum = 1 
DOCKED: USER  
DOCKED: REMARK  10 active torsions:
DOCKED: REMARK  status: ('A' for Active; 'I' for Inactive)
DOCKED: REMARK    1  A    between atoms: C_6  and  C_10 
DOCKED: REMARK    2  A    between atoms: C_10  and  C_11 
DOCKED: REMARK    3  A    between atoms: C_11  and  C_12 
DOCKED: REMARK    4  A    between atoms: C_12  and  O_14 
DOCKED: REMARK    5  A    between atoms: C_17  and  C_20 
DOCKED: REMARK    6  A    between atoms: C_24  and  C_27 
DOCKED: REMARK    7  A    between atoms: C_31  and  C_34 
DOCKED: REMARK    8  A    between atoms: C_34  and  C_35 
DOCKED: REMARK    9  A    between atoms: C_35  and  C_36 
DOCKED: REMARK   10  A    between atoms: C_36  and  O_38 
DOCKED: USER                              x       y       z     vdW  Elec       q    Type
DOCKED: USER                           _______ _______ _______ _____ _____    ______ ____
DOCKED: ROOT
DOCKED: ATOM      1  C   UNL d   1      23.220  48.330  -1.724 -0.11 +0.00    +0.064 C 
DOCKED: ATOM      2  C   UNL d   1      18.906  50.720  -2.063 -0.23 -0.02    +0.064 A 
DOCKED: ATOM      3  C   UNL d   1      17.397  47.409  -5.198 -0.26 -0.01    +0.064 C 
DOCKED: ATOM      4  C   UNL d   1      21.601  45.139  -4.965 -0.26 +0.00    +0.064 C 
DOCKED: ATOM      5  C   UNL d   1      22.176  49.356  -1.593 -0.09 -0.00    +0.066 A 
DOCKED: ATOM      6  C   UNL d   1      22.303  50.522  -0.856 -0.07 +0.00    -0.021 A 
DOCKED: ATOM      7  C   UNL d   1      21.103  51.183  -0.947 -0.14 +0.00    -0.025 A 
DOCKED: ATOM      8  C   UNL d   1      20.289  50.394  -1.737 -0.17 -0.01    +0.066 A 
DOCKED: ATOM      9  C   UNL d   1      20.774  52.505  -0.325 -0.06 -0.01    +0.051 C 
DOCKED: ATOM     10  C   UNL d   1      18.119  50.005  -2.869 -0.22 -0.02    +0.066 A 
DOCKED: ATOM     11  C   UNL d   1      16.764  50.280  -3.070 -0.31 +0.00    -0.021 A 
DOCKED: ATOM     12  C   UNL d   1      16.301  49.329  -3.957 -0.27 -0.00    +0.000 A 
DOCKED: ATOM     13  C   UNL d   1      17.406  48.510  -4.248 -0.19 -0.02    +0.070 A 
DOCKED: ATOM     14  C   UNL d   1      15.933  51.353  -2.397 -0.25 -0.01    +0.052 C 
DOCKED: ATOM     15  C   UNL d   1      18.444  46.586  -5.442 -0.24 -0.01    +0.066 A 
DOCKED: ATOM     16  C   UNL d   1      18.426  45.609  -6.429 -0.27 +0.00    -0.021 A 
DOCKED: ATOM     17  C   UNL d   1      19.637  44.950  -6.361 -0.28 +0.00    +0.000 A 
DOCKED: ATOM     18  C   UNL d   1      20.364  45.540  -5.330 -0.24 -0.00    +0.070 A 
DOCKED: ATOM     19  C   UNL d   1      17.307  45.287  -7.382 -0.28 -0.00    +0.052 C 
DOCKED: ATOM     20  C   UNL d   1      22.421  45.775  -3.927 -0.22 +0.00    +0.066 A 
DOCKED: ATOM     21  C   UNL d   1      23.612  45.254  -3.403 -0.23 -0.00    -0.025 A 
DOCKED: ATOM     22  C   UNL d   1      24.063  46.185  -2.490 -0.11 -0.00    -0.021 A 
DOCKED: ATOM     23  C   UNL d   1      23.130  47.230  -2.489 -0.13 +0.00    +0.066 A 
DOCKED: ATOM     24  C   UNL d   1      24.296  43.947  -3.733 -0.30 +0.01    +0.051 C 
DOCKED: ATOM     25  N   UNL d   1      20.948  49.288  -2.136 -0.08 +0.03    -0.248 N 
DOCKED: ATOM     26  N   UNL d   1      18.512  48.917  -3.578 -0.08 +0.08    -0.248 N 
DOCKED: ATOM     27  N   UNL d   1      19.649  46.574  -4.793 -0.15 +0.03    -0.248 N 
DOCKED: ATOM     28  N   UNL d   1      22.108  46.953  -3.334 -0.12 +0.01    -0.248 N 
DOCKED: ATOM     29 FE   UNL d   1      20.311  47.933  -3.457 -0.04 -0.00    +0.000 Fe
DOCKED: ENDROOT
DOCKED: BRANCH   6  30
DOCKED: ATOM     30  C   UNL d   1      23.508  50.997  -0.119 -0.04 -0.00    +0.052 C 
DOCKED: BRANCH  30  31
DOCKED: ATOM     31  C   UNL d   1      24.455  51.741  -1.055 -0.01 -0.00    +0.115 C 
DOCKED: BRANCH  31  32
DOCKED: ATOM     32  C   UNL d   1      25.580  50.842  -1.488 -0.00 +0.00    +0.139 C 
DOCKED: ATOM     33  O   UNL d   1      25.884  49.860  -0.825 +0.01 -0.05    -0.650 OA
DOCKED: BRANCH  32  34
DOCKED: ATOM     34  O   UNL d   1      26.265  51.112  -2.612 +0.00 -0.03    -0.776 OA
DOCKED: ATOM     35  H   UNL d   1      26.317  50.438  -3.304 +0.00 +0.01    +0.167 HD
DOCKED: ENDBRANCH  32  34
DOCKED: ENDBRANCH  31  32
DOCKED: ENDBRANCH  30  31
DOCKED: ENDBRANCH   6  30
DOCKED: BRANCH  22  36
DOCKED: ATOM     36  C   UNL d   1      25.294  46.053  -1.633 -0.08 +0.01    +0.052 C 
DOCKED: BRANCH  36  37
DOCKED: ATOM     37  C   UNL d   1      26.527  46.422  -2.446 -0.06 +0.01    +0.115 C 
DOCKED: BRANCH  37  38
DOCKED: ATOM     38  C   UNL d   1      26.147  47.184  -3.684 -0.02 +0.01    +0.139 C 
DOCKED: ATOM     39  O   UNL d   1      26.032  46.614  -4.758 +0.02 -0.04    -0.650 OA
DOCKED: BRANCH  38  40
DOCKED: ATOM     40  O   UNL d   1      25.935  48.511  -3.616 +0.01 -0.04    -0.776 OA
DOCKED: ATOM     41  H   UNL d   1      26.026  48.959  -2.764 +0.01 +0.01    +0.167 HD
DOCKED: ENDBRANCH  38  40
DOCKED: ENDBRANCH  37  38
DOCKED: ENDBRANCH  36  37
DOCKED: ENDBRANCH  22  36
DOCKED: BRANCH  12  42
DOCKED: ATOM     42  C   UNL d   1      14.892  49.232  -4.452 -0.35 -0.00    +0.004 C 
DOCKED: ATOM     43  C   UNL d   1      14.163  48.128  -4.245 -0.51 -0.00    +0.012 C 
DOCKED: ENDBRANCH  12  42
DOCKED: BRANCH  17  44
DOCKED: ATOM     44  C   UNL d   1      20.077  43.843  -7.240 -0.29 +0.00    +0.004 C 
DOCKED: ATOM     45  C   UNL d   1      20.692  42.770  -6.732 -0.35 +0.00    +0.012 C 
DOCKED: ENDBRANCH  17  44
DOCKED: TORSDOF 10
DOCKED: TER
DOCKED: ENDMDL
________________________________________________________________________________


	BEGINNING GENETIC ALGORITHM DOCKING 96 of 100
Run: 96 Seed: 1694854863 16528266 [ Run 96 of 100 GA/GALS ]
Beginning LAMARCKIAN GENETIC ALGORITHM (LGA), with a maximum of 25000000 energy evaluations.

Final-Value: -11.313


	FINAL GENETIC ALGORITHM DOCKED STATE
	_______________________________________________


Detailed state:  trans 35.375 29.072 1.056 quatxyzw -0.963743 0.152064 0.183318 -0.120296 center -0.174 -0.001 -0.047 ntor 10 -17.3542 -47.6985 4.8317 51.9922 111.0983 103.5114 -100.5865 98.0468 167.8974 -168.1469
State:	 35.375  29.072   1.056  -0.971  0.153  0.185 -166.182    -17.35  -47.70    4.83   51.99  111.10  103.51 -100.59   98.05  167.90 -168.15

DOCKED: MODEL       96
DOCKED: USER    Run = 96
DOCKED: USER    DPF = D:/Protein_go_brrr/autodock/final/6BB5/heme_Fe/dock.dpf
DOCKED: USER  
DOCKED: USER    Estimated Free Energy of Binding    =   -5.78 kcal/mol  [=(1)+(2)+(3)-(4)]
DOCKED: USER    Estimated Inhibition Constant, Ki   =   57.71 uM (micromolar)  [Temperature = 298.15 K]
DOCKED: USER    
DOCKED: USER    (1) Final Intermolecular Energy     =   -8.77 kcal/mol
DOCKED: USER        vdW + Hbond + desolv Energy     =   -6.86 kcal/mol
DOCKED: USER        Electrostatic Energy            =   -1.91 kcal/mol
DOCKED: USER    (2) Final Total Internal Energy     =   -2.55 kcal/mol
DOCKED: USER    (3) Torsional Free Energy           =   +2.98 kcal/mol
DOCKED: USER    (4) Unbound System's Energy  [=(2)] =   -2.55 kcal/mol
DOCKED: USER    
DOCKED: USER    
DOCKED: USER    NEWDPF move heme_Fe_opt.pdbqt
DOCKED: USER    NEWDPF about -0.174000 -0.001000 -0.047000
DOCKED: USER    NEWDPF tran0 35.374692 29.071772 1.055633
DOCKED: USER    NEWDPF quaternion0 -0.963743 0.152064 0.183318 -0.120296
DOCKED: USER    NEWDPF axisangle0 -0.970792 0.153177 0.184659 -166.181601
DOCKED: USER    NEWDPF quat0 -0.970792 0.153177 0.184659 -166.181601
DOCKED: USER    NEWDPF dihe0 -17.35 -47.70 4.83 51.99 111.10 103.51 -100.59 98.05 167.90 -168.15 
DOCKED: USER  keepresnum = 1 
DOCKED: USER  
DOCKED: REMARK  10 active torsions:
DOCKED: REMARK  status: ('A' for Active; 'I' for Inactive)
DOCKED: REMARK    1  A    between atoms: C_6  and  C_10 
DOCKED: REMARK    2  A    between atoms: C_10  and  C_11 
DOCKED: REMARK    3  A    between atoms: C_11  and  C_12 
DOCKED: REMARK    4  A    between atoms: C_12  and  O_14 
DOCKED: REMARK    5  A    between atoms: C_17  and  C_20 
DOCKED: REMARK    6  A    between atoms: C_24  and  C_27 
DOCKED: REMARK    7  A    between atoms: C_31  and  C_34 
DOCKED: REMARK    8  A    between atoms: C_34  and  C_35 
DOCKED: REMARK    9  A    between atoms: C_35  and  C_36 
DOCKED: REMARK   10  A    between atoms: C_36  and  O_38 
DOCKED: USER                              x       y       z     vdW  Elec       q    Type
DOCKED: USER                           _______ _______ _______ _____ _____    ______ ____
DOCKED: ROOT
DOCKED: ATOM      1  C   UNL d   1      33.470  29.773   1.358 -0.25 +0.02    +0.064 C 
DOCKED: ATOM      2  C   UNL d   1      37.890  31.882   0.695 -0.17 -0.01    +0.064 A 
DOCKED: ATOM      3  C   UNL d   1      39.593  27.667  -0.853 -0.22 +0.00    +0.064 C 
DOCKED: ATOM      4  C   UNL d   1      35.351  25.580  -0.119 -0.18 -0.01    +0.064 C 
DOCKED: ATOM      5  C   UNL d   1      34.578  30.737   1.394 -0.17 +0.01    +0.066 A 
DOCKED: ATOM      6  C   UNL d   1      34.487  32.028   1.889 -0.18 -0.00    -0.021 A 
DOCKED: ATOM      7  C   UNL d   1      35.714  32.614   1.701 -0.23 -0.00    -0.025 A 
DOCKED: ATOM      8  C   UNL d   1      36.508  31.658   1.098 -0.20 -0.00    +0.066 A 
DOCKED: ATOM      9  C   UNL d   1      36.097  34.006   2.099 -0.30 -0.00    +0.051 C 
DOCKED: ATOM     10  C   UNL d   1      38.695  30.960   0.163 -0.26 -0.01    +0.066 A 
DOCKED: ATOM     11  C   UNL d   1      39.977  31.235  -0.318 -0.26 +0.00    -0.021 A 
DOCKED: ATOM     12  C   UNL d   1      40.483  30.039  -0.785 -0.24 -0.00    +0.000 A 
DOCKED: ATOM     13  C   UNL d   1      39.470  29.088  -0.570 -0.21 -0.00    +0.070 A 
DOCKED: ATOM     14  C   UNL d   1      40.661  32.585  -0.392 -0.30 -0.00    +0.052 C 
DOCKED: ATOM     15  C   UNL d   1      38.603  26.757  -0.696 -0.17 -0.00    +0.066 A 
DOCKED: ATOM     16  C   UNL d   1      38.790  25.393  -0.883 -0.16 +0.00    -0.021 A 
DOCKED: ATOM     17  C   UNL d   1      37.567  24.789  -0.675 -0.14 -0.00    +0.000 A 
DOCKED: ATOM     18  C   UNL d   1      36.660  25.802  -0.370 -0.10 -0.01    +0.070 A 
DOCKED: ATOM     19  C   UNL d   1      40.062  24.684  -1.266 -0.14 -0.00    +0.052 C 
DOCKED: ATOM     20  C   UNL d   1      34.381  26.612   0.265 -0.21 -0.01    +0.066 A 
DOCKED: ATOM     21  C   UNL d   1      32.992  26.433   0.332 -0.19 +0.00    -0.025 A 
DOCKED: ATOM     22  C   UNL d   1      32.477  27.637   0.767 -0.22 -0.00    -0.021 A 
DOCKED: ATOM     23  C   UNL d   1      33.565  28.500   0.941 -0.22 +0.01    +0.066 A 
DOCKED: ATOM     24  C   UNL d   1      32.183  25.201   0.002 -0.07 -0.01    +0.051 C 
DOCKED: ATOM     25  N   UNL d   1      35.816  30.514   0.921 -0.11 -0.02    -0.248 N 
DOCKED: ATOM     26  N   UNL d   1      38.377  29.651  -0.000 -0.18 +0.01    -0.248 N 
DOCKED: ATOM     27  N   UNL d   1      37.305  27.006  -0.340 -0.05 +0.00    -0.248 N 
DOCKED: ATOM     28  N   UNL d   1      34.720  27.883   0.590 +0.07 -0.01    -0.248 N 
DOCKED: ATOM     29 FE   UNL d   1      36.548  28.765   0.295 -0.05 +0.00    +0.000 Fe
DOCKED: ENDROOT
DOCKED: BRANCH   6  30
DOCKED: ATOM     30  C   UNL d   1      33.302  32.667   2.529 -0.21 +0.02    +0.052 C 
DOCKED: BRANCH  30  31
DOCKED: ATOM     31  C   UNL d   1      32.608  33.614   1.556 -0.10 +0.05    +0.115 C 
DOCKED: BRANCH  31  32
DOCKED: ATOM     32  C   UNL d   1      31.744  32.844   0.597 -0.03 +0.10    +0.139 C 
DOCKED: ATOM     33  O   UNL d   1      30.525  32.927   0.652 -0.12 -0.91    -0.650 OA
DOCKED: BRANCH  32  34
DOCKED: ATOM     34  O   UNL d   1      32.306  32.053  -0.332 +0.01 -0.37    -0.776 OA
DOCKED: ATOM     35  H   UNL d   1      31.764  31.380  -0.767 +0.01 +0.09    +0.167 HD
DOCKED: ENDBRANCH  32  34
DOCKED: ENDBRANCH  31  32
DOCKED: ENDBRANCH  30  31
DOCKED: ENDBRANCH   6  30
DOCKED: BRANCH  22  36
DOCKED: ATOM     36  C   UNL d   1      31.017  27.952   0.956 -0.21 +0.03    +0.052 C 
DOCKED: BRANCH  36  37
DOCKED: ATOM     37  C   UNL d   1      30.335  28.059  -0.400 -0.08 +0.05    +0.115 C 
DOCKED: BRANCH  37  38
DOCKED: ATOM     38  C   UNL d   1      30.535  29.423  -0.997 -0.06 +0.08    +0.139 C 
DOCKED: ATOM     39  O   UNL d   1      31.343  29.599  -1.897 +0.02 -0.18    -0.650 OA
DOCKED: BRANCH  38  40
DOCKED: ATOM     40  O   UNL d   1      29.823  30.468  -0.538 +0.06 -1.08    -0.776 OA
DOCKED: ATOM     41  H   UNL d   1      30.281  31.292  -0.325 +0.01 +0.25    +0.167 HD
DOCKED: ENDBRANCH  38  40
DOCKED: ENDBRANCH  37  38
DOCKED: ENDBRANCH  36  37
DOCKED: ENDBRANCH  22  36
DOCKED: BRANCH  12  42
DOCKED: ATOM     42  C   UNL d   1      41.834  29.864  -1.403 -0.32 -0.00    +0.004 C 
DOCKED: ATOM     43  C   UNL d   1      42.939  30.290  -0.777 -0.47 -0.00    +0.012 C 
DOCKED: ENDBRANCH  12  42
DOCKED: BRANCH  17  44
DOCKED: ATOM     44  C   UNL d   1      37.289  23.337  -0.743 -0.10 -0.00    +0.004 C 
DOCKED: ATOM     45  C   UNL d   1      37.091  22.624   0.371 -0.16 -0.00    +0.012 C 
DOCKED: ENDBRANCH  17  44
DOCKED: TORSDOF 10
DOCKED: TER
DOCKED: ENDMDL
________________________________________________________________________________


	BEGINNING GENETIC ALGORITHM DOCKING 97 of 100
Run: 97 Seed: 605992258 1411858424 [ Run 97 of 100 GA/GALS ]
Beginning LAMARCKIAN GENETIC ALGORITHM (LGA), with a maximum of 25000000 energy evaluations.

Final-Value: -13.457


	FINAL GENETIC ALGORITHM DOCKED STATE
	_______________________________________________


Detailed state:  trans 9.599 35.141 -0.232 quatxyzw -0.527723 0.767183 -0.347063 0.111740 center -0.174 -0.001 -0.047 ntor 10 99.1448 -179.7516 28.2446 67.5982 -140.7629 40.2464 71.2332 65.2306 179.1111 -11.7585
State:	  9.599  35.141  -0.232  -0.531  0.772 -0.349 167.169     99.14 -179.75   28.24   67.60 -140.76   40.25   71.23   65.23  179.11  -11.76

DOCKED: MODEL       97
DOCKED: USER    Run = 97
DOCKED: USER    DPF = D:/Protein_go_brrr/autodock/final/6BB5/heme_Fe/dock.dpf
DOCKED: USER  
DOCKED: USER    Estimated Free Energy of Binding    =   -9.93 kcal/mol  [=(1)+(2)+(3)-(4)]
DOCKED: USER    Estimated Inhibition Constant, Ki   =   52.73 nM (nanomolar)  [Temperature = 298.15 K]
DOCKED: USER    
DOCKED: USER    (1) Final Intermolecular Energy     =  -12.91 kcal/mol
DOCKED: USER        vdW + Hbond + desolv Energy     =  -12.81 kcal/mol
DOCKED: USER        Electrostatic Energy            =   -0.10 kcal/mol
DOCKED: USER    (2) Final Total Internal Energy     =   -0.55 kcal/mol
DOCKED: USER    (3) Torsional Free Energy           =   +2.98 kcal/mol
DOCKED: USER    (4) Unbound System's Energy  [=(2)] =   -0.55 kcal/mol
DOCKED: USER    
DOCKED: USER    
DOCKED: USER    NEWDPF move heme_Fe_opt.pdbqt
DOCKED: USER    NEWDPF about -0.174000 -0.001000 -0.047000
DOCKED: USER    NEWDPF tran0 9.598839 35.141370 -0.232163
DOCKED: USER    NEWDPF quaternion0 -0.527723 0.767183 -0.347063 0.111740
DOCKED: USER    NEWDPF axisangle0 -0.531049 0.772018 -0.349251 167.168716
DOCKED: USER    NEWDPF quat0 -0.531049 0.772018 -0.349251 167.168716
DOCKED: USER    NEWDPF dihe0 99.14 -179.75 28.24 67.60 -140.76 40.25 71.23 65.23 179.11 -11.76 
DOCKED: USER  keepresnum = 1 
DOCKED: USER  
DOCKED: REMARK  10 active torsions:
DOCKED: REMARK  status: ('A' for Active; 'I' for Inactive)
DOCKED: REMARK    1  A    between atoms: C_6  and  C_10 
DOCKED: REMARK    2  A    between atoms: C_10  and  C_11 
DOCKED: REMARK    3  A    between atoms: C_11  and  C_12 
DOCKED: REMARK    4  A    between atoms: C_12  and  O_14 
DOCKED: REMARK    5  A    between atoms: C_17  and  C_20 
DOCKED: REMARK    6  A    between atoms: C_24  and  C_27 
DOCKED: REMARK    7  A    between atoms: C_31  and  C_34 
DOCKED: REMARK    8  A    between atoms: C_34  and  C_35 
DOCKED: REMARK    9  A    between atoms: C_35  and  C_36 
DOCKED: REMARK   10  A    between atoms: C_36  and  O_38 
DOCKED: USER                              x       y       z     vdW  Elec       q    Type
DOCKED: USER                           _______ _______ _______ _____ _____    ______ ____
DOCKED: ROOT
DOCKED: ATOM      1  C   UNL d   1      10.583  36.234  -1.664 -0.34 +0.01    +0.064 C 
DOCKED: ATOM      2  C   UNL d   1      11.969  33.014   1.821 +0.03 +0.00    +0.064 A 
DOCKED: ATOM      3  C   UNL d   1       7.386  31.655   2.290 -0.49 +0.00    +0.064 C 
DOCKED: ATOM      4  C   UNL d   1       6.009  34.838  -1.005 -0.24 +0.01    +0.064 C 
DOCKED: ATOM      5  C   UNL d   1      11.387  35.513  -0.667 -0.36 +0.01    +0.066 A 
DOCKED: ATOM      6  C   UNL d   1      12.735  35.727  -0.433 -0.40 -0.00    -0.021 A 
DOCKED: ATOM      7  C   UNL d   1      13.120  34.830   0.532 -0.40 -0.00    -0.025 A 
DOCKED: ATOM      8  C   UNL d   1      11.990  34.102   0.851 -0.35 +0.00    +0.066 A 
DOCKED: ATOM      9  C   UNL d   1      14.491  34.700   1.121 -0.53 +0.00    +0.051 C 
DOCKED: ATOM     10  C   UNL d   1      10.881  32.335   2.189 -0.38 +0.00    +0.066 A 
DOCKED: ATOM     11  C   UNL d   1      10.911  31.223   3.035 -0.43 -0.00    -0.021 A 
DOCKED: ATOM     12  C   UNL d   1       9.604  30.802   3.173 -0.50 +0.00    +0.000 A 
DOCKED: ATOM     13  C   UNL d   1       8.837  31.682   2.389 -0.42 +0.00    +0.070 A 
DOCKED: ATOM     14  C   UNL d   1      12.134  30.552   3.628 -0.57 +0.00    +0.052 C 
DOCKED: ATOM     15  C   UNL d   1       6.648  32.467   1.497 -0.32 +0.00    +0.066 A 
DOCKED: ATOM     16  C   UNL d   1       5.259  32.476   1.506 -0.17 -0.00    -0.021 A 
DOCKED: ATOM     17  C   UNL d   1       4.859  33.391   0.553 -0.29 +0.00    +0.000 A 
DOCKED: ATOM     18  C   UNL d   1       6.016  33.916  -0.017 -0.29 +0.01    +0.070 A 
DOCKED: ATOM     19  C   UNL d   1       4.340  31.641   2.356 -0.30 +0.00    +0.052 C 
DOCKED: ATOM     20  C   UNL d   1       7.206  35.458  -1.587 -0.15 +0.01    +0.066 A 
DOCKED: ATOM     21  C   UNL d   1       7.225  36.259  -2.738 -0.29 -0.00    -0.025 A 
DOCKED: ATOM     22  C   UNL d   1       8.536  36.656  -2.900 -0.38 -0.00    -0.021 A 
DOCKED: ATOM     23  C   UNL d   1       9.263  36.080  -1.851 -0.36 +0.01    +0.066 A 
DOCKED: ATOM     24  C   UNL d   1       6.077  36.632  -3.646 -0.24 +0.00    +0.051 C 
DOCKED: ATOM     25  N   UNL d   1      10.935  34.526   0.127 -0.07 -0.04    -0.248 N 
DOCKED: ATOM     26  N   UNL d   1       9.616  32.611   1.783 -0.25 -0.01    -0.248 N 
DOCKED: ATOM     27  N   UNL d   1       7.116  33.381   0.592 -0.07 -0.03    -0.248 N 
DOCKED: ATOM     28  N   UNL d   1       8.454  35.314  -1.079 +0.04 -0.07    -0.248 N 
DOCKED: ATOM     29 FE   UNL d   1       9.033  33.963   0.351 -0.09 +0.00    +0.000 Fe
DOCKED: ENDROOT
DOCKED: BRANCH   6  30
DOCKED: ATOM     30  C   UNL d   1      13.611  36.746  -1.078 -0.49 +0.00    +0.052 C 
DOCKED: BRANCH  30  31
DOCKED: ATOM     31  C   UNL d   1      14.287  36.171  -2.318 -0.50 +0.01    +0.115 C 
DOCKED: BRANCH  31  32
DOCKED: ATOM     32  C   UNL d   1      15.754  35.960  -2.067 -0.27 +0.02    +0.139 C 
DOCKED: ATOM     33  O   UNL d   1      16.577  36.201  -2.939 -0.05 -0.09    -0.650 OA
DOCKED: BRANCH  32  34
DOCKED: ATOM     34  O   UNL d   1      16.176  35.501  -0.876 +0.14 -0.14    -0.776 OA
DOCKED: ATOM     35  H   UNL d   1      16.261  36.120  -0.138 +0.14 +0.02    +0.167 HD
DOCKED: ENDBRANCH  32  34
DOCKED: ENDBRANCH  31  32
DOCKED: ENDBRANCH  30  31
DOCKED: ENDBRANCH   6  30
DOCKED: BRANCH  22  36
DOCKED: ATOM     36  C   UNL d   1       9.066  37.501  -4.028 -0.44 -0.00    +0.052 C 
DOCKED: BRANCH  36  37
DOCKED: ATOM     37  C   UNL d   1       8.879  38.974  -3.698 -0.22 -0.02    +0.115 C 
DOCKED: BRANCH  37  38
DOCKED: ATOM     38  C   UNL d   1       7.927  39.625  -4.661 -0.28 -0.03    +0.139 C 
DOCKED: ATOM     39  O   UNL d   1       6.923  39.040  -5.040 +0.05 +0.03    -0.650 OA
DOCKED: BRANCH  38  40
DOCKED: ATOM     40  O   UNL d   1       8.179  40.865  -5.119 +0.07 +0.29    -0.776 OA
DOCKED: ATOM     41  H   UNL d   1       8.976  41.324  -4.819 -0.49 -0.12    +0.167 HD
DOCKED: ENDBRANCH  38  40
DOCKED: ENDBRANCH  37  38
DOCKED: ENDBRANCH  36  37
DOCKED: ENDBRANCH  22  36
DOCKED: BRANCH  12  42
DOCKED: ATOM     42  C   UNL d   1       9.164  29.628   3.988 -0.67 +0.00    +0.004 C 
DOCKED: ATOM     43  C   UNL d   1       9.104  29.699   5.324 -0.66 -0.00    +0.012 C 
DOCKED: ENDBRANCH  12  42
DOCKED: BRANCH  17  44
DOCKED: ATOM     44  C   UNL d   1       3.462  33.755   0.226 -0.27 +0.00    +0.004 C 
DOCKED: ATOM     45  C   UNL d   1       3.040  35.019   0.333 -0.26 +0.00    +0.012 C 
DOCKED: ENDBRANCH  17  44
DOCKED: TORSDOF 10
DOCKED: TER
DOCKED: ENDMDL
________________________________________________________________________________


	BEGINNING GENETIC ALGORITHM DOCKING 98 of 100
Run: 98 Seed: 222688302 1546074698 [ Run 98 of 100 GA/GALS ]
Beginning LAMARCKIAN GENETIC ALGORITHM (LGA), with a maximum of 25000000 energy evaluations.

Final-Value: -15.075


	FINAL GENETIC ALGORITHM DOCKED STATE
	_______________________________________________


Detailed state:  trans 41.258 28.688 16.547 quatxyzw -0.129307 -0.928544 -0.084023 0.337676 center -0.174 -0.001 -0.047 ntor 10 107.5260 -53.1272 72.1827 -124.4223 142.1668 -145.7354 62.1790 -64.1319 -11.0659 -180.0000
State:	 41.258  28.688  16.547  -0.137 -0.986 -0.089 140.529    107.53  -53.13   72.18 -124.42  142.17 -145.74   62.18  -64.13  -11.07 -180.00

DOCKED: MODEL       98
DOCKED: USER    Run = 98
DOCKED: USER    DPF = D:/Protein_go_brrr/autodock/final/6BB5/heme_Fe/dock.dpf
DOCKED: USER  
DOCKED: USER    Estimated Free Energy of Binding    =  -11.40 kcal/mol  [=(1)+(2)+(3)-(4)]
DOCKED: USER    Estimated Inhibition Constant, Ki   =    4.42 nM (nanomolar)  [Temperature = 298.15 K]
DOCKED: USER    
DOCKED: USER    (1) Final Intermolecular Energy     =  -14.38 kcal/mol
DOCKED: USER        vdW + Hbond + desolv Energy     =  -13.25 kcal/mol
DOCKED: USER        Electrostatic Energy            =   -1.13 kcal/mol
DOCKED: USER    (2) Final Total Internal Energy     =   -0.70 kcal/mol
DOCKED: USER    (3) Torsional Free Energy           =   +2.98 kcal/mol
DOCKED: USER    (4) Unbound System's Energy  [=(2)] =   -0.70 kcal/mol
DOCKED: USER    
DOCKED: USER    
DOCKED: USER    NEWDPF move heme_Fe_opt.pdbqt
DOCKED: USER    NEWDPF about -0.174000 -0.001000 -0.047000
DOCKED: USER    NEWDPF tran0 41.258468 28.687727 16.547242
DOCKED: USER    NEWDPF quaternion0 -0.129307 -0.928544 -0.084023 0.337676
DOCKED: USER    NEWDPF axisangle0 -0.137376 -0.986488 -0.089267 140.529305
DOCKED: USER    NEWDPF quat0 -0.137376 -0.986488 -0.089267 140.529305
DOCKED: USER    NEWDPF dihe0 107.53 -53.13 72.18 -124.42 142.17 -145.74 62.18 -64.13 -11.07 -180.00 
DOCKED: USER  keepresnum = 1 
DOCKED: USER  
DOCKED: REMARK  10 active torsions:
DOCKED: REMARK  status: ('A' for Active; 'I' for Inactive)
DOCKED: REMARK    1  A    between atoms: C_6  and  C_10 
DOCKED: REMARK    2  A    between atoms: C_10  and  C_11 
DOCKED: REMARK    3  A    between atoms: C_11  and  C_12 
DOCKED: REMARK    4  A    between atoms: C_12  and  O_14 
DOCKED: REMARK    5  A    between atoms: C_17  and  C_20 
DOCKED: REMARK    6  A    between atoms: C_24  and  C_27 
DOCKED: REMARK    7  A    between atoms: C_31  and  C_34 
DOCKED: REMARK    8  A    between atoms: C_34  and  C_35 
DOCKED: REMARK    9  A    between atoms: C_35  and  C_36 
DOCKED: REMARK   10  A    between atoms: C_36  and  O_38 
DOCKED: USER                              x       y       z     vdW  Elec       q    Type
DOCKED: USER                           _______ _______ _______ _____ _____    ______ ____
DOCKED: ROOT
DOCKED: ATOM      1  C   UNL d   1      43.056  28.080  17.329 -0.15 +0.02    +0.064 C 
DOCKED: ATOM      2  C   UNL d   1      39.623  25.984  14.456 -0.40 +0.01    +0.064 A 
DOCKED: ATOM      3  C   UNL d   1      37.718  30.325  13.684 -0.40 +0.01    +0.064 C 
DOCKED: ATOM      4  C   UNL d   1      40.967  32.360  16.545 -0.49 +0.01    +0.064 C 
DOCKED: ATOM      5  C   UNL d   1      42.216  27.077  16.659 -0.27 +0.02    +0.066 A 
DOCKED: ATOM      6  C   UNL d   1      42.395  25.707  16.751 -0.34 -0.00    -0.021 A 
DOCKED: ATOM      7  C   UNL d   1      41.444  25.126  15.950 -0.39 -0.00    -0.025 A 
DOCKED: ATOM      8  C   UNL d   1      40.720  26.165  15.399 -0.39 +0.01    +0.066 A 
DOCKED: ATOM      9  C   UNL d   1      41.238  23.656  15.748 -0.51 +0.01    +0.051 C 
DOCKED: ATOM     10  C   UNL d   1      38.872  26.966  13.954 -0.36 +0.01    +0.066 A 
DOCKED: ATOM     11  C   UNL d   1      37.904  26.772  12.966 -0.44 -0.00    -0.021 A 
DOCKED: ATOM     12  C   UNL d   1      37.351  28.012  12.713 -0.50 +0.00    +0.000 A 
DOCKED: ATOM     13  C   UNL d   1      38.023  28.908  13.564 -0.32 +0.01    +0.070 A 
DOCKED: ATOM     14  C   UNL d   1      37.569  25.481  12.247 -0.20 +0.01    +0.052 C 
DOCKED: ATOM     15  C   UNL d   1      38.396  31.201  14.463 -0.36 +0.01    +0.066 A 
DOCKED: ATOM     16  C   UNL d   1      38.011  32.525  14.627 -0.38 -0.00    -0.021 A 
DOCKED: ATOM     17  C   UNL d   1      38.949  33.115  15.449 -0.42 +0.00    +0.000 A 
DOCKED: ATOM     18  C   UNL d   1      39.888  32.136  15.764 -0.37 +0.01    +0.070 A 
DOCKED: ATOM     19  C   UNL d   1      36.823  33.219  14.016 -0.43 +0.00    +0.052 C 
DOCKED: ATOM     20  C   UNL d   1      41.942  31.340  16.948 -0.37 +0.01    +0.066 A 
DOCKED: ATOM     21  C   UNL d   1      43.165  31.595  17.585 -0.29 -0.00    -0.025 A 
DOCKED: ATOM     22  C   UNL d   1      43.737  30.360  17.811 -0.30 -0.01    -0.021 A 
DOCKED: ATOM     23  C   UNL d   1      42.850  29.406  17.299 -0.24 +0.02    +0.066 A 
DOCKED: ATOM     24  C   UNL d   1      43.772  32.926  17.962 -0.34 +0.01    +0.051 C 
DOCKED: ATOM     25  N   UNL d   1      41.186  27.351  15.840 -0.24 -0.05    -0.248 N 
DOCKED: ATOM     26  N   UNL d   1      38.956  28.272  14.314 -0.03 -0.07    -0.248 N 
DOCKED: ATOM     27  N   UNL d   1      39.525  30.947  15.194 -0.20 -0.05    -0.248 N 
DOCKED: ATOM     28  N   UNL d   1      41.777  30.012  16.734 -0.23 -0.05    -0.248 N 
DOCKED: ATOM     29 FE   UNL d   1      40.367  29.144  15.524 -0.09 +0.00    +0.000 Fe
DOCKED: ENDROOT
DOCKED: BRANCH   6  30
DOCKED: ATOM     30  C   UNL d   1      43.405  24.983  17.575 -0.30 +0.02    +0.052 C 
DOCKED: BRANCH  30  31
DOCKED: ATOM     31  C   UNL d   1      42.972  24.930  19.036 -0.34 +0.04    +0.115 C 
DOCKED: BRANCH  31  32
DOCKED: ATOM     32  C   UNL d   1      43.964  25.653  19.905 -0.24 +0.08    +0.139 C 
DOCKED: ATOM     33  O   UNL d   1      43.588  26.323  20.856 -0.17 -0.63    -0.650 OA
DOCKED: BRANCH  32  34
DOCKED: ATOM     34  O   UNL d   1      45.279  25.570  19.641 +0.09 -0.45    -0.776 OA
DOCKED: ATOM     35  H   UNL d   1      45.743  24.742  19.827 +0.05 +0.09    +0.167 HD
DOCKED: ENDBRANCH  32  34
DOCKED: ENDBRANCH  31  32
DOCKED: ENDBRANCH  30  31
DOCKED: ENDBRANCH   6  30
DOCKED: BRANCH  22  36
DOCKED: ATOM     36  C   UNL d   1      45.085  30.117  18.438 -0.24 +0.02    +0.052 C 
DOCKED: BRANCH  36  37
DOCKED: ATOM     37  C   UNL d   1      46.174  30.258  17.385 -0.11 +0.03    +0.115 C 
DOCKED: BRANCH  37  38
DOCKED: ATOM     38  C   UNL d   1      47.071  31.424  17.690 -0.14 +0.03    +0.139 C 
DOCKED: ATOM     39  O   UNL d   1      47.560  32.089  16.789 -0.01 -0.11    -0.650 OA
DOCKED: BRANCH  38  40
DOCKED: ATOM     40  O   UNL d   1      47.346  31.743  18.967 +0.06 -0.20    -0.776 OA
DOCKED: ATOM     41  H   UNL d   1      48.269  31.826  19.243 +0.03 +0.04    +0.167 HD
DOCKED: ENDBRANCH  38  40
DOCKED: ENDBRANCH  37  38
DOCKED: ENDBRANCH  36  37
DOCKED: ENDBRANCH  22  36
DOCKED: BRANCH  12  42
DOCKED: ATOM     42  C   UNL d   1      36.275  28.281  11.710 -0.69 +0.00    +0.004 C 
DOCKED: ATOM     43  C   UNL d   1      35.097  28.797  12.085 -0.62 +0.00    +0.012 C 
DOCKED: ENDBRANCH  12  42
DOCKED: BRANCH  17  44
DOCKED: ATOM     44  C   UNL d   1      38.936  34.519  15.919 -0.57 +0.00    +0.004 C 
DOCKED: ATOM     45  C   UNL d   1      39.183  35.526  15.074 -0.61 +0.00    +0.012 C 
DOCKED: ENDBRANCH  17  44
DOCKED: TORSDOF 10
DOCKED: TER
DOCKED: ENDMDL
________________________________________________________________________________


	BEGINNING GENETIC ALGORITHM DOCKING 99 of 100
Run: 99 Seed: 1892181272 424751198 [ Run 99 of 100 GA/GALS ]
Beginning LAMARCKIAN GENETIC ALGORITHM (LGA), with a maximum of 25000000 energy evaluations.

Final-Value: -15.519


	FINAL GENETIC ALGORITHM DOCKED STATE
	_______________________________________________


Detailed state:  trans 41.611 28.124 15.895 quatxyzw -0.240656 -0.110315 0.940734 -0.211978 center -0.174 -0.001 -0.047 ntor 10 75.5937 51.9706 43.4492 -149.9413 -79.6203 158.5308 -12.5638 5.1750 180.0000 15.2278
State:	 41.611  28.124  15.895  -0.246 -0.113  0.963 -155.523     75.59   51.97   43.45 -149.94  -79.62  158.53  -12.56    5.17  180.00   15.23

DOCKED: MODEL       99
DOCKED: USER    Run = 99
DOCKED: USER    DPF = D:/Protein_go_brrr/autodock/final/6BB5/heme_Fe/dock.dpf
DOCKED: USER  
DOCKED: USER    Estimated Free Energy of Binding    =  -12.13 kcal/mol  [=(1)+(2)+(3)-(4)]
DOCKED: USER    Estimated Inhibition Constant, Ki   =    1.28 nM (nanomolar)  [Temperature = 298.15 K]
DOCKED: USER    
DOCKED: USER    (1) Final Intermolecular Energy     =  -15.11 kcal/mol
DOCKED: USER        vdW + Hbond + desolv Energy     =  -13.34 kcal/mol
DOCKED: USER        Electrostatic Energy            =   -1.78 kcal/mol
DOCKED: USER    (2) Final Total Internal Energy     =   -0.41 kcal/mol
DOCKED: USER    (3) Torsional Free Energy           =   +2.98 kcal/mol
DOCKED: USER    (4) Unbound System's Energy  [=(2)] =   -0.41 kcal/mol
DOCKED: USER    
DOCKED: USER    
DOCKED: USER    NEWDPF move heme_Fe_opt.pdbqt
DOCKED: USER    NEWDPF about -0.174000 -0.001000 -0.047000
DOCKED: USER    NEWDPF tran0 41.610968 28.123607 15.894658
DOCKED: USER    NEWDPF quaternion0 -0.240656 -0.110315 0.940734 -0.211978
DOCKED: USER    NEWDPF axisangle0 -0.246252 -0.112881 0.962610 -155.523374
DOCKED: USER    NEWDPF quat0 -0.246252 -0.112881 0.962610 -155.523374
DOCKED: USER    NEWDPF dihe0 75.59 51.97 43.45 -149.94 -79.62 158.53 -12.56 5.17 180.00 15.23 
DOCKED: USER  keepresnum = 1 
DOCKED: USER  
DOCKED: REMARK  10 active torsions:
DOCKED: REMARK  status: ('A' for Active; 'I' for Inactive)
DOCKED: REMARK    1  A    between atoms: C_6  and  C_10 
DOCKED: REMARK    2  A    between atoms: C_10  and  C_11 
DOCKED: REMARK    3  A    between atoms: C_11  and  C_12 
DOCKED: REMARK    4  A    between atoms: C_12  and  O_14 
DOCKED: REMARK    5  A    between atoms: C_17  and  C_20 
DOCKED: REMARK    6  A    between atoms: C_24  and  C_27 
DOCKED: REMARK    7  A    between atoms: C_31  and  C_34 
DOCKED: REMARK    8  A    between atoms: C_34  and  C_35 
DOCKED: REMARK    9  A    between atoms: C_35  and  C_36 
DOCKED: REMARK   10  A    between atoms: C_36  and  O_38 
DOCKED: USER                              x       y       z     vdW  Elec       q    Type
DOCKED: USER                           _______ _______ _______ _____ _____    ______ ____
DOCKED: ROOT
DOCKED: ATOM      1  C   UNL d   1      42.939  27.224  17.175 -0.23 +0.02    +0.064 C 
DOCKED: ATOM      2  C   UNL d   1      41.285  31.841  16.554 -0.40 +0.01    +0.064 A 
DOCKED: ATOM      3  C   UNL d   1      37.705  30.121  13.853 -0.37 +0.01    +0.064 C 
DOCKED: ATOM      4  C   UNL d   1      39.350  25.657  14.354 -0.46 +0.01    +0.064 C 
DOCKED: ATOM      5  C   UNL d   1      42.854  28.691  17.182 -0.13 +0.02    +0.066 A 
DOCKED: ATOM      6  C   UNL d   1      43.782  29.535  17.769 -0.28 -0.01    -0.021 A 
DOCKED: ATOM      7  C   UNL d   1      43.320  30.816  17.600 -0.31 -0.01    -0.025 A 
DOCKED: ATOM      8  C   UNL d   1      42.126  30.706  16.914 -0.34 +0.01    +0.066 A 
DOCKED: ATOM      9  C   UNL d   1      44.003  32.069  18.056 -0.30 +0.01    +0.051 C 
DOCKED: ATOM     10  C   UNL d   1      40.158  31.767  15.844 -0.36 +0.01    +0.066 A 
DOCKED: ATOM     11  C   UNL d   1      39.315  32.856  15.613 -0.40 -0.00    -0.021 A 
DOCKED: ATOM     12  C   UNL d   1      38.266  32.383  14.851 -0.39 +0.00    +0.000 A 
DOCKED: ATOM     13  C   UNL d   1      38.522  31.014  14.660 -0.35 +0.01    +0.070 A 
DOCKED: ATOM     14  C   UNL d   1      39.464  34.265  16.151 -0.43 +0.00    +0.052 C 
DOCKED: ATOM     15  C   UNL d   1      37.919  28.792  13.709 -0.34 +0.01    +0.066 A 
DOCKED: ATOM     16  C   UNL d   1      37.175  27.993  12.850 -0.48 -0.00    -0.021 A 
DOCKED: ATOM     17  C   UNL d   1      37.646  26.704  12.996 -0.46 +0.00    +0.000 A 
DOCKED: ATOM     18  C   UNL d   1      38.664  26.747  13.945 -0.37 +0.01    +0.070 A 
DOCKED: ATOM     19  C   UNL d   1      36.050  28.416  11.946 -0.64 +0.00    +0.052 C 
DOCKED: ATOM     20  C   UNL d   1      40.468  25.673  15.304 -0.39 +0.01    +0.066 A 
DOCKED: ATOM     21  C   UNL d   1      41.052  24.539  15.886 -0.42 -0.00    -0.025 A 
DOCKED: ATOM     22  C   UNL d   1      42.081  25.008  16.676 -0.36 -0.00    -0.021 A 
DOCKED: ATOM     23  C   UNL d   1      42.080  26.403  16.551 -0.32 +0.01    +0.066 A 
DOCKED: ATOM     24  C   UNL d   1      40.668  23.087  15.717 -0.40 +0.00    +0.051 C 
DOCKED: ATOM     25  N   UNL d   1      41.850  29.412  16.653 -0.22 -0.06    -0.248 N 
DOCKED: ATOM     26  N   UNL d   1      39.670  30.636  15.273 -0.03 -0.06    -0.248 N 
DOCKED: ATOM     27  N   UNL d   1      38.862  28.036  14.352 -0.12 -0.06    -0.248 N 
DOCKED: ATOM     28  N   UNL d   1      41.065  26.805  15.748 -0.27 -0.05    -0.248 N 
DOCKED: ATOM     29 FE   UNL d   1      40.367  28.719  15.510 -0.09 +0.00    +0.000 Fe
DOCKED: ENDROOT
DOCKED: BRANCH   6  30
DOCKED: ATOM     30  C   UNL d   1      45.056  29.147  18.439 -0.23 +0.02    +0.052 C 
DOCKED: BRANCH  30  31
DOCKED: ATOM     31  C   UNL d   1      44.833  28.916  19.930 -0.21 +0.09    +0.115 C 
DOCKED: BRANCH  31  32
DOCKED: ATOM     32  C   UNL d   1      46.028  28.238  20.541 -0.13 +0.15    +0.139 C 
DOCKED: ATOM     33  O   UNL d   1      46.189  27.032  20.422 -0.07 -0.61    -0.650 OA
DOCKED: BRANCH  32  34
DOCKED: ATOM     34  O   UNL d   1      46.933  28.956  21.228 -0.28 -0.86    -0.776 OA
DOCKED: ATOM     35  H   UNL d   1      47.784  29.157  20.815 +0.02 +0.11    +0.167 HD
DOCKED: ENDBRANCH  32  34
DOCKED: ENDBRANCH  31  32
DOCKED: ENDBRANCH  30  31
DOCKED: ENDBRANCH   6  30
DOCKED: BRANCH  22  36
DOCKED: ATOM     36  C   UNL d   1      42.982  24.165  17.540 -0.36 +0.01    +0.052 C 
DOCKED: BRANCH  36  37
DOCKED: ATOM     37  C   UNL d   1      44.397  24.187  16.982 -0.18 +0.04    +0.115 C 
DOCKED: BRANCH  37  38
DOCKED: ATOM     38  C   UNL d   1      45.298  23.271  17.761 -0.17 +0.06    +0.139 C 
DOCKED: ATOM     39  O   UNL d   1      46.332  22.844  17.268 -0.00 -0.46    -0.650 OA
DOCKED: BRANCH  38  40
DOCKED: ATOM     40  O   UNL d   1      44.967  22.910  19.013 -0.03 -0.33    -0.776 OA
DOCKED: ATOM     41  H   UNL d   1      45.617  23.021  19.722 +0.05 +0.08    +0.167 HD
DOCKED: ENDBRANCH  38  40
DOCKED: ENDBRANCH  37  38
DOCKED: ENDBRANCH  36  37
DOCKED: ENDBRANCH  22  36
DOCKED: BRANCH  12  42
DOCKED: ATOM     42  C   UNL d   1      37.112  33.208  14.375 -0.47 +0.00    +0.004 C 
DOCKED: ATOM     43  C   UNL d   1      37.150  33.825  13.187 -0.48 +0.00    +0.012 C 
DOCKED: ENDBRANCH  12  42
DOCKED: BRANCH  17  44
DOCKED: ATOM     44  C   UNL d   1      37.166  25.513  12.259 -0.43 +0.00    +0.004 C 
DOCKED: ATOM     45  C   UNL d   1      36.249  24.700  12.794 -0.69 +0.00    +0.012 C 
DOCKED: ENDBRANCH  17  44
DOCKED: TORSDOF 10
DOCKED: TER
DOCKED: ENDMDL
________________________________________________________________________________


	BEGINNING GENETIC ALGORITHM DOCKING 100 of 100
Run: 100 Seed: 13329672 1307683779 [ Run 100 of 100 GA/GALS ]
Beginning LAMARCKIAN GENETIC ALGORITHM (LGA), with a maximum of 25000000 energy evaluations.

Final-Value: -16.795


	FINAL GENETIC ALGORITHM DOCKED STATE
	_______________________________________________


Detailed state:  trans 41.216 28.537 16.558 quatxyzw -0.146013 -0.926024 -0.079880 0.338790 center -0.174 -0.001 -0.047 ntor 10 91.4769 -45.2887 76.3878 -124.2685 -89.5619 170.1762 24.0311 60.6885 0.4567 116.3583
State:	 41.216  28.537  16.558  -0.155 -0.984 -0.085 140.394     91.48  -45.29   76.39 -124.27  -89.56  170.18   24.03   60.69    0.46  116.36

DOCKED: MODEL      100
DOCKED: USER    Run = 100
DOCKED: USER    DPF = D:/Protein_go_brrr/autodock/final/6BB5/heme_Fe/dock.dpf
DOCKED: USER  
DOCKED: USER    Estimated Free Energy of Binding    =  -11.99 kcal/mol  [=(1)+(2)+(3)-(4)]
DOCKED: USER    Estimated Inhibition Constant, Ki   =    1.63 nM (nanomolar)  [Temperature = 298.15 K]
DOCKED: USER    
DOCKED: USER    (1) Final Intermolecular Energy     =  -14.97 kcal/mol
DOCKED: USER        vdW + Hbond + desolv Energy     =  -13.57 kcal/mol
DOCKED: USER        Electrostatic Energy            =   -1.40 kcal/mol
DOCKED: USER    (2) Final Total Internal Energy     =   -1.82 kcal/mol
DOCKED: USER    (3) Torsional Free Energy           =   +2.98 kcal/mol
DOCKED: USER    (4) Unbound System's Energy  [=(2)] =   -1.82 kcal/mol
DOCKED: USER    
DOCKED: USER    
DOCKED: USER    NEWDPF move heme_Fe_opt.pdbqt
DOCKED: USER    NEWDPF about -0.174000 -0.001000 -0.047000
DOCKED: USER    NEWDPF tran0 41.215924 28.537114 16.558216
DOCKED: USER    NEWDPF quaternion0 -0.146013 -0.926024 -0.079880 0.338790
DOCKED: USER    NEWDPF axisangle0 -0.155191 -0.984230 -0.084901 140.393713
DOCKED: USER    NEWDPF quat0 -0.155191 -0.984230 -0.084901 140.393713
DOCKED: USER    NEWDPF dihe0 91.48 -45.29 76.39 -124.27 -89.56 170.18 24.03 60.69 0.46 116.36 
DOCKED: USER  keepresnum = 1 
DOCKED: USER  
DOCKED: REMARK  10 active torsions:
DOCKED: REMARK  status: ('A' for Active; 'I' for Inactive)
DOCKED: REMARK    1  A    between atoms: C_6  and  C_10 
DOCKED: REMARK    2  A    between atoms: C_10  and  C_11 
DOCKED: REMARK    3  A    between atoms: C_11  and  C_12 
DOCKED: REMARK    4  A    between atoms: C_12  and  O_14 
DOCKED: REMARK    5  A    between atoms: C_17  and  C_20 
DOCKED: REMARK    6  A    between atoms: C_24  and  C_27 
DOCKED: REMARK    7  A    between atoms: C_31  and  C_34 
DOCKED: REMARK    8  A    between atoms: C_34  and  C_35 
DOCKED: REMARK    9  A    between atoms: C_35  and  C_36 
DOCKED: REMARK   10  A    between atoms: C_36  and  O_38 
DOCKED: USER                              x       y       z     vdW  Elec       q    Type
DOCKED: USER                           _______ _______ _______ _____ _____    ______ ____
DOCKED: ROOT
DOCKED: ATOM      1  C   UNL d   1      42.991  27.865  17.337 -0.11 +0.02    +0.064 C 
DOCKED: ATOM      2  C   UNL d   1      39.488  25.899  14.457 -0.40 +0.01    +0.064 A 
DOCKED: ATOM      3  C   UNL d   1      37.734  30.306  13.702 -0.40 +0.01    +0.064 C 
DOCKED: ATOM      4  C   UNL d   1      41.052  32.218  16.570 -0.48 +0.01    +0.064 C 
DOCKED: ATOM      5  C   UNL d   1      42.117  26.894  16.664 -0.26 +0.01    +0.066 A 
DOCKED: ATOM      6  C   UNL d   1      42.249  25.518  16.751 -0.35 -0.00    -0.021 A 
DOCKED: ATOM      7  C   UNL d   1      41.278  24.973  15.948 -0.40 -0.00    -0.025 A 
DOCKED: ATOM      8  C   UNL d   1      40.590  26.039  15.401 -0.39 +0.01    +0.066 A 
DOCKED: ATOM      9  C   UNL d   1      41.021  23.512  15.740 -0.52 +0.00    +0.051 C 
DOCKED: ATOM     10  C   UNL d   1      38.771  26.908  13.959 -0.37 +0.01    +0.066 A 
DOCKED: ATOM     11  C   UNL d   1      37.797  26.753  12.970 -0.44 -0.00    -0.021 A 
DOCKED: ATOM     12  C   UNL d   1      37.287  28.012  12.722 -0.50 +0.00    +0.000 A 
DOCKED: ATOM     13  C   UNL d   1      37.990  28.880  13.576 -0.33 +0.01    +0.070 A 
DOCKED: ATOM     14  C   UNL d   1      37.418  25.477  12.247 -0.27 +0.01    +0.052 C 
DOCKED: ATOM     15  C   UNL d   1      38.442  31.155  14.484 -0.36 +0.01    +0.066 A 
DOCKED: ATOM     16  C   UNL d   1      38.103  32.492  14.653 -0.38 -0.00    -0.021 A 
DOCKED: ATOM     17  C   UNL d   1      39.061  33.046  15.477 -0.42 +0.00    +0.000 A 
DOCKED: ATOM     18  C   UNL d   1      39.965  32.033  15.788 -0.36 +0.01    +0.070 A 
DOCKED: ATOM     19  C   UNL d   1      36.940  33.228  14.044 -0.44 +0.00    +0.052 C 
DOCKED: ATOM     20  C   UNL d   1      41.991  31.163  16.969 -0.37 +0.01    +0.066 A 
DOCKED: ATOM     21  C   UNL d   1      43.222  31.373  17.607 -0.29 -0.01    -0.025 A 
DOCKED: ATOM     22  C   UNL d   1      43.751  30.118  17.827 -0.29 -0.01    -0.021 A 
DOCKED: ATOM     23  C   UNL d   1      42.831  29.197  17.312 -0.19 +0.02    +0.066 A 
DOCKED: ATOM     24  C   UNL d   1      43.875  32.680  17.989 -0.32 +0.01    +0.051 C 
DOCKED: ATOM     25  N   UNL d   1      41.097  27.206  15.846 -0.25 -0.05    -0.248 N 
DOCKED: ATOM     26  N   UNL d   1      38.900  28.210  14.324 -0.06 -0.07    -0.248 N 
DOCKED: ATOM     27  N   UNL d   1      39.562  30.860  15.214 -0.15 -0.05    -0.248 N 
DOCKED: ATOM     28  N   UNL d   1      41.780  29.842  16.750 -0.22 -0.05    -0.248 N 
DOCKED: ATOM     29 FE   UNL d   1      40.341  29.028  15.537 -0.09 +0.00    +0.000 Fe
DOCKED: ENDROOT
DOCKED: BRANCH   6  30
DOCKED: ATOM     30  C   UNL d   1      43.232  24.756  17.572 -0.32 +0.01    +0.052 C 
DOCKED: BRANCH  30  31
DOCKED: ATOM     31  C   UNL d   1      42.670  24.468  18.960 -0.37 +0.03    +0.115 C 
DOCKED: BRANCH  31  32
DOCKED: ATOM     32  C   UNL d   1      43.785  24.252  19.945 -0.26 +0.06    +0.139 C 
DOCKED: ATOM     33  O   UNL d   1      44.244  23.134  20.131 -0.51 -0.32    -0.650 OA
DOCKED: BRANCH  32  34
DOCKED: ATOM     34  O   UNL d   1      44.290  25.291  20.631 +0.05 -0.54    -0.776 OA
DOCKED: ATOM     35  H   UNL d   1      45.019  25.798  20.248 +0.06 +0.12    +0.167 HD
DOCKED: ENDBRANCH  32  34
DOCKED: ENDBRANCH  31  32
DOCKED: ENDBRANCH  30  31
DOCKED: ENDBRANCH   6  30
DOCKED: BRANCH  22  36
DOCKED: ATOM     36  C   UNL d   1      45.090  29.826  18.454 -0.24 +0.02    +0.052 C 
DOCKED: BRANCH  36  37
DOCKED: ATOM     37  C   UNL d   1      45.685  28.572  17.830 +0.02 +0.04    +0.115 C 
DOCKED: BRANCH  37  38
DOCKED: ATOM     38  C   UNL d   1      45.918  27.512  18.869 -0.13 +0.07    +0.139 C 
DOCKED: ATOM     39  O   UNL d   1      46.222  26.374  18.543 +0.04 -0.31    -0.650 OA
DOCKED: BRANCH  38  40
DOCKED: ATOM     40  O   UNL d   1      45.790  27.811  20.174 -0.06 -0.73    -0.776 OA
DOCKED: ATOM     41  H   UNL d   1      45.299  27.207  20.748 +0.04 +0.22    +0.167 HD
DOCKED: ENDBRANCH  38  40
DOCKED: ENDBRANCH  37  38
DOCKED: ENDBRANCH  36  37
DOCKED: ENDBRANCH  22  36
DOCKED: BRANCH  12  42
DOCKED: ATOM     42  C   UNL d   1      36.221  28.322  11.721 -0.69 +0.00    +0.004 C 
DOCKED: ATOM     43  C   UNL d   1      35.096  28.953  12.084 -0.62 +0.00    +0.012 C 
DOCKED: ENDBRANCH  12  42
DOCKED: BRANCH  17  44
DOCKED: ATOM     44  C   UNL d   1      39.097  34.448  15.952 -0.58 +0.00    +0.004 C 
DOCKED: ATOM     45  C   UNL d   1      39.375  35.449  15.111 -0.59 +0.00    +0.012 C 
DOCKED: ENDBRANCH  17  44
DOCKED: TORSDOF 10
DOCKED: TER
DOCKED: ENDMDL
________________________________________________________________________________

DPF> analysis                             # perform a ranked cluster analysis


		CLUSTER ANALYSIS OF CONFORMATIONS
		_________________________________

Number of conformations = 100

RMSD cluster analysis will be performed using the ligand atoms only (45 / 45 total atoms).

Outputting structurally similar clusters, ranked in order of increasing energy.


________________________________________________________________________________

Number of distinct conformational clusters found = 25,  out of 100 runs,
Using an rmsd-tolerance of 2.0 A


	CLUSTERING HISTOGRAM
	____________________

________________________________________________________________________________
     |           |     |           |     |                                    
Clus | Lowest    | Run | Mean      | Num | Histogram                          
-ter | Binding   |     | Binding   | in  |                                    
Rank | Energy    |     | Energy    | Clus|    5    10   15   20   25   30   35
_____|___________|_____|___________|_____|____:____|____:____|____:____|____:___
   1 |    -13.37 |  83 |    -12.51 |  64 |################################################################
   2 |    -11.03 |  62 |    -10.55 |   9 |#########
   3 |    -10.30 |  61 |    -10.30 |   1 |#
   4 |    -10.17 |  49 |    -10.17 |   1 |#
   5 |    -10.11 |  77 |     -9.60 |   2 |##
   6 |     -9.93 |  97 |     -9.93 |   1 |#
   7 |     -9.23 |  30 |     -9.23 |   1 |#
   8 |     -8.51 |  90 |     -8.17 |   3 |###
   9 |     -7.95 |  38 |     -7.95 |   1 |#
  10 |     -7.34 |  31 |     -7.34 |   1 |#
  11 |     -6.71 |   5 |     -6.25 |   2 |##
  12 |     -6.46 |  28 |     -6.46 |   1 |#
  13 |     -6.29 |  79 |     -6.29 |   1 |#
  14 |     -6.27 |  92 |     -6.27 |   1 |#
  15 |     -6.15 |  24 |     -6.15 |   1 |#
  16 |     -5.94 |  72 |     -5.94 |   1 |#
  17 |     -5.75 |  87 |     -5.75 |   1 |#
  18 |     -5.42 |  22 |     -5.42 |   1 |#
  19 |     -5.36 |  23 |     -5.36 |   1 |#
  20 |     -5.33 |  56 |     -5.33 |   1 |#
  21 |     -5.03 |  91 |     -5.03 |   1 |#
  22 |     -4.83 |  15 |     -4.83 |   1 |#
  23 |     -4.48 |  84 |     -4.48 |   1 |#
  24 |     -4.12 |  95 |     -4.12 |   1 |#
  25 |     -3.85 |  67 |     -3.85 |   1 |#
_____|___________|_____|___________|_____|______________________________________


Number of multi-member conformational clusters found = 5, out of 100 runs.

	RMSD TABLE
	__________

_____________________________________________________________________
     |      |      |           |         |                 |
Rank | Sub- | Run  | Binding   | Cluster | Reference       | Grep
     | Rank |      | Energy    | RMSD    | RMSD            | Pattern
_____|______|______|___________|_________|_________________|___________
   1      1     83      -13.37      0.00     49.35           RANKING
   1      2     42      -13.34      1.17     49.46           RANKING
   1      3      8      -13.25      0.60     49.39           RANKING
   1      4     34      -13.23      1.23     49.34           RANKING
   1      5     74      -13.23      1.13     49.24           RANKING
   1      6     78      -13.20      1.23     49.31           RANKING
   1      7      4      -13.17      1.16     49.30           RANKING
   1      8     80      -13.15      1.13     49.38           RANKING
   1      9      1      -13.13      1.14     49.37           RANKING
   1     10     19      -13.13      1.33     49.25           RANKING
   1     11     75      -13.11      1.07     49.30           RANKING
   1     12     68      -13.09      1.18     49.33           RANKING
   1     13     14      -13.03      1.21     49.27           RANKING
   1     14     59      -13.01      0.99     49.63           RANKING
   1     15     44      -13.00      0.99     49.64           RANKING
   1     16     64      -12.99      0.74     49.40           RANKING
   1     17     35      -12.95      1.18     49.27           RANKING
   1     18     53      -12.93      1.25     49.35           RANKING
   1     19     57      -12.91      1.00     49.30           RANKING
   1     20     71      -12.90      0.75     49.29           RANKING
   1     21     32      -12.87      1.18     49.71           RANKING
   1     22      3      -12.85      1.32     49.58           RANKING
   1     23     81      -12.84      1.23     49.25           RANKING
   1     24     89      -12.84      1.17     49.72           RANKING
   1     25     36      -12.83      1.26     49.37           RANKING
   1     26     41      -12.81      0.58     49.55           RANKING
   1     27     39      -12.79      0.82     49.44           RANKING
   1     28     82      -12.73      1.19     49.19           RANKING
   1     29     86      -12.72      1.16     49.37           RANKING
   1     30      9      -12.71      1.25     49.53           RANKING
   1     31     47      -12.68      1.31     49.52           RANKING
   1     32     26      -12.65      1.32     49.42           RANKING
   1     33     93      -12.65      0.67     49.51           RANKING
   1     34     18      -12.62      1.28     49.39           RANKING
   1     35     16      -12.59      1.21     49.64           RANKING
   1     36     46      -12.58      1.03     49.48           RANKING
   1     37     88      -12.57      1.05     49.40           RANKING
   1     38     73      -12.56      0.91     49.33           RANKING
   1     39     70      -12.54      0.94     49.45           RANKING
   1     40     50      -12.52      1.41     49.60           RANKING
   1     41     69      -12.41      0.84     49.23           RANKING
   1     42     63      -12.41      1.04     49.35           RANKING
   1     43     52      -12.39      1.32     48.97           RANKING
   1     44     40      -12.37      1.26     49.32           RANKING
   1     45     27      -12.35      1.03     49.44           RANKING
   1     46     94      -12.33      1.07     49.42           RANKING
   1     47     85      -12.31      1.18     49.46           RANKING
   1     48     12      -12.26      1.06     49.52           RANKING
   1     49     65      -12.25      1.12     49.47           RANKING
   1     50     99      -12.13      0.80     49.35           RANKING
   1     51     10      -12.03      1.12     49.44           RANKING
   1     52    100      -11.99      1.30     49.39           RANKING
   1     53     55      -11.85      1.22     49.63           RANKING
   1     54      6      -11.84      1.27     49.72           RANKING
   1     55     48      -11.77      1.34     49.53           RANKING
   1     56     60      -11.76      1.23     50.05           RANKING
   1     57     37      -11.45      1.92     49.94           RANKING
   1     58     98      -11.40      1.74     49.87           RANKING
   1     59     29      -11.39      1.41     49.77           RANKING
   1     60     25      -11.39      1.44     50.16           RANKING
   1     61     66      -11.32      1.46     50.12           RANKING
   1     62     33      -11.29      1.52     50.13           RANKING
   1     63     43      -11.25      1.36     50.26           RANKING
   1     64      2      -10.76      1.26     49.59           RANKING
   2      1     62      -11.03      0.00     32.07           RANKING
   2      2     13      -11.02      0.53     32.19           RANKING
   2      3     58      -10.95      0.30     32.08           RANKING
   2      4     21      -10.89      0.50     32.16           RANKING
   2      5     11      -10.58      0.47     32.14           RANKING
   2      6     17      -10.57      1.05     31.83           RANKING
   2      7     54      -10.35      0.79     32.11           RANKING
   2      8      7      -10.32      0.71     32.38           RANKING
   2      9     20       -9.29      1.43     31.55           RANKING
   3      1     61      -10.30      0.00     49.53           RANKING
   4      1     49      -10.17      0.00     31.17           RANKING
   5      1     77      -10.11      0.00     51.92           RANKING
   5      2     76       -9.08      1.50     51.40           RANKING
   6      1     97       -9.93      0.00     32.51           RANKING
   7      1     30       -9.23      0.00     49.62           RANKING
   8      1     90       -8.51      0.00     48.88           RANKING
   8      2     51       -8.25      0.77     48.76           RANKING
   8      3     45       -7.74      1.00     48.46           RANKING
   9      1     38       -7.95      0.00     32.20           RANKING
  10      1     31       -7.34      0.00     37.51           RANKING
  11      1      5       -6.71      0.00     42.43           RANKING
  11      2     96       -5.78      1.34     42.01           RANKING
  12      1     28       -6.46      0.00     41.35           RANKING
  13      1     79       -6.29      0.00     40.66           RANKING
  14      1     92       -6.27      0.00     30.29           RANKING
  15      1     24       -6.15      0.00     41.18           RANKING
  16      1     72       -5.94      0.00     32.91           RANKING
  17      1     87       -5.75      0.00     29.44           RANKING
  18      1     22       -5.42      0.00     40.54           RANKING
  19      1     23       -5.36      0.00     30.25           RANKING
  20      1     56       -5.33      0.00     56.98           RANKING
  21      1     91       -5.03      0.00     41.07           RANKING
  22      1     15       -4.83      0.00     47.03           RANKING
  23      1     84       -4.48      0.00     29.67           RANKING
  24      1     95       -4.12      0.00     48.76           RANKING
  25      1     67       -3.85      0.00     48.53           RANKING
_______________________________________________________________________



	INFORMATION ENTROPY ANALYSIS FOR THIS CLUSTERING
	________________________________________________


Information entropy for this clustering = 0.37  (rmstol = 2.00 Angstrom)

_______________________________________________________________________


	STATISTICAL MECHANICAL ANALYSIS
	_______________________________


Partition function, Q =   101.84            at Temperature, T = 298.15 K
Free energy,        A ~ -2739.30 kcal/mol   at Temperature, T = 298.15 K
Internal energy,    U =   -10.83 kcal/mol   at Temperature, T = 298.15 K
Entropy,            S =     9.15 kcal/mol/K at Temperature, T = 298.15 K

_______________________________________________________________________


	LOWEST ENERGY DOCKED CONFORMATION from EACH CLUSTER
	___________________________________________________



Keeping original residue number (specified in the input PDBQ file) for outputting.

MODEL       83
USER    Run = 83
USER    Cluster Rank = 1
USER    Number of conformations in this cluster = 64
USER  
USER    RMSD from reference structure       = 49.345 A
USER  
USER    Estimated Free Energy of Binding    =  -13.37 kcal/mol  [=(1)+(2)+(3)-(4)]
USER    Estimated Inhibition Constant, Ki   =  158.12 pM (picomolar)  [Temperature = 298.15 K]
USER    
USER    (1) Final Intermolecular Energy     =  -16.35 kcal/mol
USER        vdW + Hbond + desolv Energy     =  -13.62 kcal/mol
USER        Electrostatic Energy            =   -2.73 kcal/mol
USER    (2) Final Total Internal Energy     =   -0.33 kcal/mol
USER    (3) Torsional Free Energy           =   +2.98 kcal/mol
USER    (4) Unbound System's Energy  [=(2)] =   -0.33 kcal/mol
USER    
USER    
USER  
USER    DPF = D:/Protein_go_brrr/autodock/final/6BB5/heme_Fe/dock.dpf
USER    NEWDPF move	heme_Fe_opt.pdbqt
USER    NEWDPF about	-0.174000 -0.001000 -0.047000
USER    NEWDPF tran0	41.808462 28.165182 15.893986
USER    NEWDPF axisangle0	-0.217819 -0.121577 0.968387 -158.029984
USER    NEWDPF quaternion0	-0.213828 -0.119349 0.950644 -0.190552
USER    NEWDPF dihe0	179.98 -125.00 65.43 -149.83 98.02 7.91 82.49 43.71 -119.02 25.05 
USER  
USER                              x       y       z    vdW   Elec        q     RMS 
ATOM      1  C   UNL d   1      43.242  27.322  17.096 -0.27 +0.02    +0.064    49.345
ATOM      2  C   UNL d   1      41.312  31.849  16.632 -0.40 +0.01    +0.064    49.345
ATOM      3  C   UNL d   1      37.708  29.974  14.070 -0.36 +0.01    +0.064    49.345
ATOM      4  C   UNL d   1      39.615  25.600  14.417 -0.48 +0.01    +0.064    49.345
ATOM      5  C   UNL d   1      43.078  28.782  17.132 -0.24 +0.02    +0.066    49.345
ATOM      6  C   UNL d   1      43.986  29.666  17.690 -0.28 -0.01    -0.021    49.345
ATOM      7  C   UNL d   1      43.447  30.923  17.564 -0.29 -0.01    -0.025    49.345
ATOM      8  C   UNL d   1      42.230  30.757  16.933 -0.34 +0.01    +0.066    49.345
ATOM      9  C   UNL d   1      44.082  32.204  18.010 -0.27 +0.01    +0.051    49.345
ATOM     10  C   UNL d   1      40.159  31.723  15.973 -0.37 +0.01    +0.066    49.345
ATOM     11  C   UNL d   1      39.247  32.768  15.800 -0.38 -0.00    -0.021    49.345
ATOM     12  C   UNL d   1      38.191  32.248  15.079 -0.38 +0.00    +0.000    49.345
ATOM     13  C   UNL d   1      38.512  30.898  14.854 -0.34 +0.01    +0.070    49.345
ATOM     14  C   UNL d   1      39.346  34.174  16.355 -0.31 +0.00    +0.052    49.345
ATOM     15  C   UNL d   1      37.987  28.661  13.894 -0.33 +0.01    +0.066    49.345
ATOM     16  C   UNL d   1      37.248  27.834  13.056 -0.46 -0.00    -0.021    49.345
ATOM     17  C   UNL d   1      37.794  26.571  13.157 -0.45 +0.00    +0.000    49.345
ATOM     18  C   UNL d   1      38.852  26.657  14.059 -0.37 +0.01    +0.070    49.345
ATOM     19  C   UNL d   1      36.060  28.208  12.212 -0.64 +0.00    +0.052    49.345
ATOM     20  C   UNL d   1      40.774  25.664  15.315 -0.40 +0.01    +0.066    49.345
ATOM     21  C   UNL d   1      41.446  24.556  15.850 -0.41 -0.00    -0.025    49.345
ATOM     22  C   UNL d   1      42.484  25.069  16.600 -0.33 -0.00    -0.021    49.345
ATOM     23  C   UNL d   1      42.401  26.463  16.499 -0.31 +0.01    +0.066    49.345
ATOM     24  C   UNL d   1      41.133  23.088  15.674 -0.52 +0.00    +0.051    49.345
ATOM     25  N   UNL d   1      42.012  29.454  16.663 -0.22 -0.05    -0.248    49.345
ATOM     26  N   UNL d   1      39.707  30.575  15.406 -0.11 -0.06    -0.248    49.345
ATOM     27  N   UNL d   1      38.999  27.949  14.479 -0.14 -0.06    -0.248    49.345
ATOM     28  N   UNL d   1      41.329  26.821  15.750 -0.26 -0.05    -0.248    49.345
ATOM     29 FE   UNL d   1      40.517  28.696  15.578 -0.09 +0.00    +0.000    49.345
ATOM     30  C   UNL d   1      45.309  29.339  18.294 -0.22 +0.02    +0.052    49.345
ATOM     31  C   UNL d   1      45.295  27.940  18.900 -0.17 +0.06    +0.115    49.345
ATOM     32  C   UNL d   1      45.039  28.011  20.380 -0.15 +0.15    +0.139    49.345
ATOM     33  O   UNL d   1      43.916  27.830  20.828 -0.17 -0.91    -0.650    49.345
ATOM     34  O   UNL d   1      46.049  28.275  21.227 -0.40 -1.33    -0.776    49.345
ATOM     35  H   UNL d   1      46.937  28.417  20.870 +0.02 +0.17    +0.167    49.345
ATOM     36  C   UNL d   1      43.468  24.265  17.407 -0.31 +0.02    +0.052    49.345
ATOM     37  C   UNL d   1      44.884  24.563  16.935 -0.19 +0.05    +0.115    49.345
ATOM     38  C   UNL d   1      45.695  23.303  16.833 -0.15 +0.08    +0.139    49.345
ATOM     39  O   UNL d   1      45.170  22.208  16.972 +0.02 -0.32    -0.650    49.345
ATOM     40  O   UNL d   1      47.016  23.372  16.589 -0.12 -0.79    -0.776    49.345
ATOM     41  H   UNL d   1      47.574  23.909  17.170 +0.04 +0.15    +0.167    49.345
ATOM     42  C   UNL d   1      36.974  33.016  14.671 -0.43 +0.00    +0.004    49.345
ATOM     43  C   UNL d   1      36.723  33.277  13.382 -0.50 +0.00    +0.012    49.345
ATOM     44  C   UNL d   1      37.346  25.367  12.423 -0.47 +0.00    +0.004    49.345
ATOM     45  C   UNL d   1      36.499  24.498  12.985 -0.69 +0.00    +0.012    49.345
TER
ENDMDL
MODEL       62
USER    Run = 62
USER    Cluster Rank = 2
USER    Number of conformations in this cluster = 9
USER  
USER    RMSD from reference structure       = 32.066 A
USER  
USER    Estimated Free Energy of Binding    =  -11.03 kcal/mol  [=(1)+(2)+(3)-(4)]
USER    Estimated Inhibition Constant, Ki   =    8.16 nM (nanomolar)  [Temperature = 298.15 K]
USER    
USER    (1) Final Intermolecular Energy     =  -14.02 kcal/mol
USER        vdW + Hbond + desolv Energy     =  -12.44 kcal/mol
USER        Electrostatic Energy            =   -1.58 kcal/mol
USER    (2) Final Total Internal Energy     =   -1.82 kcal/mol
USER    (3) Torsional Free Energy           =   +2.98 kcal/mol
USER    (4) Unbound System's Energy  [=(2)] =   -1.82 kcal/mol
USER    
USER    
USER  
USER    DPF = D:/Protein_go_brrr/autodock/final/6BB5/heme_Fe/dock.dpf
USER    NEWDPF move	heme_Fe_opt.pdbqt
USER    NEWDPF about	-0.174000 -0.001000 -0.047000
USER    NEWDPF tran0	8.096580 34.467677 -0.916958
USER    NEWDPF axisangle0	-0.755340 -0.377296 -0.535827 -61.521628
USER    NEWDPF quaternion0	-0.386322 -0.192970 -0.274051 -0.859310
USER    NEWDPF dihe0	-156.06 -51.35 65.76 -149.53 -29.71 -171.18 61.36 45.31 -119.97 168.92 
USER  
USER                              x       y       z    vdW   Elec        q     RMS 
ATOM      1  C   UNL d   1       6.460  35.482  -1.627 -0.09 +0.01    +0.064    32.066
ATOM      2  C   UNL d   1       7.253  32.324   2.092 -0.40 +0.00    +0.064    32.066
ATOM      3  C   UNL d   1      11.978  33.018   1.581 -0.38 +0.00    +0.064    32.066
ATOM      4  C   UNL d   1      11.238  35.996  -2.088 -0.47 +0.00    +0.064    32.066
ATOM      5  C   UNL d   1       6.249  34.465  -0.588 -0.20 +0.01    +0.066    32.066
ATOM      6  C   UNL d   1       5.018  33.931  -0.243 -0.28 -0.00    -0.021    32.066
ATOM      7  C   UNL d   1       5.239  33.057   0.792 -0.28 -0.00    -0.025    32.066
ATOM      8  C   UNL d   1       6.597  33.091   1.040 -0.32 +0.01    +0.066    32.066
ATOM      9  C   UNL d   1       4.201  32.227   1.483 -0.13 +0.00    +0.051    32.066
ATOM     10  C   UNL d   1       8.568  32.296   2.315 -0.39 +0.00    +0.066    32.066
ATOM     11  C   UNL d   1       9.156  31.642   3.401 -0.44 -0.00    -0.021    32.066
ATOM     12  C   UNL d   1      10.517  31.842   3.286 -0.41 +0.00    +0.000    32.066
ATOM     13  C   UNL d   1      10.691  32.620   2.129 -0.36 +0.00    +0.070    32.066
ATOM     14  C   UNL d   1       8.450  30.922   4.532 -0.45 -0.00    +0.052    32.066
ATOM     15  C   UNL d   1      12.149  33.810   0.497 -0.36 +0.00    +0.066    32.066
ATOM     16  C   UNL d   1      13.394  34.085  -0.053 -0.45 -0.00    -0.021    32.066
ATOM     17  C   UNL d   1      13.183  34.947  -1.110 -0.45 +0.00    +0.000    32.066
ATOM     18  C   UNL d   1      11.812  35.181  -1.176 -0.34 +0.01    +0.070    32.066
ATOM     19  C   UNL d   1      14.734  33.579   0.409 -0.60 +0.00    +0.052    32.066
ATOM     20  C   UNL d   1       9.794  36.218  -2.228 -0.39 +0.00    +0.066    32.066
ATOM     21  C   UNL d   1       9.200  37.204  -3.028 -0.40 +0.00    -0.025    32.066
ATOM     22  C   UNL d   1       7.838  37.031  -2.892 -0.34 -0.00    -0.021    32.066
ATOM     23  C   UNL d   1       7.655  35.957  -2.013 -0.16 +0.01    +0.066    32.066
ATOM     24  C   UNL d   1       9.869  38.260  -3.877 -0.32 -0.01    +0.051    32.066
ATOM     25  N   UNL d   1       7.210  33.942   0.193 -0.09 -0.03    -0.248    32.066
ATOM     26  N   UNL d   1       9.503  32.905   1.541 -0.18 -0.02    -0.248    32.066
ATOM     27  N   UNL d   1      11.171  34.449  -0.217 +0.05 -0.04    -0.248    32.066
ATOM     28  N   UNL d   1       8.852  35.494  -1.576 -0.24 -0.05    -0.248    32.066
ATOM     29 FE   UNL d   1       9.178  34.200  -0.018 -0.07 +0.00    +0.000    32.066
ATOM     30  C   UNL d   1       3.701  34.218  -0.878 -0.22 +0.01    +0.052    32.066
ATOM     31  C   UNL d   1       3.661  35.643  -1.419 -0.17 +0.03    +0.115    32.066
ATOM     32  C   UNL d   1       2.580  36.435  -0.735 -0.14 +0.09    +0.139    32.066
ATOM     33  O   UNL d   1       1.571  35.882  -0.319 -0.02 -0.41    -0.650    32.066
ATOM     34  O   UNL d   1       2.714  37.762  -0.576 -0.27 -0.97    -0.776    32.066
ATOM     35  H   UNL d   1       3.295  38.251  -1.176 +0.04 +0.15    +0.167    32.066
ATOM     36  C   UNL d   1       6.774  37.884  -3.532 -0.27 +0.00    +0.052    32.066
ATOM     37  C   UNL d   1       6.348  38.982  -2.569 -0.20 +0.01    +0.115    32.066
ATOM     38  C   UNL d   1       4.852  39.123  -2.541 -0.18 +0.04    +0.139    32.066
ATOM     39  O   UNL d   1       4.322  40.053  -1.952 -0.03 -0.30    -0.650    32.066
ATOM     40  O   UNL d   1       4.081  38.215  -3.166 +0.06 -0.22    -0.776    32.066
ATOM     41  H   UNL d   1       3.358  37.797  -2.678 +0.04 +0.07    +0.167    32.066
ATOM     42  C   UNL d   1      11.542  31.324   4.245 -0.45 +0.00    +0.004    32.066
ATOM     43  C   UNL d   1      12.429  30.394   3.870 -0.64 +0.00    +0.012    32.066
ATOM     44  C   UNL d   1      14.224  35.494  -2.009 -0.40 +0.00    +0.004    32.066
ATOM     45  C   UNL d   1      14.762  36.697  -1.783 -0.65 +0.00    +0.012    32.066
TER
ENDMDL
MODEL       61
USER    Run = 61
USER    Cluster Rank = 3
USER    Number of conformations in this cluster = 1
USER  
USER    RMSD from reference structure       = 49.535 A
USER  
USER    Estimated Free Energy of Binding    =  -10.30 kcal/mol  [=(1)+(2)+(3)-(4)]
USER    Estimated Inhibition Constant, Ki   =   28.32 nM (nanomolar)  [Temperature = 298.15 K]
USER    
USER    (1) Final Intermolecular Energy     =  -13.28 kcal/mol
USER        vdW + Hbond + desolv Energy     =  -12.89 kcal/mol
USER        Electrostatic Energy            =   -0.39 kcal/mol
USER    (2) Final Total Internal Energy     =   -0.51 kcal/mol
USER    (3) Torsional Free Energy           =   +2.98 kcal/mol
USER    (4) Unbound System's Energy  [=(2)] =   -0.51 kcal/mol
USER    
USER    
USER  
USER    DPF = D:/Protein_go_brrr/autodock/final/6BB5/heme_Fe/dock.dpf
USER    NEWDPF move	heme_Fe_opt.pdbqt
USER    NEWDPF about	-0.174000 -0.001000 -0.047000
USER    NEWDPF tran0	40.325970 29.933303 16.267171
USER    NEWDPF axisangle0	0.613216 -0.781040 0.118078 145.859199
USER    NEWDPF quaternion0	0.586201 -0.746631 0.112876 0.293547
USER    NEWDPF dihe0	-67.46 -63.40 166.77 175.07 -89.02 -155.31 51.72 -33.89 145.26 161.21 
USER  
USER                              x       y       z    vdW   Elec        q     RMS 
ATOM      1  C   UNL d   1      40.955  31.875  16.477 -0.46 +0.01    +0.064    49.535
ATOM      2  C   UNL d   1      43.022  27.447  17.220 -0.17 +0.02    +0.064    49.535
ATOM      3  C   UNL d   1      39.466  25.440  14.691 -0.43 +0.01    +0.064    49.535
ATOM      4  C   UNL d   1      37.393  29.703  14.049 -0.01 +0.01    +0.064    49.535
ATOM      5  C   UNL d   1      41.822  30.806  16.991 -0.36 +0.01    +0.066    49.535
ATOM      6  C   UNL d   1      42.889  30.998  17.853 -0.37 -0.00    -0.021    49.535
ATOM      7  C   UNL d   1      43.465  29.769  18.055 -0.28 -0.01    -0.025    49.535
ATOM      8  C   UNL d   1      42.726  28.871  17.309 -0.02 +0.02    +0.066    49.535
ATOM      9  C   UNL d   1      44.645  29.480  18.932 -0.27 +0.02    +0.051    49.535
ATOM     10  C   UNL d   1      42.292  26.551  16.554 -0.31 +0.01    +0.066    49.535
ATOM     11  C   UNL d   1      42.664  25.215  16.391 -0.27 -0.00    -0.021    49.535
ATOM     12  C   UNL d   1      41.663  24.618  15.651 -0.38 +0.00    +0.000    49.535
ATOM     13  C   UNL d   1      40.727  25.633  15.390 -0.38 +0.01    +0.070    49.535
ATOM     14  C   UNL d   1      43.945  24.554  16.860 -0.25 +0.02    +0.052    49.535
ATOM     15  C   UNL d   1      38.586  26.424  14.392 -0.37 +0.01    +0.066    49.535
ATOM     16  C   UNL d   1      37.348  26.184  13.811 -0.43 -0.00    -0.021    49.535
ATOM     17  C   UNL d   1      36.749  27.413  13.622 -0.44 +0.00    +0.000    49.535
ATOM     18  C   UNL d   1      37.640  28.376  14.089 -0.35 +0.01    +0.070    49.535
ATOM     19  C   UNL d   1      36.757  24.855  13.424 -0.60 +0.01    +0.052    49.535
ATOM     20  C   UNL d   1      38.280  30.742  14.587 -0.34 +0.01    +0.066    49.535
ATOM     21  C   UNL d   1      38.134  32.120  14.376 -0.38 -0.00    -0.025    49.535
ATOM     22  C   UNL d   1      39.152  32.721  15.088 -0.41 -0.00    -0.021    49.535
ATOM     23  C   UNL d   1      39.879  31.690  15.696 -0.35 +0.01    +0.066    49.535
ATOM     24  C   UNL d   1      37.098  32.844  13.548 -0.44 +0.00    +0.051    49.535
ATOM     25  N   UNL d   1      41.721  29.504  16.671 -0.22 -0.06    -0.248    49.535
ATOM     26  N   UNL d   1      41.114  26.814  15.933 -0.27 -0.05    -0.248    49.535
ATOM     27  N   UNL d   1      38.751  27.767  14.603 -0.21 -0.06    -0.248    49.535
ATOM     28  N   UNL d   1      39.369  30.483  15.350 -0.17 -0.06    -0.248    49.535
ATOM     29 FE   UNL d   1      40.240  28.649  15.641 -0.09 +0.00    +0.000    49.535
ATOM     30  C   UNL d   1      43.329  32.282  18.470 -0.42 +0.01    +0.052    49.535
ATOM     31  C   UNL d   1      44.801  32.547  18.174 -0.15 +0.02    +0.115    49.535
ATOM     32  C   UNL d   1      45.549  32.843  19.444 -0.21 +0.03    +0.139    49.535
ATOM     33  O   UNL d   1      45.637  33.988  19.864 +0.02 -0.09    -0.650    49.535
ATOM     34  O   UNL d   1      46.130  31.846  20.132 +0.03 -0.29    -0.776    49.535
ATOM     35  H   UNL d   1      47.096  31.811  20.183 +0.03 +0.06    +0.167    49.535
ATOM     36  C   UNL d   1      39.438  34.199  15.138 -0.52 +0.00    +0.052    49.535
ATOM     37  C   UNL d   1      40.607  34.527  14.222 -0.42 +0.01    +0.115    49.535
ATOM     38  C   UNL d   1      40.428  35.875  13.581 -0.34 +0.01    +0.139    49.535
ATOM     39  O   UNL d   1      40.973  36.140  12.520 +0.20 -0.06    -0.650    49.535
ATOM     40  O   UNL d   1      39.663  36.805  14.179 +0.02 -0.05    -0.776    49.535
ATOM     41  H   UNL d   1      40.073  37.628  14.482 +0.10 +0.00    +0.167    49.535
ATOM     42  C   UNL d   1      41.651  23.183  15.228 -0.51 +0.00    +0.004    49.535
ATOM     43  C   UNL d   1      41.127  22.816  14.051 -0.45 +0.00    +0.012    49.535
ATOM     44  C   UNL d   1      35.404  27.648  13.051 -0.61 +0.00    +0.004    49.535
ATOM     45  C   UNL d   1      35.221  28.548  12.079 -0.64 +0.00    +0.012    49.535
TER
ENDMDL
MODEL       49
USER    Run = 49
USER    Cluster Rank = 4
USER    Number of conformations in this cluster = 1
USER  
USER    RMSD from reference structure       = 31.172 A
USER  
USER    Estimated Free Energy of Binding    =  -10.17 kcal/mol  [=(1)+(2)+(3)-(4)]
USER    Estimated Inhibition Constant, Ki   =   35.00 nM (nanomolar)  [Temperature = 298.15 K]
USER    
USER    (1) Final Intermolecular Energy     =  -13.15 kcal/mol
USER        vdW + Hbond + desolv Energy     =  -12.85 kcal/mol
USER        Electrostatic Energy            =   -0.31 kcal/mol
USER    (2) Final Total Internal Energy     =   -0.61 kcal/mol
USER    (3) Torsional Free Energy           =   +2.98 kcal/mol
USER    (4) Unbound System's Energy  [=(2)] =   -0.61 kcal/mol
USER    
USER    
USER  
USER    DPF = D:/Protein_go_brrr/autodock/final/6BB5/heme_Fe/dock.dpf
USER    NEWDPF move	heme_Fe_opt.pdbqt
USER    NEWDPF about	-0.174000 -0.001000 -0.047000
USER    NEWDPF tran0	8.256725 33.615417 0.306817
USER    NEWDPF axisangle0	0.684035 -0.232940 -0.691256 71.934490
USER    NEWDPF quaternion0	0.401749 -0.136811 -0.405990 0.809353
USER    NEWDPF dihe0	-163.77 -11.53 -109.87 63.77 -128.25 -11.56 -83.72 65.78 13.30 -33.90 
USER  
USER                              x       y       z    vdW   Elec        q     RMS 
ATOM      1  C   UNL d   1       6.992  32.916   1.764 -0.44 +0.01    +0.064    31.172
ATOM      2  C   UNL d   1      11.875  33.611   1.433 -0.27 +0.00    +0.064    31.172
ATOM      3  C   UNL d   1      11.154  36.323  -2.465 -0.46 +0.00    +0.064    31.172
ATOM      4  C   UNL d   1       6.435  35.577  -2.224 -0.25 +0.01    +0.064    31.172
ATOM      5  C   UNL d   1       8.440  32.791   1.983 -0.33 +0.01    +0.066    31.172
ATOM      6  C   UNL d   1       9.027  31.995   2.952 -0.43 -0.00    -0.021    31.172
ATOM      7  C   UNL d   1      10.383  32.192   2.862 -0.40 -0.00    -0.025    31.172
ATOM      8  C   UNL d   1      10.571  33.101   1.840 -0.35 +0.00    +0.066    31.172
ATOM      9  C   UNL d   1      11.430  31.524   3.701 -0.41 +0.00    +0.051    31.172
ATOM     10  C   UNL d   1      12.089  34.445   0.413 -0.35 +0.00    +0.066    31.172
ATOM     11  C   UNL d   1      13.334  35.005   0.119 -0.42 -0.00    -0.021    31.172
ATOM     12  C   UNL d   1      13.150  35.805  -0.991 -0.45 +0.00    +0.000    31.172
ATOM     13  C   UNL d   1      11.786  35.696  -1.315 -0.37 +0.00    +0.070    31.172
ATOM     14  C   UNL d   1      14.623  34.841   0.899 -0.55 +0.00    +0.052    31.172
ATOM     15  C   UNL d   1       9.833  36.264  -2.752 -0.40 +0.00    +0.066    31.172
ATOM     16  C   UNL d   1       9.284  36.793  -3.913 -0.34 +0.00    -0.021    31.172
ATOM     17  C   UNL d   1       7.922  36.582  -3.844 -0.22 +0.00    +0.000    31.172
ATOM     18  C   UNL d   1       7.671  35.932  -2.638 -0.32 +0.01    +0.070    31.172
ATOM     19  C   UNL d   1      10.005  37.492  -5.034 -0.41 -0.01    +0.052    31.172
ATOM     20  C   UNL d   1       6.140  34.838  -0.991 -0.19 +0.01    +0.066    31.172
ATOM     21  C   UNL d   1       4.860  34.640  -0.453 -0.21 -0.00    -0.025    31.172
ATOM     22  C   UNL d   1       5.041  33.868   0.677 -0.33 -0.00    -0.021    31.172
ATOM     23  C   UNL d   1       6.417  33.633   0.785 -0.34 +0.01    +0.066    31.172
ATOM     24  C   UNL d   1       3.532  35.149  -0.963 -0.21 +0.01    +0.051    31.172
ATOM     25  N   UNL d   1       9.388  33.457   1.301 -0.11 -0.03    -0.248    31.172
ATOM     26  N   UNL d   1      11.138  34.874  -0.454 -0.18 -0.04    -0.248    31.172
ATOM     27  N   UNL d   1       8.850  35.697  -1.986 -0.26 -0.03    -0.248    31.172
ATOM     28  N   UNL d   1       7.086  34.264  -0.210 -0.20 -0.04    -0.248    31.172
ATOM     29 FE   UNL d   1       9.110  34.570  -0.333 -0.07 +0.00    +0.000    31.172
ATOM     30  C   UNL d   1       8.339  31.076   3.903 -0.51 +0.00    +0.052    31.172
ATOM     31  C   UNL d   1       8.475  29.627   3.449 -0.49 +0.00    +0.115    31.172
ATOM     32  C   UNL d   1       9.623  28.960   4.154 -0.48 +0.00    +0.139    31.172
ATOM     33  O   UNL d   1      10.484  28.367   3.520 +0.04 -0.01    -0.650    31.172
ATOM     34  O   UNL d   1       9.712  29.010   5.494 +0.11 +0.00    -0.776    31.172
ATOM     35  H   UNL d   1       8.932  29.262   6.007 +0.09 -0.01    +0.167    31.172
ATOM     36  C   UNL d   1       3.957  33.426   1.623 -0.36 +0.01    +0.052    31.172
ATOM     37  C   UNL d   1       2.974  32.523   0.891 -0.18 +0.01    +0.115    31.172
ATOM     38  C   UNL d   1       1.616  33.159   0.810 -0.14 +0.02    +0.139    31.172
ATOM     39  O   UNL d   1       1.351  34.154   1.469 -0.01 -0.20    -0.650    31.172
ATOM     40  O   UNL d   1       0.674  32.631   0.009 +0.05 -0.09    -0.776    31.172
ATOM     41  H   UNL d   1      -0.240  32.938   0.091 +0.02 +0.02    +0.167    31.172
ATOM     42  C   UNL d   1      14.222  36.612  -1.652 -0.63 +0.00    +0.004    31.172
ATOM     43  C   UNL d   1      14.852  37.592  -0.991 -0.58 +0.00    +0.012    31.172
ATOM     44  C   UNL d   1       6.929  36.959  -4.875 -0.26 +0.00    +0.004    31.172
ATOM     45  C   UNL d   1       6.198  36.027  -5.495 -0.25 +0.00    +0.012    31.172
TER
ENDMDL
MODEL       77
USER    Run = 77
USER    Cluster Rank = 5
USER    Number of conformations in this cluster = 2
USER  
USER    RMSD from reference structure       = 51.919 A
USER  
USER    Estimated Free Energy of Binding    =  -10.11 kcal/mol  [=(1)+(2)+(3)-(4)]
USER    Estimated Inhibition Constant, Ki   =   39.02 nM (nanomolar)  [Temperature = 298.15 K]
USER    
USER    (1) Final Intermolecular Energy     =  -13.09 kcal/mol
USER        vdW + Hbond + desolv Energy     =   -9.56 kcal/mol
USER        Electrostatic Energy            =   -3.53 kcal/mol
USER    (2) Final Total Internal Energy     =   -0.54 kcal/mol
USER    (3) Torsional Free Energy           =   +2.98 kcal/mol
USER    (4) Unbound System's Energy  [=(2)] =   -0.54 kcal/mol
USER    
USER    
USER  
USER    DPF = D:/Protein_go_brrr/autodock/final/6BB5/heme_Fe/dock.dpf
USER    NEWDPF move	heme_Fe_opt.pdbqt
USER    NEWDPF about	-0.174000 -0.001000 -0.047000
USER    NEWDPF tran0	44.846438 26.841483 18.573970
USER    NEWDPF axisangle0	-0.119076 -0.990793 -0.064418 145.830797
USER    NEWDPF quaternion0	-0.113822 -0.947072 -0.061575 0.293783
USER    NEWDPF dihe0	129.39 167.73 79.27 160.56 -85.06 125.90 -138.29 140.20 150.72 29.87 
USER  
USER                              x       y       z    vdW   Elec        q     RMS 
ATOM      1  C   UNL d   1      46.727  26.312  19.202 -0.08 +0.03    +0.064    51.919
ATOM      2  C   UNL d   1      43.093  24.008  16.769 -0.27 +0.02    +0.064    51.919
ATOM      3  C   UNL d   1      41.002  28.264  16.003 -0.19 +0.02    +0.064    51.919
ATOM      4  C   UNL d   1      44.454  30.502  18.444 -0.28 +0.02    +0.064    51.919
ATOM      5  C   UNL d   1      45.855  25.261  18.660 -0.09 +0.03    +0.066    51.919
ATOM      6  C   UNL d   1      46.080  23.900  18.793 -0.10 -0.01    -0.021    51.919
ATOM      7  C   UNL d   1      45.073  23.261  18.114 -0.18 -0.01    -0.025    51.919
ATOM      8  C   UNL d   1      44.270  24.258  17.593 -0.20 +0.02    +0.066    51.919
ATOM      9  C   UNL d   1      44.889  21.779  17.995 -0.15 +0.02    +0.051    51.919
ATOM     10  C   UNL d   1      42.269  24.948  16.302 -0.31 +0.01    +0.066    51.919
ATOM     11  C   UNL d   1      41.216  24.688  15.422 -0.42 -0.00    -0.021    51.919
ATOM     12  C   UNL d   1      40.608  25.902  15.172 -0.44 +0.00    +0.000    51.919
ATOM     13  C   UNL d   1      41.333  26.850  15.914 -0.36 +0.01    +0.070    51.919
ATOM     14  C   UNL d   1      40.850  23.358  14.795 -0.53 +0.01    +0.052    51.919
ATOM     15  C   UNL d   1      41.727  29.189  16.674 -0.21 +0.02    +0.066    51.919
ATOM     16  C   UNL d   1      41.323  30.511  16.818 -0.37 -0.00    -0.021    51.919
ATOM     17  C   UNL d   1      42.319  31.159  17.519 -0.42 +0.00    +0.000    51.919
ATOM     18  C   UNL d   1      43.311  30.217  17.782 -0.29 +0.02    +0.070    51.919
ATOM     19  C   UNL d   1      40.063  31.148  16.297 -0.28 +0.01    +0.052    51.919
ATOM     20  C   UNL d   1      45.491  29.525  18.793 -0.18 +0.03    +0.066    51.919
ATOM     21  C   UNL d   1      46.762  29.837  19.296 -0.13 -0.01    -0.025    51.919
ATOM     22  C   UNL d   1      47.388  28.627  19.517 -0.09 -0.01    -0.021    51.919
ATOM     23  C   UNL d   1      46.482  27.630  19.136 -0.10 +0.04    +0.066    51.919
ATOM     24  C   UNL d   1      47.366  31.197  19.555 -0.11 +0.02    +0.051    51.919
ATOM     25  N   UNL d   1      44.743  25.473  17.935 -0.09 -0.10    -0.248    51.919
ATOM     26  N   UNL d   1      42.352  26.271  16.596 -0.21 -0.06    -0.248    51.919
ATOM     27  N   UNL d   1      42.928  28.996  17.302 -0.18 -0.07    -0.248    51.919
ATOM     28  N   UNL d   1      45.344  28.185  18.653 -0.10 -0.12    -0.248    51.919
ATOM     29 FE   UNL d   1      43.848  27.230  17.625 -0.06 +0.00    +0.000    51.919
ATOM     30  C   UNL d   1      47.184  23.238  19.544 -0.07 +0.03    +0.052    51.919
ATOM     31  C   UNL d   1      48.029  22.375  18.614 -0.08 +0.09    +0.115    51.919
ATOM     32  C   UNL d   1      48.267  23.085  17.310 +0.01 +0.19    +0.139    51.919
ATOM     33  O   UNL d   1      47.447  23.019  16.405 -0.36 -0.95    -0.650    51.919
ATOM     34  O   UNL d   1      49.389  23.801  17.126 -0.39 -1.06    -0.776    51.919
ATOM     35  H   UNL d   1      49.643  24.456  17.792 +0.02 +0.13    +0.167    51.919
ATOM     36  C   UNL d   1      48.796  28.444  20.019 -0.04 +0.02    +0.052    51.919
ATOM     37  C   UNL d   1      48.793  27.523  21.230 -0.03 +0.06    +0.115    51.919
ATOM     38  C   UNL d   1      47.632  27.825  22.134 +0.02 +0.17    +0.139    51.919
ATOM     39  O   UNL d   1      46.852  26.944  22.465 -0.15 -1.24    -0.650    51.919
ATOM     40  O   UNL d   1      47.441  29.077  22.586 -0.18 -1.05    -0.776    51.919
ATOM     41  H   UNL d   1      48.147  29.729  22.476 +0.01 +0.13    +0.167    51.919
ATOM     42  C   UNL d   1      39.432  26.100  14.269 -0.51 +0.00    +0.004    51.919
ATOM     43  C   UNL d   1      38.332  26.732  14.698 -0.46 +0.00    +0.012    51.919
ATOM     44  C   UNL d   1      42.312  32.582  17.927 -0.53 +0.00    +0.004    51.919
ATOM     45  C   UNL d   1      43.446  33.289  17.964 -0.41 +0.00    +0.012    51.919
TER
ENDMDL
MODEL       97
USER    Run = 97
USER    Cluster Rank = 6
USER    Number of conformations in this cluster = 1
USER  
USER    RMSD from reference structure       = 32.510 A
USER  
USER    Estimated Free Energy of Binding    =   -9.93 kcal/mol  [=(1)+(2)+(3)-(4)]
USER    Estimated Inhibition Constant, Ki   =   52.73 nM (nanomolar)  [Temperature = 298.15 K]
USER    
USER    (1) Final Intermolecular Energy     =  -12.91 kcal/mol
USER        vdW + Hbond + desolv Energy     =  -12.81 kcal/mol
USER        Electrostatic Energy            =   -0.10 kcal/mol
USER    (2) Final Total Internal Energy     =   -0.55 kcal/mol
USER    (3) Torsional Free Energy           =   +2.98 kcal/mol
USER    (4) Unbound System's Energy  [=(2)] =   -0.55 kcal/mol
USER    
USER    
USER  
USER    DPF = D:/Protein_go_brrr/autodock/final/6BB5/heme_Fe/dock.dpf
USER    NEWDPF move	heme_Fe_opt.pdbqt
USER    NEWDPF about	-0.174000 -0.001000 -0.047000
USER    NEWDPF tran0	9.598839 35.141370 -0.232163
USER    NEWDPF axisangle0	-0.531049 0.772018 -0.349251 167.168716
USER    NEWDPF quaternion0	-0.527723 0.767183 -0.347063 0.111740
USER    NEWDPF dihe0	99.14 -179.75 28.24 67.60 -140.76 40.25 71.23 65.23 179.11 -11.76 
USER  
USER                              x       y       z    vdW   Elec        q     RMS 
ATOM      1  C   UNL d   1      10.583  36.234  -1.664 -0.34 +0.01    +0.064    32.510
ATOM      2  C   UNL d   1      11.969  33.014   1.821 +0.03 +0.00    +0.064    32.510
ATOM      3  C   UNL d   1       7.386  31.655   2.290 -0.49 +0.00    +0.064    32.510
ATOM      4  C   UNL d   1       6.009  34.838  -1.005 -0.24 +0.01    +0.064    32.510
ATOM      5  C   UNL d   1      11.387  35.513  -0.667 -0.36 +0.01    +0.066    32.510
ATOM      6  C   UNL d   1      12.735  35.727  -0.433 -0.40 -0.00    -0.021    32.510
ATOM      7  C   UNL d   1      13.120  34.830   0.532 -0.40 -0.00    -0.025    32.510
ATOM      8  C   UNL d   1      11.990  34.102   0.851 -0.35 +0.00    +0.066    32.510
ATOM      9  C   UNL d   1      14.491  34.700   1.121 -0.53 +0.00    +0.051    32.510
ATOM     10  C   UNL d   1      10.881  32.335   2.189 -0.38 +0.00    +0.066    32.510
ATOM     11  C   UNL d   1      10.911  31.223   3.035 -0.43 -0.00    -0.021    32.510
ATOM     12  C   UNL d   1       9.604  30.802   3.173 -0.50 +0.00    +0.000    32.510
ATOM     13  C   UNL d   1       8.837  31.682   2.389 -0.42 +0.00    +0.070    32.510
ATOM     14  C   UNL d   1      12.134  30.552   3.628 -0.57 +0.00    +0.052    32.510
ATOM     15  C   UNL d   1       6.648  32.467   1.497 -0.32 +0.00    +0.066    32.510
ATOM     16  C   UNL d   1       5.259  32.476   1.506 -0.17 -0.00    -0.021    32.510
ATOM     17  C   UNL d   1       4.859  33.391   0.553 -0.29 +0.00    +0.000    32.510
ATOM     18  C   UNL d   1       6.016  33.916  -0.017 -0.29 +0.01    +0.070    32.510
ATOM     19  C   UNL d   1       4.340  31.641   2.356 -0.30 +0.00    +0.052    32.510
ATOM     20  C   UNL d   1       7.206  35.458  -1.587 -0.15 +0.01    +0.066    32.510
ATOM     21  C   UNL d   1       7.225  36.259  -2.738 -0.29 -0.00    -0.025    32.510
ATOM     22  C   UNL d   1       8.536  36.656  -2.900 -0.38 -0.00    -0.021    32.510
ATOM     23  C   UNL d   1       9.263  36.080  -1.851 -0.36 +0.01    +0.066    32.510
ATOM     24  C   UNL d   1       6.077  36.632  -3.646 -0.24 +0.00    +0.051    32.510
ATOM     25  N   UNL d   1      10.935  34.526   0.127 -0.07 -0.04    -0.248    32.510
ATOM     26  N   UNL d   1       9.616  32.611   1.783 -0.25 -0.01    -0.248    32.510
ATOM     27  N   UNL d   1       7.116  33.381   0.592 -0.07 -0.03    -0.248    32.510
ATOM     28  N   UNL d   1       8.454  35.314  -1.079 +0.04 -0.07    -0.248    32.510
ATOM     29 FE   UNL d   1       9.033  33.963   0.351 -0.09 +0.00    +0.000    32.510
ATOM     30  C   UNL d   1      13.611  36.746  -1.078 -0.49 +0.00    +0.052    32.510
ATOM     31  C   UNL d   1      14.287  36.171  -2.318 -0.50 +0.01    +0.115    32.510
ATOM     32  C   UNL d   1      15.754  35.960  -2.067 -0.27 +0.02    +0.139    32.510
ATOM     33  O   UNL d   1      16.577  36.201  -2.939 -0.05 -0.09    -0.650    32.510
ATOM     34  O   UNL d   1      16.176  35.501  -0.876 +0.14 -0.14    -0.776    32.510
ATOM     35  H   UNL d   1      16.261  36.120  -0.138 +0.14 +0.02    +0.167    32.510
ATOM     36  C   UNL d   1       9.066  37.501  -4.028 -0.44 -0.00    +0.052    32.510
ATOM     37  C   UNL d   1       8.879  38.974  -3.698 -0.22 -0.02    +0.115    32.510
ATOM     38  C   UNL d   1       7.927  39.625  -4.661 -0.28 -0.03    +0.139    32.510
ATOM     39  O   UNL d   1       6.923  39.040  -5.040 +0.05 +0.03    -0.650    32.510
ATOM     40  O   UNL d   1       8.179  40.865  -5.119 +0.07 +0.29    -0.776    32.510
ATOM     41  H   UNL d   1       8.976  41.324  -4.819 -0.49 -0.12    +0.167    32.510
ATOM     42  C   UNL d   1       9.164  29.628   3.988 -0.67 +0.00    +0.004    32.510
ATOM     43  C   UNL d   1       9.104  29.699   5.324 -0.66 -0.00    +0.012    32.510
ATOM     44  C   UNL d   1       3.462  33.755   0.226 -0.27 +0.00    +0.004    32.510
ATOM     45  C   UNL d   1       3.040  35.019   0.333 -0.26 +0.00    +0.012    32.510
TER
ENDMDL
MODEL       30
USER    Run = 30
USER    Cluster Rank = 7
USER    Number of conformations in this cluster = 1
USER  
USER    RMSD from reference structure       = 49.625 A
USER  
USER    Estimated Free Energy of Binding    =   -9.23 kcal/mol  [=(1)+(2)+(3)-(4)]
USER    Estimated Inhibition Constant, Ki   =  170.21 nM (nanomolar)  [Temperature = 298.15 K]
USER    
USER    (1) Final Intermolecular Energy     =  -12.22 kcal/mol
USER        vdW + Hbond + desolv Energy     =   -8.88 kcal/mol
USER        Electrostatic Energy            =   -3.34 kcal/mol
USER    (2) Final Total Internal Energy     =   -0.43 kcal/mol
USER    (3) Torsional Free Energy           =   +2.98 kcal/mol
USER    (4) Unbound System's Energy  [=(2)] =   -0.43 kcal/mol
USER    
USER    
USER  
USER    DPF = D:/Protein_go_brrr/autodock/final/6BB5/heme_Fe/dock.dpf
USER    NEWDPF move	heme_Fe_opt.pdbqt
USER    NEWDPF about	-0.174000 -0.001000 -0.047000
USER    NEWDPF tran0	44.246436 23.845818 17.578009
USER    NEWDPF axisangle0	0.213435 -0.975819 -0.047154 133.724255
USER    NEWDPF quaternion0	0.196266 -0.897326 -0.043361 0.392945
USER    NEWDPF dihe0	167.62 172.40 -107.87 61.64 40.63 -110.11 -145.37 -149.47 143.07 -12.63 
USER  
USER                              x       y       z    vdW   Elec        q     RMS 
ATOM      1  C   UNL d   1      45.852  24.545  18.648 -0.12 +0.03    +0.064    49.625
ATOM      2  C   UNL d   1      44.760  20.282  16.397 -0.19 +0.03    +0.064    49.625
ATOM      3  C   UNL d   1      41.185  22.500  14.081 -0.33 +0.01    +0.064    49.625
ATOM      4  C   UNL d   1      42.158  26.611  16.326 -0.37 +0.01    +0.064    49.625
ATOM      5  C   UNL d   1      45.823  23.120  18.292 -0.13 +0.03    +0.066    49.625
ATOM      6  C   UNL d   1      46.639  22.149  18.850 -0.12 -0.01    -0.021    49.625
ATOM      7  C   UNL d   1      46.337  20.966  18.222 -0.15 -0.01    -0.025    49.625
ATOM      8  C   UNL d   1      45.348  21.261  17.304 -0.17 +0.03    +0.066    49.625
ATOM      9  C   UNL d   1      46.956  19.632  18.508 -0.13 +0.02    +0.051    49.625
ATOM     10  C   UNL d   1      43.766  20.527  15.543 -0.22 +0.02    +0.066    49.625
ATOM     11  C   UNL d   1      43.301  19.599  14.607 -0.28 -0.00    -0.021    49.625
ATOM     12  C   UNL d   1      42.281  20.221  13.915 -0.42 +0.00    +0.000    49.625
ATOM     13  C   UNL d   1      42.180  21.511  14.464 -0.08 +0.01    +0.070    49.625
ATOM     14  C   UNL d   1      43.848  18.212  14.339 -0.17 +0.01    +0.052    49.625
ATOM     15  C   UNL d   1      41.117  23.761  14.569 -0.44 +0.01    +0.066    49.625
ATOM     16  C   UNL d   1      40.092  24.643  14.252 -0.51 -0.00    -0.021    49.625
ATOM     17  C   UNL d   1      40.372  25.831  14.896 -0.45 +0.00    +0.000    49.625
ATOM     18  C   UNL d   1      41.566  25.646  15.589 -0.31 +0.01    +0.070    49.625
ATOM     19  C   UNL d   1      38.907  24.391  13.359 -0.51 +0.01    +0.052    49.625
ATOM     20  C   UNL d   1      43.382  26.435  17.118 -0.26 +0.02    +0.066    49.625
ATOM     21  C   UNL d   1      44.112  27.468  17.721 -0.22 -0.01    -0.025    49.625
ATOM     22  C   UNL d   1      45.153  26.856  18.387 -0.17 -0.01    -0.021    49.625
ATOM     23  C   UNL d   1      45.021  25.481  18.161 -0.15 +0.03    +0.066    49.625
ATOM     24  C   UNL d   1      43.854  28.957  17.674 -0.29 +0.02    +0.051    49.625
ATOM     25  N   UNL d   1      45.031  22.570  17.355 -0.12 -0.11    -0.248    49.625
ATOM     26  N   UNL d   1      43.091  21.701  15.450 +0.11 -0.05    -0.248    49.625
ATOM     27  N   UNL d   1      42.002  24.361  15.424 -0.17 -0.05    -0.248    49.625
ATOM     28  N   UNL d   1      43.965  25.234  17.349 -0.13 -0.08    -0.248    49.625
ATOM     29 FE   UNL d   1      43.527  23.469  16.399 -0.07 +0.00    +0.000    49.625
ATOM     30  C   UNL d   1      47.639  22.329  19.940 -0.06 +0.02    +0.052    49.625
ATOM     31  C   UNL d   1      48.997  21.773  19.525 -0.03 +0.07    +0.115    49.625
ATOM     32  C   UNL d   1      49.225  21.986  18.054 -0.02 +0.18    +0.139    49.625
ATOM     33  O   UNL d   1      48.893  23.034  17.517 -0.45 -0.96    -0.650    49.625
ATOM     34  O   UNL d   1      49.798  21.022  17.314 +0.30 -1.59    -0.776    49.625
ATOM     35  H   UNL d   1      50.221  20.276  17.761 +0.00 +0.21    +0.167    49.625
ATOM     36  C   UNL d   1      46.240  27.560  19.157 -0.13 +0.03    +0.052    49.625
ATOM     37  C   UNL d   1      45.759  27.854  20.570 -0.14 +0.13    +0.115    49.625
ATOM     38  C   UNL d   1      44.765  26.825  21.027 +0.02 +0.20    +0.139    49.625
ATOM     39  O   UNL d   1      43.586  27.115  21.171 -0.45 -0.95    -0.650    49.625
ATOM     40  O   UNL d   1      45.170  25.569  21.285 +0.05 -0.77    -0.776    49.625
ATOM     41  H   UNL d   1      46.076  25.312  21.064 +0.04 +0.13    +0.167    49.625
ATOM     42  C   UNL d   1      41.497  19.598  12.804 -0.19 +0.00    +0.004    49.625
ATOM     43  C   UNL d   1      42.102  19.176  11.686 -0.40 +0.00    +0.012    49.625
ATOM     44  C   UNL d   1      39.541  27.055  14.867 -0.43 +0.00    +0.004    49.625
ATOM     45  C   UNL d   1      38.965  27.518  15.981 -0.42 +0.00    +0.012    49.625
TER
ENDMDL
MODEL       90
USER    Run = 90
USER    Cluster Rank = 8
USER    Number of conformations in this cluster = 3
USER  
USER    RMSD from reference structure       = 48.881 A
USER  
USER    Estimated Free Energy of Binding    =   -8.51 kcal/mol  [=(1)+(2)+(3)-(4)]
USER    Estimated Inhibition Constant, Ki   =  576.34 nM (nanomolar)  [Temperature = 298.15 K]
USER    
USER    (1) Final Intermolecular Energy     =  -11.49 kcal/mol
USER        vdW + Hbond + desolv Energy     =   -9.47 kcal/mol
USER        Electrostatic Energy            =   -2.03 kcal/mol
USER    (2) Final Total Internal Energy     =   -0.69 kcal/mol
USER    (3) Torsional Free Energy           =   +2.98 kcal/mol
USER    (4) Unbound System's Energy  [=(2)] =   -0.69 kcal/mol
USER    
USER    
USER  
USER    DPF = D:/Protein_go_brrr/autodock/final/6BB5/heme_Fe/dock.dpf
USER    NEWDPF move	heme_Fe_opt.pdbqt
USER    NEWDPF about	-0.174000 -0.001000 -0.047000
USER    NEWDPF tran0	44.356329 20.211596 15.978637
USER    NEWDPF axisangle0	0.537278 0.714999 0.447335 -167.164569
USER    NEWDPF quaternion0	0.533911 0.710518 0.444532 -0.111776
USER    NEWDPF dihe0	-150.10 -26.21 -164.82 13.03 45.14 86.89 -98.51 -79.23 169.89 -180.00 
USER  
USER                              x       y       z    vdW   Elec        q     RMS 
ATOM      1  C   UNL d   1      45.457  18.782  15.000 -0.12 +0.03    +0.064    48.881
ATOM      2  C   UNL d   1      41.663  21.701  13.769 -0.28 +0.01    +0.064    48.881
ATOM      3  C   UNL d   1      42.530  24.359  17.674 -0.39 +0.01    +0.064    48.881
ATOM      4  C   UNL d   1      46.139  21.486  18.940 -0.13 +0.03    +0.064    48.881
ATOM      5  C   UNL d   1      44.256  19.309  14.336 -0.16 +0.02    +0.066    48.881
ATOM      6  C   UNL d   1      43.642  18.730  13.237 -0.19 -0.01    -0.021    48.881
ATOM      7  C   UNL d   1      42.591  19.543  12.894 -0.36 -0.00    -0.025    48.881
ATOM      8  C   UNL d   1      42.603  20.588  13.797 -0.30 +0.01    +0.066    48.881
ATOM      9  C   UNL d   1      41.625  19.311  11.773 -0.30 +0.00    +0.051    48.881
ATOM     10  C   UNL d   1      41.617  22.691  14.662 -0.37 +0.01    +0.066    48.881
ATOM     11  C   UNL d   1      40.780  23.803  14.544 -0.52 -0.00    -0.021    48.881
ATOM     12  C   UNL d   1      41.023  24.594  15.650 -0.45 +0.00    +0.000    48.881
ATOM     13  C   UNL d   1      42.011  23.920  16.388 -0.36 +0.01    +0.070    48.881
ATOM     14  C   UNL d   1      39.844  24.131  13.399 -0.40 +0.01    +0.052    48.881
ATOM     15  C   UNL d   1      43.518  23.742  18.364 -0.27 +0.02    +0.066    48.881
ATOM     16  C   UNL d   1      43.917  24.136  19.635 -0.27 -0.01    -0.021    48.881
ATOM     17  C   UNL d   1      44.960  23.310  20.001 -0.17 +0.00    +0.000    48.881
ATOM     18  C   UNL d   1      45.176  22.434  18.940 -0.07 +0.03    +0.070    48.881
ATOM     19  C   UNL d   1      43.357  25.259  20.465 -0.30 +0.03    +0.052    48.881
ATOM     20  C   UNL d   1      46.357  20.506  17.869 -0.14 +0.04    +0.066    48.881
ATOM     21  C   UNL d   1      47.466  19.655  17.763 -0.09 -0.02    -0.025    48.881
ATOM     22  C   UNL d   1      47.244  18.885  16.640 -0.08 -0.02    -0.021    48.881
ATOM     23  C   UNL d   1      46.019  19.298  16.105 -0.11 +0.04    +0.066    48.881
ATOM     24  C   UNL d   1      48.676  19.566  18.663 -0.05 +0.03    +0.051    48.881
ATOM     25  N   UNL d   1      43.611  20.437  14.680 -0.14 -0.06    -0.248    48.881
ATOM     26  N   UNL d   1      42.380  22.765  15.782 -0.14 -0.03    -0.248    48.881
ATOM     27  N   UNL d   1      44.263  22.669  17.951 -0.14 -0.09    -0.248    48.881
ATOM     28  N   UNL d   1      45.504  20.318  16.833 -0.11 -0.12    -0.248    48.881
ATOM     29 FE   UNL d   1      43.943  21.542  16.309 -0.07 +0.00    +0.000    48.881
ATOM     30  C   UNL d   1      44.021  17.458  12.559 -0.11 +0.02    +0.052    48.881
ATOM     31  C   UNL d   1      44.812  17.739  11.287 -0.16 +0.06    +0.115    48.881
ATOM     32  C   UNL d   1      46.256  18.003  11.613 -0.16 +0.09    +0.139    48.881
ATOM     33  O   UNL d   1      46.857  17.288  12.403 +0.04 -0.34    -0.650    48.881
ATOM     34  O   UNL d   1      46.901  19.031  11.037 -0.30 -0.69    -0.776    48.881
ATOM     35  H   UNL d   1      46.398  19.819  10.786 -0.49 +0.10    +0.167    48.881
ATOM     36  C   UNL d   1      48.183  17.844  16.088 -0.05 +0.03    +0.052    48.881
ATOM     37  C   UNL d   1      49.244  18.515  15.229 -0.06 +0.13    +0.115    48.881
ATOM     38  C   UNL d   1      50.530  18.678  15.989 +0.05 +0.16    +0.139    48.881
ATOM     39  O   UNL d   1      51.360  17.781  16.014 -0.01 -0.39    -0.650    48.881
ATOM     40  O   UNL d   1      50.775  19.820  16.656 -0.51 -1.34    -0.776    48.881
ATOM     41  H   UNL d   1      51.365  19.799  17.423 +0.00 +0.16    +0.167    48.881
ATOM     42  C   UNL d   1      40.352  25.900  15.932 -0.36 +0.00    +0.004    48.881
ATOM     43  C   UNL d   1      41.055  27.038  15.989 -0.45 +0.00    +0.012    48.881
ATOM     44  C   UNL d   1      45.688  23.345  21.289 -0.17 +0.00    +0.004    48.881
ATOM     45  C   UNL d   1      45.076  23.014  22.431 -0.22 +0.01    +0.012    48.881
TER
ENDMDL
MODEL       38
USER    Run = 38
USER    Cluster Rank = 9
USER    Number of conformations in this cluster = 1
USER  
USER    RMSD from reference structure       = 32.204 A
USER  
USER    Estimated Free Energy of Binding    =   -7.95 kcal/mol  [=(1)+(2)+(3)-(4)]
USER    Estimated Inhibition Constant, Ki   =    1.49 uM (micromolar)  [Temperature = 298.15 K]
USER    
USER    (1) Final Intermolecular Energy     =  -10.93 kcal/mol
USER        vdW + Hbond + desolv Energy     =   -9.57 kcal/mol
USER        Electrostatic Energy            =   -1.36 kcal/mol
USER    (2) Final Total Internal Energy     =   -0.71 kcal/mol
USER    (3) Torsional Free Energy           =   +2.98 kcal/mol
USER    (4) Unbound System's Energy  [=(2)] =   -0.71 kcal/mol
USER    
USER    
USER  
USER    DPF = D:/Protein_go_brrr/autodock/final/6BB5/heme_Fe/dock.dpf
USER    NEWDPF move	heme_Fe_opt.pdbqt
USER    NEWDPF about	-0.174000 -0.001000 -0.047000
USER    NEWDPF tran0	5.152062 34.723285 -1.125411
USER    NEWDPF axisangle0	-0.938777 -0.085425 0.333767 -54.018542
USER    NEWDPF quaternion0	-0.426331 -0.038794 0.151575 -0.890933
USER    NEWDPF dihe0	-62.71 133.70 66.29 -139.59 -167.59 -99.43 73.45 -114.40 -163.69 174.57 
USER  
USER                              x       y       z    vdW   Elec        q     RMS 
ATOM      1  C   UNL d   1       3.177  34.486  -0.624 -0.20 +0.02    +0.064    32.204
ATOM      2  C   UNL d   1       7.476  33.484   1.599 -0.33 +0.01    +0.064    32.204
ATOM      3  C   UNL d   1       9.702  36.303  -1.590 -0.39 +0.01    +0.064    32.204
ATOM      4  C   UNL d   1       5.566  37.202  -3.820 -0.17 +0.01    +0.064    32.204
ATOM      5  C   UNL d   1       4.191  33.876   0.247 -0.24 +0.01    +0.066    32.204
ATOM      6  C   UNL d   1       3.931  32.922   1.216 -0.28 -0.00    -0.021    32.204
ATOM      7  C   UNL d   1       5.125  32.647   1.836 -0.35 -0.00    -0.025    32.204
ATOM      8  C   UNL d   1       6.070  33.445   1.219 -0.36 +0.01    +0.066    32.204
ATOM      9  C   UNL d   1       5.340  31.659   2.941 -0.19 +0.00    +0.051    32.204
ATOM     10  C   UNL d   1       8.418  34.202   0.984 -0.28 +0.01    +0.066    32.204
ATOM     11  C   UNL d   1       9.734  34.308   1.441 -0.28 -0.00    -0.021    32.204
ATOM     12  C   UNL d   1      10.392  35.129   0.548 -0.35 +0.00    +0.000    32.204
ATOM     13  C   UNL d   1       9.432  35.492  -0.413 -0.15 +0.02    +0.070    32.204
ATOM     14  C   UNL d   1      10.318  33.711   2.705 -0.11 +0.00    +0.052    32.204
ATOM     15  C   UNL d   1       8.771  36.698  -2.490 -0.37 +0.00    +0.066    32.204
ATOM     16  C   UNL d   1       9.085  37.389  -3.653 -0.41 +0.00    -0.021    32.204
ATOM     17  C   UNL d   1       7.893  37.652  -4.296 -0.30 -0.00    +0.000    32.204
ATOM     18  C   UNL d   1       6.877  37.118  -3.506 -0.23 +0.00    +0.070    32.204
ATOM     19  C   UNL d   1      10.448  37.808  -4.132 -0.31 -0.01    +0.052    32.204
ATOM     20  C   UNL d   1       4.475  36.600  -3.044 -0.13 +0.01    +0.066    32.204
ATOM     21  C   UNL d   1       3.109  36.844  -3.244 -0.08 -0.01    -0.025    32.204
ATOM     22  C   UNL d   1       2.446  36.051  -2.331 -0.10 -0.01    -0.021    32.204
ATOM     23  C   UNL d   1       3.428  35.361  -1.610 -0.14 +0.02    +0.066    32.204
ATOM     24  C   UNL d   1       2.452  37.777  -4.235 -0.03 +0.01    +0.051    32.204
ATOM     25  N   UNL d   1       5.500  34.184   0.246 -0.20 -0.04    -0.248    32.204
ATOM     26  N   UNL d   1       8.227  34.934  -0.143 -0.02 -0.07    -0.248    32.204
ATOM     27  N   UNL d   1       7.419  36.494  -2.417 -0.19 -0.02    -0.248    32.204
ATOM     28  N   UNL d   1       4.665  35.734  -2.020 -0.09 -0.05    -0.248    32.204
ATOM     29 FE   UNL d   1       6.445  35.335  -1.083 -0.07 +0.00    +0.000    32.204
ATOM     30  C   UNL d   1       2.620  32.286   1.526 -0.23 +0.00    +0.052    32.204
ATOM     31  C   UNL d   1       1.711  33.257   2.272 -0.20 +0.02    +0.115    32.204
ATOM     32  C   UNL d   1       1.604  32.871   3.721 -0.24 +0.01    +0.139    32.204
ATOM     33  O   UNL d   1       0.756  33.379   4.441 -0.03 -0.09    -0.650    32.204
ATOM     34  O   UNL d   1       2.444  31.959   4.240 +0.00 +0.08    -0.776    32.204
ATOM     35  H   UNL d   1       3.047  32.226   4.948 -0.41 -0.07    +0.167    32.204
ATOM     36  C   UNL d   1       0.954  35.997  -2.131 -0.07 +0.02    +0.052    32.204
ATOM     37  C   UNL d   1       0.533  37.052  -1.120 -0.10 +0.10    +0.115    32.204
ATOM     38  C   UNL d   1       0.798  38.436  -1.643 -0.07 +0.15    +0.139    32.204
ATOM     39  O   UNL d   1       1.792  39.056  -1.295 -0.40 -1.08    -0.650    32.204
ATOM     40  O   UNL d   1      -0.067  39.006  -2.501 -0.00 -0.49    -0.776    32.204
ATOM     41  H   UNL d   1      -0.391  38.491  -3.253 +0.01 +0.07    +0.167    32.204
ATOM     42  C   UNL d   1      11.830  35.529   0.652 -0.46 +0.00    +0.004    32.204
ATOM     43  C   UNL d   1      12.724  35.130  -0.261 -0.47 +0.00    +0.012    32.204
ATOM     44  C   UNL d   1       7.738  38.350  -5.592 -0.27 -0.00    +0.004    32.204
ATOM     45  C   UNL d   1       7.674  39.685  -5.648 -0.28 -0.00    +0.012    32.204
TER
ENDMDL
MODEL       31
USER    Run = 31
USER    Cluster Rank = 10
USER    Number of conformations in this cluster = 1
USER  
USER    RMSD from reference structure       = 37.512 A
USER  
USER    Estimated Free Energy of Binding    =   -7.34 kcal/mol  [=(1)+(2)+(3)-(4)]
USER    Estimated Inhibition Constant, Ki   =    4.15 uM (micromolar)  [Temperature = 298.15 K]
USER    
USER    (1) Final Intermolecular Energy     =  -10.33 kcal/mol
USER        vdW + Hbond + desolv Energy     =   -7.84 kcal/mol
USER        Electrostatic Energy            =   -2.49 kcal/mol
USER    (2) Final Total Internal Energy     =   -0.66 kcal/mol
USER    (3) Torsional Free Energy           =   +2.98 kcal/mol
USER    (4) Unbound System's Energy  [=(2)] =   -0.66 kcal/mol
USER    
USER    
USER  
USER    DPF = D:/Protein_go_brrr/autodock/final/6BB5/heme_Fe/dock.dpf
USER    NEWDPF move	heme_Fe_opt.pdbqt
USER    NEWDPF about	-0.174000 -0.001000 -0.047000
USER    NEWDPF tran0	5.689101 41.126902 -5.200292
USER    NEWDPF axisangle0	0.943753 -0.170027 -0.283586 -131.450296
USER    NEWDPF quaternion0	0.860310 -0.154994 -0.258513 -0.411114
USER    NEWDPF dihe0	-150.92 148.83 66.38 -160.23 100.26 1.13 79.58 -68.33 27.47 180.00 
USER  
USER                              x       y       z    vdW   Elec        q     RMS 
ATOM      1  C   UNL d   1       3.767  41.779  -4.899 -0.10 +0.02    +0.064    37.512
ATOM      2  C   UNL d   1       7.046  42.192  -8.574 -0.12 -0.02    +0.064    37.512
ATOM      3  C   UNL d   1       9.642  38.689  -6.559 -0.23 -0.02    +0.064    37.512
ATOM      4  C   UNL d   1       6.535  38.345  -2.937 -0.29 +0.00    +0.064    37.512
ATOM      5  C   UNL d   1       4.492  42.277  -6.076 -0.07 +0.02    +0.066    37.512
ATOM      6  C   UNL d   1       4.100  43.360  -6.846 -0.07 -0.01    -0.021    37.512
ATOM      7  C   UNL d   1       5.009  43.472  -7.869 -0.01 -0.00    -0.025    37.512
ATOM      8  C   UNL d   1       5.923  42.452  -7.683 -0.09 +0.00    +0.066    37.512
ATOM      9  C   UNL d   1       5.004  44.513  -8.945 -0.07 +0.01    +0.051    37.512
ATOM     10  C   UNL d   1       7.974  41.251  -8.386 -0.15 -0.03    +0.066    37.512
ATOM     11  C   UNL d   1       8.972  40.951  -9.316 -0.16 +0.01    -0.021    37.512
ATOM     12  C   UNL d   1       9.724  39.932  -8.766 -0.26 -0.00    +0.000    37.512
ATOM     13  C   UNL d   1       9.135  39.655  -7.520 -0.24 -0.03    +0.070    37.512
ATOM     14  C   UNL d   1       9.159  41.558 -10.692 -0.11 -0.04    +0.052    37.512
ATOM     15  C   UNL d   1       9.049  38.382  -5.381 -0.27 -0.01    +0.066    37.512
ATOM     16  C   UNL d   1       9.617  37.527  -4.446 -0.44 +0.00    -0.021    37.512
ATOM     17  C   UNL d   1       8.721  37.423  -3.402 -0.40 -0.00    +0.000    37.512
ATOM     18  C   UNL d   1       7.623  38.216  -3.728 -0.29 -0.00    +0.070    37.512
ATOM     19  C   UNL d   1      10.939  36.813  -4.538 -0.50 -0.00    +0.052    37.512
ATOM     20  C   UNL d   1       5.389  39.218  -3.218 -0.19 +0.01    +0.066    37.512
ATOM     21  C   UNL d   1       4.175  39.212  -2.517 -0.18 -0.01    -0.025    37.512
ATOM     22  C   UNL d   1       3.406  40.207  -3.084 -0.10 -0.01    -0.021    37.512
ATOM     23  C   UNL d   1       4.174  40.773  -4.108 -0.09 +0.02    +0.066    37.512
ATOM     24  C   UNL d   1       3.750  38.318  -1.374 +0.13 +0.03    +0.051    37.512
ATOM     25  N   UNL d   1       5.610  41.733  -6.586 -0.07 -0.02    -0.248    37.512
ATOM     26  N   UNL d   1       8.062  40.453  -7.292 -0.11 +0.10    -0.248    37.512
ATOM     27  N   UNL d   1       7.842  38.840  -4.924 -0.15 +0.03    -0.248    37.512
ATOM     28  N   UNL d   1       5.365  40.136  -4.215 -0.07 -0.03    -0.248    37.512
ATOM     29 FE   UNL d   1       6.714  40.293  -5.752 -0.04 -0.00    +0.000    37.512
ATOM     30  C   UNL d   1       2.934  44.258  -6.612 -0.08 +0.02    +0.052    37.512
ATOM     31  C   UNL d   1       3.396  45.686  -6.345 -0.08 +0.06    +0.115    37.512
ATOM     32  C   UNL d   1       3.375  45.978  -4.870 -0.19 +0.14    +0.139    37.512
ATOM     33  O   UNL d   1       4.405  45.940  -4.212 -0.70 -0.84    -0.650    37.512
ATOM     34  O   UNL d   1       2.218  46.285  -4.260 -0.02 -0.83    -0.776    37.512
ATOM     35  H   UNL d   1       1.392  45.926  -4.612 +0.03 +0.11    +0.167    37.512
ATOM     36  C   UNL d   1       1.994  40.557  -2.695 -0.08 +0.03    +0.052    37.512
ATOM     37  C   UNL d   1       1.020  39.620  -3.394 -0.02 +0.05    +0.115    37.512
ATOM     38  C   UNL d   1       0.366  38.691  -2.410 -0.06 +0.10    +0.139    37.512
ATOM     39  O   UNL d   1       0.623  38.762  -1.218 -0.28 -1.06    -0.650    37.512
ATOM     40  O   UNL d   1      -0.511  37.767  -2.841 +0.02 -0.32    -0.776    37.512
ATOM     41  H   UNL d   1      -1.056  37.962  -3.617 +0.01 +0.05    +0.167    37.512
ATOM     42  C   UNL d   1      10.901  39.285  -9.424 -0.32 -0.00    +0.004    37.512
ATOM     43  C   UNL d   1      12.133  39.412  -8.913 -0.46 -0.01    +0.012    37.512
ATOM     44  C   UNL d   1       8.912  36.634  -2.164 -0.43 +0.00    +0.004    37.512
ATOM     45  C   UNL d   1       8.244  35.492  -1.970 -0.41 +0.00    +0.012    37.512
TER
ENDMDL
MODEL        5
USER    Run = 5
USER    Cluster Rank = 11
USER    Number of conformations in this cluster = 2
USER  
USER    RMSD from reference structure       = 42.426 A
USER  
USER    Estimated Free Energy of Binding    =   -6.71 kcal/mol  [=(1)+(2)+(3)-(4)]
USER    Estimated Inhibition Constant, Ki   =   12.11 uM (micromolar)  [Temperature = 298.15 K]
USER    
USER    (1) Final Intermolecular Energy     =   -9.69 kcal/mol
USER        vdW + Hbond + desolv Energy     =   -7.38 kcal/mol
USER        Electrostatic Energy            =   -2.31 kcal/mol
USER    (2) Final Total Internal Energy     =   -1.69 kcal/mol
USER    (3) Torsional Free Energy           =   +2.98 kcal/mol
USER    (4) Unbound System's Energy  [=(2)] =   -1.69 kcal/mol
USER    
USER    
USER  
USER    DPF = D:/Protein_go_brrr/autodock/final/6BB5/heme_Fe/dock.dpf
USER    NEWDPF move	heme_Fe_opt.pdbqt
USER    NEWDPF about	-0.174000 -0.001000 -0.047000
USER    NEWDPF tran0	35.813455 29.258338 0.382188
USER    NEWDPF axisangle0	-0.990368 0.027481 0.135704 -161.564971
USER    NEWDPF quaternion0	-0.977580 0.027126 0.133951 -0.160183
USER    NEWDPF dihe0	46.14 103.64 95.88 41.46 -80.39 -168.72 -101.11 -52.13 167.21 10.08 
USER  
USER                              x       y       z    vdW   Elec        q     RMS 
ATOM      1  C   UNL d   1      33.777  29.505   0.451 -0.16 +0.01    +0.064    42.426
ATOM      2  C   UNL d   1      37.661  32.555   0.657 -0.18 -0.01    +0.064    42.426
ATOM      3  C   UNL d   1      40.450  29.003  -0.977 -0.23 -0.00    +0.064    42.426
ATOM      4  C   UNL d   1      36.725  26.004  -1.084 -0.13 -0.00    +0.064    42.426
ATOM      5  C   UNL d   1      34.627  30.668   0.740 -0.12 +0.01    +0.066    42.426
ATOM      6  C   UNL d   1      34.186  31.843   1.327 -0.14 -0.00    -0.021    42.426
ATOM      7  C   UNL d   1      35.265  32.691   1.380 -0.16 -0.00    -0.025    42.426
ATOM      8  C   UNL d   1      36.324  32.000   0.823 -0.17 -0.00    +0.066    42.426
ATOM      9  C   UNL d   1      35.272  34.075   1.953 -0.27 +0.00    +0.051    42.426
ATOM     10  C   UNL d   1      38.714  31.891   0.176 -0.24 -0.01    +0.066    42.426
ATOM     11  C   UNL d   1      39.953  32.483  -0.079 -0.26 +0.00    -0.021    42.426
ATOM     12  C   UNL d   1      40.770  31.483  -0.567 -0.22 -0.00    +0.000    42.426
ATOM     13  C   UNL d   1      39.977  30.323  -0.593 -0.24 -0.01    +0.070    42.426
ATOM     14  C   UNL d   1      40.321  33.946   0.071 -0.35 -0.00    +0.052    42.426
ATOM     15  C   UNL d   1      39.677  27.894  -1.054 -0.20 -0.00    +0.066    42.426
ATOM     16  C   UNL d   1      40.187  26.631  -1.328 -0.19 -0.00    -0.021    42.426
ATOM     17  C   UNL d   1      39.114  25.765  -1.363 -0.15 -0.00    +0.000    42.426
ATOM     18  C   UNL d   1      37.972  26.522  -1.113 -0.13 -0.00    +0.070    42.426
ATOM     19  C   UNL d   1      41.624  26.255  -1.574 -0.17 +0.00    +0.052    42.426
ATOM     20  C   UNL d   1      35.507  26.757  -0.764 -0.11 -0.00    +0.066    42.426
ATOM     21  C   UNL d   1      34.196  26.285  -0.925 -0.10 +0.00    -0.025    42.426
ATOM     22  C   UNL d   1      33.373  27.294  -0.469 -0.12 -0.00    -0.021    42.426
ATOM     23  C   UNL d   1      34.209  28.339  -0.056 -0.13 +0.01    +0.066    42.426
ATOM     24  C   UNL d   1      33.733  24.959  -1.481 -0.06 -0.01    +0.051    42.426
ATOM     25  N   UNL d   1      35.935  30.767   0.443 -0.08 -0.01    -0.248    42.426
ATOM     26  N   UNL d   1      38.721  30.573  -0.149 -0.16 +0.02    -0.248    42.426
ATOM     27  N   UNL d   1      38.321  27.823  -0.879 -0.11 +0.00    -0.248    42.426
ATOM     28  N   UNL d   1      35.507  28.023  -0.280 -0.08 -0.01    -0.248    42.426
ATOM     29 FE   UNL d   1      37.114  29.296  -0.215 -0.04 +0.00    +0.000    42.426
ATOM     30  C   UNL d   1      32.816  32.140   1.832 -0.11 +0.03    +0.052    42.426
ATOM     31  C   UNL d   1      32.066  33.044   0.860 -0.07 +0.07    +0.115    42.426
ATOM     32  C   UNL d   1      31.538  32.246  -0.300 -0.06 +0.10    +0.139    42.426
ATOM     33  O   UNL d   1      32.269  31.944  -1.232 +0.01 -0.22    -0.650    42.426
ATOM     34  O   UNL d   1      30.252  31.858  -0.322 -0.36 -1.12    -0.776    42.426
ATOM     35  H   UNL d   1      30.041  30.944  -0.561 +0.01 +0.24    +0.167    42.426
ATOM     36  C   UNL d   1      31.867  27.272  -0.478 -0.10 +0.01    +0.052    42.426
ATOM     37  C   UNL d   1      31.348  27.090   0.941 -0.13 +0.03    +0.115    42.426
ATOM     38  C   UNL d   1      30.353  28.160   1.292 -0.13 +0.12    +0.139    42.426
ATOM     39  O   UNL d   1      29.976  28.309   2.445 -0.47 -0.76    -0.650    42.426
ATOM     40  O   UNL d   1      29.865  28.964   0.331 -0.29 -0.99    -0.776    42.426
ATOM     41  H   UNL d   1      30.419  29.681  -0.008 +0.02 +0.22    +0.167    42.426
ATOM     42  C   UNL d   1      42.195  31.669  -0.984 -0.36 -0.00    +0.004    42.426
ATOM     43  C   UNL d   1      43.108  30.715  -0.763 -0.44 -0.00    +0.012    42.426
ATOM     44  C   UNL d   1      39.180  24.305  -1.600 -0.09 -0.00    +0.004    42.426
ATOM     45  C   UNL d   1      39.213  23.446  -0.576 -0.12 -0.00    +0.012    42.426
TER
ENDMDL
MODEL       28
USER    Run = 28
USER    Cluster Rank = 12
USER    Number of conformations in this cluster = 1
USER  
USER    RMSD from reference structure       = 41.352 A
USER  
USER    Estimated Free Energy of Binding    =   -6.46 kcal/mol  [=(1)+(2)+(3)-(4)]
USER    Estimated Inhibition Constant, Ki   =   18.42 uM (micromolar)  [Temperature = 298.15 K]
USER    
USER    (1) Final Intermolecular Energy     =   -9.44 kcal/mol
USER        vdW + Hbond + desolv Energy     =   -7.21 kcal/mol
USER        Electrostatic Energy            =   -2.23 kcal/mol
USER    (2) Final Total Internal Energy     =   -1.09 kcal/mol
USER    (3) Torsional Free Energy           =   +2.98 kcal/mol
USER    (4) Unbound System's Energy  [=(2)] =   -1.09 kcal/mol
USER    
USER    
USER  
USER    DPF = D:/Protein_go_brrr/autodock/final/6BB5/heme_Fe/dock.dpf
USER    NEWDPF move	heme_Fe_opt.pdbqt
USER    NEWDPF about	-0.174000 -0.001000 -0.047000
USER    NEWDPF tran0	26.070412 36.970329 -2.165503
USER    NEWDPF axisangle0	-0.435207 -0.897009 0.077264 128.185751
USER    NEWDPF quaternion0	-0.391471 -0.806863 0.069499 0.436914
USER    NEWDPF dihe0	165.09 -97.30 31.82 46.81 94.40 111.90 51.08 88.94 -36.56 171.75 
USER  
USER                              x       y       z    vdW   Elec        q     RMS 
ATOM      1  C   UNL d   1      26.993  35.557  -0.998 -0.18 +0.01    +0.064    41.352
ATOM      2  C   UNL d   1      23.426  35.457  -4.418 -0.24 -0.01    +0.064    41.352
ATOM      3  C   UNL d   1      24.701  39.883  -5.779 -0.18 +0.01    +0.064    41.352
ATOM      4  C   UNL d   1      28.090  40.042  -2.406 -0.14 +0.01    +0.064    41.352
ATOM      5  C   UNL d   1      25.817  35.151  -1.779 -0.14 +0.00    +0.066    41.352
ATOM      6  C   UNL d   1      25.105  33.978  -1.585 -0.27 +0.00    -0.021    41.352
ATOM      7  C   UNL d   1      24.117  33.950  -2.538 -0.33 +0.01    -0.025    41.352
ATOM      8  C   UNL d   1      24.263  35.107  -3.277 -0.22 -0.01    +0.066    41.352
ATOM      9  C   UNL d   1      23.085  32.877  -2.708 -0.38 -0.02    +0.051    41.352
ATOM     10  C   UNL d   1      23.509  36.593  -5.112 -0.15 -0.00    +0.066    41.352
ATOM     11  C   UNL d   1      22.771  36.850  -6.270 -0.18 -0.00    -0.021    41.352
ATOM     12  C   UNL d   1      23.133  38.114  -6.692 -0.18 +0.00    +0.000    41.352
ATOM     13  C   UNL d   1      24.089  38.564  -5.765 -0.16 +0.01    +0.070    41.352
ATOM     14  C   UNL d   1      21.818  35.909  -6.980 -0.16 +0.00    +0.052    41.352
ATOM     15  C   UNL d   1      25.660  40.302  -4.919 -0.19 +0.01    +0.066    41.352
ATOM     16  C   UNL d   1      26.148  41.603  -4.903 -0.14 -0.00    -0.021    41.352
ATOM     17  C   UNL d   1      27.128  41.650  -3.933 -0.13 +0.00    +0.000    41.352
ATOM     18  C   UNL d   1      27.218  40.374  -3.382 -0.15 +0.01    +0.070    41.352
ATOM     19  C   UNL d   1      25.729  42.752  -5.781 -0.09 +0.00    +0.052    41.352
ATOM     20  C   UNL d   1      28.171  38.727  -1.760 -0.13 +0.00    +0.066    41.352
ATOM     21  C   UNL d   1      29.193  38.311  -0.895 -0.09 -0.00    -0.025    41.352
ATOM     22  C   UNL d   1      28.854  37.034  -0.496 -0.10 -0.00    -0.021    41.352
ATOM     23  C   UNL d   1      27.648  36.721  -1.134 -0.13 +0.01    +0.066    41.352
ATOM     24  C   UNL d   1      30.430  39.065  -0.464 -0.04 +0.00    +0.051    41.352
ATOM     25  N   UNL d   1      25.292  35.841  -2.807 -0.16 +0.01    -0.248    41.352
ATOM     26  N   UNL d   1      24.325  37.634  -4.807 -0.14 -0.01    -0.248    41.352
ATOM     27  N   UNL d   1      26.286  39.556  -3.957 -0.15 -0.02    -0.248    41.352
ATOM     28  N   UNL d   1      27.259  37.740  -1.939 -0.13 -0.02    -0.248    41.352
ATOM     29 FE   UNL d   1      25.794  37.689  -3.372 -0.06 +0.00    +0.000    41.352
ATOM     30  C   UNL d   1      25.337  32.946  -0.536 +0.10 -0.00    +0.052    41.352
ATOM     31  C   UNL d   1      25.370  33.582   0.850 -0.32 +0.00    +0.115    41.352
ATOM     32  C   UNL d   1      26.604  33.155   1.595 -0.28 +0.08    +0.139    41.352
ATOM     33  O   UNL d   1      27.614  33.844   1.576 +0.01 -0.53    -0.650    41.352
ATOM     34  O   UNL d   1      26.607  32.006   2.292 -0.54 -0.85    -0.776    41.352
ATOM     35  H   UNL d   1      25.764  31.574   2.490 -0.42 -0.05    +0.167    41.352
ATOM     36  C   UNL d   1      29.670  36.149   0.409 -0.07 +0.01    +0.052    41.352
ATOM     37  C   UNL d   1      30.611  35.291  -0.424 -0.03 +0.03    +0.115    41.352
ATOM     38  C   UNL d   1      29.976  33.973  -0.766 -0.05 +0.07    +0.139    41.352
ATOM     39  O   UNL d   1      29.667  33.709  -1.919 +0.01 -0.19    -0.650    41.352
ATOM     40  O   UNL d   1      29.740  33.070   0.202 -0.35 -1.09    -0.776    41.352
ATOM     41  H   UNL d   1      28.941  33.157   0.741 +0.04 +0.30    +0.167    41.352
ATOM     42  C   UNL d   1      22.595  38.797  -7.909 -0.16 +0.00    +0.004    41.352
ATOM     43  C   UNL d   1      21.396  39.393  -7.891 -0.26 +0.00    +0.012    41.352
ATOM     44  C   UNL d   1      27.913  42.844  -3.545 -0.07 +0.00    +0.004    41.352
ATOM     45  C   UNL d   1      27.601  43.541  -2.447 -0.10 +0.00    +0.012    41.352
TER
ENDMDL
MODEL       79
USER    Run = 79
USER    Cluster Rank = 13
USER    Number of conformations in this cluster = 1
USER  
USER    RMSD from reference structure       = 40.661 A
USER  
USER    Estimated Free Energy of Binding    =   -6.29 kcal/mol  [=(1)+(2)+(3)-(4)]
USER    Estimated Inhibition Constant, Ki   =   24.57 uM (micromolar)  [Temperature = 298.15 K]
USER    
USER    (1) Final Intermolecular Energy     =   -9.27 kcal/mol
USER        vdW + Hbond + desolv Energy     =   -7.04 kcal/mol
USER        Electrostatic Energy            =   -2.23 kcal/mol
USER    (2) Final Total Internal Energy     =   -1.36 kcal/mol
USER    (3) Torsional Free Energy           =   +2.98 kcal/mol
USER    (4) Unbound System's Energy  [=(2)] =   -1.36 kcal/mol
USER    
USER    
USER  
USER    DPF = D:/Protein_go_brrr/autodock/final/6BB5/heme_Fe/dock.dpf
USER    NEWDPF move	heme_Fe_opt.pdbqt
USER    NEWDPF about	-0.174000 -0.001000 -0.047000
USER    NEWDPF tran0	35.517615 14.717838 21.276375
USER    NEWDPF axisangle0	-0.869342 0.458611 0.184174 82.026761
USER    NEWDPF quaternion0	-0.570493 0.300956 0.120861 0.754556
USER    NEWDPF dihe0	-148.88 -56.80 65.14 14.94 99.46 175.65 -44.84 80.33 144.37 -178.45 
USER  
USER                              x       y       z    vdW   Elec        q     RMS 
ATOM      1  C   UNL d   1      33.648  15.321  20.684 -0.27 +0.01    +0.064    40.661
ATOM      2  C   UNL d   1      37.182  12.490  18.702 -0.13 +0.01    +0.064    40.661
ATOM      3  C   UNL d   1      39.309  12.256  23.002 -0.10 -0.01    +0.064    40.661
ATOM      4  C   UNL d   1      35.957  15.081  24.916 -0.19 -0.03    +0.064    40.661
ATOM      5  C   UNL d   1      34.490  14.615  19.709 -0.21 +0.01    +0.066    40.661
ATOM      6  C   UNL d   1      34.250  14.566  18.346 -0.27 -0.00    -0.021    40.661
ATOM      7  C   UNL d   1      35.230  13.776  17.796 -0.24 -0.00    -0.025    40.661
ATOM      8  C   UNL d   1      36.032  13.374  18.847 -0.18 +0.01    +0.066    40.661
ATOM      9  C   UNL d   1      35.389  13.450  16.343 -0.24 +0.01    +0.051    40.661
ATOM     10  C   UNL d   1      38.005  12.133  19.689 -0.11 +0.00    +0.066    40.661
ATOM     11  C   UNL d   1      39.030  11.195  19.543 -0.12 -0.00    -0.021    40.661
ATOM     12  C   UNL d   1      39.648  11.097  20.773 -0.11 +0.00    +0.000    40.661
ATOM     13  C   UNL d   1      38.956  11.983  21.617 -0.11 -0.01    +0.070    40.661
ATOM     14  C   UNL d   1      39.360  10.381  18.308 -0.07 +0.00    +0.052    40.661
ATOM     15  C   UNL d   1      38.616  13.069  23.833 -0.14 -0.01    +0.066    40.661
ATOM     16  C   UNL d   1      39.041  13.382  25.118 -0.13 +0.00    -0.021    40.661
ATOM     17  C   UNL d   1      38.074  14.193  25.673 -0.20 -0.00    +0.000    40.661
ATOM     18  C   UNL d   1      37.077  14.354  24.714 -0.21 -0.02    +0.070    40.661
ATOM     19  C   UNL d   1      40.295  12.917  25.808 -0.07 -0.00    +0.052    40.661
ATOM     20  C   UNL d   1      34.916  15.322  23.910 -0.26 -0.02    +0.066    40.661
ATOM     21  C   UNL d   1      33.664  15.901  24.162 -0.34 +0.00    -0.025    40.661
ATOM     22  C   UNL d   1      33.027  15.971  22.940 -0.28 -0.00    -0.021    40.661
ATOM     23  C   UNL d   1      33.909  15.430  21.996 -0.23 +0.00    +0.066    40.661
ATOM     24  C   UNL d   1      33.086  16.362  25.480 -0.19 -0.03    +0.051    40.661
ATOM     25  N   UNL d   1      35.585  13.894  20.008 -0.13 -0.01    -0.248    40.661
ATOM     26  N   UNL d   1      37.949  12.608  20.960 -0.05 +0.04    -0.248    40.661
ATOM     27  N   UNL d   1      37.429  13.699  23.567 -0.12 +0.07    -0.248    40.661
ATOM     28  N   UNL d   1      35.041  14.995  22.601 -0.16 +0.04    -0.248    40.661
ATOM     29 FE   UNL d   1      36.495  13.802  21.782 -0.05 -0.00    +0.000    40.661
ATOM     30  C   UNL d   1      33.158  15.251  17.597 -0.35 +0.02    +0.052    40.661
ATOM     31  C   UNL d   1      32.372  14.252  16.754 -0.23 +0.05    +0.115    40.661
ATOM     32  C   UNL d   1      30.895  14.492  16.897 -0.14 +0.11    +0.139    40.661
ATOM     33  O   UNL d   1      30.279  15.118  16.045 -0.04 -0.48    -0.650    40.661
ATOM     34  O   UNL d   1      30.234  14.019  17.967 +0.03 -0.82    -0.776    40.661
ATOM     35  H   UNL d   1      30.701  13.944  18.812 +0.02 +0.16    +0.167    40.661
ATOM     36  C   UNL d   1      31.632  16.484  22.703 -0.32 +0.02    +0.052    40.661
ATOM     37  C   UNL d   1      30.622  15.394  23.027 -0.12 +0.04    +0.115    40.661
ATOM     38  C   UNL d   1      30.132  14.724  21.775 -0.07 +0.11    +0.139    40.661
ATOM     39  O   UNL d   1      29.375  13.766  21.833 -0.01 -0.38    -0.650    40.661
ATOM     40  O   UNL d   1      30.531  15.175  20.572 -0.33 -1.30    -0.776    40.661
ATOM     41  H   UNL d   1      30.974  14.567  19.965 +0.03 +0.19    +0.167    40.661
ATOM     42  C   UNL d   1      40.801  10.196  21.083 -0.05 +0.00    +0.004    40.661
ATOM     43  C   UNL d   1      42.009  10.696  21.371 -0.05 +0.00    +0.012    40.661
ATOM     44  C   UNL d   1      38.112  14.794  27.026 -0.21 -0.00    +0.004    40.661
ATOM     45  C   UNL d   1      38.994  15.752  27.326 -0.28 -0.00    +0.012    40.661
TER
ENDMDL
MODEL       92
USER    Run = 92
USER    Cluster Rank = 14
USER    Number of conformations in this cluster = 1
USER  
USER    RMSD from reference structure       = 30.288 A
USER  
USER    Estimated Free Energy of Binding    =   -6.27 kcal/mol  [=(1)+(2)+(3)-(4)]
USER    Estimated Inhibition Constant, Ki   =   25.23 uM (micromolar)  [Temperature = 298.15 K]
USER    
USER    (1) Final Intermolecular Energy     =   -9.26 kcal/mol
USER        vdW + Hbond + desolv Energy     =   -6.41 kcal/mol
USER        Electrostatic Energy            =   -2.85 kcal/mol
USER    (2) Final Total Internal Energy     =   -2.60 kcal/mol
USER    (3) Torsional Free Energy           =   +2.98 kcal/mol
USER    (4) Unbound System's Energy  [=(2)] =   -2.60 kcal/mol
USER    
USER    
USER  
USER    DPF = D:/Protein_go_brrr/autodock/final/6BB5/heme_Fe/dock.dpf
USER    NEWDPF move	heme_Fe_opt.pdbqt
USER    NEWDPF about	-0.174000 -0.001000 -0.047000
USER    NEWDPF tran0	23.856427 16.073180 14.671387
USER    NEWDPF axisangle0	0.112004 -0.881081 -0.459512 84.359226
USER    NEWDPF quaternion0	0.075206 -0.591608 -0.308543 0.741044
USER    NEWDPF dihe0	-55.96 -62.90 177.44 -123.73 102.45 87.29 -96.31 106.68 161.98 -174.49 
USER  
USER                              x       y       z    vdW   Elec        q     RMS 
ATOM      1  C   UNL d   1      24.113  15.550  16.639 -0.12 +0.03    +0.064    30.288
ATOM      2  C   UNL d   1      26.169  14.148  12.368 -0.09 +0.01    +0.064    30.288
ATOM      3  C   UNL d   1      24.257  18.016  10.258 -0.14 +0.01    +0.064    30.288
ATOM      4  C   UNL d   1      22.172  19.335  14.357 -0.37 +0.02    +0.064    30.288
ATOM      5  C   UNL d   1      24.800  14.752  15.614 -0.07 +0.03    +0.066    30.288
ATOM      6  C   UNL d   1      25.378  13.512  15.832 -0.06 -0.01    -0.021    30.288
ATOM      7  C   UNL d   1      25.952  13.125  14.646 -0.05 -0.01    -0.025    30.288
ATOM      8  C   UNL d   1      25.701  14.145  13.749 -0.08 +0.02    +0.066    30.288
ATOM      9  C   UNL d   1      26.679  11.840  14.396 -0.02 +0.01    +0.051    30.288
ATOM     10  C   UNL d   1      25.893  15.092  11.466 -0.11 +0.01    +0.066    30.288
ATOM     11  C   UNL d   1      26.449  15.125  10.185 -0.09 -0.00    -0.021    30.288
ATOM     12  C   UNL d   1      25.927  16.241   9.562 -0.10 +0.00    +0.000    30.288
ATOM     13  C   UNL d   1      25.077  16.841  10.507 -0.13 +0.01    +0.070    30.288
ATOM     14  C   UNL d   1      27.481  14.179   9.606 -0.07 +0.01    +0.052    30.288
ATOM     15  C   UNL d   1      23.478  18.628  11.181 -0.16 +0.01    +0.066    30.288
ATOM     16  C   UNL d   1      22.633  19.688  10.878 -0.19 -0.00    -0.021    30.288
ATOM     17  C   UNL d   1      22.034  20.073  12.059 -0.32 +0.00    +0.000    30.288
ATOM     18  C   UNL d   1      22.530  19.238  13.058 -0.28 +0.02    +0.070    30.288
ATOM     19  C   UNL d   1      22.416  20.334   9.536 -0.15 +0.01    +0.052    30.288
ATOM     20  C   UNL d   1      22.626  18.436  15.425 -0.27 +0.03    +0.066    30.288
ATOM     21  C   UNL d   1      22.426  18.642  16.797 -0.26 -0.01    -0.025    30.288
ATOM     22  C   UNL d   1      22.976  17.545  17.428 -0.23 -0.01    -0.021    30.288
ATOM     23  C   UNL d   1      23.493  16.721  16.421 -0.14 +0.03    +0.066    30.288
ATOM     24  C   UNL d   1      21.758  19.808  17.488 -0.18 -0.00    +0.051    30.288
ATOM     25  N   UNL d   1      24.992  15.129  14.338 -0.00 -0.09    -0.248    30.288
ATOM     26  N   UNL d   1      25.063  16.146  11.671 -0.08 -0.06    -0.248    30.288
ATOM     27  N   UNL d   1      23.384  18.321  12.512 -0.11 -0.06    -0.248    30.288
ATOM     28  N   UNL d   1      23.317  17.291  15.205 -0.08 -0.11    -0.248    30.288
ATOM     29 FE   UNL d   1      24.189  16.720  13.438 -0.05 +0.00    +0.000    30.288
ATOM     30  C   UNL d   1      25.368  12.723  17.096 -0.02 +0.02    +0.052    30.288
ATOM     31  C   UNL d   1      26.753  12.707  17.734 -0.04 +0.05    +0.115    30.288
ATOM     32  C   UNL d   1      26.968  13.945  18.559 -0.06 +0.14    +0.139    30.288
ATOM     33  O   UNL d   1      26.879  13.905  19.778 -0.06 -0.57    -0.650    30.288
ATOM     34  O   UNL d   1      27.260  15.112  17.960 -0.17 -1.54    -0.776    30.288
ATOM     35  H   UNL d   1      26.696  15.881  18.129 +0.04 +0.30    +0.167    30.288
ATOM     36  C   UNL d   1      23.043  17.328  18.916 -0.18 +0.01    +0.052    30.288
ATOM     37  C   UNL d   1      24.161  18.174  19.509 -0.25 +0.03    +0.115    30.288
ATOM     38  C   UNL d   1      25.507  17.591  19.182 -0.29 +0.10    +0.139    30.288
ATOM     39  O   UNL d   1      26.079  17.882  18.142 -0.19 -0.58    -0.650    30.288
ATOM     40  O   UNL d   1      26.094  16.736  20.039 -0.07 -0.93    -0.776    30.288
ATOM     41  H   UNL d   1      26.263  15.827  19.754 +0.03 +0.23    +0.167    30.288
ATOM     42  C   UNL d   1      26.257  16.677   8.170 -0.07 +0.00    +0.004    30.288
ATOM     43  C   UNL d   1      26.530  17.959   7.896 -0.07 +0.00    +0.012    30.288
ATOM     44  C   UNL d   1      21.035  21.154  12.218 -0.44 +0.00    +0.004    30.288
ATOM     45  C   UNL d   1      21.386  22.436  12.078 -0.56 +0.00    +0.012    30.288
TER
ENDMDL
MODEL       24
USER    Run = 24
USER    Cluster Rank = 15
USER    Number of conformations in this cluster = 1
USER  
USER    RMSD from reference structure       = 41.177 A
USER  
USER    Estimated Free Energy of Binding    =   -6.15 kcal/mol  [=(1)+(2)+(3)-(4)]
USER    Estimated Inhibition Constant, Ki   =   30.82 uM (micromolar)  [Temperature = 298.15 K]
USER    
USER    (1) Final Intermolecular Energy     =   -9.14 kcal/mol
USER        vdW + Hbond + desolv Energy     =   -6.86 kcal/mol
USER        Electrostatic Energy            =   -2.28 kcal/mol
USER    (2) Final Total Internal Energy     =   -1.96 kcal/mol
USER    (3) Torsional Free Energy           =   +2.98 kcal/mol
USER    (4) Unbound System's Energy  [=(2)] =   -1.96 kcal/mol
USER    
USER    
USER  
USER    DPF = D:/Protein_go_brrr/autodock/final/6BB5/heme_Fe/dock.dpf
USER    NEWDPF move	heme_Fe_opt.pdbqt
USER    NEWDPF about	-0.174000 -0.001000 -0.047000
USER    NEWDPF tran0	18.031661 27.019895 28.890886
USER    NEWDPF axisangle0	-0.261117 -0.101924 0.959911 143.442371
USER    NEWDPF quaternion0	-0.247941 -0.096781 0.911476 0.313641
USER    NEWDPF dihe0	167.68 -67.40 -163.46 -128.66 92.33 96.47 -13.25 -69.05 -157.63 2.77 
USER  
USER                              x       y       z    vdW   Elec        q     RMS 
ATOM      1  C   UNL d   1      19.135  27.927  30.364 -0.12 +0.01    +0.064    41.177
ATOM      2  C   UNL d   1      14.665  28.687  28.395 -0.19 -0.01    +0.064    41.177
ATOM      3  C   UNL d   1      14.881  24.326  26.395 -0.23 -0.00    +0.064    41.177
ATOM      4  C   UNL d   1      19.251  23.612  28.205 -0.18 +0.00    +0.064    41.177
ATOM      5  C   UNL d   1      17.893  28.579  29.927 -0.04 +0.01    +0.066    41.177
ATOM      6  C   UNL d   1      17.541  29.887  30.217 -0.24 -0.00    -0.021    41.177
ATOM      7  C   UNL d   1      16.298  30.096  29.673 -0.26 -0.00    -0.025    41.177
ATOM      8  C   UNL d   1      15.938  28.906  29.070 -0.23 -0.00    +0.066    41.177
ATOM      9  C   UNL d   1      15.519  31.375  29.717 +0.01 +0.00    +0.051    41.177
ATOM     10  C   UNL d   1      14.317  27.569  27.757 -0.19 -0.01    +0.066    41.177
ATOM     11  C   UNL d   1      13.047  27.347  27.218 -0.22 +0.00    -0.021    41.177
ATOM     12  C   UNL d   1      13.078  26.089  26.650 -0.25 -0.00    +0.000    41.177
ATOM     13  C   UNL d   1      14.376  25.600  26.881 -0.16 -0.01    +0.070    41.177
ATOM     14  C   UNL d   1      11.842  28.261  27.301 -0.30 -0.01    +0.052    41.177
ATOM     15  C   UNL d   1      16.112  23.828  26.659 -0.20 -0.00    +0.066    41.177
ATOM     16  C   UNL d   1      16.592  22.654  26.094 -0.25 +0.00    -0.021    41.177
ATOM     17  C   UNL d   1      17.852  22.444  26.617 -0.19 -0.00    +0.000    41.177
ATOM     18  C   UNL d   1      18.108  23.495  27.494 -0.19 -0.00    +0.070    41.177
ATOM     19  C   UNL d   1      15.888  21.748  25.120 -0.34 -0.01    +0.052    41.177
ATOM     20  C   UNL d   1      19.582  24.735  29.089 -0.14 +0.00    +0.066    41.177
ATOM     21  C   UNL d   1      20.664  24.774  29.980 -0.09 -0.00    -0.025    41.177
ATOM     22  C   UNL d   1      20.619  26.017  30.575 -0.07 -0.00    -0.021    41.177
ATOM     23  C   UNL d   1      19.514  26.683  30.033 -0.09 +0.01    +0.066    41.177
ATOM     24  C   UNL d   1      21.690  23.701  30.265 -0.09 -0.00    +0.051    41.177
ATOM     25  N   UNL d   1      16.914  27.988  29.219 -0.09 -0.01    -0.248    41.177
ATOM     26  N   UNL d   1      15.128  26.498  27.564 -0.10 +0.02    -0.248    41.177
ATOM     27  N   UNL d   1      17.058  24.370  27.487 -0.12 -0.00    -0.248    41.177
ATOM     28  N   UNL d   1      18.859  25.879  29.160 -0.10 -0.03    -0.248    41.177
ATOM     29 FE   UNL d   1      16.995  26.187  28.362 -0.04 +0.00    +0.000    41.177
ATOM     30  C   UNL d   1      18.353  30.896  30.955 -0.28 +0.02    +0.052    41.177
ATOM     31  C   UNL d   1      18.488  30.511  32.424 -0.12 +0.04    +0.115    41.177
ATOM     32  C   UNL d   1      19.555  31.336  33.088 -0.06 +0.10    +0.139    41.177
ATOM     33  O   UNL d   1      19.271  32.382  33.655 -0.03 -0.35    -0.650    41.177
ATOM     34  O   UNL d   1      20.836  30.930  33.064 -0.24 -1.01    -0.776    41.177
ATOM     35  H   UNL d   1      21.036  30.027  32.779 +0.01 +0.18    +0.167    41.177
ATOM     36  C   UNL d   1      21.558  26.517  31.642 -0.06 +0.01    +0.052    41.177
ATOM     37  C   UNL d   1      22.618  27.411  31.015 -0.11 +0.03    +0.115    41.177
ATOM     38  C   UNL d   1      22.419  28.845  31.417 -0.10 +0.11    +0.139    41.177
ATOM     39  O   UNL d   1      23.045  29.325  32.350 -0.05 -0.62    -0.650    41.177
ATOM     40  O   UNL d   1      21.541  29.614  30.748 -0.28 -0.93    -0.776    41.177
ATOM     41  H   UNL d   1      20.740  29.914  31.200 +0.03 +0.20    +0.167    41.177
ATOM     42  C   UNL d   1      11.924  25.432  25.963 -0.30 -0.00    +0.004    41.177
ATOM     43  C   UNL d   1      11.372  24.316  26.457 -0.31 -0.00    +0.012    41.177
ATOM     44  C   UNL d   1      18.758  21.322  26.284 -0.07 -0.00    +0.004    41.177
ATOM     45  C   UNL d   1      18.531  20.093  26.762 -0.17 -0.01    +0.012    41.177
TER
ENDMDL
MODEL       72
USER    Run = 72
USER    Cluster Rank = 16
USER    Number of conformations in this cluster = 1
USER  
USER    RMSD from reference structure       = 32.911 A
USER  
USER    Estimated Free Energy of Binding    =   -5.94 kcal/mol  [=(1)+(2)+(3)-(4)]
USER    Estimated Inhibition Constant, Ki   =   44.15 uM (micromolar)  [Temperature = 298.15 K]
USER    
USER    (1) Final Intermolecular Energy     =   -8.92 kcal/mol
USER        vdW + Hbond + desolv Energy     =   -5.63 kcal/mol
USER        Electrostatic Energy            =   -3.29 kcal/mol
USER    (2) Final Total Internal Energy     =   -1.45 kcal/mol
USER    (3) Torsional Free Energy           =   +2.98 kcal/mol
USER    (4) Unbound System's Energy  [=(2)] =   -1.45 kcal/mol
USER    
USER    
USER  
USER    DPF = D:/Protein_go_brrr/autodock/final/6BB5/heme_Fe/dock.dpf
USER    NEWDPF move	heme_Fe_opt.pdbqt
USER    NEWDPF about	-0.174000 -0.001000 -0.047000
USER    NEWDPF tran0	-0.851390 36.276890 2.087622
USER    NEWDPF axisangle0	0.641081 -0.765186 -0.059202 -101.243890
USER    NEWDPF quaternion0	0.495541 -0.591471 -0.045762 -0.634434
USER    NEWDPF dihe0	-84.60 173.89 -163.10 -156.02 107.97 -85.55 117.94 -153.83 22.88 -11.30 
USER  
USER                              x       y       z    vdW   Elec        q     RMS 
ATOM      1  C   UNL d   1      -1.830  37.218   0.549 +0.01 +0.04    +0.064    32.911
ATOM      2  C   UNL d   1       1.162  33.298   0.890 -0.12 +0.01    +0.064    32.911
ATOM      3  C   UNL d   1       0.480  33.279   5.645 -0.31 +0.01    +0.064    32.911
ATOM      4  C   UNL d   1      -2.335  37.136   5.349 -0.13 +0.02    +0.064    32.911
ATOM      5  C   UNL d   1      -0.859  36.168   0.214 -0.08 +0.04    +0.066    32.911
ATOM      6  C   UNL d   1      -0.336  35.948  -1.050 -0.08 -0.01    -0.021    32.911
ATOM      7  C   UNL d   1       0.491  34.857  -0.955 -0.08 -0.01    -0.025    32.911
ATOM      8  C   UNL d   1       0.443  34.452   0.365 -0.10 +0.02    +0.066    32.911
ATOM      9  C   UNL d   1       1.293  34.257  -2.070 -0.07 +0.01    +0.051    32.911
ATOM     10  C   UNL d   1       1.178  32.921   2.170 -0.16 +0.01    +0.066    32.911
ATOM     11  C   UNL d   1       1.781  31.746   2.624 -0.21 -0.00    -0.021    32.911
ATOM     12  C   UNL d   1       1.584  31.708   3.990 -0.29 -0.00    +0.000    32.911
ATOM     13  C   UNL d   1       0.856  32.870   4.300 -0.23 +0.01    +0.070    32.911
ATOM     14  C   UNL d   1       2.454  30.676   1.788 -0.19 -0.00    +0.052    32.911
ATOM     15  C   UNL d   1      -0.266  34.368   5.944 -0.23 +0.01    +0.066    32.911
ATOM     16  C   UNL d   1      -0.520  34.780   7.246 -0.25 -0.00    -0.021    32.911
ATOM     17  C   UNL d   1      -1.334  35.890   7.163 -0.20 +0.00    +0.000    32.911
ATOM     18  C   UNL d   1      -1.562  36.128   5.810 -0.15 +0.02    +0.070    32.911
ATOM     19  C   UNL d   1      -0.038  34.142   8.521 -0.28 +0.00    +0.052    32.911
ATOM     20  C   UNL d   1      -2.548  37.453   3.932 -0.09 +0.03    +0.066    32.911
ATOM     21  C   UNL d   1      -3.496  38.360   3.439 -0.05 -0.01    -0.025    32.911
ATOM     22  C   UNL d   1      -3.326  38.378   2.070 -0.06 -0.01    -0.021    32.911
ATOM     23  C   UNL d   1      -2.291  37.481   1.782 +0.01 +0.04    +0.066    32.911
ATOM     24  C   UNL d   1      -4.516  39.170   4.206 -0.02 +0.01    +0.051    32.911
ATOM     25  N   UNL d   1      -0.372  35.258   1.075 -0.07 -0.12    -0.248    32.911
ATOM     26  N   UNL d   1       0.600  33.605   3.190 -0.13 -0.05    -0.248    32.911
ATOM     27  N   UNL d   1      -0.870  35.220   5.058 -0.12 -0.07    -0.248    32.911
ATOM     28  N   UNL d   1      -1.850  36.886   2.918 +0.01 -0.15    -0.248    32.911
ATOM     29 FE   UNL d   1      -0.626  35.247   3.056 -0.04 +0.00    +0.000    32.911
ATOM     30  C   UNL d   1      -0.593  36.745  -2.283 -0.04 +0.02    +0.052    32.911
ATOM     31  C   UNL d   1       0.666  37.487  -2.718 -0.05 +0.05    +0.115    32.911
ATOM     32  C   UNL d   1       1.097  38.461  -1.656 -0.06 +0.16    +0.139    32.911
ATOM     33  O   UNL d   1       2.090  38.243  -0.977 -0.56 -0.97    -0.650    32.911
ATOM     34  O   UNL d   1       0.389  39.583  -1.443 -0.11 -1.10    -0.776    32.911
ATOM     35  H   UNL d   1      -0.282  39.590  -0.746 +0.01 +0.30    +0.167    32.911
ATOM     36  C   UNL d   1      -4.148  39.175   1.091 -0.02 +0.02    +0.052    32.911
ATOM     37  C   UNL d   1      -3.573  40.578   0.962 -0.03 +0.05    +0.115    32.911
ATOM     38  C   UNL d   1      -2.110  40.594   1.304 -0.06 +0.13    +0.139    32.911
ATOM     39  O   UNL d   1      -1.740  40.712   2.463 -0.13 -0.69    -0.650    32.911
ATOM     40  O   UNL d   1      -1.191  40.483   0.329 -0.12 -1.29    -0.776    32.911
ATOM     41  H   UNL d   1      -1.484  40.300  -0.575 +0.01 +0.17    +0.167    32.911
ATOM     42  C   UNL d   1       2.057  30.614   4.893 -0.29 -0.00    +0.004    32.911
ATOM     43  C   UNL d   1       1.186  29.838   5.550 -0.31 -0.00    +0.012    32.911
ATOM     44  C   UNL d   1      -1.844  36.684   8.304 -0.07 +0.00    +0.004    32.911
ATOM     45  C   UNL d   1      -3.103  36.538   8.731 -0.10 +0.00    +0.012    32.911
TER
ENDMDL
MODEL       87
USER    Run = 87
USER    Cluster Rank = 17
USER    Number of conformations in this cluster = 1
USER  
USER    RMSD from reference structure       = 29.435 A
USER  
USER    Estimated Free Energy of Binding    =   -5.75 kcal/mol  [=(1)+(2)+(3)-(4)]
USER    Estimated Inhibition Constant, Ki   =   60.69 uM (micromolar)  [Temperature = 298.15 K]
USER    
USER    (1) Final Intermolecular Energy     =   -8.74 kcal/mol
USER        vdW + Hbond + desolv Energy     =   -6.41 kcal/mol
USER        Electrostatic Energy            =   -2.33 kcal/mol
USER    (2) Final Total Internal Energy     =   -1.90 kcal/mol
USER    (3) Torsional Free Energy           =   +2.98 kcal/mol
USER    (4) Unbound System's Energy  [=(2)] =   -1.90 kcal/mol
USER    
USER    
USER  
USER    DPF = D:/Protein_go_brrr/autodock/final/6BB5/heme_Fe/dock.dpf
USER    NEWDPF move	heme_Fe_opt.pdbqt
USER    NEWDPF about	-0.174000 -0.001000 -0.047000
USER    NEWDPF tran0	2.567919 31.978004 -7.595484
USER    NEWDPF axisangle0	-0.648994 -0.067579 -0.757786 165.403502
USER    NEWDPF quaternion0	-0.643736 -0.067032 -0.751647 0.127034
USER    NEWDPF dihe0	-9.39 -139.32 -167.66 51.78 -74.00 22.13 57.79 -5.05 -9.84 19.81 
USER  
USER                              x       y       z    vdW   Elec        q     RMS 
ATOM      1  C   UNL d   1       3.373  31.452  -9.408 -0.24 +0.02    +0.064    29.435
ATOM      2  C   UNL d   1       3.023  35.664  -6.847 -0.09 +0.01    +0.064    29.435
ATOM      3  C   UNL d   1       1.859  33.115  -2.946 -0.11 +0.01    +0.064    29.435
ATOM      4  C   UNL d   1       2.090  29.034  -5.432 -0.32 -0.01    +0.064    29.435
ATOM      5  C   UNL d   1       3.301  32.880  -9.069 -0.14 +0.01    +0.066    29.435
ATOM      6  C   UNL d   1       3.467  33.916  -9.973 -0.15 -0.01    -0.021    29.435
ATOM      7  C   UNL d   1       3.373  35.086  -9.260 -0.12 -0.00    -0.025    29.435
ATOM      8  C   UNL d   1       3.153  34.718  -7.947 -0.12 +0.01    +0.066    29.435
ATOM      9  C   UNL d   1       3.472  36.472  -9.821 -0.07 +0.01    +0.051    29.435
ATOM     10  C   UNL d   1       2.753  35.339  -5.581 -0.09 +0.01    +0.066    29.435
ATOM     11  C   UNL d   1       2.748  36.257  -4.529 -0.06 -0.00    -0.021    29.435
ATOM     12  C   UNL d   1       2.431  35.544  -3.390 -0.08 +0.00    +0.000    29.435
ATOM     13  C   UNL d   1       2.266  34.213  -3.809 -0.09 +0.01    +0.070    29.435
ATOM     14  C   UNL d   1       3.095  37.731  -4.593 -0.04 +0.01    +0.052    29.435
ATOM     15  C   UNL d   1       1.749  31.823  -3.334 -0.13 +0.00    +0.066    29.435
ATOM     16  C   UNL d   1       1.262  30.820  -2.505 -0.14 +0.00    -0.021    29.435
ATOM     17  C   UNL d   1       1.330  29.642  -3.219 -0.23 -0.00    +0.000    29.435
ATOM     18  C   UNL d   1       1.864  29.953  -4.468 -0.23 -0.00    +0.070    29.435
ATOM     19  C   UNL d   1       0.773  30.958  -1.088 -0.11 +0.00    +0.052    29.435
ATOM     20  C   UNL d   1       2.592  29.333  -6.779 -0.25 -0.01    +0.066    29.435
ATOM     21  C   UNL d   1       3.018  28.380  -7.714 -0.32 +0.00    -0.025    29.435
ATOM     22  C   UNL d   1       3.367  29.090  -8.844 -0.30 -0.00    -0.021    29.435
ATOM     23  C   UNL d   1       3.148  30.442  -8.553 -0.24 +0.01    +0.066    29.435
ATOM     24  C   UNL d   1       3.100  26.879  -7.561 -0.35 -0.03    +0.051    29.435
ATOM     25  N   UNL d   1       3.100  33.375  -7.836 -0.06 -0.03    -0.248    29.435
ATOM     26  N   UNL d   1       2.471  34.085  -5.143 -0.08 -0.02    -0.248    29.435
ATOM     27  N   UNL d   1       2.081  31.300  -4.555 -0.08 -0.00    -0.248    29.435
ATOM     28  N   UNL d   1       2.717  30.587  -7.276 -0.14 -0.01    -0.248    29.435
ATOM     29 FE   UNL d   1       2.594  32.334  -6.209 -0.05 +0.00    +0.000    29.435
ATOM     30  C   UNL d   1       3.683  33.804 -11.444 -0.03 +0.02    +0.052    29.435
ATOM     31  C   UNL d   1       2.365  33.544 -12.165 -0.10 +0.05    +0.115    29.435
ATOM     32  C   UNL d   1       2.442  32.268 -12.956 -0.09 +0.12    +0.139    29.435
ATOM     33  O   UNL d   1       3.082  32.217 -13.997 -0.47 -1.06    -0.650    29.435
ATOM     34  O   UNL d   1       1.804  31.167 -12.524 -0.02 -0.51    -0.776    29.435
ATOM     35  H   UNL d   1       1.748  30.397 -13.108 +0.01 +0.12    +0.167    29.435
ATOM     36  C   UNL d   1       3.927  28.504 -10.114 -0.31 +0.01    +0.052    29.435
ATOM     37  C   UNL d   1       2.963  28.755 -11.264 -0.12 +0.05    +0.115    29.435
ATOM     38  C   UNL d   1       3.555  28.309 -12.570 +0.09 +0.13    +0.139    29.435
ATOM     39  O   UNL d   1       4.454  27.481 -12.599 -0.08 -0.41    -0.650    29.435
ATOM     40  O   UNL d   1       3.099  28.825 -13.725 -0.23 -1.14    -0.776    29.435
ATOM     41  H   UNL d   1       2.893  29.769 -13.770 +0.01 +0.32    +0.167    29.435
ATOM     42  C   UNL d   1       2.324  36.127  -2.017 -0.13 +0.00    +0.004    29.435
ATOM     43  C   UNL d   1       3.111  35.698  -1.022 -0.21 +0.00    +0.012    29.435
ATOM     44  C   UNL d   1       0.895  28.309  -2.744 -0.18 -0.00    +0.004    29.435
ATOM     45  C   UNL d   1      -0.234  27.755  -3.199 -0.14 -0.00    +0.012    29.435
TER
ENDMDL
MODEL       22
USER    Run = 22
USER    Cluster Rank = 18
USER    Number of conformations in this cluster = 1
USER  
USER    RMSD from reference structure       = 40.542 A
USER  
USER    Estimated Free Energy of Binding    =   -5.42 kcal/mol  [=(1)+(2)+(3)-(4)]
USER    Estimated Inhibition Constant, Ki   =  106.47 uM (micromolar)  [Temperature = 298.15 K]
USER    
USER    (1) Final Intermolecular Energy     =   -8.40 kcal/mol
USER        vdW + Hbond + desolv Energy     =   -7.42 kcal/mol
USER        Electrostatic Energy            =   -0.98 kcal/mol
USER    (2) Final Total Internal Energy     =   -2.15 kcal/mol
USER    (3) Torsional Free Energy           =   +2.98 kcal/mol
USER    (4) Unbound System's Energy  [=(2)] =   -2.15 kcal/mol
USER    
USER    
USER  
USER    DPF = D:/Protein_go_brrr/autodock/final/6BB5/heme_Fe/dock.dpf
USER    NEWDPF move	heme_Fe_opt.pdbqt
USER    NEWDPF about	-0.174000 -0.001000 -0.047000
USER    NEWDPF tran0	24.908091 36.994804 -4.406133
USER    NEWDPF axisangle0	-0.456824 -0.878173 -0.141862 -55.285850
USER    NEWDPF quaternion0	-0.211948 -0.407437 -0.065818 -0.885856
USER    NEWDPF dihe0	180.00 42.41 -132.21 -160.53 74.17 180.00 10.98 -48.58 -140.63 17.78 
USER  
USER                              x       y       z    vdW   Elec        q     RMS 
ATOM      1  C   UNL d   1      23.216  37.059  -5.565 -0.19 +0.00    +0.064    40.542
ATOM      2  C   UNL d   1      24.796  34.183  -1.869 -0.28 -0.01    +0.064    40.542
ATOM      3  C   UNL d   1      28.167  37.452  -0.859 -0.15 +0.01    +0.064    40.542
ATOM      4  C   UNL d   1      26.721  40.201  -4.497 -0.17 +0.01    +0.064    40.542
ATOM      5  C   UNL d   1      23.401  35.907  -4.671 -0.17 -0.01    +0.066    40.542
ATOM      6  C   UNL d   1      22.681  34.727  -4.742 -0.30 +0.00    -0.021    40.542
ATOM      7  C   UNL d   1      23.117  33.930  -3.713 -0.36 +0.01    -0.025    40.542
ATOM      8  C   UNL d   1      24.089  34.656  -3.052 -0.28 -0.01    +0.066    40.542
ATOM      9  C   UNL d   1      22.637  32.546  -3.403 -0.20 -0.04    +0.051    40.542
ATOM     10  C   UNL d   1      25.777  34.839  -1.247 -0.19 +0.00    +0.066    40.542
ATOM     11  C   UNL d   1      26.356  34.413  -0.049 -0.24 -0.00    -0.021    40.542
ATOM     12  C   UNL d   1      27.320  35.348   0.273 -0.19 +0.00    +0.000    40.542
ATOM     13  C   UNL d   1      27.274  36.309  -0.752 -0.11 +0.01    +0.070    40.542
ATOM     14  C   UNL d   1      25.964  33.211   0.785 -0.34 +0.01    +0.052    40.542
ATOM     15  C   UNL d   1      28.092  38.408  -1.814 -0.13 +0.00    +0.066    40.542
ATOM     16  C   UNL d   1      29.026  39.429  -1.941 -0.09 -0.00    -0.021    40.542
ATOM     17  C   UNL d   1      28.609  40.225  -2.987 -0.09 +0.00    +0.000    40.542
ATOM     18  C   UNL d   1      27.426  39.672  -3.473 -0.14 +0.01    +0.070    40.542
ATOM     19  C   UNL d   1      30.250  39.664  -1.096 -0.04 +0.00    +0.052    40.542
ATOM     20  C   UNL d   1      25.506  39.613  -5.075 -0.19 +0.01    +0.066    40.542
ATOM     21  C   UNL d   1      24.659  40.247  -5.995 -0.16 -0.00    -0.025    40.542
ATOM     22  C   UNL d   1      23.674  39.329  -6.295 -0.13 -0.00    -0.021    40.542
ATOM     23  C   UNL d   1      23.954  38.180  -5.546 -0.18 +0.01    +0.066    40.542
ATOM     24  C   UNL d   1      24.760  41.643  -6.564 -0.12 +0.01    +0.051    40.542
ATOM     25  N   UNL d   1      24.267  35.855  -3.643 -0.17 +0.03    -0.248    40.542
ATOM     26  N   UNL d   1      26.327  36.004  -1.673 -0.09 -0.01    -0.248    40.542
ATOM     27  N   UNL d   1      27.131  38.531  -2.781 -0.13 -0.02    -0.248    40.542
ATOM     28  N   UNL d   1      25.047  38.376  -4.769 -0.17 -0.02    -0.248    40.542
ATOM     29 FE   UNL d   1      25.688  37.192  -3.222 -0.06 +0.00    +0.000    40.542
ATOM     30  C   UNL d   1      21.644  34.363  -5.749 -0.26 -0.01    +0.052    40.542
ATOM     31  C   UNL d   1      20.590  35.459  -5.861 -0.32 +0.01    +0.115    40.542
ATOM     32  C   UNL d   1      19.416  34.980  -6.668 -0.37 +0.03    +0.139    40.542
ATOM     33  O   UNL d   1      18.615  34.187  -6.192 -0.60 -0.21    -0.650    40.542
ATOM     34  O   UNL d   1      19.235  35.421  -7.924 +0.06 -0.27    -0.776    40.542
ATOM     35  H   UNL d   1      19.870  36.048  -8.297 +0.07 +0.08    +0.167    40.542
ATOM     36  C   UNL d   1      22.503  39.563  -7.213 -0.21 +0.01    +0.052    40.542
ATOM     37  C   UNL d   1      22.614  38.654  -8.428 -0.10 +0.03    +0.115    40.542
ATOM     38  C   UNL d   1      21.323  37.926  -8.676 -0.15 +0.06    +0.139    40.542
ATOM     39  O   UNL d   1      21.214  37.147  -9.611 -0.01 -0.30    -0.650    40.542
ATOM     40  O   UNL d   1      20.270  38.131  -7.864 +0.03 -0.51    -0.776    40.542
ATOM     41  H   UNL d   1      19.738  37.374  -7.583 +0.07 +0.11    +0.167    40.542
ATOM     42  C   UNL d   1      28.189  35.298   1.489 -0.19 +0.00    +0.004    40.542
ATOM     43  C   UNL d   1      27.760  35.783   2.662 -0.26 +0.00    +0.012    40.542
ATOM     44  C   UNL d   1      29.308  41.424  -3.502 -0.04 +0.00    +0.004    40.542
ATOM     45  C   UNL d   1      28.831  42.650  -3.263 -0.04 +0.00    +0.012    40.542
TER
ENDMDL
MODEL       23
USER    Run = 23
USER    Cluster Rank = 19
USER    Number of conformations in this cluster = 1
USER  
USER    RMSD from reference structure       = 30.253 A
USER  
USER    Estimated Free Energy of Binding    =   -5.36 kcal/mol  [=(1)+(2)+(3)-(4)]
USER    Estimated Inhibition Constant, Ki   =  117.92 uM (micromolar)  [Temperature = 298.15 K]
USER    
USER    (1) Final Intermolecular Energy     =   -8.34 kcal/mol
USER        vdW + Hbond + desolv Energy     =   -6.09 kcal/mol
USER        Electrostatic Energy            =   -2.25 kcal/mol
USER    (2) Final Total Internal Energy     =   -2.23 kcal/mol
USER    (3) Torsional Free Energy           =   +2.98 kcal/mol
USER    (4) Unbound System's Energy  [=(2)] =   -2.23 kcal/mol
USER    
USER    
USER  
USER    DPF = D:/Protein_go_brrr/autodock/final/6BB5/heme_Fe/dock.dpf
USER    NEWDPF move	heme_Fe_opt.pdbqt
USER    NEWDPF about	-0.174000 -0.001000 -0.047000
USER    NEWDPF tran0	2.309565 33.124051 -5.064345
USER    NEWDPF axisangle0	-0.189822 0.906619 -0.376842 -84.558926
USER    NEWDPF quaternion0	-0.127702 0.609925 -0.253520 -0.739872
USER    NEWDPF dihe0	14.15 112.08 -161.74 -152.06 -168.84 -176.63 -67.53 -30.64 -157.25 -11.94 
USER  
USER                              x       y       z    vdW   Elec        q     RMS 
ATOM      1  C   UNL d   1       2.559  34.062  -3.256 -0.08 +0.01    +0.064    30.253
ATOM      2  C   UNL d   1       2.107  29.358  -4.703 -0.29 -0.01    +0.064    30.253
ATOM      3  C   UNL d   1       2.958  30.738  -9.224 -0.24 +0.01    +0.064    30.253
ATOM      4  C   UNL d   1       3.294  35.311  -7.861 -0.12 +0.01    +0.064    30.253
ATOM      5  C   UNL d   1       2.270  32.622  -3.256 +0.01 +0.00    +0.066    30.253
ATOM      6  C   UNL d   1       1.874  31.895  -2.146 -0.14 -0.00    -0.021    30.253
ATOM      7  C   UNL d   1       1.752  30.588  -2.547 -0.20 +0.00    -0.025    30.253
ATOM      8  C   UNL d   1       2.079  30.567  -3.889 -0.19 -0.00    +0.066    30.253
ATOM      9  C   UNL d   1       1.327  29.436  -1.689 -0.24 -0.01    +0.051    30.253
ATOM     10  C   UNL d   1       2.363  29.318  -6.011 -0.27 -0.01    +0.066    30.253
ATOM     11  C   UNL d   1       2.496  28.133  -6.740 -0.33 +0.01    -0.021    30.253
ATOM     12  C   UNL d   1       2.758  28.504  -8.043 -0.27 -0.00    +0.000    30.253
ATOM     13  C   UNL d   1       2.780  29.909  -8.042 -0.22 +0.00    +0.070    30.253
ATOM     14  C   UNL d   1       2.443  26.716  -6.206 -0.25 -0.03    +0.052    30.253
ATOM     15  C   UNL d   1       3.032  32.090  -9.219 -0.19 +0.02    +0.066    30.253
ATOM     16  C   UNL d   1       3.102  32.850 -10.380 -0.17 -0.01    -0.021    30.253
ATOM     17  C   UNL d   1       3.203  34.169  -9.989 -0.15 +0.00    +0.000    30.253
ATOM     18  C   UNL d   1       3.196  34.183  -8.596 -0.13 +0.01    +0.070    30.253
ATOM     19  C   UNL d   1       3.100  32.356 -11.802 +0.02 +0.04    +0.052    30.253
ATOM     20  C   UNL d   1       3.229  35.370  -6.396 -0.11 +0.01    +0.066    30.253
ATOM     21  C   UNL d   1       3.528  36.496  -5.616 -0.08 -0.00    -0.025    30.253
ATOM     22  C   UNL d   1       3.300  36.122  -4.308 -0.08 -0.00    -0.021    30.253
ATOM     23  C   UNL d   1       2.878  34.787  -4.340 -0.09 +0.01    +0.066    30.253
ATOM     24  C   UNL d   1       4.009  37.856  -6.068 -0.05 +0.01    +0.051    30.253
ATOM     25  N   UNL d   1       2.384  31.807  -4.320 +0.02 -0.01    -0.248    30.253
ATOM     26  N   UNL d   1       2.548  30.406  -6.802 -0.14 -0.00    -0.248    30.253
ATOM     27  N   UNL d   1       3.047  32.909  -8.122 -0.08 -0.04    -0.248    30.253
ATOM     28  N   UNL d   1       2.881  34.320  -5.613 -0.09 -0.02    -0.248    30.253
ATOM     29 FE   UNL d   1       2.715  32.365  -6.208 -0.05 +0.00    +0.000    30.253
ATOM     30  C   UNL d   1       1.603  32.417  -0.776 -0.12 +0.00    +0.052    30.253
ATOM     31  C   UNL d   1       2.889  32.904  -0.119 -0.16 +0.01    +0.115    30.253
ATOM     32  C   UNL d   1       2.857  34.397   0.057 -0.19 +0.04    +0.139    30.253
ATOM     33  O   UNL d   1       3.866  35.009   0.377 -0.01 -0.20    -0.650    30.253
ATOM     34  O   UNL d   1       1.713  35.075  -0.137 +0.03 -0.33    -0.776    30.253
ATOM     35  H   UNL d   1       1.747  36.038  -0.224 +0.03 +0.11    +0.167    30.253
ATOM     36  C   UNL d   1       3.522  36.985  -3.094 -0.11 +0.01    +0.052    30.253
ATOM     37  C   UNL d   1       2.293  37.849  -2.847 -0.07 +0.05    +0.115    30.253
ATOM     38  C   UNL d   1       2.109  38.115  -1.380 -0.05 +0.16    +0.139    30.253
ATOM     39  O   UNL d   1       1.141  38.742  -0.975 -0.24 -1.37    -0.650    30.253
ATOM     40  O   UNL d   1       3.017  37.664  -0.496 -0.21 -0.86    -0.776    30.253
ATOM     41  H   UNL d   1       3.099  36.711  -0.352 +0.04 +0.12    +0.167    30.253
ATOM     42  C   UNL d   1       2.984  27.552  -9.175 -0.27 -0.00    +0.004    30.253
ATOM     43  C   UNL d   1       4.176  27.470  -9.779 -0.37 -0.00    +0.012    30.253
ATOM     44  C   UNL d   1       3.279  35.341 -10.890 -0.10 +0.00    +0.004    30.253
ATOM     45  C   UNL d   1       4.457  35.901 -11.187 -0.12 +0.00    +0.012    30.253
TER
ENDMDL
MODEL       56
USER    Run = 56
USER    Cluster Rank = 20
USER    Number of conformations in this cluster = 1
USER  
USER    RMSD from reference structure       = 56.984 A
USER  
USER    Estimated Free Energy of Binding    =   -5.33 kcal/mol  [=(1)+(2)+(3)-(4)]
USER    Estimated Inhibition Constant, Ki   =  124.86 uM (micromolar)  [Temperature = 298.15 K]
USER    
USER    (1) Final Intermolecular Energy     =   -8.31 kcal/mol
USER        vdW + Hbond + desolv Energy     =   -5.53 kcal/mol
USER        Electrostatic Energy            =   -2.77 kcal/mol
USER    (2) Final Total Internal Energy     =   -1.54 kcal/mol
USER    (3) Torsional Free Energy           =   +2.98 kcal/mol
USER    (4) Unbound System's Energy  [=(2)] =   -1.54 kcal/mol
USER    
USER    
USER  
USER    DPF = D:/Protein_go_brrr/autodock/final/6BB5/heme_Fe/dock.dpf
USER    NEWDPF move	heme_Fe_opt.pdbqt
USER    NEWDPF about	-0.174000 -0.001000 -0.047000
USER    NEWDPF tran0	42.368521 44.288797 3.322120
USER    NEWDPF axisangle0	-0.930249 0.206394 0.303379 -173.779602
USER    NEWDPF quaternion0	-0.928878 0.206090 0.302932 -0.054257
USER    NEWDPF dihe0	54.84 -125.31 65.84 -178.54 -93.35 -167.90 -96.67 22.16 177.07 -173.44 
USER  
USER                              x       y       z    vdW   Elec        q     RMS 
ATOM      1  C   UNL d   1      40.656  45.156   4.049 -0.19 +0.01    +0.064    56.984
ATOM      2  C   UNL d   1      44.815  46.857   1.989 -0.05 -0.01    +0.064    56.984
ATOM      3  C   UNL d   1      45.824  42.400   0.511 -0.06 +0.00    +0.064    56.984
ATOM      4  C   UNL d   1      41.858  40.715   2.588 -0.24 +0.01    +0.064    56.984
ATOM      5  C   UNL d   1      41.775  46.034   3.678 -0.14 +0.00    +0.066    56.984
ATOM      6  C   UNL d   1      41.885  47.367   4.035 -0.17 +0.00    -0.021    56.984
ATOM      7  C   UNL d   1      43.039  47.840   3.459 -0.12 +0.00    -0.025    56.984
ATOM      8  C   UNL d   1      43.589  46.775   2.773 -0.09 -0.01    +0.066    56.984
ATOM      9  C   UNL d   1      43.582  49.230   3.584 -0.12 -0.01    +0.051    56.984
ATOM     10  C   UNL d   1      45.397  45.832   1.365 -0.04 -0.01    +0.066    56.984
ATOM     11  C   UNL d   1      46.508  45.964   0.528 -0.02 +0.00    -0.021    56.984
ATOM     12  C   UNL d   1      46.809  44.695   0.075 -0.02 -0.00    +0.000    56.984
ATOM     13  C   UNL d   1      45.851  43.847   0.659 -0.04 -0.00    +0.070    56.984
ATOM     14  C   UNL d   1      47.207  47.246   0.124 -0.01 -0.00    +0.052    56.984
ATOM     15  C   UNL d   1      44.875  41.585   1.028 -0.08 +0.00    +0.066    56.984
ATOM     16  C   UNL d   1      44.939  40.200   0.949 -0.11 -0.00    -0.021    56.984
ATOM     17  C   UNL d   1      43.794  39.712   1.544 -0.18 +0.00    +0.000    56.984
ATOM     18  C   UNL d   1      43.055  40.813   1.970 -0.10 +0.01    +0.070    56.984
ATOM     19  C   UNL d   1      46.020  39.365   0.316 -0.08 +0.00    +0.052    56.984
ATOM     20  C   UNL d   1      41.081  41.848   3.104 -0.19 +0.01    +0.066    56.984
ATOM     21  C   UNL d   1      39.758  41.781   3.563 -0.28 -0.00    -0.025    56.984
ATOM     22  C   UNL d   1      39.440  43.055   3.986 -0.23 -0.00    -0.021    56.984
ATOM     23  C   UNL d   1      40.573  43.847   3.764 -0.16 +0.01    +0.066    56.984
ATOM     24  C   UNL d   1      38.832  40.588   3.601 -0.36 +0.01    +0.051    56.984
ATOM     25  N   UNL d   1      42.823  45.675   2.915 -0.06 +0.01    -0.248    56.984
ATOM     26  N   UNL d   1      44.986  44.540   1.438 -0.04 +0.01    -0.248    56.984
ATOM     27  N   UNL d   1      43.739  41.964   1.692 -0.04 -0.02    -0.248    56.984
ATOM     28  N   UNL d   1      41.556  43.115   3.184 -0.10 -0.03    -0.248    56.984
ATOM     29 FE   UNL d   1      43.270  43.826   2.311 -0.03 +0.00    +0.000    56.984
ATOM     30  C   UNL d   1      40.955  48.150   4.897 -0.28 -0.00    +0.052    56.984
ATOM     31  C   UNL d   1      39.918  48.879   4.049 -0.15 +0.03    +0.115    56.984
ATOM     32  C   UNL d   1      38.776  47.961   3.710 -0.14 +0.10    +0.139    56.984
ATOM     33  O   UNL d   1      38.777  47.326   2.665 +0.01 -0.40    -0.650    56.984
ATOM     34  O   UNL d   1      37.741  47.830   4.557 -0.34 -1.26    -0.776    56.984
ATOM     35  H   UNL d   1      37.495  46.946   4.864 +0.06 +0.28    +0.167    56.984
ATOM     36  C   UNL d   1      38.105  43.495   4.527 -0.05 +0.01    +0.052    56.984
ATOM     37  C   UNL d   1      37.115  43.654   3.383 -0.13 +0.04    +0.115    56.984
ATOM     38  C   UNL d   1      35.978  44.555   3.776 -0.05 +0.14    +0.139    56.984
ATOM     39  O   UNL d   1      34.975  44.635   3.082 -0.52 -0.73    -0.650    56.984
ATOM     40  O   UNL d   1      36.060  45.287   4.901 -0.10 -1.22    -0.776    56.984
ATOM     41  H   UNL d   1      36.820  45.872   5.027 +0.05 +0.26    +0.167    56.984
ATOM     42  C   UNL d   1      47.926  44.362  -0.861 -0.01 -0.00    +0.004    56.984
ATOM     43  C   UNL d   1      48.968  43.623  -0.457 -0.01 -0.00    +0.012    56.984
ATOM     44  C   UNL d   1      43.440  38.284   1.713 -0.30 +0.00    +0.004    56.984
ATOM     45  C   UNL d   1      42.280  37.807   1.251 -0.27 +0.00    +0.012    56.984
TER
ENDMDL
MODEL       91
USER    Run = 91
USER    Cluster Rank = 21
USER    Number of conformations in this cluster = 1
USER  
USER    RMSD from reference structure       = 41.068 A
USER  
USER    Estimated Free Energy of Binding    =   -5.03 kcal/mol  [=(1)+(2)+(3)-(4)]
USER    Estimated Inhibition Constant, Ki   =  206.01 uM (micromolar)  [Temperature = 298.15 K]
USER    
USER    (1) Final Intermolecular Energy     =   -8.01 kcal/mol
USER        vdW + Hbond + desolv Energy     =   -5.40 kcal/mol
USER        Electrostatic Energy            =   -2.61 kcal/mol
USER    (2) Final Total Internal Energy     =   -2.05 kcal/mol
USER    (3) Torsional Free Energy           =   +2.98 kcal/mol
USER    (4) Unbound System's Energy  [=(2)] =   -2.05 kcal/mol
USER    
USER    
USER  
USER    DPF = D:/Protein_go_brrr/autodock/final/6BB5/heme_Fe/dock.dpf
USER    NEWDPF move	heme_Fe_opt.pdbqt
USER    NEWDPF about	-0.174000 -0.001000 -0.047000
USER    NEWDPF tran0	29.851243 17.333124 26.883027
USER    NEWDPF axisangle0	0.440809 -0.832516 0.335567 -108.676624
USER    NEWDPF quaternion0	0.358146 -0.676397 0.272639 -0.582998
USER    NEWDPF dihe0	-85.32 57.71 66.36 -170.74 70.55 -146.77 -56.42 -71.77 -179.88 -0.19 
USER  
USER                              x       y       z    vdW   Elec        q     RMS 
ATOM      1  C   UNL d   1      29.709  17.210  24.840 -0.24 +0.00    +0.064    41.068
ATOM      2  C   UNL d   1      32.260  14.776  28.304 -0.08 -0.04    +0.064    41.068
ATOM      3  C   UNL d   1      29.381  16.666  31.652 -0.07 -0.01    +0.064    41.068
ATOM      4  C   UNL d   1      26.966  19.113  28.326 -0.20 +0.00    +0.064    41.068
ATOM      5  C   UNL d   1      30.746  16.415  25.512 -0.22 -0.01    +0.066    41.068
ATOM      6  C   UNL d   1      31.816  15.809  24.874 -0.25 +0.00    -0.021    41.068
ATOM      7  C   UNL d   1      32.521  15.130  25.836 -0.21 +0.01    -0.025    41.068
ATOM      8  C   UNL d   1      31.855  15.349  27.026 -0.16 -0.04    +0.066    41.068
ATOM      9  C   UNL d   1      33.773  14.336  25.618 -0.16 -0.02    +0.051    41.068
ATOM     10  C   UNL d   1      31.668  15.017  29.476 -0.11 -0.03    +0.066    41.068
ATOM     11  C   UNL d   1      32.007  14.365  30.664 -0.05 +0.01    -0.021    41.068
ATOM     12  C   UNL d   1      31.180  14.880  31.641 -0.03 -0.00    +0.000    41.068
ATOM     13  C   UNL d   1      30.365  15.824  30.991 -0.07 -0.01    +0.070    41.068
ATOM     14  C   UNL d   1      33.023  13.255  30.845 -0.02 -0.01    +0.052    41.068
ATOM     15  C   UNL d   1      28.559  17.538  31.023 -0.11 -0.00    +0.066    41.068
ATOM     16  C   UNL d   1      27.702  18.397  31.701 -0.11 +0.00    -0.021    41.068
ATOM     17  C   UNL d   1      27.002  19.101  30.743 -0.17 -0.00    +0.000    41.068
ATOM     18  C   UNL d   1      27.446  18.652  29.502 -0.16 +0.00    +0.070    41.068
ATOM     19  C   UNL d   1      27.528  18.534  33.189 -0.05 -0.00    +0.052    41.068
ATOM     20  C   UNL d   1      27.452  18.708  27.001 -0.18 +0.00    +0.066    41.068
ATOM     21  C   UNL d   1      26.835  19.022  25.782 -0.19 +0.00    -0.025    41.068
ATOM     22  C   UNL d   1      27.641  18.481  24.801 -0.20 -0.00    -0.021    41.068
ATOM     23  C   UNL d   1      28.708  17.856  25.457 -0.17 +0.00    +0.066    41.068
ATOM     24  C   UNL d   1      25.554  19.787  25.542 -0.19 -0.01    +0.051    41.068
ATOM     25  N   UNL d   1      30.781  16.139  26.827 +0.00 +0.05    -0.248    41.068
ATOM     26  N   UNL d   1      30.657  15.901  29.669 -0.06 +0.06    -0.248    41.068
ATOM     27  N   UNL d   1      28.434  17.723  29.672 -0.09 -0.01    -0.248    41.068
ATOM     28  N   UNL d   1      28.563  17.959  26.801 -0.09 -0.02    -0.248    41.068
ATOM     29 FE   UNL d   1      29.608  16.931  28.235 -0.04 +0.00    +0.000    41.068
ATOM     30  C   UNL d   1      32.164  15.886  23.427 -0.26 +0.01    +0.052    41.068
ATOM     31  C   UNL d   1      31.499  14.754  22.650 -0.10 +0.03    +0.115    41.068
ATOM     32  C   UNL d   1      30.657  15.307  21.534 -0.06 +0.14    +0.139    41.068
ATOM     33  O   UNL d   1      31.179  15.822  20.555 -0.38 -0.89    -0.650    41.068
ATOM     34  O   UNL d   1      29.317  15.238  21.602 -0.27 -1.05    -0.776    41.068
ATOM     35  H   UNL d   1      28.825  15.996  21.950 +0.03 +0.20    +0.167    41.068
ATOM     36  C   UNL d   1      27.371  18.522  23.320 -0.17 +0.01    +0.052    41.068
ATOM     37  C   UNL d   1      28.137  19.676  22.690 -0.04 +0.02    +0.115    41.068
ATOM     38  C   UNL d   1      29.298  19.174  21.879 -0.44 +0.07    +0.139    41.068
ATOM     39  O   UNL d   1      30.331  19.822  21.799 -0.07 -0.20    -0.650    41.068
ATOM     40  O   UNL d   1      29.204  18.001  21.229 +0.22 -1.17    -0.776    41.068
ATOM     41  H   UNL d   1      29.850  17.306  21.418 +0.06 +0.26    +0.167    41.068
ATOM     42  C   UNL d   1      31.187  14.461  33.077 -0.00 -0.00    +0.004    41.068
ATOM     43  C   UNL d   1      31.555  15.313  34.042 -0.00 -0.00    +0.012    41.068
ATOM     44  C   UNL d   1      25.989  20.150  30.999 -0.14 -0.00    +0.004    41.068
ATOM     45  C   UNL d   1      24.719  19.983  30.619 -0.10 -0.00    +0.012    41.068
TER
ENDMDL
MODEL       15
USER    Run = 15
USER    Cluster Rank = 22
USER    Number of conformations in this cluster = 1
USER  
USER    RMSD from reference structure       = 47.033 A
USER  
USER    Estimated Free Energy of Binding    =   -4.83 kcal/mol  [=(1)+(2)+(3)-(4)]
USER    Estimated Inhibition Constant, Ki   =  288.46 uM (micromolar)  [Temperature = 298.15 K]
USER    
USER    (1) Final Intermolecular Energy     =   -7.81 kcal/mol
USER        vdW + Hbond + desolv Energy     =   -6.66 kcal/mol
USER        Electrostatic Energy            =   -1.15 kcal/mol
USER    (2) Final Total Internal Energy     =   -2.54 kcal/mol
USER    (3) Torsional Free Energy           =   +2.98 kcal/mol
USER    (4) Unbound System's Energy  [=(2)] =   -2.54 kcal/mol
USER    
USER    
USER  
USER    DPF = D:/Protein_go_brrr/autodock/final/6BB5/heme_Fe/dock.dpf
USER    NEWDPF move	heme_Fe_opt.pdbqt
USER    NEWDPF about	-0.174000 -0.001000 -0.047000
USER    NEWDPF tran0	23.176119 45.766853 -3.790440
USER    NEWDPF axisangle0	0.271726 0.276649 -0.921754 -166.331457
USER    NEWDPF quaternion0	0.269795 0.274683 -0.915204 -0.118998
USER    NEWDPF dihe0	58.10 49.51 -123.73 -160.15 -144.19 164.26 -52.13 -44.27 172.52 27.35 
USER  
USER                              x       y       z    vdW   Elec        q     RMS 
ATOM      1  C   UNL d   1      24.563  45.652  -2.282 -0.08 +0.01    +0.064    47.033
ATOM      2  C   UNL d   1      20.412  48.236  -3.003 -0.15 -0.01    +0.064    47.033
ATOM      3  C   UNL d   1      19.267  45.264  -6.598 -0.26 +0.00    +0.064    47.033
ATOM      4  C   UNL d   1      23.329  42.812  -5.986 -0.17 +0.01    +0.064    47.033
ATOM      5  C   UNL d   1      23.542  46.705  -2.206 -0.05 +0.01    +0.066    47.033
ATOM      6  C   UNL d   1      23.596  47.800  -1.359 -0.10 -0.00    -0.021    47.033
ATOM      7  C   UNL d   1      22.441  48.515  -1.557 -0.13 +0.00    -0.025    47.033
ATOM      8  C   UNL d   1      21.725  47.829  -2.519 -0.18 -0.00    +0.066    47.033
ATOM      9  C   UNL d   1      22.065  49.793  -0.871 -0.11 -0.00    +0.051    47.033
ATOM     10  C   UNL d   1      19.726  47.625  -3.970 -0.16 -0.01    +0.066    47.033
ATOM     11  C   UNL d   1      18.422  47.970  -4.333 -0.18 +0.00    -0.021    47.033
ATOM     12  C   UNL d   1      18.063  47.117  -5.356 -0.24 -0.00    +0.000    47.033
ATOM     13  C   UNL d   1      19.174  46.281  -5.562 -0.22 -0.00    +0.070    47.033
ATOM     14  C   UNL d   1      17.536  49.017  -3.689 -0.17 -0.02    +0.052    47.033
ATOM     15  C   UNL d   1      20.314  44.422  -6.766 -0.22 +0.01    +0.066    47.033
ATOM     16  C   UNL d   1      20.408  43.532  -7.828 -0.19 -0.00    -0.021    47.033
ATOM     17  C   UNL d   1      21.578  42.822  -7.652 -0.19 +0.00    +0.000    47.033
ATOM     18  C   UNL d   1      22.168  43.293  -6.482 -0.19 +0.01    +0.070    47.033
ATOM     19  C   UNL d   1      19.427  43.337  -8.953 +0.19 +0.02    +0.052    47.033
ATOM     20  C   UNL d   1      24.011  43.325  -4.792 -0.21 +0.01    +0.066    47.033
ATOM     21  C   UNL d   1      25.101  42.713  -4.156 -0.23 -0.00    -0.025    47.033
ATOM     22  C   UNL d   1      25.444  43.546  -3.111 -0.24 -0.00    -0.021    47.033
ATOM     23  C   UNL d   1      24.552  44.624  -3.146 -0.22 +0.01    +0.066    47.033
ATOM     24  C   UNL d   1      25.786  41.412  -4.502 -0.21 +0.01    +0.051    47.033
ATOM     25  N   UNL d   1      22.402  46.733  -2.919 -0.14 -0.00    -0.248    47.033
ATOM     26  N   UNL d   1      20.185  46.585  -4.711 -0.13 +0.02    -0.248    47.033
ATOM     27  N   UNL d   1      21.415  44.307  -5.960 -0.14 -0.02    -0.248    47.033
ATOM     28  N   UNL d   1      23.652  44.461  -4.147 -0.17 -0.02    -0.248    47.033
ATOM     29 FE   UNL d   1      21.919  45.521  -4.430 -0.05 -0.00    +0.000    47.033
ATOM     30  C   UNL d   1      24.698  48.161  -0.423 -0.09 +0.01    +0.052    47.033
ATOM     31  C   UNL d   1      24.377  47.701   0.994 -0.10 +0.03    +0.115    47.033
ATOM     32  C   UNL d   1      25.513  46.891   1.555 -0.15 +0.07    +0.139    47.033
ATOM     33  O   UNL d   1      25.296  45.940   2.292 -0.46 -0.69    -0.650    47.033
ATOM     34  O   UNL d   1      26.782  47.209   1.249 +0.03 -0.34    -0.776    47.033
ATOM     35  H   UNL d   1      27.343  46.545   0.824 +0.03 +0.07    +0.167    47.033
ATOM     36  C   UNL d   1      26.537  43.292  -2.106 -0.21 +0.01    +0.052    47.033
ATOM     37  C   UNL d   1      27.505  44.466  -2.094 -0.07 +0.02    +0.115    47.033
ATOM     38  C   UNL d   1      27.841  44.872  -0.687 -0.09 +0.03    +0.139    47.033
ATOM     39  O   UNL d   1      28.804  45.589  -0.456 +0.02 -0.16    -0.650    47.033
ATOM     40  O   UNL d   1      27.081  44.442   0.336 +0.04 -0.30    -0.776    47.033
ATOM     41  H   UNL d   1      26.764  45.082   0.988 +0.05 +0.10    +0.167    47.033
ATOM     42  C   UNL d   1      16.736  47.120  -6.048 -0.29 -0.00    +0.004    47.033
ATOM     43  C   UNL d   1      15.650  46.604  -5.457 -0.47 -0.00    +0.012    47.033
ATOM     44  C   UNL d   1      22.106  41.774  -8.556 -0.15 +0.00    +0.004    47.033
ATOM     45  C   UNL d   1      22.053  40.483  -8.212 -0.20 +0.00    +0.012    47.033
TER
ENDMDL
MODEL       84
USER    Run = 84
USER    Cluster Rank = 23
USER    Number of conformations in this cluster = 1
USER  
USER    RMSD from reference structure       = 29.674 A
USER  
USER    Estimated Free Energy of Binding    =   -4.48 kcal/mol  [=(1)+(2)+(3)-(4)]
USER    Estimated Inhibition Constant, Ki   =  521.19 uM (micromolar)  [Temperature = 298.15 K]
USER    
USER    (1) Final Intermolecular Energy     =   -7.46 kcal/mol
USER        vdW + Hbond + desolv Energy     =   -6.42 kcal/mol
USER        Electrostatic Energy            =   -1.04 kcal/mol
USER    (2) Final Total Internal Energy     =   -1.51 kcal/mol
USER    (3) Torsional Free Energy           =   +2.98 kcal/mol
USER    (4) Unbound System's Energy  [=(2)] =   -1.51 kcal/mol
USER    
USER    
USER  
USER    DPF = D:/Protein_go_brrr/autodock/final/6BB5/heme_Fe/dock.dpf
USER    NEWDPF move	heme_Fe_opt.pdbqt
USER    NEWDPF about	-0.174000 -0.001000 -0.047000
USER    NEWDPF tran0	0.437465 31.659975 8.454237
USER    NEWDPF axisangle0	0.299514 -0.833295 -0.464661 -104.941403
USER    NEWDPF quaternion0	0.237527 -0.660838 -0.368496 -0.609167
USER    NEWDPF dihe0	112.57 139.69 46.26 -144.63 88.96 -41.47 -4.83 3.64 -179.22 130.79 
USER  
USER                              x       y       z    vdW   Elec        q     RMS 
ATOM      1  C   UNL d   1       0.195  33.240   7.168 -0.25 +0.01    +0.064    29.674
ATOM      2  C   UNL d   1      -0.593  28.369   6.884 -0.15 -0.03    +0.064    29.674
ATOM      3  C   UNL d   1      -0.220  28.100  11.665 -0.19 -0.01    +0.064    29.674
ATOM      4  C   UNL d   1       0.649  32.796  11.953 -0.28 +0.00    +0.064    29.674
ATOM      5  C   UNL d   1       0.022  31.881   6.637 -0.17 -0.00    +0.066    29.674
ATOM      6  C   UNL d   1      -0.014  31.556   5.291 -0.16 +0.00    -0.021    29.674
ATOM      7  C   UNL d   1      -0.236  30.203   5.213 -0.11 +0.00    -0.025    29.674
ATOM      8  C   UNL d   1      -0.328  29.754   6.517 -0.14 -0.02    +0.066    29.674
ATOM      9  C   UNL d   1      -0.334  29.395   3.956 -0.08 -0.01    +0.051    29.674
ATOM     10  C   UNL d   1      -0.629  27.899   8.132 -0.16 -0.04    +0.066    29.674
ATOM     11  C   UNL d   1      -0.999  26.592   8.458 -0.07 +0.02    -0.021    29.674
ATOM     12  C   UNL d   1      -0.916  26.493   9.832 -0.20 -0.00    +0.000    29.674
ATOM     13  C   UNL d   1      -0.504  27.761  10.280 -0.18 -0.02    +0.070    29.674
ATOM     14  C   UNL d   1      -1.474  25.508   7.511 +0.01 -0.06    +0.052    29.674
ATOM     15  C   UNL d   1       0.126  29.332  12.107 -0.10 -0.00    +0.066    29.674
ATOM     16  C   UNL d   1       0.486  29.593  13.423 -0.13 -0.00    -0.021    29.674
ATOM     17  C   UNL d   1       0.734  30.948  13.509 -0.17 +0.00    +0.000    29.674
ATOM     18  C   UNL d   1       0.515  31.483  12.241 -0.19 +0.00    +0.070    29.674
ATOM     19  C   UNL d   1       0.570  28.614  14.563 -0.15 -0.00    +0.052    29.674
ATOM     20  C   UNL d   1       0.487  33.385  10.618 -0.21 +0.00    +0.066    29.674
ATOM     21  C   UNL d   1       0.426  34.758  10.341 -0.32 -0.00    -0.025    29.674
ATOM     22  C   UNL d   1       0.309  34.862   8.971 -0.33 -0.00    -0.021    29.674
ATOM     23  C   UNL d   1       0.298  33.556   8.468 -0.11 +0.01    +0.066    29.674
ATOM     24  C   UNL d   1       0.469  35.919  11.309 -0.38 +0.00    +0.051    29.674
ATOM     25  N   UNL d   1      -0.161  30.775   7.380 -0.10 +0.03    -0.248    29.674
ATOM     26  N   UNL d   1      -0.338  28.621   9.245 -0.14 +0.08    -0.248    29.674
ATOM     27  N   UNL d   1       0.184  30.484  11.369 -0.12 +0.01    -0.248    29.674
ATOM     28  N   UNL d   1       0.361  32.658   9.482 +0.03 -0.02    -0.248    29.674
ATOM     29 FE   UNL d   1       0.012  30.641   9.365 -0.05 -0.00    +0.000    29.674
ATOM     30  C   UNL d   1       0.176  32.478   4.136 -0.18 +0.00    +0.052    29.674
ATOM     31  C   UNL d   1      -1.158  33.068   3.692 -0.08 +0.01    +0.115    29.674
ATOM     32  C   UNL d   1      -0.948  34.085   2.604 -0.10 +0.03    +0.139    29.674
ATOM     33  O   UNL d   1      -0.934  33.746   1.429 +0.00 -0.13    -0.650    29.674
ATOM     34  O   UNL d   1      -0.772  35.380   2.915 +0.02 -0.36    -0.776    29.674
ATOM     35  H   UNL d   1      -1.511  35.875   3.297 +0.02 +0.08    +0.167    29.674
ATOM     36  C   UNL d   1       0.167  36.145   8.195 -0.17 +0.01    +0.052    29.674
ATOM     37  C   UNL d   1      -0.975  36.018   7.197 -0.24 +0.04    +0.115    29.674
ATOM     38  C   UNL d   1      -1.099  37.259   6.359 -0.25 +0.06    +0.139    29.674
ATOM     39  O   UNL d   1      -0.982  38.367   6.861 -0.04 -0.41    -0.650    29.674
ATOM     40  O   UNL d   1      -1.344  37.156   5.040 +0.04 -0.39    -0.776    29.674
ATOM     41  H   UNL d   1      -0.896  36.467   4.531 +0.04 +0.09    +0.167    29.674
ATOM     42  C   UNL d   1      -1.234  25.265  10.624 -0.22 -0.00    +0.004    29.674
ATOM     43  C   UNL d   1      -0.272  24.398  10.968 -0.33 -0.01    +0.012    29.674
ATOM     44  C   UNL d   1       1.172  31.678  14.720 -0.20 +0.00    +0.004    29.674
ATOM     45  C   UNL d   1       0.278  32.213  15.557 -0.16 -0.00    +0.012    29.674
TER
ENDMDL
MODEL       95
USER    Run = 95
USER    Cluster Rank = 24
USER    Number of conformations in this cluster = 1
USER  
USER    RMSD from reference structure       = 48.759 A
USER  
USER    Estimated Free Energy of Binding    =   -4.12 kcal/mol  [=(1)+(2)+(3)-(4)]
USER    Estimated Inhibition Constant, Ki   =  961.31 uM (micromolar)  [Temperature = 298.15 K]
USER    
USER    (1) Final Intermolecular Energy     =   -7.10 kcal/mol
USER        vdW + Hbond + desolv Energy     =   -7.05 kcal/mol
USER        Electrostatic Energy            =   -0.05 kcal/mol
USER    (2) Final Total Internal Energy     =   -2.25 kcal/mol
USER    (3) Torsional Free Energy           =   +2.98 kcal/mol
USER    (4) Unbound System's Energy  [=(2)] =   -2.25 kcal/mol
USER    
USER    
USER  
USER    DPF = D:/Protein_go_brrr/autodock/final/6BB5/heme_Fe/dock.dpf
USER    NEWDPF move	heme_Fe_opt.pdbqt
USER    NEWDPF about	-0.174000 -0.001000 -0.047000
USER    NEWDPF tran0	21.633231 48.270866 -3.024877
USER    NEWDPF axisangle0	-0.196061 -0.249317 0.948368 165.413215
USER    NEWDPF quaternion0	-0.194475 -0.247299 0.940695 0.126950
USER    NEWDPF dihe0	56.37 -180.00 -168.37 169.72 -21.73 -96.83 80.19 -162.22 -4.85 -16.36 
USER  
USER                              x       y       z    vdW   Elec        q     RMS 
ATOM      1  C   UNL d   1      23.220  48.330  -1.724 -0.11 +0.00    +0.064    48.759
ATOM      2  C   UNL d   1      18.906  50.720  -2.063 -0.23 -0.02    +0.064    48.759
ATOM      3  C   UNL d   1      17.397  47.409  -5.198 -0.26 -0.01    +0.064    48.759
ATOM      4  C   UNL d   1      21.601  45.139  -4.965 -0.26 +0.00    +0.064    48.759
ATOM      5  C   UNL d   1      22.176  49.356  -1.593 -0.09 -0.00    +0.066    48.759
ATOM      6  C   UNL d   1      22.303  50.522  -0.856 -0.07 +0.00    -0.021    48.759
ATOM      7  C   UNL d   1      21.103  51.183  -0.947 -0.14 +0.00    -0.025    48.759
ATOM      8  C   UNL d   1      20.289  50.394  -1.737 -0.17 -0.01    +0.066    48.759
ATOM      9  C   UNL d   1      20.774  52.505  -0.325 -0.06 -0.01    +0.051    48.759
ATOM     10  C   UNL d   1      18.119  50.005  -2.869 -0.22 -0.02    +0.066    48.759
ATOM     11  C   UNL d   1      16.764  50.280  -3.070 -0.31 +0.00    -0.021    48.759
ATOM     12  C   UNL d   1      16.301  49.329  -3.957 -0.27 -0.00    +0.000    48.759
ATOM     13  C   UNL d   1      17.406  48.510  -4.248 -0.19 -0.02    +0.070    48.759
ATOM     14  C   UNL d   1      15.933  51.353  -2.397 -0.25 -0.01    +0.052    48.759
ATOM     15  C   UNL d   1      18.444  46.586  -5.442 -0.24 -0.01    +0.066    48.759
ATOM     16  C   UNL d   1      18.426  45.609  -6.429 -0.27 +0.00    -0.021    48.759
ATOM     17  C   UNL d   1      19.637  44.950  -6.361 -0.28 +0.00    +0.000    48.759
ATOM     18  C   UNL d   1      20.364  45.540  -5.330 -0.24 -0.00    +0.070    48.759
ATOM     19  C   UNL d   1      17.307  45.287  -7.382 -0.28 -0.00    +0.052    48.759
ATOM     20  C   UNL d   1      22.421  45.775  -3.927 -0.22 +0.00    +0.066    48.759
ATOM     21  C   UNL d   1      23.612  45.254  -3.403 -0.23 -0.00    -0.025    48.759
ATOM     22  C   UNL d   1      24.063  46.185  -2.490 -0.11 -0.00    -0.021    48.759
ATOM     23  C   UNL d   1      23.130  47.230  -2.489 -0.13 +0.00    +0.066    48.759
ATOM     24  C   UNL d   1      24.296  43.947  -3.733 -0.30 +0.01    +0.051    48.759
ATOM     25  N   UNL d   1      20.948  49.288  -2.136 -0.08 +0.03    -0.248    48.759
ATOM     26  N   UNL d   1      18.512  48.917  -3.578 -0.08 +0.08    -0.248    48.759
ATOM     27  N   UNL d   1      19.649  46.574  -4.793 -0.15 +0.03    -0.248    48.759
ATOM     28  N   UNL d   1      22.108  46.953  -3.334 -0.12 +0.01    -0.248    48.759
ATOM     29 FE   UNL d   1      20.311  47.933  -3.457 -0.04 -0.00    +0.000    48.759
ATOM     30  C   UNL d   1      23.508  50.997  -0.119 -0.04 -0.00    +0.052    48.759
ATOM     31  C   UNL d   1      24.455  51.741  -1.055 -0.01 -0.00    +0.115    48.759
ATOM     32  C   UNL d   1      25.580  50.842  -1.488 -0.00 +0.00    +0.139    48.759
ATOM     33  O   UNL d   1      25.884  49.860  -0.825 +0.01 -0.05    -0.650    48.759
ATOM     34  O   UNL d   1      26.265  51.112  -2.612 +0.00 -0.03    -0.776    48.759
ATOM     35  H   UNL d   1      26.317  50.438  -3.304 +0.00 +0.01    +0.167    48.759
ATOM     36  C   UNL d   1      25.294  46.053  -1.633 -0.08 +0.01    +0.052    48.759
ATOM     37  C   UNL d   1      26.527  46.422  -2.446 -0.06 +0.01    +0.115    48.759
ATOM     38  C   UNL d   1      26.147  47.184  -3.684 -0.02 +0.01    +0.139    48.759
ATOM     39  O   UNL d   1      26.032  46.614  -4.758 +0.02 -0.04    -0.650    48.759
ATOM     40  O   UNL d   1      25.935  48.511  -3.616 +0.01 -0.04    -0.776    48.759
ATOM     41  H   UNL d   1      26.026  48.959  -2.764 +0.01 +0.01    +0.167    48.759
ATOM     42  C   UNL d   1      14.892  49.232  -4.452 -0.35 -0.00    +0.004    48.759
ATOM     43  C   UNL d   1      14.163  48.128  -4.245 -0.51 -0.00    +0.012    48.759
ATOM     44  C   UNL d   1      20.077  43.843  -7.240 -0.29 +0.00    +0.004    48.759
ATOM     45  C   UNL d   1      20.692  42.770  -6.732 -0.35 +0.00    +0.012    48.759
TER
ENDMDL
MODEL       67
USER    Run = 67
USER    Cluster Rank = 25
USER    Number of conformations in this cluster = 1
USER  
USER    RMSD from reference structure       = 48.530 A
USER  
USER    Estimated Free Energy of Binding    =   -3.85 kcal/mol  [=(1)+(2)+(3)-(4)]
USER    Estimated Inhibition Constant, Ki   =    1.50 mM (millimolar)  [Temperature = 298.15 K]
USER    
USER    (1) Final Intermolecular Energy     =   -6.83 kcal/mol
USER        vdW + Hbond + desolv Energy     =   -6.56 kcal/mol
USER        Electrostatic Energy            =   -0.28 kcal/mol
USER    (2) Final Total Internal Energy     =   -2.31 kcal/mol
USER    (3) Torsional Free Energy           =   +2.98 kcal/mol
USER    (4) Unbound System's Energy  [=(2)] =   -2.31 kcal/mol
USER    
USER    
USER  
USER    DPF = D:/Protein_go_brrr/autodock/final/6BB5/heme_Fe/dock.dpf
USER    NEWDPF move	heme_Fe_opt.pdbqt
USER    NEWDPF about	-0.174000 -0.001000 -0.047000
USER    NEWDPF tran0	24.808217 45.575247 -1.151581
USER    NEWDPF axisangle0	-0.135966 -0.931274 -0.337998 151.663669
USER    NEWDPF quaternion0	-0.131830 -0.902946 -0.327717 0.244769
USER    NEWDPF dihe0	-55.42 178.61 52.37 15.23 42.84 107.61 -104.16 155.99 177.85 -173.10 
USER  
USER                              x       y       z    vdW   Elec        q     RMS 
ATOM      1  C   UNL d   1      26.760  45.022  -0.840 -0.14 +0.02    +0.064    48.530
ATOM      2  C   UNL d   1      23.311  43.880  -4.192 -0.24 +0.01    +0.064    48.530
ATOM      3  C   UNL d   1      20.730  47.654  -2.721 -0.26 -0.01    +0.064    48.530
ATOM      4  C   UNL d   1      24.005  48.715   0.601 -0.10 +0.01    +0.064    48.530
ATOM      5  C   UNL d   1      25.989  44.302  -1.863 -0.15 +0.01    +0.066    48.530
ATOM      6  C   UNL d   1      26.370  43.101  -2.440 -0.20 -0.00    -0.021    48.530
ATOM      7  C   UNL d   1      25.414  42.787  -3.373 -0.27 -0.00    -0.025    48.530
ATOM      8  C   UNL d   1      24.485  43.808  -3.330 -0.28 +0.01    +0.066    48.530
ATOM      9  C   UNL d   1      25.392  41.564  -4.238 -0.25 +0.01    +0.051    48.530
ATOM     10  C   UNL d   1      22.370  44.824  -4.131 -0.24 +0.00    +0.066    48.530
ATOM     11  C   UNL d   1      21.319  44.929  -5.045 -0.27 -0.00    -0.021    48.530
ATOM     12  C   UNL d   1      20.569  46.020  -4.652 -0.27 -0.00    +0.000    48.530
ATOM     13  C   UNL d   1      21.213  46.534  -3.513 -0.25 -0.01    +0.070    48.530
ATOM     14  C   UNL d   1      21.079  44.074  -6.272 -0.29 +0.00    +0.052    48.530
ATOM     15  C   UNL d   1      21.374  48.184  -1.654 -0.21 -0.01    +0.066    48.530
ATOM     16  C   UNL d   1      20.831  49.189  -0.864 -0.22 +0.00    -0.021    48.530
ATOM     17  C   UNL d   1      21.775  49.499   0.093 -0.17 -0.00    +0.000    48.530
ATOM     18  C   UNL d   1      22.876  48.677  -0.140 -0.12 +0.00    +0.070    48.530
ATOM     19  C   UNL d   1      19.488  49.851  -1.014 -0.31 -0.02    +0.052    48.530
ATOM     20  C   UNL d   1      25.158  47.824   0.424 -0.09 +0.01    +0.066    48.530
ATOM     21  C   UNL d   1      26.405  47.980   1.046 -0.09 -0.01    -0.025    48.530
ATOM     22  C   UNL d   1      27.170  46.910   0.631 -0.10 -0.01    -0.021    48.530
ATOM     23  C   UNL d   1      26.367  46.150  -0.228 -0.09 +0.02    +0.066    48.530
ATOM     24  C   UNL d   1      26.863  49.077   1.978 -0.08 +0.01    +0.051    48.530
ATOM     25  N   UNL d   1      24.833  44.724  -2.404 -0.11 -0.04    -0.248    48.530
ATOM     26  N   UNL d   1      22.316  45.810  -3.200 -0.17 -0.00    -0.248    48.530
ATOM     27  N   UNL d   1      22.613  47.838  -1.186 -0.08 -0.01    -0.248    48.530
ATOM     28  N   UNL d   1      25.155  46.737  -0.385 +0.04 -0.06    -0.248    48.530
ATOM     29 FE   UNL d   1      23.736  46.275  -1.791 -0.05 +0.00    +0.000    48.530
ATOM     30  C   UNL d   1      27.570  42.282  -2.108 -0.15 +0.01    +0.052    48.530
ATOM     31  C   UNL d   1      28.740  42.644  -3.016 -0.04 +0.01    +0.115    48.530
ATOM     32  C   UNL d   1      29.349  43.952  -2.592 -0.02 +0.02    +0.139    48.530
ATOM     33  O   UNL d   1      29.531  44.201  -1.409 +0.02 -0.11    -0.650    48.530
ATOM     34  O   UNL d   1      29.699  44.864  -3.515 +0.01 -0.08    -0.776    48.530
ATOM     35  H   UNL d   1      29.338  45.759  -3.452 +0.00 +0.02    +0.167    48.530
ATOM     36  C   UNL d   1      28.609  46.661   1.002 -0.09 +0.02    +0.052    48.530
ATOM     37  C   UNL d   1      29.512  47.593   0.208 -0.04 +0.03    +0.115    48.530
ATOM     38  C   UNL d   1      28.852  48.022  -1.072 -0.01 +0.02    +0.139    48.530
ATOM     39  O   UNL d   1      28.433  49.162  -1.207 +0.02 -0.08    -0.650    48.530
ATOM     40  O   UNL d   1      28.714  47.146  -2.083 +0.02 -0.10    -0.776    48.530
ATOM     41  H   UNL d   1      29.066  46.251  -1.981 +0.01 +0.02    +0.167    48.530
ATOM     42  C   UNL d   1      19.344  46.514  -5.354 -0.26 -0.00    +0.004    48.530
ATOM     43  C   UNL d   1      18.121  46.220  -4.895 -0.37 -0.00    +0.012    48.530
ATOM     44  C   UNL d   1      21.626  50.502   1.172 -0.22 -0.00    +0.004    48.530
ATOM     45  C   UNL d   1      20.773  50.300   2.181 -0.38 -0.00    +0.012    48.530
TER
ENDMDL


AVSFLD: # AVS field file
AVSFLD: #
AVSFLD: # Created by AutoDock
AVSFLD: #
AVSFLD: ndim=2           # number of dimensions in the field
AVSFLD: nspace=1         # number of physical coordinates
AVSFLD: veclen=7         # vector size
AVSFLD: dim1=45          # atoms
AVSFLD: dim2=25          # conformations
AVSFLD: data=Real       # data type (byte,integer,Real,double)
AVSFLD: field=uniform    # field coordinate layout
AVSFLD: label= x y z vdW Elec q RMS
AVSFLD: variable 1 file = D:/Protein_go_brrr/autodock/final/6BB5/heme_Fe/dock.dlg.pdb filetype = ascii offset = 5 stride = 12
AVSFLD: variable 2 file = D:/Protein_go_brrr/autodock/final/6BB5/heme_Fe/dock.dlg.pdb filetype = ascii offset = 6 stride = 12
AVSFLD: variable 3 file = D:/Protein_go_brrr/autodock/final/6BB5/heme_Fe/dock.dlg.pdb filetype = ascii offset = 7 stride = 12
AVSFLD: variable 4 file = D:/Protein_go_brrr/autodock/final/6BB5/heme_Fe/dock.dlg.pdb filetype = ascii offset = 8 stride = 12
AVSFLD: variable 5 file = D:/Protein_go_brrr/autodock/final/6BB5/heme_Fe/dock.dlg.pdb filetype = ascii offset = 9 stride = 12
AVSFLD: variable 6 file = D:/Protein_go_brrr/autodock/final/6BB5/heme_Fe/dock.dlg.pdb filetype = ascii offset = 10 stride = 12
AVSFLD: variable 7 file = D:/Protein_go_brrr/autodock/final/6BB5/heme_Fe/dock.dlg.pdb filetype = ascii offset = 11 stride = 12
AVSFLD: # end of file

>>> Closing the docking parameter file (DPF)...
This docking finished at:			8:54 39" a.m., 09/29/2025


________________________________________________________________________________

D:/autodockScripts/autodock4.exe: Successful Completion on "ACER"

Real= 8h 06m 35.96s,  CPU= 52.53s,  System= 54.64s
________________________________________________________________________________

