          AutoDock 4.2 Release 4.2.6   
         (C) 1989-2012 The Scripps Research Institute
        AutoDock comes with ABSOLUTELY NO WARRANTY.
        AutoDock is free software, and you are welcome
        to redistribute it under certain conditions;
        for details type 'autodock4 -C'

                     main.cc  $Revision: 1.213 $

                   Compiled on Jul 18 2014 at 15:34:58


This file was created at:			3:36 22" p.m., 10/03/2025
                   on host:		"ACER"
Current Working Directory = "D:\Protein_go_brrr\autodock\final\mut_K82N\2_3_BPG"

      ________________________________________________________________

                   SETTING UP DEFAULT PARAMETER LIBRARY
      ________________________________________________________________


Random number generator was seeded with values 160680, 1759498582.
Docking parameter file (DPF) used for this docking:		D:/Protein_go_brrr/autodock/final/mut_K82N/2_3_BPG/dock.dpf
DPF> autodock_parameter_version 4.2       # used by autodock to validate parameter set

	Autodock parameter version 4.2.
DPF> outlev 1                             # diagnostic output level

Output Level = 1  ADT-COMPATIBLE OUTPUT DURING DOCKING.
DPF> intelec                              # calculate internal electrostatics

Electrostatic energies will be calculated for all non-bonds between moving atoms.
DPF> seed pid time                        # seeds for random generator

Random number generator was seeded with values 160680, 1759498582.
DPF> ligand_types P C OA                  # atoms types in ligand

DPF> fld mut_K82N_m0.maps.fld             # grid_data_file

Opening Grid Map Dimensions file:		mut_K82N_m0.maps.fld
Grid Point Spacing =				0.447 Angstroms

Even Number of User-specified Grid Points =	126 x-points
						126 y-points
						126 z-points

Coordinates of Central Grid Point of Maps =	(0.575, 0.825, 0.156)
Macromolecule file used to create Grid Maps =	mut_K82N_m0.pdbqt
Grid Parameter file used to create Grid Maps =	D:/Protein_go_brrr/autodock/final/mut_K82N/2_3_BPG/grid.gpf
Minimum coordinates in grid = (-27.586, -27.336, -28.005)
Maximum coordinates in grid = (28.736, 28.986, 28.317)

DPF> map mut_K82N_m0.P.map                # atom-specific affinity map

DPF> map mut_K82N_m0.C.map                # atom-specific affinity map

DPF> map mut_K82N_m0.OA.map               # atom-specific affinity map

DPF> elecmap mut_K82N_m0.e.map            # electrostatics map

DPF> desolvmap mut_K82N_m0.d.map          # desolvation map

DPF> move 2_3_BPG_opt.pdbqt               # small molecule

1,4-interactions will be _ignored_ in the non-bonded internal energy calculation.

Ligand PDBQT file = "2_3_BPG_opt.pdbqt"

INPUT LIGAND PDBQT FILE:
________________________

INPUT-LIGAND-PDBQT: REMARK  6 active torsions:
INPUT-LIGAND-PDBQT: REMARK  status: ('A' for Active; 'I' for Inactive)
INPUT-LIGAND-PDBQT: REMARK    1  A    between atoms: P_1  and  O_3 
INPUT-LIGAND-PDBQT: REMARK    2  A    between atoms: P_2  and  O_4 
INPUT-LIGAND-PDBQT: REMARK    3  A    between atoms: O_3  and  C_13 
INPUT-LIGAND-PDBQT: REMARK    4  A    between atoms: O_4  and  C_14 
INPUT-LIGAND-PDBQT: REMARK    5  A    between atoms: C_13  and  C_14 
INPUT-LIGAND-PDBQT: REMARK    6  A    between atoms: C_13  and  C_15 
INPUT-LIGAND-PDBQT: ROOT
INPUT-LIGAND-PDBQT: ATOM      1  C   UNL d   1      -0.571  -0.229   0.124  0.00  0.00     0.193 C 
INPUT-LIGAND-PDBQT: ENDROOT
INPUT-LIGAND-PDBQT: BRANCH   1   2
INPUT-LIGAND-PDBQT: ATOM      2  O   UNL d   1      -1.621   0.569  -0.519  0.00  0.00    -0.356 OA
INPUT-LIGAND-PDBQT: BRANCH   2   3
INPUT-LIGAND-PDBQT: ATOM      3  P   UNL d   1      -3.039   0.957   0.218  0.00  0.00    -0.014 P 
INPUT-LIGAND-PDBQT: ATOM      4  O   UNL d   1      -3.756   1.871  -0.788  0.00  0.00    -0.577 OA
INPUT-LIGAND-PDBQT: ATOM      5  O   UNL d   1      -2.691   1.702   1.505  0.00  0.00    -0.577 OA
INPUT-LIGAND-PDBQT: ATOM      6  O   UNL d   1      -3.816  -0.334   0.454  0.00  0.00    -0.638 OA
INPUT-LIGAND-PDBQT: ENDBRANCH   2   3
INPUT-LIGAND-PDBQT: ENDBRANCH   1   2
INPUT-LIGAND-PDBQT: BRANCH   1   7
INPUT-LIGAND-PDBQT: ATOM      7  C   UNL d   1       0.831   0.324  -0.327  0.00  0.00     0.201 C 
INPUT-LIGAND-PDBQT: BRANCH   7   8
INPUT-LIGAND-PDBQT: ATOM      8  O   UNL d   1       1.946  -0.012   0.528  0.00  0.00    -0.364 OA
INPUT-LIGAND-PDBQT: BRANCH   8   9
INPUT-LIGAND-PDBQT: ATOM      9  P   UNL d   1       3.455   0.578   0.194  0.00  0.00    -0.015 P 
INPUT-LIGAND-PDBQT: ATOM     10  O   UNL d   1       4.367  -0.029   1.267  0.00  0.00    -0.577 OA
INPUT-LIGAND-PDBQT: ATOM     11  O   UNL d   1       3.374   2.100   0.308  0.00  0.00    -0.577 OA
INPUT-LIGAND-PDBQT: ATOM     12  O   UNL d   1       3.825   0.102  -1.210  0.00  0.00    -0.638 OA
INPUT-LIGAND-PDBQT: ENDBRANCH   8   9
INPUT-LIGAND-PDBQT: ENDBRANCH   7   8
INPUT-LIGAND-PDBQT: ENDBRANCH   1   7
INPUT-LIGAND-PDBQT: BRANCH   1  13
INPUT-LIGAND-PDBQT: ATOM     13  C   UNL d   1      -0.687  -1.734  -0.323  0.00  0.00     0.073 C 
INPUT-LIGAND-PDBQT: ATOM     14  O   UNL d   1      -0.704  -2.000  -1.576  0.00  0.00    -0.547 OA
INPUT-LIGAND-PDBQT: ATOM     15  O   UNL d   1      -0.694  -2.619   0.607  0.00  0.00    -0.547 OA
INPUT-LIGAND-PDBQT: ENDBRANCH   1  13
INPUT-LIGAND-PDBQT: TORSDOF 6
________________________________________________________________________________

Total charge on ligand                               =	-4.960 e
REMARK  6 active torsions:
REMARK  status: ('A' for Active; 'I' for Inactive)
REMARK    1  A    between atoms: P_1  and  O_3 
REMARK    2  A    between atoms: P_2  and  O_4 
REMARK    3  A    between atoms: O_3  and  C_13 
REMARK    4  A    between atoms: O_4  and  C_14 
REMARK    5  A    between atoms: C_13  and  C_14 
REMARK    6  A    between atoms: C_13  and  C_15 


Number of Rotatable Bonds in Small Molecule =	6 torsions
Number of atoms in ligand:  15

Number of non-hydrogen atoms in ligand:  15

Number of vibrational degrees of freedom of ligand:  39


Number of torsional degrees of freedom = 6
Estimated loss of torsional free energy upon binding = +1.7898 kcal/mol


DPF> about 0.015 0.083 0.031            # small molecule center

Small molecule center of rotation =	(+0.015, +0.083, +0.031)

DPF> tran0 random                         # initial coordinates/A or random

Initial translation =			(17.386, 3.199, -13.173) Angstroms
DPF> quaternion0 random                   # initial orientation

Each run will begin with a new, random initial orientation.
Initial quaternion,  (x,y,z,w) =	( 0.383, 0.679, -0.376, -0.501 ),
DPF> dihe0 random                         # initial dihedrals (relative) or random

DPF> torsdof 6                            # torsional degrees of freedom

Number of torsional degrees of freedom = 6
Free energy coefficient for torsional degrees of freedom = 0.2983, the factory default value.

Estimated loss of torsional free energy upon binding = +1.7898 kcal/mol

DPF> rmstol 2.0                           # cluster_tolerance/A

Maximum RMS tolerance for conformational cluster analysis = 2.00 Angstroms
DPF> extnrg 1000.0                        # external grid energy

External grid energy (beyond grid map walls) = 1000.00

DPF> e0max 0.0 10000                      # max initial energy; max number of retries

Using user-specified maximum number of retries for simanneal initialization, 10000 retries.
If the simanneal initial energy is greater than e0max, 0.000,
then a new, random initial state will be created.

DPF> ga_pop_size 150                      # number of individuals in population

A population of 150 individuals will be used
DPF> ga_num_evals 25000000                # maximum number of energy evaluations

There will be at most 25000000 function evaluations used.
DPF> ga_num_generations 27000             # maximum number of generations

The GA will run for at most 27000 generations.
DPF> ga_elitism 1                         # number of top individuals to survive to next generation

The 1 best will be preserved each GA generation.
DPF> ga_mutation_rate 0.02                # rate of gene mutation

The mutation rate is 0.020000.
DPF> ga_crossover_rate 0.8                # rate of crossover

The crossover rate is 0.800000.
DPF> ga_window_size 10                    # 

The GA's selection window is 10 generations.
DPF> ga_cauchy_alpha 0.0                  # Alpha parameter of Cauchy distribution

The alpha parameter (for the Cauchy distribution) is being set to 0.000000.
DPF> ga_cauchy_beta 1.0                   # Beta parameter Cauchy distribution

The beta parameter (for the Cauchy distribution) is being set to 1.000000.
DPF> set_ga                               # set the above parameters for GA or LGA

DPF> sw_max_its 300                       # iterations of Solis & Wets local search

Solis & Wets algorithms will perform at most 300 iterations.
DPF> sw_max_succ 4                        # consecutive successes before changing rho

Solis & Wets algorithms expand rho every 4 in a row successes.
DPF> sw_max_fail 4                        # consecutive failures before changing rho

Solis & Wets algorithms contract rho every 4 in a row failures.
DPF> sw_rho 1.0                           # size of local search space to sample

rho is set to 1.000000.
DPF> sw_lb_rho 0.01                       # lower bound on rho

rho will never get smaller than 0.010000.
DPF> ls_search_freq 0.06                  # probability of performing local search on individual

Local search will be performed with frequency 0.060000.
DPF> set_psw1                             # set the above pseudo-Solis & Wets parameters

Creating a new Local Search object using the pseudo-Solis-Wets algorithm (pSW1) with the current settings.

DPF> unbound_model bound                  # state of unbound ligand

DPF> ga_run 100                           # do this many hybrid GA-LS runs

centering ligand on specified point: 0.015 0.083 0.031
Furthest true ligand atom from "about" center is 4.525 Angstroms (maxrad).
Number of requested GA dockings = 100 runs
Unbound model to be used is 'same as bound' [AutoDock 4.2 default].

	BEGINNING GENETIC ALGORITHM DOCKING 1 of 100
Run: 1 Seed: 1953929326 657876583 [ Run 1 of 100 GA/GALS ]
Beginning LAMARCKIAN GENETIC ALGORITHM (LGA), with a maximum of 25000000 energy evaluations.

Final-Value: -5.796


	FINAL GENETIC ALGORITHM DOCKED STATE
	_______________________________________________


Detailed state:  trans -11.816 2.568 -10.221 quatxyzw 0.057874 0.752508 -0.392864 -0.525396 center 0.015 0.083 0.031 ntor 6 -103.2964 26.3935 -130.6434 8.7116 6.7490 -0.7144
State:	-11.816   2.568 -10.221   0.068  0.884 -0.462 -116.610   -103.30   26.39 -130.64    8.71    6.75   -0.71

DOCKED: MODEL        1
DOCKED: USER    Run = 1
DOCKED: USER    DPF = D:/Protein_go_brrr/autodock/final/mut_K82N/2_3_BPG/dock.dpf
DOCKED: USER  
DOCKED: USER    Estimated Free Energy of Binding    =   -6.14 kcal/mol  [=(1)+(2)+(3)-(4)]
DOCKED: USER    Estimated Inhibition Constant, Ki   =   31.51 uM (micromolar)  [Temperature = 298.15 K]
DOCKED: USER    
DOCKED: USER    (1) Final Intermolecular Energy     =   -7.93 kcal/mol
DOCKED: USER        vdW + Hbond + desolv Energy     =   -2.53 kcal/mol
DOCKED: USER        Electrostatic Energy            =   -5.40 kcal/mol
DOCKED: USER    (2) Final Total Internal Energy     =   +2.14 kcal/mol
DOCKED: USER    (3) Torsional Free Energy           =   +1.79 kcal/mol
DOCKED: USER    (4) Unbound System's Energy  [=(2)] =   +2.14 kcal/mol
DOCKED: USER    
DOCKED: USER    
DOCKED: USER    NEWDPF move 2_3_BPG_opt.pdbqt
DOCKED: USER    NEWDPF about 0.015000 0.083000 0.031000
DOCKED: USER    NEWDPF tran0 -11.815592 2.567922 -10.220864
DOCKED: USER    NEWDPF quaternion0 0.057874 0.752508 -0.392864 -0.525396
DOCKED: USER    NEWDPF axisangle0 0.068018 0.884411 -0.461727 -116.610223
DOCKED: USER    NEWDPF quat0 0.068018 0.884411 -0.461727 -116.610223
DOCKED: USER    NEWDPF dihe0 -103.30 26.39 -130.64 8.71 6.75 -0.71 
DOCKED: USER  keepresnum = 1 
DOCKED: USER  
DOCKED: REMARK  6 active torsions:
DOCKED: REMARK  status: ('A' for Active; 'I' for Inactive)
DOCKED: REMARK    1  A    between atoms: P_1  and  O_3 
DOCKED: REMARK    2  A    between atoms: P_2  and  O_4 
DOCKED: REMARK    3  A    between atoms: O_3  and  C_13 
DOCKED: REMARK    4  A    between atoms: O_4  and  C_14 
DOCKED: REMARK    5  A    between atoms: C_13  and  C_14 
DOCKED: REMARK    6  A    between atoms: C_13  and  C_15 
DOCKED: USER                              x       y       z     vdW  Elec       q    Type
DOCKED: USER                           _______ _______ _______ _____ _____    ______ ____
DOCKED: ROOT
DOCKED: ATOM      1  C   UNL d   1     -11.644   2.485  -9.578 -0.02 +0.12    +0.193 C 
DOCKED: ENDROOT
DOCKED: BRANCH   1   2
DOCKED: ATOM      2  O   UNL d   1     -11.261   3.792  -9.034 -0.10 -0.36    -0.356 OA
DOCKED: BRANCH   2   3
DOCKED: ATOM      3  P   UNL d   1      -9.800   4.088  -8.338 -0.15 -0.02    -0.014 P 
DOCKED: ATOM      4  O   UNL d   1     -10.043   5.313  -7.444 -0.41 -1.07    -0.577 OA
DOCKED: ATOM      5  O   UNL d   1      -8.817   4.400  -9.464 -0.05 -0.25    -0.577 OA
DOCKED: ATOM      6  O   UNL d   1      -9.414   2.863  -7.516 -0.02 -0.79    -0.638 OA
DOCKED: ENDBRANCH   2   3
DOCKED: ENDBRANCH   1   2
DOCKED: BRANCH   1   7
DOCKED: ATOM      7  C   UNL d   1     -12.322   2.701 -10.981 -0.10 +0.08    +0.201 C 
DOCKED: BRANCH   7   8
DOCKED: ATOM      8  O   UNL d   1     -12.330   1.554 -11.861 -0.09 -0.16    -0.364 OA
DOCKED: BRANCH   8   9
DOCKED: ATOM      9  P   UNL d   1     -12.793   1.724 -13.440 -0.20 -0.01    -0.015 P 
DOCKED: ATOM     10  O   UNL d   1     -11.949   2.884 -13.980 -0.08 -0.47    -0.577 OA
DOCKED: ATOM     11  O   UNL d   1     -14.284   2.057 -13.435 -0.02 -0.36    -0.577 OA
DOCKED: ATOM     12  O   UNL d   1     -12.477   0.406 -14.146 -0.57 -1.13    -0.638 OA
DOCKED: ENDBRANCH   8   9
DOCKED: ENDBRANCH   7   8
DOCKED: ENDBRANCH   1   7
DOCKED: BRANCH   1  13
DOCKED: ATOM     13  C   UNL d   1     -12.678   1.783  -8.621 -0.13 +0.06    +0.073 C 
DOCKED: ATOM     14  O   UNL d   1     -12.406   1.717  -7.371 -0.59 -0.82    -0.547 OA
DOCKED: ATOM     15  O   UNL d   1     -13.774   1.371  -9.148 +0.00 -0.23    -0.547 OA
DOCKED: ENDBRANCH   1  13
DOCKED: TORSDOF 6
DOCKED: TER
DOCKED: ENDMDL
________________________________________________________________________________


	BEGINNING GENETIC ALGORITHM DOCKING 2 of 100
Run: 2 Seed: 1714706310 1164274961 [ Run 2 of 100 GA/GALS ]
Beginning LAMARCKIAN GENETIC ALGORITHM (LGA), with a maximum of 25000000 energy evaluations.

Final-Value: -6.240


	FINAL GENETIC ALGORITHM DOCKED STATE
	_______________________________________________


Detailed state:  trans 3.631 -14.445 -7.023 quatxyzw -0.737478 -0.104076 -0.271597 0.609532 center 0.015 0.083 0.031 ntor 6 171.3796 -137.3066 151.8772 22.5977 -32.0838 -176.8253
State:	  3.631 -14.445  -7.023  -0.930 -0.131 -0.343 104.889    171.38 -137.31  151.88   22.60  -32.08 -176.83

DOCKED: MODEL        2
DOCKED: USER    Run = 2
DOCKED: USER    DPF = D:/Protein_go_brrr/autodock/final/mut_K82N/2_3_BPG/dock.dpf
DOCKED: USER  
DOCKED: USER    Estimated Free Energy of Binding    =   -6.63 kcal/mol  [=(1)+(2)+(3)-(4)]
DOCKED: USER    Estimated Inhibition Constant, Ki   =   13.83 uM (micromolar)  [Temperature = 298.15 K]
DOCKED: USER    
DOCKED: USER    (1) Final Intermolecular Energy     =   -8.42 kcal/mol
DOCKED: USER        vdW + Hbond + desolv Energy     =   -3.91 kcal/mol
DOCKED: USER        Electrostatic Energy            =   -4.51 kcal/mol
DOCKED: USER    (2) Final Total Internal Energy     =   +2.18 kcal/mol
DOCKED: USER    (3) Torsional Free Energy           =   +1.79 kcal/mol
DOCKED: USER    (4) Unbound System's Energy  [=(2)] =   +2.18 kcal/mol
DOCKED: USER    
DOCKED: USER    
DOCKED: USER    NEWDPF move 2_3_BPG_opt.pdbqt
DOCKED: USER    NEWDPF about 0.015000 0.083000 0.031000
DOCKED: USER    NEWDPF tran0 3.631454 -14.444647 -7.022851
DOCKED: USER    NEWDPF quaternion0 -0.737478 -0.104076 -0.271597 0.609532
DOCKED: USER    NEWDPF axisangle0 -0.930265 -0.131283 -0.342596 104.888657
DOCKED: USER    NEWDPF quat0 -0.930265 -0.131283 -0.342596 104.888657
DOCKED: USER    NEWDPF dihe0 171.38 -137.31 151.88 22.60 -32.08 -176.83 
DOCKED: USER  keepresnum = 1 
DOCKED: USER  
DOCKED: REMARK  6 active torsions:
DOCKED: REMARK  status: ('A' for Active; 'I' for Inactive)
DOCKED: REMARK    1  A    between atoms: P_1  and  O_3 
DOCKED: REMARK    2  A    between atoms: P_2  and  O_4 
DOCKED: REMARK    3  A    between atoms: O_3  and  C_13 
DOCKED: REMARK    4  A    between atoms: O_4  and  C_14 
DOCKED: REMARK    5  A    between atoms: C_13  and  C_14 
DOCKED: REMARK    6  A    between atoms: C_13  and  C_15 
DOCKED: USER                              x       y       z     vdW  Elec       q    Type
DOCKED: USER                           _______ _______ _______ _____ _____    ______ ____
DOCKED: ROOT
DOCKED: ATOM      1  C   UNL d   1       3.249 -14.734  -7.492 -0.12 +0.13    +0.193 C 
DOCKED: ENDROOT
DOCKED: BRANCH   1   2
DOCKED: ATOM      2  O   UNL d   1       1.896 -14.888  -6.946 -0.36 -0.38    -0.356 OA
DOCKED: BRANCH   2   3
DOCKED: ATOM      3  P   UNL d   1       1.243 -16.345  -6.550 -0.13 -0.02    -0.014 P 
DOCKED: ATOM      4  O   UNL d   1       2.409 -17.130  -5.928 -0.15 -0.85    -0.577 OA
DOCKED: ATOM      5  O   UNL d   1       0.758 -16.991  -7.846 +0.00 -0.25    -0.577 OA
DOCKED: ATOM      6  O   UNL d   1       0.129 -16.102  -5.537 -0.56 -0.84    -0.638 OA
DOCKED: ENDBRANCH   2   3
DOCKED: ENDBRANCH   1   2
DOCKED: BRANCH   1   7
DOCKED: ATOM      7  C   UNL d   1       4.078 -13.804  -6.530 -0.14 +0.16    +0.201 C 
DOCKED: BRANCH   7   8
DOCKED: ATOM      8  O   UNL d   1       3.307 -13.011  -5.601 -0.29 -0.41    -0.364 OA
DOCKED: BRANCH   8   9
DOCKED: ATOM      9  P   UNL d   1       3.955 -12.581  -4.141 -0.40 -0.02    -0.015 P 
DOCKED: ATOM     10  O   UNL d   1       4.997 -13.662  -3.833 -0.04 -0.55    -0.577 OA
DOCKED: ATOM     11  O   UNL d   1       2.811 -12.585  -3.127 -0.61 -0.83    -0.577 OA
DOCKED: ATOM     12  O   UNL d   1       4.592 -11.203  -4.318 -0.43 -0.43    -0.638 OA
DOCKED: ENDBRANCH   8   9
DOCKED: ENDBRANCH   7   8
DOCKED: ENDBRANCH   1   7
DOCKED: BRANCH   1  13
DOCKED: ATOM     13  C   UNL d   1       3.184 -14.059  -8.913 -0.16 +0.02    +0.073 C 
DOCKED: ATOM     14  O   UNL d   1       3.897 -14.551  -9.856 +0.01 -0.08    -0.547 OA
DOCKED: ATOM     15  O   UNL d   1       2.363 -13.083  -9.057 -0.53 -0.16    -0.547 OA
DOCKED: ENDBRANCH   1  13
DOCKED: TORSDOF 6
DOCKED: TER
DOCKED: ENDMDL
________________________________________________________________________________


	BEGINNING GENETIC ALGORITHM DOCKING 3 of 100
Run: 3 Seed: 565533158 175519255 [ Run 3 of 100 GA/GALS ]
Beginning LAMARCKIAN GENETIC ALGORITHM (LGA), with a maximum of 25000000 energy evaluations.

Final-Value: -5.971


	FINAL GENETIC ALGORITHM DOCKED STATE
	_______________________________________________


Detailed state:  trans 4.724 -15.129 -5.872 quatxyzw 0.632238 0.658775 0.223605 -0.341016 center 0.015 0.083 0.031 ntor 6 160.1779 -76.1037 -36.7035 45.3608 -26.3433 92.8606
State:	  4.724 -15.129  -5.872   0.673  0.701  0.238 -140.122    160.18  -76.10  -36.70   45.36  -26.34   92.86

DOCKED: MODEL        3
DOCKED: USER    Run = 3
DOCKED: USER    DPF = D:/Protein_go_brrr/autodock/final/mut_K82N/2_3_BPG/dock.dpf
DOCKED: USER  
DOCKED: USER    Estimated Free Energy of Binding    =   -6.30 kcal/mol  [=(1)+(2)+(3)-(4)]
DOCKED: USER    Estimated Inhibition Constant, Ki   =   24.24 uM (micromolar)  [Temperature = 298.15 K]
DOCKED: USER    
DOCKED: USER    (1) Final Intermolecular Energy     =   -8.09 kcal/mol
DOCKED: USER        vdW + Hbond + desolv Energy     =   -3.98 kcal/mol
DOCKED: USER        Electrostatic Energy            =   -4.11 kcal/mol
DOCKED: USER    (2) Final Total Internal Energy     =   +2.12 kcal/mol
DOCKED: USER    (3) Torsional Free Energy           =   +1.79 kcal/mol
DOCKED: USER    (4) Unbound System's Energy  [=(2)] =   +2.12 kcal/mol
DOCKED: USER    
DOCKED: USER    
DOCKED: USER    NEWDPF move 2_3_BPG_opt.pdbqt
DOCKED: USER    NEWDPF about 0.015000 0.083000 0.031000
DOCKED: USER    NEWDPF tran0 4.723623 -15.128762 -5.871649
DOCKED: USER    NEWDPF quaternion0 0.632238 0.658775 0.223605 -0.341016
DOCKED: USER    NEWDPF axisangle0 0.672552 0.700781 0.237863 -140.122410
DOCKED: USER    NEWDPF quat0 0.672552 0.700781 0.237863 -140.122410
DOCKED: USER    NEWDPF dihe0 160.18 -76.10 -36.70 45.36 -26.34 92.86 
DOCKED: USER  keepresnum = 1 
DOCKED: USER  
DOCKED: REMARK  6 active torsions:
DOCKED: REMARK  status: ('A' for Active; 'I' for Inactive)
DOCKED: REMARK    1  A    between atoms: P_1  and  O_3 
DOCKED: REMARK    2  A    between atoms: P_2  and  O_4 
DOCKED: REMARK    3  A    between atoms: O_3  and  C_13 
DOCKED: REMARK    4  A    between atoms: O_4  and  C_14 
DOCKED: REMARK    5  A    between atoms: C_13  and  C_14 
DOCKED: REMARK    6  A    between atoms: C_13  and  C_15 
DOCKED: USER                              x       y       z     vdW  Elec       q    Type
DOCKED: USER                           _______ _______ _______ _____ _____    ______ ____
DOCKED: ROOT
DOCKED: ATOM      1  C   UNL d   1       4.561 -15.750  -6.063 -0.02 +0.21    +0.193 C 
DOCKED: ENDROOT
DOCKED: BRANCH   1   2
DOCKED: ATOM      2  O   UNL d   1       4.599 -16.617  -4.879 -0.68 -0.56    -0.356 OA
DOCKED: BRANCH   2   3
DOCKED: ATOM      3  P   UNL d   1       5.965 -17.366  -4.353 -0.26 -0.01    -0.014 P 
DOCKED: ATOM      4  O   UNL d   1       6.466 -16.484  -3.199 -0.09 -0.19    -0.577 OA
DOCKED: ATOM      5  O   UNL d   1       6.952 -17.379  -5.519 +0.02 -0.15    -0.577 OA
DOCKED: ATOM      6  O   UNL d   1       5.581 -18.760  -3.867 -0.54 -0.30    -0.638 OA
DOCKED: ENDBRANCH   2   3
DOCKED: ENDBRANCH   1   2
DOCKED: BRANCH   1   7
DOCKED: ATOM      7  C   UNL d   1       4.652 -14.251  -5.594 -0.07 +0.22    +0.201 C 
DOCKED: BRANCH   7   8
DOCKED: ATOM      8  O   UNL d   1       3.434 -13.481  -5.704 -0.17 -0.48    -0.364 OA
DOCKED: BRANCH   8   9
DOCKED: ATOM      9  P   UNL d   1       3.211 -12.142  -4.759 -0.60 -0.01    -0.015 P 
DOCKED: ATOM     10  O   UNL d   1       2.420 -11.163  -5.634 -0.12 -0.19    -0.577 OA
DOCKED: ATOM     11  O   UNL d   1       4.600 -11.604  -4.413 -0.59 -0.40    -0.577 OA
DOCKED: ATOM     12  O   UNL d   1       2.418 -12.584  -3.530 -0.62 -1.02    -0.638 OA
DOCKED: ENDBRANCH   8   9
DOCKED: ENDBRANCH   7   8
DOCKED: ENDBRANCH   1   7
DOCKED: BRANCH   1  13
DOCKED: ATOM     13  C   UNL d   1       3.206 -15.955  -6.837 -0.10 +0.08    +0.073 C 
DOCKED: ATOM     14  O   UNL d   1       3.211 -15.857  -8.115 -0.00 -0.26    -0.547 OA
DOCKED: ATOM     15  O   UNL d   1       2.177 -16.274  -6.138 -0.13 -1.03    -0.547 OA
DOCKED: ENDBRANCH   1  13
DOCKED: TORSDOF 6
DOCKED: TER
DOCKED: ENDMDL
________________________________________________________________________________


	BEGINNING GENETIC ALGORITHM DOCKING 4 of 100
Run: 4 Seed: 843262680 1293623244 [ Run 4 of 100 GA/GALS ]
Beginning LAMARCKIAN GENETIC ALGORITHM (LGA), with a maximum of 25000000 energy evaluations.

Final-Value: -5.881


	FINAL GENETIC ALGORITHM DOCKED STATE
	_______________________________________________


Detailed state:  trans -11.579 3.273 -10.472 quatxyzw 0.063569 0.727434 -0.463846 -0.501643 center 0.015 0.083 0.031 ntor 6 -154.5376 -60.9755 -129.7709 -14.1448 9.2000 -2.6376
State:	-11.579   3.273 -10.472   0.073  0.841 -0.536 -119.782   -154.54  -60.98 -129.77  -14.14    9.20   -2.64

DOCKED: MODEL        4
DOCKED: USER    Run = 4
DOCKED: USER    DPF = D:/Protein_go_brrr/autodock/final/mut_K82N/2_3_BPG/dock.dpf
DOCKED: USER  
DOCKED: USER    Estimated Free Energy of Binding    =   -6.14 kcal/mol  [=(1)+(2)+(3)-(4)]
DOCKED: USER    Estimated Inhibition Constant, Ki   =   31.64 uM (micromolar)  [Temperature = 298.15 K]
DOCKED: USER    
DOCKED: USER    (1) Final Intermolecular Energy     =   -7.93 kcal/mol
DOCKED: USER        vdW + Hbond + desolv Energy     =   -2.67 kcal/mol
DOCKED: USER        Electrostatic Energy            =   -5.26 kcal/mol
DOCKED: USER    (2) Final Total Internal Energy     =   +2.05 kcal/mol
DOCKED: USER    (3) Torsional Free Energy           =   +1.79 kcal/mol
DOCKED: USER    (4) Unbound System's Energy  [=(2)] =   +2.05 kcal/mol
DOCKED: USER    
DOCKED: USER    
DOCKED: USER    NEWDPF move 2_3_BPG_opt.pdbqt
DOCKED: USER    NEWDPF about 0.015000 0.083000 0.031000
DOCKED: USER    NEWDPF tran0 -11.579279 3.273465 -10.472026
DOCKED: USER    NEWDPF quaternion0 0.063569 0.727434 -0.463846 -0.501643
DOCKED: USER    NEWDPF axisangle0 0.073484 0.840891 -0.536192 -119.782433
DOCKED: USER    NEWDPF quat0 0.073484 0.840891 -0.536192 -119.782433
DOCKED: USER    NEWDPF dihe0 -154.54 -60.98 -129.77 -14.14 9.20 -2.64 
DOCKED: USER  keepresnum = 1 
DOCKED: USER  
DOCKED: REMARK  6 active torsions:
DOCKED: REMARK  status: ('A' for Active; 'I' for Inactive)
DOCKED: REMARK    1  A    between atoms: P_1  and  O_3 
DOCKED: REMARK    2  A    between atoms: P_2  and  O_4 
DOCKED: REMARK    3  A    between atoms: O_3  and  C_13 
DOCKED: REMARK    4  A    between atoms: O_4  and  C_14 
DOCKED: REMARK    5  A    between atoms: C_13  and  C_14 
DOCKED: REMARK    6  A    between atoms: C_13  and  C_15 
DOCKED: USER                              x       y       z     vdW  Elec       q    Type
DOCKED: USER                           _______ _______ _______ _____ _____    ______ ____
DOCKED: ROOT
DOCKED: ATOM      1  C   UNL d   1     -11.405   3.248  -9.825 -0.08 +0.12    +0.193 C 
DOCKED: ENDROOT
DOCKED: BRANCH   1   2
DOCKED: ATOM      2  O   UNL d   1     -10.878   4.563  -9.442 -0.07 -0.26    -0.356 OA
DOCKED: BRANCH   2   3
DOCKED: ATOM      3  P   UNL d   1      -9.676   4.767  -8.338 -0.22 -0.01    -0.014 P 
DOCKED: ATOM      4  O   UNL d   1      -8.509   5.356  -9.146 -0.03 -0.23    -0.577 OA
DOCKED: ATOM      5  O   UNL d   1      -9.334   3.386  -7.782 -0.13 -0.69    -0.577 OA
DOCKED: ATOM      6  O   UNL d   1     -10.172   5.744  -7.277 -0.42 -1.07    -0.638 OA
DOCKED: ENDBRANCH   2   3
DOCKED: ENDBRANCH   1   2
DOCKED: BRANCH   1   7
DOCKED: ATOM      7  C   UNL d   1     -12.084   3.369 -11.239 -0.10 +0.08    +0.201 C 
DOCKED: BRANCH   7   8
DOCKED: ATOM      8  O   UNL d   1     -12.189   2.142 -11.995 -0.08 -0.16    -0.364 OA
DOCKED: BRANCH   8   9
DOCKED: ATOM      9  P   UNL d   1     -12.600   2.187 -13.597 -0.19 -0.01    -0.015 P 
DOCKED: ATOM     10  O   UNL d   1     -11.618   3.180 -14.233 -0.06 -0.44    -0.577 OA
DOCKED: ATOM     11  O   UNL d   1     -14.043   2.684 -13.673 -0.02 -0.37    -0.577 OA
DOCKED: ATOM     12  O   UNL d   1     -12.424   0.773 -14.148 -0.53 -1.15    -0.638 OA
DOCKED: ENDBRANCH   8   9
DOCKED: ENDBRANCH   7   8
DOCKED: ENDBRANCH   1   7
DOCKED: BRANCH   1  13
DOCKED: ATOM     13  C   UNL d   1     -12.487   2.776  -8.784 -0.11 +0.07    +0.073 C 
DOCKED: ATOM     14  O   UNL d   1     -12.146   1.923  -7.892 -0.59 -0.75    -0.547 OA
DOCKED: ATOM     15  O   UNL d   1     -13.644   3.329  -8.856 -0.03 -0.39    -0.547 OA
DOCKED: ENDBRANCH   1  13
DOCKED: TORSDOF 6
DOCKED: TER
DOCKED: ENDMDL
________________________________________________________________________________


	BEGINNING GENETIC ALGORITHM DOCKING 5 of 100
Run: 5 Seed: 845701937 1210202 [ Run 5 of 100 GA/GALS ]
Beginning LAMARCKIAN GENETIC ALGORITHM (LGA), with a maximum of 25000000 energy evaluations.

Final-Value: -5.779


	FINAL GENETIC ALGORITHM DOCKED STATE
	_______________________________________________


Detailed state:  trans -11.858 3.004 -10.526 quatxyzw -0.129908 0.812486 -0.247568 -0.511566 center 0.015 0.083 0.031 ntor 6 150.5543 -84.9708 -56.8836 -10.9463 -22.8799 -39.6510
State:	-11.858   3.004 -10.526  -0.151  0.946 -0.288 -118.464    150.55  -84.97  -56.88  -10.95  -22.88  -39.65

DOCKED: MODEL        5
DOCKED: USER    Run = 5
DOCKED: USER    DPF = D:/Protein_go_brrr/autodock/final/mut_K82N/2_3_BPG/dock.dpf
DOCKED: USER  
DOCKED: USER    Estimated Free Energy of Binding    =   -6.01 kcal/mol  [=(1)+(2)+(3)-(4)]
DOCKED: USER    Estimated Inhibition Constant, Ki   =   39.54 uM (micromolar)  [Temperature = 298.15 K]
DOCKED: USER    
DOCKED: USER    (1) Final Intermolecular Energy     =   -7.80 kcal/mol
DOCKED: USER        vdW + Hbond + desolv Energy     =   -2.42 kcal/mol
DOCKED: USER        Electrostatic Energy            =   -5.38 kcal/mol
DOCKED: USER    (2) Final Total Internal Energy     =   +2.02 kcal/mol
DOCKED: USER    (3) Torsional Free Energy           =   +1.79 kcal/mol
DOCKED: USER    (4) Unbound System's Energy  [=(2)] =   +2.02 kcal/mol
DOCKED: USER    
DOCKED: USER    
DOCKED: USER    NEWDPF move 2_3_BPG_opt.pdbqt
DOCKED: USER    NEWDPF about 0.015000 0.083000 0.031000
DOCKED: USER    NEWDPF tran0 -11.858335 3.003633 -10.525860
DOCKED: USER    NEWDPF quaternion0 -0.129908 0.812486 -0.247568 -0.511566
DOCKED: USER    NEWDPF axisangle0 -0.151188 0.945583 -0.288123 -118.463563
DOCKED: USER    NEWDPF quat0 -0.151188 0.945583 -0.288123 -118.463563
DOCKED: USER    NEWDPF dihe0 150.55 -84.97 -56.88 -10.95 -22.88 -39.65 
DOCKED: USER  keepresnum = 1 
DOCKED: USER  
DOCKED: REMARK  6 active torsions:
DOCKED: REMARK  status: ('A' for Active; 'I' for Inactive)
DOCKED: REMARK    1  A    between atoms: P_1  and  O_3 
DOCKED: REMARK    2  A    between atoms: P_2  and  O_4 
DOCKED: REMARK    3  A    between atoms: O_3  and  C_13 
DOCKED: REMARK    4  A    between atoms: O_4  and  C_14 
DOCKED: REMARK    5  A    between atoms: C_13  and  C_14 
DOCKED: REMARK    6  A    between atoms: C_13  and  C_15 
DOCKED: USER                              x       y       z     vdW  Elec       q    Type
DOCKED: USER                           _______ _______ _______ _____ _____    ______ ____
DOCKED: ROOT
DOCKED: ATOM      1  C   UNL d   1     -11.529   2.987  -9.942 -0.06 +0.11    +0.193 C 
DOCKED: ENDROOT
DOCKED: BRANCH   1   2
DOCKED: ATOM      2  O   UNL d   1     -11.606   4.322  -9.337 -0.06 -0.29    -0.356 OA
DOCKED: BRANCH   2   3
DOCKED: ATOM      3  P   UNL d   1     -10.371   5.001  -8.489 -0.08 -0.02    -0.014 P 
DOCKED: ATOM      4  O   UNL d   1      -9.567   5.780  -9.542 +0.00 -0.25    -0.577 OA
DOCKED: ATOM      5  O   UNL d   1      -9.553   3.860  -7.889 -0.22 -0.78    -0.577 OA
DOCKED: ATOM      6  O   UNL d   1     -10.975   5.932  -7.443 -0.13 -1.03    -0.638 OA
DOCKED: ENDBRANCH   2   3
DOCKED: ENDBRANCH   1   2
DOCKED: BRANCH   1   7
DOCKED: ATOM      7  C   UNL d   1     -12.530   2.924 -11.154 -0.09 +0.08    +0.201 C 
DOCKED: BRANCH   7   8
DOCKED: ATOM      8  O   UNL d   1     -11.942   2.648 -12.444 -0.08 -0.17    -0.364 OA
DOCKED: BRANCH   8   9
DOCKED: ATOM      9  P   UNL d   1     -12.883   2.079 -13.680 -0.21 -0.01    -0.015 P 
DOCKED: ATOM     10  O   UNL d   1     -12.655   3.057 -14.839 -0.17 -0.68    -0.577 OA
DOCKED: ATOM     11  O   UNL d   1     -14.329   2.104 -13.188 -0.01 -0.32    -0.577 OA
DOCKED: ATOM     12  O   UNL d   1     -12.388   0.672 -14.012 -0.57 -1.03    -0.638 OA
DOCKED: ENDBRANCH   8   9
DOCKED: ENDBRANCH   7   8
DOCKED: ENDBRANCH   1   7
DOCKED: BRANCH   1  13
DOCKED: ATOM     13  C   UNL d   1     -11.941   1.892  -8.890 -0.16 +0.06    +0.073 C 
DOCKED: ATOM     14  O   UNL d   1     -11.505   0.698  -9.047 -0.02 -0.26    -0.547 OA
DOCKED: ATOM     15  O   UNL d   1     -12.647   2.281  -7.890 -0.56 -0.79    -0.547 OA
DOCKED: ENDBRANCH   1  13
DOCKED: TORSDOF 6
DOCKED: TER
DOCKED: ENDMDL
________________________________________________________________________________


	BEGINNING GENETIC ALGORITHM DOCKING 6 of 100
Run: 6 Seed: 571363567 924156509 [ Run 6 of 100 GA/GALS ]
Beginning LAMARCKIAN GENETIC ALGORITHM (LGA), with a maximum of 25000000 energy evaluations.

Final-Value: -5.988


	FINAL GENETIC ALGORITHM DOCKED STATE
	_______________________________________________


Detailed state:  trans -12.123 2.779 -10.438 quatxyzw 0.106788 0.679385 -0.576529 -0.441188 center 0.015 0.083 0.031 ntor 6 -145.6771 -58.0975 -90.4411 -15.7831 -16.1723 -58.1261
State:	-12.123   2.779 -10.438   0.119  0.757 -0.642 -127.641   -145.68  -58.10  -90.44  -15.78  -16.17  -58.13

DOCKED: MODEL        6
DOCKED: USER    Run = 6
DOCKED: USER    DPF = D:/Protein_go_brrr/autodock/final/mut_K82N/2_3_BPG/dock.dpf
DOCKED: USER  
DOCKED: USER    Estimated Free Energy of Binding    =   -6.26 kcal/mol  [=(1)+(2)+(3)-(4)]
DOCKED: USER    Estimated Inhibition Constant, Ki   =   25.60 uM (micromolar)  [Temperature = 298.15 K]
DOCKED: USER    
DOCKED: USER    (1) Final Intermolecular Energy     =   -8.05 kcal/mol
DOCKED: USER        vdW + Hbond + desolv Energy     =   -2.47 kcal/mol
DOCKED: USER        Electrostatic Energy            =   -5.59 kcal/mol
DOCKED: USER    (2) Final Total Internal Energy     =   +2.07 kcal/mol
DOCKED: USER    (3) Torsional Free Energy           =   +1.79 kcal/mol
DOCKED: USER    (4) Unbound System's Energy  [=(2)] =   +2.07 kcal/mol
DOCKED: USER    
DOCKED: USER    
DOCKED: USER    NEWDPF move 2_3_BPG_opt.pdbqt
DOCKED: USER    NEWDPF about 0.015000 0.083000 0.031000
DOCKED: USER    NEWDPF tran0 -12.123070 2.779319 -10.437956
DOCKED: USER    NEWDPF quaternion0 0.106788 0.679385 -0.576529 -0.441188
DOCKED: USER    NEWDPF axisangle0 0.118996 0.757047 -0.642433 -127.640565
DOCKED: USER    NEWDPF quat0 0.118996 0.757047 -0.642433 -127.640565
DOCKED: USER    NEWDPF dihe0 -145.68 -58.10 -90.44 -15.78 -16.17 -58.13 
DOCKED: USER  keepresnum = 1 
DOCKED: USER  
DOCKED: REMARK  6 active torsions:
DOCKED: REMARK  status: ('A' for Active; 'I' for Inactive)
DOCKED: REMARK    1  A    between atoms: P_1  and  O_3 
DOCKED: REMARK    2  A    between atoms: P_2  and  O_4 
DOCKED: REMARK    3  A    between atoms: O_3  and  C_13 
DOCKED: REMARK    4  A    between atoms: O_4  and  C_14 
DOCKED: REMARK    5  A    between atoms: C_13  and  C_14 
DOCKED: REMARK    6  A    between atoms: C_13  and  C_15 
DOCKED: USER                              x       y       z     vdW  Elec       q    Type
DOCKED: USER                           _______ _______ _______ _____ _____    ______ ____
DOCKED: ROOT
DOCKED: ATOM      1  C   UNL d   1     -11.938   2.813  -9.794 -0.11 +0.12    +0.193 C 
DOCKED: ENDROOT
DOCKED: BRANCH   1   2
DOCKED: ATOM      2  O   UNL d   1     -11.106   4.009  -9.620 -0.08 -0.25    -0.356 OA
DOCKED: BRANCH   2   3
DOCKED: ATOM      3  P   UNL d   1      -9.879   4.104  -8.529 -0.17 -0.01    -0.014 P 
DOCKED: ATOM      4  O   UNL d   1      -8.621   4.323  -9.384 -0.05 -0.24    -0.577 OA
DOCKED: ATOM      5  O   UNL d   1      -9.828   2.769  -7.788 -0.02 -0.75    -0.577 OA
DOCKED: ATOM      6  O   UNL d   1     -10.151   5.295  -7.617 -0.35 -1.12    -0.638 OA
DOCKED: ENDBRANCH   2   3
DOCKED: ENDBRANCH   1   2
DOCKED: BRANCH   1   7
DOCKED: ATOM      7  C   UNL d   1     -12.616   2.872 -11.213 -0.09 +0.08    +0.201 C 
DOCKED: BRANCH   7   8
DOCKED: ATOM      8  O   UNL d   1     -12.009   2.052 -12.236 -0.05 -0.17    -0.364 OA
DOCKED: BRANCH   8   9
DOCKED: ATOM      9  P   UNL d   1     -12.806   1.776 -13.659 -0.18 -0.02    -0.015 P 
DOCKED: ATOM     10  O   UNL d   1     -12.330   2.886 -14.604 -0.11 -0.66    -0.577 OA
DOCKED: ATOM     11  O   UNL d   1     -14.301   1.882 -13.361 -0.02 -0.36    -0.577 OA
DOCKED: ATOM     12  O   UNL d   1     -12.390   0.389 -14.147 -0.58 -1.14    -0.638 OA
DOCKED: ENDBRANCH   8   9
DOCKED: ENDBRANCH   7   8
DOCKED: ENDBRANCH   1   7
DOCKED: BRANCH   1  13
DOCKED: ATOM     13  C   UNL d   1     -13.067   2.778  -8.698 -0.09 +0.06    +0.073 C 
DOCKED: ATOM     14  O   UNL d   1     -12.836   2.155  -7.602 -0.56 -0.82    -0.547 OA
DOCKED: ATOM     15  O   UNL d   1     -14.141   3.436  -8.945 -0.01 -0.31    -0.547 OA
DOCKED: ENDBRANCH   1  13
DOCKED: TORSDOF 6
DOCKED: TER
DOCKED: ENDMDL
________________________________________________________________________________


	BEGINNING GENETIC ALGORITHM DOCKING 7 of 100
Run: 7 Seed: 787092918 1296052743 [ Run 7 of 100 GA/GALS ]
Beginning LAMARCKIAN GENETIC ALGORITHM (LGA), with a maximum of 25000000 energy evaluations.

Final-Value: -6.355


	FINAL GENETIC ALGORITHM DOCKED STATE
	_______________________________________________


Detailed state:  trans 0.062 -16.646 -6.252 quatxyzw -0.068003 -0.797799 -0.571954 -0.178219 center 0.015 0.083 0.031 ntor 6 -17.9159 -132.0630 87.7980 -2.1785 -92.4143 -108.3055
State:	  0.062 -16.646  -6.252  -0.069 -0.811 -0.581 -159.468    -17.92 -132.06   87.80   -2.18  -92.41 -108.31

DOCKED: MODEL        7
DOCKED: USER    Run = 7
DOCKED: USER    DPF = D:/Protein_go_brrr/autodock/final/mut_K82N/2_3_BPG/dock.dpf
DOCKED: USER  
DOCKED: USER    Estimated Free Energy of Binding    =   -6.94 kcal/mol  [=(1)+(2)+(3)-(4)]
DOCKED: USER    Estimated Inhibition Constant, Ki   =    8.19 uM (micromolar)  [Temperature = 298.15 K]
DOCKED: USER    
DOCKED: USER    (1) Final Intermolecular Energy     =   -8.73 kcal/mol
DOCKED: USER        vdW + Hbond + desolv Energy     =   -4.24 kcal/mol
DOCKED: USER        Electrostatic Energy            =   -4.49 kcal/mol
DOCKED: USER    (2) Final Total Internal Energy     =   +2.37 kcal/mol
DOCKED: USER    (3) Torsional Free Energy           =   +1.79 kcal/mol
DOCKED: USER    (4) Unbound System's Energy  [=(2)] =   +2.37 kcal/mol
DOCKED: USER    
DOCKED: USER    
DOCKED: USER    NEWDPF move 2_3_BPG_opt.pdbqt
DOCKED: USER    NEWDPF about 0.015000 0.083000 0.031000
DOCKED: USER    NEWDPF tran0 0.062110 -16.646140 -6.251998
DOCKED: USER    NEWDPF quaternion0 -0.068003 -0.797799 -0.571954 -0.178219
DOCKED: USER    NEWDPF axisangle0 -0.069110 -0.810778 -0.581259 -159.467885
DOCKED: USER    NEWDPF quat0 -0.069110 -0.810778 -0.581259 -159.467885
DOCKED: USER    NEWDPF dihe0 -17.92 -132.06 87.80 -2.18 -92.41 -108.31 
DOCKED: USER  keepresnum = 1 
DOCKED: USER  
DOCKED: REMARK  6 active torsions:
DOCKED: REMARK  status: ('A' for Active; 'I' for Inactive)
DOCKED: REMARK    1  A    between atoms: P_1  and  O_3 
DOCKED: REMARK    2  A    between atoms: P_2  and  O_4 
DOCKED: REMARK    3  A    between atoms: O_3  and  C_13 
DOCKED: REMARK    4  A    between atoms: O_4  and  C_14 
DOCKED: REMARK    5  A    between atoms: C_13  and  C_14 
DOCKED: REMARK    6  A    between atoms: C_13  and  C_15 
DOCKED: USER                              x       y       z     vdW  Elec       q    Type
DOCKED: USER                           _______ _______ _______ _____ _____    ______ ____
DOCKED: ROOT
DOCKED: ATOM      1  C   UNL d   1       0.489 -16.608  -6.768 -0.16 +0.14    +0.193 C 
DOCKED: ENDROOT
DOCKED: BRANCH   1   2
DOCKED: ATOM      2  O   UNL d   1       1.844 -16.842  -6.258 -0.40 -0.48    -0.356 OA
DOCKED: BRANCH   2   3
DOCKED: ATOM      3  P   UNL d   1       3.138 -15.917  -6.675 -0.04 -0.02    -0.014 P 
DOCKED: ATOM      4  O   UNL d   1       2.617 -14.473  -6.601 -0.09 -0.70    -0.577 OA
DOCKED: ATOM      5  O   UNL d   1       3.528 -16.301  -8.101 +0.02 -0.25    -0.577 OA
DOCKED: ATOM      6  O   UNL d   1       4.244 -16.165  -5.655 -0.35 -1.01    -0.638 OA
DOCKED: ENDBRANCH   2   3
DOCKED: ENDBRANCH   1   2
DOCKED: BRANCH   1   7
DOCKED: ATOM      7  C   UNL d   1      -0.545 -16.978  -5.641 -0.23 +0.13    +0.201 C 
DOCKED: BRANCH   7   8
DOCKED: ATOM      8  O   UNL d   1      -0.312 -16.377  -4.349 -0.42 -0.43    -0.364 OA
DOCKED: BRANCH   8   9
DOCKED: ATOM      9  P   UNL d   1      -0.999 -14.919  -3.975 -0.71 -0.01    -0.015 P 
DOCKED: ATOM     10  O   UNL d   1       0.023 -13.869  -4.425 -0.22 -0.72    -0.577 OA
DOCKED: ATOM     11  O   UNL d   1      -1.209 -14.900  -2.461 -0.74 -0.41    -0.577 OA
DOCKED: ATOM     12  O   UNL d   1      -2.306 -14.822  -4.762 -0.65 -0.46    -0.638 OA
DOCKED: ENDBRANCH   8   9
DOCKED: ENDBRANCH   7   8
DOCKED: ENDBRANCH   1   7
DOCKED: BRANCH   1  13
DOCKED: ATOM     13  C   UNL d   1       0.219 -17.522  -8.020 -0.11 +0.02    +0.073 C 
DOCKED: ATOM     14  O   UNL d   1       0.724 -18.699  -8.039 +0.02 -0.13    -0.547 OA
DOCKED: ATOM     15  O   UNL d   1      -0.554 -17.050  -8.930 -0.18 -0.17    -0.547 OA
DOCKED: ENDBRANCH   1  13
DOCKED: TORSDOF 6
DOCKED: TER
DOCKED: ENDMDL
________________________________________________________________________________


	BEGINNING GENETIC ALGORITHM DOCKING 8 of 100
Run: 8 Seed: 1308109084 1209812767 [ Run 8 of 100 GA/GALS ]
Beginning LAMARCKIAN GENETIC ALGORITHM (LGA), with a maximum of 25000000 energy evaluations.

Final-Value: -5.699


	FINAL GENETIC ALGORITHM DOCKED STATE
	_______________________________________________


Detailed state:  trans -12.182 2.986 -10.376 quatxyzw -0.263573 0.778628 -0.195189 -0.534948 center 0.015 0.083 0.031 ntor 6 157.6736 49.2794 -100.5836 -16.2417 19.5653 -5.8332
State:	-12.182   2.986 -10.376  -0.312  0.922 -0.231 -115.319    157.67   49.28 -100.58  -16.24   19.57   -5.83

DOCKED: MODEL        8
DOCKED: USER    Run = 8
DOCKED: USER    DPF = D:/Protein_go_brrr/autodock/final/mut_K82N/2_3_BPG/dock.dpf
DOCKED: USER  
DOCKED: USER    Estimated Free Energy of Binding    =   -5.97 kcal/mol  [=(1)+(2)+(3)-(4)]
DOCKED: USER    Estimated Inhibition Constant, Ki   =   41.80 uM (micromolar)  [Temperature = 298.15 K]
DOCKED: USER    
DOCKED: USER    (1) Final Intermolecular Energy     =   -7.76 kcal/mol
DOCKED: USER        vdW + Hbond + desolv Energy     =   -2.06 kcal/mol
DOCKED: USER        Electrostatic Energy            =   -5.70 kcal/mol
DOCKED: USER    (2) Final Total Internal Energy     =   +2.06 kcal/mol
DOCKED: USER    (3) Torsional Free Energy           =   +1.79 kcal/mol
DOCKED: USER    (4) Unbound System's Energy  [=(2)] =   +2.06 kcal/mol
DOCKED: USER    
DOCKED: USER    
DOCKED: USER    NEWDPF move 2_3_BPG_opt.pdbqt
DOCKED: USER    NEWDPF about 0.015000 0.083000 0.031000
DOCKED: USER    NEWDPF tran0 -12.182179 2.985743 -10.376141
DOCKED: USER    NEWDPF quaternion0 -0.263573 0.778628 -0.195189 -0.534948
DOCKED: USER    NEWDPF axisangle0 -0.311963 0.921579 -0.231024 -115.319254
DOCKED: USER    NEWDPF quat0 -0.311963 0.921579 -0.231024 -115.319254
DOCKED: USER    NEWDPF dihe0 157.67 49.28 -100.58 -16.24 19.57 -5.83 
DOCKED: USER  keepresnum = 1 
DOCKED: USER  
DOCKED: REMARK  6 active torsions:
DOCKED: REMARK  status: ('A' for Active; 'I' for Inactive)
DOCKED: REMARK    1  A    between atoms: P_1  and  O_3 
DOCKED: REMARK    2  A    between atoms: P_2  and  O_4 
DOCKED: REMARK    3  A    between atoms: O_3  and  C_13 
DOCKED: REMARK    4  A    between atoms: O_4  and  C_14 
DOCKED: REMARK    5  A    between atoms: C_13  and  C_14 
DOCKED: REMARK    6  A    between atoms: C_13  and  C_15 
DOCKED: USER                              x       y       z     vdW  Elec       q    Type
DOCKED: USER                           _______ _______ _______ _____ _____    ______ ____
DOCKED: ROOT
DOCKED: ATOM      1  C   UNL d   1     -11.863   3.102  -9.798 -0.11 +0.12    +0.193 C 
DOCKED: ENDROOT
DOCKED: BRANCH   1   2
DOCKED: ATOM      2  O   UNL d   1     -12.323   4.392  -9.273 -0.04 -0.28    -0.356 OA
DOCKED: BRANCH   2   3
DOCKED: ATOM      3  P   UNL d   1     -11.372   5.394  -8.380 -0.02 -0.02    -0.014 P 
DOCKED: ATOM      4  O   UNL d   1     -12.270   5.834  -7.213 +0.04 -1.00    -0.577 OA
DOCKED: ATOM      5  O   UNL d   1     -10.992   6.573  -9.273 +0.02 -0.28    -0.577 OA
DOCKED: ATOM      6  O   UNL d   1     -10.171   4.591  -7.890 -0.16 -1.13    -0.638 OA
DOCKED: ENDBRANCH   2   3
DOCKED: ENDBRANCH   1   2
DOCKED: BRANCH   1   7
DOCKED: ATOM      7  C   UNL d   1     -12.801   2.677 -10.987 -0.08 +0.08    +0.201 C 
DOCKED: BRANCH   7   8
DOCKED: ATOM      8  O   UNL d   1     -12.211   1.806 -11.977 -0.08 -0.16    -0.364 OA
DOCKED: BRANCH   8   9
DOCKED: ATOM      9  P   UNL d   1     -12.843   1.735 -13.504 -0.20 -0.01    -0.015 P 
DOCKED: ATOM     10  O   UNL d   1     -12.253   2.946 -14.236 -0.09 -0.53    -0.577 OA
DOCKED: ATOM     11  O   UNL d   1     -14.362   1.838 -13.362 -0.02 -0.35    -0.577 OA
DOCKED: ATOM     12  O   UNL d   1     -12.388   0.413 -14.120 -0.58 -1.11    -0.638 OA
DOCKED: ENDBRANCH   8   9
DOCKED: ENDBRANCH   7   8
DOCKED: ENDBRANCH   1   7
DOCKED: BRANCH   1  13
DOCKED: ATOM     13  C   UNL d   1     -11.944   2.002  -8.674 -0.14 +0.07    +0.073 C 
DOCKED: ATOM     14  O   UNL d   1     -11.090   1.048  -8.690 -0.01 -0.33    -0.547 OA
DOCKED: ATOM     15  O   UNL d   1     -12.834   2.165  -7.763 -0.58 -0.75    -0.547 OA
DOCKED: ENDBRANCH   1  13
DOCKED: TORSDOF 6
DOCKED: TER
DOCKED: ENDMDL
________________________________________________________________________________


	BEGINNING GENETIC ALGORITHM DOCKING 9 of 100
Run: 9 Seed: 1165141660 1445064536 [ Run 9 of 100 GA/GALS ]
Beginning LAMARCKIAN GENETIC ALGORITHM (LGA), with a maximum of 25000000 energy evaluations.

Final-Value: -5.775


	FINAL GENETIC ALGORITHM DOCKED STATE
	_______________________________________________


Detailed state:  trans -12.486 3.297 -10.713 quatxyzw 0.270716 -0.772616 0.124637 0.560573 center 0.015 0.083 0.031 ntor 6 -65.6266 -66.9823 -45.3678 -16.5039 -19.7485 -35.1489
State:	-12.486   3.297 -10.713   0.327 -0.933  0.151 111.809    -65.63  -66.98  -45.37  -16.50  -19.75  -35.15

DOCKED: MODEL        9
DOCKED: USER    Run = 9
DOCKED: USER    DPF = D:/Protein_go_brrr/autodock/final/mut_K82N/2_3_BPG/dock.dpf
DOCKED: USER  
DOCKED: USER    Estimated Free Energy of Binding    =   -6.17 kcal/mol  [=(1)+(2)+(3)-(4)]
DOCKED: USER    Estimated Inhibition Constant, Ki   =   29.78 uM (micromolar)  [Temperature = 298.15 K]
DOCKED: USER    
DOCKED: USER    (1) Final Intermolecular Energy     =   -7.96 kcal/mol
DOCKED: USER        vdW + Hbond + desolv Energy     =   -2.23 kcal/mol
DOCKED: USER        Electrostatic Energy            =   -5.73 kcal/mol
DOCKED: USER    (2) Final Total Internal Energy     =   +2.19 kcal/mol
DOCKED: USER    (3) Torsional Free Energy           =   +1.79 kcal/mol
DOCKED: USER    (4) Unbound System's Energy  [=(2)] =   +2.19 kcal/mol
DOCKED: USER    
DOCKED: USER    
DOCKED: USER    NEWDPF move 2_3_BPG_opt.pdbqt
DOCKED: USER    NEWDPF about 0.015000 0.083000 0.031000
DOCKED: USER    NEWDPF tran0 -12.486194 3.297022 -10.713081
DOCKED: USER    NEWDPF quaternion0 0.270716 -0.772616 0.124637 0.560573
DOCKED: USER    NEWDPF axisangle0 0.326910 -0.932993 0.150509 111.809116
DOCKED: USER    NEWDPF quat0 0.326910 -0.932993 0.150509 111.809116
DOCKED: USER    NEWDPF dihe0 -65.63 -66.98 -45.37 -16.50 -19.75 -35.15 
DOCKED: USER  keepresnum = 1 
DOCKED: USER  
DOCKED: REMARK  6 active torsions:
DOCKED: REMARK  status: ('A' for Active; 'I' for Inactive)
DOCKED: REMARK    1  A    between atoms: P_1  and  O_3 
DOCKED: REMARK    2  A    between atoms: P_2  and  O_4 
DOCKED: REMARK    3  A    between atoms: O_3  and  C_13 
DOCKED: REMARK    4  A    between atoms: O_4  and  C_14 
DOCKED: REMARK    5  A    between atoms: C_13  and  C_14 
DOCKED: REMARK    6  A    between atoms: C_13  and  C_15 
DOCKED: USER                              x       y       z     vdW  Elec       q    Type
DOCKED: USER                           _______ _______ _______ _____ _____    ______ ____
DOCKED: ROOT
DOCKED: ATOM      1  C   UNL d   1     -12.181   3.378 -10.122 -0.10 +0.10    +0.193 C 
DOCKED: ENDROOT
DOCKED: BRANCH   1   2
DOCKED: ATOM      2  O   UNL d   1     -12.767   4.549  -9.460 -0.03 -0.23    -0.356 OA
DOCKED: BRANCH   2   3
DOCKED: ATOM      3  P   UNL d   1     -11.924   5.528  -8.443 -0.06 -0.01    -0.014 P 
DOCKED: ATOM      4  O   UNL d   1     -11.743   6.834  -9.232 +0.02 -0.27    -0.577 OA
DOCKED: ATOM      5  O   UNL d   1     -10.584   4.848  -8.168 -0.13 -0.90    -0.577 OA
DOCKED: ATOM      6  O   UNL d   1     -12.765   5.743  -7.190 -0.13 -1.01    -0.638 OA
DOCKED: ENDBRANCH   2   3
DOCKED: ENDBRANCH   1   2
DOCKED: BRANCH   1   7
DOCKED: ATOM      7  C   UNL d   1     -13.071   3.000 -11.363 -0.07 +0.08    +0.201 C 
DOCKED: BRANCH   7   8
DOCKED: ATOM      8  O   UNL d   1     -12.387   2.937 -12.634 -0.08 -0.17    -0.364 OA
DOCKED: BRANCH   8   9
DOCKED: ATOM      9  P   UNL d   1     -13.091   2.166 -13.917 -0.15 -0.02    -0.015 P 
DOCKED: ATOM     10  O   UNL d   1     -12.844   3.086 -15.119 -0.24 -0.77    -0.577 OA
DOCKED: ATOM     11  O   UNL d   1     -14.579   2.033 -13.596 -0.01 -0.35    -0.577 OA
DOCKED: ATOM     12  O   UNL d   1     -12.390   0.818 -14.073 -0.55 -1.09    -0.638 OA
DOCKED: ENDBRANCH   8   9
DOCKED: ENDBRANCH   7   8
DOCKED: ENDBRANCH   1   7
DOCKED: BRANCH   1  13
DOCKED: ATOM     13  C   UNL d   1     -12.153   2.155  -9.130 -0.15 +0.05    +0.073 C 
DOCKED: ATOM     14  O   UNL d   1     -12.392   2.368  -7.890 -0.53 -0.90    -0.547 OA
DOCKED: ATOM     15  O   UNL d   1     -11.951   0.995  -9.642 -0.02 -0.24    -0.547 OA
DOCKED: ENDBRANCH   1  13
DOCKED: TORSDOF 6
DOCKED: TER
DOCKED: ENDMDL
________________________________________________________________________________


	BEGINNING GENETIC ALGORITHM DOCKING 10 of 100
Run: 10 Seed: 499767262 1141308001 [ Run 10 of 100 GA/GALS ]
Beginning LAMARCKIAN GENETIC ALGORITHM (LGA), with a maximum of 25000000 energy evaluations.

Final-Value: -5.849


	FINAL GENETIC ALGORITHM DOCKED STATE
	_______________________________________________


Detailed state:  trans -12.108 3.075 -10.297 quatxyzw 0.253414 -0.746919 0.309445 0.531166 center 0.015 0.083 0.031 ntor 6 178.3206 77.4714 -60.2477 -33.4226 -1.0140 -44.1695
State:	-12.108   3.075 -10.297   0.299 -0.882  0.365 115.832    178.32   77.47  -60.25  -33.42   -1.01  -44.17

DOCKED: MODEL       10
DOCKED: USER    Run = 10
DOCKED: USER    DPF = D:/Protein_go_brrr/autodock/final/mut_K82N/2_3_BPG/dock.dpf
DOCKED: USER  
DOCKED: USER    Estimated Free Energy of Binding    =   -6.19 kcal/mol  [=(1)+(2)+(3)-(4)]
DOCKED: USER    Estimated Inhibition Constant, Ki   =   29.24 uM (micromolar)  [Temperature = 298.15 K]
DOCKED: USER    
DOCKED: USER    (1) Final Intermolecular Energy     =   -7.98 kcal/mol
DOCKED: USER        vdW + Hbond + desolv Energy     =   -2.44 kcal/mol
DOCKED: USER        Electrostatic Energy            =   -5.53 kcal/mol
DOCKED: USER    (2) Final Total Internal Energy     =   +2.13 kcal/mol
DOCKED: USER    (3) Torsional Free Energy           =   +1.79 kcal/mol
DOCKED: USER    (4) Unbound System's Energy  [=(2)] =   +2.13 kcal/mol
DOCKED: USER    
DOCKED: USER    
DOCKED: USER    NEWDPF move 2_3_BPG_opt.pdbqt
DOCKED: USER    NEWDPF about 0.015000 0.083000 0.031000
DOCKED: USER    NEWDPF tran0 -12.107674 3.074538 -10.297164
DOCKED: USER    NEWDPF quaternion0 0.253414 -0.746919 0.309445 0.531166
DOCKED: USER    NEWDPF axisangle0 0.299095 -0.881562 0.365226 115.831513
DOCKED: USER    NEWDPF quat0 0.299095 -0.881562 0.365226 115.831513
DOCKED: USER    NEWDPF dihe0 178.32 77.47 -60.25 -33.42 -1.01 -44.17 
DOCKED: USER  keepresnum = 1 
DOCKED: USER  
DOCKED: REMARK  6 active torsions:
DOCKED: REMARK  status: ('A' for Active; 'I' for Inactive)
DOCKED: REMARK    1  A    between atoms: P_1  and  O_3 
DOCKED: REMARK    2  A    between atoms: P_2  and  O_4 
DOCKED: REMARK    3  A    between atoms: O_3  and  C_13 
DOCKED: REMARK    4  A    between atoms: O_4  and  C_14 
DOCKED: REMARK    5  A    between atoms: C_13  and  C_14 
DOCKED: REMARK    6  A    between atoms: C_13  and  C_15 
DOCKED: USER                              x       y       z     vdW  Elec       q    Type
DOCKED: USER                           _______ _______ _______ _____ _____    ______ ____
DOCKED: ROOT
DOCKED: ATOM      1  C   UNL d   1     -11.824   3.259  -9.719 -0.11 +0.13    +0.193 C 
DOCKED: ENDROOT
DOCKED: BRANCH   1   2
DOCKED: ATOM      2  O   UNL d   1     -12.152   4.668  -9.477 -0.04 -0.25    -0.356 OA
DOCKED: BRANCH   2   3
DOCKED: ATOM      3  P   UNL d   1     -11.383   5.595  -8.356 -0.07 -0.02    -0.014 P 
DOCKED: ATOM      4  O   UNL d   1     -12.407   5.750  -7.220 +0.01 -1.01    -0.577 OA
DOCKED: ATOM      5  O   UNL d   1     -11.069   6.936  -9.017 +0.02 -0.28    -0.577 OA
DOCKED: ATOM      6  O   UNL d   1     -10.142   4.840  -7.892 -0.28 -1.06    -0.638 OA
DOCKED: ENDBRANCH   2   3
DOCKED: ENDBRANCH   1   2
DOCKED: BRANCH   1   7
DOCKED: ATOM      7  C   UNL d   1     -12.711   2.730 -10.906 -0.09 +0.08    +0.201 C 
DOCKED: BRANCH   7   8
DOCKED: ATOM      8  O   UNL d   1     -11.998   2.343 -12.101 -0.07 -0.16    -0.364 OA
DOCKED: BRANCH   8   9
DOCKED: ATOM      9  P   UNL d   1     -12.832   1.820 -13.431 -0.21 -0.01    -0.015 P 
DOCKED: ATOM     10  O   UNL d   1     -12.424   2.776 -14.558 -0.13 -0.69    -0.577 OA
DOCKED: ATOM     11  O   UNL d   1     -14.319   1.932 -13.097 -0.01 -0.31    -0.577 OA
DOCKED: ATOM     12  O   UNL d   1     -12.387   0.384 -13.706 -0.66 -0.76    -0.638 OA
DOCKED: ENDBRANCH   8   9
DOCKED: ENDBRANCH   7   8
DOCKED: ENDBRANCH   1   7
DOCKED: BRANCH   1  13
DOCKED: ATOM     13  C   UNL d   1     -12.138   2.404  -8.435 +0.02 +0.09    +0.073 C 
DOCKED: ATOM     14  O   UNL d   1     -11.220   1.642  -7.968 -0.39 -0.61    -0.547 OA
DOCKED: ATOM     15  O   UNL d   1     -13.288   2.572  -7.890 -0.45 -0.65    -0.547 OA
DOCKED: ENDBRANCH   1  13
DOCKED: TORSDOF 6
DOCKED: TER
DOCKED: ENDMDL
________________________________________________________________________________


	BEGINNING GENETIC ALGORITHM DOCKING 11 of 100
Run: 11 Seed: 1639857680 1096791255 [ Run 11 of 100 GA/GALS ]
Beginning LAMARCKIAN GENETIC ALGORITHM (LGA), with a maximum of 25000000 energy evaluations.

Final-Value: -5.552


	FINAL GENETIC ALGORITHM DOCKED STATE
	_______________________________________________


Detailed state:  trans -9.655 4.999 -8.111 quatxyzw -0.335994 0.062227 -0.547067 0.764169 center 0.015 0.083 0.031 ntor 6 2.9138 178.4974 167.8769 10.9080 43.6484 -54.7362
State:	 -9.655   4.999  -8.111  -0.521  0.096 -0.848 80.334      2.91  178.50  167.88   10.91   43.65  -54.74

DOCKED: MODEL       11
DOCKED: USER    Run = 11
DOCKED: USER    DPF = D:/Protein_go_brrr/autodock/final/mut_K82N/2_3_BPG/dock.dpf
DOCKED: USER  
DOCKED: USER    Estimated Free Energy of Binding    =   -5.94 kcal/mol  [=(1)+(2)+(3)-(4)]
DOCKED: USER    Estimated Inhibition Constant, Ki   =   44.30 uM (micromolar)  [Temperature = 298.15 K]
DOCKED: USER    
DOCKED: USER    (1) Final Intermolecular Energy     =   -7.73 kcal/mol
DOCKED: USER        vdW + Hbond + desolv Energy     =   -3.08 kcal/mol
DOCKED: USER        Electrostatic Energy            =   -4.65 kcal/mol
DOCKED: USER    (2) Final Total Internal Energy     =   +2.18 kcal/mol
DOCKED: USER    (3) Torsional Free Energy           =   +1.79 kcal/mol
DOCKED: USER    (4) Unbound System's Energy  [=(2)] =   +2.18 kcal/mol
DOCKED: USER    
DOCKED: USER    
DOCKED: USER    NEWDPF move 2_3_BPG_opt.pdbqt
DOCKED: USER    NEWDPF about 0.015000 0.083000 0.031000
DOCKED: USER    NEWDPF tran0 -9.655118 4.998604 -8.111155
DOCKED: USER    NEWDPF quaternion0 -0.335994 0.062227 -0.547067 0.764169
DOCKED: USER    NEWDPF axisangle0 -0.520908 0.096473 -0.848144 80.333843
DOCKED: USER    NEWDPF quat0 -0.520908 0.096473 -0.848144 80.333843
DOCKED: USER    NEWDPF dihe0 2.91 178.50 167.88 10.91 43.65 -54.74 
DOCKED: USER  keepresnum = 1 
DOCKED: USER  
DOCKED: REMARK  6 active torsions:
DOCKED: REMARK  status: ('A' for Active; 'I' for Inactive)
DOCKED: REMARK    1  A    between atoms: P_1  and  O_3 
DOCKED: REMARK    2  A    between atoms: P_2  and  O_4 
DOCKED: REMARK    3  A    between atoms: O_3  and  C_13 
DOCKED: REMARK    4  A    between atoms: O_4  and  C_14 
DOCKED: REMARK    5  A    between atoms: C_13  and  C_14 
DOCKED: REMARK    6  A    between atoms: C_13  and  C_15 
DOCKED: USER                              x       y       z     vdW  Elec       q    Type
DOCKED: USER                           _______ _______ _______ _____ _____    ______ ____
DOCKED: ROOT
DOCKED: ATOM      1  C   UNL d   1      -9.587   4.424  -8.450 -0.16 +0.19    +0.193 C 
DOCKED: ENDROOT
DOCKED: BRANCH   1   2
DOCKED: ATOM      2  O   UNL d   1     -10.876   4.104  -9.073 -0.09 -0.33    -0.356 OA
DOCKED: BRANCH   2   3
DOCKED: ATOM      3  P   UNL d   1     -11.698   2.711  -8.782 -0.14 -0.01    -0.014 P 
DOCKED: ATOM      4  O   UNL d   1     -10.751   1.884  -7.898 -0.26 -0.70    -0.577 OA
DOCKED: ATOM      5  O   UNL d   1     -11.939   2.036 -10.131 -0.02 -0.27    -0.577 OA
DOCKED: ATOM      6  O   UNL d   1     -12.984   3.068  -8.043 -0.29 -0.93    -0.638 OA
DOCKED: ENDBRANCH   2   3
DOCKED: ENDBRANCH   1   2
DOCKED: BRANCH   1   7
DOCKED: ATOM      7  C   UNL d   1      -9.643   5.897  -7.901 -0.15 +0.19    +0.201 C 
DOCKED: BRANCH   7   8
DOCKED: ATOM      8  O   UNL d   1      -9.781   6.031  -6.469 -0.58 -0.57    -0.364 OA
DOCKED: BRANCH   8   9
DOCKED: ATOM      9  P   UNL d   1     -10.891   7.083  -5.837 -0.26 -0.02    -0.015 P 
DOCKED: ATOM     10  O   UNL d   1     -11.389   7.903  -7.034 +0.01 -0.34    -0.577 OA
DOCKED: ATOM     11  O   UNL d   1     -10.154   7.950  -4.818 -0.65 -0.40    -0.577 OA
DOCKED: ATOM     12  O   UNL d   1     -12.005   6.243  -5.214 -0.10 -1.22    -0.638 OA
DOCKED: ENDBRANCH   8   9
DOCKED: ENDBRANCH   7   8
DOCKED: ENDBRANCH   1   7
DOCKED: BRANCH   1  13
DOCKED: ATOM     13  C   UNL d   1      -8.433   4.328  -9.517 -0.25 +0.03    +0.073 C 
DOCKED: ATOM     14  O   UNL d   1      -8.520   5.040 -10.578 -0.06 -0.13    -0.547 OA
DOCKED: ATOM     15  O   UNL d   1      -7.431   3.580  -9.225 -0.09 -0.13    -0.547 OA
DOCKED: ENDBRANCH   1  13
DOCKED: TORSDOF 6
DOCKED: TER
DOCKED: ENDMDL
________________________________________________________________________________


	BEGINNING GENETIC ALGORITHM DOCKING 12 of 100
Run: 12 Seed: 1316696852 1858013448 [ Run 12 of 100 GA/GALS ]
Beginning LAMARCKIAN GENETIC ALGORITHM (LGA), with a maximum of 25000000 energy evaluations.

Final-Value: -6.065


	FINAL GENETIC ALGORITHM DOCKED STATE
	_______________________________________________


Detailed state:  trans 3.230 -14.648 -6.819 quatxyzw -0.302864 0.878455 0.203286 -0.308650 center 0.015 0.083 0.031 ntor 6 163.5954 -34.0540 150.3959 53.1166 35.7156 -169.4723
State:	  3.230 -14.648  -6.819  -0.318  0.924  0.214 -144.044    163.60  -34.05  150.40   53.12   35.72 -169.47

DOCKED: MODEL       12
DOCKED: USER    Run = 12
DOCKED: USER    DPF = D:/Protein_go_brrr/autodock/final/mut_K82N/2_3_BPG/dock.dpf
DOCKED: USER  
DOCKED: USER    Estimated Free Energy of Binding    =   -6.55 kcal/mol  [=(1)+(2)+(3)-(4)]
DOCKED: USER    Estimated Inhibition Constant, Ki   =   15.79 uM (micromolar)  [Temperature = 298.15 K]
DOCKED: USER    
DOCKED: USER    (1) Final Intermolecular Energy     =   -8.34 kcal/mol
DOCKED: USER        vdW + Hbond + desolv Energy     =   -3.53 kcal/mol
DOCKED: USER        Electrostatic Energy            =   -4.81 kcal/mol
DOCKED: USER    (2) Final Total Internal Energy     =   +2.27 kcal/mol
DOCKED: USER    (3) Torsional Free Energy           =   +1.79 kcal/mol
DOCKED: USER    (4) Unbound System's Energy  [=(2)] =   +2.27 kcal/mol
DOCKED: USER    
DOCKED: USER    
DOCKED: USER    NEWDPF move 2_3_BPG_opt.pdbqt
DOCKED: USER    NEWDPF about 0.015000 0.083000 0.031000
DOCKED: USER    NEWDPF tran0 3.230100 -14.648131 -6.818989
DOCKED: USER    NEWDPF quaternion0 -0.302864 0.878455 0.203286 -0.308650
DOCKED: USER    NEWDPF axisangle0 -0.318410 0.923547 0.213721 -144.044249
DOCKED: USER    NEWDPF quat0 -0.318410 0.923547 0.213721 -144.044249
DOCKED: USER    NEWDPF dihe0 163.60 -34.05 150.40 53.12 35.72 -169.47 
DOCKED: USER  keepresnum = 1 
DOCKED: USER  
DOCKED: REMARK  6 active torsions:
DOCKED: REMARK  status: ('A' for Active; 'I' for Inactive)
DOCKED: REMARK    1  A    between atoms: P_1  and  O_3 
DOCKED: REMARK    2  A    between atoms: P_2  and  O_4 
DOCKED: REMARK    3  A    between atoms: O_3  and  C_13 
DOCKED: REMARK    4  A    between atoms: O_4  and  C_14 
DOCKED: REMARK    5  A    between atoms: C_13  and  C_14 
DOCKED: REMARK    6  A    between atoms: C_13  and  C_15 
DOCKED: USER                              x       y       z     vdW  Elec       q    Type
DOCKED: USER                           _______ _______ _______ _____ _____    ______ ____
DOCKED: ROOT
DOCKED: ATOM      1  C   UNL d   1       3.841 -14.588  -6.550 -0.10 +0.19    +0.193 C 
DOCKED: ENDROOT
DOCKED: BRANCH   1   2
DOCKED: ATOM      2  O   UNL d   1       3.704 -13.925  -5.248 +0.27 -0.68    -0.356 OA
DOCKED: BRANCH   2   3
DOCKED: ATOM      3  P   UNL d   1       3.511 -12.301  -5.078 -0.51 -0.01    -0.014 P 
DOCKED: ATOM      4  O   UNL d   1       2.514 -12.154  -3.917 -0.73 -0.63    -0.577 OA
DOCKED: ATOM      5  O   UNL d   1       2.929 -11.775  -6.388 -0.10 -0.25    -0.577 OA
DOCKED: ATOM      6  O   UNL d   1       4.868 -11.699  -4.730 -0.48 -0.48    -0.638 OA
DOCKED: ENDBRANCH   2   3
DOCKED: ENDBRANCH   1   2
DOCKED: BRANCH   1   7
DOCKED: ATOM      7  C   UNL d   1       2.411 -14.998  -7.061 -0.14 +0.20    +0.201 C 
DOCKED: BRANCH   7   8
DOCKED: ATOM      8  O   UNL d   1       1.337 -14.864  -6.104 -0.28 -0.62    -0.364 OA
DOCKED: BRANCH   8   9
DOCKED: ATOM      9  P   UNL d   1       0.137 -16.000  -6.038 -0.21 -0.02    -0.015 P 
DOCKED: ATOM     10  O   UNL d   1       0.062 -16.583  -7.455 +0.03 -0.28    -0.577 OA
DOCKED: ATOM     11  O   UNL d   1      -1.149 -15.269  -5.653 -0.28 -0.41    -0.577 OA
DOCKED: ATOM     12  O   UNL d   1       0.561 -17.046  -5.009 -0.34 -0.94    -0.638 OA
DOCKED: ENDBRANCH   8   9
DOCKED: ENDBRANCH   7   8
DOCKED: ENDBRANCH   1   7
DOCKED: BRANCH   1  13
DOCKED: ATOM     13  C   UNL d   1       4.716 -15.889  -6.404 -0.09 +0.06    +0.073 C 
DOCKED: ATOM     14  O   UNL d   1       5.526 -16.190  -7.350 +0.02 -0.19    -0.547 OA
DOCKED: ATOM     15  O   UNL d   1       4.609 -16.542  -5.304 -0.58 -0.74    -0.547 OA
DOCKED: ENDBRANCH   1  13
DOCKED: TORSDOF 6
DOCKED: TER
DOCKED: ENDMDL
________________________________________________________________________________


	BEGINNING GENETIC ALGORITHM DOCKING 13 of 100
Run: 13 Seed: 972893783 772622094 [ Run 13 of 100 GA/GALS ]
Beginning LAMARCKIAN GENETIC ALGORITHM (LGA), with a maximum of 25000000 energy evaluations.

Final-Value: -6.047


	FINAL GENETIC ALGORITHM DOCKED STATE
	_______________________________________________


Detailed state:  trans 1.099 -17.177 -5.902 quatxyzw 0.384962 -0.034218 -0.296238 -0.873428 center 0.015 0.083 0.031 ntor 6 -39.2961 -36.5022 102.9413 15.2236 17.2579 -38.6819
State:	  1.099 -17.177  -5.902   0.791 -0.070 -0.608 -58.281    -39.30  -36.50  102.94   15.22   17.26  -38.68

DOCKED: MODEL       13
DOCKED: USER    Run = 13
DOCKED: USER    DPF = D:/Protein_go_brrr/autodock/final/mut_K82N/2_3_BPG/dock.dpf
DOCKED: USER  
DOCKED: USER    Estimated Free Energy of Binding    =   -6.26 kcal/mol  [=(1)+(2)+(3)-(4)]
DOCKED: USER    Estimated Inhibition Constant, Ki   =   25.61 uM (micromolar)  [Temperature = 298.15 K]
DOCKED: USER    
DOCKED: USER    (1) Final Intermolecular Energy     =   -8.05 kcal/mol
DOCKED: USER        vdW + Hbond + desolv Energy     =   -4.02 kcal/mol
DOCKED: USER        Electrostatic Energy            =   -4.04 kcal/mol
DOCKED: USER    (2) Final Total Internal Energy     =   +2.01 kcal/mol
DOCKED: USER    (3) Torsional Free Energy           =   +1.79 kcal/mol
DOCKED: USER    (4) Unbound System's Energy  [=(2)] =   +2.01 kcal/mol
DOCKED: USER    
DOCKED: USER    
DOCKED: USER    NEWDPF move 2_3_BPG_opt.pdbqt
DOCKED: USER    NEWDPF about 0.015000 0.083000 0.031000
DOCKED: USER    NEWDPF tran0 1.098862 -17.176684 -5.902105
DOCKED: USER    NEWDPF quaternion0 0.384962 -0.034218 -0.296238 -0.873428
DOCKED: USER    NEWDPF axisangle0 0.790552 -0.070270 -0.608350 -58.281022
DOCKED: USER    NEWDPF quat0 0.790552 -0.070270 -0.608350 -58.281022
DOCKED: USER    NEWDPF dihe0 -39.30 -36.50 102.94 15.22 17.26 -38.68 
DOCKED: USER  keepresnum = 1 
DOCKED: USER  
DOCKED: REMARK  6 active torsions:
DOCKED: REMARK  status: ('A' for Active; 'I' for Inactive)
DOCKED: REMARK    1  A    between atoms: P_1  and  O_3 
DOCKED: REMARK    2  A    between atoms: P_2  and  O_4 
DOCKED: REMARK    3  A    between atoms: O_3  and  C_13 
DOCKED: REMARK    4  A    between atoms: O_4  and  C_14 
DOCKED: REMARK    5  A    between atoms: C_13  and  C_14 
DOCKED: REMARK    6  A    between atoms: C_13  and  C_15 
DOCKED: USER                              x       y       z     vdW  Elec       q    Type
DOCKED: USER                           _______ _______ _______ _____ _____    ______ ____
DOCKED: ROOT
DOCKED: ATOM      1  C   UNL d   1       0.437 -17.083  -5.954 -0.16 +0.18    +0.193 C 
DOCKED: ENDROOT
DOCKED: BRANCH   1   2
DOCKED: ATOM      2  O   UNL d   1       0.151 -15.672  -5.676 -0.68 -0.47    -0.356 OA
DOCKED: BRANCH   2   3
DOCKED: ATOM      3  P   UNL d   1      -0.767 -15.170  -4.407 -0.71 -0.01    -0.014 P 
DOCKED: ATOM      4  O   UNL d   1      -0.038 -13.926  -3.875 -0.19 -0.76    -0.577 OA
DOCKED: ATOM      5  O   UNL d   1      -0.774 -16.299  -3.379 -0.17 -0.46    -0.577 OA
DOCKED: ATOM      6  O   UNL d   1      -2.154 -14.822  -4.937 -0.67 -0.47    -0.638 OA
DOCKED: ENDBRANCH   2   3
DOCKED: ENDBRANCH   1   2
DOCKED: BRANCH   1   7
DOCKED: ATOM      7  C   UNL d   1       1.991 -17.260  -6.124 -0.03 +0.24    +0.201 C 
DOCKED: BRANCH   7   8
DOCKED: ATOM      8  O   UNL d   1       2.625 -18.178  -5.206 -0.12 -0.37    -0.364 OA
DOCKED: BRANCH   8   9
DOCKED: ATOM      9  P   UNL d   1       4.254 -18.086  -4.933 -0.22 -0.01    -0.015 P 
DOCKED: ATOM     10  O   UNL d   1       4.903 -18.682  -6.189 +0.01 -0.20    -0.577 OA
DOCKED: ATOM     11  O   UNL d   1       4.546 -18.923  -3.688 -0.34 -0.32    -0.577 OA
DOCKED: ATOM     12  O   UNL d   1       4.599 -16.608  -4.755 -0.59 -1.06    -0.638 OA
DOCKED: ENDBRANCH   8   9
DOCKED: ENDBRANCH   7   8
DOCKED: ENDBRANCH   1   7
DOCKED: BRANCH   1  13
DOCKED: ATOM     13  C   UNL d   1      -0.269 -17.524  -7.291 -0.14 +0.03    +0.073 C 
DOCKED: ATOM     14  O   UNL d   1      -0.720 -16.614  -8.072 -0.03 -0.22    -0.547 OA
DOCKED: ATOM     15  O   UNL d   1      -0.293 -18.781  -7.550 +0.03 -0.12    -0.547 OA
DOCKED: ENDBRANCH   1  13
DOCKED: TORSDOF 6
DOCKED: TER
DOCKED: ENDMDL
________________________________________________________________________________


	BEGINNING GENETIC ALGORITHM DOCKING 14 of 100
Run: 14 Seed: 1037688937 386801666 [ Run 14 of 100 GA/GALS ]
Beginning LAMARCKIAN GENETIC ALGORITHM (LGA), with a maximum of 25000000 energy evaluations.

Final-Value: -5.908


	FINAL GENETIC ALGORITHM DOCKED STATE
	_______________________________________________


Detailed state:  trans -11.580 3.117 -10.492 quatxyzw 0.163710 0.676063 -0.534232 -0.480349 center 0.015 0.083 0.031 ntor 6 -149.5632 -64.6574 -146.2378 -6.9468 8.6909 1.6345
State:	-11.580   3.117 -10.492   0.187  0.771 -0.609 -122.584   -149.56  -64.66 -146.24   -6.95    8.69    1.63

DOCKED: MODEL       14
DOCKED: USER    Run = 14
DOCKED: USER    DPF = D:/Protein_go_brrr/autodock/final/mut_K82N/2_3_BPG/dock.dpf
DOCKED: USER  
DOCKED: USER    Estimated Free Energy of Binding    =   -6.15 kcal/mol  [=(1)+(2)+(3)-(4)]
DOCKED: USER    Estimated Inhibition Constant, Ki   =   31.09 uM (micromolar)  [Temperature = 298.15 K]
DOCKED: USER    
DOCKED: USER    (1) Final Intermolecular Energy     =   -7.94 kcal/mol
DOCKED: USER        vdW + Hbond + desolv Energy     =   -2.73 kcal/mol
DOCKED: USER        Electrostatic Energy            =   -5.21 kcal/mol
DOCKED: USER    (2) Final Total Internal Energy     =   +2.03 kcal/mol
DOCKED: USER    (3) Torsional Free Energy           =   +1.79 kcal/mol
DOCKED: USER    (4) Unbound System's Energy  [=(2)] =   +2.03 kcal/mol
DOCKED: USER    
DOCKED: USER    
DOCKED: USER    NEWDPF move 2_3_BPG_opt.pdbqt
DOCKED: USER    NEWDPF about 0.015000 0.083000 0.031000
DOCKED: USER    NEWDPF tran0 -11.580106 3.116548 -10.491929
DOCKED: USER    NEWDPF quaternion0 0.163710 0.676063 -0.534232 -0.480349
DOCKED: USER    NEWDPF axisangle0 0.186654 0.770813 -0.609104 -122.583651
DOCKED: USER    NEWDPF quat0 0.186654 0.770813 -0.609104 -122.583651
DOCKED: USER    NEWDPF dihe0 -149.56 -64.66 -146.24 -6.95 8.69 1.63 
DOCKED: USER  keepresnum = 1 
DOCKED: USER  
DOCKED: REMARK  6 active torsions:
DOCKED: REMARK  status: ('A' for Active; 'I' for Inactive)
DOCKED: REMARK    1  A    between atoms: P_1  and  O_3 
DOCKED: REMARK    2  A    between atoms: P_2  and  O_4 
DOCKED: REMARK    3  A    between atoms: O_3  and  C_13 
DOCKED: REMARK    4  A    between atoms: O_4  and  C_14 
DOCKED: REMARK    5  A    between atoms: C_13  and  C_14 
DOCKED: REMARK    6  A    between atoms: C_13  and  C_15 
DOCKED: USER                              x       y       z     vdW  Elec       q    Type
DOCKED: USER                           _______ _______ _______ _____ _____    ______ ____
DOCKED: ROOT
DOCKED: ATOM      1  C   UNL d   1     -11.481   3.089  -9.830 -0.08 +0.12    +0.193 C 
DOCKED: ENDROOT
DOCKED: BRANCH   1   2
DOCKED: ATOM      2  O   UNL d   1     -10.691   4.260  -9.436 -0.09 -0.26    -0.356 OA
DOCKED: BRANCH   2   3
DOCKED: ATOM      3  P   UNL d   1      -9.471   4.198  -8.334 -0.25 -0.01    -0.014 P 
DOCKED: ATOM      4  O   UNL d   1      -8.198   4.445  -9.158 -0.05 -0.22    -0.577 OA
DOCKED: ATOM      5  O   UNL d   1      -9.483   2.798  -7.724 -0.05 -0.66    -0.577 OA
DOCKED: ATOM      6  O   UNL d   1      -9.702   5.307  -7.313 -0.50 -1.07    -0.638 OA
DOCKED: ENDBRANCH   2   3
DOCKED: ENDBRANCH   1   2
DOCKED: BRANCH   1   7
DOCKED: ATOM      7  C   UNL d   1     -11.969   3.284 -11.312 -0.10 +0.08    +0.201 C 
DOCKED: BRANCH   7   8
DOCKED: ATOM      8  O   UNL d   1     -12.385   2.085 -12.002 -0.09 -0.16    -0.364 OA
DOCKED: BRANCH   8   9
DOCKED: ATOM      9  P   UNL d   1     -12.639   2.113 -13.637 -0.19 -0.01    -0.015 P 
DOCKED: ATOM     10  O   UNL d   1     -11.575   3.069 -14.189 -0.05 -0.45    -0.577 OA
DOCKED: ATOM     11  O   UNL d   1     -14.054   2.645 -13.859 -0.03 -0.41    -0.577 OA
DOCKED: ATOM     12  O   UNL d   1     -12.448   0.686 -14.148 -0.54 -1.15    -0.638 OA
DOCKED: ENDBRANCH   8   9
DOCKED: ENDBRANCH   7   8
DOCKED: ENDBRANCH   1   7
DOCKED: BRANCH   1  13
DOCKED: ATOM     13  C   UNL d   1     -12.742   2.950  -8.898 -0.11 +0.07    +0.073 C 
DOCKED: ATOM     14  O   UNL d   1     -12.673   2.166  -7.887 -0.59 -0.74    -0.547 OA
DOCKED: ATOM     15  O   UNL d   1     -13.755   3.689  -9.175 -0.01 -0.33    -0.547 OA
DOCKED: ENDBRANCH   1  13
DOCKED: TORSDOF 6
DOCKED: TER
DOCKED: ENDMDL
________________________________________________________________________________


	BEGINNING GENETIC ALGORITHM DOCKING 15 of 100
Run: 15 Seed: 354044148 121682893 [ Run 15 of 100 GA/GALS ]
Beginning LAMARCKIAN GENETIC ALGORITHM (LGA), with a maximum of 25000000 energy evaluations.

Final-Value: -5.990


	FINAL GENETIC ALGORITHM DOCKED STATE
	_______________________________________________


Detailed state:  trans -11.973 2.696 -10.258 quatxyzw -0.082023 -0.704022 0.555305 0.435043 center 0.015 0.083 0.031 ntor 6 -159.8052 -58.3048 -90.9118 -20.7539 -16.2662 -56.2716
State:	-11.973   2.696 -10.258  -0.091 -0.782  0.617 128.424   -159.81  -58.30  -90.91  -20.75  -16.27  -56.27

DOCKED: MODEL       15
DOCKED: USER    Run = 15
DOCKED: USER    DPF = D:/Protein_go_brrr/autodock/final/mut_K82N/2_3_BPG/dock.dpf
DOCKED: USER  
DOCKED: USER    Estimated Free Energy of Binding    =   -6.25 kcal/mol  [=(1)+(2)+(3)-(4)]
DOCKED: USER    Estimated Inhibition Constant, Ki   =   26.21 uM (micromolar)  [Temperature = 298.15 K]
DOCKED: USER    
DOCKED: USER    (1) Final Intermolecular Energy     =   -8.04 kcal/mol
DOCKED: USER        vdW + Hbond + desolv Energy     =   -2.53 kcal/mol
DOCKED: USER        Electrostatic Energy            =   -5.51 kcal/mol
DOCKED: USER    (2) Final Total Internal Energy     =   +2.05 kcal/mol
DOCKED: USER    (3) Torsional Free Energy           =   +1.79 kcal/mol
DOCKED: USER    (4) Unbound System's Energy  [=(2)] =   +2.05 kcal/mol
DOCKED: USER    
DOCKED: USER    
DOCKED: USER    NEWDPF move 2_3_BPG_opt.pdbqt
DOCKED: USER    NEWDPF about 0.015000 0.083000 0.031000
DOCKED: USER    NEWDPF tran0 -11.973143 2.695842 -10.257786
DOCKED: USER    NEWDPF quaternion0 -0.082023 -0.704022 0.555305 0.435043
DOCKED: USER    NEWDPF axisangle0 -0.091095 -0.781891 0.616724 128.423952
DOCKED: USER    NEWDPF quat0 -0.091095 -0.781891 0.616724 128.423952
DOCKED: USER    NEWDPF dihe0 -159.81 -58.30 -90.91 -20.75 -16.27 -56.27 
DOCKED: USER  keepresnum = 1 
DOCKED: USER  
DOCKED: REMARK  6 active torsions:
DOCKED: REMARK  status: ('A' for Active; 'I' for Inactive)
DOCKED: REMARK    1  A    between atoms: P_1  and  O_3 
DOCKED: REMARK    2  A    between atoms: P_2  and  O_4 
DOCKED: REMARK    3  A    between atoms: O_3  and  C_13 
DOCKED: REMARK    4  A    between atoms: O_4  and  C_14 
DOCKED: REMARK    5  A    between atoms: C_13  and  C_14 
DOCKED: REMARK    6  A    between atoms: C_13  and  C_15 
DOCKED: USER                              x       y       z     vdW  Elec       q    Type
DOCKED: USER                           _______ _______ _______ _____ _____    ______ ____
DOCKED: ROOT
DOCKED: ATOM      1  C   UNL d   1     -11.755   2.717  -9.624 -0.09 +0.13    +0.193 C 
DOCKED: ENDROOT
DOCKED: BRANCH   1   2
DOCKED: ATOM      2  O   UNL d   1     -10.974   3.946  -9.449 -0.09 -0.27    -0.356 OA
DOCKED: BRANCH   2   3
DOCKED: ATOM      3  P   UNL d   1      -9.772   4.102  -8.338 -0.16 -0.02    -0.014 P 
DOCKED: ATOM      4  O   UNL d   1      -8.508   4.358  -9.174 -0.05 -0.25    -0.577 OA
DOCKED: ATOM      5  O   UNL d   1      -9.685   2.780  -7.578 -0.01 -0.78    -0.577 OA
DOCKED: ATOM      6  O   UNL d   1     -10.106   5.295  -7.447 -0.35 -1.22    -0.638 OA
DOCKED: ENDBRANCH   2   3
DOCKED: ENDBRANCH   1   2
DOCKED: BRANCH   1   7
DOCKED: ATOM      7  C   UNL d   1     -12.512   2.790 -11.002 -0.09 +0.08    +0.201 C 
DOCKED: BRANCH   7   8
DOCKED: ATOM      8  O   UNL d   1     -11.945   2.006 -12.075 -0.05 -0.17    -0.364 OA
DOCKED: BRANCH   8   9
DOCKED: ATOM      9  P   UNL d   1     -12.815   1.741 -13.457 -0.20 -0.01    -0.015 P 
DOCKED: ATOM     10  O   UNL d   1     -12.428   2.888 -14.398 -0.11 -0.60    -0.577 OA
DOCKED: ATOM     11  O   UNL d   1     -14.293   1.793 -13.070 -0.01 -0.32    -0.577 OA
DOCKED: ATOM     12  O   UNL d   1     -12.388   0.380 -14.004 -0.61 -1.01    -0.638 OA
DOCKED: ENDBRANCH   8   9
DOCKED: ENDBRANCH   7   8
DOCKED: ENDBRANCH   1   7
DOCKED: BRANCH   1  13
DOCKED: ATOM     13  C   UNL d   1     -12.819   2.584  -8.471 -0.06 +0.08    +0.073 C 
DOCKED: ATOM     14  O   UNL d   1     -12.613   1.722  -7.546 -0.60 -0.71    -0.547 OA
DOCKED: ATOM     15  O   UNL d   1     -13.808   3.402  -8.494 -0.05 -0.43    -0.547 OA
DOCKED: ENDBRANCH   1  13
DOCKED: TORSDOF 6
DOCKED: TER
DOCKED: ENDMDL
________________________________________________________________________________


	BEGINNING GENETIC ALGORITHM DOCKING 16 of 100
Run: 16 Seed: 1187566431 1297581995 [ Run 16 of 100 GA/GALS ]
Beginning LAMARCKIAN GENETIC ALGORITHM (LGA), with a maximum of 25000000 energy evaluations.

Final-Value: -6.391


	FINAL GENETIC ALGORITHM DOCKED STATE
	_______________________________________________


Detailed state:  trans 3.069 -13.840 -6.681 quatxyzw -0.472582 0.195890 0.674151 0.532741 center 0.015 0.083 0.031 ntor 6 80.6617 15.0302 -173.0973 60.7355 53.8042 -13.3283
State:	  3.069 -13.840  -6.681  -0.558  0.231  0.797 115.618     80.66   15.03 -173.10   60.74   53.80  -13.33

DOCKED: MODEL       16
DOCKED: USER    Run = 16
DOCKED: USER    DPF = D:/Protein_go_brrr/autodock/final/mut_K82N/2_3_BPG/dock.dpf
DOCKED: USER  
DOCKED: USER    Estimated Free Energy of Binding    =   -7.00 kcal/mol  [=(1)+(2)+(3)-(4)]
DOCKED: USER    Estimated Inhibition Constant, Ki   =    7.37 uM (micromolar)  [Temperature = 298.15 K]
DOCKED: USER    
DOCKED: USER    (1) Final Intermolecular Energy     =   -8.79 kcal/mol
DOCKED: USER        vdW + Hbond + desolv Energy     =   -3.87 kcal/mol
DOCKED: USER        Electrostatic Energy            =   -4.92 kcal/mol
DOCKED: USER    (2) Final Total Internal Energy     =   +2.40 kcal/mol
DOCKED: USER    (3) Torsional Free Energy           =   +1.79 kcal/mol
DOCKED: USER    (4) Unbound System's Energy  [=(2)] =   +2.40 kcal/mol
DOCKED: USER    
DOCKED: USER    
DOCKED: USER    NEWDPF move 2_3_BPG_opt.pdbqt
DOCKED: USER    NEWDPF about 0.015000 0.083000 0.031000
DOCKED: USER    NEWDPF tran0 3.068870 -13.840425 -6.680896
DOCKED: USER    NEWDPF quaternion0 -0.472582 0.195890 0.674151 0.532741
DOCKED: USER    NEWDPF axisangle0 -0.558424 0.231473 0.796607 115.618263
DOCKED: USER    NEWDPF quat0 -0.558424 0.231473 0.796607 115.618263
DOCKED: USER    NEWDPF dihe0 80.66 15.03 -173.10 60.74 53.80 -13.33 
DOCKED: USER  keepresnum = 1 
DOCKED: USER  
DOCKED: REMARK  6 active torsions:
DOCKED: REMARK  status: ('A' for Active; 'I' for Inactive)
DOCKED: REMARK    1  A    between atoms: P_1  and  O_3 
DOCKED: REMARK    2  A    between atoms: P_2  and  O_4 
DOCKED: REMARK    3  A    between atoms: O_3  and  C_13 
DOCKED: REMARK    4  A    between atoms: O_4  and  C_14 
DOCKED: REMARK    5  A    between atoms: C_13  and  C_14 
DOCKED: REMARK    6  A    between atoms: C_13  and  C_15 
DOCKED: USER                              x       y       z     vdW  Elec       q    Type
DOCKED: USER                           _______ _______ _______ _____ _____    ______ ____
DOCKED: ROOT
DOCKED: ATOM      1  C   UNL d   1       2.815 -13.222  -6.625 -0.24 +0.15    +0.193 C 
DOCKED: ENDROOT
DOCKED: BRANCH   1   2
DOCKED: ATOM      2  O   UNL d   1       3.770 -12.404  -5.869 -0.21 -0.25    -0.356 OA
DOCKED: BRANCH   2   3
DOCKED: ATOM      3  P   UNL d   1       4.034 -12.583  -4.256 -0.44 -0.01    -0.014 P 
DOCKED: ATOM      4  O   UNL d   1       4.873 -11.356  -3.866 -0.55 -0.37    -0.577 OA
DOCKED: ATOM      5  O   UNL d   1       4.815 -13.881  -4.067 +0.01 -0.69    -0.577 OA
DOCKED: ATOM      6  O   UNL d   1       2.680 -12.580  -3.554 -0.62 -1.01    -0.638 OA
DOCKED: ENDBRANCH   2   3
DOCKED: ENDBRANCH   1   2
DOCKED: BRANCH   1   7
DOCKED: ATOM      7  C   UNL d   1       3.512 -14.578  -7.016 -0.13 +0.16    +0.201 C 
DOCKED: BRANCH   7   8
DOCKED: ATOM      8  O   UNL d   1       2.654 -15.740  -7.052 -0.13 -0.36    -0.364 OA
DOCKED: BRANCH   8   9
DOCKED: ATOM      9  P   UNL d   1       3.010 -17.062  -6.124 -0.01 -0.02    -0.015 P 
DOCKED: ATOM     10  O   UNL d   1       4.153 -16.611  -5.208 -0.41 -1.09    -0.577 OA
DOCKED: ATOM     11  O   UNL d   1       3.448 -18.172  -7.079 +0.02 -0.25    -0.577 OA
DOCKED: ATOM     12  O   UNL d   1       1.748 -17.414  -5.337 -0.11 -1.03    -0.638 OA
DOCKED: ENDBRANCH   8   9
DOCKED: ENDBRANCH   7   8
DOCKED: ENDBRANCH   1   7
DOCKED: BRANCH   1  13
DOCKED: ATOM     13  C   UNL d   1       2.390 -12.475  -7.944 -0.33 +0.02    +0.073 C 
DOCKED: ATOM     14  O   UNL d   1       2.367 -13.136  -9.041 -0.54 -0.16    -0.547 OA
DOCKED: ATOM     15  O   UNL d   1       2.025 -11.250  -7.827 -0.17 -0.00    -0.547 OA
DOCKED: ENDBRANCH   1  13
DOCKED: TORSDOF 6
DOCKED: TER
DOCKED: ENDMDL
________________________________________________________________________________


	BEGINNING GENETIC ALGORITHM DOCKING 17 of 100
Run: 17 Seed: 257621410 150075193 [ Run 17 of 100 GA/GALS ]
Beginning LAMARCKIAN GENETIC ALGORITHM (LGA), with a maximum of 25000000 energy evaluations.

Final-Value: -5.702


	FINAL GENETIC ALGORITHM DOCKED STATE
	_______________________________________________


Detailed state:  trans -12.199 3.074 -10.454 quatxyzw -0.266706 0.769825 -0.191977 -0.547158 center 0.015 0.083 0.031 ntor 6 155.0335 -62.2960 -98.9001 -20.8587 14.7305 -4.9051
State:	-12.199   3.074 -10.454  -0.319  0.920 -0.229 -113.656    155.03  -62.30  -98.90  -20.86   14.73   -4.91

DOCKED: MODEL       17
DOCKED: USER    Run = 17
DOCKED: USER    DPF = D:/Protein_go_brrr/autodock/final/mut_K82N/2_3_BPG/dock.dpf
DOCKED: USER  
DOCKED: USER    Estimated Free Energy of Binding    =   -5.98 kcal/mol  [=(1)+(2)+(3)-(4)]
DOCKED: USER    Estimated Inhibition Constant, Ki   =   41.02 uM (micromolar)  [Temperature = 298.15 K]
DOCKED: USER    
DOCKED: USER    (1) Final Intermolecular Energy     =   -7.77 kcal/mol
DOCKED: USER        vdW + Hbond + desolv Energy     =   -2.03 kcal/mol
DOCKED: USER        Electrostatic Energy            =   -5.74 kcal/mol
DOCKED: USER    (2) Final Total Internal Energy     =   +2.07 kcal/mol
DOCKED: USER    (3) Torsional Free Energy           =   +1.79 kcal/mol
DOCKED: USER    (4) Unbound System's Energy  [=(2)] =   +2.07 kcal/mol
DOCKED: USER    
DOCKED: USER    
DOCKED: USER    NEWDPF move 2_3_BPG_opt.pdbqt
DOCKED: USER    NEWDPF about 0.015000 0.083000 0.031000
DOCKED: USER    NEWDPF tran0 -12.198957 3.073974 -10.454273
DOCKED: USER    NEWDPF quaternion0 -0.266706 0.769825 -0.191977 -0.547158
DOCKED: USER    NEWDPF axisangle0 -0.318634 0.919711 -0.229355 -113.655516
DOCKED: USER    NEWDPF quat0 -0.318634 0.919711 -0.229355 -113.655516
DOCKED: USER    NEWDPF dihe0 155.03 -62.30 -98.90 -20.86 14.73 -4.91 
DOCKED: USER  keepresnum = 1 
DOCKED: USER  
DOCKED: REMARK  6 active torsions:
DOCKED: REMARK  status: ('A' for Active; 'I' for Inactive)
DOCKED: REMARK    1  A    between atoms: P_1  and  O_3 
DOCKED: REMARK    2  A    between atoms: P_2  and  O_4 
DOCKED: REMARK    3  A    between atoms: O_3  and  C_13 
DOCKED: REMARK    4  A    between atoms: O_4  and  C_14 
DOCKED: REMARK    5  A    between atoms: C_13  and  C_14 
DOCKED: REMARK    6  A    between atoms: C_13  and  C_15 
DOCKED: USER                              x       y       z     vdW  Elec       q    Type
DOCKED: USER                           _______ _______ _______ _____ _____    ______ ____
DOCKED: ROOT
DOCKED: ATOM      1  C   UNL d   1     -11.897   3.193  -9.868 -0.11 +0.12    +0.193 C 
DOCKED: ENDROOT
DOCKED: BRANCH   1   2
DOCKED: ATOM      2  O   UNL d   1     -12.392   4.473  -9.349 -0.04 -0.26    -0.356 OA
DOCKED: BRANCH   2   3
DOCKED: ATOM      3  P   UNL d   1     -11.523   5.434  -8.338 -0.02 -0.02    -0.014 P 
DOCKED: ATOM      4  O   UNL d   1     -11.232   6.696  -9.165 +0.02 -0.29    -0.577 OA
DOCKED: ATOM      5  O   UNL d   1     -10.240   4.682  -7.990 -0.18 -0.96    -0.577 OA
DOCKED: ATOM      6  O   UNL d   1     -12.391   5.749  -7.124 +0.05 -1.18    -0.638 OA
DOCKED: ENDBRANCH   2   3
DOCKED: ENDBRANCH   1   2
DOCKED: BRANCH   1   7
DOCKED: ATOM      7  C   UNL d   1     -12.797   2.758 -11.082 -0.08 +0.08    +0.201 C 
DOCKED: BRANCH   7   8
DOCKED: ATOM      8  O   UNL d   1     -12.172   1.885 -12.049 -0.07 -0.17    -0.364 OA
DOCKED: BRANCH   8   9
DOCKED: ATOM      9  P   UNL d   1     -12.829   1.713 -13.558 -0.19 -0.01    -0.015 P 
DOCKED: ATOM     10  O   UNL d   1     -12.296   2.904 -14.364 -0.10 -0.58    -0.577 OA
DOCKED: ATOM     11  O   UNL d   1     -14.347   1.769 -13.392 -0.02 -0.36    -0.577 OA
DOCKED: ATOM     12  O   UNL d   1     -12.337   0.377 -14.114 -0.59 -1.10    -0.638 OA
DOCKED: ENDBRANCH   8   9
DOCKED: ENDBRANCH   7   8
DOCKED: ENDBRANCH   1   7
DOCKED: BRANCH   1  13
DOCKED: ATOM     13  C   UNL d   1     -11.987   2.086  -8.751 -0.15 +0.07    +0.073 C 
DOCKED: ATOM     14  O   UNL d   1     -11.147   1.120  -8.779 +0.00 -0.32    -0.547 OA
DOCKED: ATOM     15  O   UNL d   1     -12.868   2.256  -7.833 -0.54 -0.74    -0.547 OA
DOCKED: ENDBRANCH   1  13
DOCKED: TORSDOF 6
DOCKED: TER
DOCKED: ENDMDL
________________________________________________________________________________


	BEGINNING GENETIC ALGORITHM DOCKING 18 of 100
Run: 18 Seed: 1646066902 829354391 [ Run 18 of 100 GA/GALS ]
Beginning LAMARCKIAN GENETIC ALGORITHM (LGA), with a maximum of 25000000 energy evaluations.

Final-Value: -5.879


	FINAL GENETIC ALGORITHM DOCKED STATE
	_______________________________________________


Detailed state:  trans -12.250 2.708 -10.431 quatxyzw 0.075968 0.744261 -0.440854 -0.495937 center 0.015 0.083 0.031 ntor 6 83.7446 -85.6538 -70.9212 4.6732 -28.9824 -53.6062
State:	-12.250   2.708 -10.431   0.087  0.857 -0.508 -120.537     83.74  -85.65  -70.92    4.67  -28.98  -53.61

DOCKED: MODEL       18
DOCKED: USER    Run = 18
DOCKED: USER    DPF = D:/Protein_go_brrr/autodock/final/mut_K82N/2_3_BPG/dock.dpf
DOCKED: USER  
DOCKED: USER    Estimated Free Energy of Binding    =   -6.18 kcal/mol  [=(1)+(2)+(3)-(4)]
DOCKED: USER    Estimated Inhibition Constant, Ki   =   29.45 uM (micromolar)  [Temperature = 298.15 K]
DOCKED: USER    
DOCKED: USER    (1) Final Intermolecular Energy     =   -7.97 kcal/mol
DOCKED: USER        vdW + Hbond + desolv Energy     =   -2.49 kcal/mol
DOCKED: USER        Electrostatic Energy            =   -5.48 kcal/mol
DOCKED: USER    (2) Final Total Internal Energy     =   +2.09 kcal/mol
DOCKED: USER    (3) Torsional Free Energy           =   +1.79 kcal/mol
DOCKED: USER    (4) Unbound System's Energy  [=(2)] =   +2.09 kcal/mol
DOCKED: USER    
DOCKED: USER    
DOCKED: USER    NEWDPF move 2_3_BPG_opt.pdbqt
DOCKED: USER    NEWDPF about 0.015000 0.083000 0.031000
DOCKED: USER    NEWDPF tran0 -12.249759 2.707694 -10.430836
DOCKED: USER    NEWDPF quaternion0 0.075968 0.744261 -0.440854 -0.495937
DOCKED: USER    NEWDPF axisangle0 0.087484 0.857089 -0.507686 -120.536916
DOCKED: USER    NEWDPF quat0 0.087484 0.857089 -0.507686 -120.536916
DOCKED: USER    NEWDPF dihe0 83.74 -85.65 -70.92 4.67 -28.98 -53.61 
DOCKED: USER  keepresnum = 1 
DOCKED: USER  
DOCKED: REMARK  6 active torsions:
DOCKED: REMARK  status: ('A' for Active; 'I' for Inactive)
DOCKED: REMARK    1  A    between atoms: P_1  and  O_3 
DOCKED: REMARK    2  A    between atoms: P_2  and  O_4 
DOCKED: REMARK    3  A    between atoms: O_3  and  C_13 
DOCKED: REMARK    4  A    between atoms: O_4  and  C_14 
DOCKED: REMARK    5  A    between atoms: C_13  and  C_14 
DOCKED: REMARK    6  A    between atoms: C_13  and  C_15 
DOCKED: USER                              x       y       z     vdW  Elec       q    Type
DOCKED: USER                           _______ _______ _______ _____ _____    ______ ____
DOCKED: ROOT
DOCKED: ATOM      1  C   UNL d   1     -12.068   2.643  -9.789 -0.11 +0.11    +0.193 C 
DOCKED: ENDROOT
DOCKED: BRANCH   1   2
DOCKED: ATOM      2  O   UNL d   1     -11.539   3.932  -9.330 -0.08 -0.30    -0.356 OA
DOCKED: BRANCH   2   3
DOCKED: ATOM      3  P   UNL d   1     -10.075   4.099  -8.600 -0.14 -0.02    -0.014 P 
DOCKED: ATOM      4  O   UNL d   1      -9.097   4.356  -9.757 -0.04 -0.24    -0.577 OA
DOCKED: ATOM      5  O   UNL d   1      -9.771   2.782  -7.890 -0.06 -0.70    -0.577 OA
DOCKED: ATOM      6  O   UNL d   1     -10.153   5.295  -7.657 -0.35 -1.09    -0.638 OA
DOCKED: ENDBRANCH   2   3
DOCKED: ENDBRANCH   1   2
DOCKED: BRANCH   1   7
DOCKED: ATOM      7  C   UNL d   1     -12.763   2.850 -11.185 -0.09 +0.08    +0.201 C 
DOCKED: BRANCH   7   8
DOCKED: ATOM      8  O   UNL d   1     -12.039   2.347 -12.330 -0.06 -0.17    -0.364 OA
DOCKED: BRANCH   8   9
DOCKED: ATOM      9  P   UNL d   1     -12.855   1.911 -13.701 -0.20 -0.01    -0.015 P 
DOCKED: ATOM     10  O   UNL d   1     -12.460   2.957 -14.750 -0.13 -0.69    -0.577 OA
DOCKED: ATOM     11  O   UNL d   1     -14.346   1.969 -13.370 -0.01 -0.35    -0.577 OA
DOCKED: ATOM     12  O   UNL d   1     -12.381   0.509 -14.082 -0.58 -1.09    -0.638 OA
DOCKED: ENDBRANCH   8   9
DOCKED: ENDBRANCH   7   8
DOCKED: ENDBRANCH   1   7
DOCKED: BRANCH   1  13
DOCKED: ATOM     13  C   UNL d   1     -13.139   2.104  -8.768 -0.10 +0.05    +0.073 C 
DOCKED: ATOM     14  O   UNL d   1     -14.216   1.585  -9.228 +0.01 -0.21    -0.547 OA
DOCKED: ATOM     15  O   UNL d   1     -12.836   2.162  -7.522 -0.55 -0.86    -0.547 OA
DOCKED: ENDBRANCH   1  13
DOCKED: TORSDOF 6
DOCKED: TER
DOCKED: ENDMDL
________________________________________________________________________________


	BEGINNING GENETIC ALGORITHM DOCKING 19 of 100
Run: 19 Seed: 1793808591 444824791 [ Run 19 of 100 GA/GALS ]
Beginning LAMARCKIAN GENETIC ALGORITHM (LGA), with a maximum of 25000000 energy evaluations.

Final-Value: -5.427


	FINAL GENETIC ALGORITHM DOCKED STATE
	_______________________________________________


Detailed state:  trans -10.732 5.369 -8.876 quatxyzw -0.570159 0.610770 0.543984 -0.077208 center 0.015 0.083 0.031 ntor 6 -33.7429 163.0479 -0.1763 28.3130 -30.5153 170.2137
State:	-10.732   5.369  -8.876  -0.572  0.613  0.546 -171.144    -33.74  163.05   -0.18   28.31  -30.52  170.21

DOCKED: MODEL       19
DOCKED: USER    Run = 19
DOCKED: USER    DPF = D:/Protein_go_brrr/autodock/final/mut_K82N/2_3_BPG/dock.dpf
DOCKED: USER  
DOCKED: USER    Estimated Free Energy of Binding    =   -5.86 kcal/mol  [=(1)+(2)+(3)-(4)]
DOCKED: USER    Estimated Inhibition Constant, Ki   =   50.81 uM (micromolar)  [Temperature = 298.15 K]
DOCKED: USER    
DOCKED: USER    (1) Final Intermolecular Energy     =   -7.65 kcal/mol
DOCKED: USER        vdW + Hbond + desolv Energy     =   -2.67 kcal/mol
DOCKED: USER        Electrostatic Energy            =   -4.98 kcal/mol
DOCKED: USER    (2) Final Total Internal Energy     =   +2.22 kcal/mol
DOCKED: USER    (3) Torsional Free Energy           =   +1.79 kcal/mol
DOCKED: USER    (4) Unbound System's Energy  [=(2)] =   +2.22 kcal/mol
DOCKED: USER    
DOCKED: USER    
DOCKED: USER    NEWDPF move 2_3_BPG_opt.pdbqt
DOCKED: USER    NEWDPF about 0.015000 0.083000 0.031000
DOCKED: USER    NEWDPF tran0 -10.731782 5.368647 -8.876374
DOCKED: USER    NEWDPF quaternion0 -0.570159 0.610770 0.543984 -0.077208
DOCKED: USER    NEWDPF axisangle0 -0.571866 0.612598 0.545612 -171.143807
DOCKED: USER    NEWDPF quat0 -0.571866 0.612598 0.545612 -171.143807
DOCKED: USER    NEWDPF dihe0 -33.74 163.05 -0.18 28.31 -30.52 170.21 
DOCKED: USER  keepresnum = 1 
DOCKED: USER  
DOCKED: REMARK  6 active torsions:
DOCKED: REMARK  status: ('A' for Active; 'I' for Inactive)
DOCKED: REMARK    1  A    between atoms: P_1  and  O_3 
DOCKED: REMARK    2  A    between atoms: P_2  and  O_4 
DOCKED: REMARK    3  A    between atoms: O_3  and  C_13 
DOCKED: REMARK    4  A    between atoms: O_4  and  C_14 
DOCKED: REMARK    5  A    between atoms: C_13  and  C_14 
DOCKED: REMARK    6  A    between atoms: C_13  and  C_15 
DOCKED: USER                              x       y       z     vdW  Elec       q    Type
DOCKED: USER                           _______ _______ _______ _____ _____    ______ ____
DOCKED: ROOT
DOCKED: ATOM      1  C   UNL d   1     -10.339   5.873  -8.674 -0.11 +0.15    +0.193 C 
DOCKED: ENDROOT
DOCKED: BRANCH   1   2
DOCKED: ATOM      2  O   UNL d   1     -10.269   5.839  -7.209 -0.44 -0.60    -0.356 OA
DOCKED: BRANCH   2   3
DOCKED: ATOM      3  P   UNL d   1     -11.090   6.885  -6.242 -0.09 -0.02    -0.014 P 
DOCKED: ATOM      4  O   UNL d   1     -11.402   8.084  -7.151 +0.02 -0.30    -0.577 OA
DOCKED: ATOM      5  O   UNL d   1     -10.153   7.275  -5.100 -0.57 -0.53    -0.577 OA
DOCKED: ATOM      6  O   UNL d   1     -12.364   6.192  -5.772 -0.26 -1.28    -0.638 OA
DOCKED: ENDBRANCH   2   3
DOCKED: ENDBRANCH   1   2
DOCKED: BRANCH   1   7
DOCKED: ATOM      7  C   UNL d   1     -11.007   4.541  -9.179 -0.11 +0.17    +0.201 C 
DOCKED: BRANCH   7   8
DOCKED: ATOM      8  O   UNL d   1     -10.789   3.375  -8.354 -0.11 -0.54    -0.364 OA
DOCKED: BRANCH   8   9
DOCKED: ATOM      9  P   UNL d   1     -11.901   2.150  -8.340 +0.03 -0.02    -0.015 P 
DOCKED: ATOM     10  O   UNL d   1     -11.359   1.132  -7.328 -0.35 -0.62    -0.577 OA
DOCKED: ATOM     11  O   UNL d   1     -11.951   1.576  -9.756 -0.02 -0.28    -0.577 OA
DOCKED: ATOM     12  O   UNL d   1     -13.231   2.753  -7.891 -0.40 -0.82    -0.638 OA
DOCKED: ENDBRANCH   8   9
DOCKED: ENDBRANCH   7   8
DOCKED: ENDBRANCH   1   7
DOCKED: BRANCH   1  13
DOCKED: ATOM     13  C   UNL d   1      -8.890   5.972  -9.282 -0.18 +0.03    +0.073 C 
DOCKED: ATOM     14  O   UNL d   1      -7.896   5.625  -8.552 -0.04 -0.20    -0.547 OA
DOCKED: ATOM     15  O   UNL d   1      -8.797   6.339 -10.509 -0.02 -0.12    -0.547 OA
DOCKED: ENDBRANCH   1  13
DOCKED: TORSDOF 6
DOCKED: TER
DOCKED: ENDMDL
________________________________________________________________________________


	BEGINNING GENETIC ALGORITHM DOCKING 20 of 100
Run: 20 Seed: 1785644390 1890377667 [ Run 20 of 100 GA/GALS ]
Beginning LAMARCKIAN GENETIC ALGORITHM (LGA), with a maximum of 25000000 energy evaluations.

Final-Value: -5.848


	FINAL GENETIC ALGORITHM DOCKED STATE
	_______________________________________________


Detailed state:  trans -12.651 2.170 -12.191 quatxyzw 0.007392 -0.612614 0.026677 -0.789897 center 0.015 0.083 0.031 ntor 6 112.9203 19.7658 -73.6830 7.1994 -1.5170 -5.0420
State:	-12.651   2.170 -12.191   0.012 -0.999  0.044 -75.648    112.92   19.77  -73.68    7.20   -1.52   -5.04

DOCKED: MODEL       20
DOCKED: USER    Run = 20
DOCKED: USER    DPF = D:/Protein_go_brrr/autodock/final/mut_K82N/2_3_BPG/dock.dpf
DOCKED: USER  
DOCKED: USER    Estimated Free Energy of Binding    =   -6.16 kcal/mol  [=(1)+(2)+(3)-(4)]
DOCKED: USER    Estimated Inhibition Constant, Ki   =   30.52 uM (micromolar)  [Temperature = 298.15 K]
DOCKED: USER    
DOCKED: USER    (1) Final Intermolecular Energy     =   -7.95 kcal/mol
DOCKED: USER        vdW + Hbond + desolv Energy     =   -2.70 kcal/mol
DOCKED: USER        Electrostatic Energy            =   -5.25 kcal/mol
DOCKED: USER    (2) Final Total Internal Energy     =   +2.10 kcal/mol
DOCKED: USER    (3) Torsional Free Energy           =   +1.79 kcal/mol
DOCKED: USER    (4) Unbound System's Energy  [=(2)] =   +2.10 kcal/mol
DOCKED: USER    
DOCKED: USER    
DOCKED: USER    NEWDPF move 2_3_BPG_opt.pdbqt
DOCKED: USER    NEWDPF about 0.015000 0.083000 0.031000
DOCKED: USER    NEWDPF tran0 -12.650659 2.170071 -12.191388
DOCKED: USER    NEWDPF quaternion0 0.007392 -0.612614 0.026677 -0.789897
DOCKED: USER    NEWDPF axisangle0 0.012055 -0.998981 0.043502 -75.648171
DOCKED: USER    NEWDPF quat0 0.012055 -0.998981 0.043502 -75.648171
DOCKED: USER    NEWDPF dihe0 112.92 19.77 -73.68 7.20 -1.52 -5.04 
DOCKED: USER  keepresnum = 1 
DOCKED: USER  
DOCKED: REMARK  6 active torsions:
DOCKED: REMARK  status: ('A' for Active; 'I' for Inactive)
DOCKED: REMARK    1  A    between atoms: P_1  and  O_3 
DOCKED: REMARK    2  A    between atoms: P_2  and  O_4 
DOCKED: REMARK    3  A    between atoms: O_3  and  C_13 
DOCKED: REMARK    4  A    between atoms: O_4  and  C_14 
DOCKED: REMARK    5  A    between atoms: C_13  and  C_14 
DOCKED: REMARK    6  A    between atoms: C_13  and  C_15 
DOCKED: USER                              x       y       z     vdW  Elec       q    Type
DOCKED: USER                           _______ _______ _______ _____ _____    ______ ____
DOCKED: ROOT
DOCKED: ATOM      1  C   UNL d   1     -12.870   1.835 -12.729 -0.14 +0.11    +0.193 C 
DOCKED: ENDROOT
DOCKED: BRANCH   1   2
DOCKED: ATOM      2  O   UNL d   1     -12.549   2.626 -13.923 -0.16 -0.32    -0.356 OA
DOCKED: BRANCH   2   3
DOCKED: ATOM      3  P   UNL d   1     -13.673   3.078 -15.035 -0.07 -0.02    -0.014 P 
DOCKED: ATOM      4  O   UNL d   1     -12.849   3.509 -16.259 -0.51 -0.82    -0.577 OA
DOCKED: ATOM      5  O   UNL d   1     -14.451   4.251 -14.441 +0.00 -0.25    -0.577 OA
DOCKED: ATOM      6  O   UNL d   1     -14.544   1.865 -15.345 -0.01 -0.92    -0.638 OA
DOCKED: ENDBRANCH   2   3
DOCKED: ENDBRANCH   1   2
DOCKED: BRANCH   1   7
DOCKED: ATOM      7  C   UNL d   1     -12.114   2.454 -11.496 -0.07 +0.08    +0.201 C 
DOCKED: BRANCH   7   8
DOCKED: ATOM      8  O   UNL d   1     -12.713   2.211 -10.203 -0.06 -0.17    -0.364 OA
DOCKED: BRANCH   8   9
DOCKED: ATOM      9  P   UNL d   1     -12.026   2.845  -8.839 -0.13 -0.02    -0.015 P 
DOCKED: ATOM     10  O   UNL d   1     -12.980   3.960  -8.393 -0.08 -0.68    -0.577 OA
DOCKED: ATOM     11  O   UNL d   1     -10.657   3.393  -9.242 -0.02 -0.46    -0.577 OA
DOCKED: ATOM     12  O   UNL d   1     -11.940   1.718  -7.811 -0.57 -0.84    -0.638 OA
DOCKED: ENDBRANCH   8   9
DOCKED: ENDBRANCH   7   8
DOCKED: ENDBRANCH   1   7
DOCKED: BRANCH   1  13
DOCKED: ATOM     13  C   UNL d   1     -12.389   0.348 -12.921 -0.21 +0.05    +0.073 C 
DOCKED: ATOM     14  O   UNL d   1     -12.348  -0.418 -11.896 -0.06 -0.19    -0.547 OA
DOCKED: ATOM     15  O   UNL d   1     -12.125  -0.028 -14.120 -0.61 -0.82    -0.547 OA
DOCKED: ENDBRANCH   1  13
DOCKED: TORSDOF 6
DOCKED: TER
DOCKED: ENDMDL
________________________________________________________________________________


	BEGINNING GENETIC ALGORITHM DOCKING 21 of 100
Run: 21 Seed: 1414463245 575236944 [ Run 21 of 100 GA/GALS ]
Beginning LAMARCKIAN GENETIC ALGORITHM (LGA), with a maximum of 25000000 energy evaluations.

Final-Value: -6.101


	FINAL GENETIC ALGORITHM DOCKED STATE
	_______________________________________________


Detailed state:  trans 0.510 -17.561 -5.735 quatxyzw 0.407813 -0.201038 -0.400438 -0.795564 center 0.015 0.083 0.031 ntor 6 -90.1552 -131.4901 -93.2749 19.5136 -10.1292 -171.9362
State:	  0.510 -17.561  -5.735   0.673 -0.332 -0.661 -74.583    -90.16 -131.49  -93.27   19.51  -10.13 -171.94

DOCKED: MODEL       21
DOCKED: USER    Run = 21
DOCKED: USER    DPF = D:/Protein_go_brrr/autodock/final/mut_K82N/2_3_BPG/dock.dpf
DOCKED: USER  
DOCKED: USER    Estimated Free Energy of Binding    =   -6.49 kcal/mol  [=(1)+(2)+(3)-(4)]
DOCKED: USER    Estimated Inhibition Constant, Ki   =   17.64 uM (micromolar)  [Temperature = 298.15 K]
DOCKED: USER    
DOCKED: USER    (1) Final Intermolecular Energy     =   -8.27 kcal/mol
DOCKED: USER        vdW + Hbond + desolv Energy     =   -3.92 kcal/mol
DOCKED: USER        Electrostatic Energy            =   -4.36 kcal/mol
DOCKED: USER    (2) Final Total Internal Energy     =   +2.17 kcal/mol
DOCKED: USER    (3) Torsional Free Energy           =   +1.79 kcal/mol
DOCKED: USER    (4) Unbound System's Energy  [=(2)] =   +2.17 kcal/mol
DOCKED: USER    
DOCKED: USER    
DOCKED: USER    NEWDPF move 2_3_BPG_opt.pdbqt
DOCKED: USER    NEWDPF about 0.015000 0.083000 0.031000
DOCKED: USER    NEWDPF tran0 0.510391 -17.561049 -5.734917
DOCKED: USER    NEWDPF quaternion0 0.407813 -0.201038 -0.400438 -0.795564
DOCKED: USER    NEWDPF axisangle0 0.673103 -0.331817 -0.660931 -74.582913
DOCKED: USER    NEWDPF quat0 0.673103 -0.331817 -0.660931 -74.582913
DOCKED: USER    NEWDPF dihe0 -90.16 -131.49 -93.27 19.51 -10.13 -171.94 
DOCKED: USER  keepresnum = 1 
DOCKED: USER  
DOCKED: REMARK  6 active torsions:
DOCKED: REMARK  status: ('A' for Active; 'I' for Inactive)
DOCKED: REMARK    1  A    between atoms: P_1  and  O_3 
DOCKED: REMARK    2  A    between atoms: P_2  and  O_4 
DOCKED: REMARK    3  A    between atoms: O_3  and  C_13 
DOCKED: REMARK    4  A    between atoms: O_4  and  C_14 
DOCKED: REMARK    5  A    between atoms: C_13  and  C_14 
DOCKED: REMARK    6  A    between atoms: C_13  and  C_15 
DOCKED: USER                              x       y       z     vdW  Elec       q    Type
DOCKED: USER                           _______ _______ _______ _____ _____    ______ ____
DOCKED: ROOT
DOCKED: ATOM      1  C   UNL d   1      -0.048 -17.245  -5.929 -0.19 +0.14    +0.193 C 
DOCKED: ENDROOT
DOCKED: BRANCH   1   2
DOCKED: ATOM      2  O   UNL d   1       0.117 -15.814  -5.653 -0.70 -0.46    -0.356 OA
DOCKED: BRANCH   2   3
DOCKED: ATOM      3  P   UNL d   1      -0.764 -15.005  -4.524 -0.70 -0.01    -0.014 P 
DOCKED: ATOM      4  O   UNL d   1      -0.766 -15.935  -3.301 -0.21 -0.50    -0.577 OA
DOCKED: ATOM      5  O   UNL d   1      -2.170 -14.822  -5.093 -0.68 -0.43    -0.577 OA
DOCKED: ATOM      6  O   UNL d   1      -0.053 -13.689  -4.226 -0.19 -0.74    -0.638 OA
DOCKED: ENDBRANCH   2   3
DOCKED: ENDBRANCH   1   2
DOCKED: BRANCH   1   7
DOCKED: ATOM      7  C   UNL d   1       1.344 -17.957  -5.755 -0.13 +0.18    +0.201 C 
DOCKED: BRANCH   7   8
DOCKED: ATOM      8  O   UNL d   1       2.491 -17.083  -5.656 -0.13 -0.64    -0.364 OA
DOCKED: BRANCH   8   9
DOCKED: ATOM      9  P   UNL d   1       3.980 -17.706  -5.297 -0.10 -0.02    -0.015 P 
DOCKED: ATOM     10  O   UNL d   1       4.597 -18.072  -6.652 +0.01 -0.24    -0.577 OA
DOCKED: ATOM     11  O   UNL d   1       3.749 -18.939  -4.424 -0.09 -0.35    -0.577 OA
DOCKED: ATOM     12  O   UNL d   1       4.769 -16.608  -4.585 -0.57 -0.97    -0.638 OA
DOCKED: ENDBRANCH   8   9
DOCKED: ENDBRANCH   7   8
DOCKED: ENDBRANCH   1   7
DOCKED: BRANCH   1  13
DOCKED: ATOM     13  C   UNL d   1      -0.541 -17.456  -7.409 -0.14 +0.03    +0.073 C 
DOCKED: ATOM     14  O   UNL d   1      -1.362 -16.608  -7.907 -0.11 -0.21    -0.547 OA
DOCKED: ATOM     15  O   UNL d   1      -0.034 -18.441  -8.057 +0.02 -0.12    -0.547 OA
DOCKED: ENDBRANCH   1  13
DOCKED: TORSDOF 6
DOCKED: TER
DOCKED: ENDMDL
________________________________________________________________________________


	BEGINNING GENETIC ALGORITHM DOCKING 22 of 100
Run: 22 Seed: 2025398025 207002591 [ Run 22 of 100 GA/GALS ]
Beginning LAMARCKIAN GENETIC ALGORITHM (LGA), with a maximum of 25000000 energy evaluations.

Final-Value: -5.392


	FINAL GENETIC ALGORITHM DOCKED STATE
	_______________________________________________


Detailed state:  trans -10.540 9.962 -6.256 quatxyzw 0.629411 0.288084 -0.642703 0.328303 center 0.015 0.083 0.031 ntor 6 -173.9890 -8.8485 -105.7732 52.5544 27.8907 52.4052
State:	-10.540   9.962  -6.256   0.666  0.305 -0.680 141.668   -173.99   -8.85 -105.77   52.55   27.89   52.41

DOCKED: MODEL       22
DOCKED: USER    Run = 22
DOCKED: USER    DPF = D:/Protein_go_brrr/autodock/final/mut_K82N/2_3_BPG/dock.dpf
DOCKED: USER  
DOCKED: USER    Estimated Free Energy of Binding    =   -5.58 kcal/mol  [=(1)+(2)+(3)-(4)]
DOCKED: USER    Estimated Inhibition Constant, Ki   =   81.11 uM (micromolar)  [Temperature = 298.15 K]
DOCKED: USER    
DOCKED: USER    (1) Final Intermolecular Energy     =   -7.37 kcal/mol
DOCKED: USER        vdW + Hbond + desolv Energy     =   -3.74 kcal/mol
DOCKED: USER        Electrostatic Energy            =   -3.63 kcal/mol
DOCKED: USER    (2) Final Total Internal Energy     =   +1.98 kcal/mol
DOCKED: USER    (3) Torsional Free Energy           =   +1.79 kcal/mol
DOCKED: USER    (4) Unbound System's Energy  [=(2)] =   +1.98 kcal/mol
DOCKED: USER    
DOCKED: USER    
DOCKED: USER    NEWDPF move 2_3_BPG_opt.pdbqt
DOCKED: USER    NEWDPF about 0.015000 0.083000 0.031000
DOCKED: USER    NEWDPF tran0 -10.540088 9.962433 -6.255998
DOCKED: USER    NEWDPF quaternion0 0.629411 0.288084 -0.642703 0.328303
DOCKED: USER    NEWDPF axisangle0 0.666345 0.304989 -0.680416 141.668442
DOCKED: USER    NEWDPF quat0 0.666345 0.304989 -0.680416 141.668442
DOCKED: USER    NEWDPF dihe0 -173.99 -8.85 -105.77 52.55 27.89 52.41 
DOCKED: USER  keepresnum = 1 
DOCKED: USER  
DOCKED: REMARK  6 active torsions:
DOCKED: REMARK  status: ('A' for Active; 'I' for Inactive)
DOCKED: REMARK    1  A    between atoms: P_1  and  O_3 
DOCKED: REMARK    2  A    between atoms: P_2  and  O_4 
DOCKED: REMARK    3  A    between atoms: O_3  and  C_13 
DOCKED: REMARK    4  A    between atoms: O_4  and  C_14 
DOCKED: REMARK    5  A    between atoms: C_13  and  C_14 
DOCKED: REMARK    6  A    between atoms: C_13  and  C_15 
DOCKED: USER                              x       y       z     vdW  Elec       q    Type
DOCKED: USER                           _______ _______ _______ _____ _____    ______ ____
DOCKED: ROOT
DOCKED: ATOM      1  C   UNL d   1     -10.619   9.700  -5.644 -0.17 +0.06    +0.193 C 
DOCKED: ENDROOT
DOCKED: BRANCH   1   2
DOCKED: ATOM      2  O   UNL d   1     -10.033   8.355  -5.646 -0.71 -0.22    -0.356 OA
DOCKED: BRANCH   2   3
DOCKED: ATOM      3  P   UNL d   1     -10.801   7.035  -6.257 -0.23 -0.01    -0.014 P 
DOCKED: ATOM      4  O   UNL d   1      -9.706   5.961  -6.344 -0.53 -0.92    -0.577 OA
DOCKED: ATOM      5  O   UNL d   1     -11.325   7.417  -7.640 +0.00 -0.38    -0.577 OA
DOCKED: ATOM      6  O   UNL d   1     -11.902   6.636  -5.279 -0.27 -0.90    -0.638 OA
DOCKED: ENDBRANCH   2   3
DOCKED: ENDBRANCH   1   2
DOCKED: BRANCH   1   7
DOCKED: ATOM      7  C   UNL d   1     -10.191  10.438  -6.966 -0.15 +0.05    +0.201 C 
DOCKED: BRANCH   7   8
DOCKED: ATOM      8  O   UNL d   1     -10.028  11.870  -6.863 -0.14 -0.11    -0.364 OA
DOCKED: BRANCH   8   9
DOCKED: ATOM      9  P   UNL d   1     -10.338  12.836  -8.170 -0.39 -0.01    -0.015 P 
DOCKED: ATOM     10  O   UNL d   1     -11.867  12.914  -8.254 +0.01 -0.22    -0.577 OA
DOCKED: ATOM     11  O   UNL d   1      -9.734  12.143  -9.390 -0.07 -0.24    -0.577 OA
DOCKED: ATOM     12  O   UNL d   1      -9.709  14.199  -7.883 -0.39 -0.54    -0.638 OA
DOCKED: ENDBRANCH   8   9
DOCKED: ENDBRANCH   7   8
DOCKED: ENDBRANCH   1   7
DOCKED: BRANCH   1  13
DOCKED: ATOM     13  C   UNL d   1     -10.084  10.520  -4.412 -0.43 +0.02    +0.073 C 
DOCKED: ATOM     14  O   UNL d   1     -10.931  10.961  -3.557 -0.07 -0.13    -0.547 OA
DOCKED: ATOM     15  O   UNL d   1      -8.811  10.645  -4.303 -0.21 -0.10    -0.547 OA
DOCKED: ENDBRANCH   1  13
DOCKED: TORSDOF 6
DOCKED: TER
DOCKED: ENDMDL
________________________________________________________________________________


	BEGINNING GENETIC ALGORITHM DOCKING 23 of 100
Run: 23 Seed: 871273094 1029562294 [ Run 23 of 100 GA/GALS ]
Beginning LAMARCKIAN GENETIC ALGORITHM (LGA), with a maximum of 25000000 energy evaluations.

Final-Value: -5.944


	FINAL GENETIC ALGORITHM DOCKED STATE
	_______________________________________________


Detailed state:  trans -11.640 3.315 -10.450 quatxyzw -0.089148 -0.700235 0.508332 0.493276 center 0.015 0.083 0.031 ntor 6 -161.4677 -55.3629 -122.1056 -13.9661 -3.5549 -16.5661
State:	-11.640   3.315 -10.450  -0.102 -0.805  0.584 120.888   -161.47  -55.36 -122.11  -13.97   -3.55  -16.57

DOCKED: MODEL       23
DOCKED: USER    Run = 23
DOCKED: USER    DPF = D:/Protein_go_brrr/autodock/final/mut_K82N/2_3_BPG/dock.dpf
DOCKED: USER  
DOCKED: USER    Estimated Free Energy of Binding    =   -6.16 kcal/mol  [=(1)+(2)+(3)-(4)]
DOCKED: USER    Estimated Inhibition Constant, Ki   =   30.58 uM (micromolar)  [Temperature = 298.15 K]
DOCKED: USER    
DOCKED: USER    (1) Final Intermolecular Energy     =   -7.95 kcal/mol
DOCKED: USER        vdW + Hbond + desolv Energy     =   -2.69 kcal/mol
DOCKED: USER        Electrostatic Energy            =   -5.26 kcal/mol
DOCKED: USER    (2) Final Total Internal Energy     =   +2.00 kcal/mol
DOCKED: USER    (3) Torsional Free Energy           =   +1.79 kcal/mol
DOCKED: USER    (4) Unbound System's Energy  [=(2)] =   +2.00 kcal/mol
DOCKED: USER    
DOCKED: USER    
DOCKED: USER    NEWDPF move 2_3_BPG_opt.pdbqt
DOCKED: USER    NEWDPF about 0.015000 0.083000 0.031000
DOCKED: USER    NEWDPF tran0 -11.639746 3.315211 -10.450125
DOCKED: USER    NEWDPF quaternion0 -0.089148 -0.700235 0.508332 0.493276
DOCKED: USER    NEWDPF axisangle0 -0.102484 -0.804986 0.584376 120.887684
DOCKED: USER    NEWDPF quat0 -0.102484 -0.804986 0.584376 120.887684
DOCKED: USER    NEWDPF dihe0 -161.47 -55.36 -122.11 -13.97 -3.55 -16.57 
DOCKED: USER  keepresnum = 1 
DOCKED: USER  
DOCKED: REMARK  6 active torsions:
DOCKED: REMARK  status: ('A' for Active; 'I' for Inactive)
DOCKED: REMARK    1  A    between atoms: P_1  and  O_3 
DOCKED: REMARK    2  A    between atoms: P_2  and  O_4 
DOCKED: REMARK    3  A    between atoms: O_3  and  C_13 
DOCKED: REMARK    4  A    between atoms: O_4  and  C_14 
DOCKED: REMARK    5  A    between atoms: C_13  and  C_14 
DOCKED: REMARK    6  A    between atoms: C_13  and  C_15 
DOCKED: USER                              x       y       z     vdW  Elec       q    Type
DOCKED: USER                           _______ _______ _______ _____ _____    ______ ____
DOCKED: ROOT
DOCKED: ATOM      1  C   UNL d   1     -11.488   3.316  -9.797 -0.11 +0.12    +0.193 C 
DOCKED: ENDROOT
DOCKED: BRANCH   1   2
DOCKED: ATOM      2  O   UNL d   1     -10.852   4.598  -9.477 -0.07 -0.25    -0.356 OA
DOCKED: BRANCH   2   3
DOCKED: ATOM      3  P   UNL d   1      -9.667   4.762  -8.348 -0.22 -0.01    -0.014 P 
DOCKED: ATOM      4  O   UNL d   1      -8.470   5.327  -9.128 -0.03 -0.23    -0.577 OA
DOCKED: ATOM      5  O   UNL d   1      -9.371   3.368  -7.798 -0.12 -0.69    -0.577 OA
DOCKED: ATOM      6  O   UNL d   1     -10.158   5.742  -7.288 -0.43 -1.06    -0.638 OA
DOCKED: ENDBRANCH   2   3
DOCKED: ENDBRANCH   1   2
DOCKED: BRANCH   1   7
DOCKED: ATOM      7  C   UNL d   1     -12.110   3.407 -11.239 -0.10 +0.08    +0.201 C 
DOCKED: BRANCH   7   8
DOCKED: ATOM      8  O   UNL d   1     -12.021   2.208 -12.041 -0.07 -0.16    -0.364 OA
DOCKED: BRANCH   8   9
DOCKED: ATOM      9  P   UNL d   1     -12.652   2.184 -13.570 -0.20 -0.01    -0.015 P 
DOCKED: ATOM     10  O   UNL d   1     -11.895   3.278 -14.332 -0.08 -0.46    -0.577 OA
DOCKED: ATOM     11  O   UNL d   1     -14.142   2.504 -13.442 -0.01 -0.34    -0.577 OA
DOCKED: ATOM     12  O   UNL d   1     -12.386   0.794 -14.146 -0.53 -1.16    -0.638 OA
DOCKED: ENDBRANCH   8   9
DOCKED: ENDBRANCH   7   8
DOCKED: ENDBRANCH   1   7
DOCKED: BRANCH   1  13
DOCKED: ATOM     13  C   UNL d   1     -12.641   3.014  -8.769 -0.10 +0.07    +0.073 C 
DOCKED: ATOM     14  O   UNL d   1     -12.456   2.095  -7.896 -0.60 -0.77    -0.547 OA
DOCKED: ATOM     15  O   UNL d   1     -13.685   3.759  -8.829 -0.02 -0.39    -0.547 OA
DOCKED: ENDBRANCH   1  13
DOCKED: TORSDOF 6
DOCKED: TER
DOCKED: ENDMDL
________________________________________________________________________________


	BEGINNING GENETIC ALGORITHM DOCKING 24 of 100
Run: 24 Seed: 2099384452 1089432821 [ Run 24 of 100 GA/GALS ]
Beginning LAMARCKIAN GENETIC ALGORITHM (LGA), with a maximum of 25000000 energy evaluations.

Final-Value: -5.862


	FINAL GENETIC ALGORITHM DOCKED STATE
	_______________________________________________


Detailed state:  trans -12.665 2.378 -12.139 quatxyzw 0.002927 -0.608848 -0.003404 -0.793275 center 0.015 0.083 0.031 ntor 6 107.4315 -89.7241 -179.8376 -1.8695 -6.3750 -14.5265
State:	-12.665   2.378 -12.139   0.005 -1.000 -0.006 -75.015    107.43  -89.72 -179.84   -1.87   -6.38  -14.53

DOCKED: MODEL       24
DOCKED: USER    Run = 24
DOCKED: USER    DPF = D:/Protein_go_brrr/autodock/final/mut_K82N/2_3_BPG/dock.dpf
DOCKED: USER  
DOCKED: USER    Estimated Free Energy of Binding    =   -6.21 kcal/mol  [=(1)+(2)+(3)-(4)]
DOCKED: USER    Estimated Inhibition Constant, Ki   =   28.00 uM (micromolar)  [Temperature = 298.15 K]
DOCKED: USER    
DOCKED: USER    (1) Final Intermolecular Energy     =   -8.00 kcal/mol
DOCKED: USER        vdW + Hbond + desolv Energy     =   -2.65 kcal/mol
DOCKED: USER        Electrostatic Energy            =   -5.35 kcal/mol
DOCKED: USER    (2) Final Total Internal Energy     =   +2.14 kcal/mol
DOCKED: USER    (3) Torsional Free Energy           =   +1.79 kcal/mol
DOCKED: USER    (4) Unbound System's Energy  [=(2)] =   +2.14 kcal/mol
DOCKED: USER    
DOCKED: USER    
DOCKED: USER    NEWDPF move 2_3_BPG_opt.pdbqt
DOCKED: USER    NEWDPF about 0.015000 0.083000 0.031000
DOCKED: USER    NEWDPF tran0 -12.664733 2.377541 -12.139269
DOCKED: USER    NEWDPF quaternion0 0.002927 -0.608848 -0.003404 -0.793275
DOCKED: USER    NEWDPF axisangle0 0.004808 -0.999973 -0.005591 -75.014824
DOCKED: USER    NEWDPF quat0 0.004808 -0.999973 -0.005591 -75.014824
DOCKED: USER    NEWDPF dihe0 107.43 -89.72 -179.84 -1.87 -6.38 -14.53 
DOCKED: USER  keepresnum = 1 
DOCKED: USER  
DOCKED: REMARK  6 active torsions:
DOCKED: REMARK  status: ('A' for Active; 'I' for Inactive)
DOCKED: REMARK    1  A    between atoms: P_1  and  O_3 
DOCKED: REMARK    2  A    between atoms: P_2  and  O_4 
DOCKED: REMARK    3  A    between atoms: O_3  and  C_13 
DOCKED: REMARK    4  A    between atoms: O_4  and  C_14 
DOCKED: REMARK    5  A    between atoms: C_13  and  C_14 
DOCKED: REMARK    6  A    between atoms: C_13  and  C_15 
DOCKED: USER                              x       y       z     vdW  Elec       q    Type
DOCKED: USER                           _______ _______ _______ _____ _____    ______ ____
DOCKED: ROOT
DOCKED: ATOM      1  C   UNL d   1     -12.907   2.071 -12.684 -0.13 +0.11    +0.193 C 
DOCKED: ENDROOT
DOCKED: BRANCH   1   2
DOCKED: ATOM      2  O   UNL d   1     -12.556   2.878 -13.858 -0.13 -0.28    -0.356 OA
DOCKED: BRANCH   2   3
DOCKED: ATOM      3  P   UNL d   1     -13.622   3.242 -15.055 -0.09 -0.01    -0.014 P 
DOCKED: ATOM      4  O   UNL d   1     -14.339   4.507 -14.560 +0.00 -0.23    -0.577 OA
DOCKED: ATOM      5  O   UNL d   1     -14.585   2.062 -15.177 -0.08 -0.71    -0.577 OA
DOCKED: ATOM      6  O   UNL d   1     -12.827   3.511 -16.329 -0.50 -0.92    -0.638 OA
DOCKED: ENDBRANCH   2   3
DOCKED: ENDBRANCH   1   2
DOCKED: BRANCH   1   7
DOCKED: ATOM      7  C   UNL d   1     -12.107   2.611 -11.442 -0.08 +0.08    +0.201 C 
DOCKED: BRANCH   7   8
DOCKED: ATOM      8  O   UNL d   1     -12.798   2.555 -10.174 -0.05 -0.17    -0.364 OA
DOCKED: BRANCH   8   9
DOCKED: ATOM      9  P   UNL d   1     -12.027   3.019  -8.787 -0.10 -0.02    -0.015 P 
DOCKED: ATOM     10  O   UNL d   1     -10.642   3.496  -9.241 -0.03 -0.47    -0.577 OA
DOCKED: ATOM     11  O   UNL d   1     -11.939   1.784  -7.890 -0.58 -0.75    -0.577 OA
DOCKED: ATOM     12  O   UNL d   1     -12.849   4.149  -8.169 -0.01 -0.90    -0.638 OA
DOCKED: ENDBRANCH   8   9
DOCKED: ENDBRANCH   7   8
DOCKED: ENDBRANCH   1   7
DOCKED: BRANCH   1  13
DOCKED: ATOM     13  C   UNL d   1     -12.508   0.567 -12.925 -0.19 +0.05    +0.073 C 
DOCKED: ATOM     14  O   UNL d   1     -12.394  -0.205 -11.909 -0.06 -0.20    -0.547 OA
DOCKED: ATOM     15  O   UNL d   1     -12.381   0.186 -14.144 -0.61 -0.92    -0.547 OA
DOCKED: ENDBRANCH   1  13
DOCKED: TORSDOF 6
DOCKED: TER
DOCKED: ENDMDL
________________________________________________________________________________


	BEGINNING GENETIC ALGORITHM DOCKING 25 of 100
Run: 25 Seed: 729856552 178344951 [ Run 25 of 100 GA/GALS ]
Beginning LAMARCKIAN GENETIC ALGORITHM (LGA), with a maximum of 25000000 energy evaluations.

Final-Value: -6.352


	FINAL GENETIC ALGORITHM DOCKED STATE
	_______________________________________________


Detailed state:  trans 4.438 -15.225 -6.324 quatxyzw -0.726884 -0.606187 -0.093375 0.308962 center 0.015 0.083 0.031 ntor 6 -50.6536 -88.5196 -172.6746 67.2320 44.4729 169.6111
State:	  4.438 -15.225  -6.324  -0.764 -0.637 -0.098 144.007    -50.65  -88.52 -172.67   67.23   44.47  169.61

DOCKED: MODEL       25
DOCKED: USER    Run = 25
DOCKED: USER    DPF = D:/Protein_go_brrr/autodock/final/mut_K82N/2_3_BPG/dock.dpf
DOCKED: USER  
DOCKED: USER    Estimated Free Energy of Binding    =   -6.91 kcal/mol  [=(1)+(2)+(3)-(4)]
DOCKED: USER    Estimated Inhibition Constant, Ki   =    8.56 uM (micromolar)  [Temperature = 298.15 K]
DOCKED: USER    
DOCKED: USER    (1) Final Intermolecular Energy     =   -8.70 kcal/mol
DOCKED: USER        vdW + Hbond + desolv Energy     =   -4.12 kcal/mol
DOCKED: USER        Electrostatic Energy            =   -4.58 kcal/mol
DOCKED: USER    (2) Final Total Internal Energy     =   +2.35 kcal/mol
DOCKED: USER    (3) Torsional Free Energy           =   +1.79 kcal/mol
DOCKED: USER    (4) Unbound System's Energy  [=(2)] =   +2.35 kcal/mol
DOCKED: USER    
DOCKED: USER    
DOCKED: USER    NEWDPF move 2_3_BPG_opt.pdbqt
DOCKED: USER    NEWDPF about 0.015000 0.083000 0.031000
DOCKED: USER    NEWDPF tran0 4.437981 -15.224572 -6.323596
DOCKED: USER    NEWDPF quaternion0 -0.726884 -0.606187 -0.093375 0.308962
DOCKED: USER    NEWDPF axisangle0 -0.764277 -0.637371 -0.098178 144.006669
DOCKED: USER    NEWDPF quat0 -0.764277 -0.637371 -0.098178 144.006669
DOCKED: USER    NEWDPF dihe0 -50.65 -88.52 -172.67 67.23 44.47 169.61 
DOCKED: USER  keepresnum = 1 
DOCKED: USER  
DOCKED: REMARK  6 active torsions:
DOCKED: REMARK  status: ('A' for Active; 'I' for Inactive)
DOCKED: REMARK    1  A    between atoms: P_1  and  O_3 
DOCKED: REMARK    2  A    between atoms: P_2  and  O_4 
DOCKED: REMARK    3  A    between atoms: O_3  and  C_13 
DOCKED: REMARK    4  A    between atoms: O_4  and  C_14 
DOCKED: REMARK    5  A    between atoms: C_13  and  C_14 
DOCKED: REMARK    6  A    between atoms: C_13  and  C_15 
DOCKED: USER                              x       y       z     vdW  Elec       q    Type
DOCKED: USER                           _______ _______ _______ _____ _____    ______ ____
DOCKED: ROOT
DOCKED: ATOM      1  C   UNL d   1       4.083 -15.783  -6.433 -0.02 +0.21    +0.193 C 
DOCKED: ENDROOT
DOCKED: BRANCH   1   2
DOCKED: ATOM      2  O   UNL d   1       4.152 -16.612  -5.224 -0.48 -0.66    -0.356 OA
DOCKED: BRANCH   2   3
DOCKED: ATOM      3  P   UNL d   1       5.547 -17.284  -4.669 -0.25 -0.01    -0.014 P 
DOCKED: ATOM      4  O   UNL d   1       6.164 -16.199  -3.772 -0.13 -0.29    -0.577 OA
DOCKED: ATOM      5  O   UNL d   1       6.424 -17.575  -5.884 +0.02 -0.17    -0.577 OA
DOCKED: ATOM      6  O   UNL d   1       5.183 -18.531  -3.869 -0.42 -0.35    -0.638 OA
DOCKED: ENDBRANCH   2   3
DOCKED: ENDBRANCH   1   2
DOCKED: BRANCH   1   7
DOCKED: ATOM      7  C   UNL d   1       4.656 -14.356  -6.100 -0.11 +0.18    +0.201 C 
DOCKED: BRANCH   7   8
DOCKED: ATOM      8  O   UNL d   1       4.467 -13.902  -4.741 -0.05 -0.54    -0.364 OA
DOCKED: BRANCH   8   9
DOCKED: ATOM      9  P   UNL d   1       3.888 -12.381  -4.447 -0.48 -0.01    -0.015 P 
DOCKED: ATOM     10  O   UNL d   1       3.444 -11.852  -5.816 -0.08 -0.35    -0.577 OA
DOCKED: ATOM     11  O   UNL d   1       5.046 -11.567  -3.869 -0.61 -0.37    -0.577 OA
DOCKED: ATOM     12  O   UNL d   1       2.715 -12.524  -3.478 -0.63 -0.96    -0.638 OA
DOCKED: ENDBRANCH   8   9
DOCKED: ENDBRANCH   7   8
DOCKED: ENDBRANCH   1   7
DOCKED: BRANCH   1  13
DOCKED: ATOM     13  C   UNL d   1       2.587 -15.630  -6.898 -0.11 +0.08    +0.073 C 
DOCKED: ATOM     14  O   UNL d   1       1.667 -16.158  -6.180 -0.36 -0.99    -0.547 OA
DOCKED: ATOM     15  O   UNL d   1       2.373 -14.923  -7.947 -0.42 -0.35    -0.547 OA
DOCKED: ENDBRANCH   1  13
DOCKED: TORSDOF 6
DOCKED: TER
DOCKED: ENDMDL
________________________________________________________________________________


	BEGINNING GENETIC ALGORITHM DOCKING 26 of 100
Run: 26 Seed: 1841285782 833874102 [ Run 26 of 100 GA/GALS ]
Beginning LAMARCKIAN GENETIC ALGORITHM (LGA), with a maximum of 25000000 energy evaluations.

Final-Value: -5.788


	FINAL GENETIC ALGORITHM DOCKED STATE
	_______________________________________________


Detailed state:  trans -12.336 2.725 -10.227 quatxyzw -0.293022 0.753093 -0.084767 -0.582926 center 0.015 0.083 0.031 ntor 6 116.9474 -85.2240 -53.3239 8.9416 -2.9201 -26.0960
State:	-12.336   2.725 -10.227  -0.361  0.927 -0.104 -108.687    116.95  -85.22  -53.32    8.94   -2.92  -26.10

DOCKED: MODEL       26
DOCKED: USER    Run = 26
DOCKED: USER    DPF = D:/Protein_go_brrr/autodock/final/mut_K82N/2_3_BPG/dock.dpf
DOCKED: USER  
DOCKED: USER    Estimated Free Energy of Binding    =   -6.01 kcal/mol  [=(1)+(2)+(3)-(4)]
DOCKED: USER    Estimated Inhibition Constant, Ki   =   39.25 uM (micromolar)  [Temperature = 298.15 K]
DOCKED: USER    
DOCKED: USER    (1) Final Intermolecular Energy     =   -7.80 kcal/mol
DOCKED: USER        vdW + Hbond + desolv Energy     =   -2.26 kcal/mol
DOCKED: USER        Electrostatic Energy            =   -5.54 kcal/mol
DOCKED: USER    (2) Final Total Internal Energy     =   +2.01 kcal/mol
DOCKED: USER    (3) Torsional Free Energy           =   +1.79 kcal/mol
DOCKED: USER    (4) Unbound System's Energy  [=(2)] =   +2.01 kcal/mol
DOCKED: USER    
DOCKED: USER    
DOCKED: USER    NEWDPF move 2_3_BPG_opt.pdbqt
DOCKED: USER    NEWDPF about 0.015000 0.083000 0.031000
DOCKED: USER    NEWDPF tran0 -12.336242 2.724926 -10.226683
DOCKED: USER    NEWDPF quaternion0 -0.293022 0.753093 -0.084767 -0.582926
DOCKED: USER    NEWDPF axisangle0 -0.360631 0.926856 -0.104325 -108.686741
DOCKED: USER    NEWDPF quat0 -0.360631 0.926856 -0.104325 -108.686741
DOCKED: USER    NEWDPF dihe0 116.95 -85.22 -53.32 8.94 -2.92 -26.10 
DOCKED: USER  keepresnum = 1 
DOCKED: USER  
DOCKED: REMARK  6 active torsions:
DOCKED: REMARK  status: ('A' for Active; 'I' for Inactive)
DOCKED: REMARK    1  A    between atoms: P_1  and  O_3 
DOCKED: REMARK    2  A    between atoms: P_2  and  O_4 
DOCKED: REMARK    3  A    between atoms: O_3  and  C_13 
DOCKED: REMARK    4  A    between atoms: O_4  and  C_14 
DOCKED: REMARK    5  A    between atoms: C_13  and  C_14 
DOCKED: REMARK    6  A    between atoms: C_13  and  C_15 
DOCKED: USER                              x       y       z     vdW  Elec       q    Type
DOCKED: USER                           _______ _______ _______ _____ _____    ______ ____
DOCKED: ROOT
DOCKED: ATOM      1  C   UNL d   1     -12.056   2.807  -9.623 -0.12 +0.13    +0.193 C 
DOCKED: ENDROOT
DOCKED: BRANCH   1   2
DOCKED: ATOM      2  O   UNL d   1     -12.770   3.887  -8.931 -0.08 -0.33    -0.356 OA
DOCKED: BRANCH   2   3
DOCKED: ATOM      3  P   UNL d   1     -12.026   5.233  -8.349 +0.01 -0.02    -0.014 P 
DOCKED: ATOM      4  O   UNL d   1     -12.093   6.239  -9.509 +0.01 -0.28    -0.577 OA
DOCKED: ATOM      5  O   UNL d   1     -10.584   4.848  -8.023 -0.08 -1.01    -0.577 OA
DOCKED: ATOM      6  O   UNL d   1     -12.814   5.720  -7.138 -0.13 -1.03    -0.638 OA
DOCKED: ENDBRANCH   2   3
DOCKED: ENDBRANCH   1   2
DOCKED: BRANCH   1   7
DOCKED: ATOM      7  C   UNL d   1     -12.872   2.404 -10.906 -0.08 +0.08    +0.201 C 
DOCKED: BRANCH   7   8
DOCKED: ATOM      8  O   UNL d   1     -12.106   2.266 -12.123 -0.07 -0.17    -0.364 OA
DOCKED: BRANCH   8   9
DOCKED: ATOM      9  P   UNL d   1     -12.860   1.848 -13.535 -0.20 -0.01    -0.015 P 
DOCKED: ATOM     10  O   UNL d   1     -12.402   2.895 -14.557 -0.12 -0.65    -0.577 OA
DOCKED: ATOM     11  O   UNL d   1     -14.365   1.923 -13.276 -0.01 -0.33    -0.577 OA
DOCKED: ATOM     12  O   UNL d   1     -12.385   0.443 -13.902 -0.62 -0.93    -0.638 OA
DOCKED: ENDBRANCH   8   9
DOCKED: ENDBRANCH   7   8
DOCKED: ENDBRANCH   1   7
DOCKED: BRANCH   1  13
DOCKED: ATOM     13  C   UNL d   1     -11.938   1.550  -8.684 -0.17 +0.06    +0.073 C 
DOCKED: ATOM     14  O   UNL d   1     -11.506   0.452  -9.184 -0.02 -0.22    -0.547 OA
DOCKED: ATOM     15  O   UNL d   1     -12.225   1.719  -7.444 -0.59 -0.83    -0.547 OA
DOCKED: ENDBRANCH   1  13
DOCKED: TORSDOF 6
DOCKED: TER
DOCKED: ENDMDL
________________________________________________________________________________


	BEGINNING GENETIC ALGORITHM DOCKING 27 of 100
Run: 27 Seed: 1287620701 1177395947 [ Run 27 of 100 GA/GALS ]
Beginning LAMARCKIAN GENETIC ALGORITHM (LGA), with a maximum of 25000000 energy evaluations.

Final-Value: -5.721


	FINAL GENETIC ALGORITHM DOCKED STATE
	_______________________________________________


Detailed state:  trans -11.838 2.941 -10.103 quatxyzw 0.209095 -0.796834 0.261236 0.503081 center 0.015 0.083 0.031 ntor 6 178.5205 37.2089 -93.0891 -11.8947 11.7766 -26.4549
State:	-11.838   2.941 -10.103   0.242 -0.922  0.302 119.592    178.52   37.21  -93.09  -11.89   11.78  -26.45

DOCKED: MODEL       27
DOCKED: USER    Run = 27
DOCKED: USER    DPF = D:/Protein_go_brrr/autodock/final/mut_K82N/2_3_BPG/dock.dpf
DOCKED: USER  
DOCKED: USER    Estimated Free Energy of Binding    =   -5.94 kcal/mol  [=(1)+(2)+(3)-(4)]
DOCKED: USER    Estimated Inhibition Constant, Ki   =   43.94 uM (micromolar)  [Temperature = 298.15 K]
DOCKED: USER    
DOCKED: USER    (1) Final Intermolecular Energy     =   -7.73 kcal/mol
DOCKED: USER        vdW + Hbond + desolv Energy     =   -2.38 kcal/mol
DOCKED: USER        Electrostatic Energy            =   -5.35 kcal/mol
DOCKED: USER    (2) Final Total Internal Energy     =   +2.01 kcal/mol
DOCKED: USER    (3) Torsional Free Energy           =   +1.79 kcal/mol
DOCKED: USER    (4) Unbound System's Energy  [=(2)] =   +2.01 kcal/mol
DOCKED: USER    
DOCKED: USER    
DOCKED: USER    NEWDPF move 2_3_BPG_opt.pdbqt
DOCKED: USER    NEWDPF about 0.015000 0.083000 0.031000
DOCKED: USER    NEWDPF tran0 -11.838339 2.940995 -10.103488
DOCKED: USER    NEWDPF quaternion0 0.209095 -0.796834 0.261236 0.503081
DOCKED: USER    NEWDPF axisangle0 0.241942 -0.922006 0.302272 119.591904
DOCKED: USER    NEWDPF quat0 0.241942 -0.922006 0.302272 119.591904
DOCKED: USER    NEWDPF dihe0 178.52 37.21 -93.09 -11.89 11.78 -26.45 
DOCKED: USER  keepresnum = 1 
DOCKED: USER  
DOCKED: REMARK  6 active torsions:
DOCKED: REMARK  status: ('A' for Active; 'I' for Inactive)
DOCKED: REMARK    1  A    between atoms: P_1  and  O_3 
DOCKED: REMARK    2  A    between atoms: P_2  and  O_4 
DOCKED: REMARK    3  A    between atoms: O_3  and  C_13 
DOCKED: REMARK    4  A    between atoms: O_4  and  C_14 
DOCKED: REMARK    5  A    between atoms: C_13  and  C_14 
DOCKED: REMARK    6  A    between atoms: C_13  and  C_15 
DOCKED: USER                              x       y       z     vdW  Elec       q    Type
DOCKED: USER                           _______ _______ _______ _____ _____    ______ ____
DOCKED: ROOT
DOCKED: ATOM      1  C   UNL d   1     -11.494   3.029  -9.535 -0.11 +0.14    +0.193 C 
DOCKED: ENDROOT
DOCKED: BRANCH   1   2
DOCKED: ATOM      2  O   UNL d   1     -11.709   4.407  -9.079 -0.06 -0.34    -0.356 OA
DOCKED: BRANCH   2   3
DOCKED: ATOM      3  P   UNL d   1     -10.546   5.305  -8.341 -0.09 -0.02    -0.014 P 
DOCKED: ATOM      4  O   UNL d   1     -11.317   6.188  -7.347 -0.12 -0.83    -0.577 OA
DOCKED: ATOM      5  O   UNL d   1      -9.865   6.140  -9.424 +0.01 -0.26    -0.577 OA
DOCKED: ATOM      6  O   UNL d   1      -9.597   4.351  -7.623 -0.24 -1.08    -0.638 OA
DOCKED: ENDBRANCH   2   3
DOCKED: ENDBRANCH   1   2
DOCKED: BRANCH   1   7
DOCKED: ATOM      7  C   UNL d   1     -12.513   2.715 -10.692 -0.09 +0.09    +0.201 C 
DOCKED: BRANCH   7   8
DOCKED: ATOM      8  O   UNL d   1     -11.959   2.081 -11.866 -0.07 -0.16    -0.364 OA
DOCKED: BRANCH   8   9
DOCKED: ATOM      9  P   UNL d   1     -12.830   2.034 -13.272 -0.22 -0.01    -0.015 P 
DOCKED: ATOM     10  O   UNL d   1     -12.457   3.323 -14.014 -0.06 -0.41    -0.577 OA
DOCKED: ATOM     11  O   UNL d   1     -14.307   2.006 -12.881 +0.00 -0.28    -0.577 OA
DOCKED: ATOM     12  O   UNL d   1     -12.389   0.785 -14.033 -0.56 -1.06    -0.638 OA
DOCKED: ENDBRANCH   8   9
DOCKED: ENDBRANCH   7   8
DOCKED: ENDBRANCH   1   7
DOCKED: BRANCH   1  13
DOCKED: ATOM     13  C   UNL d   1     -11.748   2.022  -8.352 -0.08 +0.08    +0.073 C 
DOCKED: ATOM     14  O   UNL d   1     -10.841   1.160  -8.078 -0.13 -0.42    -0.547 OA
DOCKED: ATOM     15  O   UNL d   1     -12.835   2.170  -7.685 -0.57 -0.79    -0.547 OA
DOCKED: ENDBRANCH   1  13
DOCKED: TORSDOF 6
DOCKED: TER
DOCKED: ENDMDL
________________________________________________________________________________


	BEGINNING GENETIC ALGORITHM DOCKING 28 of 100
Run: 28 Seed: 1703402125 581417932 [ Run 28 of 100 GA/GALS ]
Beginning LAMARCKIAN GENETIC ALGORITHM (LGA), with a maximum of 25000000 energy evaluations.

Final-Value: -6.327


	FINAL GENETIC ALGORITHM DOCKED STATE
	_______________________________________________


Detailed state:  trans 3.080 -13.352 -6.896 quatxyzw 0.688548 0.170661 0.658011 -0.252583 center 0.015 0.083 0.031 ntor 6 174.4625 152.6942 0.8517 97.6725 43.5904 2.9865
State:	  3.080 -13.352  -6.896   0.712  0.176  0.680 -150.739    174.46  152.69    0.85   97.67   43.59    2.99

DOCKED: MODEL       28
DOCKED: USER    Run = 28
DOCKED: USER    DPF = D:/Protein_go_brrr/autodock/final/mut_K82N/2_3_BPG/dock.dpf
DOCKED: USER  
DOCKED: USER    Estimated Free Energy of Binding    =   -6.78 kcal/mol  [=(1)+(2)+(3)-(4)]
DOCKED: USER    Estimated Inhibition Constant, Ki   =   10.80 uM (micromolar)  [Temperature = 298.15 K]
DOCKED: USER    
DOCKED: USER    (1) Final Intermolecular Energy     =   -8.57 kcal/mol
DOCKED: USER        vdW + Hbond + desolv Energy     =   -4.21 kcal/mol
DOCKED: USER        Electrostatic Energy            =   -4.36 kcal/mol
DOCKED: USER    (2) Final Total Internal Energy     =   +2.24 kcal/mol
DOCKED: USER    (3) Torsional Free Energy           =   +1.79 kcal/mol
DOCKED: USER    (4) Unbound System's Energy  [=(2)] =   +2.24 kcal/mol
DOCKED: USER    
DOCKED: USER    
DOCKED: USER    NEWDPF move 2_3_BPG_opt.pdbqt
DOCKED: USER    NEWDPF about 0.015000 0.083000 0.031000
DOCKED: USER    NEWDPF tran0 3.079766 -13.351810 -6.896044
DOCKED: USER    NEWDPF quaternion0 0.688548 0.170661 0.658011 -0.252583
DOCKED: USER    NEWDPF axisangle0 0.711622 0.176381 0.680061 -150.739153
DOCKED: USER    NEWDPF quat0 0.711622 0.176381 0.680061 -150.739153
DOCKED: USER    NEWDPF dihe0 174.46 152.69 0.85 97.67 43.59 2.99 
DOCKED: USER  keepresnum = 1 
DOCKED: USER  
DOCKED: REMARK  6 active torsions:
DOCKED: REMARK  status: ('A' for Active; 'I' for Inactive)
DOCKED: REMARK    1  A    between atoms: P_1  and  O_3 
DOCKED: REMARK    2  A    between atoms: P_2  and  O_4 
DOCKED: REMARK    3  A    between atoms: O_3  and  C_13 
DOCKED: REMARK    4  A    between atoms: O_4  and  C_14 
DOCKED: REMARK    5  A    between atoms: C_13  and  C_14 
DOCKED: REMARK    6  A    between atoms: C_13  and  C_15 
DOCKED: USER                              x       y       z     vdW  Elec       q    Type
DOCKED: USER                           _______ _______ _______ _____ _____    ______ ____
DOCKED: ROOT
DOCKED: ATOM      1  C   UNL d   1       3.158 -13.442  -7.556 -0.19 +0.10    +0.193 C 
DOCKED: ENDROOT
DOCKED: BRANCH   1   2
DOCKED: ATOM      2  O   UNL d   1       2.363 -14.608  -7.956 -0.57 -0.23    -0.356 OA
DOCKED: BRANCH   2   3
DOCKED: ATOM      3  P   UNL d   1       2.147 -15.926  -6.996 -0.21 -0.01    -0.014 P 
DOCKED: ATOM      4  O   UNL d   1       3.444 -16.019  -6.177 -0.05 -0.91    -0.577 OA
DOCKED: ATOM      5  O   UNL d   1       1.976 -17.133  -7.916 +0.01 -0.26    -0.577 OA
DOCKED: ATOM      6  O   UNL d   1       0.938 -15.666  -6.103 -0.49 -1.02    -0.638 OA
DOCKED: ENDBRANCH   2   3
DOCKED: ENDBRANCH   1   2
DOCKED: BRANCH   1   7
DOCKED: ATOM      7  C   UNL d   1       2.763 -13.041  -6.087 -0.26 +0.19    +0.201 C 
DOCKED: BRANCH   7   8
DOCKED: ATOM      8  O   UNL d   1       3.698 -12.185  -5.394 -0.29 -0.28    -0.364 OA
DOCKED: BRANCH   8   9
DOCKED: ATOM      9  P   UNL d   1       4.151 -12.535  -3.842 -0.50 -0.01    -0.015 P 
DOCKED: ATOM     10  O   UNL d   1       5.071 -11.382  -3.425 -0.47 -0.32    -0.577 OA
DOCKED: ATOM     11  O   UNL d   1       4.893 -13.871  -3.885 +0.01 -0.64    -0.577 OA
DOCKED: ATOM     12  O   UNL d   1       2.876 -12.585  -3.000 -0.53 -0.88    -0.638 OA
DOCKED: ENDBRANCH   8   9
DOCKED: ENDBRANCH   7   8
DOCKED: ENDBRANCH   1   7
DOCKED: BRANCH   1  13
DOCKED: ATOM     13  C   UNL d   1       2.852 -12.227  -8.509 -0.37 +0.01    +0.073 C 
DOCKED: ATOM     14  O   UNL d   1       3.838 -11.577  -9.007 -0.07 -0.05    -0.547 OA
DOCKED: ATOM     15  O   UNL d   1       1.619 -11.998  -8.784 -0.22 -0.04    -0.547 OA
DOCKED: ENDBRANCH   1  13
DOCKED: TORSDOF 6
DOCKED: TER
DOCKED: ENDMDL
________________________________________________________________________________


	BEGINNING GENETIC ALGORITHM DOCKING 29 of 100
Run: 29 Seed: 1107971557 1052429813 [ Run 29 of 100 GA/GALS ]
Beginning LAMARCKIAN GENETIC ALGORITHM (LGA), with a maximum of 25000000 energy evaluations.

Final-Value: -5.945


	FINAL GENETIC ALGORITHM DOCKED STATE
	_______________________________________________


Detailed state:  trans 3.622 -14.057 -6.516 quatxyzw 0.538250 -0.267059 -0.531506 -0.597050 center 0.015 0.083 0.031 ntor 6 141.8229 -9.6487 -134.6525 84.3600 -126.0528 -43.9408
State:	  3.622 -14.057  -6.516   0.671 -0.333 -0.663 -106.682    141.82   -9.65 -134.65   84.36 -126.05  -43.94

DOCKED: MODEL       29
DOCKED: USER    Run = 29
DOCKED: USER    DPF = D:/Protein_go_brrr/autodock/final/mut_K82N/2_3_BPG/dock.dpf
DOCKED: USER  
DOCKED: USER    Estimated Free Energy of Binding    =   -6.69 kcal/mol  [=(1)+(2)+(3)-(4)]
DOCKED: USER    Estimated Inhibition Constant, Ki   =   12.58 uM (micromolar)  [Temperature = 298.15 K]
DOCKED: USER    
DOCKED: USER    (1) Final Intermolecular Energy     =   -8.48 kcal/mol
DOCKED: USER        vdW + Hbond + desolv Energy     =   -3.79 kcal/mol
DOCKED: USER        Electrostatic Energy            =   -4.68 kcal/mol
DOCKED: USER    (2) Final Total Internal Energy     =   +2.53 kcal/mol
DOCKED: USER    (3) Torsional Free Energy           =   +1.79 kcal/mol
DOCKED: USER    (4) Unbound System's Energy  [=(2)] =   +2.53 kcal/mol
DOCKED: USER    
DOCKED: USER    
DOCKED: USER    NEWDPF move 2_3_BPG_opt.pdbqt
DOCKED: USER    NEWDPF about 0.015000 0.083000 0.031000
DOCKED: USER    NEWDPF tran0 3.621912 -14.057460 -6.515574
DOCKED: USER    NEWDPF quaternion0 0.538250 -0.267059 -0.531506 -0.597050
DOCKED: USER    NEWDPF axisangle0 0.670963 -0.332906 -0.662557 -106.682242
DOCKED: USER    NEWDPF quat0 0.670963 -0.332906 -0.662557 -106.682242
DOCKED: USER    NEWDPF dihe0 141.82 -9.65 -134.65 84.36 -126.05 -43.94 
DOCKED: USER  keepresnum = 1 
DOCKED: USER  
DOCKED: REMARK  6 active torsions:
DOCKED: REMARK  status: ('A' for Active; 'I' for Inactive)
DOCKED: REMARK    1  A    between atoms: P_1  and  O_3 
DOCKED: REMARK    2  A    between atoms: P_2  and  O_4 
DOCKED: REMARK    3  A    between atoms: O_3  and  C_13 
DOCKED: REMARK    4  A    between atoms: O_4  and  C_14 
DOCKED: REMARK    5  A    between atoms: C_13  and  C_14 
DOCKED: REMARK    6  A    between atoms: C_13  and  C_15 
DOCKED: USER                              x       y       z     vdW  Elec       q    Type
DOCKED: USER                           _______ _______ _______ _____ _____    ______ ____
DOCKED: ROOT
DOCKED: ATOM      1  C   UNL d   1       3.259 -13.505  -6.630 -0.21 +0.16    +0.193 C 
DOCKED: ENDROOT
DOCKED: BRANCH   1   2
DOCKED: ATOM      2  O   UNL d   1       3.802 -12.422  -5.804 -0.22 -0.26    -0.356 OA
DOCKED: BRANCH   2   3
DOCKED: ATOM      3  P   UNL d   1       4.137 -12.589  -4.202 -0.47 -0.01    -0.014 P 
DOCKED: ATOM      4  O   UNL d   1       4.989 -11.357  -3.859 -0.55 -0.37    -0.577 OA
DOCKED: ATOM      5  O   UNL d   1       4.930 -13.884  -4.038 -0.02 -0.63    -0.577 OA
DOCKED: ATOM      6  O   UNL d   1       2.815 -12.585  -3.442 -0.62 -1.00    -0.638 OA
DOCKED: ENDBRANCH   2   3
DOCKED: ENDBRANCH   1   2
DOCKED: BRANCH   1   7
DOCKED: ATOM      7  C   UNL d   1       4.263 -14.716  -6.598 -0.09 +0.17    +0.201 C 
DOCKED: BRANCH   7   8
DOCKED: ATOM      8  O   UNL d   1       3.770 -15.928  -5.987 -0.13 -0.61    -0.364 OA
DOCKED: BRANCH   8   9
DOCKED: ATOM      9  P   UNL d   1       2.392 -16.645  -6.558 -0.09 -0.02    -0.015 P 
DOCKED: ATOM     10  O   UNL d   1       2.569 -16.693  -8.080 +0.01 -0.27    -0.577 OA
DOCKED: ATOM     11  O   UNL d   1       1.222 -15.751  -6.147 -0.43 -1.01    -0.577 OA
DOCKED: ATOM     12  O   UNL d   1       2.322 -18.042  -5.943 -0.05 -0.55    -0.638 OA
DOCKED: ENDBRANCH   8   9
DOCKED: ENDBRANCH   7   8
DOCKED: ENDBRANCH   1   7
DOCKED: BRANCH   1  13
DOCKED: ATOM     13  C   UNL d   1       3.101 -13.021  -8.120 -0.27 +0.02    +0.073 C 
DOCKED: ATOM     14  O   UNL d   1       2.373 -13.713  -8.914 -0.59 -0.22    -0.547 OA
DOCKED: ATOM     15  O   UNL d   1       3.668 -11.913  -8.435 -0.07 -0.10    -0.547 OA
DOCKED: ENDBRANCH   1  13
DOCKED: TORSDOF 6
DOCKED: TER
DOCKED: ENDMDL
________________________________________________________________________________


	BEGINNING GENETIC ALGORITHM DOCKING 30 of 100
Run: 30 Seed: 969090365 1221509166 [ Run 30 of 100 GA/GALS ]
Beginning LAMARCKIAN GENETIC ALGORITHM (LGA), with a maximum of 25000000 energy evaluations.

Final-Value: -6.199


	FINAL GENETIC ALGORITHM DOCKED STATE
	_______________________________________________


Detailed state:  trans 0.580 -16.348 -6.670 quatxyzw -0.025260 0.987290 0.142822 0.064979 center 0.015 0.083 0.031 ntor 6 165.3472 -66.4389 88.7979 42.5644 -29.6504 179.2872
State:	  0.580 -16.348  -6.670  -0.025  0.989  0.143 172.549    165.35  -66.44   88.80   42.56  -29.65  179.29

DOCKED: MODEL       30
DOCKED: USER    Run = 30
DOCKED: USER    DPF = D:/Protein_go_brrr/autodock/final/mut_K82N/2_3_BPG/dock.dpf
DOCKED: USER  
DOCKED: USER    Estimated Free Energy of Binding    =   -6.73 kcal/mol  [=(1)+(2)+(3)-(4)]
DOCKED: USER    Estimated Inhibition Constant, Ki   =   11.75 uM (micromolar)  [Temperature = 298.15 K]
DOCKED: USER    
DOCKED: USER    (1) Final Intermolecular Energy     =   -8.52 kcal/mol
DOCKED: USER        vdW + Hbond + desolv Energy     =   -4.20 kcal/mol
DOCKED: USER        Electrostatic Energy            =   -4.31 kcal/mol
DOCKED: USER    (2) Final Total Internal Energy     =   +2.32 kcal/mol
DOCKED: USER    (3) Torsional Free Energy           =   +1.79 kcal/mol
DOCKED: USER    (4) Unbound System's Energy  [=(2)] =   +2.32 kcal/mol
DOCKED: USER    
DOCKED: USER    
DOCKED: USER    NEWDPF move 2_3_BPG_opt.pdbqt
DOCKED: USER    NEWDPF about 0.015000 0.083000 0.031000
DOCKED: USER    NEWDPF tran0 0.580142 -16.348474 -6.670400
DOCKED: USER    NEWDPF quaternion0 -0.025260 0.987290 0.142822 0.064979
DOCKED: USER    NEWDPF axisangle0 -0.025313 0.989381 0.143124 172.548668
DOCKED: USER    NEWDPF quat0 -0.025313 0.989381 0.143124 172.548668
DOCKED: USER    NEWDPF dihe0 165.35 -66.44 88.80 42.56 -29.65 179.29 
DOCKED: USER  keepresnum = 1 
DOCKED: USER  
DOCKED: REMARK  6 active torsions:
DOCKED: REMARK  status: ('A' for Active; 'I' for Inactive)
DOCKED: REMARK    1  A    between atoms: P_1  and  O_3 
DOCKED: REMARK    2  A    between atoms: P_2  and  O_4 
DOCKED: REMARK    3  A    between atoms: O_3  and  C_13 
DOCKED: REMARK    4  A    between atoms: O_4  and  C_14 
DOCKED: REMARK    5  A    between atoms: C_13  and  C_14 
DOCKED: REMARK    6  A    between atoms: C_13  and  C_15 
DOCKED: USER                              x       y       z     vdW  Elec       q    Type
DOCKED: USER                           _______ _______ _______ _____ _____    ______ ____
DOCKED: ROOT
DOCKED: ATOM      1  C   UNL d   1       1.158 -16.581  -6.919 -0.14 +0.16    +0.193 C 
DOCKED: ENDROOT
DOCKED: BRANCH   1   2
DOCKED: ATOM      2  O   UNL d   1       2.260 -15.924  -6.207 -0.05 -0.69    -0.356 OA
DOCKED: BRANCH   2   3
DOCKED: ATOM      3  P   UNL d   1       2.938 -14.510  -6.701 -0.16 -0.02    -0.014 P 
DOCKED: ATOM      4  O   UNL d   1       2.482 -13.480  -5.656 -0.05 -0.90    -0.577 OA
DOCKED: ATOM      5  O   UNL d   1       2.371 -14.196  -8.084 -0.56 -0.35    -0.577 OA
DOCKED: ATOM      6  O   UNL d   1       4.453 -14.685  -6.691 +0.03 -0.48    -0.638 OA
DOCKED: ENDBRANCH   2   3
DOCKED: ENDBRANCH   1   2
DOCKED: BRANCH   1   7
DOCKED: ATOM      7  C   UNL d   1      -0.187 -16.273  -6.162 -0.20 +0.16    +0.201 C 
DOCKED: BRANCH   7   8
DOCKED: ATOM      8  O   UNL d   1      -0.056 -15.882  -4.778 -0.47 -0.57    -0.364 OA
DOCKED: BRANCH   8   9
DOCKED: ATOM      9  P   UNL d   1      -1.212 -14.932  -4.071 -0.70 -0.01    -0.015 P 
DOCKED: ATOM     10  O   UNL d   1      -0.760 -13.491  -4.336 -0.42 -0.49    -0.577 OA
DOCKED: ATOM     11  O   UNL d   1      -1.212 -15.266  -2.580 -0.69 -0.37    -0.577 OA
DOCKED: ATOM     12  O   UNL d   1      -2.540 -15.253  -4.756 -0.66 -0.33    -0.638 OA
DOCKED: ENDBRANCH   8   9
DOCKED: ENDBRANCH   7   8
DOCKED: ENDBRANCH   1   7
DOCKED: BRANCH   1  13
DOCKED: ATOM     13  C   UNL d   1       1.380 -18.140  -6.937 -0.10 +0.04    +0.073 C 
DOCKED: ATOM     14  O   UNL d   1       1.081 -18.787  -8.001 +0.02 -0.13    -0.547 OA
DOCKED: ATOM     15  O   UNL d   1       1.914 -18.664  -5.894 -0.05 -0.33    -0.547 OA
DOCKED: ENDBRANCH   1  13
DOCKED: TORSDOF 6
DOCKED: TER
DOCKED: ENDMDL
________________________________________________________________________________


	BEGINNING GENETIC ALGORITHM DOCKING 31 of 100
Run: 31 Seed: 579390415 1740506413 [ Run 31 of 100 GA/GALS ]
Beginning LAMARCKIAN GENETIC ALGORITHM (LGA), with a maximum of 25000000 energy evaluations.

Final-Value: -5.850


	FINAL GENETIC ALGORITHM DOCKED STATE
	_______________________________________________


Detailed state:  trans -12.040 3.086 -10.707 quatxyzw -0.095213 -0.779661 0.376882 0.490940 center 0.015 0.083 0.031 ntor 6 87.7178 -83.8926 -60.2353 -3.3072 -46.5042 -45.5106
State:	-12.040   3.086 -10.707  -0.109 -0.895  0.433 121.195     87.72  -83.89  -60.24   -3.31  -46.50  -45.51

DOCKED: MODEL       31
DOCKED: USER    Run = 31
DOCKED: USER    DPF = D:/Protein_go_brrr/autodock/final/mut_K82N/2_3_BPG/dock.dpf
DOCKED: USER  
DOCKED: USER    Estimated Free Energy of Binding    =   -6.26 kcal/mol  [=(1)+(2)+(3)-(4)]
DOCKED: USER    Estimated Inhibition Constant, Ki   =   25.89 uM (micromolar)  [Temperature = 298.15 K]
DOCKED: USER    
DOCKED: USER    (1) Final Intermolecular Energy     =   -8.05 kcal/mol
DOCKED: USER        vdW + Hbond + desolv Energy     =   -2.55 kcal/mol
DOCKED: USER        Electrostatic Energy            =   -5.50 kcal/mol
DOCKED: USER    (2) Final Total Internal Energy     =   +2.20 kcal/mol
DOCKED: USER    (3) Torsional Free Energy           =   +1.79 kcal/mol
DOCKED: USER    (4) Unbound System's Energy  [=(2)] =   +2.20 kcal/mol
DOCKED: USER    
DOCKED: USER    
DOCKED: USER    NEWDPF move 2_3_BPG_opt.pdbqt
DOCKED: USER    NEWDPF about 0.015000 0.083000 0.031000
DOCKED: USER    NEWDPF tran0 -12.039974 3.085877 -10.707275
DOCKED: USER    NEWDPF quaternion0 -0.095213 -0.779661 0.376882 0.490940
DOCKED: USER    NEWDPF axisangle0 -0.109290 -0.894935 0.432605 121.195192
DOCKED: USER    NEWDPF quat0 -0.109290 -0.894935 0.432605 121.195192
DOCKED: USER    NEWDPF dihe0 87.72 -83.89 -60.24 -3.31 -46.50 -45.51 
DOCKED: USER  keepresnum = 1 
DOCKED: USER  
DOCKED: REMARK  6 active torsions:
DOCKED: REMARK  status: ('A' for Active; 'I' for Inactive)
DOCKED: REMARK    1  A    between atoms: P_1  and  O_3 
DOCKED: REMARK    2  A    between atoms: P_2  and  O_4 
DOCKED: REMARK    3  A    between atoms: O_3  and  C_13 
DOCKED: REMARK    4  A    between atoms: O_4  and  C_14 
DOCKED: REMARK    5  A    between atoms: C_13  and  C_14 
DOCKED: REMARK    6  A    between atoms: C_13  and  C_15 
DOCKED: USER                              x       y       z     vdW  Elec       q    Type
DOCKED: USER                           _______ _______ _______ _____ _____    ______ ____
DOCKED: ROOT
DOCKED: ATOM      1  C   UNL d   1     -11.844   2.935 -10.084 -0.09 +0.10    +0.193 C 
DOCKED: ENDROOT
DOCKED: BRANCH   1   2
DOCKED: ATOM      2  O   UNL d   1     -11.352   4.162  -9.449 -0.07 -0.27    -0.356 OA
DOCKED: BRANCH   2   3
DOCKED: ATOM      3  P   UNL d   1      -9.970   4.227  -8.560 -0.15 -0.01    -0.014 P 
DOCKED: ATOM      4  O   UNL d   1      -8.881   4.618  -9.571 -0.04 -0.24    -0.577 OA
DOCKED: ATOM      5  O   UNL d   1      -9.732   2.829  -7.991 -0.05 -0.66    -0.577 OA
DOCKED: ATOM      6  O   UNL d   1     -10.149   5.297  -7.488 -0.34 -1.21    -0.638 OA
DOCKED: ENDBRANCH   2   3
DOCKED: ENDBRANCH   1   2
DOCKED: BRANCH   1   7
DOCKED: ATOM      7  C   UNL d   1     -12.571   3.317 -11.426 -0.09 +0.08    +0.201 C 
DOCKED: BRANCH   7   8
DOCKED: ATOM      8  O   UNL d   1     -11.940   2.852 -12.639 -0.08 -0.17    -0.364 OA
DOCKED: BRANCH   8   9
DOCKED: ATOM      9  P   UNL d   1     -12.855   2.196 -13.851 -0.17 -0.02    -0.015 P 
DOCKED: ATOM     10  O   UNL d   1     -12.570   3.066 -15.082 -0.20 -0.76    -0.577 OA
DOCKED: ATOM     11  O   UNL d   1     -14.315   2.292 -13.410 -0.01 -0.34    -0.577 OA
DOCKED: ATOM     12  O   UNL d   1     -12.382   0.756 -14.045 -0.56 -1.07    -0.638 OA
DOCKED: ENDBRANCH   8   9
DOCKED: ENDBRANCH   7   8
DOCKED: ENDBRANCH   1   7
DOCKED: BRANCH   1  13
DOCKED: ATOM     13  C   UNL d   1     -12.877   2.215  -9.139 -0.11 +0.05    +0.073 C 
DOCKED: ATOM     14  O   UNL d   1     -13.905   1.661  -9.665 +0.01 -0.21    -0.547 OA
DOCKED: ATOM     15  O   UNL d   1     -12.589   2.171  -7.888 -0.59 -0.77    -0.547 OA
DOCKED: ENDBRANCH   1  13
DOCKED: TORSDOF 6
DOCKED: TER
DOCKED: ENDMDL
________________________________________________________________________________


	BEGINNING GENETIC ALGORITHM DOCKING 32 of 100
Run: 32 Seed: 234050617 1116686645 [ Run 32 of 100 GA/GALS ]
Beginning LAMARCKIAN GENETIC ALGORITHM (LGA), with a maximum of 25000000 energy evaluations.

Final-Value: -5.774


	FINAL GENETIC ALGORITHM DOCKED STATE
	_______________________________________________


Detailed state:  trans -12.920 2.206 -12.130 quatxyzw -0.061270 0.586739 -0.032070 0.806818 center 0.015 0.083 0.031 ntor 6 133.8516 25.8739 -97.6942 -8.9496 7.6208 -0.1815
State:	-12.920   2.206 -12.130  -0.104  0.993 -0.054 72.428    133.85   25.87  -97.69   -8.95    7.62   -0.18

DOCKED: MODEL       32
DOCKED: USER    Run = 32
DOCKED: USER    DPF = D:/Protein_go_brrr/autodock/final/mut_K82N/2_3_BPG/dock.dpf
DOCKED: USER  
DOCKED: USER    Estimated Free Energy of Binding    =   -6.13 kcal/mol  [=(1)+(2)+(3)-(4)]
DOCKED: USER    Estimated Inhibition Constant, Ki   =   32.06 uM (micromolar)  [Temperature = 298.15 K]
DOCKED: USER    
DOCKED: USER    (1) Final Intermolecular Energy     =   -7.92 kcal/mol
DOCKED: USER        vdW + Hbond + desolv Energy     =   -2.67 kcal/mol
DOCKED: USER        Electrostatic Energy            =   -5.25 kcal/mol
DOCKED: USER    (2) Final Total Internal Energy     =   +2.15 kcal/mol
DOCKED: USER    (3) Torsional Free Energy           =   +1.79 kcal/mol
DOCKED: USER    (4) Unbound System's Energy  [=(2)] =   +2.15 kcal/mol
DOCKED: USER    
DOCKED: USER    
DOCKED: USER    NEWDPF move 2_3_BPG_opt.pdbqt
DOCKED: USER    NEWDPF about 0.015000 0.083000 0.031000
DOCKED: USER    NEWDPF tran0 -12.920272 2.205518 -12.130088
DOCKED: USER    NEWDPF quaternion0 -0.061270 0.586739 -0.032070 0.806818
DOCKED: USER    NEWDPF axisangle0 -0.103707 0.993125 -0.054283 72.427665
DOCKED: USER    NEWDPF quat0 -0.103707 0.993125 -0.054283 72.427665
DOCKED: USER    NEWDPF dihe0 133.85 25.87 -97.69 -8.95 7.62 -0.18 
DOCKED: USER  keepresnum = 1 
DOCKED: USER  
DOCKED: REMARK  6 active torsions:
DOCKED: REMARK  status: ('A' for Active; 'I' for Inactive)
DOCKED: REMARK    1  A    between atoms: P_1  and  O_3 
DOCKED: REMARK    2  A    between atoms: P_2  and  O_4 
DOCKED: REMARK    3  A    between atoms: O_3  and  C_13 
DOCKED: REMARK    4  A    between atoms: O_4  and  C_14 
DOCKED: REMARK    5  A    between atoms: C_13  and  C_14 
DOCKED: REMARK    6  A    between atoms: C_13  and  C_15 
DOCKED: USER                              x       y       z     vdW  Elec       q    Type
DOCKED: USER                           _______ _______ _______ _____ _____    ______ ____
DOCKED: ROOT
DOCKED: ATOM      1  C   UNL d   1     -13.151   1.896 -12.678 -0.12 +0.11    +0.193 C 
DOCKED: ENDROOT
DOCKED: BRANCH   1   2
DOCKED: ATOM      2  O   UNL d   1     -12.968   2.795 -13.823 -0.12 -0.28    -0.356 OA
DOCKED: BRANCH   2   3
DOCKED: ATOM      3  P   UNL d   1     -14.067   2.945 -15.037 -0.07 -0.01    -0.014 P 
DOCKED: ATOM      4  O   UNL d   1     -13.258   3.504 -16.218 -0.57 -0.78    -0.577 OA
DOCKED: ATOM      5  O   UNL d   1     -15.130   3.935 -14.565 +0.01 -0.24    -0.577 OA
DOCKED: ATOM      6  O   UNL d   1     -14.622   1.558 -15.345 +0.02 -0.94    -0.638 OA
DOCKED: ENDBRANCH   2   3
DOCKED: ENDBRANCH   1   2
DOCKED: BRANCH   1   7
DOCKED: ATOM      7  C   UNL d   1     -12.360   2.477 -11.448 -0.10 +0.08    +0.201 C 
DOCKED: BRANCH   7   8
DOCKED: ATOM      8  O   UNL d   1     -12.782   2.008 -10.149 -0.05 -0.16    -0.364 OA
DOCKED: BRANCH   8   9
DOCKED: ATOM      9  P   UNL d   1     -12.212   2.738  -8.778 -0.13 -0.02    -0.015 P 
DOCKED: ATOM     10  O   UNL d   1     -13.133   3.944  -8.556 -0.06 -0.59    -0.577 OA
DOCKED: ATOM     11  O   UNL d   1     -10.773   3.164  -9.065 -0.04 -0.52    -0.577 OA
DOCKED: ATOM     12  O   UNL d   1     -12.320   1.718  -7.645 -0.60 -0.86    -0.638 OA
DOCKED: ENDBRANCH   8   9
DOCKED: ENDBRANCH   7   8
DOCKED: ENDBRANCH   1   7
DOCKED: BRANCH   1  13
DOCKED: ATOM     13  C   UNL d   1     -12.579   0.468 -13.016 -0.20 +0.05    +0.073 C 
DOCKED: ATOM     14  O   UNL d   1     -12.785  -0.485 -12.186 -0.04 -0.21    -0.547 OA
DOCKED: ATOM     15  O   UNL d   1     -11.988   0.331 -14.148 -0.60 -0.90    -0.547 OA
DOCKED: ENDBRANCH   1  13
DOCKED: TORSDOF 6
DOCKED: TER
DOCKED: ENDMDL
________________________________________________________________________________


	BEGINNING GENETIC ALGORITHM DOCKING 33 of 100
Run: 33 Seed: 15626376 1238168044 [ Run 33 of 100 GA/GALS ]
Beginning LAMARCKIAN GENETIC ALGORITHM (LGA), with a maximum of 25000000 energy evaluations.

Final-Value: -5.680


	FINAL GENETIC ALGORITHM DOCKED STATE
	_______________________________________________


Detailed state:  trans -12.666 1.710 -11.739 quatxyzw -0.096284 0.571192 -0.002165 0.815147 center 0.015 0.083 0.031 ntor 6 -61.0661 -82.0669 -3.0191 -14.8384 -19.5096 -86.6152
State:	-12.666   1.710 -11.739  -0.166  0.986 -0.004 70.796    -61.07  -82.07   -3.02  -14.84  -19.51  -86.62

DOCKED: MODEL       33
DOCKED: USER    Run = 33
DOCKED: USER    DPF = D:/Protein_go_brrr/autodock/final/mut_K82N/2_3_BPG/dock.dpf
DOCKED: USER  
DOCKED: USER    Estimated Free Energy of Binding    =   -6.07 kcal/mol  [=(1)+(2)+(3)-(4)]
DOCKED: USER    Estimated Inhibition Constant, Ki   =   35.80 uM (micromolar)  [Temperature = 298.15 K]
DOCKED: USER    
DOCKED: USER    (1) Final Intermolecular Energy     =   -7.86 kcal/mol
DOCKED: USER        vdW + Hbond + desolv Energy     =   -2.41 kcal/mol
DOCKED: USER        Electrostatic Energy            =   -5.45 kcal/mol
DOCKED: USER    (2) Final Total Internal Energy     =   +2.18 kcal/mol
DOCKED: USER    (3) Torsional Free Energy           =   +1.79 kcal/mol
DOCKED: USER    (4) Unbound System's Energy  [=(2)] =   +2.18 kcal/mol
DOCKED: USER    
DOCKED: USER    
DOCKED: USER    NEWDPF move 2_3_BPG_opt.pdbqt
DOCKED: USER    NEWDPF about 0.015000 0.083000 0.031000
DOCKED: USER    NEWDPF tran0 -12.666329 1.709846 -11.738567
DOCKED: USER    NEWDPF quaternion0 -0.096284 0.571192 -0.002165 0.815147
DOCKED: USER    NEWDPF axisangle0 -0.166220 0.986082 -0.003738 70.796266
DOCKED: USER    NEWDPF quat0 -0.166220 0.986082 -0.003738 70.796266
DOCKED: USER    NEWDPF dihe0 -61.07 -82.07 -3.02 -14.84 -19.51 -86.62 
DOCKED: USER  keepresnum = 1 
DOCKED: USER  
DOCKED: REMARK  6 active torsions:
DOCKED: REMARK  status: ('A' for Active; 'I' for Inactive)
DOCKED: REMARK    1  A    between atoms: P_1  and  O_3 
DOCKED: REMARK    2  A    between atoms: P_2  and  O_4 
DOCKED: REMARK    3  A    between atoms: O_3  and  C_13 
DOCKED: REMARK    4  A    between atoms: O_4  and  C_14 
DOCKED: REMARK    5  A    between atoms: C_13  and  C_14 
DOCKED: REMARK    6  A    between atoms: C_13  and  C_15 
DOCKED: USER                              x       y       z     vdW  Elec       q    Type
DOCKED: USER                           _______ _______ _______ _____ _____    ______ ____
DOCKED: ROOT
DOCKED: ATOM      1  C   UNL d   1     -12.921   1.451 -12.302 -0.13 +0.10    +0.193 C 
DOCKED: ENDROOT
DOCKED: BRANCH   1   2
DOCKED: ATOM      2  O   UNL d   1     -12.778   2.449 -13.369 -0.13 -0.26    -0.356 OA
DOCKED: BRANCH   2   3
DOCKED: ATOM      3  P   UNL d   1     -13.857   2.617 -14.598 -0.10 -0.01    -0.014 P 
DOCKED: ATOM      4  O   UNL d   1     -14.824   3.708 -14.113 +0.01 -0.25    -0.577 OA
DOCKED: ATOM      5  O   UNL d   1     -14.564   1.273 -14.767 -0.04 -0.71    -0.577 OA
DOCKED: ATOM      6  O   UNL d   1     -13.090   3.060 -15.840 -0.32 -1.16    -0.638 OA
DOCKED: ENDBRANCH   2   3
DOCKED: ENDBRANCH   1   2
DOCKED: BRANCH   1   7
DOCKED: ATOM      7  C   UNL d   1     -12.077   1.917 -11.059 -0.02 +0.08    +0.201 C 
DOCKED: BRANCH   7   8
DOCKED: ATOM      8  O   UNL d   1     -12.616   3.029 -10.311 -0.05 -0.17    -0.364 OA
DOCKED: BRANCH   8   9
DOCKED: ATOM      9  P   UNL d   1     -12.064   3.348  -8.785 -0.08 -0.02    -0.015 P 
DOCKED: ATOM     10  O   UNL d   1     -12.841   4.590  -8.331 -0.02 -0.68    -0.577 OA
DOCKED: ATOM     11  O   UNL d   1     -10.565   3.624  -8.901 -0.05 -0.58    -0.577 OA
DOCKED: ATOM     12  O   UNL d   1     -12.383   2.126  -7.925 -0.58 -0.92    -0.638 OA
DOCKED: ENDBRANCH   8   9
DOCKED: ENDBRANCH   7   8
DOCKED: ENDBRANCH   1   7
DOCKED: BRANCH   1  13
DOCKED: ATOM     13  C   UNL d   1     -12.374   0.058 -12.790 -0.22 +0.04    +0.073 C 
DOCKED: ATOM     14  O   UNL d   1     -12.036  -0.070 -14.019 -0.62 -0.74    -0.547 OA
DOCKED: ATOM     15  O   UNL d   1     -12.240  -0.859 -11.901 -0.07 -0.16    -0.547 OA
DOCKED: ENDBRANCH   1  13
DOCKED: TORSDOF 6
DOCKED: TER
DOCKED: ENDMDL
________________________________________________________________________________


	BEGINNING GENETIC ALGORITHM DOCKING 34 of 100
Run: 34 Seed: 962575148 752893376 [ Run 34 of 100 GA/GALS ]
Beginning LAMARCKIAN GENETIC ALGORITHM (LGA), with a maximum of 25000000 energy evaluations.

Final-Value: -5.944


	FINAL GENETIC ALGORITHM DOCKED STATE
	_______________________________________________


Detailed state:  trans -11.648 2.926 -10.489 quatxyzw -0.095723 -0.688946 0.533178 0.481573 center 0.015 0.083 0.031 ntor 6 -158.8573 -56.8859 -137.2725 -18.5850 -2.9864 -12.0313
State:	-11.648   2.926 -10.489  -0.109 -0.786  0.608 122.424   -158.86  -56.89 -137.27  -18.58   -2.99  -12.03

DOCKED: MODEL       34
DOCKED: USER    Run = 34
DOCKED: USER    DPF = D:/Protein_go_brrr/autodock/final/mut_K82N/2_3_BPG/dock.dpf
DOCKED: USER  
DOCKED: USER    Estimated Free Energy of Binding    =   -6.20 kcal/mol  [=(1)+(2)+(3)-(4)]
DOCKED: USER    Estimated Inhibition Constant, Ki   =   28.32 uM (micromolar)  [Temperature = 298.15 K]
DOCKED: USER    
DOCKED: USER    (1) Final Intermolecular Energy     =   -7.99 kcal/mol
DOCKED: USER        vdW + Hbond + desolv Energy     =   -2.61 kcal/mol
DOCKED: USER        Electrostatic Energy            =   -5.39 kcal/mol
DOCKED: USER    (2) Final Total Internal Energy     =   +2.05 kcal/mol
DOCKED: USER    (3) Torsional Free Energy           =   +1.79 kcal/mol
DOCKED: USER    (4) Unbound System's Energy  [=(2)] =   +2.05 kcal/mol
DOCKED: USER    
DOCKED: USER    
DOCKED: USER    NEWDPF move 2_3_BPG_opt.pdbqt
DOCKED: USER    NEWDPF about 0.015000 0.083000 0.031000
DOCKED: USER    NEWDPF tran0 -11.647725 2.925836 -10.488506
DOCKED: USER    NEWDPF quaternion0 -0.095723 -0.688946 0.533178 0.481573
DOCKED: USER    NEWDPF axisangle0 -0.109222 -0.786103 0.608368 122.423603
DOCKED: USER    NEWDPF quat0 -0.109222 -0.786103 0.608368 122.423603
DOCKED: USER    NEWDPF dihe0 -158.86 -56.89 -137.27 -18.58 -2.99 -12.03 
DOCKED: USER  keepresnum = 1 
DOCKED: USER  
DOCKED: REMARK  6 active torsions:
DOCKED: REMARK  status: ('A' for Active; 'I' for Inactive)
DOCKED: REMARK    1  A    between atoms: P_1  and  O_3 
DOCKED: REMARK    2  A    between atoms: P_2  and  O_4 
DOCKED: REMARK    3  A    between atoms: O_3  and  C_13 
DOCKED: REMARK    4  A    between atoms: O_4  and  C_14 
DOCKED: REMARK    5  A    between atoms: C_13  and  C_14 
DOCKED: REMARK    6  A    between atoms: C_13  and  C_15 
DOCKED: USER                              x       y       z     vdW  Elec       q    Type
DOCKED: USER                           _______ _______ _______ _____ _____    ______ ____
DOCKED: ROOT
DOCKED: ATOM      1  C   UNL d   1     -11.493   2.944  -9.836 -0.06 +0.12    +0.193 C 
DOCKED: ENDROOT
DOCKED: BRANCH   1   2
DOCKED: ATOM      2  O   UNL d   1     -10.796   4.206  -9.566 -0.08 -0.24    -0.356 OA
DOCKED: BRANCH   2   3
DOCKED: ATOM      3  P   UNL d   1      -9.678   4.382  -8.372 -0.21 -0.01    -0.014 P 
DOCKED: ATOM      4  O   UNL d   1      -8.388   4.774  -9.110 -0.04 -0.24    -0.577 OA
DOCKED: ATOM      5  O   UNL d   1      -9.539   3.028  -7.679 -0.04 -0.75    -0.577 OA
DOCKED: ATOM      6  O   UNL d   1     -10.152   5.495  -7.444 -0.38 -1.12    -0.638 OA
DOCKED: ENDBRANCH   2   3
DOCKED: ENDBRANCH   1   2
DOCKED: BRANCH   1   7
DOCKED: ATOM      7  C   UNL d   1     -12.116   3.010 -11.280 -0.10 +0.08    +0.201 C 
DOCKED: BRANCH   7   8
DOCKED: ATOM      8  O   UNL d   1     -12.180   1.757 -11.997 -0.07 -0.16    -0.364 OA
DOCKED: BRANCH   8   9
DOCKED: ATOM      9  P   UNL d   1     -12.814   1.707 -13.524 -0.19 -0.01    -0.015 P 
DOCKED: ATOM     10  O   UNL d   1     -12.196   2.908 -14.252 -0.10 -0.54    -0.577 OA
DOCKED: ATOM     11  O   UNL d   1     -14.330   1.843 -13.382 -0.02 -0.36    -0.577 OA
DOCKED: ATOM     12  O   UNL d   1     -12.388   0.378 -14.146 -0.58 -1.13    -0.638 OA
DOCKED: ENDBRANCH   8   9
DOCKED: ENDBRANCH   7   8
DOCKED: ENDBRANCH   1   7
DOCKED: BRANCH   1  13
DOCKED: ATOM     13  C   UNL d   1     -12.656   2.736  -8.795 -0.11 +0.07    +0.073 C 
DOCKED: ATOM     14  O   UNL d   1     -12.491   1.878  -7.858 -0.60 -0.69    -0.547 OA
DOCKED: ATOM     15  O   UNL d   1     -13.686   3.493  -8.913 -0.02 -0.38    -0.547 OA
DOCKED: ENDBRANCH   1  13
DOCKED: TORSDOF 6
DOCKED: TER
DOCKED: ENDMDL
________________________________________________________________________________


	BEGINNING GENETIC ALGORITHM DOCKING 35 of 100
Run: 35 Seed: 1570182948 1102014518 [ Run 35 of 100 GA/GALS ]
Beginning LAMARCKIAN GENETIC ALGORITHM (LGA), with a maximum of 25000000 energy evaluations.

Final-Value: -5.733


	FINAL GENETIC ALGORITHM DOCKED STATE
	_______________________________________________


Detailed state:  trans -11.848 2.659 -10.068 quatxyzw 0.109305 -0.803282 0.303206 0.500856 center 0.015 0.083 0.031 ntor 6 -26.5777 -91.2262 -82.3756 -2.0708 -9.7225 -39.1677
State:	-11.848   2.659 -10.068   0.126 -0.928  0.350 119.887    -26.58  -91.23  -82.38   -2.07   -9.72  -39.17

DOCKED: MODEL       35
DOCKED: USER    Run = 35
DOCKED: USER    DPF = D:/Protein_go_brrr/autodock/final/mut_K82N/2_3_BPG/dock.dpf
DOCKED: USER  
DOCKED: USER    Estimated Free Energy of Binding    =   -5.90 kcal/mol  [=(1)+(2)+(3)-(4)]
DOCKED: USER    Estimated Inhibition Constant, Ki   =   47.56 uM (micromolar)  [Temperature = 298.15 K]
DOCKED: USER    
DOCKED: USER    (1) Final Intermolecular Energy     =   -7.69 kcal/mol
DOCKED: USER        vdW + Hbond + desolv Energy     =   -2.44 kcal/mol
DOCKED: USER        Electrostatic Energy            =   -5.25 kcal/mol
DOCKED: USER    (2) Final Total Internal Energy     =   +1.95 kcal/mol
DOCKED: USER    (3) Torsional Free Energy           =   +1.79 kcal/mol
DOCKED: USER    (4) Unbound System's Energy  [=(2)] =   +1.95 kcal/mol
DOCKED: USER    
DOCKED: USER    
DOCKED: USER    NEWDPF move 2_3_BPG_opt.pdbqt
DOCKED: USER    NEWDPF about 0.015000 0.083000 0.031000
DOCKED: USER    NEWDPF tran0 -11.848255 2.659301 -10.068068
DOCKED: USER    NEWDPF quaternion0 0.109305 -0.803282 0.303206 0.500856
DOCKED: USER    NEWDPF axisangle0 0.126287 -0.928080 0.350312 119.886734
DOCKED: USER    NEWDPF quat0 0.126287 -0.928080 0.350312 119.886734
DOCKED: USER    NEWDPF dihe0 -26.58 -91.23 -82.38 -2.07 -9.72 -39.17 
DOCKED: USER  keepresnum = 1 
DOCKED: USER  
DOCKED: REMARK  6 active torsions:
DOCKED: REMARK  status: ('A' for Active; 'I' for Inactive)
DOCKED: REMARK    1  A    between atoms: P_1  and  O_3 
DOCKED: REMARK    2  A    between atoms: P_2  and  O_4 
DOCKED: REMARK    3  A    between atoms: O_3  and  C_13 
DOCKED: REMARK    4  A    between atoms: O_4  and  C_14 
DOCKED: REMARK    5  A    between atoms: C_13  and  C_14 
DOCKED: REMARK    6  A    between atoms: C_13  and  C_15 
DOCKED: USER                              x       y       z     vdW  Elec       q    Type
DOCKED: USER                           _______ _______ _______ _____ _____    ______ ____
DOCKED: ROOT
DOCKED: ATOM      1  C   UNL d   1     -11.529   2.658  -9.478 -0.06 +0.14    +0.193 C 
DOCKED: ENDROOT
DOCKED: BRANCH   1   2
DOCKED: ATOM      2  O   UNL d   1     -11.489   4.036  -8.977 -0.09 -0.37    -0.356 OA
DOCKED: BRANCH   2   3
DOCKED: ATOM      3  P   UNL d   1     -10.137   4.729  -8.348 -0.05 -0.02    -0.014 P 
DOCKED: ATOM      4  O   UNL d   1      -9.370   5.254  -9.572 -0.02 -0.26    -0.577 OA
DOCKED: ATOM      5  O   UNL d   1      -9.359   3.630  -7.627 -0.17 -0.79    -0.577 OA
DOCKED: ATOM      6  O   UNL d   1     -10.573   5.866  -7.430 -0.27 -1.02    -0.638 OA
DOCKED: ENDBRANCH   2   3
DOCKED: ENDBRANCH   1   2
DOCKED: BRANCH   1   7
DOCKED: ATOM      7  C   UNL d   1     -12.516   2.594 -10.702 -0.10 +0.09    +0.201 C 
DOCKED: BRANCH   7   8
DOCKED: ATOM      8  O   UNL d   1     -11.942   2.156 -11.953 -0.07 -0.16    -0.364 OA
DOCKED: BRANCH   8   9
DOCKED: ATOM      9  P   UNL d   1     -12.915   1.892 -13.265 -0.22 -0.01    -0.015 P 
DOCKED: ATOM     10  O   UNL d   1     -12.774   3.153 -14.126 -0.07 -0.46    -0.577 OA
DOCKED: ATOM     11  O   UNL d   1     -14.338   1.717 -12.736 +0.00 -0.27    -0.577 OA
DOCKED: ATOM     12  O   UNL d   1     -12.384   0.649 -13.977 -0.58 -1.00    -0.638 OA
DOCKED: ENDBRANCH   8   9
DOCKED: ENDBRANCH   7   8
DOCKED: ENDBRANCH   1   7
DOCKED: BRANCH   1  13
DOCKED: ATOM     13  C   UNL d   1     -12.056   1.690  -8.354 -0.15 +0.07    +0.073 C 
DOCKED: ATOM     14  O   UNL d   1     -12.835   2.165  -7.455 -0.55 -0.89    -0.547 OA
DOCKED: ATOM     15  O   UNL d   1     -11.720   0.454  -8.445 -0.06 -0.27    -0.547 OA
DOCKED: ENDBRANCH   1  13
DOCKED: TORSDOF 6
DOCKED: TER
DOCKED: ENDMDL
________________________________________________________________________________


	BEGINNING GENETIC ALGORITHM DOCKING 36 of 100
Run: 36 Seed: 1704934629 409686639 [ Run 36 of 100 GA/GALS ]
Beginning LAMARCKIAN GENETIC ALGORITHM (LGA), with a maximum of 25000000 energy evaluations.

Final-Value: -5.886


	FINAL GENETIC ALGORITHM DOCKED STATE
	_______________________________________________


Detailed state:  trans -11.588 2.998 -10.458 quatxyzw 0.170117 0.649730 -0.558839 -0.486425 center 0.015 0.083 0.031 ntor 6 -154.6586 51.6311 -152.3130 -4.4494 -1.9886 0.1758
State:	-11.588   2.998 -10.458   0.195  0.744 -0.640 -121.788   -154.66   51.63 -152.31   -4.45   -1.99    0.18

DOCKED: MODEL       36
DOCKED: USER    Run = 36
DOCKED: USER    DPF = D:/Protein_go_brrr/autodock/final/mut_K82N/2_3_BPG/dock.dpf
DOCKED: USER  
DOCKED: USER    Estimated Free Energy of Binding    =   -6.13 kcal/mol  [=(1)+(2)+(3)-(4)]
DOCKED: USER    Estimated Inhibition Constant, Ki   =   32.29 uM (micromolar)  [Temperature = 298.15 K]
DOCKED: USER    
DOCKED: USER    (1) Final Intermolecular Energy     =   -7.92 kcal/mol
DOCKED: USER        vdW + Hbond + desolv Energy     =   -2.79 kcal/mol
DOCKED: USER        Electrostatic Energy            =   -5.12 kcal/mol
DOCKED: USER    (2) Final Total Internal Energy     =   +2.03 kcal/mol
DOCKED: USER    (3) Torsional Free Energy           =   +1.79 kcal/mol
DOCKED: USER    (4) Unbound System's Energy  [=(2)] =   +2.03 kcal/mol
DOCKED: USER    
DOCKED: USER    
DOCKED: USER    NEWDPF move 2_3_BPG_opt.pdbqt
DOCKED: USER    NEWDPF about 0.015000 0.083000 0.031000
DOCKED: USER    NEWDPF tran0 -11.587736 2.997594 -10.457893
DOCKED: USER    NEWDPF quaternion0 0.170117 0.649730 -0.558839 -0.486425
DOCKED: USER    NEWDPF axisangle0 0.194704 0.743635 -0.639607 -121.788183
DOCKED: USER    NEWDPF quat0 0.194704 0.743635 -0.639607 -121.788183
DOCKED: USER    NEWDPF dihe0 -154.66 51.63 -152.31 -4.45 -1.99 0.18 
DOCKED: USER  keepresnum = 1 
DOCKED: USER  
DOCKED: REMARK  6 active torsions:
DOCKED: REMARK  status: ('A' for Active; 'I' for Inactive)
DOCKED: REMARK    1  A    between atoms: P_1  and  O_3 
DOCKED: REMARK    2  A    between atoms: P_2  and  O_4 
DOCKED: REMARK    3  A    between atoms: O_3  and  C_13 
DOCKED: REMARK    4  A    between atoms: O_4  and  C_14 
DOCKED: REMARK    5  A    between atoms: C_13  and  C_14 
DOCKED: REMARK    6  A    between atoms: C_13  and  C_15 
DOCKED: USER                              x       y       z     vdW  Elec       q    Type
DOCKED: USER                           _______ _______ _______ _____ _____    ______ ____
DOCKED: ROOT
DOCKED: ATOM      1  C   UNL d   1     -11.510   3.005  -9.792 -0.08 +0.12    +0.193 C 
DOCKED: ENDROOT
DOCKED: BRANCH   1   2
DOCKED: ATOM      2  O   UNL d   1     -10.692   4.170  -9.439 -0.09 -0.26    -0.356 OA
DOCKED: BRANCH   2   3
DOCKED: ATOM      3  P   UNL d   1      -9.471   4.116  -8.338 -0.26 -0.01    -0.014 P 
DOCKED: ATOM      4  O   UNL d   1      -9.716   5.335  -7.435 -0.56 -0.90    -0.577 OA
DOCKED: ATOM      5  O   UNL d   1      -8.160   4.243  -9.111 -0.05 -0.22    -0.577 OA
DOCKED: ATOM      6  O   UNL d   1      -9.595   2.810  -7.561 +0.00 -0.84    -0.638 OA
DOCKED: ENDBRANCH   2   3
DOCKED: ENDBRANCH   1   2
DOCKED: BRANCH   1   7
DOCKED: ATOM      7  C   UNL d   1     -11.944   3.130 -11.299 -0.10 +0.08    +0.201 C 
DOCKED: BRANCH   7   8
DOCKED: ATOM      8  O   UNL d   1     -12.350   1.902 -11.943 -0.09 -0.16    -0.364 OA
DOCKED: BRANCH   8   9
DOCKED: ATOM      9  P   UNL d   1     -12.802   1.909 -13.534 -0.20 -0.01    -0.015 P 
DOCKED: ATOM     10  O   UNL d   1     -11.998   3.049 -14.171 -0.08 -0.48    -0.577 OA
DOCKED: ATOM     11  O   UNL d   1     -14.305   2.181 -13.570 -0.02 -0.37    -0.577 OA
DOCKED: ATOM     12  O   UNL d   1     -12.426   0.547 -14.116 -0.57 -1.12    -0.638 OA
DOCKED: ENDBRANCH   8   9
DOCKED: ENDBRANCH   7   8
DOCKED: ENDBRANCH   1   7
DOCKED: BRANCH   1  13
DOCKED: ATOM     13  C   UNL d   1     -12.805   2.963  -8.897 -0.10 +0.06    +0.073 C 
DOCKED: ATOM     14  O   UNL d   1     -12.831   2.162  -7.897 -0.58 -0.69    -0.547 OA
DOCKED: ATOM     15  O   UNL d   1     -13.742   3.790  -9.188 -0.01 -0.33    -0.547 OA
DOCKED: ENDBRANCH   1  13
DOCKED: TORSDOF 6
DOCKED: TER
DOCKED: ENDMDL
________________________________________________________________________________


	BEGINNING GENETIC ALGORITHM DOCKING 37 of 100
Run: 37 Seed: 789854116 1371360472 [ Run 37 of 100 GA/GALS ]
Beginning LAMARCKIAN GENETIC ALGORITHM (LGA), with a maximum of 25000000 energy evaluations.

Final-Value: -5.760


	FINAL GENETIC ALGORITHM DOCKED STATE
	_______________________________________________


Detailed state:  trans 3.579 -13.383 -6.526 quatxyzw -0.590202 0.505850 -0.499549 -0.382397 center 0.015 0.083 0.031 ntor 6 -156.0292 1.1699 57.7143 79.9507 -18.2371 -9.0108
State:	  3.579 -13.383  -6.526  -0.639  0.547 -0.541 -135.035   -156.03    1.17   57.71   79.95  -18.24   -9.01

DOCKED: MODEL       37
DOCKED: USER    Run = 37
DOCKED: USER    DPF = D:/Protein_go_brrr/autodock/final/mut_K82N/2_3_BPG/dock.dpf
DOCKED: USER  
DOCKED: USER    Estimated Free Energy of Binding    =   -6.00 kcal/mol  [=(1)+(2)+(3)-(4)]
DOCKED: USER    Estimated Inhibition Constant, Ki   =   39.90 uM (micromolar)  [Temperature = 298.15 K]
DOCKED: USER    
DOCKED: USER    (1) Final Intermolecular Energy     =   -7.79 kcal/mol
DOCKED: USER        vdW + Hbond + desolv Energy     =   -4.15 kcal/mol
DOCKED: USER        Electrostatic Energy            =   -3.64 kcal/mol
DOCKED: USER    (2) Final Total Internal Energy     =   +2.03 kcal/mol
DOCKED: USER    (3) Torsional Free Energy           =   +1.79 kcal/mol
DOCKED: USER    (4) Unbound System's Energy  [=(2)] =   +2.03 kcal/mol
DOCKED: USER    
DOCKED: USER    
DOCKED: USER    NEWDPF move 2_3_BPG_opt.pdbqt
DOCKED: USER    NEWDPF about 0.015000 0.083000 0.031000
DOCKED: USER    NEWDPF tran0 3.578891 -13.383345 -6.526395
DOCKED: USER    NEWDPF quaternion0 -0.590202 0.505850 -0.499549 -0.382397
DOCKED: USER    NEWDPF axisangle0 -0.638748 0.547458 -0.540639 -135.035499
DOCKED: USER    NEWDPF quat0 -0.638748 0.547458 -0.540639 -135.035499
DOCKED: USER    NEWDPF dihe0 -156.03 1.17 57.71 79.95 -18.24 -9.01 
DOCKED: USER  keepresnum = 1 
DOCKED: USER  
DOCKED: REMARK  6 active torsions:
DOCKED: REMARK  status: ('A' for Active; 'I' for Inactive)
DOCKED: REMARK    1  A    between atoms: P_1  and  O_3 
DOCKED: REMARK    2  A    between atoms: P_2  and  O_4 
DOCKED: REMARK    3  A    between atoms: O_3  and  C_13 
DOCKED: REMARK    4  A    between atoms: O_4  and  C_14 
DOCKED: REMARK    5  A    between atoms: C_13  and  C_14 
DOCKED: REMARK    6  A    between atoms: C_13  and  C_15 
DOCKED: USER                              x       y       z     vdW  Elec       q    Type
DOCKED: USER                           _______ _______ _______ _____ _____    ______ ____
DOCKED: ROOT
DOCKED: ATOM      1  C   UNL d   1       3.743 -12.753  -6.366 -0.24 +0.13    +0.193 C 
DOCKED: ENDROOT
DOCKED: BRANCH   1   2
DOCKED: ATOM      2  O   UNL d   1       2.955 -11.847  -7.209 -0.25 -0.11    -0.356 OA
DOCKED: BRANCH   2   3
DOCKED: ATOM      3  P   UNL d   1       2.894 -11.962  -8.848 -0.49 -0.00    -0.014 P 
DOCKED: ATOM      4  O   UNL d   1       1.902 -10.868  -9.272 -0.02 +0.07    -0.577 OA
DOCKED: ATOM      5  O   UNL d   1       2.369 -13.357  -9.184 -0.52 -0.18    -0.577 OA
DOCKED: ATOM      6  O   UNL d   1       4.293 -11.692  -9.392 +0.01 -0.04    -0.638 OA
DOCKED: ENDBRANCH   2   3
DOCKED: ENDBRANCH   1   2
DOCKED: BRANCH   1   7
DOCKED: ATOM      7  C   UNL d   1       3.169 -14.210  -6.517 -0.10 +0.22    +0.201 C 
DOCKED: BRANCH   7   8
DOCKED: ATOM      8  O   UNL d   1       4.119 -15.284  -6.344 -0.15 -0.42    -0.364 OA
DOCKED: BRANCH   8   9
DOCKED: ATOM      9  P   UNL d   1       3.588 -16.832  -6.105 +0.03 -0.02    -0.015 P 
DOCKED: ATOM     10  O   UNL d   1       4.156 -17.243  -4.741 -0.45 -0.90    -0.577 OA
DOCKED: ATOM     11  O   UNL d   1       4.160 -17.680  -7.240 +0.02 -0.24    -0.577 OA
DOCKED: ATOM     12  O   UNL d   1       2.061 -16.790  -6.101 -0.26 -0.99    -0.638 OA
DOCKED: ENDBRANCH   8   9
DOCKED: ENDBRANCH   7   8
DOCKED: ENDBRANCH   1   7
DOCKED: BRANCH   1  13
DOCKED: ATOM     13  C   UNL d   1       3.632 -12.321  -4.857 -0.40 +0.07    +0.073 C 
DOCKED: ATOM     14  O   UNL d   1       4.610 -11.685  -4.329 -0.65 -0.38    -0.547 OA
DOCKED: ATOM     15  O   UNL d   1       2.527 -12.580  -4.256 -0.66 -0.85    -0.547 OA
DOCKED: ENDBRANCH   1  13
DOCKED: TORSDOF 6
DOCKED: TER
DOCKED: ENDMDL
________________________________________________________________________________


	BEGINNING GENETIC ALGORITHM DOCKING 38 of 100
Run: 38 Seed: 505492526 629086315 [ Run 38 of 100 GA/GALS ]
Beginning LAMARCKIAN GENETIC ALGORITHM (LGA), with a maximum of 25000000 energy evaluations.

Final-Value: -6.027


	FINAL GENETIC ALGORITHM DOCKED STATE
	_______________________________________________


Detailed state:  trans -11.851 2.891 -10.434 quatxyzw -0.136975 -0.666580 0.565617 0.465818 center 0.015 0.083 0.031 ntor 6 -148.5256 -60.5448 -121.9354 -12.2174 -10.6397 -28.2686
State:	-11.851   2.891 -10.434  -0.155 -0.753  0.639 124.474   -148.53  -60.54 -121.94  -12.22  -10.64  -28.27

DOCKED: MODEL       38
DOCKED: USER    Run = 38
DOCKED: USER    DPF = D:/Protein_go_brrr/autodock/final/mut_K82N/2_3_BPG/dock.dpf
DOCKED: USER  
DOCKED: USER    Estimated Free Energy of Binding    =   -6.28 kcal/mol  [=(1)+(2)+(3)-(4)]
DOCKED: USER    Estimated Inhibition Constant, Ki   =   25.07 uM (micromolar)  [Temperature = 298.15 K]
DOCKED: USER    
DOCKED: USER    (1) Final Intermolecular Energy     =   -8.07 kcal/mol
DOCKED: USER        vdW + Hbond + desolv Energy     =   -2.58 kcal/mol
DOCKED: USER        Electrostatic Energy            =   -5.49 kcal/mol
DOCKED: USER    (2) Final Total Internal Energy     =   +2.04 kcal/mol
DOCKED: USER    (3) Torsional Free Energy           =   +1.79 kcal/mol
DOCKED: USER    (4) Unbound System's Energy  [=(2)] =   +2.04 kcal/mol
DOCKED: USER    
DOCKED: USER    
DOCKED: USER    NEWDPF move 2_3_BPG_opt.pdbqt
DOCKED: USER    NEWDPF about 0.015000 0.083000 0.031000
DOCKED: USER    NEWDPF tran0 -11.851448 2.891103 -10.434031
DOCKED: USER    NEWDPF quaternion0 -0.136975 -0.666580 0.565617 0.465818
DOCKED: USER    NEWDPF axisangle0 -0.154795 -0.753300 0.639201 124.473665
DOCKED: USER    NEWDPF quat0 -0.154795 -0.753300 0.639201 124.473665
DOCKED: USER    NEWDPF dihe0 -148.53 -60.54 -121.94 -12.22 -10.64 -28.27 
DOCKED: USER  keepresnum = 1 
DOCKED: USER  
DOCKED: REMARK  6 active torsions:
DOCKED: REMARK  status: ('A' for Active; 'I' for Inactive)
DOCKED: REMARK    1  A    between atoms: P_1  and  O_3 
DOCKED: REMARK    2  A    between atoms: P_2  and  O_4 
DOCKED: REMARK    3  A    between atoms: O_3  and  C_13 
DOCKED: REMARK    4  A    between atoms: O_4  and  C_14 
DOCKED: REMARK    5  A    between atoms: C_13  and  C_14 
DOCKED: REMARK    6  A    between atoms: C_13  and  C_15 
DOCKED: USER                              x       y       z     vdW  Elec       q    Type
DOCKED: USER                           _______ _______ _______ _____ _____    ______ ____
DOCKED: ROOT
DOCKED: ATOM      1  C   UNL d   1     -11.720   2.910  -9.777 -0.09 +0.12    +0.193 C 
DOCKED: ENDROOT
DOCKED: BRANCH   1   2
DOCKED: ATOM      2  O   UNL d   1     -10.898   4.096  -9.510 -0.08 -0.26    -0.356 OA
DOCKED: BRANCH   2   3
DOCKED: ATOM      3  P   UNL d   1      -9.707   4.132  -8.377 -0.20 -0.02    -0.014 P 
DOCKED: ATOM      4  O   UNL d   1      -8.416   4.341  -9.184 -0.05 -0.24    -0.577 OA
DOCKED: ATOM      5  O   UNL d   1      -9.714   2.779  -7.669 -0.02 -0.76    -0.577 OA
DOCKED: ATOM      6  O   UNL d   1      -9.980   5.308  -7.444 -0.42 -1.15    -0.638 OA
DOCKED: ENDBRANCH   2   3
DOCKED: ENDBRANCH   1   2
DOCKED: BRANCH   1   7
DOCKED: ATOM      7  C   UNL d   1     -12.279   3.004 -11.245 -0.10 +0.08    +0.201 C 
DOCKED: BRANCH   7   8
DOCKED: ATOM      8  O   UNL d   1     -12.116   1.820 -12.057 -0.06 -0.17    -0.364 OA
DOCKED: BRANCH   8   9
DOCKED: ATOM      9  P   UNL d   1     -12.828   1.734 -13.548 -0.20 -0.01    -0.015 P 
DOCKED: ATOM     10  O   UNL d   1     -12.225   2.896 -14.346 -0.10 -0.57    -0.577 OA
DOCKED: ATOM     11  O   UNL d   1     -14.331   1.907 -13.336 -0.01 -0.35    -0.577 OA
DOCKED: ATOM     12  O   UNL d   1     -12.460   0.376 -14.146 -0.58 -1.13    -0.638 OA
DOCKED: ENDBRANCH   8   9
DOCKED: ENDBRANCH   7   8
DOCKED: ENDBRANCH   1   7
DOCKED: BRANCH   1  13
DOCKED: ATOM     13  C   UNL d   1     -12.935   2.859  -8.777 -0.10 +0.06    +0.073 C 
DOCKED: ATOM     14  O   UNL d   1     -12.816   2.166  -7.706 -0.56 -0.78    -0.547 OA
DOCKED: ATOM     15  O   UNL d   1     -13.960   3.574  -9.069 -0.01 -0.32    -0.547 OA
DOCKED: ENDBRANCH   1  13
DOCKED: TORSDOF 6
DOCKED: TER
DOCKED: ENDMDL
________________________________________________________________________________


	BEGINNING GENETIC ALGORITHM DOCKING 39 of 100
Run: 39 Seed: 885430499 499612402 [ Run 39 of 100 GA/GALS ]
Beginning LAMARCKIAN GENETIC ALGORITHM (LGA), with a maximum of 25000000 energy evaluations.

Final-Value: -5.681


	FINAL GENETIC ALGORITHM DOCKED STATE
	_______________________________________________


Detailed state:  trans -11.714 3.119 -10.281 quatxyzw 0.080253 -0.803661 0.219790 0.547157 center 0.015 0.083 0.031 ntor 6 151.8172 15.3096 -134.0181 9.4903 15.7987 18.2537
State:	-11.714   3.119 -10.281   0.096 -0.960  0.263 113.656    151.82   15.31 -134.02    9.49   15.80   18.25

DOCKED: MODEL       39
DOCKED: USER    Run = 39
DOCKED: USER    DPF = D:/Protein_go_brrr/autodock/final/mut_K82N/2_3_BPG/dock.dpf
DOCKED: USER  
DOCKED: USER    Estimated Free Energy of Binding    =   -5.89 kcal/mol  [=(1)+(2)+(3)-(4)]
DOCKED: USER    Estimated Inhibition Constant, Ki   =   48.30 uM (micromolar)  [Temperature = 298.15 K]
DOCKED: USER    
DOCKED: USER    (1) Final Intermolecular Energy     =   -7.68 kcal/mol
DOCKED: USER        vdW + Hbond + desolv Energy     =   -2.51 kcal/mol
DOCKED: USER        Electrostatic Energy            =   -5.17 kcal/mol
DOCKED: USER    (2) Final Total Internal Energy     =   +2.00 kcal/mol
DOCKED: USER    (3) Torsional Free Energy           =   +1.79 kcal/mol
DOCKED: USER    (4) Unbound System's Energy  [=(2)] =   +2.00 kcal/mol
DOCKED: USER    
DOCKED: USER    
DOCKED: USER    NEWDPF move 2_3_BPG_opt.pdbqt
DOCKED: USER    NEWDPF about 0.015000 0.083000 0.031000
DOCKED: USER    NEWDPF tran0 -11.714213 3.119335 -10.280708
DOCKED: USER    NEWDPF quaternion0 0.080253 -0.803661 0.219790 0.547157
DOCKED: USER    NEWDPF axisangle0 0.095879 -0.960134 0.262583 113.655603
DOCKED: USER    NEWDPF quat0 0.095879 -0.960134 0.262583 113.655603
DOCKED: USER    NEWDPF dihe0 151.82 15.31 -134.02 9.49 15.80 18.25 
DOCKED: USER  keepresnum = 1 
DOCKED: USER  
DOCKED: REMARK  6 active torsions:
DOCKED: REMARK  status: ('A' for Active; 'I' for Inactive)
DOCKED: REMARK    1  A    between atoms: P_1  and  O_3 
DOCKED: REMARK    2  A    between atoms: P_2  and  O_4 
DOCKED: REMARK    3  A    between atoms: O_3  and  C_13 
DOCKED: REMARK    4  A    between atoms: O_4  and  C_14 
DOCKED: REMARK    5  A    between atoms: C_13  and  C_14 
DOCKED: REMARK    6  A    between atoms: C_13  and  C_15 
DOCKED: USER                              x       y       z     vdW  Elec       q    Type
DOCKED: USER                           _______ _______ _______ _____ _____    ______ ____
DOCKED: ROOT
DOCKED: ATOM      1  C   UNL d   1     -11.436   3.033  -9.677 -0.07 +0.13    +0.193 C 
DOCKED: ENDROOT
DOCKED: BRANCH   1   2
DOCKED: ATOM      2  O   UNL d   1     -11.528   4.303  -8.946 -0.07 -0.37    -0.356 OA
DOCKED: BRANCH   2   3
DOCKED: ATOM      3  P   UNL d   1     -10.219   5.090  -8.338 -0.10 -0.02    -0.014 P 
DOCKED: ATOM      4  O   UNL d   1     -10.814   6.179  -7.432 -0.25 -0.78    -0.577 OA
DOCKED: ATOM      5  O   UNL d   1      -9.464   5.694  -9.520 -0.00 -0.25    -0.577 OA
DOCKED: ATOM      6  O   UNL d   1      -9.394   4.086  -7.539 -0.24 -0.99    -0.638 OA
DOCKED: ENDBRANCH   2   3
DOCKED: ENDBRANCH   1   2
DOCKED: BRANCH   1   7
DOCKED: ATOM      7  C   UNL d   1     -12.332   3.127 -10.967 -0.09 +0.08    +0.201 C 
DOCKED: BRANCH   7   8
DOCKED: ATOM      8  O   UNL d   1     -12.315   1.971 -11.832 -0.09 -0.16    -0.364 OA
DOCKED: BRANCH   8   9
DOCKED: ATOM      9  P   UNL d   1     -12.813   2.102 -13.404 -0.22 -0.01    -0.015 P 
DOCKED: ATOM     10  O   UNL d   1     -12.088   3.338 -13.950 -0.06 -0.39    -0.577 OA
DOCKED: ATOM     11  O   UNL d   1     -14.329   2.295 -13.376 -0.01 -0.33    -0.577 OA
DOCKED: ATOM     12  O   UNL d   1     -12.386   0.823 -14.121 -0.53 -1.14    -0.638 OA
DOCKED: ENDBRANCH   8   9
DOCKED: ENDBRANCH   7   8
DOCKED: ENDBRANCH   1   7
DOCKED: BRANCH   1  13
DOCKED: ATOM     13  C   UNL d   1     -11.968   1.855  -8.779 -0.16 +0.06    +0.073 C 
DOCKED: ATOM     14  O   UNL d   1     -11.535   0.670  -9.005 -0.03 -0.26    -0.547 OA
DOCKED: ATOM     15  O   UNL d   1     -12.765   2.165  -7.822 -0.57 -0.75    -0.547 OA
DOCKED: ENDBRANCH   1  13
DOCKED: TORSDOF 6
DOCKED: TER
DOCKED: ENDMDL
________________________________________________________________________________


	BEGINNING GENETIC ALGORITHM DOCKING 40 of 100
Run: 40 Seed: 914803148 839363523 [ Run 40 of 100 GA/GALS ]
Beginning LAMARCKIAN GENETIC ALGORITHM (LGA), with a maximum of 25000000 energy evaluations.

Final-Value: -5.883


	FINAL GENETIC ALGORITHM DOCKED STATE
	_______________________________________________


Detailed state:  trans -11.914 2.889 -10.394 quatxyzw -0.040775 -0.721851 0.525468 0.448500 center 0.015 0.083 0.031 ntor 6 -165.2913 -47.3955 -94.6123 -15.6487 -18.9328 -51.0636
State:	-11.914   2.889 -10.394  -0.046 -0.808  0.588 126.705   -165.29  -47.40  -94.61  -15.65  -18.93  -51.06

DOCKED: MODEL       40
DOCKED: USER    Run = 40
DOCKED: USER    DPF = D:/Protein_go_brrr/autodock/final/mut_K82N/2_3_BPG/dock.dpf
DOCKED: USER  
DOCKED: USER    Estimated Free Energy of Binding    =   -6.08 kcal/mol  [=(1)+(2)+(3)-(4)]
DOCKED: USER    Estimated Inhibition Constant, Ki   =   35.13 uM (micromolar)  [Temperature = 298.15 K]
DOCKED: USER    
DOCKED: USER    (1) Final Intermolecular Energy     =   -7.87 kcal/mol
DOCKED: USER        vdW + Hbond + desolv Energy     =   -2.61 kcal/mol
DOCKED: USER        Electrostatic Energy            =   -5.26 kcal/mol
DOCKED: USER    (2) Final Total Internal Energy     =   +1.98 kcal/mol
DOCKED: USER    (3) Torsional Free Energy           =   +1.79 kcal/mol
DOCKED: USER    (4) Unbound System's Energy  [=(2)] =   +1.98 kcal/mol
DOCKED: USER    
DOCKED: USER    
DOCKED: USER    NEWDPF move 2_3_BPG_opt.pdbqt
DOCKED: USER    NEWDPF about 0.015000 0.083000 0.031000
DOCKED: USER    NEWDPF tran0 -11.913740 2.889072 -10.394012
DOCKED: USER    NEWDPF quaternion0 -0.040775 -0.721851 0.525468 0.448500
DOCKED: USER    NEWDPF axisangle0 -0.045621 -0.807636 0.587914 126.705084
DOCKED: USER    NEWDPF quat0 -0.045621 -0.807636 0.587914 126.705084
DOCKED: USER    NEWDPF dihe0 -165.29 -47.40 -94.61 -15.65 -18.93 -51.06 
DOCKED: USER  keepresnum = 1 
DOCKED: USER  
DOCKED: REMARK  6 active torsions:
DOCKED: REMARK  status: ('A' for Active; 'I' for Inactive)
DOCKED: REMARK    1  A    between atoms: P_1  and  O_3 
DOCKED: REMARK    2  A    between atoms: P_2  and  O_4 
DOCKED: REMARK    3  A    between atoms: O_3  and  C_13 
DOCKED: REMARK    4  A    between atoms: O_4  and  C_14 
DOCKED: REMARK    5  A    between atoms: C_13  and  C_14 
DOCKED: REMARK    6  A    between atoms: C_13  and  C_15 
DOCKED: USER                              x       y       z     vdW  Elec       q    Type
DOCKED: USER                           _______ _______ _______ _____ _____    ______ ____
DOCKED: ROOT
DOCKED: ATOM      1  C   UNL d   1     -11.675   2.918  -9.768 -0.08 +0.12    +0.193 C 
DOCKED: ENDROOT
DOCKED: BRANCH   1   2
DOCKED: ATOM      2  O   UNL d   1     -11.016   4.217  -9.591 -0.08 -0.25    -0.356 OA
DOCKED: BRANCH   2   3
DOCKED: ATOM      3  P   UNL d   1      -9.716   4.443  -8.610 -0.24 -0.01    -0.014 P 
DOCKED: ATOM      4  O   UNL d   1      -8.685   5.156  -9.499 -0.03 -0.22    -0.577 OA
DOCKED: ATOM      5  O   UNL d   1      -9.227   3.062  -8.180 -0.05 -0.50    -0.577 OA
DOCKED: ATOM      6  O   UNL d   1     -10.153   5.324  -7.443 -0.34 -1.23    -0.638 OA
DOCKED: ENDBRANCH   2   3
DOCKED: ENDBRANCH   1   2
DOCKED: BRANCH   1   7
DOCKED: ATOM      7  C   UNL d   1     -12.487   2.944 -11.115 -0.09 +0.08    +0.201 C 
DOCKED: BRANCH   7   8
DOCKED: ATOM      8  O   UNL d   1     -11.946   2.150 -12.194 -0.05 -0.17    -0.364 OA
DOCKED: BRANCH   8   9
DOCKED: ATOM      9  P   UNL d   1     -12.886   1.779 -13.503 -0.20 -0.01    -0.015 P 
DOCKED: ATOM     10  O   UNL d   1     -12.703   2.953 -14.472 -0.11 -0.60    -0.577 OA
DOCKED: ATOM     11  O   UNL d   1     -14.326   1.672 -13.003 -0.01 -0.31    -0.577 OA
DOCKED: ATOM     12  O   UNL d   1     -12.355   0.468 -14.083 -0.58 -1.08    -0.638 OA
DOCKED: ENDBRANCH   8   9
DOCKED: ENDBRANCH   7   8
DOCKED: ENDBRANCH   1   7
DOCKED: BRANCH   1  13
DOCKED: ATOM     13  C   UNL d   1     -12.674   2.653  -8.581 -0.06 +0.08    +0.073 C 
DOCKED: ATOM     14  O   UNL d   1     -12.397   1.722  -7.746 -0.63 -0.69    -0.547 OA
DOCKED: ATOM     15  O   UNL d   1     -13.686   3.437  -8.485 -0.06 -0.46    -0.547 OA
DOCKED: ENDBRANCH   1  13
DOCKED: TORSDOF 6
DOCKED: TER
DOCKED: ENDMDL
________________________________________________________________________________


	BEGINNING GENETIC ALGORITHM DOCKING 41 of 100
Run: 41 Seed: 1572785880 1721880593 [ Run 41 of 100 GA/GALS ]
Beginning LAMARCKIAN GENETIC ALGORITHM (LGA), with a maximum of 25000000 energy evaluations.

Final-Value: -6.228


	FINAL GENETIC ALGORITHM DOCKED STATE
	_______________________________________________


Detailed state:  trans 0.346 -17.593 -5.406 quatxyzw 0.367609 -0.089546 -0.449667 -0.809101 center 0.015 0.083 0.031 ntor 6 -18.7835 18.7350 -83.5939 -8.8297 -21.7274 -169.0971
State:	  0.346 -17.593  -5.406   0.626 -0.152 -0.765 -71.984    -18.78   18.74  -83.59   -8.83  -21.73 -169.10

DOCKED: MODEL       41
DOCKED: USER    Run = 41
DOCKED: USER    DPF = D:/Protein_go_brrr/autodock/final/mut_K82N/2_3_BPG/dock.dpf
DOCKED: USER  
DOCKED: USER    Estimated Free Energy of Binding    =   -6.59 kcal/mol  [=(1)+(2)+(3)-(4)]
DOCKED: USER    Estimated Inhibition Constant, Ki   =   14.69 uM (micromolar)  [Temperature = 298.15 K]
DOCKED: USER    
DOCKED: USER    (1) Final Intermolecular Energy     =   -8.38 kcal/mol
DOCKED: USER        vdW + Hbond + desolv Energy     =   -4.29 kcal/mol
DOCKED: USER        Electrostatic Energy            =   -4.09 kcal/mol
DOCKED: USER    (2) Final Total Internal Energy     =   +2.16 kcal/mol
DOCKED: USER    (3) Torsional Free Energy           =   +1.79 kcal/mol
DOCKED: USER    (4) Unbound System's Energy  [=(2)] =   +2.16 kcal/mol
DOCKED: USER    
DOCKED: USER    
DOCKED: USER    NEWDPF move 2_3_BPG_opt.pdbqt
DOCKED: USER    NEWDPF about 0.015000 0.083000 0.031000
DOCKED: USER    NEWDPF tran0 0.346254 -17.593155 -5.405551
DOCKED: USER    NEWDPF quaternion0 0.367609 -0.089546 -0.449667 -0.809101
DOCKED: USER    NEWDPF axisangle0 0.625537 -0.152375 -0.765170 -71.983558
DOCKED: USER    NEWDPF quat0 0.625537 -0.152375 -0.765170 -71.983558
DOCKED: USER    NEWDPF dihe0 -18.78 18.74 -83.59 -8.83 -21.73 -169.10 
DOCKED: USER  keepresnum = 1 
DOCKED: USER  
DOCKED: REMARK  6 active torsions:
DOCKED: REMARK  status: ('A' for Active; 'I' for Inactive)
DOCKED: REMARK    1  A    between atoms: P_1  and  O_3 
DOCKED: REMARK    2  A    between atoms: P_2  and  O_4 
DOCKED: REMARK    3  A    between atoms: O_3  and  C_13 
DOCKED: REMARK    4  A    between atoms: O_4  and  C_14 
DOCKED: REMARK    5  A    between atoms: C_13  and  C_14 
DOCKED: REMARK    6  A    between atoms: C_13  and  C_15 
DOCKED: USER                              x       y       z     vdW  Elec       q    Type
DOCKED: USER                           _______ _______ _______ _____ _____    ______ ____
DOCKED: ROOT
DOCKED: ATOM      1  C   UNL d   1      -0.244 -17.278  -5.441 -0.21 +0.14    +0.193 C 
DOCKED: ENDROOT
DOCKED: BRANCH   1   2
DOCKED: ATOM      2  O   UNL d   1      -0.019 -15.854  -5.166 -0.60 -0.51    -0.356 OA
DOCKED: BRANCH   2   3
DOCKED: ATOM      3  P   UNL d   1      -1.053 -14.931  -4.282 -0.73 -0.01    -0.014 P 
DOCKED: ATOM      4  O   UNL d   1      -0.623 -13.485  -4.576 -0.37 -0.48    -0.577 OA
DOCKED: ATOM      5  O   UNL d   1      -0.841 -15.292  -2.814 -0.46 -0.49    -0.577 OA
DOCKED: ATOM      6  O   UNL d   1      -2.470 -15.205  -4.777 -0.66 -0.35    -0.638 OA
DOCKED: ENDBRANCH   2   3
DOCKED: ENDBRANCH   1   2
DOCKED: BRANCH   1   7
DOCKED: ATOM      7  C   UNL d   1       1.149 -17.978  -5.650 -0.13 +0.17    +0.201 C 
DOCKED: BRANCH   7   8
DOCKED: ATOM      8  O   UNL d   1       2.289 -17.097  -5.750 -0.20 -0.61    -0.364 OA
DOCKED: BRANCH   8   9
DOCKED: ATOM      9  P   UNL d   1       3.816 -17.685  -5.508 -0.11 -0.02    -0.015 P 
DOCKED: ATOM     10  O   UNL d   1       4.377 -17.929  -6.914 +0.02 -0.24    -0.577 OA
DOCKED: ATOM     11  O   UNL d   1       3.673 -18.985  -4.717 -0.08 -0.34    -0.577 OA
DOCKED: ATOM     12  O   UNL d   1       4.600 -16.610  -4.756 -0.59 -1.06    -0.638 OA
DOCKED: ENDBRANCH   8   9
DOCKED: ENDBRANCH   7   8
DOCKED: ENDBRANCH   1   7
DOCKED: BRANCH   1  13
DOCKED: ATOM     13  C   UNL d   1      -1.095 -17.445  -6.755 -0.18 +0.02    +0.073 C 
DOCKED: ATOM     14  O   UNL d   1      -0.915 -16.611  -7.711 -0.03 -0.22    -0.547 OA
DOCKED: ATOM     15  O   UNL d   1      -1.882 -18.458  -6.814 +0.03 -0.09    -0.547 OA
DOCKED: ENDBRANCH   1  13
DOCKED: TORSDOF 6
DOCKED: TER
DOCKED: ENDMDL
________________________________________________________________________________


	BEGINNING GENETIC ALGORITHM DOCKING 42 of 100
Run: 42 Seed: 1953868874 1830011108 [ Run 42 of 100 GA/GALS ]
Beginning LAMARCKIAN GENETIC ALGORITHM (LGA), with a maximum of 25000000 energy evaluations.

Final-Value: -5.868


	FINAL GENETIC ALGORITHM DOCKED STATE
	_______________________________________________


Detailed state:  trans -11.873 2.735 -10.198 quatxyzw -0.106026 -0.721850 0.454854 0.510684 center 0.015 0.083 0.031 ntor 6 -128.0861 -89.3717 -115.4934 9.4860 -10.2040 -21.9035
State:	-11.873   2.735 -10.198  -0.123 -0.840  0.529 118.581   -128.09  -89.37 -115.49    9.49  -10.20  -21.90

DOCKED: MODEL       42
DOCKED: USER    Run = 42
DOCKED: USER    DPF = D:/Protein_go_brrr/autodock/final/mut_K82N/2_3_BPG/dock.dpf
DOCKED: USER  
DOCKED: USER    Estimated Free Energy of Binding    =   -6.10 kcal/mol  [=(1)+(2)+(3)-(4)]
DOCKED: USER    Estimated Inhibition Constant, Ki   =   34.05 uM (micromolar)  [Temperature = 298.15 K]
DOCKED: USER    
DOCKED: USER    (1) Final Intermolecular Energy     =   -7.89 kcal/mol
DOCKED: USER        vdW + Hbond + desolv Energy     =   -2.72 kcal/mol
DOCKED: USER        Electrostatic Energy            =   -5.16 kcal/mol
DOCKED: USER    (2) Final Total Internal Energy     =   +2.02 kcal/mol
DOCKED: USER    (3) Torsional Free Energy           =   +1.79 kcal/mol
DOCKED: USER    (4) Unbound System's Energy  [=(2)] =   +2.02 kcal/mol
DOCKED: USER    
DOCKED: USER    
DOCKED: USER    NEWDPF move 2_3_BPG_opt.pdbqt
DOCKED: USER    NEWDPF about 0.015000 0.083000 0.031000
DOCKED: USER    NEWDPF tran0 -11.873011 2.734726 -10.198049
DOCKED: USER    NEWDPF quaternion0 -0.106026 -0.721850 0.454854 0.510684
DOCKED: USER    NEWDPF axisangle0 -0.123320 -0.839587 0.529043 118.581231
DOCKED: USER    NEWDPF quat0 -0.123320 -0.839587 0.529043 118.581231
DOCKED: USER    NEWDPF dihe0 -128.09 -89.37 -115.49 9.49 -10.20 -21.90 
DOCKED: USER  keepresnum = 1 
DOCKED: USER  
DOCKED: REMARK  6 active torsions:
DOCKED: REMARK  status: ('A' for Active; 'I' for Inactive)
DOCKED: REMARK    1  A    between atoms: P_1  and  O_3 
DOCKED: REMARK    2  A    between atoms: P_2  and  O_4 
DOCKED: REMARK    3  A    between atoms: O_3  and  C_13 
DOCKED: REMARK    4  A    between atoms: O_4  and  C_14 
DOCKED: REMARK    5  A    between atoms: C_13  and  C_14 
DOCKED: REMARK    6  A    between atoms: C_13  and  C_15 
DOCKED: USER                              x       y       z     vdW  Elec       q    Type
DOCKED: USER                           _______ _______ _______ _____ _____    ______ ____
DOCKED: ROOT
DOCKED: ATOM      1  C   UNL d   1     -11.739   2.670  -9.544 -0.09 +0.13    +0.193 C 
DOCKED: ENDROOT
DOCKED: BRANCH   1   2
DOCKED: ATOM      2  O   UNL d   1     -11.179   3.939  -9.065 -0.09 -0.35    -0.356 OA
DOCKED: BRANCH   2   3
DOCKED: ATOM      3  P   UNL d   1      -9.709   4.060  -8.339 -0.20 -0.02    -0.014 P 
DOCKED: ATOM      4  O   UNL d   1      -8.719   4.221  -9.504 -0.04 -0.24    -0.577 OA
DOCKED: ATOM      5  O   UNL d   1      -9.472   2.758  -7.577 -0.04 -0.69    -0.577 OA
DOCKED: ATOM      6  O   UNL d   1      -9.725   5.295  -7.444 -0.54 -1.01    -0.638 OA
DOCKED: ENDBRANCH   2   3
DOCKED: ENDBRANCH   1   2
DOCKED: BRANCH   1   7
DOCKED: ATOM      7  C   UNL d   1     -12.326   2.890 -10.987 -0.10 +0.08    +0.201 C 
DOCKED: BRANCH   7   8
DOCKED: ATOM      8  O   UNL d   1     -12.049   1.846 -11.946 -0.07 -0.16    -0.364 OA
DOCKED: BRANCH   8   9
DOCKED: ATOM      9  P   UNL d   1     -12.760   1.881 -13.440 -0.20 -0.01    -0.015 P 
DOCKED: ATOM     10  O   UNL d   1     -12.160   3.106 -14.139 -0.08 -0.46    -0.577 OA
DOCKED: ATOM     11  O   UNL d   1     -14.264   2.033 -13.214 -0.01 -0.33    -0.577 OA
DOCKED: ATOM     12  O   UNL d   1     -12.390   0.578 -14.146 -0.56 -1.15    -0.638 OA
DOCKED: ENDBRANCH   8   9
DOCKED: ENDBRANCH   7   8
DOCKED: ENDBRANCH   1   7
DOCKED: BRANCH   1  13
DOCKED: ATOM     13  C   UNL d   1     -12.902   2.200  -8.593 -0.10 +0.06    +0.073 C 
DOCKED: ATOM     14  O   UNL d   1     -12.597   1.719  -7.446 -0.61 -0.74    -0.547 OA
DOCKED: ATOM     15  O   UNL d   1     -14.103   2.388  -9.005 -0.01 -0.28    -0.547 OA
DOCKED: ENDBRANCH   1  13
DOCKED: TORSDOF 6
DOCKED: TER
DOCKED: ENDMDL
________________________________________________________________________________


	BEGINNING GENETIC ALGORITHM DOCKING 43 of 100
Run: 43 Seed: 478640990 41665141 [ Run 43 of 100 GA/GALS ]
Beginning LAMARCKIAN GENETIC ALGORITHM (LGA), with a maximum of 25000000 energy evaluations.

Final-Value: -5.802


	FINAL GENETIC ALGORITHM DOCKED STATE
	_______________________________________________


Detailed state:  trans -12.630 2.259 -12.176 quatxyzw 0.026655 0.608304 -0.039557 0.792270 center 0.015 0.083 0.031 ntor 6 114.7064 13.9825 -178.2798 10.7876 -9.7216 -16.9074
State:	-12.630   2.259 -12.176   0.044  0.997 -0.065 75.204    114.71   13.98 -178.28   10.79   -9.72  -16.91

DOCKED: MODEL       43
DOCKED: USER    Run = 43
DOCKED: USER    DPF = D:/Protein_go_brrr/autodock/final/mut_K82N/2_3_BPG/dock.dpf
DOCKED: USER  
DOCKED: USER    Estimated Free Energy of Binding    =   -6.07 kcal/mol  [=(1)+(2)+(3)-(4)]
DOCKED: USER    Estimated Inhibition Constant, Ki   =   35.57 uM (micromolar)  [Temperature = 298.15 K]
DOCKED: USER    
DOCKED: USER    (1) Final Intermolecular Energy     =   -7.86 kcal/mol
DOCKED: USER        vdW + Hbond + desolv Energy     =   -2.61 kcal/mol
DOCKED: USER        Electrostatic Energy            =   -5.25 kcal/mol
DOCKED: USER    (2) Final Total Internal Energy     =   +2.06 kcal/mol
DOCKED: USER    (3) Torsional Free Energy           =   +1.79 kcal/mol
DOCKED: USER    (4) Unbound System's Energy  [=(2)] =   +2.06 kcal/mol
DOCKED: USER    
DOCKED: USER    
DOCKED: USER    NEWDPF move 2_3_BPG_opt.pdbqt
DOCKED: USER    NEWDPF about 0.015000 0.083000 0.031000
DOCKED: USER    NEWDPF tran0 -12.630012 2.259421 -12.175816
DOCKED: USER    NEWDPF quaternion0 0.026655 0.608304 -0.039557 0.792270
DOCKED: USER    NEWDPF axisangle0 0.043684 0.996940 -0.064829 75.203715
DOCKED: USER    NEWDPF quat0 0.043684 0.996940 -0.064829 75.203715
DOCKED: USER    NEWDPF dihe0 114.71 13.98 -178.28 10.79 -9.72 -16.91 
DOCKED: USER  keepresnum = 1 
DOCKED: USER  
DOCKED: REMARK  6 active torsions:
DOCKED: REMARK  status: ('A' for Active; 'I' for Inactive)
DOCKED: REMARK    1  A    between atoms: P_1  and  O_3 
DOCKED: REMARK    2  A    between atoms: P_2  and  O_4 
DOCKED: REMARK    3  A    between atoms: O_3  and  C_13 
DOCKED: REMARK    4  A    between atoms: O_4  and  C_14 
DOCKED: REMARK    5  A    between atoms: C_13  and  C_14 
DOCKED: REMARK    6  A    between atoms: C_13  and  C_15 
DOCKED: USER                              x       y       z     vdW  Elec       q    Type
DOCKED: USER                           _______ _______ _______ _____ _____    ______ ____
DOCKED: ROOT
DOCKED: ATOM      1  C   UNL d   1     -12.861   1.893 -12.687 -0.14 +0.11    +0.193 C 
DOCKED: ENDROOT
DOCKED: BRANCH   1   2
DOCKED: ATOM      2  O   UNL d   1     -12.534   2.591 -13.935 -0.17 -0.33    -0.356 OA
DOCKED: BRANCH   2   3
DOCKED: ATOM      3  P   UNL d   1     -13.667   3.065 -15.029 -0.07 -0.02    -0.014 P 
DOCKED: ATOM      4  O   UNL d   1     -12.854   3.507 -16.256 -0.51 -0.82    -0.577 OA
DOCKED: ATOM      5  O   UNL d   1     -14.431   4.234 -14.410 +0.00 -0.25    -0.577 OA
DOCKED: ATOM      6  O   UNL d   1     -14.549   1.861 -15.345 -0.01 -0.92    -0.638 OA
DOCKED: ENDBRANCH   2   3
DOCKED: ENDBRANCH   1   2
DOCKED: BRANCH   1   7
DOCKED: ATOM      7  C   UNL d   1     -12.082   2.579 -11.505 -0.07 +0.08    +0.201 C 
DOCKED: BRANCH   7   8
DOCKED: ATOM      8  O   UNL d   1     -12.794   2.674 -10.252 -0.05 -0.17    -0.364 OA
DOCKED: BRANCH   8   9
DOCKED: ATOM      9  P   UNL d   1     -12.020   3.225  -8.898 -0.11 -0.02    -0.015 P 
DOCKED: ATOM     10  O   UNL d   1     -10.619   3.625  -9.374 -0.03 -0.44    -0.577 OA
DOCKED: ATOM     11  O   UNL d   1     -11.975   2.063  -7.906 -0.55 -0.88    -0.577 OA
DOCKED: ATOM     12  O   UNL d   1     -12.814   4.423  -8.380 -0.02 -0.76    -0.638 OA
DOCKED: ENDBRANCH   8   9
DOCKED: ENDBRANCH   7   8
DOCKED: ENDBRANCH   1   7
DOCKED: BRANCH   1  13
DOCKED: ATOM     13  C   UNL d   1     -12.413   0.386 -12.778 -0.21 +0.05    +0.073 C 
DOCKED: ATOM     14  O   UNL d   1     -12.413  -0.317 -11.708 -0.05 -0.18    -0.547 OA
DOCKED: ATOM     15  O   UNL d   1     -12.133  -0.069 -13.946 -0.63 -0.71    -0.547 OA
DOCKED: ENDBRANCH   1  13
DOCKED: TORSDOF 6
DOCKED: TER
DOCKED: ENDMDL
________________________________________________________________________________


	BEGINNING GENETIC ALGORITHM DOCKING 44 of 100
Run: 44 Seed: 1156087466 1503814778 [ Run 44 of 100 GA/GALS ]
Beginning LAMARCKIAN GENETIC ALGORITHM (LGA), with a maximum of 25000000 energy evaluations.

Final-Value: -6.363


	FINAL GENETIC ALGORITHM DOCKED STATE
	_______________________________________________


Detailed state:  trans 3.087 -13.192 -6.890 quatxyzw -0.667780 -0.172924 -0.662257 0.292545 center 0.015 0.083 0.031 ntor 6 -176.3193 162.4587 -0.5346 84.7532 54.1396 -2.5725
State:	  3.087 -13.192  -6.890  -0.698 -0.181 -0.693 145.979   -176.32  162.46   -0.53   84.75   54.14   -2.57

DOCKED: MODEL       44
DOCKED: USER    Run = 44
DOCKED: USER    DPF = D:/Protein_go_brrr/autodock/final/mut_K82N/2_3_BPG/dock.dpf
DOCKED: USER  
DOCKED: USER    Estimated Free Energy of Binding    =   -6.90 kcal/mol  [=(1)+(2)+(3)-(4)]
DOCKED: USER    Estimated Inhibition Constant, Ki   =    8.78 uM (micromolar)  [Temperature = 298.15 K]
DOCKED: USER    
DOCKED: USER    (1) Final Intermolecular Energy     =   -8.69 kcal/mol
DOCKED: USER        vdW + Hbond + desolv Energy     =   -4.29 kcal/mol
DOCKED: USER        Electrostatic Energy            =   -4.40 kcal/mol
DOCKED: USER    (2) Final Total Internal Energy     =   +2.33 kcal/mol
DOCKED: USER    (3) Torsional Free Energy           =   +1.79 kcal/mol
DOCKED: USER    (4) Unbound System's Energy  [=(2)] =   +2.33 kcal/mol
DOCKED: USER    
DOCKED: USER    
DOCKED: USER    NEWDPF move 2_3_BPG_opt.pdbqt
DOCKED: USER    NEWDPF about 0.015000 0.083000 0.031000
DOCKED: USER    NEWDPF tran0 3.086679 -13.191886 -6.889934
DOCKED: USER    NEWDPF quaternion0 -0.667780 -0.172924 -0.662257 0.292545
DOCKED: USER    NEWDPF axisangle0 -0.698331 -0.180835 -0.692555 145.979226
DOCKED: USER    NEWDPF quat0 -0.698331 -0.180835 -0.692555 145.979226
DOCKED: USER    NEWDPF dihe0 -176.32 162.46 -0.53 84.75 54.14 -2.57 
DOCKED: USER  keepresnum = 1 
DOCKED: USER  
DOCKED: REMARK  6 active torsions:
DOCKED: REMARK  status: ('A' for Active; 'I' for Inactive)
DOCKED: REMARK    1  A    between atoms: P_1  and  O_3 
DOCKED: REMARK    2  A    between atoms: P_2  and  O_4 
DOCKED: REMARK    3  A    between atoms: O_3  and  C_13 
DOCKED: REMARK    4  A    between atoms: O_4  and  C_14 
DOCKED: REMARK    5  A    between atoms: C_13  and  C_14 
DOCKED: REMARK    6  A    between atoms: C_13  and  C_15 
DOCKED: USER                              x       y       z     vdW  Elec       q    Type
DOCKED: USER                           _______ _______ _______ _____ _____    ______ ____
DOCKED: ROOT
DOCKED: ATOM      1  C   UNL d   1       3.190 -13.329  -7.538 -0.19 +0.09    +0.193 C 
DOCKED: ENDROOT
DOCKED: BRANCH   1   2
DOCKED: ATOM      2  O   UNL d   1       2.365 -14.488  -7.897 -0.59 -0.23    -0.356 OA
DOCKED: BRANCH   2   3
DOCKED: ATOM      3  P   UNL d   1       2.298 -15.863  -6.996 -0.20 -0.01    -0.014 P 
DOCKED: ATOM      4  O   UNL d   1       3.594 -15.842  -6.169 -0.07 -0.90    -0.577 OA
DOCKED: ATOM      5  O   UNL d   1       2.270 -17.040  -7.968 +0.01 -0.26    -0.577 OA
DOCKED: ATOM      6  O   UNL d   1       1.064 -15.781  -6.104 -0.48 -1.07    -0.638 OA
DOCKED: ENDBRANCH   2   3
DOCKED: ENDBRANCH   1   2
DOCKED: BRANCH   1   7
DOCKED: ATOM      7  C   UNL d   1       2.748 -12.815  -6.119 -0.29 +0.16    +0.201 C 
DOCKED: BRANCH   7   8
DOCKED: ATOM      8  O   UNL d   1       3.734 -12.054  -5.388 -0.29 -0.26    -0.364 OA
DOCKED: BRANCH   8   9
DOCKED: ATOM      9  P   UNL d   1       4.216 -12.547  -3.884 -0.50 -0.01    -0.015 P 
DOCKED: ATOM     10  O   UNL d   1       5.220 -11.485  -3.419 -0.50 -0.31    -0.577 OA
DOCKED: ATOM     11  O   UNL d   1       4.871 -13.917  -4.053 +0.00 -0.67    -0.577 OA
DOCKED: ATOM     12  O   UNL d   1       2.969 -12.584  -3.001 -0.52 -0.86    -0.638 OA
DOCKED: ENDBRANCH   8   9
DOCKED: ENDBRANCH   7   8
DOCKED: ENDBRANCH   1   7
DOCKED: BRANCH   1  13
DOCKED: ATOM     13  C   UNL d   1       2.978 -12.171  -8.583 -0.37 +0.01    +0.073 C 
DOCKED: ATOM     14  O   UNL d   1       4.000 -11.718  -9.209 -0.05 -0.04    -0.547 OA
DOCKED: ATOM     15  O   UNL d   1       1.770 -11.791  -8.793 -0.24 -0.02    -0.547 OA
DOCKED: ENDBRANCH   1  13
DOCKED: TORSDOF 6
DOCKED: TER
DOCKED: ENDMDL
________________________________________________________________________________


	BEGINNING GENETIC ALGORITHM DOCKING 45 of 100
Run: 45 Seed: 1013339308 1748120050 [ Run 45 of 100 GA/GALS ]
Beginning LAMARCKIAN GENETIC ALGORITHM (LGA), with a maximum of 25000000 energy evaluations.

Final-Value: -5.712


	FINAL GENETIC ALGORITHM DOCKED STATE
	_______________________________________________


Detailed state:  trans -12.932 1.672 -11.910 quatxyzw 0.129051 -0.552459 0.000035 -0.823489 center 0.015 0.083 0.031 ntor 6 144.4344 41.9166 -26.2940 -22.6001 -3.4979 -62.0744
State:	-12.932   1.672 -11.910   0.227 -0.974  0.000 -69.129    144.43   41.92  -26.29  -22.60   -3.50  -62.07

DOCKED: MODEL       45
DOCKED: USER    Run = 45
DOCKED: USER    DPF = D:/Protein_go_brrr/autodock/final/mut_K82N/2_3_BPG/dock.dpf
DOCKED: USER  
DOCKED: USER    Estimated Free Energy of Binding    =   -6.09 kcal/mol  [=(1)+(2)+(3)-(4)]
DOCKED: USER    Estimated Inhibition Constant, Ki   =   34.13 uM (micromolar)  [Temperature = 298.15 K]
DOCKED: USER    
DOCKED: USER    (1) Final Intermolecular Energy     =   -7.88 kcal/mol
DOCKED: USER        vdW + Hbond + desolv Energy     =   -2.46 kcal/mol
DOCKED: USER        Electrostatic Energy            =   -5.42 kcal/mol
DOCKED: USER    (2) Final Total Internal Energy     =   +2.17 kcal/mol
DOCKED: USER    (3) Torsional Free Energy           =   +1.79 kcal/mol
DOCKED: USER    (4) Unbound System's Energy  [=(2)] =   +2.17 kcal/mol
DOCKED: USER    
DOCKED: USER    
DOCKED: USER    NEWDPF move 2_3_BPG_opt.pdbqt
DOCKED: USER    NEWDPF about 0.015000 0.083000 0.031000
DOCKED: USER    NEWDPF tran0 -12.931588 1.672125 -11.909727
DOCKED: USER    NEWDPF quaternion0 0.129051 -0.552459 0.000035 -0.823489
DOCKED: USER    NEWDPF axisangle0 0.227469 -0.973785 0.000062 -69.128718
DOCKED: USER    NEWDPF quat0 0.227469 -0.973785 0.000062 -69.128718
DOCKED: USER    NEWDPF dihe0 144.43 41.92 -26.29 -22.60 -3.50 -62.07 
DOCKED: USER  keepresnum = 1 
DOCKED: USER  
DOCKED: REMARK  6 active torsions:
DOCKED: REMARK  status: ('A' for Active; 'I' for Inactive)
DOCKED: REMARK    1  A    between atoms: P_1  and  O_3 
DOCKED: REMARK    2  A    between atoms: P_2  and  O_4 
DOCKED: REMARK    3  A    between atoms: O_3  and  C_13 
DOCKED: REMARK    4  A    between atoms: O_4  and  C_14 
DOCKED: REMARK    5  A    between atoms: C_13  and  C_14 
DOCKED: REMARK    6  A    between atoms: C_13  and  C_15 
DOCKED: USER                              x       y       z     vdW  Elec       q    Type
DOCKED: USER                           _______ _______ _______ _____ _____    ______ ____
DOCKED: ROOT
DOCKED: ATOM      1  C   UNL d   1     -13.200   1.434 -12.476 -0.12 +0.10    +0.193 C 
DOCKED: ENDROOT
DOCKED: BRANCH   1   2
DOCKED: ATOM      2  O   UNL d   1     -13.138   2.492 -13.491 -0.11 -0.26    -0.356 OA
DOCKED: BRANCH   2   3
DOCKED: ATOM      3  P   UNL d   1     -14.165   2.575 -14.773 -0.07 -0.01    -0.014 P 
DOCKED: ATOM      4  O   UNL d   1     -13.287   3.060 -15.937 -0.40 -1.06    -0.577 OA
DOCKED: ATOM      5  O   UNL d   1     -15.246   3.595 -14.421 +0.01 -0.25    -0.577 OA
DOCKED: ATOM      6  O   UNL d   1     -14.712   1.175 -15.030 -0.01 -0.82    -0.638 OA
DOCKED: ENDBRANCH   2   3
DOCKED: ENDBRANCH   1   2
DOCKED: BRANCH   1   7
DOCKED: ATOM      7  C   UNL d   1     -12.322   1.865 -11.244 -0.09 +0.08    +0.201 C 
DOCKED: BRANCH   7   8
DOCKED: ATOM      8  O   UNL d   1     -13.036   2.465 -10.140 -0.04 -0.17    -0.364 OA
DOCKED: BRANCH   8   9
DOCKED: ATOM      9  P   UNL d   1     -12.217   2.946  -8.786 -0.11 -0.02    -0.015 P 
DOCKED: ATOM     10  O   UNL d   1     -13.098   4.030  -8.152 -0.05 -0.76    -0.577 OA
DOCKED: ATOM     11  O   UNL d   1     -10.873   3.504  -9.252 -0.04 -0.48    -0.577 OA
DOCKED: ATOM     12  O   UNL d   1     -12.076   1.721  -7.884 -0.59 -0.78    -0.638 OA
DOCKED: ENDBRANCH   8   9
DOCKED: ENDBRANCH   7   8
DOCKED: ENDBRANCH   1   7
DOCKED: BRANCH   1  13
DOCKED: ATOM     13  C   UNL d   1     -12.624   0.091 -13.061 -0.22 +0.05    +0.073 C 
DOCKED: ATOM     14  O   UNL d   1     -12.911  -1.007 -12.467 -0.03 -0.20    -0.547 OA
DOCKED: ATOM     15  O   UNL d   1     -11.944   0.172 -14.147 -0.60 -0.85    -0.547 OA
DOCKED: ENDBRANCH   1  13
DOCKED: TORSDOF 6
DOCKED: TER
DOCKED: ENDMDL
________________________________________________________________________________


	BEGINNING GENETIC ALGORITHM DOCKING 46 of 100
Run: 46 Seed: 808301612 454718126 [ Run 46 of 100 GA/GALS ]
Beginning LAMARCKIAN GENETIC ALGORITHM (LGA), with a maximum of 25000000 energy evaluations.

Final-Value: -7.041


	FINAL GENETIC ALGORITHM DOCKED STATE
	_______________________________________________


Detailed state:  trans 1.872 -13.442 -6.151 quatxyzw 0.240745 -0.634852 -0.724376 -0.119516 center 0.015 0.083 0.031 ntor 6 69.8907 156.9910 -43.0548 28.4117 8.4822 -71.7174
State:	  1.872 -13.442  -6.151   0.242 -0.639 -0.730 -166.272     69.89  156.99  -43.05   28.41    8.48  -71.72

DOCKED: MODEL       46
DOCKED: USER    Run = 46
DOCKED: USER    DPF = D:/Protein_go_brrr/autodock/final/mut_K82N/2_3_BPG/dock.dpf
DOCKED: USER  
DOCKED: USER    Estimated Free Energy of Binding    =   -7.38 kcal/mol  [=(1)+(2)+(3)-(4)]
DOCKED: USER    Estimated Inhibition Constant, Ki   =    3.89 uM (micromolar)  [Temperature = 298.15 K]
DOCKED: USER    
DOCKED: USER    (1) Final Intermolecular Energy     =   -9.17 kcal/mol
DOCKED: USER        vdW + Hbond + desolv Energy     =   -5.01 kcal/mol
DOCKED: USER        Electrostatic Energy            =   -4.16 kcal/mol
DOCKED: USER    (2) Final Total Internal Energy     =   +2.13 kcal/mol
DOCKED: USER    (3) Torsional Free Energy           =   +1.79 kcal/mol
DOCKED: USER    (4) Unbound System's Energy  [=(2)] =   +2.13 kcal/mol
DOCKED: USER    
DOCKED: USER    
DOCKED: USER    NEWDPF move 2_3_BPG_opt.pdbqt
DOCKED: USER    NEWDPF about 0.015000 0.083000 0.031000
DOCKED: USER    NEWDPF tran0 1.871583 -13.442005 -6.150656
DOCKED: USER    NEWDPF quaternion0 0.240745 -0.634852 -0.724376 -0.119516
DOCKED: USER    NEWDPF axisangle0 0.242483 -0.639435 -0.729606 -166.271685
DOCKED: USER    NEWDPF quat0 0.242483 -0.639435 -0.729606 -166.271685
DOCKED: USER    NEWDPF dihe0 69.89 156.99 -43.05 28.41 8.48 -71.72 
DOCKED: USER  keepresnum = 1 
DOCKED: USER  
DOCKED: REMARK  6 active torsions:
DOCKED: REMARK  status: ('A' for Active; 'I' for Inactive)
DOCKED: REMARK    1  A    between atoms: P_1  and  O_3 
DOCKED: REMARK    2  A    between atoms: P_2  and  O_4 
DOCKED: REMARK    3  A    between atoms: O_3  and  C_13 
DOCKED: REMARK    4  A    between atoms: O_4  and  C_14 
DOCKED: REMARK    5  A    between atoms: C_13  and  C_14 
DOCKED: REMARK    6  A    between atoms: C_13  and  C_15 
DOCKED: USER                              x       y       z     vdW  Elec       q    Type
DOCKED: USER                           _______ _______ _______ _____ _____    ______ ____
DOCKED: ROOT
DOCKED: ATOM      1  C   UNL d   1       2.368 -13.030  -6.333 -0.27 +0.15    +0.193 C 
DOCKED: ENDROOT
DOCKED: BRANCH   1   2
DOCKED: ATOM      2  O   UNL d   1       3.482 -13.213  -5.396 -0.25 -0.48    -0.356 OA
DOCKED: BRANCH   2   3
DOCKED: ATOM      3  P   UNL d   1       3.840 -12.145  -4.198 -0.58 -0.01    -0.014 P 
DOCKED: ATOM      4  O   UNL d   1       3.317 -10.797  -4.718 +0.16 -0.25    -0.577 OA
DOCKED: ATOM      5  O   UNL d   1       5.359 -12.136  -4.039 -0.63 -0.37    -0.577 OA
DOCKED: ATOM      6  O   UNL d   1       3.099 -12.584  -2.939 -0.49 -0.82    -0.638 OA
DOCKED: ENDBRANCH   2   3
DOCKED: ENDBRANCH   1   2
DOCKED: BRANCH   1   7
DOCKED: ATOM      7  C   UNL d   1       1.321 -14.181  -6.104 +0.40 +0.26    +0.201 C 
DOCKED: BRANCH   7   8
DOCKED: ATOM      8  O   UNL d   1       0.314 -13.928  -5.099 -0.27 -0.45    -0.364 OA
DOCKED: BRANCH   8   9
DOCKED: ATOM      9  P   UNL d   1      -0.657 -15.157  -4.568 -0.60 -0.02    -0.015 P 
DOCKED: ATOM     10  O   UNL d   1      -0.769 -14.952  -3.053 -0.52 -0.55    -0.577 OA
DOCKED: ATOM     11  O   UNL d   1       0.051 -16.467  -4.916 -0.43 -0.81    -0.577 OA
DOCKED: ATOM     12  O   UNL d   1      -2.005 -15.002  -5.270 -0.60 -0.44    -0.638 OA
DOCKED: ENDBRANCH   8   9
DOCKED: ENDBRANCH   7   8
DOCKED: ENDBRANCH   1   7
DOCKED: BRANCH   1  13
DOCKED: ATOM     13  C   UNL d   1       2.890 -13.111  -7.816 -0.27 +0.03    +0.073 C 
DOCKED: ATOM     14  O   UNL d   1       2.364 -13.973  -8.603 -0.61 -0.27    -0.547 OA
DOCKED: ATOM     15  O   UNL d   1       3.779 -12.254  -8.168 -0.05 -0.13    -0.547 OA
DOCKED: ENDBRANCH   1  13
DOCKED: TORSDOF 6
DOCKED: TER
DOCKED: ENDMDL
________________________________________________________________________________


	BEGINNING GENETIC ALGORITHM DOCKING 47 of 100
Run: 47 Seed: 1495337930 904017635 [ Run 47 of 100 GA/GALS ]
Beginning LAMARCKIAN GENETIC ALGORITHM (LGA), with a maximum of 25000000 energy evaluations.

Final-Value: -5.850


	FINAL GENETIC ALGORITHM DOCKED STATE
	_______________________________________________


Detailed state:  trans -11.844 2.594 -10.232 quatxyzw 0.002489 -0.732301 0.542987 0.410967 center 0.015 0.083 0.031 ntor 6 -160.8201 -44.0533 -85.4515 -27.0822 -10.7558 -64.8228
State:	-11.844   2.594 -10.232   0.003 -0.803  0.596 131.469   -160.82  -44.05  -85.45  -27.08  -10.76  -64.82

DOCKED: MODEL       47
DOCKED: USER    Run = 47
DOCKED: USER    DPF = D:/Protein_go_brrr/autodock/final/mut_K82N/2_3_BPG/dock.dpf
DOCKED: USER  
DOCKED: USER    Estimated Free Energy of Binding    =   -6.13 kcal/mol  [=(1)+(2)+(3)-(4)]
DOCKED: USER    Estimated Inhibition Constant, Ki   =   32.03 uM (micromolar)  [Temperature = 298.15 K]
DOCKED: USER    
DOCKED: USER    (1) Final Intermolecular Energy     =   -7.92 kcal/mol
DOCKED: USER        vdW + Hbond + desolv Energy     =   -2.56 kcal/mol
DOCKED: USER        Electrostatic Energy            =   -5.37 kcal/mol
DOCKED: USER    (2) Final Total Internal Energy     =   +2.07 kcal/mol
DOCKED: USER    (3) Torsional Free Energy           =   +1.79 kcal/mol
DOCKED: USER    (4) Unbound System's Energy  [=(2)] =   +2.07 kcal/mol
DOCKED: USER    
DOCKED: USER    
DOCKED: USER    NEWDPF move 2_3_BPG_opt.pdbqt
DOCKED: USER    NEWDPF about 0.015000 0.083000 0.031000
DOCKED: USER    NEWDPF tran0 -11.843958 2.593805 -10.232308
DOCKED: USER    NEWDPF quaternion0 0.002489 -0.732301 0.542987 0.410967
DOCKED: USER    NEWDPF axisangle0 0.002730 -0.803270 0.595609 131.468831
DOCKED: USER    NEWDPF quat0 0.002730 -0.803270 0.595609 131.468831
DOCKED: USER    NEWDPF dihe0 -160.82 -44.05 -85.45 -27.08 -10.76 -64.82 
DOCKED: USER  keepresnum = 1 
DOCKED: USER  
DOCKED: REMARK  6 active torsions:
DOCKED: REMARK  status: ('A' for Active; 'I' for Inactive)
DOCKED: REMARK    1  A    between atoms: P_1  and  O_3 
DOCKED: REMARK    2  A    between atoms: P_2  and  O_4 
DOCKED: REMARK    3  A    between atoms: O_3  and  C_13 
DOCKED: REMARK    4  A    between atoms: O_4  and  C_14 
DOCKED: REMARK    5  A    between atoms: C_13  and  C_14 
DOCKED: REMARK    6  A    between atoms: C_13  and  C_15 
DOCKED: USER                              x       y       z     vdW  Elec       q    Type
DOCKED: USER                           _______ _______ _______ _____ _____    ______ ____
DOCKED: ROOT
DOCKED: ATOM      1  C   UNL d   1     -11.538   2.656  -9.639 -0.03 +0.12    +0.193 C 
DOCKED: ENDROOT
DOCKED: BRANCH   1   2
DOCKED: ATOM      2  O   UNL d   1     -10.878   3.966  -9.600 -0.09 -0.24    -0.356 OA
DOCKED: BRANCH   2   3
DOCKED: ATOM      3  P   UNL d   1      -9.643   4.324  -8.574 -0.25 -0.01    -0.014 P 
DOCKED: ATOM      4  O   UNL d   1      -8.581   4.982  -9.469 -0.04 -0.22    -0.577 OA
DOCKED: ATOM      5  O   UNL d   1      -9.144   3.005  -7.988 -0.07 -0.52    -0.577 OA
DOCKED: ATOM      6  O   UNL d   1     -10.170   5.295  -7.523 -0.32 -1.20    -0.638 OA
DOCKED: ENDBRANCH   2   3
DOCKED: ENDBRANCH   1   2
DOCKED: BRANCH   1   7
DOCKED: ATOM      7  C   UNL d   1     -12.494   2.610 -10.887 -0.10 +0.08    +0.201 C 
DOCKED: BRANCH   7   8
DOCKED: ATOM      8  O   UNL d   1     -11.938   2.027 -12.087 -0.05 -0.17    -0.364 OA
DOCKED: BRANCH   8   9
DOCKED: ATOM      9  P   UNL d   1     -12.904   1.751 -13.400 -0.21 -0.01    -0.015 P 
DOCKED: ATOM     10  O   UNL d   1     -12.692   2.964 -14.314 -0.10 -0.55    -0.577 OA
DOCKED: ATOM     11  O   UNL d   1     -14.342   1.667 -12.887 -0.00 -0.29    -0.577 OA
DOCKED: ATOM     12  O   UNL d   1     -12.424   0.453 -14.049 -0.59 -1.05    -0.638 OA
DOCKED: ENDBRANCH   8   9
DOCKED: ENDBRANCH   7   8
DOCKED: ENDBRANCH   1   7
DOCKED: BRANCH   1  13
DOCKED: ATOM     13  C   UNL d   1     -12.397   2.445  -8.337 +0.02 +0.09    +0.073 C 
DOCKED: ATOM     14  O   UNL d   1     -11.974   1.621  -7.452 -0.56 -0.82    -0.547 OA
DOCKED: ATOM     15  O   UNL d   1     -13.451   3.167  -8.212 -0.18 -0.58    -0.547 OA
DOCKED: ENDBRANCH   1  13
DOCKED: TORSDOF 6
DOCKED: TER
DOCKED: ENDMDL
________________________________________________________________________________


	BEGINNING GENETIC ALGORITHM DOCKING 48 of 100
Run: 48 Seed: 1791852233 320233977 [ Run 48 of 100 GA/GALS ]
Beginning LAMARCKIAN GENETIC ALGORITHM (LGA), with a maximum of 25000000 energy evaluations.

Final-Value: -6.398


	FINAL GENETIC ALGORITHM DOCKED STATE
	_______________________________________________


Detailed state:  trans 0.104 -17.332 -6.046 quatxyzw 0.103268 0.984944 0.107072 0.088073 center 0.015 0.083 0.031 ntor 6 159.1145 -114.7401 -163.0920 29.0653 -44.1579 -166.9362
State:	  0.104 -17.332  -6.046   0.104  0.989  0.107 169.895    159.11 -114.74 -163.09   29.07  -44.16 -166.94

DOCKED: MODEL       48
DOCKED: USER    Run = 48
DOCKED: USER    DPF = D:/Protein_go_brrr/autodock/final/mut_K82N/2_3_BPG/dock.dpf
DOCKED: USER  
DOCKED: USER    Estimated Free Energy of Binding    =   -6.95 kcal/mol  [=(1)+(2)+(3)-(4)]
DOCKED: USER    Estimated Inhibition Constant, Ki   =    8.08 uM (micromolar)  [Temperature = 298.15 K]
DOCKED: USER    
DOCKED: USER    (1) Final Intermolecular Energy     =   -8.74 kcal/mol
DOCKED: USER        vdW + Hbond + desolv Energy     =   -4.10 kcal/mol
DOCKED: USER        Electrostatic Energy            =   -4.63 kcal/mol
DOCKED: USER    (2) Final Total Internal Energy     =   +2.34 kcal/mol
DOCKED: USER    (3) Torsional Free Energy           =   +1.79 kcal/mol
DOCKED: USER    (4) Unbound System's Energy  [=(2)] =   +2.34 kcal/mol
DOCKED: USER    
DOCKED: USER    
DOCKED: USER    NEWDPF move 2_3_BPG_opt.pdbqt
DOCKED: USER    NEWDPF about 0.015000 0.083000 0.031000
DOCKED: USER    NEWDPF tran0 0.104484 -17.331914 -6.046399
DOCKED: USER    NEWDPF quaternion0 0.103268 0.984944 0.107072 0.088073
DOCKED: USER    NEWDPF axisangle0 0.103671 0.988786 0.107490 169.894515
DOCKED: USER    NEWDPF quat0 0.103671 0.988786 0.107490 169.894515
DOCKED: USER    NEWDPF dihe0 159.11 -114.74 -163.09 29.07 -44.16 -166.94 
DOCKED: USER  keepresnum = 1 
DOCKED: USER  
DOCKED: REMARK  6 active torsions:
DOCKED: REMARK  status: ('A' for Active; 'I' for Inactive)
DOCKED: REMARK    1  A    between atoms: P_1  and  O_3 
DOCKED: REMARK    2  A    between atoms: P_2  and  O_4 
DOCKED: REMARK    3  A    between atoms: O_3  and  C_13 
DOCKED: REMARK    4  A    between atoms: O_4  and  C_14 
DOCKED: REMARK    5  A    between atoms: C_13  and  C_14 
DOCKED: REMARK    6  A    between atoms: C_13  and  C_15 
DOCKED: USER                              x       y       z     vdW  Elec       q    Type
DOCKED: USER                           _______ _______ _______ _____ _____    ______ ____
DOCKED: ROOT
DOCKED: ATOM      1  C   UNL d   1       0.585 -17.717  -6.311 -0.14 +0.13    +0.193 C 
DOCKED: ENDROOT
DOCKED: BRANCH   1   2
DOCKED: ATOM      2  O   UNL d   1       1.872 -17.295  -5.744 -0.34 -0.52    -0.356 OA
DOCKED: BRANCH   2   3
DOCKED: ATOM      3  P   UNL d   1       2.963 -16.380  -6.565 -0.06 -0.02    -0.014 P 
DOCKED: ATOM      4  O   UNL d   1       2.219 -15.068  -6.859 -0.19 -0.67    -0.577 OA
DOCKED: ATOM      5  O   UNL d   1       3.308 -17.131  -7.850 +0.02 -0.25    -0.577 OA
DOCKED: ATOM      6  O   UNL d   1       4.165 -16.150  -5.655 -0.32 -1.06    -0.638 OA
DOCKED: ENDBRANCH   2   3
DOCKED: ENDBRANCH   1   2
DOCKED: BRANCH   1   7
DOCKED: ATOM      7  C   UNL d   1      -0.574 -17.033  -5.496 -0.24 +0.13    +0.201 C 
DOCKED: BRANCH   7   8
DOCKED: ATOM      8  O   UNL d   1      -0.171 -16.309  -4.312 -0.32 -0.50    -0.364 OA
DOCKED: BRANCH   8   9
DOCKED: ATOM      9  P   UNL d   1      -0.867 -14.852  -3.953 -0.72 -0.01    -0.015 P 
DOCKED: ATOM     10  O   UNL d   1      -2.171 -14.824  -4.760 -0.76 -0.42    -0.577 OA
DOCKED: ATOM     11  O   UNL d   1       0.109 -13.768  -4.407 -0.20 -0.72    -0.577 OA
DOCKED: ATOM     12  O   UNL d   1      -1.124 -14.834  -2.447 -0.70 -0.48    -0.638 OA
DOCKED: ENDBRANCH   8   9
DOCKED: ENDBRANCH   7   8
DOCKED: ENDBRANCH   1   7
DOCKED: BRANCH   1  13
DOCKED: ATOM     13  C   UNL d   1       0.430 -19.279  -6.194 -0.10 +0.02    +0.073 C 
DOCKED: ATOM     14  O   UNL d   1      -0.216 -19.900  -7.109 +0.01 -0.08    -0.547 OA
DOCKED: ATOM     15  O   UNL d   1       1.022 -19.851  -5.208 -0.04 -0.18    -0.547 OA
DOCKED: ENDBRANCH   1  13
DOCKED: TORSDOF 6
DOCKED: TER
DOCKED: ENDMDL
________________________________________________________________________________


	BEGINNING GENETIC ALGORITHM DOCKING 49 of 100
Run: 49 Seed: 1620064376 1450417843 [ Run 49 of 100 GA/GALS ]
Beginning LAMARCKIAN GENETIC ALGORITHM (LGA), with a maximum of 25000000 energy evaluations.

Final-Value: -5.859


	FINAL GENETIC ALGORITHM DOCKED STATE
	_______________________________________________


Detailed state:  trans -12.629 2.319 -12.139 quatxyzw -0.002845 0.607780 -0.026358 0.793663 center 0.015 0.083 0.031 ntor 6 111.1101 -96.5461 -52.7128 1.7079 -14.5374 -30.4266
State:	-12.629   2.319 -12.139  -0.005  0.999 -0.043 74.942    111.11  -96.55  -52.71    1.71  -14.54  -30.43

DOCKED: MODEL       49
DOCKED: USER    Run = 49
DOCKED: USER    DPF = D:/Protein_go_brrr/autodock/final/mut_K82N/2_3_BPG/dock.dpf
DOCKED: USER  
DOCKED: USER    Estimated Free Energy of Binding    =   -6.16 kcal/mol  [=(1)+(2)+(3)-(4)]
DOCKED: USER    Estimated Inhibition Constant, Ki   =   30.66 uM (micromolar)  [Temperature = 298.15 K]
DOCKED: USER    
DOCKED: USER    (1) Final Intermolecular Energy     =   -7.95 kcal/mol
DOCKED: USER        vdW + Hbond + desolv Energy     =   -2.62 kcal/mol
DOCKED: USER        Electrostatic Energy            =   -5.33 kcal/mol
DOCKED: USER    (2) Final Total Internal Energy     =   +2.09 kcal/mol
DOCKED: USER    (3) Torsional Free Energy           =   +1.79 kcal/mol
DOCKED: USER    (4) Unbound System's Energy  [=(2)] =   +2.09 kcal/mol
DOCKED: USER    
DOCKED: USER    
DOCKED: USER    NEWDPF move 2_3_BPG_opt.pdbqt
DOCKED: USER    NEWDPF about 0.015000 0.083000 0.031000
DOCKED: USER    NEWDPF tran0 -12.629214 2.319200 -12.139278
DOCKED: USER    NEWDPF quaternion0 -0.002845 0.607780 -0.026358 0.793663
DOCKED: USER    NEWDPF axisangle0 -0.004677 0.999050 -0.043326 74.941714
DOCKED: USER    NEWDPF quat0 -0.004677 0.999050 -0.043326 74.941714
DOCKED: USER    NEWDPF dihe0 111.11 -96.55 -52.71 1.71 -14.54 -30.43 
DOCKED: USER  keepresnum = 1 
DOCKED: USER  
DOCKED: REMARK  6 active torsions:
DOCKED: REMARK  status: ('A' for Active; 'I' for Inactive)
DOCKED: REMARK    1  A    between atoms: P_1  and  O_3 
DOCKED: REMARK    2  A    between atoms: P_2  and  O_4 
DOCKED: REMARK    3  A    between atoms: O_3  and  C_13 
DOCKED: REMARK    4  A    between atoms: O_4  and  C_14 
DOCKED: REMARK    5  A    between atoms: C_13  and  C_14 
DOCKED: REMARK    6  A    between atoms: C_13  and  C_15 
DOCKED: USER                              x       y       z     vdW  Elec       q    Type
DOCKED: USER                           _______ _______ _______ _____ _____    ______ ____
DOCKED: ROOT
DOCKED: ATOM      1  C   UNL d   1     -12.857   1.982 -12.672 -0.14 +0.11    +0.193 C 
DOCKED: ENDROOT
DOCKED: BRANCH   1   2
DOCKED: ATOM      2  O   UNL d   1     -12.546   2.762 -13.875 -0.14 -0.30    -0.356 OA
DOCKED: BRANCH   2   3
DOCKED: ATOM      3  P   UNL d   1     -13.653   3.102 -15.042 -0.07 -0.02    -0.014 P 
DOCKED: ATOM      4  O   UNL d   1     -14.465   4.275 -14.469 +0.00 -0.24    -0.577 OA
DOCKED: ATOM      5  O   UNL d   1     -14.518   1.856 -15.223 -0.02 -0.81    -0.577 OA
DOCKED: ATOM      6  O   UNL d   1     -12.899   3.507 -16.304 -0.51 -0.91    -0.638 OA
DOCKED: ENDBRANCH   2   3
DOCKED: ENDBRANCH   1   2
DOCKED: BRANCH   1   7
DOCKED: ATOM      7  C   UNL d   1     -12.083   2.604 -11.452 -0.08 +0.08    +0.201 C 
DOCKED: BRANCH   7   8
DOCKED: ATOM      8  O   UNL d   1     -12.878   2.889 -10.280 -0.04 -0.17    -0.364 OA
DOCKED: BRANCH   8   9
DOCKED: ATOM      9  P   UNL d   1     -12.140   3.274  -8.850 -0.10 -0.02    -0.015 P 
DOCKED: ATOM     10  O   UNL d   1     -12.828   4.561  -8.380 -0.02 -0.67    -0.577 OA
DOCKED: ATOM     11  O   UNL d   1     -10.659   3.498  -9.159 -0.04 -0.49    -0.577 OA
DOCKED: ATOM     12  O   UNL d   1     -12.381   2.110  -7.890 -0.58 -0.93    -0.638 OA
DOCKED: ENDBRANCH   8   9
DOCKED: ENDBRANCH   7   8
DOCKED: ENDBRANCH   1   7
DOCKED: BRANCH   1  13
DOCKED: ATOM     13  C   UNL d   1     -12.388   0.491 -12.859 -0.20 +0.05    +0.073 C 
DOCKED: ATOM     14  O   UNL d   1     -12.305  -0.259 -11.824 -0.06 -0.19    -0.547 OA
DOCKED: ATOM     15  O   UNL d   1     -12.174   0.094 -14.061 -0.62 -0.82    -0.547 OA
DOCKED: ENDBRANCH   1  13
DOCKED: TORSDOF 6
DOCKED: TER
DOCKED: ENDMDL
________________________________________________________________________________


	BEGINNING GENETIC ALGORITHM DOCKING 50 of 100
Run: 50 Seed: 720447204 965571315 [ Run 50 of 100 GA/GALS ]
Beginning LAMARCKIAN GENETIC ALGORITHM (LGA), with a maximum of 25000000 energy evaluations.

Final-Value: -5.688


	FINAL GENETIC ALGORITHM DOCKED STATE
	_______________________________________________


Detailed state:  trans -12.753 2.171 -12.037 quatxyzw 0.046485 -0.613825 -0.090181 -0.782895 center 0.015 0.083 0.031 ntor 6 -41.3641 41.2881 -24.4590 -17.1374 -4.1750 -63.0988
State:	-12.753   2.171 -12.037   0.075 -0.987 -0.145 -76.947    -41.36   41.29  -24.46  -17.14   -4.17  -63.10

DOCKED: MODEL       50
DOCKED: USER    Run = 50
DOCKED: USER    DPF = D:/Protein_go_brrr/autodock/final/mut_K82N/2_3_BPG/dock.dpf
DOCKED: USER  
DOCKED: USER    Estimated Free Energy of Binding    =   -6.01 kcal/mol  [=(1)+(2)+(3)-(4)]
DOCKED: USER    Estimated Inhibition Constant, Ki   =   39.12 uM (micromolar)  [Temperature = 298.15 K]
DOCKED: USER    
DOCKED: USER    (1) Final Intermolecular Energy     =   -7.80 kcal/mol
DOCKED: USER        vdW + Hbond + desolv Energy     =   -2.46 kcal/mol
DOCKED: USER        Electrostatic Energy            =   -5.35 kcal/mol
DOCKED: USER    (2) Final Total Internal Energy     =   +2.11 kcal/mol
DOCKED: USER    (3) Torsional Free Energy           =   +1.79 kcal/mol
DOCKED: USER    (4) Unbound System's Energy  [=(2)] =   +2.11 kcal/mol
DOCKED: USER    
DOCKED: USER    
DOCKED: USER    NEWDPF move 2_3_BPG_opt.pdbqt
DOCKED: USER    NEWDPF about 0.015000 0.083000 0.031000
DOCKED: USER    NEWDPF tran0 -12.753168 2.170647 -12.037393
DOCKED: USER    NEWDPF quaternion0 0.046485 -0.613825 -0.090181 -0.782895
DOCKED: USER    NEWDPF axisangle0 0.074716 -0.986614 -0.144950 -76.947136
DOCKED: USER    NEWDPF quat0 0.074716 -0.986614 -0.144950 -76.947136
DOCKED: USER    NEWDPF dihe0 -41.36 41.29 -24.46 -17.14 -4.17 -63.10 
DOCKED: USER  keepresnum = 1 
DOCKED: USER  
DOCKED: REMARK  6 active torsions:
DOCKED: REMARK  status: ('A' for Active; 'I' for Inactive)
DOCKED: REMARK    1  A    between atoms: P_1  and  O_3 
DOCKED: REMARK    2  A    between atoms: P_2  and  O_4 
DOCKED: REMARK    3  A    between atoms: O_3  and  C_13 
DOCKED: REMARK    4  A    between atoms: O_4  and  C_14 
DOCKED: REMARK    5  A    between atoms: C_13  and  C_14 
DOCKED: REMARK    6  A    between atoms: C_13  and  C_15 
DOCKED: USER                              x       y       z     vdW  Elec       q    Type
DOCKED: USER                           _______ _______ _______ _____ _____    ______ ____
DOCKED: ROOT
DOCKED: ATOM      1  C   UNL d   1     -13.004   1.985 -12.630 -0.13 +0.11    +0.193 C 
DOCKED: ENDROOT
DOCKED: BRANCH   1   2
DOCKED: ATOM      2  O   UNL d   1     -12.556   2.950 -13.640 -0.12 -0.25    -0.356 OA
DOCKED: BRANCH   2   3
DOCKED: ATOM      3  P   UNL d   1     -13.433   3.331 -14.978 -0.11 -0.01    -0.014 P 
DOCKED: ATOM      4  O   UNL d   1     -12.384   3.509 -16.086 -0.36 -0.77    -0.577 OA
DOCKED: ATOM      5  O   UNL d   1     -14.164   4.639 -14.682 +0.00 -0.23    -0.577 OA
DOCKED: ATOM      6  O   UNL d   1     -14.370   2.165 -15.275 -0.09 -0.91    -0.638 OA
DOCKED: ENDBRANCH   2   3
DOCKED: ENDBRANCH   1   2
DOCKED: BRANCH   1   7
DOCKED: ATOM      7  C   UNL d   1     -12.198   2.231 -11.302 -0.07 +0.08    +0.201 C 
DOCKED: BRANCH   7   8
DOCKED: ATOM      8  O   UNL d   1     -12.851   3.055 -10.312 -0.04 -0.17    -0.364 OA
DOCKED: BRANCH   8   9
DOCKED: ATOM      9  P   UNL d   1     -12.109   3.359  -8.865 -0.10 -0.02    -0.015 P 
DOCKED: ATOM     10  O   UNL d   1     -12.761   4.646  -8.345 -0.02 -0.69    -0.577 OA
DOCKED: ATOM     11  O   UNL d   1     -10.621   3.551  -9.159 -0.04 -0.49    -0.577 OA
DOCKED: ATOM     12  O   UNL d   1     -12.390   2.165  -7.954 -0.57 -0.92    -0.638 OA
DOCKED: ENDBRANCH   8   9
DOCKED: ENDBRANCH   7   8
DOCKED: ENDBRANCH   1   7
DOCKED: BRANCH   1  13
DOCKED: ATOM     13  C   UNL d   1     -12.724   0.517 -13.125 -0.20 +0.06    +0.073 C 
DOCKED: ATOM     14  O   UNL d   1     -11.969   0.350 -14.146 -0.60 -0.90    -0.547 OA
DOCKED: ATOM     15  O   UNL d   1     -13.225  -0.438 -12.429 -0.03 -0.23    -0.547 OA
DOCKED: ENDBRANCH   1  13
DOCKED: TORSDOF 6
DOCKED: TER
DOCKED: ENDMDL
________________________________________________________________________________


	BEGINNING GENETIC ALGORITHM DOCKING 51 of 100
Run: 51 Seed: 1371858274 2090983319 [ Run 51 of 100 GA/GALS ]
Beginning LAMARCKIAN GENETIC ALGORITHM (LGA), with a maximum of 25000000 energy evaluations.

Final-Value: -5.706


	FINAL GENETIC ALGORITHM DOCKED STATE
	_______________________________________________


Detailed state:  trans -12.651 1.679 -11.959 quatxyzw 0.065432 -0.582160 0.029539 -0.809899 center 0.015 0.083 0.031 ntor 6 122.2485 -100.0133 -152.9059 0.5947 -6.4676 -46.6437
State:	-12.651   1.679 -11.959   0.112 -0.992  0.050 -71.828    122.25 -100.01 -152.91    0.59   -6.47  -46.64

DOCKED: MODEL       51
DOCKED: USER    Run = 51
DOCKED: USER    DPF = D:/Protein_go_brrr/autodock/final/mut_K82N/2_3_BPG/dock.dpf
DOCKED: USER  
DOCKED: USER    Estimated Free Energy of Binding    =   -5.97 kcal/mol  [=(1)+(2)+(3)-(4)]
DOCKED: USER    Estimated Inhibition Constant, Ki   =   41.73 uM (micromolar)  [Temperature = 298.15 K]
DOCKED: USER    
DOCKED: USER    (1) Final Intermolecular Energy     =   -7.76 kcal/mol
DOCKED: USER        vdW + Hbond + desolv Energy     =   -2.54 kcal/mol
DOCKED: USER        Electrostatic Energy            =   -5.22 kcal/mol
DOCKED: USER    (2) Final Total Internal Energy     =   +2.06 kcal/mol
DOCKED: USER    (3) Torsional Free Energy           =   +1.79 kcal/mol
DOCKED: USER    (4) Unbound System's Energy  [=(2)] =   +2.06 kcal/mol
DOCKED: USER    
DOCKED: USER    
DOCKED: USER    NEWDPF move 2_3_BPG_opt.pdbqt
DOCKED: USER    NEWDPF about 0.015000 0.083000 0.031000
DOCKED: USER    NEWDPF tran0 -12.650659 1.678555 -11.958590
DOCKED: USER    NEWDPF quaternion0 0.065432 -0.582160 0.029539 -0.809899
DOCKED: USER    NEWDPF axisangle0 0.111550 -0.992482 0.050359 -71.827895
DOCKED: USER    NEWDPF quat0 0.111550 -0.992482 0.050359 -71.827895
DOCKED: USER    NEWDPF dihe0 122.25 -100.01 -152.91 0.59 -6.47 -46.64 
DOCKED: USER  keepresnum = 1 
DOCKED: USER  
DOCKED: REMARK  6 active torsions:
DOCKED: REMARK  status: ('A' for Active; 'I' for Inactive)
DOCKED: REMARK    1  A    between atoms: P_1  and  O_3 
DOCKED: REMARK    2  A    between atoms: P_2  and  O_4 
DOCKED: REMARK    3  A    between atoms: O_3  and  C_13 
DOCKED: REMARK    4  A    between atoms: O_4  and  C_14 
DOCKED: REMARK    5  A    between atoms: C_13  and  C_14 
DOCKED: REMARK    6  A    between atoms: C_13  and  C_15 
DOCKED: USER                              x       y       z     vdW  Elec       q    Type
DOCKED: USER                           _______ _______ _______ _____ _____    ______ ____
DOCKED: ROOT
DOCKED: ATOM      1  C   UNL d   1     -12.887   1.373 -12.507 -0.14 +0.11    +0.193 C 
DOCKED: ENDROOT
DOCKED: BRANCH   1   2
DOCKED: ATOM      2  O   UNL d   1     -12.719   2.283 -13.645 -0.18 -0.31    -0.356 OA
DOCKED: BRANCH   2   3
DOCKED: ATOM      3  P   UNL d   1     -13.918   2.615 -14.721 -0.04 -0.02    -0.014 P 
DOCKED: ATOM      4  O   UNL d   1     -14.850   3.579 -13.970 +0.01 -0.25    -0.577 OA
DOCKED: ATOM      5  O   UNL d   1     -14.615   1.295 -15.042 -0.02 -0.78    -0.577 OA
DOCKED: ATOM      6  O   UNL d   1     -13.287   3.281 -15.939 -0.45 -0.99    -0.638 OA
DOCKED: ENDBRANCH   2   3
DOCKED: ENDBRANCH   1   2
DOCKED: BRANCH   1   7
DOCKED: ATOM      7  C   UNL d   1     -12.083   1.944 -11.281 -0.02 +0.08    +0.201 C 
DOCKED: BRANCH   7   8
DOCKED: ATOM      8  O   UNL d   1     -12.876   2.396 -10.161 -0.05 -0.17    -0.364 OA
DOCKED: BRANCH   8   9
DOCKED: ATOM      9  P   UNL d   1     -12.136   2.936  -8.784 -0.11 -0.02    -0.015 P 
DOCKED: ATOM     10  O   UNL d   1     -10.797   3.518  -9.253 -0.04 -0.47    -0.577 OA
DOCKED: ATOM     11  O   UNL d   1     -11.944   1.723  -7.875 -0.59 -0.73    -0.577 OA
DOCKED: ATOM     12  O   UNL d   1     -13.044   4.004  -8.174 -0.04 -0.85    -0.638 OA
DOCKED: ENDBRANCH   8   9
DOCKED: ENDBRANCH   7   8
DOCKED: ENDBRANCH   1   7
DOCKED: BRANCH   1  13
DOCKED: ATOM     13  C   UNL d   1     -12.318  -0.050 -12.864 -0.22 +0.04    +0.073 C 
DOCKED: ATOM     14  O   UNL d   1     -12.311  -0.952 -11.955 -0.06 -0.16    -0.547 OA
DOCKED: ATOM     15  O   UNL d   1     -11.949  -0.242 -14.079 -0.58 -0.71    -0.547 OA
DOCKED: ENDBRANCH   1  13
DOCKED: TORSDOF 6
DOCKED: TER
DOCKED: ENDMDL
________________________________________________________________________________


	BEGINNING GENETIC ALGORITHM DOCKING 52 of 100
Run: 52 Seed: 1160779736 2090053249 [ Run 52 of 100 GA/GALS ]
Beginning LAMARCKIAN GENETIC ALGORITHM (LGA), with a maximum of 25000000 energy evaluations.

Final-Value: -5.702


	FINAL GENETIC ALGORITHM DOCKED STATE
	_______________________________________________


Detailed state:  trans 1.377 -16.416 -7.308 quatxyzw -0.495802 0.498503 -0.688404 0.178255 center 0.015 0.083 0.031 ntor 6 150.6548 -88.6442 -155.6369 71.5564 14.1830 110.1835
State:	  1.377 -16.416  -7.308  -0.504  0.507 -0.700 159.464    150.65  -88.64 -155.64   71.56   14.18  110.18

DOCKED: MODEL       52
DOCKED: USER    Run = 52
DOCKED: USER    DPF = D:/Protein_go_brrr/autodock/final/mut_K82N/2_3_BPG/dock.dpf
DOCKED: USER  
DOCKED: USER    Estimated Free Energy of Binding    =   -6.01 kcal/mol  [=(1)+(2)+(3)-(4)]
DOCKED: USER    Estimated Inhibition Constant, Ki   =   39.07 uM (micromolar)  [Temperature = 298.15 K]
DOCKED: USER    
DOCKED: USER    (1) Final Intermolecular Energy     =   -7.80 kcal/mol
DOCKED: USER        vdW + Hbond + desolv Energy     =   -4.25 kcal/mol
DOCKED: USER        Electrostatic Energy            =   -3.55 kcal/mol
DOCKED: USER    (2) Final Total Internal Energy     =   +2.10 kcal/mol
DOCKED: USER    (3) Torsional Free Energy           =   +1.79 kcal/mol
DOCKED: USER    (4) Unbound System's Energy  [=(2)] =   +2.10 kcal/mol
DOCKED: USER    
DOCKED: USER    
DOCKED: USER    NEWDPF move 2_3_BPG_opt.pdbqt
DOCKED: USER    NEWDPF about 0.015000 0.083000 0.031000
DOCKED: USER    NEWDPF tran0 1.376837 -16.415834 -7.308040
DOCKED: USER    NEWDPF quaternion0 -0.495802 0.498503 -0.688404 0.178255
DOCKED: USER    NEWDPF axisangle0 -0.503872 0.506617 -0.699609 159.463679
DOCKED: USER    NEWDPF quat0 -0.503872 0.506617 -0.699609 159.463679
DOCKED: USER    NEWDPF dihe0 150.65 -88.64 -155.64 71.56 14.18 110.18 
DOCKED: USER  keepresnum = 1 
DOCKED: USER  
DOCKED: REMARK  6 active torsions:
DOCKED: REMARK  status: ('A' for Active; 'I' for Inactive)
DOCKED: REMARK    1  A    between atoms: P_1  and  O_3 
DOCKED: REMARK    2  A    between atoms: P_2  and  O_4 
DOCKED: REMARK    3  A    between atoms: O_3  and  C_13 
DOCKED: REMARK    4  A    between atoms: O_4  and  C_14 
DOCKED: REMARK    5  A    between atoms: C_13  and  C_14 
DOCKED: REMARK    6  A    between atoms: C_13  and  C_15 
DOCKED: USER                              x       y       z     vdW  Elec       q    Type
DOCKED: USER                           _______ _______ _______ _____ _____    ______ ____
DOCKED: ROOT
DOCKED: ATOM      1  C   UNL d   1       1.915 -16.213  -7.652 -0.12 +0.13    +0.193 C 
DOCKED: ENDROOT
DOCKED: BRANCH   1   2
DOCKED: ATOM      2  O   UNL d   1       1.467 -15.748  -8.969 -0.10 -0.15    -0.356 OA
DOCKED: BRANCH   2   3
DOCKED: ATOM      3  P   UNL d   1       0.695 -16.713 -10.054 -0.16 -0.00    -0.014 P 
DOCKED: ATOM      4  O   UNL d   1      -0.791 -16.599  -9.677 -0.43 -0.20    -0.577 OA
DOCKED: ATOM      5  O   UNL d   1       1.219 -18.133  -9.849 +0.02 -0.09    -0.577 OA
DOCKED: ATOM      6  O   UNL d   1       0.962 -16.162 -11.450 -0.54 -0.18    -0.638 OA
DOCKED: ENDBRANCH   2   3
DOCKED: ENDBRANCH   1   2
DOCKED: BRANCH   1   7
DOCKED: ATOM      7  C   UNL d   1       0.655 -16.416  -6.733 -0.12 +0.17    +0.201 C 
DOCKED: BRANCH   7   8
DOCKED: ATOM      8  O   UNL d   1       0.250 -15.267  -5.956 -0.51 -0.44    -0.364 OA
DOCKED: BRANCH   8   9
DOCKED: ATOM      9  P   UNL d   1      -0.762 -15.456  -4.661 -0.67 -0.01    -0.015 P 
DOCKED: ATOM     10  O   UNL d   1      -0.524 -16.891  -4.175 -0.14 -0.50    -0.577 OA
DOCKED: ATOM     11  O   UNL d   1      -2.187 -15.258  -5.177 -0.70 -0.34    -0.577 OA
DOCKED: ATOM     12  O   UNL d   1      -0.355 -14.420  -3.615 -0.22 -0.78    -0.638 OA
DOCKED: ENDBRANCH   8   9
DOCKED: ENDBRANCH   7   8
DOCKED: ENDBRANCH   1   7
DOCKED: BRANCH   1  13
DOCKED: ATOM     13  C   UNL d   1       2.854 -15.137  -6.990 -0.17 +0.07    +0.073 C 
DOCKED: ATOM     14  O   UNL d   1       3.698 -15.523  -6.107 -0.06 -0.87    -0.547 OA
DOCKED: ATOM     15  O   UNL d   1       2.760 -13.934  -7.427 -0.33 -0.36    -0.547 OA
DOCKED: ENDBRANCH   1  13
DOCKED: TORSDOF 6
DOCKED: TER
DOCKED: ENDMDL
________________________________________________________________________________


	BEGINNING GENETIC ALGORITHM DOCKING 53 of 100
Run: 53 Seed: 466046184 1713714593 [ Run 53 of 100 GA/GALS ]
Beginning LAMARCKIAN GENETIC ALGORITHM (LGA), with a maximum of 25000000 energy evaluations.

Final-Value: -5.794


	FINAL GENETIC ALGORITHM DOCKED STATE
	_______________________________________________


Detailed state:  trans -11.852 2.981 -10.202 quatxyzw -0.041514 -0.745971 0.395917 0.533904 center 0.015 0.083 0.031 ntor 6 -130.7257 -86.5760 -115.5398 8.1278 2.7333 -11.5386
State:	-11.852   2.981 -10.202  -0.049 -0.882  0.468 115.461   -130.73  -86.58 -115.54    8.13    2.73  -11.54

DOCKED: MODEL       53
DOCKED: USER    Run = 53
DOCKED: USER    DPF = D:/Protein_go_brrr/autodock/final/mut_K82N/2_3_BPG/dock.dpf
DOCKED: USER  
DOCKED: USER    Estimated Free Energy of Binding    =   -6.03 kcal/mol  [=(1)+(2)+(3)-(4)]
DOCKED: USER    Estimated Inhibition Constant, Ki   =   38.30 uM (micromolar)  [Temperature = 298.15 K]
DOCKED: USER    
DOCKED: USER    (1) Final Intermolecular Energy     =   -7.82 kcal/mol
DOCKED: USER        vdW + Hbond + desolv Energy     =   -2.58 kcal/mol
DOCKED: USER        Electrostatic Energy            =   -5.24 kcal/mol
DOCKED: USER    (2) Final Total Internal Energy     =   +2.02 kcal/mol
DOCKED: USER    (3) Torsional Free Energy           =   +1.79 kcal/mol
DOCKED: USER    (4) Unbound System's Energy  [=(2)] =   +2.02 kcal/mol
DOCKED: USER    
DOCKED: USER    
DOCKED: USER    NEWDPF move 2_3_BPG_opt.pdbqt
DOCKED: USER    NEWDPF about 0.015000 0.083000 0.031000
DOCKED: USER    NEWDPF tran0 -11.852444 2.981418 -10.201564
DOCKED: USER    NEWDPF quaternion0 -0.041514 -0.745971 0.395917 0.533904
DOCKED: USER    NEWDPF axisangle0 -0.049098 -0.882237 0.468239 115.460717
DOCKED: USER    NEWDPF quat0 -0.049098 -0.882237 0.468239 115.460717
DOCKED: USER    NEWDPF dihe0 -130.73 -86.58 -115.54 8.13 2.73 -11.54 
DOCKED: USER  keepresnum = 1 
DOCKED: USER  
DOCKED: REMARK  6 active torsions:
DOCKED: REMARK  status: ('A' for Active; 'I' for Inactive)
DOCKED: REMARK    1  A    between atoms: P_1  and  O_3 
DOCKED: REMARK    2  A    between atoms: P_2  and  O_4 
DOCKED: REMARK    3  A    between atoms: O_3  and  C_13 
DOCKED: REMARK    4  A    between atoms: O_4  and  C_14 
DOCKED: REMARK    5  A    between atoms: C_13  and  C_14 
DOCKED: REMARK    6  A    between atoms: C_13  and  C_15 
DOCKED: USER                              x       y       z     vdW  Elec       q    Type
DOCKED: USER                           _______ _______ _______ _____ _____    ______ ____
DOCKED: ROOT
DOCKED: ATOM      1  C   UNL d   1     -11.683   2.921  -9.556 -0.10 +0.13    +0.193 C 
DOCKED: ENDROOT
DOCKED: BRANCH   1   2
DOCKED: ATOM      2  O   UNL d   1     -11.339   4.253  -9.046 -0.08 -0.35    -0.356 OA
DOCKED: BRANCH   2   3
DOCKED: ATOM      3  P   UNL d   1      -9.898   4.604  -8.337 -0.12 -0.02    -0.014 P 
DOCKED: ATOM      4  O   UNL d   1      -8.992   5.033  -9.502 -0.03 -0.25    -0.577 OA
DOCKED: ATOM      5  O   UNL d   1      -9.394   3.323  -7.677 -0.10 -0.74    -0.577 OA
DOCKED: ATOM      6  O   UNL d   1     -10.123   5.747  -7.353 -0.45 -1.00    -0.638 OA
DOCKED: ENDBRANCH   2   3
DOCKED: ENDBRANCH   1   2
DOCKED: BRANCH   1   7
DOCKED: ATOM      7  C   UNL d   1     -12.357   3.079 -10.968 -0.09 +0.08    +0.201 C 
DOCKED: BRANCH   7   8
DOCKED: ATOM      8  O   UNL d   1     -12.120   2.004 -11.904 -0.08 -0.16    -0.364 OA
DOCKED: BRANCH   8   9
DOCKED: ATOM      9  P   UNL d   1     -12.658   2.128 -13.464 -0.19 -0.01    -0.015 P 
DOCKED: ATOM     10  O   UNL d   1     -11.831   3.261 -14.082 -0.07 -0.41    -0.577 OA
DOCKED: ATOM     11  O   UNL d   1     -14.145   2.477 -13.396 -0.01 -0.34    -0.577 OA
DOCKED: ATOM     12  O   UNL d   1     -12.389   0.785 -14.142 -0.54 -1.15    -0.638 OA
DOCKED: ENDBRANCH   8   9
DOCKED: ENDBRANCH   7   8
DOCKED: ENDBRANCH   1   7
DOCKED: BRANCH   1  13
DOCKED: ATOM     13  C   UNL d   1     -12.704   2.218  -8.585 -0.10 +0.07    +0.073 C 
DOCKED: ATOM     14  O   UNL d   1     -12.263   1.717  -7.492 -0.60 -0.80    -0.547 OA
DOCKED: ATOM     15  O   UNL d   1     -13.942   2.247  -8.923 -0.01 -0.29    -0.547 OA
DOCKED: ENDBRANCH   1  13
DOCKED: TORSDOF 6
DOCKED: TER
DOCKED: ENDMDL
________________________________________________________________________________


	BEGINNING GENETIC ALGORITHM DOCKING 54 of 100
Run: 54 Seed: 980289108 1872588434 [ Run 54 of 100 GA/GALS ]
Beginning LAMARCKIAN GENETIC ALGORITHM (LGA), with a maximum of 25000000 energy evaluations.

Final-Value: -6.123


	FINAL GENETIC ALGORITHM DOCKED STATE
	_______________________________________________


Detailed state:  trans 1.786 -15.798 -6.708 quatxyzw 0.169180 0.438526 0.876048 -0.107764 center 0.015 0.083 0.031 ntor 6 -20.2497 44.0975 -152.9634 38.0225 27.4423 -23.2196
State:	  1.786 -15.798  -6.708   0.170  0.441  0.881 -167.627    -20.25   44.10 -152.96   38.02   27.44  -23.22

DOCKED: MODEL       54
DOCKED: USER    Run = 54
DOCKED: USER    DPF = D:/Protein_go_brrr/autodock/final/mut_K82N/2_3_BPG/dock.dpf
DOCKED: USER  
DOCKED: USER    Estimated Free Energy of Binding    =   -6.38 kcal/mol  [=(1)+(2)+(3)-(4)]
DOCKED: USER    Estimated Inhibition Constant, Ki   =   21.05 uM (micromolar)  [Temperature = 298.15 K]
DOCKED: USER    
DOCKED: USER    (1) Final Intermolecular Energy     =   -8.17 kcal/mol
DOCKED: USER        vdW + Hbond + desolv Energy     =   -4.05 kcal/mol
DOCKED: USER        Electrostatic Energy            =   -4.12 kcal/mol
DOCKED: USER    (2) Final Total Internal Energy     =   +2.05 kcal/mol
DOCKED: USER    (3) Torsional Free Energy           =   +1.79 kcal/mol
DOCKED: USER    (4) Unbound System's Energy  [=(2)] =   +2.05 kcal/mol
DOCKED: USER    
DOCKED: USER    
DOCKED: USER    NEWDPF move 2_3_BPG_opt.pdbqt
DOCKED: USER    NEWDPF about 0.015000 0.083000 0.031000
DOCKED: USER    NEWDPF tran0 1.786428 -15.798180 -6.707855
DOCKED: USER    NEWDPF quaternion0 0.169180 0.438526 0.876048 -0.107764
DOCKED: USER    NEWDPF axisangle0 0.170171 0.441094 0.881180 -167.627140
DOCKED: USER    NEWDPF quat0 0.170171 0.441094 0.881180 -167.627140
DOCKED: USER    NEWDPF dihe0 -20.25 44.10 -152.96 38.02 27.44 -23.22 
DOCKED: USER  keepresnum = 1 
DOCKED: USER  
DOCKED: REMARK  6 active torsions:
DOCKED: REMARK  status: ('A' for Active; 'I' for Inactive)
DOCKED: REMARK    1  A    between atoms: P_1  and  O_3 
DOCKED: REMARK    2  A    between atoms: P_2  and  O_4 
DOCKED: REMARK    3  A    between atoms: O_3  and  C_13 
DOCKED: REMARK    4  A    between atoms: O_4  and  C_14 
DOCKED: REMARK    5  A    between atoms: C_13  and  C_14 
DOCKED: REMARK    6  A    between atoms: C_13  and  C_15 
DOCKED: USER                              x       y       z     vdW  Elec       q    Type
DOCKED: USER                           _______ _______ _______ _____ _____    ______ ____
DOCKED: ROOT
DOCKED: ATOM      1  C   UNL d   1       2.374 -15.743  -7.025 -0.13 +0.20    +0.193 C 
DOCKED: ENDROOT
DOCKED: BRANCH   1   2
DOCKED: ATOM      2  O   UNL d   1       3.056 -17.040  -6.954 -0.06 -0.27    -0.356 OA
DOCKED: BRANCH   2   3
DOCKED: ATOM      3  P   UNL d   1       4.154 -17.420  -5.790 -0.15 -0.01    -0.014 P 
DOCKED: ATOM      4  O   UNL d   1       5.248 -18.201  -6.535 +0.02 -0.19    -0.577 OA
DOCKED: ATOM      5  O   UNL d   1       3.439 -18.296  -4.763 -0.08 -0.55    -0.577 OA
DOCKED: ATOM      6  O   UNL d   1       4.694 -16.118  -5.208 -0.53 -0.98    -0.638 OA
DOCKED: ENDBRANCH   2   3
DOCKED: ENDBRANCH   1   2
DOCKED: BRANCH   1   7
DOCKED: ATOM      7  C   UNL d   1       0.886 -15.928  -6.549 -0.05 +0.22    +0.201 C 
DOCKED: BRANCH   7   8
DOCKED: ATOM      8  O   UNL d   1       0.379 -14.910  -5.657 -0.46 -0.52    -0.364 OA
DOCKED: BRANCH   8   9
DOCKED: ATOM      9  P   UNL d   1      -0.768 -15.294  -4.529 -0.69 -0.01    -0.015 P 
DOCKED: ATOM     10  O   UNL d   1      -0.518 -16.768  -4.191 -0.17 -0.53    -0.577 OA
DOCKED: ATOM     11  O   UNL d   1      -2.131 -15.082  -5.188 -0.70 -0.38    -0.577 OA
DOCKED: ATOM     12  O   UNL d   1      -0.538 -14.382  -3.324 -0.34 -0.71    -0.638 OA
DOCKED: ENDBRANCH   8   9
DOCKED: ENDBRANCH   7   8
DOCKED: ENDBRANCH   1   7
DOCKED: BRANCH   1  13
DOCKED: ATOM     13  C   UNL d   1       2.367 -15.218  -8.510 -0.06 +0.04    +0.073 C 
DOCKED: ATOM     14  O   UNL d   1       2.288 -16.073  -9.460 -0.04 -0.15    -0.547 OA
DOCKED: ATOM     15  O   UNL d   1       2.378 -13.945  -8.677 -0.61 -0.26    -0.547 OA
DOCKED: ENDBRANCH   1  13
DOCKED: TORSDOF 6
DOCKED: TER
DOCKED: ENDMDL
________________________________________________________________________________


	BEGINNING GENETIC ALGORITHM DOCKING 55 of 100
Run: 55 Seed: 334993736 2124582184 [ Run 55 of 100 GA/GALS ]
Beginning LAMARCKIAN GENETIC ALGORITHM (LGA), with a maximum of 25000000 energy evaluations.

Final-Value: -5.792


	FINAL GENETIC ALGORITHM DOCKED STATE
	_______________________________________________


Detailed state:  trans -12.645 2.564 -12.335 quatxyzw 0.076138 0.625650 0.056716 0.774305 center 0.015 0.083 0.031 ntor 6 122.2859 27.8765 -69.9549 3.3988 0.8678 -5.7099
State:	-12.645   2.564 -12.335   0.120  0.989  0.090 78.516    122.29   27.88  -69.95    3.40    0.87   -5.71

DOCKED: MODEL       55
DOCKED: USER    Run = 55
DOCKED: USER    DPF = D:/Protein_go_brrr/autodock/final/mut_K82N/2_3_BPG/dock.dpf
DOCKED: USER  
DOCKED: USER    Estimated Free Energy of Binding    =   -6.09 kcal/mol  [=(1)+(2)+(3)-(4)]
DOCKED: USER    Estimated Inhibition Constant, Ki   =   34.56 uM (micromolar)  [Temperature = 298.15 K]
DOCKED: USER    
DOCKED: USER    (1) Final Intermolecular Energy     =   -7.88 kcal/mol
DOCKED: USER        vdW + Hbond + desolv Energy     =   -2.62 kcal/mol
DOCKED: USER        Electrostatic Energy            =   -5.25 kcal/mol
DOCKED: USER    (2) Final Total Internal Energy     =   +2.08 kcal/mol
DOCKED: USER    (3) Torsional Free Energy           =   +1.79 kcal/mol
DOCKED: USER    (4) Unbound System's Energy  [=(2)] =   +2.08 kcal/mol
DOCKED: USER    
DOCKED: USER    
DOCKED: USER    NEWDPF move 2_3_BPG_opt.pdbqt
DOCKED: USER    NEWDPF about 0.015000 0.083000 0.031000
DOCKED: USER    NEWDPF tran0 -12.644995 2.563513 -12.334852
DOCKED: USER    NEWDPF quaternion0 0.076138 0.625650 0.056716 0.774305
DOCKED: USER    NEWDPF axisangle0 0.120317 0.988681 0.089625 78.515919
DOCKED: USER    NEWDPF quat0 0.120317 0.988681 0.089625 78.515919
DOCKED: USER    NEWDPF dihe0 122.29 27.88 -69.95 3.40 0.87 -5.71 
DOCKED: USER  keepresnum = 1 
DOCKED: USER  
DOCKED: REMARK  6 active torsions:
DOCKED: REMARK  status: ('A' for Active; 'I' for Inactive)
DOCKED: REMARK    1  A    between atoms: P_1  and  O_3 
DOCKED: REMARK    2  A    between atoms: P_2  and  O_4 
DOCKED: REMARK    3  A    between atoms: O_3  and  C_13 
DOCKED: REMARK    4  A    between atoms: O_4  and  C_14 
DOCKED: REMARK    5  A    between atoms: C_13  and  C_14 
DOCKED: REMARK    6  A    between atoms: C_13  and  C_15 
DOCKED: USER                              x       y       z     vdW  Elec       q    Type
DOCKED: USER                           _______ _______ _______ _____ _____    ______ ____
DOCKED: ROOT
DOCKED: ATOM      1  C   UNL d   1     -12.915   2.270 -12.874 -0.13 +0.11    +0.193 C 
DOCKED: ENDROOT
DOCKED: BRANCH   1   2
DOCKED: ATOM      2  O   UNL d   1     -12.373   2.925 -14.070 -0.15 -0.31    -0.356 OA
DOCKED: BRANCH   2   3
DOCKED: ATOM      3  P   UNL d   1     -13.314   3.507 -15.286 -0.11 -0.01    -0.014 P 
DOCKED: ATOM      4  O   UNL d   1     -12.390   3.520 -16.514 -0.37 -0.82    -0.577 OA
DOCKED: ATOM      5  O   UNL d   1     -13.743   4.918 -14.890 +0.00 -0.23    -0.577 OA
DOCKED: ATOM      6  O   UNL d   1     -14.484   2.547 -15.476 -0.19 -0.79    -0.638 OA
DOCKED: ENDBRANCH   2   3
DOCKED: ENDBRANCH   1   2
DOCKED: BRANCH   1   7
DOCKED: ATOM      7  C   UNL d   1     -12.085   2.739 -11.622 -0.08 +0.08    +0.201 C 
DOCKED: BRANCH   7   8
DOCKED: ATOM      8  O   UNL d   1     -12.779   2.699 -10.355 -0.05 -0.17    -0.364 OA
DOCKED: BRANCH   8   9
DOCKED: ATOM      9  P   UNL d   1     -12.038   3.259  -8.986 -0.12 -0.01    -0.015 P 
DOCKED: ATOM     10  O   UNL d   1     -12.823   4.517  -8.595 -0.02 -0.60    -0.577 OA
DOCKED: ATOM     11  O   UNL d   1     -10.592   3.582  -9.361 -0.03 -0.44    -0.577 OA
DOCKED: ATOM     12  O   UNL d   1     -12.152   2.161  -7.930 -0.54 -0.98    -0.638 OA
DOCKED: ENDBRANCH   8   9
DOCKED: ENDBRANCH   7   8
DOCKED: ENDBRANCH   1   7
DOCKED: BRANCH   1  13
DOCKED: ATOM     13  C   UNL d   1     -12.786   0.707 -13.009 -0.20 +0.05    +0.073 C 
DOCKED: ATOM     14  O   UNL d   1     -13.140  -0.023 -12.017 -0.02 -0.21    -0.547 OA
DOCKED: ATOM     15  O   UNL d   1     -12.388   0.251 -14.141 -0.61 -0.94    -0.547 OA
DOCKED: ENDBRANCH   1  13
DOCKED: TORSDOF 6
DOCKED: TER
DOCKED: ENDMDL
________________________________________________________________________________


	BEGINNING GENETIC ALGORITHM DOCKING 56 of 100
Run: 56 Seed: 491057579 663126325 [ Run 56 of 100 GA/GALS ]
Beginning LAMARCKIAN GENETIC ALGORITHM (LGA), with a maximum of 25000000 energy evaluations.

Final-Value: -6.270


	FINAL GENETIC ALGORITHM DOCKED STATE
	_______________________________________________


Detailed state:  trans 0.776 -16.990 -6.458 quatxyzw -0.166066 -0.985832 0.008591 0.021980 center 0.015 0.083 0.031 ntor 6 137.8203 -123.9551 -116.8582 47.5539 -30.5967 147.8040
State:	  0.776 -16.990  -6.458  -0.166 -0.986  0.009 177.481    137.82 -123.96 -116.86   47.55  -30.60  147.80

DOCKED: MODEL       56
DOCKED: USER    Run = 56
DOCKED: USER    DPF = D:/Protein_go_brrr/autodock/final/mut_K82N/2_3_BPG/dock.dpf
DOCKED: USER  
DOCKED: USER    Estimated Free Energy of Binding    =   -6.72 kcal/mol  [=(1)+(2)+(3)-(4)]
DOCKED: USER    Estimated Inhibition Constant, Ki   =   11.77 uM (micromolar)  [Temperature = 298.15 K]
DOCKED: USER    
DOCKED: USER    (1) Final Intermolecular Energy     =   -8.51 kcal/mol
DOCKED: USER        vdW + Hbond + desolv Energy     =   -4.04 kcal/mol
DOCKED: USER        Electrostatic Energy            =   -4.47 kcal/mol
DOCKED: USER    (2) Final Total Internal Energy     =   +2.24 kcal/mol
DOCKED: USER    (3) Torsional Free Energy           =   +1.79 kcal/mol
DOCKED: USER    (4) Unbound System's Energy  [=(2)] =   +2.24 kcal/mol
DOCKED: USER    
DOCKED: USER    
DOCKED: USER    NEWDPF move 2_3_BPG_opt.pdbqt
DOCKED: USER    NEWDPF about 0.015000 0.083000 0.031000
DOCKED: USER    NEWDPF tran0 0.776106 -16.989812 -6.458234
DOCKED: USER    NEWDPF quaternion0 -0.166066 -0.985832 0.008591 0.021980
DOCKED: USER    NEWDPF axisangle0 -0.166106 -0.986070 0.008593 177.481127
DOCKED: USER    NEWDPF quat0 -0.166106 -0.986070 0.008593 177.481127
DOCKED: USER    NEWDPF dihe0 137.82 -123.96 -116.86 47.55 -30.60 147.80 
DOCKED: USER  keepresnum = 1 
DOCKED: USER  
DOCKED: REMARK  6 active torsions:
DOCKED: REMARK  status: ('A' for Active; 'I' for Inactive)
DOCKED: REMARK    1  A    between atoms: P_1  and  O_3 
DOCKED: REMARK    2  A    between atoms: P_2  and  O_4 
DOCKED: REMARK    3  A    between atoms: O_3  and  C_13 
DOCKED: REMARK    4  A    between atoms: O_4  and  C_14 
DOCKED: REMARK    5  A    between atoms: C_13  and  C_14 
DOCKED: REMARK    6  A    between atoms: C_13  and  C_15 
DOCKED: USER                              x       y       z     vdW  Elec       q    Type
DOCKED: USER                           _______ _______ _______ _____ _____    ______ ____
DOCKED: ROOT
DOCKED: ATOM      1  C   UNL d   1       1.231 -17.478  -6.521 -0.13 +0.15    +0.193 C 
DOCKED: ENDROOT
DOCKED: BRANCH   1   2
DOCKED: ATOM      2  O   UNL d   1       2.457 -17.052  -5.838 -0.19 -0.58    -0.356 OA
DOCKED: BRANCH   2   3
DOCKED: ATOM      3  P   UNL d   1       3.607 -16.115  -6.548 -0.09 -0.02    -0.014 P 
DOCKED: ATOM      4  O   UNL d   1       2.831 -14.909  -7.100 -0.09 -0.54    -0.577 OA
DOCKED: ATOM      5  O   UNL d   1       4.234 -16.940  -7.670 +0.03 -0.24    -0.577 OA
DOCKED: ATOM      6  O   UNL d   1       4.603 -15.695  -5.472 -0.38 -0.97    -0.638 OA
DOCKED: ENDBRANCH   2   3
DOCKED: ENDBRANCH   1   2
DOCKED: BRANCH   1   7
DOCKED: ATOM      7  C   UNL d   1       0.070 -16.487  -6.141 -0.20 +0.18    +0.201 C 
DOCKED: BRANCH   7   8
DOCKED: ATOM      8  O   UNL d   1      -0.140 -16.275  -4.727 -0.49 -0.49    -0.364 OA
DOCKED: BRANCH   8   9
DOCKED: ATOM      9  P   UNL d   1      -0.784 -14.850  -4.188 -0.74 -0.02    -0.015 P 
DOCKED: ATOM     10  O   UNL d   1      -2.211 -14.820  -4.747 -0.74 -0.42    -0.577 OA
DOCKED: ATOM     11  O   UNL d   1       0.078 -13.726  -4.763 -0.22 -0.64    -0.577 OA
DOCKED: ATOM     12  O   UNL d   1      -0.766 -14.895  -2.661 -0.63 -0.57    -0.638 OA
DOCKED: ENDBRANCH   8   9
DOCKED: ENDBRANCH   7   8
DOCKED: ENDBRANCH   1   7
DOCKED: BRANCH   1  13
DOCKED: ATOM     13  C   UNL d   1       0.829 -18.927  -6.055 -0.13 +0.03    +0.073 C 
DOCKED: ATOM     14  O   UNL d   1      -0.083 -19.548  -6.706 +0.01 -0.11    -0.547 OA
DOCKED: ATOM     15  O   UNL d   1       1.492 -19.429  -5.077 -0.06 -0.25    -0.547 OA
DOCKED: ENDBRANCH   1  13
DOCKED: TORSDOF 6
DOCKED: TER
DOCKED: ENDMDL
________________________________________________________________________________


	BEGINNING GENETIC ALGORITHM DOCKING 57 of 100
Run: 57 Seed: 1575550308 401829584 [ Run 57 of 100 GA/GALS ]
Beginning LAMARCKIAN GENETIC ALGORITHM (LGA), with a maximum of 25000000 energy evaluations.

Final-Value: -5.712


	FINAL GENETIC ALGORITHM DOCKED STATE
	_______________________________________________


Detailed state:  trans -12.777 1.679 -11.814 quatxyzw 0.129243 -0.571744 0.011467 -0.810107 center 0.015 0.083 0.031 ntor 6 126.2999 -76.9954 173.2984 -15.2645 11.3353 -22.6743
State:	-12.777   1.679 -11.814   0.220 -0.975  0.020 -71.787    126.30  -77.00  173.30  -15.26   11.34  -22.67

DOCKED: MODEL       57
DOCKED: USER    Run = 57
DOCKED: USER    DPF = D:/Protein_go_brrr/autodock/final/mut_K82N/2_3_BPG/dock.dpf
DOCKED: USER  
DOCKED: USER    Estimated Free Energy of Binding    =   -6.08 kcal/mol  [=(1)+(2)+(3)-(4)]
DOCKED: USER    Estimated Inhibition Constant, Ki   =   34.92 uM (micromolar)  [Temperature = 298.15 K]
DOCKED: USER    
DOCKED: USER    (1) Final Intermolecular Energy     =   -7.87 kcal/mol
DOCKED: USER        vdW + Hbond + desolv Energy     =   -2.51 kcal/mol
DOCKED: USER        Electrostatic Energy            =   -5.36 kcal/mol
DOCKED: USER    (2) Final Total Internal Energy     =   +2.16 kcal/mol
DOCKED: USER    (3) Torsional Free Energy           =   +1.79 kcal/mol
DOCKED: USER    (4) Unbound System's Energy  [=(2)] =   +2.16 kcal/mol
DOCKED: USER    
DOCKED: USER    
DOCKED: USER    NEWDPF move 2_3_BPG_opt.pdbqt
DOCKED: USER    NEWDPF about 0.015000 0.083000 0.031000
DOCKED: USER    NEWDPF tran0 -12.777129 1.678501 -11.813714
DOCKED: USER    NEWDPF quaternion0 0.129243 -0.571744 0.011467 -0.810107
DOCKED: USER    NEWDPF axisangle0 0.220445 -0.975203 0.019558 -71.787155
DOCKED: USER    NEWDPF quat0 0.220445 -0.975203 0.019558 -71.787155
DOCKED: USER    NEWDPF dihe0 126.30 -77.00 173.30 -15.26 11.34 -22.67 
DOCKED: USER  keepresnum = 1 
DOCKED: USER  
DOCKED: REMARK  6 active torsions:
DOCKED: REMARK  status: ('A' for Active; 'I' for Inactive)
DOCKED: REMARK    1  A    between atoms: P_1  and  O_3 
DOCKED: REMARK    2  A    between atoms: P_2  and  O_4 
DOCKED: REMARK    3  A    between atoms: O_3  and  C_13 
DOCKED: REMARK    4  A    between atoms: O_4  and  C_14 
DOCKED: REMARK    5  A    between atoms: C_13  and  C_14 
DOCKED: REMARK    6  A    between atoms: C_13  and  C_15 
DOCKED: USER                              x       y       z     vdW  Elec       q    Type
DOCKED: USER                           _______ _______ _______ _____ _____    ______ ____
DOCKED: ROOT
DOCKED: ATOM      1  C   UNL d   1     -13.014   1.432 -12.390 -0.13 +0.10    +0.193 C 
DOCKED: ENDROOT
DOCKED: BRANCH   1   2
DOCKED: ATOM      2  O   UNL d   1     -12.916   2.482 -13.411 -0.12 -0.26    -0.356 OA
DOCKED: BRANCH   2   3
DOCKED: ATOM      3  P   UNL d   1     -13.988   2.641 -14.648 -0.09 -0.01    -0.014 P 
DOCKED: ATOM      4  O   UNL d   1     -14.948   3.747 -14.183 +0.01 -0.24    -0.577 OA
DOCKED: ATOM      5  O   UNL d   1     -14.705   1.301 -14.800 -0.03 -0.66    -0.577 OA
DOCKED: ATOM      6  O   UNL d   1     -13.212   3.060 -15.892 -0.36 -1.16    -0.638 OA
DOCKED: ENDBRANCH   2   3
DOCKED: ENDBRANCH   1   2
DOCKED: BRANCH   1   7
DOCKED: ATOM      7  C   UNL d   1     -12.204   1.886 -11.120 -0.05 +0.08    +0.201 C 
DOCKED: BRANCH   7   8
DOCKED: ATOM      8  O   UNL d   1     -12.843   1.645  -9.847 -0.05 -0.16    -0.364 OA
DOCKED: BRANCH   8   9
DOCKED: ATOM      9  P   UNL d   1     -12.273   2.384  -8.480 +0.04 -0.02    -0.015 P 
DOCKED: ATOM     10  O   UNL d   1     -11.016   3.138  -8.929 -0.09 -0.58    -0.577 OA
DOCKED: ATOM     11  O   UNL d   1     -11.948   1.277  -7.478 -0.55 -0.65    -0.577 OA
DOCKED: ATOM     12  O   UNL d   1     -13.367   3.332  -7.991 -0.20 -0.80    -0.638 OA
DOCKED: ENDBRANCH   8   9
DOCKED: ENDBRANCH   7   8
DOCKED: ENDBRANCH   1   7
DOCKED: BRANCH   1  13
DOCKED: ATOM     13  C   UNL d   1     -12.391   0.092 -12.933 -0.23 +0.05    +0.073 C 
DOCKED: ATOM     14  O   UNL d   1     -12.391  -0.936 -12.169 -0.06 -0.18    -0.547 OA
DOCKED: ATOM     15  O   UNL d   1     -11.972   0.094 -14.147 -0.61 -0.84    -0.547 OA
DOCKED: ENDBRANCH   1  13
DOCKED: TORSDOF 6
DOCKED: TER
DOCKED: ENDMDL
________________________________________________________________________________


	BEGINNING GENETIC ALGORITHM DOCKING 58 of 100
Run: 58 Seed: 621249363 2112836609 [ Run 58 of 100 GA/GALS ]
Beginning LAMARCKIAN GENETIC ALGORITHM (LGA), with a maximum of 25000000 energy evaluations.

Final-Value: -5.726


	FINAL GENETIC ALGORITHM DOCKED STATE
	_______________________________________________


Detailed state:  trans -11.753 3.084 -10.544 quatxyzw -0.121528 0.777342 -0.269351 -0.555356 center 0.015 0.083 0.031 ntor 6 141.2263 -80.6211 -108.3485 -7.1751 -4.0371 -1.3429
State:	-11.753   3.084 -10.544  -0.146  0.935 -0.324 -112.530    141.23  -80.62 -108.35   -7.18   -4.04   -1.34

DOCKED: MODEL       58
DOCKED: USER    Run = 58
DOCKED: USER    DPF = D:/Protein_go_brrr/autodock/final/mut_K82N/2_3_BPG/dock.dpf
DOCKED: USER  
DOCKED: USER    Estimated Free Energy of Binding    =   -5.99 kcal/mol  [=(1)+(2)+(3)-(4)]
DOCKED: USER    Estimated Inhibition Constant, Ki   =   40.76 uM (micromolar)  [Temperature = 298.15 K]
DOCKED: USER    
DOCKED: USER    (1) Final Intermolecular Energy     =   -7.78 kcal/mol
DOCKED: USER        vdW + Hbond + desolv Energy     =   -2.34 kcal/mol
DOCKED: USER        Electrostatic Energy            =   -5.44 kcal/mol
DOCKED: USER    (2) Final Total Internal Energy     =   +2.05 kcal/mol
DOCKED: USER    (3) Torsional Free Energy           =   +1.79 kcal/mol
DOCKED: USER    (4) Unbound System's Energy  [=(2)] =   +2.05 kcal/mol
DOCKED: USER    
DOCKED: USER    
DOCKED: USER    NEWDPF move 2_3_BPG_opt.pdbqt
DOCKED: USER    NEWDPF about 0.015000 0.083000 0.031000
DOCKED: USER    NEWDPF tran0 -11.753215 3.084450 -10.544317
DOCKED: USER    NEWDPF quaternion0 -0.121528 0.777342 -0.269351 -0.555356
DOCKED: USER    NEWDPF axisangle0 -0.146135 0.934741 -0.323889 -112.529510
DOCKED: USER    NEWDPF quat0 -0.146135 0.934741 -0.323889 -112.529510
DOCKED: USER    NEWDPF dihe0 141.23 -80.62 -108.35 -7.18 -4.04 -1.34 
DOCKED: USER  keepresnum = 1 
DOCKED: USER  
DOCKED: REMARK  6 active torsions:
DOCKED: REMARK  status: ('A' for Active; 'I' for Inactive)
DOCKED: REMARK    1  A    between atoms: P_1  and  O_3 
DOCKED: REMARK    2  A    between atoms: P_2  and  O_4 
DOCKED: REMARK    3  A    between atoms: O_3  and  C_13 
DOCKED: REMARK    4  A    between atoms: O_4  and  C_14 
DOCKED: REMARK    5  A    between atoms: C_13  and  C_14 
DOCKED: REMARK    6  A    between atoms: C_13  and  C_15 
DOCKED: USER                              x       y       z     vdW  Elec       q    Type
DOCKED: USER                           _______ _______ _______ _____ _____    ______ ____
DOCKED: ROOT
DOCKED: ATOM      1  C   UNL d   1     -11.494   3.087  -9.926 -0.08 +0.11    +0.193 C 
DOCKED: ENDROOT
DOCKED: BRANCH   1   2
DOCKED: ATOM      2  O   UNL d   1     -11.632   4.440  -9.377 -0.06 -0.28    -0.356 OA
DOCKED: BRANCH   2   3
DOCKED: ATOM      3  P   UNL d   1     -10.461   5.178  -8.488 -0.10 -0.02    -0.014 P 
DOCKED: ATOM      4  O   UNL d   1      -9.682   6.024  -9.507 +0.01 -0.25    -0.577 OA
DOCKED: ATOM      5  O   UNL d   1      -9.589   4.077  -7.887 -0.27 -0.81    -0.577 OA
DOCKED: ATOM      6  O   UNL d   1     -11.145   6.051  -7.441 -0.11 -0.96    -0.638 OA
DOCKED: ENDBRANCH   2   3
DOCKED: ENDBRANCH   1   2
DOCKED: BRANCH   1   7
DOCKED: ATOM      7  C   UNL d   1     -12.348   2.987 -11.244 -0.10 +0.08    +0.201 C 
DOCKED: BRANCH   7   8
DOCKED: ATOM      8  O   UNL d   1     -11.966   1.941 -12.165 -0.04 -0.17    -0.364 OA
DOCKED: BRANCH   8   9
DOCKED: ATOM      9  P   UNL d   1     -12.808   1.727 -13.572 -0.19 -0.01    -0.015 P 
DOCKED: ATOM     10  O   UNL d   1     -12.383   2.892 -14.473 -0.11 -0.62    -0.577 OA
DOCKED: ATOM     11  O   UNL d   1     -14.293   1.792 -13.217 -0.01 -0.34    -0.577 OA
DOCKED: ATOM     12  O   UNL d   1     -12.389   0.375 -14.147 -0.58 -1.14    -0.638 OA
DOCKED: ENDBRANCH   8   9
DOCKED: ENDBRANCH   7   8
DOCKED: ENDBRANCH   1   7
DOCKED: BRANCH   1  13
DOCKED: ATOM     13  C   UNL d   1     -12.034   2.028  -8.894 -0.15 +0.06    +0.073 C 
DOCKED: ATOM     14  O   UNL d   1     -11.734   0.795  -9.069 -0.03 -0.26    -0.547 OA
DOCKED: ATOM     15  O   UNL d   1     -12.698   2.478  -7.891 -0.51 -0.84    -0.547 OA
DOCKED: ENDBRANCH   1  13
DOCKED: TORSDOF 6
DOCKED: TER
DOCKED: ENDMDL
________________________________________________________________________________


	BEGINNING GENETIC ALGORITHM DOCKING 59 of 100
Run: 59 Seed: 420840954 1498672286 [ Run 59 of 100 GA/GALS ]
Beginning LAMARCKIAN GENETIC ALGORITHM (LGA), with a maximum of 25000000 energy evaluations.

Final-Value: -5.728


	FINAL GENETIC ALGORITHM DOCKED STATE
	_______________________________________________


Detailed state:  trans -12.664 2.318 -12.171 quatxyzw 0.039406 0.635871 -0.016114 0.770621 center 0.015 0.083 0.031 ntor 6 105.6007 19.2129 -94.5032 12.7256 5.0187 18.0887
State:	-12.664   2.318 -12.171   0.062  0.998 -0.025 79.181    105.60   19.21  -94.50   12.73    5.02   18.09

DOCKED: MODEL       59
DOCKED: USER    Run = 59
DOCKED: USER    DPF = D:/Protein_go_brrr/autodock/final/mut_K82N/2_3_BPG/dock.dpf
DOCKED: USER  
DOCKED: USER    Estimated Free Energy of Binding    =   -6.10 kcal/mol  [=(1)+(2)+(3)-(4)]
DOCKED: USER    Estimated Inhibition Constant, Ki   =   33.74 uM (micromolar)  [Temperature = 298.15 K]
DOCKED: USER    
DOCKED: USER    (1) Final Intermolecular Energy     =   -7.89 kcal/mol
DOCKED: USER        vdW + Hbond + desolv Energy     =   -2.71 kcal/mol
DOCKED: USER        Electrostatic Energy            =   -5.18 kcal/mol
DOCKED: USER    (2) Final Total Internal Energy     =   +2.16 kcal/mol
DOCKED: USER    (3) Torsional Free Energy           =   +1.79 kcal/mol
DOCKED: USER    (4) Unbound System's Energy  [=(2)] =   +2.16 kcal/mol
DOCKED: USER    
DOCKED: USER    
DOCKED: USER    NEWDPF move 2_3_BPG_opt.pdbqt
DOCKED: USER    NEWDPF about 0.015000 0.083000 0.031000
DOCKED: USER    NEWDPF tran0 -12.663629 2.317791 -12.171178
DOCKED: USER    NEWDPF quaternion0 0.039406 0.635871 -0.016114 0.770621
DOCKED: USER    NEWDPF axisangle0 0.061834 0.997766 -0.025285 79.180712
DOCKED: USER    NEWDPF quat0 0.061834 0.997766 -0.025285 79.180712
DOCKED: USER    NEWDPF dihe0 105.60 19.21 -94.50 12.73 5.02 18.09 
DOCKED: USER  keepresnum = 1 
DOCKED: USER  
DOCKED: REMARK  6 active torsions:
DOCKED: REMARK  status: ('A' for Active; 'I' for Inactive)
DOCKED: REMARK    1  A    between atoms: P_1  and  O_3 
DOCKED: REMARK    2  A    between atoms: P_2  and  O_4 
DOCKED: REMARK    3  A    between atoms: O_3  and  C_13 
DOCKED: REMARK    4  A    between atoms: O_4  and  C_14 
DOCKED: REMARK    5  A    between atoms: C_13  and  C_14 
DOCKED: REMARK    6  A    between atoms: C_13  and  C_15 
DOCKED: USER                              x       y       z     vdW  Elec       q    Type
DOCKED: USER                           _______ _______ _______ _____ _____    ______ ____
DOCKED: ROOT
DOCKED: ATOM      1  C   UNL d   1     -12.875   1.967 -12.702 -0.14 +0.11    +0.193 C 
DOCKED: ENDROOT
DOCKED: BRANCH   1   2
DOCKED: ATOM      2  O   UNL d   1     -12.424   2.657 -13.915 -0.16 -0.32    -0.356 OA
DOCKED: BRANCH   2   3
DOCKED: ATOM      3  P   UNL d   1     -13.453   3.236 -15.060 -0.06 -0.02    -0.014 P 
DOCKED: ATOM      4  O   UNL d   1     -12.557   3.507 -16.279 -0.42 -0.81    -0.577 OA
DOCKED: ATOM      5  O   UNL d   1     -14.061   4.526 -14.512 +0.00 -0.24    -0.577 OA
DOCKED: ATOM      6  O   UNL d   1     -14.487   2.154 -15.354 -0.10 -0.88    -0.638 OA
DOCKED: ENDBRANCH   2   3
DOCKED: ENDBRANCH   1   2
DOCKED: BRANCH   1   7
DOCKED: ATOM      7  C   UNL d   1     -12.151   2.605 -11.459 -0.08 +0.08    +0.201 C 
DOCKED: BRANCH   7   8
DOCKED: ATOM      8  O   UNL d   1     -12.525   2.073 -10.170 -0.06 -0.17    -0.364 OA
DOCKED: BRANCH   8   9
DOCKED: ATOM      9  P   UNL d   1     -11.983   2.796  -8.784 -0.13 -0.02    -0.015 P 
DOCKED: ATOM     10  O   UNL d   1     -13.018   3.883  -8.471 -0.08 -0.65    -0.577 OA
DOCKED: ATOM     11  O   UNL d   1     -10.610   3.390  -9.099 -0.03 -0.51    -0.577 OA
DOCKED: ATOM     12  O   UNL d   1     -11.936   1.719  -7.701 -0.55 -0.89    -0.638 OA
DOCKED: ENDBRANCH   8   9
DOCKED: ENDBRANCH   7   8
DOCKED: ENDBRANCH   1   7
DOCKED: BRANCH   1  13
DOCKED: ATOM     13  C   UNL d   1     -12.496   0.441 -12.777 -0.20 +0.05    +0.073 C 
DOCKED: ATOM     14  O   UNL d   1     -12.437  -0.229 -11.687 -0.05 -0.19    -0.547 OA
DOCKED: ATOM     15  O   UNL d   1     -12.330  -0.061 -13.947 -0.64 -0.73    -0.547 OA
DOCKED: ENDBRANCH   1  13
DOCKED: TORSDOF 6
DOCKED: TER
DOCKED: ENDMDL
________________________________________________________________________________


	BEGINNING GENETIC ALGORITHM DOCKING 60 of 100
Run: 60 Seed: 2074637812 376763999 [ Run 60 of 100 GA/GALS ]
Beginning LAMARCKIAN GENETIC ALGORITHM (LGA), with a maximum of 25000000 energy evaluations.

Final-Value: -5.771


	FINAL GENETIC ALGORITHM DOCKED STATE
	_______________________________________________


Detailed state:  trans -11.915 2.847 -10.215 quatxyzw 0.159720 -0.764982 0.379424 0.495308 center 0.015 0.083 0.031 ntor 6 -176.4119 -60.6091 -95.7228 -22.0689 9.4386 -32.0843
State:	-11.915   2.847 -10.215   0.184 -0.881  0.437 120.620   -176.41  -60.61  -95.72  -22.07    9.44  -32.08

DOCKED: MODEL       60
DOCKED: USER    Run = 60
DOCKED: USER    DPF = D:/Protein_go_brrr/autodock/final/mut_K82N/2_3_BPG/dock.dpf
DOCKED: USER  
DOCKED: USER    Estimated Free Energy of Binding    =   -6.01 kcal/mol  [=(1)+(2)+(3)-(4)]
DOCKED: USER    Estimated Inhibition Constant, Ki   =   39.01 uM (micromolar)  [Temperature = 298.15 K]
DOCKED: USER    
DOCKED: USER    (1) Final Intermolecular Energy     =   -7.80 kcal/mol
DOCKED: USER        vdW + Hbond + desolv Energy     =   -2.55 kcal/mol
DOCKED: USER        Electrostatic Energy            =   -5.25 kcal/mol
DOCKED: USER    (2) Final Total Internal Energy     =   +2.03 kcal/mol
DOCKED: USER    (3) Torsional Free Energy           =   +1.79 kcal/mol
DOCKED: USER    (4) Unbound System's Energy  [=(2)] =   +2.03 kcal/mol
DOCKED: USER    
DOCKED: USER    
DOCKED: USER    NEWDPF move 2_3_BPG_opt.pdbqt
DOCKED: USER    NEWDPF about 0.015000 0.083000 0.031000
DOCKED: USER    NEWDPF tran0 -11.915062 2.846648 -10.214861
DOCKED: USER    NEWDPF quaternion0 0.159720 -0.764982 0.379424 0.495308
DOCKED: USER    NEWDPF axisangle0 0.183857 -0.880587 0.436764 120.619936
DOCKED: USER    NEWDPF quat0 0.183857 -0.880587 0.436764 120.619936
DOCKED: USER    NEWDPF dihe0 -176.41 -60.61 -95.72 -22.07 9.44 -32.08 
DOCKED: USER  keepresnum = 1 
DOCKED: USER  
DOCKED: REMARK  6 active torsions:
DOCKED: REMARK  status: ('A' for Active; 'I' for Inactive)
DOCKED: REMARK    1  A    between atoms: P_1  and  O_3 
DOCKED: REMARK    2  A    between atoms: P_2  and  O_4 
DOCKED: REMARK    3  A    between atoms: O_3  and  C_13 
DOCKED: REMARK    4  A    between atoms: O_4  and  C_14 
DOCKED: REMARK    5  A    between atoms: C_13  and  C_14 
DOCKED: REMARK    6  A    between atoms: C_13  and  C_15 
DOCKED: USER                              x       y       z     vdW  Elec       q    Type
DOCKED: USER                           _______ _______ _______ _____ _____    ______ ____
DOCKED: ROOT
DOCKED: ATOM      1  C   UNL d   1     -11.606   2.965  -9.632 -0.09 +0.13    +0.193 C 
DOCKED: ENDROOT
DOCKED: BRANCH   1   2
DOCKED: ATOM      2  O   UNL d   1     -11.585   4.415  -9.411 -0.06 -0.28    -0.356 OA
DOCKED: BRANCH   2   3
DOCKED: ATOM      3  P   UNL d   1     -10.455   5.171  -8.484 -0.10 -0.02    -0.014 P 
DOCKED: ATOM      4  O   UNL d   1      -9.685   6.061  -9.471 +0.01 -0.25    -0.577 OA
DOCKED: ATOM      5  O   UNL d   1      -9.560   4.086  -7.889 -0.28 -0.79    -0.577 OA
DOCKED: ATOM      6  O   UNL d   1     -11.186   6.001  -7.434 -0.08 -1.00    -0.638 OA
DOCKED: ENDBRANCH   2   3
DOCKED: ENDBRANCH   1   2
DOCKED: BRANCH   1   7
DOCKED: ATOM      7  C   UNL d   1     -12.572   2.651 -10.833 -0.09 +0.08    +0.201 C 
DOCKED: BRANCH   7   8
DOCKED: ATOM      8  O   UNL d   1     -12.017   1.844 -11.895 -0.07 -0.16    -0.364 OA
DOCKED: BRANCH   8   9
DOCKED: ATOM      9  P   UNL d   1     -12.816   1.706 -13.337 -0.22 -0.01    -0.015 P 
DOCKED: ATOM     10  O   UNL d   1     -12.347   2.905 -14.169 -0.09 -0.53    -0.577 OA
DOCKED: ATOM     11  O   UNL d   1     -14.311   1.775 -13.026 -0.01 -0.31    -0.577 OA
DOCKED: ATOM     12  O   UNL d   1     -12.395   0.376 -13.960 -0.61 -0.98    -0.638 OA
DOCKED: ENDBRANCH   8   9
DOCKED: ENDBRANCH   7   8
DOCKED: ENDBRANCH   1   7
DOCKED: BRANCH   1  13
DOCKED: ATOM     13  C   UNL d   1     -12.143   2.230  -8.347 -0.03 +0.09    +0.073 C 
DOCKED: ATOM     14  O   UNL d   1     -11.401   1.345  -7.794 -0.39 -0.57    -0.547 OA
DOCKED: ATOM     15  O   UNL d   1     -13.280   2.613  -7.890 -0.45 -0.66    -0.547 OA
DOCKED: ENDBRANCH   1  13
DOCKED: TORSDOF 6
DOCKED: TER
DOCKED: ENDMDL
________________________________________________________________________________


	BEGINNING GENETIC ALGORITHM DOCKING 61 of 100
Run: 61 Seed: 1455471839 1157948150 [ Run 61 of 100 GA/GALS ]
Beginning LAMARCKIAN GENETIC ALGORITHM (LGA), with a maximum of 25000000 energy evaluations.

Final-Value: -5.858


	FINAL GENETIC ALGORITHM DOCKED STATE
	_______________________________________________


Detailed state:  trans -12.164 2.966 -10.244 quatxyzw -0.281663 0.750226 -0.279058 -0.529106 center 0.015 0.083 0.031 ntor 6 -174.0396 -46.6771 -80.3285 -30.5850 19.0240 -36.7804
State:	-12.164   2.966 -10.244  -0.332  0.884 -0.329 -116.110   -174.04  -46.68  -80.33  -30.59   19.02  -36.78

DOCKED: MODEL       61
DOCKED: USER    Run = 61
DOCKED: USER    DPF = D:/Protein_go_brrr/autodock/final/mut_K82N/2_3_BPG/dock.dpf
DOCKED: USER  
DOCKED: USER    Estimated Free Energy of Binding    =   -6.16 kcal/mol  [=(1)+(2)+(3)-(4)]
DOCKED: USER    Estimated Inhibition Constant, Ki   =   30.50 uM (micromolar)  [Temperature = 298.15 K]
DOCKED: USER    
DOCKED: USER    (1) Final Intermolecular Energy     =   -7.95 kcal/mol
DOCKED: USER        vdW + Hbond + desolv Energy     =   -2.29 kcal/mol
DOCKED: USER        Electrostatic Energy            =   -5.66 kcal/mol
DOCKED: USER    (2) Final Total Internal Energy     =   +2.09 kcal/mol
DOCKED: USER    (3) Torsional Free Energy           =   +1.79 kcal/mol
DOCKED: USER    (4) Unbound System's Energy  [=(2)] =   +2.09 kcal/mol
DOCKED: USER    
DOCKED: USER    
DOCKED: USER    NEWDPF move 2_3_BPG_opt.pdbqt
DOCKED: USER    NEWDPF about 0.015000 0.083000 0.031000
DOCKED: USER    NEWDPF tran0 -12.164404 2.966094 -10.243873
DOCKED: USER    NEWDPF quaternion0 -0.281663 0.750226 -0.279058 -0.529106
DOCKED: USER    NEWDPF axisangle0 -0.331932 0.884121 -0.328862 -116.109914
DOCKED: USER    NEWDPF quat0 -0.331932 0.884121 -0.328862 -116.109914
DOCKED: USER    NEWDPF dihe0 -174.04 -46.68 -80.33 -30.59 19.02 -36.78 
DOCKED: USER  keepresnum = 1 
DOCKED: USER  
DOCKED: REMARK  6 active torsions:
DOCKED: REMARK  status: ('A' for Active; 'I' for Inactive)
DOCKED: REMARK    1  A    between atoms: P_1  and  O_3 
DOCKED: REMARK    2  A    between atoms: P_2  and  O_4 
DOCKED: REMARK    3  A    between atoms: O_3  and  C_13 
DOCKED: REMARK    4  A    between atoms: O_4  and  C_14 
DOCKED: REMARK    5  A    between atoms: C_13  and  C_14 
DOCKED: REMARK    6  A    between atoms: C_13  and  C_15 
DOCKED: USER                              x       y       z     vdW  Elec       q    Type
DOCKED: USER                           _______ _______ _______ _____ _____    ______ ____
DOCKED: ROOT
DOCKED: ATOM      1  C   UNL d   1     -11.871   3.162  -9.674 -0.12 +0.13    +0.193 C 
DOCKED: ENDROOT
DOCKED: BRANCH   1   2
DOCKED: ATOM      2  O   UNL d   1     -12.289   4.540  -9.394 -0.04 -0.26    -0.356 OA
DOCKED: BRANCH   2   3
DOCKED: ATOM      3  P   UNL d   1     -11.503   5.525  -8.338 -0.04 -0.02    -0.014 P 
DOCKED: ATOM      4  O   UNL d   1     -11.262   6.820  -9.128 +0.02 -0.28    -0.577 OA
DOCKED: ATOM      5  O   UNL d   1     -10.189   4.838  -7.970 -0.27 -0.93    -0.577 OA
DOCKED: ATOM      6  O   UNL d   1     -12.420   5.761  -7.142 +0.03 -1.15    -0.638 OA
DOCKED: ENDBRANCH   2   3
DOCKED: ENDBRANCH   1   2
DOCKED: BRANCH   1   7
DOCKED: ATOM      7  C   UNL d   1     -12.765   2.589 -10.834 -0.09 +0.08    +0.201 C 
DOCKED: BRANCH   7   8
DOCKED: ATOM      8  O   UNL d   1     -12.057   2.117 -12.001 -0.07 -0.16    -0.364 OA
DOCKED: BRANCH   8   9
DOCKED: ATOM      9  P   UNL d   1     -12.834   2.010 -13.458 -0.22 -0.01    -0.015 P 
DOCKED: ATOM     10  O   UNL d   1     -12.372   3.240 -14.248 -0.08 -0.47    -0.577 OA
DOCKED: ATOM     11  O   UNL d   1     -14.334   2.049 -13.166 -0.01 -0.32    -0.577 OA
DOCKED: ATOM     12  O   UNL d   1     -12.387   0.704 -14.113 -0.55 -1.12    -0.638 OA
DOCKED: ENDBRANCH   8   9
DOCKED: ENDBRANCH   7   8
DOCKED: ENDBRANCH   1   7
DOCKED: BRANCH   1  13
DOCKED: ATOM     13  C   UNL d   1     -12.072   2.267  -8.394 -0.01 +0.09    +0.073 C 
DOCKED: ATOM     14  O   UNL d   1     -11.050   1.683  -7.890 -0.39 -0.64    -0.547 OA
DOCKED: ATOM     15  O   UNL d   1     -13.252   2.228  -7.890 -0.47 -0.59    -0.547 OA
DOCKED: ENDBRANCH   1  13
DOCKED: TORSDOF 6
DOCKED: TER
DOCKED: ENDMDL
________________________________________________________________________________


	BEGINNING GENETIC ALGORITHM DOCKING 62 of 100
Run: 62 Seed: 1186101390 564834378 [ Run 62 of 100 GA/GALS ]
Beginning LAMARCKIAN GENETIC ALGORITHM (LGA), with a maximum of 25000000 energy evaluations.

Final-Value: -5.731


	FINAL GENETIC ALGORITHM DOCKED STATE
	_______________________________________________


Detailed state:  trans -12.057 2.838 -10.231 quatxyzw 0.338641 -0.729054 0.200887 0.559863 center 0.015 0.083 0.031 ntor 6 164.1550 -60.6994 -25.3669 -21.3471 0.3929 -62.4246
State:	-12.057   2.838 -10.231   0.409 -0.880  0.242 111.907    164.16  -60.70  -25.37  -21.35    0.39  -62.42

DOCKED: MODEL       62
DOCKED: USER    Run = 62
DOCKED: USER    DPF = D:/Protein_go_brrr/autodock/final/mut_K82N/2_3_BPG/dock.dpf
DOCKED: USER  
DOCKED: USER    Estimated Free Energy of Binding    =   -5.98 kcal/mol  [=(1)+(2)+(3)-(4)]
DOCKED: USER    Estimated Inhibition Constant, Ki   =   41.22 uM (micromolar)  [Temperature = 298.15 K]
DOCKED: USER    
DOCKED: USER    (1) Final Intermolecular Energy     =   -7.77 kcal/mol
DOCKED: USER        vdW + Hbond + desolv Energy     =   -2.35 kcal/mol
DOCKED: USER        Electrostatic Energy            =   -5.42 kcal/mol
DOCKED: USER    (2) Final Total Internal Energy     =   +2.04 kcal/mol
DOCKED: USER    (3) Torsional Free Energy           =   +1.79 kcal/mol
DOCKED: USER    (4) Unbound System's Energy  [=(2)] =   +2.04 kcal/mol
DOCKED: USER    
DOCKED: USER    
DOCKED: USER    NEWDPF move 2_3_BPG_opt.pdbqt
DOCKED: USER    NEWDPF about 0.015000 0.083000 0.031000
DOCKED: USER    NEWDPF tran0 -12.057214 2.838415 -10.231073
DOCKED: USER    NEWDPF quaternion0 0.338641 -0.729054 0.200887 0.559863
DOCKED: USER    NEWDPF axisangle0 0.408698 -0.879879 0.242445 111.907327
DOCKED: USER    NEWDPF quat0 0.408698 -0.879879 0.242445 111.907327
DOCKED: USER    NEWDPF dihe0 164.16 -60.70 -25.37 -21.35 0.39 -62.42 
DOCKED: USER  keepresnum = 1 
DOCKED: USER  
DOCKED: REMARK  6 active torsions:
DOCKED: REMARK  status: ('A' for Active; 'I' for Inactive)
DOCKED: REMARK    1  A    between atoms: P_1  and  O_3 
DOCKED: REMARK    2  A    between atoms: P_2  and  O_4 
DOCKED: REMARK    3  A    between atoms: O_3  and  C_13 
DOCKED: REMARK    4  A    between atoms: O_4  and  C_14 
DOCKED: REMARK    5  A    between atoms: C_13  and  C_14 
DOCKED: REMARK    6  A    between atoms: C_13  and  C_15 
DOCKED: USER                              x       y       z     vdW  Elec       q    Type
DOCKED: USER                           _______ _______ _______ _____ _____    ______ ____
DOCKED: ROOT
DOCKED: ATOM      1  C   UNL d   1     -11.801   3.052  -9.650 -0.11 +0.13    +0.193 C 
DOCKED: ENDROOT
DOCKED: BRANCH   1   2
DOCKED: ATOM      2  O   UNL d   1     -12.477   4.302  -9.284 -0.04 -0.27    -0.356 OA
DOCKED: BRANCH   2   3
DOCKED: ATOM      3  P   UNL d   1     -11.787   5.458  -8.339 -0.03 -0.02    -0.014 P 
DOCKED: ATOM      4  O   UNL d   1     -11.646   6.676  -9.265 +0.02 -0.28    -0.577 OA
DOCKED: ATOM      5  O   UNL d   1     -10.425   4.927  -7.896 -0.16 -1.02    -0.577 OA
DOCKED: ATOM      6  O   UNL d   1     -12.735   5.744  -7.178 -0.11 -1.03    -0.638 OA
DOCKED: ENDBRANCH   2   3
DOCKED: ENDBRANCH   1   2
DOCKED: BRANCH   1   7
DOCKED: ATOM      7  C   UNL d   1     -12.580   2.387 -10.843 -0.09 +0.08    +0.201 C 
DOCKED: BRANCH   7   8
DOCKED: ATOM      8  O   UNL d   1     -12.052   2.645 -12.163 -0.08 -0.16    -0.364 OA
DOCKED: BRANCH   8   9
DOCKED: ATOM      9  P   UNL d   1     -12.838   2.068 -13.499 -0.22 -0.01    -0.015 P 
DOCKED: ATOM     10  O   UNL d   1     -12.388   2.975 -14.650 -0.12 -0.65    -0.577 OA
DOCKED: ATOM     11  O   UNL d   1     -14.336   2.195 -13.224 -0.01 -0.32    -0.577 OA
DOCKED: ATOM     12  O   UNL d   1     -12.387   0.621 -13.699 -0.64 -0.76    -0.638 OA
DOCKED: ENDBRANCH   8   9
DOCKED: ENDBRANCH   7   8
DOCKED: ENDBRANCH   1   7
DOCKED: BRANCH   1  13
DOCKED: ATOM     13  C   UNL d   1     -11.805   2.059  -8.429 -0.09 +0.08    +0.073 C 
DOCKED: ATOM     14  O   UNL d   1     -10.768   1.334  -8.227 -0.10 -0.43    -0.547 OA
DOCKED: ATOM     15  O   UNL d   1     -12.835   2.081  -7.663 -0.57 -0.76    -0.547 OA
DOCKED: ENDBRANCH   1  13
DOCKED: TORSDOF 6
DOCKED: TER
DOCKED: ENDMDL
________________________________________________________________________________


	BEGINNING GENETIC ALGORITHM DOCKING 63 of 100
Run: 63 Seed: 792970781 566945048 [ Run 63 of 100 GA/GALS ]
Beginning LAMARCKIAN GENETIC ALGORITHM (LGA), with a maximum of 25000000 energy evaluations.

Final-Value: -6.088


	FINAL GENETIC ALGORITHM DOCKED STATE
	_______________________________________________


Detailed state:  trans 2.552 -14.643 -6.712 quatxyzw -0.445736 -0.165767 -0.459940 0.749864 center 0.015 0.083 0.031 ntor 6 -165.7529 176.3671 156.5297 23.3512 22.9260 -41.3292
State:	  2.552 -14.643  -6.712  -0.674 -0.251 -0.695 82.843   -165.75  176.37  156.53   23.35   22.93  -41.33

DOCKED: MODEL       63
DOCKED: USER    Run = 63
DOCKED: USER    DPF = D:/Protein_go_brrr/autodock/final/mut_K82N/2_3_BPG/dock.dpf
DOCKED: USER  
DOCKED: USER    Estimated Free Energy of Binding    =   -6.34 kcal/mol  [=(1)+(2)+(3)-(4)]
DOCKED: USER    Estimated Inhibition Constant, Ki   =   22.44 uM (micromolar)  [Temperature = 298.15 K]
DOCKED: USER    
DOCKED: USER    (1) Final Intermolecular Energy     =   -8.13 kcal/mol
DOCKED: USER        vdW + Hbond + desolv Energy     =   -3.82 kcal/mol
DOCKED: USER        Electrostatic Energy            =   -4.32 kcal/mol
DOCKED: USER    (2) Final Total Internal Energy     =   +2.04 kcal/mol
DOCKED: USER    (3) Torsional Free Energy           =   +1.79 kcal/mol
DOCKED: USER    (4) Unbound System's Energy  [=(2)] =   +2.04 kcal/mol
DOCKED: USER    
DOCKED: USER    
DOCKED: USER    NEWDPF move 2_3_BPG_opt.pdbqt
DOCKED: USER    NEWDPF about 0.015000 0.083000 0.031000
DOCKED: USER    NEWDPF tran0 2.551505 -14.643375 -6.712465
DOCKED: USER    NEWDPF quaternion0 -0.445736 -0.165767 -0.459940 0.749864
DOCKED: USER    NEWDPF axisangle0 -0.673733 -0.250558 -0.695201 82.842855
DOCKED: USER    NEWDPF quat0 -0.673733 -0.250558 -0.695201 82.842855
DOCKED: USER    NEWDPF dihe0 -165.75 176.37 156.53 23.35 22.93 -41.33 
DOCKED: USER  keepresnum = 1 
DOCKED: USER  
DOCKED: REMARK  6 active torsions:
DOCKED: REMARK  status: ('A' for Active; 'I' for Inactive)
DOCKED: REMARK    1  A    between atoms: P_1  and  O_3 
DOCKED: REMARK    2  A    between atoms: P_2  and  O_4 
DOCKED: REMARK    3  A    between atoms: O_3  and  C_13 
DOCKED: REMARK    4  A    between atoms: O_4  and  C_14 
DOCKED: REMARK    5  A    between atoms: C_13  and  C_14 
DOCKED: REMARK    6  A    between atoms: C_13  and  C_15 
DOCKED: USER                              x       y       z     vdW  Elec       q    Type
DOCKED: USER                           _______ _______ _______ _____ _____    ______ ____
DOCKED: ROOT
DOCKED: ATOM      1  C   UNL d   1       2.476 -15.238  -7.012 -0.14 +0.20    +0.193 C 
DOCKED: ENDROOT
DOCKED: BRANCH   1   2
DOCKED: ATOM      2  O   UNL d   1       1.072 -15.643  -6.879 -0.30 -0.35    -0.356 OA
DOCKED: BRANCH   2   3
DOCKED: ATOM      3  P   UNL d   1       0.574 -16.868  -5.902 -0.10 -0.02    -0.014 P 
DOCKED: ATOM      4  O   UNL d   1       1.877 -17.518  -5.409 -0.17 -0.85    -0.577 OA
DOCKED: ATOM      5  O   UNL d   1      -0.243 -17.830  -6.762 +0.01 -0.23    -0.577 OA
DOCKED: ATOM      6  O   UNL d   1      -0.219 -16.260  -4.750 -0.35 -0.81    -0.638 OA
DOCKED: ENDBRANCH   2   3
DOCKED: ENDBRANCH   1   2
DOCKED: BRANCH   1   7
DOCKED: ATOM      7  C   UNL d   1       2.611 -13.732  -6.579 -0.19 +0.19    +0.201 C 
DOCKED: BRANCH   7   8
DOCKED: ATOM      8  O   UNL d   1       3.464 -13.477  -5.441 -0.14 -0.55    -0.364 OA
DOCKED: BRANCH   8   9
DOCKED: ATOM      9  P   UNL d   1       3.217 -12.138  -4.502 -0.60 -0.01    -0.015 P 
DOCKED: ATOM     10  O   UNL d   1       2.430 -11.168  -5.391 -0.13 -0.20    -0.577 OA
DOCKED: ATOM     11  O   UNL d   1       4.596 -11.588  -4.138 -0.60 -0.39    -0.577 OA
DOCKED: ATOM     12  O   UNL d   1       2.410 -12.584  -3.284 -0.60 -0.98    -0.638 OA
DOCKED: ENDBRANCH   8   9
DOCKED: ENDBRANCH   7   8
DOCKED: ENDBRANCH   1   7
DOCKED: BRANCH   1  13
DOCKED: ATOM     13  C   UNL d   1       2.937 -15.375  -8.511 -0.12 +0.03    +0.073 C 
DOCKED: ATOM     14  O   UNL d   1       3.801 -16.273  -8.806 +0.02 -0.15    -0.547 OA
DOCKED: ATOM     15  O   UNL d   1       2.364 -14.610  -9.369 -0.42 -0.19    -0.547 OA
DOCKED: ENDBRANCH   1  13
DOCKED: TORSDOF 6
DOCKED: TER
DOCKED: ENDMDL
________________________________________________________________________________


	BEGINNING GENETIC ALGORITHM DOCKING 64 of 100
Run: 64 Seed: 126458493 1295277010 [ Run 64 of 100 GA/GALS ]
Beginning LAMARCKIAN GENETIC ALGORITHM (LGA), with a maximum of 25000000 energy evaluations.

Final-Value: -6.522


	FINAL GENETIC ALGORITHM DOCKED STATE
	_______________________________________________


Detailed state:  trans 0.306 -16.498 -6.560 quatxyzw 0.166368 0.794462 0.574736 0.104065 center 0.015 0.083 0.031 ntor 6 -27.5201 -151.4114 76.4436 19.4052 -62.5331 -107.9132
State:	  0.306 -16.498  -6.560   0.167  0.799  0.578 168.053    -27.52 -151.41   76.44   19.41  -62.53 -107.91

DOCKED: MODEL       64
DOCKED: USER    Run = 64
DOCKED: USER    DPF = D:/Protein_go_brrr/autodock/final/mut_K82N/2_3_BPG/dock.dpf
DOCKED: USER  
DOCKED: USER    Estimated Free Energy of Binding    =   -6.92 kcal/mol  [=(1)+(2)+(3)-(4)]
DOCKED: USER    Estimated Inhibition Constant, Ki   =    8.41 uM (micromolar)  [Temperature = 298.15 K]
DOCKED: USER    
DOCKED: USER    (1) Final Intermolecular Energy     =   -8.71 kcal/mol
DOCKED: USER        vdW + Hbond + desolv Energy     =   -4.10 kcal/mol
DOCKED: USER        Electrostatic Energy            =   -4.62 kcal/mol
DOCKED: USER    (2) Final Total Internal Energy     =   +2.19 kcal/mol
DOCKED: USER    (3) Torsional Free Energy           =   +1.79 kcal/mol
DOCKED: USER    (4) Unbound System's Energy  [=(2)] =   +2.19 kcal/mol
DOCKED: USER    
DOCKED: USER    
DOCKED: USER    NEWDPF move 2_3_BPG_opt.pdbqt
DOCKED: USER    NEWDPF about 0.015000 0.083000 0.031000
DOCKED: USER    NEWDPF tran0 0.305826 -16.497706 -6.559594
DOCKED: USER    NEWDPF quaternion0 0.166368 0.794462 0.574736 0.104065
DOCKED: USER    NEWDPF axisangle0 0.167276 0.798799 0.577874 168.053347
DOCKED: USER    NEWDPF quat0 0.167276 0.798799 0.577874 168.053347
DOCKED: USER    NEWDPF dihe0 -27.52 -151.41 76.44 19.41 -62.53 -107.91 
DOCKED: USER  keepresnum = 1 
DOCKED: USER  
DOCKED: REMARK  6 active torsions:
DOCKED: REMARK  status: ('A' for Active; 'I' for Inactive)
DOCKED: REMARK    1  A    between atoms: P_1  and  O_3 
DOCKED: REMARK    2  A    between atoms: P_2  and  O_4 
DOCKED: REMARK    3  A    between atoms: O_3  and  C_13 
DOCKED: REMARK    4  A    between atoms: O_4  and  C_14 
DOCKED: REMARK    5  A    between atoms: C_13  and  C_14 
DOCKED: REMARK    6  A    between atoms: C_13  and  C_15 
DOCKED: USER                              x       y       z     vdW  Elec       q    Type
DOCKED: USER                           _______ _______ _______ _____ _____    ______ ____
DOCKED: ROOT
DOCKED: ATOM      1  C   UNL d   1       0.729 -16.583  -7.072 -0.12 +0.13    +0.193 C 
DOCKED: ENDROOT
DOCKED: BRANCH   1   2
DOCKED: ATOM      2  O   UNL d   1       1.988 -17.118  -6.541 -0.23 -0.35    -0.356 OA
DOCKED: BRANCH   2   3
DOCKED: ATOM      3  P   UNL d   1       3.401 -16.276  -6.548 -0.08 -0.02    -0.014 P 
DOCKED: ATOM      4  O   UNL d   1       2.968 -14.802  -6.583 -0.02 -0.73    -0.577 OA
DOCKED: ATOM      5  O   UNL d   1       4.156 -16.670  -7.816 +0.03 -0.24    -0.577 OA
DOCKED: ATOM      6  O   UNL d   1       4.154 -16.608  -5.264 -0.39 -1.17    -0.638 OA
DOCKED: ENDBRANCH   2   3
DOCKED: ENDBRANCH   1   2
DOCKED: BRANCH   1   7
DOCKED: ATOM      7  C   UNL d   1      -0.364 -16.650  -5.943 -0.23 +0.15    +0.201 C 
DOCKED: BRANCH   7   8
DOCKED: ATOM      8  O   UNL d   1       0.004 -16.068  -4.673 -0.42 -0.59    -0.364 OA
DOCKED: BRANCH   8   9
DOCKED: ATOM      9  P   UNL d   1      -0.884 -14.822  -4.044 -0.72 -0.01    -0.015 P 
DOCKED: ATOM     10  O   UNL d   1      -0.069 -13.559  -4.345 -0.26 -0.62    -0.577 OA
DOCKED: ATOM     11  O   UNL d   1      -1.007 -15.078  -2.542 -0.67 -0.44    -0.577 OA
DOCKED: ATOM     12  O   UNL d   1      -2.232 -14.821  -4.763 -0.68 -0.46    -0.638 OA
DOCKED: ENDBRANCH   8   9
DOCKED: ENDBRANCH   7   8
DOCKED: ENDBRANCH   1   7
DOCKED: BRANCH   1  13
DOCKED: ATOM     13  C   UNL d   1       0.247 -17.451  -8.294 -0.10 +0.02    +0.073 C 
DOCKED: ATOM     14  O   UNL d   1       0.614 -18.676  -8.356 +0.02 -0.11    -0.547 OA
DOCKED: ATOM     15  O   UNL d   1      -0.547 -16.888  -9.131 -0.21 -0.18    -0.547 OA
DOCKED: ENDBRANCH   1  13
DOCKED: TORSDOF 6
DOCKED: TER
DOCKED: ENDMDL
________________________________________________________________________________


	BEGINNING GENETIC ALGORITHM DOCKING 65 of 100
Run: 65 Seed: 1363303221 187534894 [ Run 65 of 100 GA/GALS ]
Beginning LAMARCKIAN GENETIC ALGORITHM (LGA), with a maximum of 25000000 energy evaluations.

Final-Value: -5.972


	FINAL GENETIC ALGORITHM DOCKED STATE
	_______________________________________________


Detailed state:  trans -11.761 2.843 -10.419 quatxyzw -0.154357 -0.658855 0.553595 0.485404 center 0.015 0.083 0.031 ntor 6 -141.9606 -69.1647 -145.3103 -1.9780 -1.8689 -8.3446
State:	-11.761   2.843 -10.419  -0.177 -0.754  0.633 121.922   -141.96  -69.16 -145.31   -1.98   -1.87   -8.34

DOCKED: MODEL       65
DOCKED: USER    Run = 65
DOCKED: USER    DPF = D:/Protein_go_brrr/autodock/final/mut_K82N/2_3_BPG/dock.dpf
DOCKED: USER  
DOCKED: USER    Estimated Free Energy of Binding    =   -6.21 kcal/mol  [=(1)+(2)+(3)-(4)]
DOCKED: USER    Estimated Inhibition Constant, Ki   =   28.28 uM (micromolar)  [Temperature = 298.15 K]
DOCKED: USER    
DOCKED: USER    (1) Final Intermolecular Energy     =   -8.00 kcal/mol
DOCKED: USER        vdW + Hbond + desolv Energy     =   -2.76 kcal/mol
DOCKED: USER        Electrostatic Energy            =   -5.24 kcal/mol
DOCKED: USER    (2) Final Total Internal Energy     =   +2.02 kcal/mol
DOCKED: USER    (3) Torsional Free Energy           =   +1.79 kcal/mol
DOCKED: USER    (4) Unbound System's Energy  [=(2)] =   +2.02 kcal/mol
DOCKED: USER    
DOCKED: USER    
DOCKED: USER    NEWDPF move 2_3_BPG_opt.pdbqt
DOCKED: USER    NEWDPF about 0.015000 0.083000 0.031000
DOCKED: USER    NEWDPF tran0 -11.761236 2.842811 -10.419233
DOCKED: USER    NEWDPF quaternion0 -0.154357 -0.658855 0.553595 0.485404
DOCKED: USER    NEWDPF axisangle0 -0.176551 -0.753588 0.633194 121.922137
DOCKED: USER    NEWDPF quat0 -0.176551 -0.753588 0.633194 121.922137
DOCKED: USER    NEWDPF dihe0 -141.96 -69.16 -145.31 -1.98 -1.87 -8.34 
DOCKED: USER  keepresnum = 1 
DOCKED: USER  
DOCKED: REMARK  6 active torsions:
DOCKED: REMARK  status: ('A' for Active; 'I' for Inactive)
DOCKED: REMARK    1  A    between atoms: P_1  and  O_3 
DOCKED: REMARK    2  A    between atoms: P_2  and  O_4 
DOCKED: REMARK    3  A    between atoms: O_3  and  C_13 
DOCKED: REMARK    4  A    between atoms: O_4  and  C_14 
DOCKED: REMARK    5  A    between atoms: C_13  and  C_14 
DOCKED: REMARK    6  A    between atoms: C_13  and  C_15 
DOCKED: USER                              x       y       z     vdW  Elec       q    Type
DOCKED: USER                           _______ _______ _______ _____ _____    ______ ____
DOCKED: ROOT
DOCKED: ATOM      1  C   UNL d   1     -11.667   2.851  -9.756 -0.07 +0.12    +0.193 C 
DOCKED: ENDROOT
DOCKED: BRANCH   1   2
DOCKED: ATOM      2  O   UNL d   1     -10.872   4.038  -9.421 -0.09 -0.27    -0.356 OA
DOCKED: BRANCH   2   3
DOCKED: ATOM      3  P   UNL d   1      -9.585   4.004  -8.398 -0.24 -0.01    -0.014 P 
DOCKED: ATOM      4  O   UNL d   1      -8.361   4.147  -9.316 -0.05 -0.22    -0.577 OA
DOCKED: ATOM      5  O   UNL d   1      -9.603   2.649  -7.693 -0.04 -0.68    -0.577 OA
DOCKED: ATOM      6  O   UNL d   1      -9.711   5.187  -7.444 -0.51 -1.05    -0.638 OA
DOCKED: ENDBRANCH   2   3
DOCKED: ENDBRANCH   1   2
DOCKED: BRANCH   1   7
DOCKED: ATOM      7  C   UNL d   1     -12.143   2.967 -11.250 -0.10 +0.08    +0.201 C 
DOCKED: BRANCH   7   8
DOCKED: ATOM      8  O   UNL d   1     -12.348   1.717 -11.946 -0.09 -0.16    -0.364 OA
DOCKED: BRANCH   8   9
DOCKED: ATOM      9  P   UNL d   1     -12.821   1.717 -13.531 -0.20 -0.01    -0.015 P 
DOCKED: ATOM     10  O   UNL d   1     -12.085   2.903 -14.166 -0.09 -0.51    -0.577 OA
DOCKED: ATOM     11  O   UNL d   1     -14.336   1.912 -13.544 -0.02 -0.38    -0.577 OA
DOCKED: ATOM     12  O   UNL d   1     -12.384   0.382 -14.132 -0.58 -1.12    -0.638 OA
DOCKED: ENDBRANCH   8   9
DOCKED: ENDBRANCH   7   8
DOCKED: ENDBRANCH   1   7
DOCKED: BRANCH   1  13
DOCKED: ATOM     13  C   UNL d   1     -12.936   2.772  -8.827 -0.10 +0.06    +0.073 C 
DOCKED: ATOM     14  O   UNL d   1     -12.833   2.167  -7.702 -0.57 -0.78    -0.547 OA
DOCKED: ATOM     15  O   UNL d   1     -13.991   3.381  -9.230 -0.00 -0.30    -0.547 OA
DOCKED: ENDBRANCH   1  13
DOCKED: TORSDOF 6
DOCKED: TER
DOCKED: ENDMDL
________________________________________________________________________________


	BEGINNING GENETIC ALGORITHM DOCKING 66 of 100
Run: 66 Seed: 1196920956 1038488026 [ Run 66 of 100 GA/GALS ]
Beginning LAMARCKIAN GENETIC ALGORITHM (LGA), with a maximum of 25000000 energy evaluations.

Final-Value: -6.051


	FINAL GENETIC ALGORITHM DOCKED STATE
	_______________________________________________


Detailed state:  trans 0.493 -17.580 -5.669 quatxyzw -0.406804 0.215261 0.384184 0.800360 center 0.015 0.083 0.031 ntor 6 100.0502 -135.8953 -58.9474 25.2996 -13.1590 164.7506
State:	  0.493 -17.580  -5.669  -0.679  0.359  0.641 73.671    100.05 -135.90  -58.95   25.30  -13.16  164.75

DOCKED: MODEL       66
DOCKED: USER    Run = 66
DOCKED: USER    DPF = D:/Protein_go_brrr/autodock/final/mut_K82N/2_3_BPG/dock.dpf
DOCKED: USER  
DOCKED: USER    Estimated Free Energy of Binding    =   -6.41 kcal/mol  [=(1)+(2)+(3)-(4)]
DOCKED: USER    Estimated Inhibition Constant, Ki   =   20.11 uM (micromolar)  [Temperature = 298.15 K]
DOCKED: USER    
DOCKED: USER    (1) Final Intermolecular Energy     =   -8.20 kcal/mol
DOCKED: USER        vdW + Hbond + desolv Energy     =   -3.96 kcal/mol
DOCKED: USER        Electrostatic Energy            =   -4.24 kcal/mol
DOCKED: USER    (2) Final Total Internal Energy     =   +2.15 kcal/mol
DOCKED: USER    (3) Torsional Free Energy           =   +1.79 kcal/mol
DOCKED: USER    (4) Unbound System's Energy  [=(2)] =   +2.15 kcal/mol
DOCKED: USER    
DOCKED: USER    
DOCKED: USER    NEWDPF move 2_3_BPG_opt.pdbqt
DOCKED: USER    NEWDPF about 0.015000 0.083000 0.031000
DOCKED: USER    NEWDPF tran0 0.492926 -17.579520 -5.668787
DOCKED: USER    NEWDPF quaternion0 -0.406804 0.215261 0.384184 0.800360
DOCKED: USER    NEWDPF axisangle0 -0.678549 0.359055 0.640820 73.671019
DOCKED: USER    NEWDPF quat0 -0.678549 0.359055 0.640820 73.671019
DOCKED: USER    NEWDPF dihe0 100.05 -135.90 -58.95 25.30 -13.16 164.75 
DOCKED: USER  keepresnum = 1 
DOCKED: USER  
DOCKED: REMARK  6 active torsions:
DOCKED: REMARK  status: ('A' for Active; 'I' for Inactive)
DOCKED: REMARK    1  A    between atoms: P_1  and  O_3 
DOCKED: REMARK    2  A    between atoms: P_2  and  O_4 
DOCKED: REMARK    3  A    between atoms: O_3  and  C_13 
DOCKED: REMARK    4  A    between atoms: O_4  and  C_14 
DOCKED: REMARK    5  A    between atoms: C_13  and  C_14 
DOCKED: REMARK    6  A    between atoms: C_13  and  C_15 
DOCKED: USER                              x       y       z     vdW  Elec       q    Type
DOCKED: USER                           _______ _______ _______ _____ _____    ______ ____
DOCKED: ROOT
DOCKED: ATOM      1  C   UNL d   1      -0.064 -17.278  -5.889 -0.19 +0.14    +0.193 C 
DOCKED: ENDROOT
DOCKED: BRANCH   1   2
DOCKED: ATOM      2  O   UNL d   1       0.067 -15.838  -5.641 -0.67 -0.45    -0.356 OA
DOCKED: BRANCH   2   3
DOCKED: ATOM      3  P   UNL d   1      -0.767 -15.044  -4.467 -0.71 -0.01    -0.014 P 
DOCKED: ATOM      4  O   UNL d   1      -0.752 -16.007  -3.269 -0.18 -0.50    -0.577 OA
DOCKED: ATOM      5  O   UNL d   1      -2.184 -14.821  -4.991 -0.70 -0.43    -0.577 OA
DOCKED: ATOM      6  O   UNL d   1      -0.024 -13.750  -4.154 -0.17 -0.77    -0.638 OA
DOCKED: ENDBRANCH   2   3
DOCKED: ENDBRANCH   1   2
DOCKED: BRANCH   1   7
DOCKED: ATOM      7  C   UNL d   1       1.334 -17.960  -5.652 -0.13 +0.18    +0.201 C 
DOCKED: BRANCH   7   8
DOCKED: ATOM      8  O   UNL d   1       2.488 -17.186  -6.047 -0.22 -0.48    -0.364 OA
DOCKED: BRANCH   8   9
DOCKED: ATOM      9  P   UNL d   1       4.007 -17.685  -5.621 -0.16 -0.01    -0.015 P 
DOCKED: ATOM     10  O   UNL d   1       4.769 -17.813  -6.946 +0.02 -0.22    -0.577 OA
DOCKED: ATOM     11  O   UNL d   1       3.853 -19.033  -4.919 -0.06 -0.31    -0.577 OA
DOCKED: ATOM     12  O   UNL d   1       4.601 -16.604  -4.719 -0.57 -1.07    -0.638 OA
DOCKED: ENDBRANCH   8   9
DOCKED: ENDBRANCH   7   8
DOCKED: ENDBRANCH   1   7
DOCKED: BRANCH   1  13
DOCKED: ATOM     13  C   UNL d   1      -0.503 -17.532  -7.379 -0.14 +0.03    +0.073 C 
DOCKED: ATOM     14  O   UNL d   1      -0.189 -18.646  -7.928 +0.03 -0.12    -0.547 OA
DOCKED: ATOM     15  O   UNL d   1      -1.214 -16.622  -7.940 -0.10 -0.21    -0.547 OA
DOCKED: ENDBRANCH   1  13
DOCKED: TORSDOF 6
DOCKED: TER
DOCKED: ENDMDL
________________________________________________________________________________


	BEGINNING GENETIC ALGORITHM DOCKING 67 of 100
Run: 67 Seed: 608959171 1351070751 [ Run 67 of 100 GA/GALS ]
Beginning LAMARCKIAN GENETIC ALGORITHM (LGA), with a maximum of 25000000 energy evaluations.

Final-Value: -5.535


	FINAL GENETIC ALGORITHM DOCKED STATE
	_______________________________________________


Detailed state:  trans -11.824 3.860 -12.191 quatxyzw 0.623671 -0.236057 0.521066 -0.532730 center 0.015 0.083 0.031 ntor 6 -141.1114 87.8148 -76.3002 2.2842 16.7048 -8.2800
State:	-11.824   3.860 -12.191   0.737 -0.279  0.616 -115.620   -141.11   87.81  -76.30    2.28   16.70   -8.28

DOCKED: MODEL       67
DOCKED: USER    Run = 67
DOCKED: USER    DPF = D:/Protein_go_brrr/autodock/final/mut_K82N/2_3_BPG/dock.dpf
DOCKED: USER  
DOCKED: USER    Estimated Free Energy of Binding    =   -5.75 kcal/mol  [=(1)+(2)+(3)-(4)]
DOCKED: USER    Estimated Inhibition Constant, Ki   =   61.17 uM (micromolar)  [Temperature = 298.15 K]
DOCKED: USER    
DOCKED: USER    (1) Final Intermolecular Energy     =   -7.54 kcal/mol
DOCKED: USER        vdW + Hbond + desolv Energy     =   -2.17 kcal/mol
DOCKED: USER        Electrostatic Energy            =   -5.36 kcal/mol
DOCKED: USER    (2) Final Total Internal Energy     =   +2.00 kcal/mol
DOCKED: USER    (3) Torsional Free Energy           =   +1.79 kcal/mol
DOCKED: USER    (4) Unbound System's Energy  [=(2)] =   +2.00 kcal/mol
DOCKED: USER    
DOCKED: USER    
DOCKED: USER    NEWDPF move 2_3_BPG_opt.pdbqt
DOCKED: USER    NEWDPF about 0.015000 0.083000 0.031000
DOCKED: USER    NEWDPF tran0 -11.823627 3.859799 -12.190515
DOCKED: USER    NEWDPF quaternion0 0.623671 -0.236057 0.521066 -0.532730
DOCKED: USER    NEWDPF axisangle0 0.736951 -0.278933 0.615710 -115.619828
DOCKED: USER    NEWDPF quat0 0.736951 -0.278933 0.615710 -115.619828
DOCKED: USER    NEWDPF dihe0 -141.11 87.81 -76.30 2.28 16.70 -8.28 
DOCKED: USER  keepresnum = 1 
DOCKED: USER  
DOCKED: REMARK  6 active torsions:
DOCKED: REMARK  status: ('A' for Active; 'I' for Inactive)
DOCKED: REMARK    1  A    between atoms: P_1  and  O_3 
DOCKED: REMARK    2  A    between atoms: P_2  and  O_4 
DOCKED: REMARK    3  A    between atoms: O_3  and  C_13 
DOCKED: REMARK    4  A    between atoms: O_4  and  C_14 
DOCKED: REMARK    5  A    between atoms: C_13  and  C_14 
DOCKED: REMARK    6  A    between atoms: C_13  and  C_15 
DOCKED: USER                              x       y       z     vdW  Elec       q    Type
DOCKED: USER                           _______ _______ _______ _____ _____    ______ ____
DOCKED: ROOT
DOCKED: ATOM      1  C   UNL d   1     -11.724   3.722 -12.839 -0.09 +0.08    +0.193 C 
DOCKED: ENDROOT
DOCKED: BRANCH   1   2
DOCKED: ATOM      2  O   UNL d   1     -13.021   3.778 -13.523 -0.05 -0.18    -0.356 OA
DOCKED: BRANCH   2   3
DOCKED: ATOM      3  P   UNL d   1     -13.570   2.587 -14.515 -0.08 -0.02    -0.014 P 
DOCKED: ATOM      4  O   UNL d   1     -13.196   3.062 -15.927 -0.37 -1.07    -0.577 OA
DOCKED: ATOM      5  O   UNL d   1     -15.085   2.508 -14.332 -0.01 -0.35    -0.577 OA
DOCKED: ATOM      6  O   UNL d   1     -12.846   1.296 -14.148 -0.41 -1.05    -0.638 OA
DOCKED: ENDBRANCH   2   3
DOCKED: ENDBRANCH   1   2
DOCKED: BRANCH   1   7
DOCKED: ATOM      7  C   UNL d   1     -11.889   4.321 -11.394 -0.09 +0.07    +0.201 C 
DOCKED: BRANCH   7   8
DOCKED: ATOM      8  O   UNL d   1     -10.992   3.799 -10.389 -0.08 -0.17    -0.364 OA
DOCKED: BRANCH   8   9
DOCKED: ATOM      9  P   UNL d   1     -11.360   3.959  -8.784 -0.07 -0.02    -0.015 P 
DOCKED: ATOM     10  O   UNL d   1     -11.793   2.559  -8.333 -0.41 -0.81    -0.577 OA
DOCKED: ATOM     11  O   UNL d   1     -12.503   4.969  -8.687 -0.01 -0.56    -0.577 OA
DOCKED: ATOM     12  O   UNL d   1     -10.090   4.424  -8.074 -0.17 -1.00    -0.638 OA
DOCKED: ENDBRANCH   8   9
DOCKED: ENDBRANCH   7   8
DOCKED: ENDBRANCH   1   7
DOCKED: BRANCH   1  13
DOCKED: ATOM     13  C   UNL d   1     -10.663   4.582 -13.623 -0.21 +0.02    +0.073 C 
DOCKED: ATOM     14  O   UNL d   1     -10.005   4.026 -14.570 -0.11 -0.21    -0.547 OA
DOCKED: ATOM     15  O   UNL d   1     -10.567   5.822 -13.303 -0.02 -0.11    -0.547 OA
DOCKED: ENDBRANCH   1  13
DOCKED: TORSDOF 6
DOCKED: TER
DOCKED: ENDMDL
________________________________________________________________________________


	BEGINNING GENETIC ALGORITHM DOCKING 68 of 100
Run: 68 Seed: 1067676771 219463231 [ Run 68 of 100 GA/GALS ]
Beginning LAMARCKIAN GENETIC ALGORITHM (LGA), with a maximum of 25000000 energy evaluations.

Final-Value: -6.065


	FINAL GENETIC ALGORITHM DOCKED STATE
	_______________________________________________


Detailed state:  trans 0.325 -17.474 -5.728 quatxyzw -0.324653 0.010684 0.452319 0.830598 center 0.015 0.083 0.031 ntor 6 -18.7816 -4.9262 -108.6693 -3.3643 -33.9360 -137.2482
State:	  0.325 -17.474  -5.728  -0.583  0.019  0.812 67.680    -18.78   -4.93 -108.67   -3.36  -33.94 -137.25

DOCKED: MODEL       68
DOCKED: USER    Run = 68
DOCKED: USER    DPF = D:/Protein_go_brrr/autodock/final/mut_K82N/2_3_BPG/dock.dpf
DOCKED: USER  
DOCKED: USER    Estimated Free Energy of Binding    =   -6.37 kcal/mol  [=(1)+(2)+(3)-(4)]
DOCKED: USER    Estimated Inhibition Constant, Ki   =   21.24 uM (micromolar)  [Temperature = 298.15 K]
DOCKED: USER    
DOCKED: USER    (1) Final Intermolecular Energy     =   -8.16 kcal/mol
DOCKED: USER        vdW + Hbond + desolv Energy     =   -4.05 kcal/mol
DOCKED: USER        Electrostatic Energy            =   -4.12 kcal/mol
DOCKED: USER    (2) Final Total Internal Energy     =   +2.10 kcal/mol
DOCKED: USER    (3) Torsional Free Energy           =   +1.79 kcal/mol
DOCKED: USER    (4) Unbound System's Energy  [=(2)] =   +2.10 kcal/mol
DOCKED: USER    
DOCKED: USER    
DOCKED: USER    NEWDPF move 2_3_BPG_opt.pdbqt
DOCKED: USER    NEWDPF about 0.015000 0.083000 0.031000
DOCKED: USER    NEWDPF tran0 0.325317 -17.473872 -5.728413
DOCKED: USER    NEWDPF quaternion0 -0.324653 0.010684 0.452319 0.830598
DOCKED: USER    NEWDPF axisangle0 -0.582995 0.019185 0.812250 67.679503
DOCKED: USER    NEWDPF quat0 -0.582995 0.019185 0.812250 67.679503
DOCKED: USER    NEWDPF dihe0 -18.78 -4.93 -108.67 -3.36 -33.94 -137.25 
DOCKED: USER  keepresnum = 1 
DOCKED: USER  
DOCKED: REMARK  6 active torsions:
DOCKED: REMARK  status: ('A' for Active; 'I' for Inactive)
DOCKED: REMARK    1  A    between atoms: P_1  and  O_3 
DOCKED: REMARK    2  A    between atoms: P_2  and  O_4 
DOCKED: REMARK    3  A    between atoms: O_3  and  C_13 
DOCKED: REMARK    4  A    between atoms: O_4  and  C_14 
DOCKED: REMARK    5  A    between atoms: C_13  and  C_14 
DOCKED: REMARK    6  A    between atoms: C_13  and  C_15 
DOCKED: USER                              x       y       z     vdW  Elec       q    Type
DOCKED: USER                           _______ _______ _______ _____ _____    ______ ____
DOCKED: ROOT
DOCKED: ATOM      1  C   UNL d   1      -0.282 -17.197  -5.665 -0.21 +0.14    +0.193 C 
DOCKED: ENDROOT
DOCKED: BRANCH   1   2
DOCKED: ATOM      2  O   UNL d   1      -0.108 -15.757  -5.444 -0.60 -0.44    -0.356 OA
DOCKED: BRANCH   2   3
DOCKED: ATOM      3  P   UNL d   1      -0.945 -14.910  -4.311 -0.73 -0.01    -0.014 P 
DOCKED: ATOM      4  O   UNL d   1      -0.274 -13.528  -4.292 -0.30 -0.56    -0.577 OA
DOCKED: ATOM      5  O   UNL d   1      -0.770 -15.638  -2.980 -0.27 -0.51    -0.577 OA
DOCKED: ATOM      6  O   UNL d   1      -2.398 -14.820  -4.768 -0.61 -0.45    -0.638 OA
DOCKED: ENDBRANCH   2   3
DOCKED: ENDBRANCH   1   2
DOCKED: BRANCH   1   7
DOCKED: ATOM      7  C   UNL d   1       1.098 -17.811  -6.104 -0.13 +0.16    +0.201 C 
DOCKED: BRANCH   7   8
DOCKED: ATOM      8  O   UNL d   1       2.272 -17.056  -5.731 -0.19 -0.63    -0.364 OA
DOCKED: BRANCH   8   9
DOCKED: ATOM      9  P   UNL d   1       3.696 -17.836  -5.418 -0.12 -0.02    -0.015 P 
DOCKED: ATOM     10  O   UNL d   1       4.217 -18.281  -6.790 +0.02 -0.23    -0.577 OA
DOCKED: ATOM     11  O   UNL d   1       3.364 -19.027  -4.520 -0.06 -0.36    -0.577 OA
DOCKED: ATOM     12  O   UNL d   1       4.628 -16.825  -4.751 -0.59 -0.93    -0.638 OA
DOCKED: ENDBRANCH   8   9
DOCKED: ENDBRANCH   7   8
DOCKED: ENDBRANCH   1   7
DOCKED: BRANCH   1  13
DOCKED: ATOM     13  C   UNL d   1      -1.332 -17.445  -6.811 -0.17 +0.02    +0.073 C 
DOCKED: ATOM     14  O   UNL d   1      -1.373 -16.620  -7.791 -0.09 -0.20    -0.547 OA
DOCKED: ATOM     15  O   UNL d   1      -2.048 -18.506  -6.726 +0.03 -0.08    -0.547 OA
DOCKED: ENDBRANCH   1  13
DOCKED: TORSDOF 6
DOCKED: TER
DOCKED: ENDMDL
________________________________________________________________________________


	BEGINNING GENETIC ALGORITHM DOCKING 69 of 100
Run: 69 Seed: 1254532717 1727006711 [ Run 69 of 100 GA/GALS ]
Beginning LAMARCKIAN GENETIC ALGORITHM (LGA), with a maximum of 25000000 energy evaluations.

Final-Value: -5.775


	FINAL GENETIC ALGORITHM DOCKED STATE
	_______________________________________________


Detailed state:  trans -12.047 2.705 -10.193 quatxyzw -0.335883 0.734605 -0.239669 -0.538607 center 0.015 0.083 0.031 ntor 6 163.9800 -57.3768 -164.6422 -24.0067 -5.7488 -62.7211
State:	-12.047   2.705 -10.193  -0.399  0.872 -0.284 -114.822    163.98  -57.38 -164.64  -24.01   -5.75  -62.72

DOCKED: MODEL       69
DOCKED: USER    Run = 69
DOCKED: USER    DPF = D:/Protein_go_brrr/autodock/final/mut_K82N/2_3_BPG/dock.dpf
DOCKED: USER  
DOCKED: USER    Estimated Free Energy of Binding    =   -6.04 kcal/mol  [=(1)+(2)+(3)-(4)]
DOCKED: USER    Estimated Inhibition Constant, Ki   =   37.65 uM (micromolar)  [Temperature = 298.15 K]
DOCKED: USER    
DOCKED: USER    (1) Final Intermolecular Energy     =   -7.83 kcal/mol
DOCKED: USER        vdW + Hbond + desolv Energy     =   -2.35 kcal/mol
DOCKED: USER        Electrostatic Energy            =   -5.47 kcal/mol
DOCKED: USER    (2) Final Total Internal Energy     =   +2.05 kcal/mol
DOCKED: USER    (3) Torsional Free Energy           =   +1.79 kcal/mol
DOCKED: USER    (4) Unbound System's Energy  [=(2)] =   +2.05 kcal/mol
DOCKED: USER    
DOCKED: USER    
DOCKED: USER    NEWDPF move 2_3_BPG_opt.pdbqt
DOCKED: USER    NEWDPF about 0.015000 0.083000 0.031000
DOCKED: USER    NEWDPF tran0 -12.047169 2.704614 -10.192785
DOCKED: USER    NEWDPF quaternion0 -0.335883 0.734605 -0.239669 -0.538607
DOCKED: USER    NEWDPF axisangle0 -0.398647 0.871875 -0.284454 -114.822278
DOCKED: USER    NEWDPF quat0 -0.398647 0.871875 -0.284454 -114.822278
DOCKED: USER    NEWDPF dihe0 163.98 -57.38 -164.64 -24.01 -5.75 -62.72 
DOCKED: USER  keepresnum = 1 
DOCKED: USER  
DOCKED: REMARK  6 active torsions:
DOCKED: REMARK  status: ('A' for Active; 'I' for Inactive)
DOCKED: REMARK    1  A    between atoms: P_1  and  O_3 
DOCKED: REMARK    2  A    between atoms: P_2  and  O_4 
DOCKED: REMARK    3  A    between atoms: O_3  and  C_13 
DOCKED: REMARK    4  A    between atoms: O_4  and  C_14 
DOCKED: REMARK    5  A    between atoms: C_13  and  C_14 
DOCKED: REMARK    6  A    between atoms: C_13  and  C_15 
DOCKED: USER                              x       y       z     vdW  Elec       q    Type
DOCKED: USER                           _______ _______ _______ _____ _____    ______ ____
DOCKED: ROOT
DOCKED: ATOM      1  C   UNL d   1     -11.771   2.940  -9.629 -0.11 +0.13    +0.193 C 
DOCKED: ENDROOT
DOCKED: BRANCH   1   2
DOCKED: ATOM      2  O   UNL d   1     -12.368   4.250  -9.341 -0.05 -0.27    -0.356 OA
DOCKED: BRANCH   2   3
DOCKED: ATOM      3  P   UNL d   1     -11.626   5.398  -8.426 -0.03 -0.02    -0.014 P 
DOCKED: ATOM      4  O   UNL d   1     -11.449   6.590  -9.378 +0.02 -0.28    -0.577 OA
DOCKED: ATOM      5  O   UNL d   1     -10.281   4.825  -7.985 -0.22 -0.95    -0.577 OA
DOCKED: ATOM      6  O   UNL d   1     -12.550   5.742  -7.263 -0.04 -1.05    -0.638 OA
DOCKED: ENDBRANCH   2   3
DOCKED: ENDBRANCH   1   2
DOCKED: BRANCH   1   7
DOCKED: ATOM      7  C   UNL d   1     -12.603   2.247 -10.770 -0.10 +0.08    +0.201 C 
DOCKED: BRANCH   7   8
DOCKED: ATOM      8  O   UNL d   1     -12.079   2.391 -12.109 -0.07 -0.16    -0.364 OA
DOCKED: BRANCH   8   9
DOCKED: ATOM      9  P   UNL d   1     -12.834   1.647 -13.379 -0.21 -0.01    -0.015 P 
DOCKED: ATOM     10  O   UNL d   1     -14.236   1.300 -12.863 -0.01 -0.30    -0.577 OA
DOCKED: ATOM     11  O   UNL d   1     -12.021   0.396 -13.711 -0.64 -0.66    -0.577 OA
DOCKED: ATOM     12  O   UNL d   1     -12.879   2.654 -14.529 -0.12 -0.79    -0.638 OA
DOCKED: ENDBRANCH   8   9
DOCKED: ENDBRANCH   7   8
DOCKED: ENDBRANCH   1   7
DOCKED: BRANCH   1  13
DOCKED: ATOM     13  C   UNL d   1     -11.820   2.031  -8.345 -0.08 +0.08    +0.073 C 
DOCKED: ATOM     14  O   UNL d   1     -10.828   1.257  -8.106 -0.13 -0.44    -0.547 OA
DOCKED: ATOM     15  O   UNL d   1     -12.837   2.167  -7.573 -0.56 -0.84    -0.547 OA
DOCKED: ENDBRANCH   1  13
DOCKED: TORSDOF 6
DOCKED: TER
DOCKED: ENDMDL
________________________________________________________________________________


	BEGINNING GENETIC ALGORITHM DOCKING 70 of 100
Run: 70 Seed: 2112822571 2024427822 [ Run 70 of 100 GA/GALS ]
Beginning LAMARCKIAN GENETIC ALGORITHM (LGA), with a maximum of 25000000 energy evaluations.

Final-Value: -5.805


	FINAL GENETIC ALGORITHM DOCKED STATE
	_______________________________________________


Detailed state:  trans -11.935 2.854 -10.268 quatxyzw -0.318606 0.743747 -0.248494 -0.532524 center 0.015 0.083 0.031 ntor 6 175.6631 62.3806 -155.2750 -26.7388 -1.6755 -62.7655
State:	-11.935   2.854 -10.268  -0.376  0.879 -0.294 -115.648    175.66   62.38 -155.28  -26.74   -1.68  -62.77

DOCKED: MODEL       70
DOCKED: USER    Run = 70
DOCKED: USER    DPF = D:/Protein_go_brrr/autodock/final/mut_K82N/2_3_BPG/dock.dpf
DOCKED: USER  
DOCKED: USER    Estimated Free Energy of Binding    =   -6.11 kcal/mol  [=(1)+(2)+(3)-(4)]
DOCKED: USER    Estimated Inhibition Constant, Ki   =   33.25 uM (micromolar)  [Temperature = 298.15 K]
DOCKED: USER    
DOCKED: USER    (1) Final Intermolecular Energy     =   -7.90 kcal/mol
DOCKED: USER        vdW + Hbond + desolv Energy     =   -2.45 kcal/mol
DOCKED: USER        Electrostatic Energy            =   -5.45 kcal/mol
DOCKED: USER    (2) Final Total Internal Energy     =   +2.09 kcal/mol
DOCKED: USER    (3) Torsional Free Energy           =   +1.79 kcal/mol
DOCKED: USER    (4) Unbound System's Energy  [=(2)] =   +2.09 kcal/mol
DOCKED: USER    
DOCKED: USER    
DOCKED: USER    NEWDPF move 2_3_BPG_opt.pdbqt
DOCKED: USER    NEWDPF about 0.015000 0.083000 0.031000
DOCKED: USER    NEWDPF tran0 -11.935473 2.853628 -10.267544
DOCKED: USER    NEWDPF quaternion0 -0.318606 0.743747 -0.248494 -0.532524
DOCKED: USER    NEWDPF axisangle0 -0.376418 0.878702 -0.293584 -115.647718
DOCKED: USER    NEWDPF quat0 -0.376418 0.878702 -0.293584 -115.647718
DOCKED: USER    NEWDPF dihe0 175.66 62.38 -155.28 -26.74 -1.68 -62.77 
DOCKED: USER  keepresnum = 1 
DOCKED: USER  
DOCKED: REMARK  6 active torsions:
DOCKED: REMARK  status: ('A' for Active; 'I' for Inactive)
DOCKED: REMARK    1  A    between atoms: P_1  and  O_3 
DOCKED: REMARK    2  A    between atoms: P_2  and  O_4 
DOCKED: REMARK    3  A    between atoms: O_3  and  C_13 
DOCKED: REMARK    4  A    between atoms: O_4  and  C_14 
DOCKED: REMARK    5  A    between atoms: C_13  and  C_14 
DOCKED: REMARK    6  A    between atoms: C_13  and  C_15 
DOCKED: USER                              x       y       z     vdW  Elec       q    Type
DOCKED: USER                           _______ _______ _______ _____ _____    ______ ____
DOCKED: ROOT
DOCKED: ATOM      1  C   UNL d   1     -11.647   3.073  -9.704 -0.11 +0.13    +0.193 C 
DOCKED: ENDROOT
DOCKED: BRANCH   1   2
DOCKED: ATOM      2  O   UNL d   1     -12.184   4.406  -9.405 -0.05 -0.27    -0.356 OA
DOCKED: BRANCH   2   3
DOCKED: ATOM      3  P   UNL d   1     -11.419   5.491  -8.434 -0.06 -0.02    -0.014 P 
DOCKED: ATOM      4  O   UNL d   1     -12.431   5.783  -7.315 -0.03 -0.94    -0.577 OA
DOCKED: ATOM      5  O   UNL d   1     -11.139   6.733  -9.277 +0.02 -0.27    -0.577 OA
DOCKED: ATOM      6  O   UNL d   1     -10.158   4.828  -7.890 -0.27 -1.07    -0.638 OA
DOCKED: ENDBRANCH   2   3
DOCKED: ENDBRANCH   1   2
DOCKED: BRANCH   1   7
DOCKED: ATOM      7  C   UNL d   1     -12.514   2.424 -10.845 -0.10 +0.08    +0.201 C 
DOCKED: BRANCH   7   8
DOCKED: ATOM      8  O   UNL d   1     -11.990   2.554 -12.185 -0.08 -0.16    -0.364 OA
DOCKED: BRANCH   8   9
DOCKED: ATOM      9  P   UNL d   1     -12.834   1.939 -13.468 -0.21 -0.01    -0.015 P 
DOCKED: ATOM     10  O   UNL d   1     -14.302   1.954 -13.024 -0.00 -0.30    -0.577 OA
DOCKED: ATOM     11  O   UNL d   1     -12.322   0.518 -13.699 -0.66 -0.68    -0.577 OA
DOCKED: ATOM     12  O   UNL d   1     -12.585   2.866 -14.658 -0.11 -0.77    -0.638 OA
DOCKED: ENDBRANCH   8   9
DOCKED: ENDBRANCH   7   8
DOCKED: ENDBRANCH   1   7
DOCKED: BRANCH   1  13
DOCKED: ATOM     13  C   UNL d   1     -11.730   2.159  -8.425 -0.07 +0.08    +0.073 C 
DOCKED: ATOM     14  O   UNL d   1     -10.685   1.511  -8.068 -0.16 -0.50    -0.547 OA
DOCKED: ATOM     15  O   UNL d   1     -12.837   2.168  -7.774 -0.58 -0.75    -0.547 OA
DOCKED: ENDBRANCH   1  13
DOCKED: TORSDOF 6
DOCKED: TER
DOCKED: ENDMDL
________________________________________________________________________________


	BEGINNING GENETIC ALGORITHM DOCKING 71 of 100
Run: 71 Seed: 2011353691 1981545497 [ Run 71 of 100 GA/GALS ]
Beginning LAMARCKIAN GENETIC ALGORITHM (LGA), with a maximum of 25000000 energy evaluations.

Final-Value: -5.843


	FINAL GENETIC ALGORITHM DOCKED STATE
	_______________________________________________


Detailed state:  trans -12.714 2.320 -12.141 quatxyzw -0.028410 0.593462 0.009376 0.804306 center 0.015 0.083 0.031 ntor 6 135.2777 30.7755 -51.5174 -8.9973 -8.0151 -33.8035
State:	-12.714   2.320 -12.141  -0.048  0.999  0.016 72.913    135.28   30.78  -51.52   -9.00   -8.02  -33.80

DOCKED: MODEL       71
DOCKED: USER    Run = 71
DOCKED: USER    DPF = D:/Protein_go_brrr/autodock/final/mut_K82N/2_3_BPG/dock.dpf
DOCKED: USER  
DOCKED: USER    Estimated Free Energy of Binding    =   -6.14 kcal/mol  [=(1)+(2)+(3)-(4)]
DOCKED: USER    Estimated Inhibition Constant, Ki   =   31.56 uM (micromolar)  [Temperature = 298.15 K]
DOCKED: USER    
DOCKED: USER    (1) Final Intermolecular Energy     =   -7.93 kcal/mol
DOCKED: USER        vdW + Hbond + desolv Energy     =   -2.54 kcal/mol
DOCKED: USER        Electrostatic Energy            =   -5.39 kcal/mol
DOCKED: USER    (2) Final Total Internal Energy     =   +2.09 kcal/mol
DOCKED: USER    (3) Torsional Free Energy           =   +1.79 kcal/mol
DOCKED: USER    (4) Unbound System's Energy  [=(2)] =   +2.09 kcal/mol
DOCKED: USER    
DOCKED: USER    
DOCKED: USER    NEWDPF move 2_3_BPG_opt.pdbqt
DOCKED: USER    NEWDPF about 0.015000 0.083000 0.031000
DOCKED: USER    NEWDPF tran0 -12.714178 2.319572 -12.140952
DOCKED: USER    NEWDPF quaternion0 -0.028410 0.593462 0.009376 0.804306
DOCKED: USER    NEWDPF axisangle0 -0.047811 0.998732 0.015779 72.913482
DOCKED: USER    NEWDPF quat0 -0.047811 0.998732 0.015779 72.913482
DOCKED: USER    NEWDPF dihe0 135.28 30.78 -51.52 -9.00 -8.02 -33.80 
DOCKED: USER  keepresnum = 1 
DOCKED: USER  
DOCKED: REMARK  6 active torsions:
DOCKED: REMARK  status: ('A' for Active; 'I' for Inactive)
DOCKED: REMARK    1  A    between atoms: P_1  and  O_3 
DOCKED: REMARK    2  A    between atoms: P_2  and  O_4 
DOCKED: REMARK    3  A    between atoms: O_3  and  C_13 
DOCKED: REMARK    4  A    between atoms: O_4  and  C_14 
DOCKED: REMARK    5  A    between atoms: C_13  and  C_14 
DOCKED: REMARK    6  A    between atoms: C_13  and  C_15 
DOCKED: USER                              x       y       z     vdW  Elec       q    Type
DOCKED: USER                           _______ _______ _______ _____ _____    ______ ____
DOCKED: ROOT
DOCKED: ATOM      1  C   UNL d   1     -12.970   2.034 -12.690 -0.13 +0.11    +0.193 C 
DOCKED: ENDROOT
DOCKED: BRANCH   1   2
DOCKED: ATOM      2  O   UNL d   1     -12.681   2.904 -13.836 -0.12 -0.28    -0.356 OA
DOCKED: BRANCH   2   3
DOCKED: ATOM      3  P   UNL d   1     -13.745   3.164 -15.063 -0.08 -0.01    -0.014 P 
DOCKED: ATOM      4  O   UNL d   1     -12.859   3.507 -16.271 -0.51 -0.82    -0.577 OA
DOCKED: ATOM      5  O   UNL d   1     -14.624   4.345 -14.658 +0.00 -0.24    -0.577 OA
DOCKED: ATOM      6  O   UNL d   1     -14.526   1.874 -15.291 -0.01 -0.91    -0.638 OA
DOCKED: ENDBRANCH   2   3
DOCKED: ENDBRANCH   1   2
DOCKED: BRANCH   1   7
DOCKED: ATOM      7  C   UNL d   1     -12.136   2.533 -11.454 -0.08 +0.08    +0.201 C 
DOCKED: BRANCH   7   8
DOCKED: ATOM      8  O   UNL d   1     -12.891   2.811 -10.254 -0.04 -0.17    -0.364 OA
DOCKED: BRANCH   8   9
DOCKED: ATOM      9  P   UNL d   1     -12.107   3.223  -8.857 -0.10 -0.02    -0.015 P 
DOCKED: ATOM     10  O   UNL d   1     -12.824   4.482  -8.354 -0.02 -0.69    -0.577 OA
DOCKED: ATOM     11  O   UNL d   1     -10.652   3.505  -9.229 -0.04 -0.47    -0.577 OA
DOCKED: ATOM     12  O   UNL d   1     -12.261   2.050  -7.890 -0.57 -0.92    -0.638 OA
DOCKED: ENDBRANCH   8   9
DOCKED: ENDBRANCH   7   8
DOCKED: ENDBRANCH   1   7
DOCKED: BRANCH   1  13
DOCKED: ATOM     13  C   UNL d   1     -12.550   0.552 -13.018 -0.20 +0.05    +0.073 C 
DOCKED: ATOM     14  O   UNL d   1     -12.888  -0.374 -12.201 -0.04 -0.22    -0.547 OA
DOCKED: ATOM     15  O   UNL d   1     -11.940   0.352 -14.130 -0.60 -0.88    -0.547 OA
DOCKED: ENDBRANCH   1  13
DOCKED: TORSDOF 6
DOCKED: TER
DOCKED: ENDMDL
________________________________________________________________________________


	BEGINNING GENETIC ALGORITHM DOCKING 72 of 100
Run: 72 Seed: 479892944 1085218371 [ Run 72 of 100 GA/GALS ]
Beginning LAMARCKIAN GENETIC ALGORITHM (LGA), with a maximum of 25000000 energy evaluations.

Final-Value: -5.977


	FINAL GENETIC ALGORITHM DOCKED STATE
	_______________________________________________


Detailed state:  trans -11.651 2.903 -10.565 quatxyzw 0.156064 0.655924 -0.557519 -0.484335 center 0.015 0.083 0.031 ntor 6 -146.9305 -60.5765 -156.5381 -12.8140 4.4168 2.2027
State:	-11.651   2.903 -10.565   0.178  0.750 -0.637 -122.062   -146.93  -60.58 -156.54  -12.81    4.42    2.20

DOCKED: MODEL       72
DOCKED: USER    Run = 72
DOCKED: USER    DPF = D:/Protein_go_brrr/autodock/final/mut_K82N/2_3_BPG/dock.dpf
DOCKED: USER  
DOCKED: USER    Estimated Free Energy of Binding    =   -6.27 kcal/mol  [=(1)+(2)+(3)-(4)]
DOCKED: USER    Estimated Inhibition Constant, Ki   =   25.53 uM (micromolar)  [Temperature = 298.15 K]
DOCKED: USER    
DOCKED: USER    (1) Final Intermolecular Energy     =   -8.06 kcal/mol
DOCKED: USER        vdW + Hbond + desolv Energy     =   -2.63 kcal/mol
DOCKED: USER        Electrostatic Energy            =   -5.43 kcal/mol
DOCKED: USER    (2) Final Total Internal Energy     =   +2.08 kcal/mol
DOCKED: USER    (3) Torsional Free Energy           =   +1.79 kcal/mol
DOCKED: USER    (4) Unbound System's Energy  [=(2)] =   +2.08 kcal/mol
DOCKED: USER    
DOCKED: USER    
DOCKED: USER    NEWDPF move 2_3_BPG_opt.pdbqt
DOCKED: USER    NEWDPF about 0.015000 0.083000 0.031000
DOCKED: USER    NEWDPF tran0 -11.650878 2.902899 -10.564790
DOCKED: USER    NEWDPF quaternion0 0.156064 0.655924 -0.557519 -0.484335
DOCKED: USER    NEWDPF axisangle0 0.178383 0.749728 -0.637250 -122.062129
DOCKED: USER    NEWDPF quat0 0.178383 0.749728 -0.637250 -122.062129
DOCKED: USER    NEWDPF dihe0 -146.93 -60.58 -156.54 -12.81 4.42 2.20 
DOCKED: USER  keepresnum = 1 
DOCKED: USER  
DOCKED: REMARK  6 active torsions:
DOCKED: REMARK  status: ('A' for Active; 'I' for Inactive)
DOCKED: REMARK    1  A    between atoms: P_1  and  O_3 
DOCKED: REMARK    2  A    between atoms: P_2  and  O_4 
DOCKED: REMARK    3  A    between atoms: O_3  and  C_13 
DOCKED: REMARK    4  A    between atoms: O_4  and  C_14 
DOCKED: REMARK    5  A    between atoms: C_13  and  C_14 
DOCKED: REMARK    6  A    between atoms: C_13  and  C_15 
DOCKED: USER                              x       y       z     vdW  Elec       q    Type
DOCKED: USER                           _______ _______ _______ _____ _____    ______ ____
DOCKED: ROOT
DOCKED: ATOM      1  C   UNL d   1     -11.558   2.914  -9.901 -0.05 +0.11    +0.193 C 
DOCKED: ENDROOT
DOCKED: BRANCH   1   2
DOCKED: ATOM      2  O   UNL d   1     -10.754   4.097  -9.573 -0.09 -0.24    -0.356 OA
DOCKED: BRANCH   2   3
DOCKED: ATOM      3  P   UNL d   1      -9.641   4.124  -8.362 -0.22 -0.01    -0.014 P 
DOCKED: ATOM      4  O   UNL d   1      -8.299   4.334  -9.081 -0.05 -0.24    -0.577 OA
DOCKED: ATOM      5  O   UNL d   1      -9.698   2.767  -7.664 -0.03 -0.75    -0.577 OA
DOCKED: ATOM      6  O   UNL d   1      -9.973   5.295  -7.443 -0.42 -1.15    -0.638 OA
DOCKED: ENDBRANCH   2   3
DOCKED: ENDBRANCH   1   2
DOCKED: BRANCH   1   7
DOCKED: ATOM      7  C   UNL d   1     -12.030   3.025 -11.398 -0.10 +0.08    +0.201 C 
DOCKED: BRANCH   7   8
DOCKED: ATOM      8  O   UNL d   1     -12.470   1.794 -12.012 -0.09 -0.17    -0.364 OA
DOCKED: BRANCH   8   9
DOCKED: ATOM      9  P   UNL d   1     -12.813   1.750 -13.630 -0.19 -0.02    -0.015 P 
DOCKED: ATOM     10  O   UNL d   1     -11.976   2.878 -14.245 -0.09 -0.53    -0.577 OA
DOCKED: ATOM     11  O   UNL d   1     -14.313   2.007 -13.775 -0.03 -0.42    -0.577 OA
DOCKED: ATOM     12  O   UNL d   1     -12.389   0.375 -14.144 -0.58 -1.13    -0.638 OA
DOCKED: ENDBRANCH   8   9
DOCKED: ENDBRANCH   7   8
DOCKED: ENDBRANCH   1   7
DOCKED: BRANCH   1  13
DOCKED: ATOM     13  C   UNL d   1     -12.829   2.852  -8.975 -0.10 +0.06    +0.073 C 
DOCKED: ATOM     14  O   UNL d   1     -12.763   2.172  -7.891 -0.59 -0.72    -0.547 OA
DOCKED: ATOM     15  O   UNL d   1     -13.847   3.546  -9.334 -0.00 -0.30    -0.547 OA
DOCKED: ENDBRANCH   1  13
DOCKED: TORSDOF 6
DOCKED: TER
DOCKED: ENDMDL
________________________________________________________________________________


	BEGINNING GENETIC ALGORITHM DOCKING 73 of 100
Run: 73 Seed: 906052275 647294655 [ Run 73 of 100 GA/GALS ]
Beginning LAMARCKIAN GENETIC ALGORITHM (LGA), with a maximum of 25000000 energy evaluations.

Final-Value: -6.185


	FINAL GENETIC ALGORITHM DOCKED STATE
	_______________________________________________


Detailed state:  trans 3.433 -14.001 -6.890 quatxyzw -0.639177 -0.212935 -0.513592 0.531352 center 0.015 0.083 0.031 ntor 6 -171.0513 -152.4614 103.6249 36.6162 14.3648 -51.5904
State:	  3.433 -14.001  -6.890  -0.755 -0.251 -0.606 115.806   -171.05 -152.46  103.62   36.62   14.36  -51.59

DOCKED: MODEL       73
DOCKED: USER    Run = 73
DOCKED: USER    DPF = D:/Protein_go_brrr/autodock/final/mut_K82N/2_3_BPG/dock.dpf
DOCKED: USER  
DOCKED: USER    Estimated Free Energy of Binding    =   -6.48 kcal/mol  [=(1)+(2)+(3)-(4)]
DOCKED: USER    Estimated Inhibition Constant, Ki   =   17.89 uM (micromolar)  [Temperature = 298.15 K]
DOCKED: USER    
DOCKED: USER    (1) Final Intermolecular Energy     =   -8.27 kcal/mol
DOCKED: USER        vdW + Hbond + desolv Energy     =   -3.73 kcal/mol
DOCKED: USER        Electrostatic Energy            =   -4.54 kcal/mol
DOCKED: USER    (2) Final Total Internal Energy     =   +2.08 kcal/mol
DOCKED: USER    (3) Torsional Free Energy           =   +1.79 kcal/mol
DOCKED: USER    (4) Unbound System's Energy  [=(2)] =   +2.08 kcal/mol
DOCKED: USER    
DOCKED: USER    
DOCKED: USER    NEWDPF move 2_3_BPG_opt.pdbqt
DOCKED: USER    NEWDPF about 0.015000 0.083000 0.031000
DOCKED: USER    NEWDPF tran0 3.432589 -14.000829 -6.890320
DOCKED: USER    NEWDPF quaternion0 -0.639177 -0.212935 -0.513592 0.531352
DOCKED: USER    NEWDPF axisangle0 -0.754501 -0.251354 -0.606258 115.806322
DOCKED: USER    NEWDPF quat0 -0.754501 -0.251354 -0.606258 115.806322
DOCKED: USER    NEWDPF dihe0 -171.05 -152.46 103.62 36.62 14.36 -51.59 
DOCKED: USER  keepresnum = 1 
DOCKED: USER  
DOCKED: REMARK  6 active torsions:
DOCKED: REMARK  status: ('A' for Active; 'I' for Inactive)
DOCKED: REMARK    1  A    between atoms: P_1  and  O_3 
DOCKED: REMARK    2  A    between atoms: P_2  and  O_4 
DOCKED: REMARK    3  A    between atoms: O_3  and  C_13 
DOCKED: REMARK    4  A    between atoms: O_4  and  C_14 
DOCKED: REMARK    5  A    between atoms: C_13  and  C_14 
DOCKED: REMARK    6  A    between atoms: C_13  and  C_15 
DOCKED: USER                              x       y       z     vdW  Elec       q    Type
DOCKED: USER                           _______ _______ _______ _____ _____    ______ ____
DOCKED: ROOT
DOCKED: ATOM      1  C   UNL d   1       3.376 -14.415  -7.414 -0.13 +0.13    +0.193 C 
DOCKED: ENDROOT
DOCKED: BRANCH   1   2
DOCKED: ATOM      2  O   UNL d   1       2.189 -15.253  -7.209 -0.28 -0.33    -0.356 OA
DOCKED: BRANCH   2   3
DOCKED: ATOM      3  P   UNL d   1       2.250 -16.759  -6.550 -0.11 -0.02    -0.014 P 
DOCKED: ATOM      4  O   UNL d   1       3.547 -16.764  -5.726 -0.16 -0.96    -0.577 OA
DOCKED: ATOM      5  O   UNL d   1       2.315 -17.756  -7.705 +0.02 -0.24    -0.577 OA
DOCKED: ATOM      6  O   UNL d   1       1.022 -16.935  -5.663 -0.50 -0.97    -0.638 OA
DOCKED: ENDBRANCH   2   3
DOCKED: ENDBRANCH   1   2
DOCKED: BRANCH   1   7
DOCKED: ATOM      7  C   UNL d   1       3.362 -13.252  -6.356 -0.22 +0.17    +0.201 C 
DOCKED: BRANCH   7   8
DOCKED: ATOM      8  O   UNL d   1       4.336 -13.353  -5.293 -0.18 -0.39    -0.364 OA
DOCKED: BRANCH   8   9
DOCKED: ATOM      9  P   UNL d   1       4.153 -12.461  -3.912 -0.51 -0.01    -0.015 P 
DOCKED: ATOM     10  O   UNL d   1       4.519 -11.027  -4.313 -0.31 -0.38    -0.577 OA
DOCKED: ATOM     11  O   UNL d   1       5.126 -13.032  -2.881 -0.08 -0.33    -0.577 OA
DOCKED: ATOM     12  O   UNL d   1       2.691 -12.583  -3.486 -0.62 -1.01    -0.638 OA
DOCKED: ENDBRANCH   8   9
DOCKED: ENDBRANCH   7   8
DOCKED: ENDBRANCH   1   7
DOCKED: BRANCH   1  13
DOCKED: ATOM     13  C   UNL d   1       3.349 -13.786  -8.857 -0.17 +0.02    +0.073 C 
DOCKED: ATOM     14  O   UNL d   1       4.285 -14.094  -9.676 +0.03 -0.08    -0.547 OA
DOCKED: ATOM     15  O   UNL d   1       2.344 -13.042  -9.149 -0.51 -0.15    -0.547 OA
DOCKED: ENDBRANCH   1  13
DOCKED: TORSDOF 6
DOCKED: TER
DOCKED: ENDMDL
________________________________________________________________________________


	BEGINNING GENETIC ALGORITHM DOCKING 74 of 100
Run: 74 Seed: 1134347971 1598524535 [ Run 74 of 100 GA/GALS ]
Beginning LAMARCKIAN GENETIC ALGORITHM (LGA), with a maximum of 25000000 energy evaluations.

Final-Value: -6.172


	FINAL GENETIC ALGORITHM DOCKED STATE
	_______________________________________________


Detailed state:  trans 3.594 -14.169 -7.201 quatxyzw 0.802349 0.142503 0.269168 -0.513300 center 0.015 0.083 0.031 ntor 6 170.8606 -134.0865 -86.6154 32.6249 -34.2537 169.5404
State:	  3.594 -14.169  -7.201   0.935  0.166  0.314 -118.232    170.86 -134.09  -86.62   32.62  -34.25  169.54

DOCKED: MODEL       74
DOCKED: USER    Run = 74
DOCKED: USER    DPF = D:/Protein_go_brrr/autodock/final/mut_K82N/2_3_BPG/dock.dpf
DOCKED: USER  
DOCKED: USER    Estimated Free Energy of Binding    =   -6.63 kcal/mol  [=(1)+(2)+(3)-(4)]
DOCKED: USER    Estimated Inhibition Constant, Ki   =   13.88 uM (micromolar)  [Temperature = 298.15 K]
DOCKED: USER    
DOCKED: USER    (1) Final Intermolecular Energy     =   -8.42 kcal/mol
DOCKED: USER        vdW + Hbond + desolv Energy     =   -3.84 kcal/mol
DOCKED: USER        Electrostatic Energy            =   -4.58 kcal/mol
DOCKED: USER    (2) Final Total Internal Energy     =   +2.24 kcal/mol
DOCKED: USER    (3) Torsional Free Energy           =   +1.79 kcal/mol
DOCKED: USER    (4) Unbound System's Energy  [=(2)] =   +2.24 kcal/mol
DOCKED: USER    
DOCKED: USER    
DOCKED: USER    NEWDPF move 2_3_BPG_opt.pdbqt
DOCKED: USER    NEWDPF about 0.015000 0.083000 0.031000
DOCKED: USER    NEWDPF tran0 3.593865 -14.168762 -7.201481
DOCKED: USER    NEWDPF quaternion0 0.802349 0.142503 0.269168 -0.513300
DOCKED: USER    NEWDPF axisangle0 0.934911 0.166047 0.313640 -118.232224
DOCKED: USER    NEWDPF quat0 0.934911 0.166047 0.313640 -118.232224
DOCKED: USER    NEWDPF dihe0 170.86 -134.09 -86.62 32.62 -34.25 169.54 
DOCKED: USER  keepresnum = 1 
DOCKED: USER  
DOCKED: REMARK  6 active torsions:
DOCKED: REMARK  status: ('A' for Active; 'I' for Inactive)
DOCKED: REMARK    1  A    between atoms: P_1  and  O_3 
DOCKED: REMARK    2  A    between atoms: P_2  and  O_4 
DOCKED: REMARK    3  A    between atoms: O_3  and  C_13 
DOCKED: REMARK    4  A    between atoms: O_4  and  C_14 
DOCKED: REMARK    5  A    between atoms: C_13  and  C_14 
DOCKED: REMARK    6  A    between atoms: C_13  and  C_15 
DOCKED: USER                              x       y       z     vdW  Elec       q    Type
DOCKED: USER                           _______ _______ _______ _____ _____    ______ ____
DOCKED: ROOT
DOCKED: ATOM      1  C   UNL d   1       3.185 -14.399  -7.680 -0.13 +0.11    +0.193 C 
DOCKED: ENDROOT
DOCKED: BRANCH   1   2
DOCKED: ATOM      2  O   UNL d   1       1.920 -14.794  -7.051 -0.38 -0.35    -0.356 OA
DOCKED: BRANCH   2   3
DOCKED: ATOM      3  P   UNL d   1       1.543 -16.352  -6.682 -0.11 -0.02    -0.014 P 
DOCKED: ATOM      4  O   UNL d   1       2.843 -16.934  -6.105 -0.12 -0.80    -0.577 OA
DOCKED: ATOM      5  O   UNL d   1       1.148 -17.043  -7.985 +0.00 -0.25    -0.577 OA
DOCKED: ATOM      6  O   UNL d   1       0.428 -16.333  -5.642 -0.57 -0.92    -0.638 OA
DOCKED: ENDBRANCH   2   3
DOCKED: ENDBRANCH   1   2
DOCKED: BRANCH   1   7
DOCKED: ATOM      7  C   UNL d   1       4.040 -13.593  -6.634 -0.15 +0.14    +0.201 C 
DOCKED: BRANCH   7   8
DOCKED: ATOM      8  O   UNL d   1       3.291 -12.824  -5.667 -0.27 -0.36    -0.364 OA
DOCKED: BRANCH   8   9
DOCKED: ATOM      9  P   UNL d   1       3.899 -12.585  -4.147 -0.38 -0.02    -0.015 P 
DOCKED: ATOM     10  O   UNL d   1       4.598 -11.221  -4.207 -0.49 -0.38    -0.577 OA
DOCKED: ATOM     11  O   UNL d   1       4.886 -13.721  -3.878 -0.03 -0.61    -0.577 OA
DOCKED: ATOM     12  O   UNL d   1       2.714 -12.581  -3.183 -0.58 -0.94    -0.638 OA
DOCKED: ENDBRANCH   8   9
DOCKED: ENDBRANCH   7   8
DOCKED: ENDBRANCH   1   7
DOCKED: BRANCH   1  13
DOCKED: ATOM     13  C   UNL d   1       2.904 -13.473  -8.922 -0.21 +0.02    +0.073 C 
DOCKED: ATOM     14  O   UNL d   1       3.550 -13.692 -10.006 -0.02 -0.07    -0.547 OA
DOCKED: ATOM     15  O   UNL d   1       1.988 -12.584  -8.790 -0.41 -0.13    -0.547 OA
DOCKED: ENDBRANCH   1  13
DOCKED: TORSDOF 6
DOCKED: TER
DOCKED: ENDMDL
________________________________________________________________________________


	BEGINNING GENETIC ALGORITHM DOCKING 75 of 100
Run: 75 Seed: 1424042238 1987699876 [ Run 75 of 100 GA/GALS ]
Beginning LAMARCKIAN GENETIC ALGORITHM (LGA), with a maximum of 25000000 energy evaluations.

Final-Value: -5.828


	FINAL GENETIC ALGORITHM DOCKED STATE
	_______________________________________________


Detailed state:  trans -11.960 2.749 -10.247 quatxyzw 0.101463 0.755199 -0.389558 -0.517324 center 0.015 0.083 0.031 ntor 6 100.9133 -98.6488 -83.0641 12.9478 -15.9957 -30.8112
State:	-11.960   2.749 -10.247   0.119  0.882 -0.455 -117.694    100.91  -98.65  -83.06   12.95  -16.00  -30.81

DOCKED: MODEL       75
DOCKED: USER    Run = 75
DOCKED: USER    DPF = D:/Protein_go_brrr/autodock/final/mut_K82N/2_3_BPG/dock.dpf
DOCKED: USER  
DOCKED: USER    Estimated Free Energy of Binding    =   -6.08 kcal/mol  [=(1)+(2)+(3)-(4)]
DOCKED: USER    Estimated Inhibition Constant, Ki   =   35.17 uM (micromolar)  [Temperature = 298.15 K]
DOCKED: USER    
DOCKED: USER    (1) Final Intermolecular Energy     =   -7.87 kcal/mol
DOCKED: USER        vdW + Hbond + desolv Energy     =   -2.46 kcal/mol
DOCKED: USER        Electrostatic Energy            =   -5.41 kcal/mol
DOCKED: USER    (2) Final Total Internal Energy     =   +2.04 kcal/mol
DOCKED: USER    (3) Torsional Free Energy           =   +1.79 kcal/mol
DOCKED: USER    (4) Unbound System's Energy  [=(2)] =   +2.04 kcal/mol
DOCKED: USER    
DOCKED: USER    
DOCKED: USER    NEWDPF move 2_3_BPG_opt.pdbqt
DOCKED: USER    NEWDPF about 0.015000 0.083000 0.031000
DOCKED: USER    NEWDPF tran0 -11.960454 2.749207 -10.246898
DOCKED: USER    NEWDPF quaternion0 0.101463 0.755199 -0.389558 -0.517324
DOCKED: USER    NEWDPF axisangle0 0.118561 0.882459 -0.455203 -117.694176
DOCKED: USER    NEWDPF quat0 0.118561 0.882459 -0.455203 -117.694176
DOCKED: USER    NEWDPF dihe0 100.91 -98.65 -83.06 12.95 -16.00 -30.81 
DOCKED: USER  keepresnum = 1 
DOCKED: USER  
DOCKED: REMARK  6 active torsions:
DOCKED: REMARK  status: ('A' for Active; 'I' for Inactive)
DOCKED: REMARK    1  A    between atoms: P_1  and  O_3 
DOCKED: REMARK    2  A    between atoms: P_2  and  O_4 
DOCKED: REMARK    3  A    between atoms: O_3  and  C_13 
DOCKED: REMARK    4  A    between atoms: O_4  and  C_14 
DOCKED: REMARK    5  A    between atoms: C_13  and  C_14 
DOCKED: REMARK    6  A    between atoms: C_13  and  C_15 
DOCKED: USER                              x       y       z     vdW  Elec       q    Type
DOCKED: USER                           _______ _______ _______ _____ _____    ______ ____
DOCKED: ROOT
DOCKED: ATOM      1  C   UNL d   1     -11.808   2.620  -9.607 -0.09 +0.13    +0.193 C 
DOCKED: ENDROOT
DOCKED: BRANCH   1   2
DOCKED: ATOM      2  O   UNL d   1     -11.350   3.868  -8.986 -0.10 -0.37    -0.356 OA
DOCKED: BRANCH   2   3
DOCKED: ATOM      3  P   UNL d   1      -9.850   4.055  -8.338 -0.12 -0.02    -0.014 P 
DOCKED: ATOM      4  O   UNL d   1      -8.929   4.248  -9.553 -0.04 -0.25    -0.577 OA
DOCKED: ATOM      5  O   UNL d   1      -9.520   2.771  -7.581 -0.04 -0.71    -0.577 OA
DOCKED: ATOM      6  O   UNL d   1      -9.872   5.295  -7.450 -0.47 -1.09    -0.638 OA
DOCKED: ENDBRANCH   2   3
DOCKED: ENDBRANCH   1   2
DOCKED: BRANCH   1   7
DOCKED: ATOM      7  C   UNL d   1     -12.440   2.956 -11.008 -0.09 +0.08    +0.201 C 
DOCKED: BRANCH   7   8
DOCKED: ATOM      8  O   UNL d   1     -11.943   2.187 -12.125 -0.06 -0.17    -0.364 OA
DOCKED: BRANCH   8   9
DOCKED: ATOM      9  P   UNL d   1     -12.740   2.217 -13.574 -0.21 -0.01    -0.015 P 
DOCKED: ATOM     10  O   UNL d   1     -11.962   3.217 -14.437 -0.08 -0.50    -0.577 OA
DOCKED: ATOM     11  O   UNL d   1     -14.164   2.696 -13.289 -0.00 -0.31    -0.577 OA
DOCKED: ATOM     12  O   UNL d   1     -12.688   0.801 -14.147 -0.51 -1.14    -0.638 OA
DOCKED: ENDBRANCH   8   9
DOCKED: ENDBRANCH   7   8
DOCKED: ENDBRANCH   1   7
DOCKED: BRANCH   1  13
DOCKED: ATOM     13  C   UNL d   1     -12.908   1.942  -8.707 -0.11 +0.05    +0.073 C 
DOCKED: ATOM     14  O   UNL d   1     -13.758   1.162  -9.265 +0.01 -0.21    -0.547 OA
DOCKED: ATOM     15  O   UNL d   1     -12.847   2.165  -7.445 -0.55 -0.89    -0.547 OA
DOCKED: ENDBRANCH   1  13
DOCKED: TORSDOF 6
DOCKED: TER
DOCKED: ENDMDL
________________________________________________________________________________


	BEGINNING GENETIC ALGORITHM DOCKING 76 of 100
Run: 76 Seed: 794641232 403713181 [ Run 76 of 100 GA/GALS ]
Beginning LAMARCKIAN GENETIC ALGORITHM (LGA), with a maximum of 25000000 energy evaluations.

Final-Value: -5.920


	FINAL GENETIC ALGORITHM DOCKED STATE
	_______________________________________________


Detailed state:  trans -11.821 2.683 -10.246 quatxyzw -0.135518 -0.691051 0.470115 0.532049 center 0.015 0.083 0.031 ntor 6 75.6271 -90.2366 -130.8324 14.4797 -5.9898 -6.9413
State:	-11.821   2.683 -10.246  -0.160 -0.816  0.555 115.712     75.63  -90.24 -130.83   14.48   -5.99   -6.94

DOCKED: MODEL       76
DOCKED: USER    Run = 76
DOCKED: USER    DPF = D:/Protein_go_brrr/autodock/final/mut_K82N/2_3_BPG/dock.dpf
DOCKED: USER  
DOCKED: USER    Estimated Free Energy of Binding    =   -6.20 kcal/mol  [=(1)+(2)+(3)-(4)]
DOCKED: USER    Estimated Inhibition Constant, Ki   =   28.75 uM (micromolar)  [Temperature = 298.15 K]
DOCKED: USER    
DOCKED: USER    (1) Final Intermolecular Energy     =   -7.99 kcal/mol
DOCKED: USER        vdW + Hbond + desolv Energy     =   -2.67 kcal/mol
DOCKED: USER        Electrostatic Energy            =   -5.32 kcal/mol
DOCKED: USER    (2) Final Total Internal Energy     =   +2.07 kcal/mol
DOCKED: USER    (3) Torsional Free Energy           =   +1.79 kcal/mol
DOCKED: USER    (4) Unbound System's Energy  [=(2)] =   +2.07 kcal/mol
DOCKED: USER    
DOCKED: USER    
DOCKED: USER    NEWDPF move 2_3_BPG_opt.pdbqt
DOCKED: USER    NEWDPF about 0.015000 0.083000 0.031000
DOCKED: USER    NEWDPF tran0 -11.820634 2.682564 -10.246344
DOCKED: USER    NEWDPF quaternion0 -0.135518 -0.691051 0.470115 0.532049
DOCKED: USER    NEWDPF axisangle0 -0.160052 -0.816156 0.555223 115.712025
DOCKED: USER    NEWDPF quat0 -0.160052 -0.816156 0.555223 115.712025
DOCKED: USER    NEWDPF dihe0 75.63 -90.24 -130.83 14.48 -5.99 -6.94 
DOCKED: USER  keepresnum = 1 
DOCKED: USER  
DOCKED: REMARK  6 active torsions:
DOCKED: REMARK  status: ('A' for Active; 'I' for Inactive)
DOCKED: REMARK    1  A    between atoms: P_1  and  O_3 
DOCKED: REMARK    2  A    between atoms: P_2  and  O_4 
DOCKED: REMARK    3  A    between atoms: O_3  and  C_13 
DOCKED: REMARK    4  A    between atoms: O_4  and  C_14 
DOCKED: REMARK    5  A    between atoms: C_13  and  C_14 
DOCKED: REMARK    6  A    between atoms: C_13  and  C_15 
DOCKED: USER                              x       y       z     vdW  Elec       q    Type
DOCKED: USER                           _______ _______ _______ _____ _____    ______ ____
DOCKED: ROOT
DOCKED: ATOM      1  C   UNL d   1     -11.746   2.629  -9.582 -0.08 +0.13    +0.193 C 
DOCKED: ENDROOT
DOCKED: BRANCH   1   2
DOCKED: ATOM      2  O   UNL d   1     -11.171   3.885  -9.085 -0.09 -0.34    -0.356 OA
DOCKED: BRANCH   2   3
DOCKED: ATOM      3  P   UNL d   1      -9.707   3.975  -8.342 -0.20 -0.02    -0.014 P 
DOCKED: ATOM      4  O   UNL d   1      -8.700   4.108  -9.495 -0.04 -0.24    -0.577 OA
DOCKED: ATOM      5  O   UNL d   1      -9.509   2.672  -7.571 -0.04 -0.69    -0.577 OA
DOCKED: ATOM      6  O   UNL d   1      -9.706   5.214  -7.452 -0.52 -1.03    -0.638 OA
DOCKED: ENDBRANCH   2   3
DOCKED: ENDBRANCH   1   2
DOCKED: BRANCH   1   7
DOCKED: ATOM      7  C   UNL d   1     -12.197   2.837 -11.075 -0.09 +0.08    +0.201 C 
DOCKED: BRANCH   7   8
DOCKED: ATOM      8  O   UNL d   1     -12.200   1.653 -11.903 -0.08 -0.16    -0.364 OA
DOCKED: BRANCH   8   9
DOCKED: ATOM      9  P   UNL d   1     -12.725   1.738 -13.469 -0.18 -0.01    -0.015 P 
DOCKED: ATOM     10  O   UNL d   1     -11.943   2.901 -14.090 -0.09 -0.49    -0.577 OA
DOCKED: ATOM     11  O   UNL d   1     -14.227   2.020 -13.422 -0.02 -0.37    -0.577 OA
DOCKED: ATOM     12  O   UNL d   1     -12.389   0.402 -14.131 -0.58 -1.12    -0.638 OA
DOCKED: ENDBRANCH   8   9
DOCKED: ENDBRANCH   7   8
DOCKED: ENDBRANCH   1   7
DOCKED: BRANCH   1  13
DOCKED: ATOM     13  C   UNL d   1     -13.006   2.236  -8.725 -0.10 +0.06    +0.073 C 
DOCKED: ATOM     14  O   UNL d   1     -14.095   1.948  -9.335 +0.00 -0.23    -0.547 OA
DOCKED: ATOM     15  O   UNL d   1     -12.847   2.166  -7.453 -0.55 -0.89    -0.547 OA
DOCKED: ENDBRANCH   1  13
DOCKED: TORSDOF 6
DOCKED: TER
DOCKED: ENDMDL
________________________________________________________________________________


	BEGINNING GENETIC ALGORITHM DOCKING 77 of 100
Run: 77 Seed: 525536790 751058157 [ Run 77 of 100 GA/GALS ]
Beginning LAMARCKIAN GENETIC ALGORITHM (LGA), with a maximum of 25000000 energy evaluations.

Final-Value: -5.980


	FINAL GENETIC ALGORITHM DOCKED STATE
	_______________________________________________


Detailed state:  trans -11.859 2.682 -10.300 quatxyzw 0.083326 0.716699 -0.515713 -0.461995 center 0.015 0.083 0.031 ntor 6 -145.3164 -70.9841 -125.5609 -13.4739 7.2991 -21.6740
State:	-11.859   2.682 -10.300   0.094  0.808 -0.581 -124.968   -145.32  -70.98 -125.56  -13.47    7.30  -21.67

DOCKED: MODEL       77
DOCKED: USER    Run = 77
DOCKED: USER    DPF = D:/Protein_go_brrr/autodock/final/mut_K82N/2_3_BPG/dock.dpf
DOCKED: USER  
DOCKED: USER    Estimated Free Energy of Binding    =   -6.28 kcal/mol  [=(1)+(2)+(3)-(4)]
DOCKED: USER    Estimated Inhibition Constant, Ki   =   24.96 uM (micromolar)  [Temperature = 298.15 K]
DOCKED: USER    
DOCKED: USER    (1) Final Intermolecular Energy     =   -8.07 kcal/mol
DOCKED: USER        vdW + Hbond + desolv Energy     =   -2.65 kcal/mol
DOCKED: USER        Electrostatic Energy            =   -5.42 kcal/mol
DOCKED: USER    (2) Final Total Internal Energy     =   +2.09 kcal/mol
DOCKED: USER    (3) Torsional Free Energy           =   +1.79 kcal/mol
DOCKED: USER    (4) Unbound System's Energy  [=(2)] =   +2.09 kcal/mol
DOCKED: USER    
DOCKED: USER    
DOCKED: USER    NEWDPF move 2_3_BPG_opt.pdbqt
DOCKED: USER    NEWDPF about 0.015000 0.083000 0.031000
DOCKED: USER    NEWDPF tran0 -11.859153 2.682475 -10.300453
DOCKED: USER    NEWDPF quaternion0 0.083326 0.716699 -0.515713 -0.461995
DOCKED: USER    NEWDPF axisangle0 0.093954 0.808110 -0.581490 -124.968140
DOCKED: USER    NEWDPF quat0 0.093954 0.808110 -0.581490 -124.968140
DOCKED: USER    NEWDPF dihe0 -145.32 -70.98 -125.56 -13.47 7.30 -21.67 
DOCKED: USER  keepresnum = 1 
DOCKED: USER  
DOCKED: REMARK  6 active torsions:
DOCKED: REMARK  status: ('A' for Active; 'I' for Inactive)
DOCKED: REMARK    1  A    between atoms: P_1  and  O_3 
DOCKED: REMARK    2  A    between atoms: P_2  and  O_4 
DOCKED: REMARK    3  A    between atoms: O_3  and  C_13 
DOCKED: REMARK    4  A    between atoms: O_4  and  C_14 
DOCKED: REMARK    5  A    between atoms: C_13  and  C_14 
DOCKED: REMARK    6  A    between atoms: C_13  and  C_15 
DOCKED: USER                              x       y       z     vdW  Elec       q    Type
DOCKED: USER                           _______ _______ _______ _____ _____    ______ ____
DOCKED: ROOT
DOCKED: ATOM      1  C   UNL d   1     -11.664   2.674  -9.659 -0.06 +0.12    +0.193 C 
DOCKED: ENDROOT
DOCKED: BRANCH   1   2
DOCKED: ATOM      2  O   UNL d   1     -10.972   3.936  -9.376 -0.09 -0.28    -0.356 OA
DOCKED: BRANCH   2   3
DOCKED: ATOM      3  P   UNL d   1      -9.702   4.056  -8.337 -0.20 -0.02    -0.014 P 
DOCKED: ATOM      4  O   UNL d   1      -8.474   4.206  -9.249 -0.05 -0.24    -0.577 OA
DOCKED: ATOM      5  O   UNL d   1      -9.651   2.758  -7.533 -0.01 -0.77    -0.577 OA
DOCKED: ATOM      6  O   UNL d   1      -9.914   5.297  -7.475 -0.44 -1.10    -0.638 OA
DOCKED: ENDBRANCH   2   3
DOCKED: ENDBRANCH   1   2
DOCKED: BRANCH   1   7
DOCKED: ATOM      7  C   UNL d   1     -12.378   2.793 -11.056 -0.10 +0.08    +0.201 C 
DOCKED: BRANCH   7   8
DOCKED: ATOM      8  O   UNL d   1     -12.279   1.636 -11.915 -0.09 -0.16    -0.364 OA
DOCKED: BRANCH   8   9
DOCKED: ATOM      9  P   UNL d   1     -12.763   1.731 -13.494 -0.19 -0.01    -0.015 P 
DOCKED: ATOM     10  O   UNL d   1     -11.942   2.878 -14.095 -0.09 -0.49    -0.577 OA
DOCKED: ATOM     11  O   UNL d   1     -14.259   2.045 -13.484 -0.02 -0.37    -0.577 OA
DOCKED: ATOM     12  O   UNL d   1     -12.438   0.388 -14.147 -0.58 -1.13    -0.638 OA
DOCKED: ENDBRANCH   8   9
DOCKED: ENDBRANCH   7   8
DOCKED: ENDBRANCH   1   7
DOCKED: BRANCH   1  13
DOCKED: ATOM     13  C   UNL d   1     -12.753   2.397  -8.557 -0.09 +0.07    +0.073 C 
DOCKED: ATOM     14  O   UNL d   1     -12.422   1.706  -7.530 -0.61 -0.76    -0.547 OA
DOCKED: ATOM     15  O   UNL d   1     -13.904   2.940  -8.727 -0.03 -0.36    -0.547 OA
DOCKED: ENDBRANCH   1  13
DOCKED: TORSDOF 6
DOCKED: TER
DOCKED: ENDMDL
________________________________________________________________________________


	BEGINNING GENETIC ALGORITHM DOCKING 78 of 100
Run: 78 Seed: 1844988528 250820826 [ Run 78 of 100 GA/GALS ]
Beginning LAMARCKIAN GENETIC ALGORITHM (LGA), with a maximum of 25000000 energy evaluations.

Final-Value: -5.681


	FINAL GENETIC ALGORITHM DOCKED STATE
	_______________________________________________


Detailed state:  trans -12.599 2.381 -12.125 quatxyzw -0.034812 -0.600274 0.039324 -0.798068 center 0.015 0.083 0.031 ntor 6 125.7613 -104.2096 -33.2902 6.0202 28.3117 28.2114
State:	-12.599   2.381 -12.125  -0.058 -0.996  0.065 -74.108    125.76 -104.21  -33.29    6.02   28.31   28.21

DOCKED: MODEL       78
DOCKED: USER    Run = 78
DOCKED: USER    DPF = D:/Protein_go_brrr/autodock/final/mut_K82N/2_3_BPG/dock.dpf
DOCKED: USER  
DOCKED: USER    Estimated Free Energy of Binding    =   -6.04 kcal/mol  [=(1)+(2)+(3)-(4)]
DOCKED: USER    Estimated Inhibition Constant, Ki   =   37.51 uM (micromolar)  [Temperature = 298.15 K]
DOCKED: USER    
DOCKED: USER    (1) Final Intermolecular Energy     =   -7.83 kcal/mol
DOCKED: USER        vdW + Hbond + desolv Energy     =   -2.67 kcal/mol
DOCKED: USER        Electrostatic Energy            =   -5.16 kcal/mol
DOCKED: USER    (2) Final Total Internal Energy     =   +2.15 kcal/mol
DOCKED: USER    (3) Torsional Free Energy           =   +1.79 kcal/mol
DOCKED: USER    (4) Unbound System's Energy  [=(2)] =   +2.15 kcal/mol
DOCKED: USER    
DOCKED: USER    
DOCKED: USER    NEWDPF move 2_3_BPG_opt.pdbqt
DOCKED: USER    NEWDPF about 0.015000 0.083000 0.031000
DOCKED: USER    NEWDPF tran0 -12.598663 2.381373 -12.125065
DOCKED: USER    NEWDPF quaternion0 -0.034812 -0.600274 0.039324 -0.798068
DOCKED: USER    NEWDPF axisangle0 -0.057773 -0.996194 0.065261 -74.107933
DOCKED: USER    NEWDPF quat0 -0.057773 -0.996194 0.065261 -74.107933
DOCKED: USER    NEWDPF dihe0 125.76 -104.21 -33.29 6.02 28.31 28.21 
DOCKED: USER  keepresnum = 1 
DOCKED: USER  
DOCKED: REMARK  6 active torsions:
DOCKED: REMARK  status: ('A' for Active; 'I' for Inactive)
DOCKED: REMARK    1  A    between atoms: P_1  and  O_3 
DOCKED: REMARK    2  A    between atoms: P_2  and  O_4 
DOCKED: REMARK    3  A    between atoms: O_3  and  C_13 
DOCKED: REMARK    4  A    between atoms: O_4  and  C_14 
DOCKED: REMARK    5  A    between atoms: C_13  and  C_14 
DOCKED: REMARK    6  A    between atoms: C_13  and  C_15 
DOCKED: USER                              x       y       z     vdW  Elec       q    Type
DOCKED: USER                           _______ _______ _______ _____ _____    ______ ____
DOCKED: ROOT
DOCKED: ATOM      1  C   UNL d   1     -12.843   2.011 -12.627 -0.14 +0.11    +0.193 C 
DOCKED: ENDROOT
DOCKED: BRANCH   1   2
DOCKED: ATOM      2  O   UNL d   1     -12.532   2.689 -13.890 -0.15 -0.31    -0.356 OA
DOCKED: BRANCH   2   3
DOCKED: ATOM      3  P   UNL d   1     -13.669   3.060 -15.019 -0.07 -0.02    -0.014 P 
DOCKED: ATOM      4  O   UNL d   1     -14.472   4.210 -14.391 +0.00 -0.25    -0.577 OA
DOCKED: ATOM      5  O   UNL d   1     -14.532   1.816 -15.219 -0.02 -0.81    -0.577 OA
DOCKED: ATOM      6  O   UNL d   1     -12.946   3.508 -16.286 -0.52 -0.90    -0.638 OA
DOCKED: ENDBRANCH   2   3
DOCKED: ENDBRANCH   1   2
DOCKED: BRANCH   1   7
DOCKED: ATOM      7  C   UNL d   1     -12.034   2.703 -11.469 -0.08 +0.08    +0.201 C 
DOCKED: BRANCH   7   8
DOCKED: ATOM      8  O   UNL d   1     -12.091   2.050 -10.182 -0.07 -0.17    -0.364 OA
DOCKED: BRANCH   8   9
DOCKED: ATOM      9  P   UNL d   1     -12.002   2.944  -8.793 -0.11 -0.02    -0.015 P 
DOCKED: ATOM     10  O   UNL d   1     -12.839   2.170  -7.767 -0.57 -0.79    -0.577 OA
DOCKED: ATOM     11  O   UNL d   1     -12.604   4.313  -9.105 -0.02 -0.48    -0.577 OA
DOCKED: ATOM     12  O   UNL d   1     -10.528   3.015  -8.396 -0.07 -0.81    -0.638 OA
DOCKED: ENDBRANCH   8   9
DOCKED: ENDBRANCH   7   8
DOCKED: ENDBRANCH   1   7
DOCKED: BRANCH   1  13
DOCKED: ATOM     13  C   UNL d   1     -12.414   0.498 -12.707 -0.20 +0.04    +0.073 C 
DOCKED: ATOM     14  O   UNL d   1     -12.604  -0.246 -11.682 -0.04 -0.18    -0.547 OA
DOCKED: ATOM     15  O   UNL d   1     -11.953   0.082 -13.830 -0.63 -0.65    -0.547 OA
DOCKED: ENDBRANCH   1  13
DOCKED: TORSDOF 6
DOCKED: TER
DOCKED: ENDMDL
________________________________________________________________________________


	BEGINNING GENETIC ALGORITHM DOCKING 79 of 100
Run: 79 Seed: 17884390 1996860503 [ Run 79 of 100 GA/GALS ]
Beginning LAMARCKIAN GENETIC ALGORITHM (LGA), with a maximum of 25000000 energy evaluations.

Final-Value: -6.024


	FINAL GENETIC ALGORITHM DOCKED STATE
	_______________________________________________


Detailed state:  trans -11.817 2.874 -10.432 quatxyzw -0.144400 -0.659239 0.608052 0.418121 center 0.015 0.083 0.031 ntor 6 -163.1897 -43.9225 -115.8130 -27.6265 -9.0610 -39.7392
State:	-11.817   2.874 -10.432  -0.159 -0.726  0.669 130.568   -163.19  -43.92 -115.81  -27.63   -9.06  -39.74

DOCKED: MODEL       79
DOCKED: USER    Run = 79
DOCKED: USER    DPF = D:/Protein_go_brrr/autodock/final/mut_K82N/2_3_BPG/dock.dpf
DOCKED: USER  
DOCKED: USER    Estimated Free Energy of Binding    =   -6.30 kcal/mol  [=(1)+(2)+(3)-(4)]
DOCKED: USER    Estimated Inhibition Constant, Ki   =   24.21 uM (micromolar)  [Temperature = 298.15 K]
DOCKED: USER    
DOCKED: USER    (1) Final Intermolecular Energy     =   -8.09 kcal/mol
DOCKED: USER        vdW + Hbond + desolv Energy     =   -2.49 kcal/mol
DOCKED: USER        Electrostatic Energy            =   -5.60 kcal/mol
DOCKED: USER    (2) Final Total Internal Energy     =   +2.06 kcal/mol
DOCKED: USER    (3) Torsional Free Energy           =   +1.79 kcal/mol
DOCKED: USER    (4) Unbound System's Energy  [=(2)] =   +2.06 kcal/mol
DOCKED: USER    
DOCKED: USER    
DOCKED: USER    NEWDPF move 2_3_BPG_opt.pdbqt
DOCKED: USER    NEWDPF about 0.015000 0.083000 0.031000
DOCKED: USER    NEWDPF tran0 -11.816906 2.874066 -10.432117
DOCKED: USER    NEWDPF quaternion0 -0.144400 -0.659239 0.608052 0.418121
DOCKED: USER    NEWDPF axisangle0 -0.158962 -0.725722 0.669372 130.567948
DOCKED: USER    NEWDPF quat0 -0.158962 -0.725722 0.669372 130.567948
DOCKED: USER    NEWDPF dihe0 -163.19 -43.92 -115.81 -27.63 -9.06 -39.74 
DOCKED: USER  keepresnum = 1 
DOCKED: USER  
DOCKED: REMARK  6 active torsions:
DOCKED: REMARK  status: ('A' for Active; 'I' for Inactive)
DOCKED: REMARK    1  A    between atoms: P_1  and  O_3 
DOCKED: REMARK    2  A    between atoms: P_2  and  O_4 
DOCKED: REMARK    3  A    between atoms: O_3  and  C_13 
DOCKED: REMARK    4  A    between atoms: O_4  and  C_14 
DOCKED: REMARK    5  A    between atoms: C_13  and  C_14 
DOCKED: REMARK    6  A    between atoms: C_13  and  C_15 
DOCKED: USER                              x       y       z     vdW  Elec       q    Type
DOCKED: USER                           _______ _______ _______ _____ _____    ______ ____
DOCKED: ROOT
DOCKED: ATOM      1  C   UNL d   1     -11.643   2.906  -9.785 -0.07 +0.12    +0.193 C 
DOCKED: ENDROOT
DOCKED: BRANCH   1   2
DOCKED: ATOM      2  O   UNL d   1     -10.688   4.008  -9.623 -0.09 -0.24    -0.356 OA
DOCKED: BRANCH   2   3
DOCKED: ATOM      3  P   UNL d   1      -9.668   4.137  -8.339 -0.21 -0.02    -0.014 P 
DOCKED: ATOM      4  O   UNL d   1      -8.297   4.430  -8.968 -0.05 -0.25    -0.577 OA
DOCKED: ATOM      5  O   UNL d   1      -9.679   2.792  -7.616 -0.02 -0.76    -0.577 OA
DOCKED: ATOM      6  O   UNL d   1     -10.146   5.297  -7.472 -0.34 -1.22    -0.638 OA
DOCKED: ENDBRANCH   2   3
DOCKED: ENDBRANCH   1   2
DOCKED: BRANCH   1   7
DOCKED: ATOM      7  C   UNL d   1     -12.280   2.997 -11.221 -0.10 +0.08    +0.201 C 
DOCKED: BRANCH   7   8
DOCKED: ATOM      8  O   UNL d   1     -12.065   1.855 -12.080 -0.06 -0.17    -0.364 OA
DOCKED: BRANCH   8   9
DOCKED: ATOM      9  P   UNL d   1     -12.810   1.774 -13.554 -0.20 -0.01    -0.015 P 
DOCKED: ATOM     10  O   UNL d   1     -12.187   2.907 -14.379 -0.10 -0.58    -0.577 OA
DOCKED: ATOM     11  O   UNL d   1     -14.303   1.998 -13.313 -0.01 -0.34    -0.577 OA
DOCKED: ATOM     12  O   UNL d   1     -12.499   0.398 -14.142 -0.57 -1.13    -0.638 OA
DOCKED: ENDBRANCH   8   9
DOCKED: ENDBRANCH   7   8
DOCKED: ENDBRANCH   1   7
DOCKED: BRANCH   1  13
DOCKED: ATOM     13  C   UNL d   1     -12.792   3.026  -8.716 -0.08 +0.07    +0.073 C 
DOCKED: ATOM     14  O   UNL d   1     -12.832   2.171  -7.763 -0.57 -0.76    -0.547 OA
DOCKED: ATOM     15  O   UNL d   1     -13.593   4.024  -8.830 -0.02 -0.40    -0.547 OA
DOCKED: ENDBRANCH   1  13
DOCKED: TORSDOF 6
DOCKED: TER
DOCKED: ENDMDL
________________________________________________________________________________


	BEGINNING GENETIC ALGORITHM DOCKING 80 of 100
Run: 80 Seed: 846860813 1801207900 [ Run 80 of 100 GA/GALS ]
Beginning LAMARCKIAN GENETIC ALGORITHM (LGA), with a maximum of 25000000 energy evaluations.

Final-Value: -5.923


	FINAL GENETIC ALGORITHM DOCKED STATE
	_______________________________________________


Detailed state:  trans -12.119 2.684 -10.451 quatxyzw -0.067192 -0.754219 0.409497 0.508873 center 0.015 0.083 0.031 ntor 6 -87.9484 -88.2082 -74.7719 5.8251 -28.8523 -45.3878
State:	-12.119   2.684 -10.451  -0.078 -0.876  0.476 118.822    -87.95  -88.21  -74.77    5.83  -28.85  -45.39

DOCKED: MODEL       80
DOCKED: USER    Run = 80
DOCKED: USER    DPF = D:/Protein_go_brrr/autodock/final/mut_K82N/2_3_BPG/dock.dpf
DOCKED: USER  
DOCKED: USER    Estimated Free Energy of Binding    =   -6.21 kcal/mol  [=(1)+(2)+(3)-(4)]
DOCKED: USER    Estimated Inhibition Constant, Ki   =   28.07 uM (micromolar)  [Temperature = 298.15 K]
DOCKED: USER    
DOCKED: USER    (1) Final Intermolecular Energy     =   -8.00 kcal/mol
DOCKED: USER        vdW + Hbond + desolv Energy     =   -2.49 kcal/mol
DOCKED: USER        Electrostatic Energy            =   -5.51 kcal/mol
DOCKED: USER    (2) Final Total Internal Energy     =   +2.08 kcal/mol
DOCKED: USER    (3) Torsional Free Energy           =   +1.79 kcal/mol
DOCKED: USER    (4) Unbound System's Energy  [=(2)] =   +2.08 kcal/mol
DOCKED: USER    
DOCKED: USER    
DOCKED: USER    NEWDPF move 2_3_BPG_opt.pdbqt
DOCKED: USER    NEWDPF about 0.015000 0.083000 0.031000
DOCKED: USER    NEWDPF tran0 -12.119321 2.684237 -10.450988
DOCKED: USER    NEWDPF quaternion0 -0.067192 -0.754219 0.409497 0.508873
DOCKED: USER    NEWDPF axisangle0 -0.078054 -0.876141 0.475693 118.822408
DOCKED: USER    NEWDPF quat0 -0.078054 -0.876141 0.475693 118.822408
DOCKED: USER    NEWDPF dihe0 -87.95 -88.21 -74.77 5.83 -28.85 -45.39 
DOCKED: USER  keepresnum = 1 
DOCKED: USER  
DOCKED: REMARK  6 active torsions:
DOCKED: REMARK  status: ('A' for Active; 'I' for Inactive)
DOCKED: REMARK    1  A    between atoms: P_1  and  O_3 
DOCKED: REMARK    2  A    between atoms: P_2  and  O_4 
DOCKED: REMARK    3  A    between atoms: O_3  and  C_13 
DOCKED: REMARK    4  A    between atoms: O_4  and  C_14 
DOCKED: REMARK    5  A    between atoms: C_13  and  C_14 
DOCKED: REMARK    6  A    between atoms: C_13  and  C_15 
DOCKED: USER                              x       y       z     vdW  Elec       q    Type
DOCKED: USER                           _______ _______ _______ _____ _____    ______ ____
DOCKED: ROOT
DOCKED: ATOM      1  C   UNL d   1     -11.937   2.601  -9.811 -0.11 +0.11    +0.193 C 
DOCKED: ENDROOT
DOCKED: BRANCH   1   2
DOCKED: ATOM      2  O   UNL d   1     -11.485   3.896  -9.291 -0.08 -0.30    -0.356 OA
DOCKED: BRANCH   2   3
DOCKED: ATOM      3  P   UNL d   1     -10.026   4.119  -8.568 -0.14 -0.02    -0.014 P 
DOCKED: ATOM      4  O   UNL d   1      -9.067   4.433  -9.728 -0.04 -0.24    -0.577 OA
DOCKED: ATOM      5  O   UNL d   1      -9.659   2.808  -7.875 -0.06 -0.67    -0.577 OA
DOCKED: ATOM      6  O   UNL d   1     -10.150   5.299  -7.610 -0.35 -1.12    -0.638 OA
DOCKED: ENDBRANCH   2   3
DOCKED: ENDBRANCH   1   2
DOCKED: BRANCH   1   7
DOCKED: ATOM      7  C   UNL d   1     -12.636   2.830 -11.202 -0.09 +0.08    +0.201 C 
DOCKED: BRANCH   7   8
DOCKED: ATOM      8  O   UNL d   1     -11.965   2.257 -12.346 -0.05 -0.17    -0.364 OA
DOCKED: BRANCH   8   9
DOCKED: ATOM      9  P   UNL d   1     -12.829   1.858 -13.700 -0.19 -0.02    -0.015 P 
DOCKED: ATOM     10  O   UNL d   1     -12.447   2.915 -14.743 -0.12 -0.71    -0.577 OA
DOCKED: ATOM     11  O   UNL d   1     -14.308   1.935 -13.324 -0.01 -0.35    -0.577 OA
DOCKED: ATOM     12  O   UNL d   1     -12.390   0.455 -14.117 -0.58 -1.11    -0.638 OA
DOCKED: ENDBRANCH   8   9
DOCKED: ENDBRANCH   7   8
DOCKED: ENDBRANCH   1   7
DOCKED: BRANCH   1  13
DOCKED: ATOM     13  C   UNL d   1     -12.981   1.957  -8.823 -0.11 +0.05    +0.073 C 
DOCKED: ATOM     14  O   UNL d   1     -12.835   2.155  -7.566 -0.56 -0.84    -0.547 OA
DOCKED: ATOM     15  O   UNL d   1     -13.963   1.319  -9.349 +0.01 -0.21    -0.547 OA
DOCKED: ENDBRANCH   1  13
DOCKED: TORSDOF 6
DOCKED: TER
DOCKED: ENDMDL
________________________________________________________________________________


	BEGINNING GENETIC ALGORITHM DOCKING 81 of 100
Run: 81 Seed: 1571285841 140911435 [ Run 81 of 100 GA/GALS ]
Beginning LAMARCKIAN GENETIC ALGORITHM (LGA), with a maximum of 25000000 energy evaluations.

Final-Value: -5.873


	FINAL GENETIC ALGORITHM DOCKED STATE
	_______________________________________________


Detailed state:  trans -11.740 3.224 -10.313 quatxyzw -0.055069 -0.726366 0.470686 0.497810 center 0.015 0.083 0.031 ntor 6 -169.7329 -63.2370 -127.1400 -8.5743 5.0622 -11.3983
State:	-11.740   3.224 -10.313  -0.063 -0.838  0.543 120.290   -169.73  -63.24 -127.14   -8.57    5.06  -11.40

DOCKED: MODEL       81
DOCKED: USER    Run = 81
DOCKED: USER    DPF = D:/Protein_go_brrr/autodock/final/mut_K82N/2_3_BPG/dock.dpf
DOCKED: USER  
DOCKED: USER    Estimated Free Energy of Binding    =   -6.05 kcal/mol  [=(1)+(2)+(3)-(4)]
DOCKED: USER    Estimated Inhibition Constant, Ki   =   36.73 uM (micromolar)  [Temperature = 298.15 K]
DOCKED: USER    
DOCKED: USER    (1) Final Intermolecular Energy     =   -7.84 kcal/mol
DOCKED: USER        vdW + Hbond + desolv Energy     =   -2.73 kcal/mol
DOCKED: USER        Electrostatic Energy            =   -5.11 kcal/mol
DOCKED: USER    (2) Final Total Internal Energy     =   +1.97 kcal/mol
DOCKED: USER    (3) Torsional Free Energy           =   +1.79 kcal/mol
DOCKED: USER    (4) Unbound System's Energy  [=(2)] =   +1.97 kcal/mol
DOCKED: USER    
DOCKED: USER    
DOCKED: USER    NEWDPF move 2_3_BPG_opt.pdbqt
DOCKED: USER    NEWDPF about 0.015000 0.083000 0.031000
DOCKED: USER    NEWDPF tran0 -11.740312 3.223714 -10.313187
DOCKED: USER    NEWDPF quaternion0 -0.055069 -0.726366 0.470686 0.497810
DOCKED: USER    NEWDPF axisangle0 -0.063496 -0.837516 0.542712 120.289575
DOCKED: USER    NEWDPF quat0 -0.063496 -0.837516 0.542712 120.289575
DOCKED: USER    NEWDPF dihe0 -169.73 -63.24 -127.14 -8.57 5.06 -11.40 
DOCKED: USER  keepresnum = 1 
DOCKED: USER  
DOCKED: REMARK  6 active torsions:
DOCKED: REMARK  status: ('A' for Active; 'I' for Inactive)
DOCKED: REMARK    1  A    between atoms: P_1  and  O_3 
DOCKED: REMARK    2  A    between atoms: P_2  and  O_4 
DOCKED: REMARK    3  A    between atoms: O_3  and  C_13 
DOCKED: REMARK    4  A    between atoms: O_4  and  C_14 
DOCKED: REMARK    5  A    between atoms: C_13  and  C_14 
DOCKED: REMARK    6  A    between atoms: C_13  and  C_15 
DOCKED: USER                              x       y       z     vdW  Elec       q    Type
DOCKED: USER                           _______ _______ _______ _____ _____    ______ ____
DOCKED: ROOT
DOCKED: ATOM      1  C   UNL d   1     -11.557   3.211  -9.668 -0.11 +0.13    +0.193 C 
DOCKED: ENDROOT
DOCKED: BRANCH   1   2
DOCKED: ATOM      2  O   UNL d   1     -11.028   4.533  -9.317 -0.07 -0.28    -0.356 OA
DOCKED: BRANCH   2   3
DOCKED: ATOM      3  P   UNL d   1      -9.727   4.754  -8.336 -0.21 -0.01    -0.014 P 
DOCKED: ATOM      4  O   UNL d   1      -8.643   5.332  -9.260 -0.03 -0.23    -0.577 OA
DOCKED: ATOM      5  O   UNL d   1      -9.330   3.381  -7.795 -0.13 -0.68    -0.577 OA
DOCKED: ATOM      6  O   UNL d   1     -10.121   5.745  -7.246 -0.44 -1.06    -0.638 OA
DOCKED: ENDBRANCH   2   3
DOCKED: ENDBRANCH   1   2
DOCKED: BRANCH   1   7
DOCKED: ATOM      7  C   UNL d   1     -12.255   3.304 -11.075 -0.09 +0.08    +0.201 C 
DOCKED: BRANCH   7   8
DOCKED: ATOM      8  O   UNL d   1     -12.194   2.112 -11.889 -0.08 -0.16    -0.364 OA
DOCKED: BRANCH   8   9
DOCKED: ATOM      9  P   UNL d   1     -12.714   2.152 -13.459 -0.20 -0.01    -0.015 P 
DOCKED: ATOM     10  O   UNL d   1     -11.917   3.287 -14.114 -0.07 -0.42    -0.577 OA
DOCKED: ATOM     11  O   UNL d   1     -14.212   2.452 -13.426 -0.01 -0.34    -0.577 OA
DOCKED: ATOM     12  O   UNL d   1     -12.389   0.792 -14.077 -0.55 -1.10    -0.638 OA
DOCKED: ENDBRANCH   8   9
DOCKED: ENDBRANCH   7   8
DOCKED: ENDBRANCH   1   7
DOCKED: BRANCH   1  13
DOCKED: ATOM     13  C   UNL d   1     -12.625   2.757  -8.605 -0.04 +0.08    +0.073 C 
DOCKED: ATOM     14  O   UNL d   1     -12.377   1.721  -7.893 -0.63 -0.64    -0.547 OA
DOCKED: ATOM     15  O   UNL d   1     -13.664   3.499  -8.470 -0.06 -0.47    -0.547 OA
DOCKED: ENDBRANCH   1  13
DOCKED: TORSDOF 6
DOCKED: TER
DOCKED: ENDMDL
________________________________________________________________________________


	BEGINNING GENETIC ALGORITHM DOCKING 82 of 100
Run: 82 Seed: 1481470023 1477874272 [ Run 82 of 100 GA/GALS ]
Beginning LAMARCKIAN GENETIC ALGORITHM (LGA), with a maximum of 25000000 energy evaluations.

Final-Value: -6.032


	FINAL GENETIC ALGORITHM DOCKED STATE
	_______________________________________________


Detailed state:  trans 0.015 -17.687 -5.444 quatxyzw -0.314502 0.026344 0.546206 0.775921 center 0.015 0.083 0.031 ntor 6 -5.3413 132.5583 -126.3694 -17.5571 73.1801 -122.8177
State:	  0.015 -17.687  -5.444  -0.499  0.042  0.866 78.223     -5.34  132.56 -126.37  -17.56   73.18 -122.82

DOCKED: MODEL       82
DOCKED: USER    Run = 82
DOCKED: USER    DPF = D:/Protein_go_brrr/autodock/final/mut_K82N/2_3_BPG/dock.dpf
DOCKED: USER  
DOCKED: USER    Estimated Free Energy of Binding    =   -6.96 kcal/mol  [=(1)+(2)+(3)-(4)]
DOCKED: USER    Estimated Inhibition Constant, Ki   =    7.93 uM (micromolar)  [Temperature = 298.15 K]
DOCKED: USER    
DOCKED: USER    (1) Final Intermolecular Energy     =   -8.75 kcal/mol
DOCKED: USER        vdW + Hbond + desolv Energy     =   -4.15 kcal/mol
DOCKED: USER        Electrostatic Energy            =   -4.60 kcal/mol
DOCKED: USER    (2) Final Total Internal Energy     =   +2.72 kcal/mol
DOCKED: USER    (3) Torsional Free Energy           =   +1.79 kcal/mol
DOCKED: USER    (4) Unbound System's Energy  [=(2)] =   +2.72 kcal/mol
DOCKED: USER    
DOCKED: USER    
DOCKED: USER    NEWDPF move 2_3_BPG_opt.pdbqt
DOCKED: USER    NEWDPF about 0.015000 0.083000 0.031000
DOCKED: USER    NEWDPF tran0 0.014643 -17.686749 -5.444497
DOCKED: USER    NEWDPF quaternion0 -0.314502 0.026344 0.546206 0.775921
DOCKED: USER    NEWDPF axisangle0 -0.498553 0.041761 0.865853 78.222715
DOCKED: USER    NEWDPF quat0 -0.498553 0.041761 0.865853 78.222715
DOCKED: USER    NEWDPF dihe0 -5.34 132.56 -126.37 -17.56 73.18 -122.82 
DOCKED: USER  keepresnum = 1 
DOCKED: USER  
DOCKED: REMARK  6 active torsions:
DOCKED: REMARK  status: ('A' for Active; 'I' for Inactive)
DOCKED: REMARK    1  A    between atoms: P_1  and  O_3 
DOCKED: REMARK    2  A    between atoms: P_2  and  O_4 
DOCKED: REMARK    3  A    between atoms: O_3  and  C_13 
DOCKED: REMARK    4  A    between atoms: O_4  and  C_14 
DOCKED: REMARK    5  A    between atoms: C_13  and  C_14 
DOCKED: REMARK    6  A    between atoms: C_13  and  C_15 
DOCKED: USER                              x       y       z     vdW  Elec       q    Type
DOCKED: USER                           _______ _______ _______ _____ _____    ______ ____
DOCKED: ROOT
DOCKED: ATOM      1  C   UNL d   1      -0.516 -17.287  -5.354 -0.23 +0.13    +0.193 C 
DOCKED: ENDROOT
DOCKED: BRANCH   1   2
DOCKED: ATOM      2  O   UNL d   1      -0.028 -15.920  -5.139 -0.59 -0.51    -0.356 OA
DOCKED: BRANCH   2   3
DOCKED: ATOM      3  P   UNL d   1      -0.820 -14.814  -4.216 -0.74 -0.01    -0.014 P 
DOCKED: ATOM      4  O   UNL d   1      -2.257 -14.820  -4.759 -0.72 -0.42    -0.577 OA
DOCKED: ATOM      5  O   UNL d   1      -0.139 -13.465  -4.443 -0.28 -0.56    -0.577 OA
DOCKED: ATOM      6  O   UNL d   1      -0.767 -15.285  -2.766 -0.39 -0.56    -0.638 OA
DOCKED: ENDBRANCH   2   3
DOCKED: ENDBRANCH   1   2
DOCKED: BRANCH   1   7
DOCKED: ATOM      7  C   UNL d   1       0.681 -18.178  -5.854 -0.14 +0.13    +0.201 C 
DOCKED: BRANCH   7   8
DOCKED: ATOM      8  O   UNL d   1       1.970 -17.888  -5.269 -0.16 -0.44    -0.364 OA
DOCKED: BRANCH   8   9
DOCKED: ATOM      9  P   UNL d   1       3.106 -17.056  -6.138 -0.03 -0.02    -0.015 P 
DOCKED: ATOM     10  O   UNL d   1       2.415 -15.749  -6.549 -0.16 -0.84    -0.577 OA
DOCKED: ATOM     11  O   UNL d   1       3.462 -17.918  -7.348 +0.02 -0.25    -0.577 OA
DOCKED: ATOM     12  O   UNL d   1       4.293 -16.809  -5.208 -0.47 -1.00    -0.638 OA
DOCKED: ENDBRANCH   8   9
DOCKED: ENDBRANCH   7   8
DOCKED: ENDBRANCH   1   7
DOCKED: BRANCH   1  13
DOCKED: ATOM     13  C   UNL d   1      -1.641 -17.291  -6.455 -0.21 +0.02    +0.073 C 
DOCKED: ATOM     14  O   UNL d   1      -1.426 -16.666  -7.552 -0.06 -0.20    -0.547 OA
DOCKED: ATOM     15  O   UNL d   1      -2.695 -17.982  -6.208 +0.00 -0.07    -0.547 OA
DOCKED: ENDBRANCH   1  13
DOCKED: TORSDOF 6
DOCKED: TER
DOCKED: ENDMDL
________________________________________________________________________________


	BEGINNING GENETIC ALGORITHM DOCKING 83 of 100
Run: 83 Seed: 1443506651 107754926 [ Run 83 of 100 GA/GALS ]
Beginning LAMARCKIAN GENETIC ALGORITHM (LGA), with a maximum of 25000000 energy evaluations.

Final-Value: -5.818


	FINAL GENETIC ALGORITHM DOCKED STATE
	_______________________________________________


Detailed state:  trans -11.797 2.815 -10.169 quatxyzw -0.087500 0.774289 -0.401355 -0.481389 center 0.015 0.083 0.031 ntor 6 -174.2169 -66.4001 -109.0321 -17.4621 6.9541 -26.6404
State:	-11.797   2.815 -10.169  -0.100  0.883 -0.458 -122.448   -174.22  -66.40 -109.03  -17.46    6.95  -26.64

DOCKED: MODEL       83
DOCKED: USER    Run = 83
DOCKED: USER    DPF = D:/Protein_go_brrr/autodock/final/mut_K82N/2_3_BPG/dock.dpf
DOCKED: USER  
DOCKED: USER    Estimated Free Energy of Binding    =   -6.04 kcal/mol  [=(1)+(2)+(3)-(4)]
DOCKED: USER    Estimated Inhibition Constant, Ki   =   37.40 uM (micromolar)  [Temperature = 298.15 K]
DOCKED: USER    
DOCKED: USER    (1) Final Intermolecular Energy     =   -7.83 kcal/mol
DOCKED: USER        vdW + Hbond + desolv Energy     =   -2.61 kcal/mol
DOCKED: USER        Electrostatic Energy            =   -5.22 kcal/mol
DOCKED: USER    (2) Final Total Internal Energy     =   +2.01 kcal/mol
DOCKED: USER    (3) Torsional Free Energy           =   +1.79 kcal/mol
DOCKED: USER    (4) Unbound System's Energy  [=(2)] =   +2.01 kcal/mol
DOCKED: USER    
DOCKED: USER    
DOCKED: USER    NEWDPF move 2_3_BPG_opt.pdbqt
DOCKED: USER    NEWDPF about 0.015000 0.083000 0.031000
DOCKED: USER    NEWDPF tran0 -11.796768 2.815301 -10.169203
DOCKED: USER    NEWDPF quaternion0 -0.087500 0.774289 -0.401355 -0.481389
DOCKED: USER    NEWDPF axisangle0 -0.099828 0.883380 -0.457902 -122.447695
DOCKED: USER    NEWDPF quat0 -0.099828 0.883380 -0.457902 -122.447695
DOCKED: USER    NEWDPF dihe0 -174.22 -66.40 -109.03 -17.46 6.95 -26.64 
DOCKED: USER  keepresnum = 1 
DOCKED: USER  
DOCKED: REMARK  6 active torsions:
DOCKED: REMARK  status: ('A' for Active; 'I' for Inactive)
DOCKED: REMARK    1  A    between atoms: P_1  and  O_3 
DOCKED: REMARK    2  A    between atoms: P_2  and  O_4 
DOCKED: REMARK    3  A    between atoms: O_3  and  C_13 
DOCKED: REMARK    4  A    between atoms: O_4  and  C_14 
DOCKED: REMARK    5  A    between atoms: C_13  and  C_14 
DOCKED: REMARK    6  A    between atoms: C_13  and  C_15 
DOCKED: USER                              x       y       z     vdW  Elec       q    Type
DOCKED: USER                           _______ _______ _______ _____ _____    ______ ____
DOCKED: ROOT
DOCKED: ATOM      1  C   UNL d   1     -11.494   2.864  -9.573 -0.07 +0.13    +0.193 C 
DOCKED: ENDROOT
DOCKED: BRANCH   1   2
DOCKED: ATOM      2  O   UNL d   1     -11.271   4.287  -9.290 -0.07 -0.30    -0.356 OA
DOCKED: BRANCH   2   3
DOCKED: ATOM      3  P   UNL d   1     -10.011   4.841  -8.389 -0.13 -0.02    -0.014 P 
DOCKED: ATOM      4  O   UNL d   1      -9.097   5.546  -9.403 -0.01 -0.24    -0.577 OA
DOCKED: ATOM      5  O   UNL d   1      -9.328   3.624  -7.769 -0.19 -0.72    -0.577 OA
DOCKED: ATOM      6  O   UNL d   1     -10.564   5.820  -7.358 -0.23 -1.09    -0.638 OA
DOCKED: ENDBRANCH   2   3
DOCKED: ENDBRANCH   1   2
DOCKED: BRANCH   1   7
DOCKED: ATOM      7  C   UNL d   1     -12.454   2.741 -10.814 -0.10 +0.09    +0.201 C 
DOCKED: BRANCH   7   8
DOCKED: ATOM      8  O   UNL d   1     -12.044   1.809 -11.838 -0.07 -0.16    -0.364 OA
DOCKED: BRANCH   8   9
DOCKED: ATOM      9  P   UNL d   1     -12.833   1.774 -13.292 -0.23 -0.01    -0.015 P 
DOCKED: ATOM     10  O   UNL d   1     -12.378   3.042 -14.023 -0.08 -0.46    -0.577 OA
DOCKED: ATOM     11  O   UNL d   1     -14.330   1.796 -12.987 -0.00 -0.30    -0.577 OA
DOCKED: ATOM     12  O   UNL d   1     -12.388   0.503 -14.015 -0.59 -1.03    -0.638 OA
DOCKED: ENDBRANCH   8   9
DOCKED: ENDBRANCH   7   8
DOCKED: ENDBRANCH   1   7
DOCKED: BRANCH   1  13
DOCKED: ATOM     13  C   UNL d   1     -12.176   2.168  -8.337 -0.06 +0.08    +0.073 C 
DOCKED: ATOM     14  O   UNL d   1     -11.568   1.190  -7.774 -0.37 -0.53    -0.547 OA
DOCKED: ATOM     15  O   UNL d   1     -13.283   2.669  -7.923 -0.42 -0.66    -0.547 OA
DOCKED: ENDBRANCH   1  13
DOCKED: TORSDOF 6
DOCKED: TER
DOCKED: ENDMDL
________________________________________________________________________________


	BEGINNING GENETIC ALGORITHM DOCKING 84 of 100
Run: 84 Seed: 483361730 330093880 [ Run 84 of 100 GA/GALS ]
Beginning LAMARCKIAN GENETIC ALGORITHM (LGA), with a maximum of 25000000 energy evaluations.

Final-Value: -5.753


	FINAL GENETIC ALGORITHM DOCKED STATE
	_______________________________________________


Detailed state:  trans -11.987 2.835 -10.273 quatxyzw 0.199356 -0.754354 0.370726 0.503755 center 0.015 0.083 0.031 ntor 6 -179.8591 -52.9699 -174.0855 -29.8599 -13.0774 -62.6104
State:	-11.987   2.835 -10.273   0.231 -0.873  0.429 119.502   -179.86  -52.97 -174.09  -29.86  -13.08  -62.61

DOCKED: MODEL       84
DOCKED: USER    Run = 84
DOCKED: USER    DPF = D:/Protein_go_brrr/autodock/final/mut_K82N/2_3_BPG/dock.dpf
DOCKED: USER  
DOCKED: USER    Estimated Free Energy of Binding    =   -6.04 kcal/mol  [=(1)+(2)+(3)-(4)]
DOCKED: USER    Estimated Inhibition Constant, Ki   =   37.54 uM (micromolar)  [Temperature = 298.15 K]
DOCKED: USER    
DOCKED: USER    (1) Final Intermolecular Energy     =   -7.83 kcal/mol
DOCKED: USER        vdW + Hbond + desolv Energy     =   -2.48 kcal/mol
DOCKED: USER        Electrostatic Energy            =   -5.35 kcal/mol
DOCKED: USER    (2) Final Total Internal Energy     =   +2.07 kcal/mol
DOCKED: USER    (3) Torsional Free Energy           =   +1.79 kcal/mol
DOCKED: USER    (4) Unbound System's Energy  [=(2)] =   +2.07 kcal/mol
DOCKED: USER    
DOCKED: USER    
DOCKED: USER    NEWDPF move 2_3_BPG_opt.pdbqt
DOCKED: USER    NEWDPF about 0.015000 0.083000 0.031000
DOCKED: USER    NEWDPF tran0 -11.987433 2.835134 -10.272920
DOCKED: USER    NEWDPF quaternion0 0.199356 -0.754354 0.370726 0.503755
DOCKED: USER    NEWDPF axisangle0 0.230777 -0.873250 0.429158 119.502476
DOCKED: USER    NEWDPF quat0 0.230777 -0.873250 0.429158 119.502476
DOCKED: USER    NEWDPF dihe0 -179.86 -52.97 -174.09 -29.86 -13.08 -62.61 
DOCKED: USER  keepresnum = 1 
DOCKED: USER  
DOCKED: REMARK  6 active torsions:
DOCKED: REMARK  status: ('A' for Active; 'I' for Inactive)
DOCKED: REMARK    1  A    between atoms: P_1  and  O_3 
DOCKED: REMARK    2  A    between atoms: P_2  and  O_4 
DOCKED: REMARK    3  A    between atoms: O_3  and  C_13 
DOCKED: REMARK    4  A    between atoms: O_4  and  C_14 
DOCKED: REMARK    5  A    between atoms: C_13  and  C_14 
DOCKED: REMARK    6  A    between atoms: C_13  and  C_15 
DOCKED: USER                              x       y       z     vdW  Elec       q    Type
DOCKED: USER                           _______ _______ _______ _____ _____    ______ ____
DOCKED: ROOT
DOCKED: ATOM      1  C   UNL d   1     -11.684   2.995  -9.697 -0.10 +0.12    +0.193 C 
DOCKED: ENDROOT
DOCKED: BRANCH   1   2
DOCKED: ATOM      2  O   UNL d   1     -11.776   4.449  -9.521 -0.05 -0.26    -0.356 OA
DOCKED: BRANCH   2   3
DOCKED: ATOM      3  P   UNL d   1     -10.818   5.296  -8.486 -0.08 -0.02    -0.014 P 
DOCKED: ATOM      4  O   UNL d   1     -10.127   6.343  -9.374 +0.02 -0.26    -0.577 OA
DOCKED: ATOM      5  O   UNL d   1      -9.813   4.311  -7.892 -0.26 -0.90    -0.577 OA
DOCKED: ATOM      6  O   UNL d   1     -11.716   5.952  -7.443 +0.01 -1.00    -0.638 OA
DOCKED: ENDBRANCH   2   3
DOCKED: ENDBRANCH   1   2
DOCKED: BRANCH   1   7
DOCKED: ATOM      7  C   UNL d   1     -12.632   2.569 -10.878 -0.09 +0.08    +0.201 C 
DOCKED: BRANCH   7   8
DOCKED: ATOM      8  O   UNL d   1     -12.001   2.412 -12.168 -0.07 -0.16    -0.364 OA
DOCKED: BRANCH   8   9
DOCKED: ATOM      9  P   UNL d   1     -12.837   1.732 -13.423 -0.21 -0.01    -0.015 P 
DOCKED: ATOM     10  O   UNL d   1     -14.276   1.591 -12.914 -0.01 -0.30    -0.577 OA
DOCKED: ATOM     11  O   UNL d   1     -12.194   0.373 -13.702 -0.66 -0.67    -0.577 OA
DOCKED: ATOM     12  O   UNL d   1     -12.738   2.694 -14.605 -0.12 -0.81    -0.638 OA
DOCKED: ENDBRANCH   8   9
DOCKED: ENDBRANCH   7   8
DOCKED: ENDBRANCH   1   7
DOCKED: BRANCH   1  13
DOCKED: ATOM     13  C   UNL d   1     -12.151   2.262  -8.385 -0.02 +0.09    +0.073 C 
DOCKED: ATOM     14  O   UNL d   1     -11.363   1.406  -7.849 -0.38 -0.58    -0.547 OA
DOCKED: ATOM     15  O   UNL d   1     -13.281   2.618  -7.890 -0.45 -0.67    -0.547 OA
DOCKED: ENDBRANCH   1  13
DOCKED: TORSDOF 6
DOCKED: TER
DOCKED: ENDMDL
________________________________________________________________________________


	BEGINNING GENETIC ALGORITHM DOCKING 85 of 100
Run: 85 Seed: 1867403360 433600424 [ Run 85 of 100 GA/GALS ]
Beginning LAMARCKIAN GENETIC ALGORITHM (LGA), with a maximum of 25000000 energy evaluations.

Final-Value: -5.786


	FINAL GENETIC ALGORITHM DOCKED STATE
	_______________________________________________


Detailed state:  trans -11.988 2.889 -10.295 quatxyzw -0.265027 0.725111 -0.349121 -0.531121 center 0.015 0.083 0.031 ntor 6 177.8958 80.2145 -151.2354 -37.2904 -2.9821 -75.7708
State:	-11.988   2.889 -10.295  -0.313  0.856 -0.412 -115.838    177.90   80.21 -151.24  -37.29   -2.98  -75.77

DOCKED: MODEL       85
DOCKED: USER    Run = 85
DOCKED: USER    DPF = D:/Protein_go_brrr/autodock/final/mut_K82N/2_3_BPG/dock.dpf
DOCKED: USER  
DOCKED: USER    Estimated Free Energy of Binding    =   -6.18 kcal/mol  [=(1)+(2)+(3)-(4)]
DOCKED: USER    Estimated Inhibition Constant, Ki   =   29.53 uM (micromolar)  [Temperature = 298.15 K]
DOCKED: USER    
DOCKED: USER    (1) Final Intermolecular Energy     =   -7.97 kcal/mol
DOCKED: USER        vdW + Hbond + desolv Energy     =   -2.52 kcal/mol
DOCKED: USER        Electrostatic Energy            =   -5.45 kcal/mol
DOCKED: USER    (2) Final Total Internal Energy     =   +2.18 kcal/mol
DOCKED: USER    (3) Torsional Free Energy           =   +1.79 kcal/mol
DOCKED: USER    (4) Unbound System's Energy  [=(2)] =   +2.18 kcal/mol
DOCKED: USER    
DOCKED: USER    
DOCKED: USER    NEWDPF move 2_3_BPG_opt.pdbqt
DOCKED: USER    NEWDPF about 0.015000 0.083000 0.031000
DOCKED: USER    NEWDPF tran0 -11.988113 2.889262 -10.294687
DOCKED: USER    NEWDPF quaternion0 -0.265027 0.725111 -0.349121 -0.531121
DOCKED: USER    NEWDPF axisangle0 -0.312792 0.855794 -0.412041 -115.837514
DOCKED: USER    NEWDPF quat0 -0.312792 0.855794 -0.412041 -115.837514
DOCKED: USER    NEWDPF dihe0 177.90 80.21 -151.24 -37.29 -2.98 -75.77 
DOCKED: USER  keepresnum = 1 
DOCKED: USER  
DOCKED: REMARK  6 active torsions:
DOCKED: REMARK  status: ('A' for Active; 'I' for Inactive)
DOCKED: REMARK    1  A    between atoms: P_1  and  O_3 
DOCKED: REMARK    2  A    between atoms: P_2  and  O_4 
DOCKED: REMARK    3  A    between atoms: O_3  and  C_13 
DOCKED: REMARK    4  A    between atoms: O_4  and  C_14 
DOCKED: REMARK    5  A    between atoms: C_13  and  C_14 
DOCKED: REMARK    6  A    between atoms: C_13  and  C_15 
DOCKED: USER                              x       y       z     vdW  Elec       q    Type
DOCKED: USER                           _______ _______ _______ _____ _____    ______ ____
DOCKED: ROOT
DOCKED: ATOM      1  C   UNL d   1     -11.722   3.119  -9.724 -0.11 +0.12    +0.193 C 
DOCKED: ENDROOT
DOCKED: BRANCH   1   2
DOCKED: ATOM      2  O   UNL d   1     -12.037   4.548  -9.615 -0.04 -0.24    -0.356 OA
DOCKED: BRANCH   2   3
DOCKED: ATOM      3  P   UNL d   1     -11.361   5.537  -8.488 -0.08 -0.01    -0.014 P 
DOCKED: ATOM      4  O   UNL d   1     -12.467   5.735  -7.439 -0.06 -0.88    -0.577 OA
DOCKED: ATOM      5  O   UNL d   1     -11.012   6.848  -9.189 +0.02 -0.27    -0.577 OA
DOCKED: ATOM      6  O   UNL d   1     -10.151   4.822  -7.898 -0.27 -1.07    -0.638 OA
DOCKED: ENDBRANCH   2   3
DOCKED: ENDBRANCH   1   2
DOCKED: BRANCH   1   7
DOCKED: ATOM      7  C   UNL d   1     -12.574   2.502 -10.893 -0.09 +0.08    +0.201 C 
DOCKED: BRANCH   7   8
DOCKED: ATOM      8  O   UNL d   1     -12.027   2.655 -12.221 -0.08 -0.16    -0.364 OA
DOCKED: BRANCH   8   9
DOCKED: ATOM      9  P   UNL d   1     -12.838   2.047 -13.529 -0.22 -0.01    -0.015 P 
DOCKED: ATOM     10  O   UNL d   1     -14.322   2.135 -13.153 -0.00 -0.31    -0.577 OA
DOCKED: ATOM     11  O   UNL d   1     -12.379   0.600 -13.705 -0.66 -0.69    -0.577 OA
DOCKED: ATOM     12  O   UNL d   1     -12.495   2.933 -14.725 -0.11 -0.77    -0.638 OA
DOCKED: ENDBRANCH   8   9
DOCKED: ENDBRANCH   7   8
DOCKED: ENDBRANCH   1   7
DOCKED: BRANCH   1  13
DOCKED: ATOM     13  C   UNL d   1     -12.094   2.380  -8.384 +0.04 +0.09    +0.073 C 
DOCKED: ATOM     14  O   UNL d   1     -11.208   1.643  -7.826 -0.41 -0.66    -0.547 OA
DOCKED: ATOM     15  O   UNL d   1     -13.257   2.615  -7.894 -0.45 -0.67    -0.547 OA
DOCKED: ENDBRANCH   1  13
DOCKED: TORSDOF 6
DOCKED: TER
DOCKED: ENDMDL
________________________________________________________________________________


	BEGINNING GENETIC ALGORITHM DOCKING 86 of 100
Run: 86 Seed: 1127905624 2061443297 [ Run 86 of 100 GA/GALS ]
Beginning LAMARCKIAN GENETIC ALGORITHM (LGA), with a maximum of 25000000 energy evaluations.

Final-Value: -5.837


	FINAL GENETIC ALGORITHM DOCKED STATE
	_______________________________________________


Detailed state:  trans -12.045 2.860 -10.297 quatxyzw 0.253708 -0.737471 0.351605 0.517825 center 0.015 0.083 0.031 ntor 6 179.7756 -39.5993 -169.6687 -40.1432 -9.8214 -66.0525
State:	-12.045   2.860 -10.297   0.297 -0.862  0.411 117.627    179.78  -39.60 -169.67  -40.14   -9.82  -66.05

DOCKED: MODEL       86
DOCKED: USER    Run = 86
DOCKED: USER    DPF = D:/Protein_go_brrr/autodock/final/mut_K82N/2_3_BPG/dock.dpf
DOCKED: USER  
DOCKED: USER    Estimated Free Energy of Binding    =   -6.21 kcal/mol  [=(1)+(2)+(3)-(4)]
DOCKED: USER    Estimated Inhibition Constant, Ki   =   28.26 uM (micromolar)  [Temperature = 298.15 K]
DOCKED: USER    
DOCKED: USER    (1) Final Intermolecular Energy     =   -8.00 kcal/mol
DOCKED: USER        vdW + Hbond + desolv Energy     =   -2.45 kcal/mol
DOCKED: USER        Electrostatic Energy            =   -5.54 kcal/mol
DOCKED: USER    (2) Final Total Internal Energy     =   +2.16 kcal/mol
DOCKED: USER    (3) Torsional Free Energy           =   +1.79 kcal/mol
DOCKED: USER    (4) Unbound System's Energy  [=(2)] =   +2.16 kcal/mol
DOCKED: USER    
DOCKED: USER    
DOCKED: USER    NEWDPF move 2_3_BPG_opt.pdbqt
DOCKED: USER    NEWDPF about 0.015000 0.083000 0.031000
DOCKED: USER    NEWDPF tran0 -12.045132 2.860024 -10.296860
DOCKED: USER    NEWDPF quaternion0 0.253708 -0.737471 0.351605 0.517825
DOCKED: USER    NEWDPF axisangle0 0.296566 -0.862049 0.411000 117.627075
DOCKED: USER    NEWDPF quat0 0.296566 -0.862049 0.411000 117.627075
DOCKED: USER    NEWDPF dihe0 179.78 -39.60 -169.67 -40.14 -9.82 -66.05 
DOCKED: USER  keepresnum = 1 
DOCKED: USER  
DOCKED: REMARK  6 active torsions:
DOCKED: REMARK  status: ('A' for Active; 'I' for Inactive)
DOCKED: REMARK    1  A    between atoms: P_1  and  O_3 
DOCKED: REMARK    2  A    between atoms: P_2  and  O_4 
DOCKED: REMARK    3  A    between atoms: O_3  and  C_13 
DOCKED: REMARK    4  A    between atoms: O_4  and  C_14 
DOCKED: REMARK    5  A    between atoms: C_13  and  C_14 
DOCKED: REMARK    6  A    between atoms: C_13  and  C_15 
DOCKED: USER                              x       y       z     vdW  Elec       q    Type
DOCKED: USER                           _______ _______ _______ _____ _____    ______ ____
DOCKED: ROOT
DOCKED: ATOM      1  C   UNL d   1     -11.758   3.074  -9.730 -0.11 +0.12    +0.193 C 
DOCKED: ENDROOT
DOCKED: BRANCH   1   2
DOCKED: ATOM      2  O   UNL d   1     -12.020   4.512  -9.600 -0.04 -0.24    -0.356 OA
DOCKED: BRANCH   2   3
DOCKED: ATOM      3  P   UNL d   1     -11.336   5.453  -8.437 -0.05 -0.02    -0.014 P 
DOCKED: ATOM      4  O   UNL d   1     -10.912   6.730  -9.178 +0.02 -0.28    -0.577 OA
DOCKED: ATOM      5  O   UNL d   1     -10.129   4.692  -7.892 -0.25 -0.99    -0.577 OA
DOCKED: ATOM      6  O   UNL d   1     -12.398   5.744  -7.382 -0.02 -1.03    -0.638 OA
DOCKED: ENDBRANCH   2   3
DOCKED: ENDBRANCH   1   2
DOCKED: BRANCH   1   7
DOCKED: ATOM      7  C   UNL d   1     -12.658   2.500 -10.885 -0.09 +0.08    +0.201 C 
DOCKED: BRANCH   7   8
DOCKED: ATOM      8  O   UNL d   1     -12.048   2.448 -12.194 -0.07 -0.17    -0.364 OA
DOCKED: BRANCH   8   9
DOCKED: ATOM      9  P   UNL d   1     -12.835   1.710 -13.448 -0.21 -0.01    -0.015 P 
DOCKED: ATOM     10  O   UNL d   1     -14.269   1.498 -12.949 -0.01 -0.31    -0.577 OA
DOCKED: ATOM     11  O   UNL d   1     -12.119   0.385 -13.707 -0.65 -0.66    -0.577 OA
DOCKED: ATOM     12  O   UNL d   1     -12.778   2.664 -14.640 -0.12 -0.85    -0.638 OA
DOCKED: ENDBRANCH   8   9
DOCKED: ENDBRANCH   7   8
DOCKED: ENDBRANCH   1   7
DOCKED: BRANCH   1  13
DOCKED: ATOM     13  C   UNL d   1     -12.125   2.335  -8.390 +0.01 +0.09    +0.073 C 
DOCKED: ATOM     14  O   UNL d   1     -11.240   1.590  -7.840 -0.40 -0.64    -0.547 OA
DOCKED: ATOM     15  O   UNL d   1     -13.283   2.577  -7.889 -0.45 -0.66    -0.547 OA
DOCKED: ENDBRANCH   1  13
DOCKED: TORSDOF 6
DOCKED: TER
DOCKED: ENDMDL
________________________________________________________________________________


	BEGINNING GENETIC ALGORITHM DOCKING 87 of 100
Run: 87 Seed: 823349205 598739727 [ Run 87 of 100 GA/GALS ]
Beginning LAMARCKIAN GENETIC ALGORITHM (LGA), with a maximum of 25000000 energy evaluations.

Final-Value: -5.866


	FINAL GENETIC ALGORITHM DOCKED STATE
	_______________________________________________


Detailed state:  trans -11.905 2.966 -10.625 quatxyzw -0.124070 -0.708784 0.461180 0.519177 center 0.015 0.083 0.031 ntor 6 -118.2336 -74.8248 -95.1280 -0.1309 -31.6137 -26.5736
State:	-11.905   2.966 -10.625  -0.145 -0.829  0.540 117.446   -118.23  -74.82  -95.13   -0.13  -31.61  -26.57

DOCKED: MODEL       87
DOCKED: USER    Run = 87
DOCKED: USER    DPF = D:/Protein_go_brrr/autodock/final/mut_K82N/2_3_BPG/dock.dpf
DOCKED: USER  
DOCKED: USER    Estimated Free Energy of Binding    =   -6.19 kcal/mol  [=(1)+(2)+(3)-(4)]
DOCKED: USER    Estimated Inhibition Constant, Ki   =   29.03 uM (micromolar)  [Temperature = 298.15 K]
DOCKED: USER    
DOCKED: USER    (1) Final Intermolecular Energy     =   -7.98 kcal/mol
DOCKED: USER        vdW + Hbond + desolv Energy     =   -2.42 kcal/mol
DOCKED: USER        Electrostatic Energy            =   -5.56 kcal/mol
DOCKED: USER    (2) Final Total Internal Energy     =   +2.11 kcal/mol
DOCKED: USER    (3) Torsional Free Energy           =   +1.79 kcal/mol
DOCKED: USER    (4) Unbound System's Energy  [=(2)] =   +2.11 kcal/mol
DOCKED: USER    
DOCKED: USER    
DOCKED: USER    NEWDPF move 2_3_BPG_opt.pdbqt
DOCKED: USER    NEWDPF about 0.015000 0.083000 0.031000
DOCKED: USER    NEWDPF tran0 -11.904897 2.966403 -10.624688
DOCKED: USER    NEWDPF quaternion0 -0.124070 -0.708784 0.461180 0.519177
DOCKED: USER    NEWDPF axisangle0 -0.145168 -0.829310 0.539603 117.445883
DOCKED: USER    NEWDPF quat0 -0.145168 -0.829310 0.539603 117.445883
DOCKED: USER    NEWDPF dihe0 -118.23 -74.82 -95.13 -0.13 -31.61 -26.57 
DOCKED: USER  keepresnum = 1 
DOCKED: USER  
DOCKED: REMARK  6 active torsions:
DOCKED: REMARK  status: ('A' for Active; 'I' for Inactive)
DOCKED: REMARK    1  A    between atoms: P_1  and  O_3 
DOCKED: REMARK    2  A    between atoms: P_2  and  O_4 
DOCKED: REMARK    3  A    between atoms: O_3  and  C_13 
DOCKED: REMARK    4  A    between atoms: O_4  and  C_14 
DOCKED: REMARK    5  A    between atoms: C_13  and  C_14 
DOCKED: REMARK    6  A    between atoms: C_13  and  C_15 
DOCKED: USER                              x       y       z     vdW  Elec       q    Type
DOCKED: USER                           _______ _______ _______ _____ _____    ______ ____
DOCKED: ROOT
DOCKED: ATOM      1  C   UNL d   1     -11.799   2.901  -9.966 -0.08 +0.11    +0.193 C 
DOCKED: ENDROOT
DOCKED: BRANCH   1   2
DOCKED: ATOM      2  O   UNL d   1     -11.225   4.157  -9.469 -0.08 -0.27    -0.356 OA
DOCKED: BRANCH   2   3
DOCKED: ATOM      3  P   UNL d   1      -9.905   4.221  -8.490 -0.15 -0.02    -0.014 P 
DOCKED: ATOM      4  O   UNL d   1      -8.748   4.590  -9.432 -0.04 -0.24    -0.577 OA
DOCKED: ATOM      5  O   UNL d   1      -9.718   2.828  -7.891 -0.06 -0.69    -0.577 OA
DOCKED: ATOM      6  O   UNL d   1     -10.145   5.305  -7.446 -0.34 -1.24    -0.638 OA
DOCKED: ENDBRANCH   2   3
DOCKED: ENDBRANCH   1   2
DOCKED: BRANCH   1   7
DOCKED: ATOM      7  C   UNL d   1     -12.321   3.130 -11.432 -0.10 +0.08    +0.201 C 
DOCKED: BRANCH   7   8
DOCKED: ATOM      8  O   UNL d   1     -11.945   2.125 -12.399 -0.03 -0.18    -0.364 OA
DOCKED: BRANCH   8   9
DOCKED: ATOM      9  P   UNL d   1     -12.918   1.822 -13.702 -0.19 -0.02    -0.015 P 
DOCKED: ATOM     10  O   UNL d   1     -12.474   2.825 -14.774 -0.12 -0.76    -0.577 OA
DOCKED: ATOM     11  O   UNL d   1     -14.357   2.069 -13.251 -0.01 -0.32    -0.577 OA
DOCKED: ATOM     12  O   UNL d   1     -12.664   0.377 -14.129 -0.57 -1.11    -0.638 OA
DOCKED: ENDBRANCH   8   9
DOCKED: ENDBRANCH   7   8
DOCKED: ENDBRANCH   1   7
DOCKED: BRANCH   1  13
DOCKED: ATOM     13  C   UNL d   1     -13.013   2.468  -9.061 -0.10 +0.05    +0.073 C 
DOCKED: ATOM     14  O   UNL d   1     -12.785   2.166  -7.837 -0.58 -0.73    -0.547 OA
DOCKED: ATOM     15  O   UNL d   1     -14.180   2.505  -9.595 +0.01 -0.23    -0.547 OA
DOCKED: ENDBRANCH   1  13
DOCKED: TORSDOF 6
DOCKED: TER
DOCKED: ENDMDL
________________________________________________________________________________


	BEGINNING GENETIC ALGORITHM DOCKING 88 of 100
Run: 88 Seed: 203317779 1969338702 [ Run 88 of 100 GA/GALS ]
Beginning LAMARCKIAN GENETIC ALGORITHM (LGA), with a maximum of 25000000 energy evaluations.

Final-Value: -5.656


	FINAL GENETIC ALGORITHM DOCKED STATE
	_______________________________________________


Detailed state:  trans -12.125 3.104 -10.309 quatxyzw -0.163342 0.764969 -0.100896 -0.614786 center 0.015 0.083 0.031 ntor 6 113.6667 22.2965 -121.0828 24.7575 11.0526 26.6856
State:	-12.125   3.104 -10.309  -0.207  0.970 -0.128 -104.127    113.67   22.30 -121.08   24.76   11.05   26.69

DOCKED: MODEL       88
DOCKED: USER    Run = 88
DOCKED: USER    DPF = D:/Protein_go_brrr/autodock/final/mut_K82N/2_3_BPG/dock.dpf
DOCKED: USER  
DOCKED: USER    Estimated Free Energy of Binding    =   -5.98 kcal/mol  [=(1)+(2)+(3)-(4)]
DOCKED: USER    Estimated Inhibition Constant, Ki   =   41.31 uM (micromolar)  [Temperature = 298.15 K]
DOCKED: USER    
DOCKED: USER    (1) Final Intermolecular Energy     =   -7.77 kcal/mol
DOCKED: USER        vdW + Hbond + desolv Energy     =   -2.37 kcal/mol
DOCKED: USER        Electrostatic Energy            =   -5.40 kcal/mol
DOCKED: USER    (2) Final Total Internal Energy     =   +2.11 kcal/mol
DOCKED: USER    (3) Torsional Free Energy           =   +1.79 kcal/mol
DOCKED: USER    (4) Unbound System's Energy  [=(2)] =   +2.11 kcal/mol
DOCKED: USER    
DOCKED: USER    
DOCKED: USER    NEWDPF move 2_3_BPG_opt.pdbqt
DOCKED: USER    NEWDPF about 0.015000 0.083000 0.031000
DOCKED: USER    NEWDPF tran0 -12.124624 3.104391 -10.308531
DOCKED: USER    NEWDPF quaternion0 -0.163342 0.764969 -0.100896 -0.614786
DOCKED: USER    NEWDPF axisangle0 -0.207105 0.969919 -0.127928 -104.127314
DOCKED: USER    NEWDPF quat0 -0.207105 0.969919 -0.127928 -104.127314
DOCKED: USER    NEWDPF dihe0 113.67 22.30 -121.08 24.76 11.05 26.69 
DOCKED: USER  keepresnum = 1 
DOCKED: USER  
DOCKED: REMARK  6 active torsions:
DOCKED: REMARK  status: ('A' for Active; 'I' for Inactive)
DOCKED: REMARK    1  A    between atoms: P_1  and  O_3 
DOCKED: REMARK    2  A    between atoms: P_2  and  O_4 
DOCKED: REMARK    3  A    between atoms: O_3  and  C_13 
DOCKED: REMARK    4  A    between atoms: O_4  and  C_14 
DOCKED: REMARK    5  A    between atoms: C_13  and  C_14 
DOCKED: REMARK    6  A    between atoms: C_13  and  C_15 
DOCKED: USER                              x       y       z     vdW  Elec       q    Type
DOCKED: USER                           _______ _______ _______ _____ _____    ______ ____
DOCKED: ROOT
DOCKED: ATOM      1  C   UNL d   1     -11.883   3.039  -9.687 -0.12 +0.13    +0.193 C 
DOCKED: ENDROOT
DOCKED: BRANCH   1   2
DOCKED: ATOM      2  O   UNL d   1     -12.409   4.141  -8.873 -0.07 -0.36    -0.356 OA
DOCKED: BRANCH   2   3
DOCKED: ATOM      3  P   UNL d   1     -11.491   5.408  -8.368 -0.02 -0.02    -0.014 P 
DOCKED: ATOM      4  O   UNL d   1     -12.292   6.024  -7.210 -0.05 -0.89    -0.577 OA
DOCKED: ATOM      5  O   UNL d   1     -11.368   6.375  -9.543 +0.02 -0.27    -0.577 OA
DOCKED: ATOM      6  O   UNL d   1     -10.151   4.858  -7.890 -0.28 -1.06    -0.638 OA
DOCKED: ENDBRANCH   2   3
DOCKED: ENDBRANCH   1   2
DOCKED: BRANCH   1   7
DOCKED: ATOM      7  C   UNL d   1     -12.659   3.006 -11.055 -0.09 +0.08    +0.201 C 
DOCKED: BRANCH   7   8
DOCKED: ATOM      8  O   UNL d   1     -12.359   1.891 -11.923 -0.09 -0.16    -0.364 OA
DOCKED: BRANCH   8   9
DOCKED: ATOM      9  P   UNL d   1     -12.833   1.922 -13.508 -0.21 -0.01    -0.015 P 
DOCKED: ATOM     10  O   UNL d   1     -12.111   3.132 -14.115 -0.08 -0.45    -0.577 OA
DOCKED: ATOM     11  O   UNL d   1     -14.351   2.099 -13.516 -0.02 -0.36    -0.577 OA
DOCKED: ATOM     12  O   UNL d   1     -12.380   0.607 -14.140 -0.56 -1.14    -0.638 OA
DOCKED: ENDBRANCH   8   9
DOCKED: ENDBRANCH   7   8
DOCKED: ENDBRANCH   1   7
DOCKED: BRANCH   1  13
DOCKED: ATOM     13  C   UNL d   1     -12.107   1.667  -8.947 -0.15 +0.05    +0.073 C 
DOCKED: ATOM     14  O   UNL d   1     -11.936   0.582  -9.606 -0.03 -0.21    -0.547 OA
DOCKED: ATOM     15  O   UNL d   1     -12.388   1.720  -7.695 -0.63 -0.71    -0.547 OA
DOCKED: ENDBRANCH   1  13
DOCKED: TORSDOF 6
DOCKED: TER
DOCKED: ENDMDL
________________________________________________________________________________


	BEGINNING GENETIC ALGORITHM DOCKING 89 of 100
Run: 89 Seed: 125688290 1788720463 [ Run 89 of 100 GA/GALS ]
Beginning LAMARCKIAN GENETIC ALGORITHM (LGA), with a maximum of 25000000 energy evaluations.

Final-Value: -5.788


	FINAL GENETIC ALGORITHM DOCKED STATE
	_______________________________________________


Detailed state:  trans -11.910 2.767 -10.222 quatxyzw 0.151955 -0.761773 0.393239 0.491910 center 0.015 0.083 0.031 ntor 6 -178.0643 -58.3104 -77.9868 -23.5616 -1.2641 -47.7663
State:	-11.910   2.767 -10.222   0.175 -0.875  0.452 121.068   -178.06  -58.31  -77.99  -23.56   -1.26  -47.77

DOCKED: MODEL       89
DOCKED: USER    Run = 89
DOCKED: USER    DPF = D:/Protein_go_brrr/autodock/final/mut_K82N/2_3_BPG/dock.dpf
DOCKED: USER  
DOCKED: USER    Estimated Free Energy of Binding    =   -6.03 kcal/mol  [=(1)+(2)+(3)-(4)]
DOCKED: USER    Estimated Inhibition Constant, Ki   =   37.89 uM (micromolar)  [Temperature = 298.15 K]
DOCKED: USER    
DOCKED: USER    (1) Final Intermolecular Energy     =   -7.82 kcal/mol
DOCKED: USER        vdW + Hbond + desolv Energy     =   -2.51 kcal/mol
DOCKED: USER        Electrostatic Energy            =   -5.31 kcal/mol
DOCKED: USER    (2) Final Total Internal Energy     =   +2.03 kcal/mol
DOCKED: USER    (3) Torsional Free Energy           =   +1.79 kcal/mol
DOCKED: USER    (4) Unbound System's Energy  [=(2)] =   +2.03 kcal/mol
DOCKED: USER    
DOCKED: USER    
DOCKED: USER    NEWDPF move 2_3_BPG_opt.pdbqt
DOCKED: USER    NEWDPF about 0.015000 0.083000 0.031000
DOCKED: USER    NEWDPF tran0 -11.910241 2.766862 -10.221894
DOCKED: USER    NEWDPF quaternion0 0.151955 -0.761773 0.393239 0.491910
DOCKED: USER    NEWDPF axisangle0 0.174531 -0.874951 0.451663 121.067627
DOCKED: USER    NEWDPF quat0 0.174531 -0.874951 0.451663 121.067627
DOCKED: USER    NEWDPF dihe0 -178.06 -58.31 -77.99 -23.56 -1.26 -47.77 
DOCKED: USER  keepresnum = 1 
DOCKED: USER  
DOCKED: REMARK  6 active torsions:
DOCKED: REMARK  status: ('A' for Active; 'I' for Inactive)
DOCKED: REMARK    1  A    between atoms: P_1  and  O_3 
DOCKED: REMARK    2  A    between atoms: P_2  and  O_4 
DOCKED: REMARK    3  A    between atoms: O_3  and  C_13 
DOCKED: REMARK    4  A    between atoms: O_4  and  C_14 
DOCKED: REMARK    5  A    between atoms: C_13  and  C_14 
DOCKED: REMARK    6  A    between atoms: C_13  and  C_15 
DOCKED: USER                              x       y       z     vdW  Elec       q    Type
DOCKED: USER                           _______ _______ _______ _____ _____    ______ ____
DOCKED: ROOT
DOCKED: ATOM      1  C   UNL d   1     -11.603   2.886  -9.638 -0.08 +0.13    +0.193 C 
DOCKED: ENDROOT
DOCKED: BRANCH   1   2
DOCKED: ATOM      2  O   UNL d   1     -11.544   4.339  -9.441 -0.06 -0.27    -0.356 OA
DOCKED: BRANCH   2   3
DOCKED: ATOM      3  P   UNL d   1     -10.423   5.077  -8.490 -0.09 -0.02    -0.014 P 
DOCKED: ATOM      4  O   UNL d   1      -9.630   5.971  -9.456 +0.01 -0.25    -0.577 OA
DOCKED: ATOM      5  O   UNL d   1      -9.546   3.980  -7.891 -0.25 -0.79    -0.577 OA
DOCKED: ATOM      6  O   UNL d   1     -11.164   5.902  -7.443 -0.06 -1.06    -0.638 OA
DOCKED: ENDBRANCH   2   3
DOCKED: ENDBRANCH   1   2
DOCKED: BRANCH   1   7
DOCKED: ATOM      7  C   UNL d   1     -12.567   2.579 -10.842 -0.09 +0.08    +0.201 C 
DOCKED: BRANCH   7   8
DOCKED: ATOM      8  O   UNL d   1     -11.942   2.050 -12.032 -0.06 -0.16    -0.364 OA
DOCKED: BRANCH   8   9
DOCKED: ATOM      9  P   UNL d   1     -12.852   1.731 -13.376 -0.22 -0.01    -0.015 P 
DOCKED: ATOM     10  O   UNL d   1     -12.544   2.877 -14.348 -0.11 -0.59    -0.577 OA
DOCKED: ATOM     11  O   UNL d   1     -14.315   1.734 -12.935 -0.00 -0.30    -0.577 OA
DOCKED: ATOM     12  O   UNL d   1     -12.394   0.379 -13.921 -0.62 -0.94    -0.638 OA
DOCKED: ENDBRANCH   8   9
DOCKED: ENDBRANCH   7   8
DOCKED: ENDBRANCH   1   7
DOCKED: BRANCH   1  13
DOCKED: ATOM     13  C   UNL d   1     -12.170   2.189  -8.346 -0.05 +0.08    +0.073 C 
DOCKED: ATOM     14  O   UNL d   1     -11.471   1.271  -7.790 -0.39 -0.54    -0.547 OA
DOCKED: ATOM     15  O   UNL d   1     -13.284   2.632  -7.887 -0.44 -0.67    -0.547 OA
DOCKED: ENDBRANCH   1  13
DOCKED: TORSDOF 6
DOCKED: TER
DOCKED: ENDMDL
________________________________________________________________________________


	BEGINNING GENETIC ALGORITHM DOCKING 90 of 100
Run: 90 Seed: 2070706798 680966046 [ Run 90 of 100 GA/GALS ]
Beginning LAMARCKIAN GENETIC ALGORITHM (LGA), with a maximum of 25000000 energy evaluations.

Final-Value: -6.333


	FINAL GENETIC ALGORITHM DOCKED STATE
	_______________________________________________


Detailed state:  trans 2.986 -14.231 -7.020 quatxyzw -0.561507 -0.171952 -0.618156 0.522519 center 0.015 0.083 0.031 ntor 6 179.8661 45.5813 166.1260 63.0268 -15.6027 -44.9192
State:	  2.986 -14.231  -7.020  -0.659 -0.202 -0.725 116.997    179.87   45.58  166.13   63.03  -15.60  -44.92

DOCKED: MODEL       90
DOCKED: USER    Run = 90
DOCKED: USER    DPF = D:/Protein_go_brrr/autodock/final/mut_K82N/2_3_BPG/dock.dpf
DOCKED: USER  
DOCKED: USER    Estimated Free Energy of Binding    =   -6.57 kcal/mol  [=(1)+(2)+(3)-(4)]
DOCKED: USER    Estimated Inhibition Constant, Ki   =   15.29 uM (micromolar)  [Temperature = 298.15 K]
DOCKED: USER    
DOCKED: USER    (1) Final Intermolecular Energy     =   -8.36 kcal/mol
DOCKED: USER        vdW + Hbond + desolv Energy     =   -3.92 kcal/mol
DOCKED: USER        Electrostatic Energy            =   -4.44 kcal/mol
DOCKED: USER    (2) Final Total Internal Energy     =   +2.03 kcal/mol
DOCKED: USER    (3) Torsional Free Energy           =   +1.79 kcal/mol
DOCKED: USER    (4) Unbound System's Energy  [=(2)] =   +2.03 kcal/mol
DOCKED: USER    
DOCKED: USER    
DOCKED: USER    NEWDPF move 2_3_BPG_opt.pdbqt
DOCKED: USER    NEWDPF about 0.015000 0.083000 0.031000
DOCKED: USER    NEWDPF tran0 2.985667 -14.230696 -7.020211
DOCKED: USER    NEWDPF quaternion0 -0.561507 -0.171952 -0.618156 0.522519
DOCKED: USER    NEWDPF axisangle0 -0.658561 -0.201673 -0.725001 116.997307
DOCKED: USER    NEWDPF quat0 -0.658561 -0.201673 -0.725001 116.997307
DOCKED: USER    NEWDPF dihe0 179.87 45.58 166.13 63.03 -15.60 -44.92 
DOCKED: USER  keepresnum = 1 
DOCKED: USER  
DOCKED: REMARK  6 active torsions:
DOCKED: REMARK  status: ('A' for Active; 'I' for Inactive)
DOCKED: REMARK    1  A    between atoms: P_1  and  O_3 
DOCKED: REMARK    2  A    between atoms: P_2  and  O_4 
DOCKED: REMARK    3  A    between atoms: O_3  and  C_13 
DOCKED: REMARK    4  A    between atoms: O_4  and  C_14 
DOCKED: REMARK    5  A    between atoms: C_13  and  C_14 
DOCKED: REMARK    6  A    between atoms: C_13  and  C_15 
DOCKED: USER                              x       y       z     vdW  Elec       q    Type
DOCKED: USER                           _______ _______ _______ _____ _____    ______ ____
DOCKED: ROOT
DOCKED: ATOM      1  C   UNL d   1       3.105 -14.634  -7.542 -0.13 +0.13    +0.193 C 
DOCKED: ENDROOT
DOCKED: BRANCH   1   2
DOCKED: ATOM      2  O   UNL d   1       1.996 -15.590  -7.644 -0.24 -0.26    -0.356 OA
DOCKED: BRANCH   2   3
DOCKED: ATOM      3  P   UNL d   1       1.733 -16.787  -6.548 -0.14 -0.02    -0.014 P 
DOCKED: ATOM      4  O   UNL d   1       1.353 -18.009  -7.399 +0.02 -0.24    -0.577 OA
DOCKED: ATOM      5  O   UNL d   1       0.574 -16.340  -5.659 -0.62 -0.90    -0.577 OA
DOCKED: ATOM      6  O   UNL d   1       3.031 -17.019  -5.783 -0.07 -1.02    -0.638 OA
DOCKED: ENDBRANCH   2   3
DOCKED: ENDBRANCH   1   2
DOCKED: BRANCH   1   7
DOCKED: ATOM      7  C   UNL d   1       2.708 -13.507  -6.519 -0.21 +0.18    +0.201 C 
DOCKED: BRANCH   7   8
DOCKED: ATOM      8  O   UNL d   1       3.493 -13.451  -5.307 -0.13 -0.58    -0.364 OA
DOCKED: BRANCH   8   9
DOCKED: ATOM      9  P   UNL d   1       3.383 -12.137  -4.308 -0.59 -0.01    -0.015 P 
DOCKED: ATOM     10  O   UNL d   1       2.612 -11.086  -5.115 -0.08 -0.22    -0.577 OA
DOCKED: ATOM     11  O   UNL d   1       4.811 -11.688  -4.002 -0.62 -0.39    -0.577 OA
DOCKED: ATOM     12  O   UNL d   1       2.616 -12.581  -3.063 -0.56 -0.91    -0.638 OA
DOCKED: ENDBRANCH   8   9
DOCKED: ENDBRANCH   7   8
DOCKED: ENDBRANCH   1   7
DOCKED: BRANCH   1  13
DOCKED: ATOM     13  C   UNL d   1       3.375 -13.970  -8.944 -0.16 +0.02    +0.073 C 
DOCKED: ATOM     14  O   UNL d   1       4.563 -14.011  -9.421 +0.03 -0.08    -0.547 OA
DOCKED: ATOM     15  O   UNL d   1       2.363 -13.476  -9.560 -0.42 -0.14    -0.547 OA
DOCKED: ENDBRANCH   1  13
DOCKED: TORSDOF 6
DOCKED: TER
DOCKED: ENDMDL
________________________________________________________________________________


	BEGINNING GENETIC ALGORITHM DOCKING 91 of 100
Run: 91 Seed: 23713558 1052600770 [ Run 91 of 100 GA/GALS ]
Beginning LAMARCKIAN GENETIC ALGORITHM (LGA), with a maximum of 25000000 energy evaluations.

Final-Value: -5.494


	FINAL GENETIC ALGORITHM DOCKED STATE
	_______________________________________________


Detailed state:  trans -12.161 2.260 -10.362 quatxyzw 0.365824 -0.701952 0.136748 0.595597 center 0.015 0.083 0.031 ntor 6 118.1233 44.9710 -121.6580 1.6604 -6.0804 -77.1087
State:	-12.161   2.260 -10.362   0.455 -0.874  0.170 106.890    118.12   44.97 -121.66    1.66   -6.08  -77.11

DOCKED: MODEL       91
DOCKED: USER    Run = 91
DOCKED: USER    DPF = D:/Protein_go_brrr/autodock/final/mut_K82N/2_3_BPG/dock.dpf
DOCKED: USER  
DOCKED: USER    Estimated Free Energy of Binding    =   -5.78 kcal/mol  [=(1)+(2)+(3)-(4)]
DOCKED: USER    Estimated Inhibition Constant, Ki   =   57.56 uM (micromolar)  [Temperature = 298.15 K]
DOCKED: USER    
DOCKED: USER    (1) Final Intermolecular Energy     =   -7.57 kcal/mol
DOCKED: USER        vdW + Hbond + desolv Energy     =   -2.30 kcal/mol
DOCKED: USER        Electrostatic Energy            =   -5.27 kcal/mol
DOCKED: USER    (2) Final Total Internal Energy     =   +2.08 kcal/mol
DOCKED: USER    (3) Torsional Free Energy           =   +1.79 kcal/mol
DOCKED: USER    (4) Unbound System's Energy  [=(2)] =   +2.08 kcal/mol
DOCKED: USER    
DOCKED: USER    
DOCKED: USER    NEWDPF move 2_3_BPG_opt.pdbqt
DOCKED: USER    NEWDPF about 0.015000 0.083000 0.031000
DOCKED: USER    NEWDPF tran0 -12.161115 2.260498 -10.361861
DOCKED: USER    NEWDPF quaternion0 0.365824 -0.701952 0.136748 0.595597
DOCKED: USER    NEWDPF axisangle0 0.455411 -0.873854 0.170237 106.889572
DOCKED: USER    NEWDPF quat0 0.455411 -0.873854 0.170237 106.889572
DOCKED: USER    NEWDPF dihe0 118.12 44.97 -121.66 1.66 -6.08 -77.11 
DOCKED: USER  keepresnum = 1 
DOCKED: USER  
DOCKED: REMARK  6 active torsions:
DOCKED: REMARK  status: ('A' for Active; 'I' for Inactive)
DOCKED: REMARK    1  A    between atoms: P_1  and  O_3 
DOCKED: REMARK    2  A    between atoms: P_2  and  O_4 
DOCKED: REMARK    3  A    between atoms: O_3  and  C_13 
DOCKED: REMARK    4  A    between atoms: O_4  and  C_14 
DOCKED: REMARK    5  A    between atoms: C_13  and  C_14 
DOCKED: REMARK    6  A    between atoms: C_13  and  C_15 
DOCKED: USER                              x       y       z     vdW  Elec       q    Type
DOCKED: USER                           _______ _______ _______ _____ _____    ______ ____
DOCKED: ROOT
DOCKED: ATOM      1  C   UNL d   1     -11.951   2.463  -9.758 -0.10 +0.11    +0.193 C 
DOCKED: ENDROOT
DOCKED: BRANCH   1   2
DOCKED: ATOM      2  O   UNL d   1     -12.809   3.571  -9.323 -0.06 -0.26    -0.356 OA
DOCKED: BRANCH   2   3
DOCKED: ATOM      3  P   UNL d   1     -12.222   4.995  -8.747 -0.09 -0.01    -0.014 P 
DOCKED: ATOM      4  O   UNL d   1     -13.145   5.340  -7.568 -0.08 -0.77    -0.577 OA
DOCKED: ATOM      5  O   UNL d   1     -12.339   6.021  -9.871 +0.02 -0.25    -0.577 OA
DOCKED: ATOM      6  O   UNL d   1     -10.788   4.760  -8.284 -0.07 -0.95    -0.638 OA
DOCKED: ENDBRANCH   2   3
DOCKED: ENDBRANCH   1   2
DOCKED: BRANCH   1   7
DOCKED: ATOM      7  C   UNL d   1     -12.599   1.789 -11.023 -0.10 +0.08    +0.201 C 
DOCKED: BRANCH   7   8
DOCKED: ATOM      8  O   UNL d   1     -12.336   2.437 -12.287 -0.09 -0.17    -0.364 OA
DOCKED: BRANCH   8   9
DOCKED: ATOM      9  P   UNL d   1     -12.904   1.775 -13.693 -0.19 -0.02    -0.015 P 
DOCKED: ATOM     10  O   UNL d   1     -14.429   1.747 -13.533 -0.02 -0.38    -0.577 OA
DOCKED: ATOM     11  O   UNL d   1     -12.315   0.368 -13.794 -0.66 -0.75    -0.577 OA
DOCKED: ATOM     12  O   UNL d   1     -12.463   2.691 -14.834 -0.07 -0.93    -0.638 OA
DOCKED: ENDBRANCH   8   9
DOCKED: ENDBRANCH   7   8
DOCKED: ENDBRANCH   1   7
DOCKED: BRANCH   1  13
DOCKED: ATOM     13  C   UNL d   1     -11.839   1.386  -8.615 -0.17 +0.05    +0.073 C 
DOCKED: ATOM     14  O   UNL d   1     -11.259   0.275  -8.877 -0.01 -0.22    -0.547 OA
DOCKED: ATOM     15  O   UNL d   1     -12.286   1.717  -7.458 -0.60 -0.81    -0.547 OA
DOCKED: ENDBRANCH   1  13
DOCKED: TORSDOF 6
DOCKED: TER
DOCKED: ENDMDL
________________________________________________________________________________


	BEGINNING GENETIC ALGORITHM DOCKING 92 of 100
Run: 92 Seed: 1444615596 2106365178 [ Run 92 of 100 GA/GALS ]
Beginning LAMARCKIAN GENETIC ALGORITHM (LGA), with a maximum of 25000000 energy evaluations.

Final-Value: -5.893


	FINAL GENETIC ALGORITHM DOCKED STATE
	_______________________________________________


Detailed state:  trans -11.679 3.054 -10.420 quatxyzw 0.073313 0.713812 -0.502110 -0.482683 center 0.015 0.083 0.031 ntor 6 -164.8727 56.1227 -123.0732 -15.1396 4.0972 -15.7741
State:	-11.679   3.054 -10.420   0.084  0.815 -0.573 -122.278   -164.87   56.12 -123.07  -15.14    4.10  -15.77

DOCKED: MODEL       92
DOCKED: USER    Run = 92
DOCKED: USER    DPF = D:/Protein_go_brrr/autodock/final/mut_K82N/2_3_BPG/dock.dpf
DOCKED: USER  
DOCKED: USER    Estimated Free Energy of Binding    =   -6.15 kcal/mol  [=(1)+(2)+(3)-(4)]
DOCKED: USER    Estimated Inhibition Constant, Ki   =   31.22 uM (micromolar)  [Temperature = 298.15 K]
DOCKED: USER    
DOCKED: USER    (1) Final Intermolecular Energy     =   -7.94 kcal/mol
DOCKED: USER        vdW + Hbond + desolv Energy     =   -2.64 kcal/mol
DOCKED: USER        Electrostatic Energy            =   -5.29 kcal/mol
DOCKED: USER    (2) Final Total Internal Energy     =   +2.04 kcal/mol
DOCKED: USER    (3) Torsional Free Energy           =   +1.79 kcal/mol
DOCKED: USER    (4) Unbound System's Energy  [=(2)] =   +2.04 kcal/mol
DOCKED: USER    
DOCKED: USER    
DOCKED: USER    NEWDPF move 2_3_BPG_opt.pdbqt
DOCKED: USER    NEWDPF about 0.015000 0.083000 0.031000
DOCKED: USER    NEWDPF tran0 -11.678769 3.053743 -10.419994
DOCKED: USER    NEWDPF quaternion0 0.073313 0.713812 -0.502110 -0.482683
DOCKED: USER    NEWDPF axisangle0 0.083711 0.815045 -0.573319 -122.278447
DOCKED: USER    NEWDPF quat0 0.083711 0.815045 -0.573319 -122.278447
DOCKED: USER    NEWDPF dihe0 -164.87 56.12 -123.07 -15.14 4.10 -15.77 
DOCKED: USER  keepresnum = 1 
DOCKED: USER  
DOCKED: REMARK  6 active torsions:
DOCKED: REMARK  status: ('A' for Active; 'I' for Inactive)
DOCKED: REMARK    1  A    between atoms: P_1  and  O_3 
DOCKED: REMARK    2  A    between atoms: P_2  and  O_4 
DOCKED: REMARK    3  A    between atoms: O_3  and  C_13 
DOCKED: REMARK    4  A    between atoms: O_4  and  C_14 
DOCKED: REMARK    5  A    between atoms: C_13  and  C_14 
DOCKED: REMARK    6  A    between atoms: C_13  and  C_15 
DOCKED: USER                              x       y       z     vdW  Elec       q    Type
DOCKED: USER                           _______ _______ _______ _____ _____    ______ ____
DOCKED: ROOT
DOCKED: ATOM      1  C   UNL d   1     -11.499   3.052  -9.774 -0.09 +0.12    +0.193 C 
DOCKED: ENDROOT
DOCKED: BRANCH   1   2
DOCKED: ATOM      2  O   UNL d   1     -10.875   4.344  -9.470 -0.08 -0.26    -0.356 OA
DOCKED: BRANCH   2   3
DOCKED: ATOM      3  P   UNL d   1      -9.665   4.526  -8.371 -0.22 -0.01    -0.014 P 
DOCKED: ATOM      4  O   UNL d   1     -10.154   5.651  -7.445 -0.44 -0.93    -0.577 OA
DOCKED: ATOM      5  O   UNL d   1      -8.412   4.938  -9.142 -0.04 -0.23    -0.577 OA
DOCKED: ATOM      6  O   UNL d   1      -9.510   3.209  -7.618 -0.02 -0.88    -0.638 OA
DOCKED: ENDBRANCH   2   3
DOCKED: ENDBRANCH   1   2
DOCKED: BRANCH   1   7
DOCKED: ATOM      7  C   UNL d   1     -12.184   3.142 -11.187 -0.10 +0.08    +0.201 C 
DOCKED: BRANCH   7   8
DOCKED: ATOM      8  O   UNL d   1     -12.122   1.947 -11.996 -0.07 -0.16    -0.364 OA
DOCKED: BRANCH   8   9
DOCKED: ATOM      9  P   UNL d   1     -12.650   1.977 -13.563 -0.18 -0.01    -0.015 P 
DOCKED: ATOM     10  O   UNL d   1     -11.789   3.041 -14.254 -0.07 -0.48    -0.577 OA
DOCKED: ATOM     11  O   UNL d   1     -14.126   2.371 -13.529 -0.02 -0.37    -0.577 OA
DOCKED: ATOM     12  O   UNL d   1     -12.416   0.584 -14.145 -0.56 -1.14    -0.638 OA
DOCKED: ENDBRANCH   8   9
DOCKED: ENDBRANCH   7   8
DOCKED: ENDBRANCH   1   7
DOCKED: BRANCH   1  13
DOCKED: ATOM     13  C   UNL d   1     -12.600   2.718  -8.700 -0.08 +0.07    +0.073 C 
DOCKED: ATOM     14  O   UNL d   1     -12.387   1.752  -7.886 -0.63 -0.65    -0.547 OA
DOCKED: ATOM     15  O   UNL d   1     -13.630   3.484  -8.664 -0.05 -0.44    -0.547 OA
DOCKED: ENDBRANCH   1  13
DOCKED: TORSDOF 6
DOCKED: TER
DOCKED: ENDMDL
________________________________________________________________________________


	BEGINNING GENETIC ALGORITHM DOCKING 93 of 100
Run: 93 Seed: 1560035569 148470073 [ Run 93 of 100 GA/GALS ]
Beginning LAMARCKIAN GENETIC ALGORITHM (LGA), with a maximum of 25000000 energy evaluations.

Final-Value: -5.808


	FINAL GENETIC ALGORITHM DOCKED STATE
	_______________________________________________


Detailed state:  trans -11.898 2.724 -10.228 quatxyzw -0.087902 -0.746241 0.382316 0.537803 center 0.015 0.083 0.031 ntor 6 99.9103 19.3222 -103.4860 16.4029 -22.6619 -22.1398
State:	-11.898   2.724 -10.228  -0.104 -0.885  0.453 114.932     99.91   19.32 -103.49   16.40  -22.66  -22.14

DOCKED: MODEL       93
DOCKED: USER    Run = 93
DOCKED: USER    DPF = D:/Protein_go_brrr/autodock/final/mut_K82N/2_3_BPG/dock.dpf
DOCKED: USER  
DOCKED: USER    Estimated Free Energy of Binding    =   -6.08 kcal/mol  [=(1)+(2)+(3)-(4)]
DOCKED: USER    Estimated Inhibition Constant, Ki   =   34.91 uM (micromolar)  [Temperature = 298.15 K]
DOCKED: USER    
DOCKED: USER    (1) Final Intermolecular Energy     =   -7.87 kcal/mol
DOCKED: USER        vdW + Hbond + desolv Energy     =   -2.44 kcal/mol
DOCKED: USER        Electrostatic Energy            =   -5.43 kcal/mol
DOCKED: USER    (2) Final Total Internal Energy     =   +2.06 kcal/mol
DOCKED: USER    (3) Torsional Free Energy           =   +1.79 kcal/mol
DOCKED: USER    (4) Unbound System's Energy  [=(2)] =   +2.06 kcal/mol
DOCKED: USER    
DOCKED: USER    
DOCKED: USER    NEWDPF move 2_3_BPG_opt.pdbqt
DOCKED: USER    NEWDPF about 0.015000 0.083000 0.031000
DOCKED: USER    NEWDPF tran0 -11.897889 2.723799 -10.227844
DOCKED: USER    NEWDPF quaternion0 -0.087902 -0.746241 0.382316 0.537803
DOCKED: USER    NEWDPF axisangle0 -0.104264 -0.885146 0.453481 114.931608
DOCKED: USER    NEWDPF quat0 -0.104264 -0.885146 0.453481 114.931608
DOCKED: USER    NEWDPF dihe0 99.91 19.32 -103.49 16.40 -22.66 -22.14 
DOCKED: USER  keepresnum = 1 
DOCKED: USER  
DOCKED: REMARK  6 active torsions:
DOCKED: REMARK  status: ('A' for Active; 'I' for Inactive)
DOCKED: REMARK    1  A    between atoms: P_1  and  O_3 
DOCKED: REMARK    2  A    between atoms: P_2  and  O_4 
DOCKED: REMARK    3  A    between atoms: O_3  and  C_13 
DOCKED: REMARK    4  A    between atoms: O_4  and  C_14 
DOCKED: REMARK    5  A    between atoms: C_13  and  C_14 
DOCKED: REMARK    6  A    between atoms: C_13  and  C_15 
DOCKED: USER                              x       y       z     vdW  Elec       q    Type
DOCKED: USER                           _______ _______ _______ _____ _____    ______ ____
DOCKED: ROOT
DOCKED: ATOM      1  C   UNL d   1     -11.761   2.610  -9.582 -0.08 +0.13    +0.193 C 
DOCKED: ENDROOT
DOCKED: BRANCH   1   2
DOCKED: ATOM      2  O   UNL d   1     -11.374   3.884  -8.965 -0.10 -0.38    -0.356 OA
DOCKED: BRANCH   2   3
DOCKED: ATOM      3  P   UNL d   1      -9.877   4.171  -8.348 -0.11 -0.02    -0.014 P 
DOCKED: ATOM      4  O   UNL d   1     -10.053   5.432  -7.487 -0.43 -0.98    -0.577 OA
DOCKED: ATOM      5  O   UNL d   1      -8.942   4.423  -9.528 -0.04 -0.25    -0.577 OA
DOCKED: ATOM      6  O   UNL d   1      -9.478   2.967  -7.501 -0.01 -0.85    -0.638 OA
DOCKED: ENDBRANCH   2   3
DOCKED: ENDBRANCH   1   2
DOCKED: BRANCH   1   7
DOCKED: ATOM      7  C   UNL d   1     -12.362   2.900 -11.006 -0.10 +0.08    +0.201 C 
DOCKED: BRANCH   7   8
DOCKED: ATOM      8  O   UNL d   1     -11.941   2.008 -12.062 -0.05 -0.17    -0.364 OA
DOCKED: BRANCH   8   9
DOCKED: ATOM      9  P   UNL d   1     -12.833   1.886 -13.450 -0.21 -0.01    -0.015 P 
DOCKED: ATOM     10  O   UNL d   1     -12.457   3.122 -14.275 -0.08 -0.50    -0.577 OA
DOCKED: ATOM     11  O   UNL d   1     -14.305   1.901 -13.037 -0.01 -0.31    -0.577 OA
DOCKED: ATOM     12  O   UNL d   1     -12.419   0.587 -14.139 -0.56 -1.14    -0.638 OA
DOCKED: ENDBRANCH   8   9
DOCKED: ENDBRANCH   7   8
DOCKED: ENDBRANCH   1   7
DOCKED: BRANCH   1  13
DOCKED: ATOM     13  C   UNL d   1     -12.859   1.898  -8.706 -0.12 +0.05    +0.073 C 
DOCKED: ATOM     14  O   UNL d   1     -13.670   1.090  -9.281 +0.00 -0.21    -0.547 OA
DOCKED: ATOM     15  O   UNL d   1     -12.834   2.125  -7.443 -0.55 -0.88    -0.547 OA
DOCKED: ENDBRANCH   1  13
DOCKED: TORSDOF 6
DOCKED: TER
DOCKED: ENDMDL
________________________________________________________________________________


	BEGINNING GENETIC ALGORITHM DOCKING 94 of 100
Run: 94 Seed: 404321365 2143690316 [ Run 94 of 100 GA/GALS ]
Beginning LAMARCKIAN GENETIC ALGORITHM (LGA), with a maximum of 25000000 energy evaluations.

Final-Value: -5.820


	FINAL GENETIC ALGORITHM DOCKED STATE
	_______________________________________________


Detailed state:  trans -12.713 2.112 -12.186 quatxyzw -0.014622 0.600644 0.023752 0.799030 center 0.015 0.083 0.031 ntor 6 136.5550 25.0681 -60.3295 -2.0725 3.0849 -17.1010
State:	-12.713   2.112 -12.186  -0.024  0.999  0.040 73.925    136.55   25.07  -60.33   -2.07    3.08  -17.10

DOCKED: MODEL       94
DOCKED: USER    Run = 94
DOCKED: USER    DPF = D:/Protein_go_brrr/autodock/final/mut_K82N/2_3_BPG/dock.dpf
DOCKED: USER  
DOCKED: USER    Estimated Free Energy of Binding    =   -6.08 kcal/mol  [=(1)+(2)+(3)-(4)]
DOCKED: USER    Estimated Inhibition Constant, Ki   =   35.06 uM (micromolar)  [Temperature = 298.15 K]
DOCKED: USER    
DOCKED: USER    (1) Final Intermolecular Energy     =   -7.87 kcal/mol
DOCKED: USER        vdW + Hbond + desolv Energy     =   -2.67 kcal/mol
DOCKED: USER        Electrostatic Energy            =   -5.20 kcal/mol
DOCKED: USER    (2) Final Total Internal Energy     =   +2.05 kcal/mol
DOCKED: USER    (3) Torsional Free Energy           =   +1.79 kcal/mol
DOCKED: USER    (4) Unbound System's Energy  [=(2)] =   +2.05 kcal/mol
DOCKED: USER    
DOCKED: USER    
DOCKED: USER    NEWDPF move 2_3_BPG_opt.pdbqt
DOCKED: USER    NEWDPF about 0.015000 0.083000 0.031000
DOCKED: USER    NEWDPF tran0 -12.712812 2.111612 -12.186074
DOCKED: USER    NEWDPF quaternion0 -0.014622 0.600644 0.023752 0.799030
DOCKED: USER    NEWDPF axisangle0 -0.024317 0.998924 0.039501 73.924898
DOCKED: USER    NEWDPF quat0 -0.024317 0.998924 0.039501 73.924898
DOCKED: USER    NEWDPF dihe0 136.55 25.07 -60.33 -2.07 3.08 -17.10 
DOCKED: USER  keepresnum = 1 
DOCKED: USER  
DOCKED: REMARK  6 active torsions:
DOCKED: REMARK  status: ('A' for Active; 'I' for Inactive)
DOCKED: REMARK    1  A    between atoms: P_1  and  O_3 
DOCKED: REMARK    2  A    between atoms: P_2  and  O_4 
DOCKED: REMARK    3  A    between atoms: O_3  and  C_13 
DOCKED: REMARK    4  A    between atoms: O_4  and  C_14 
DOCKED: REMARK    5  A    between atoms: C_13  and  C_14 
DOCKED: REMARK    6  A    between atoms: C_13  and  C_15 
DOCKED: USER                              x       y       z     vdW  Elec       q    Type
DOCKED: USER                           _______ _______ _______ _____ _____    ______ ____
DOCKED: ROOT
DOCKED: ATOM      1  C   UNL d   1     -12.971   1.833 -12.738 -0.14 +0.11    +0.193 C 
DOCKED: ENDROOT
DOCKED: BRANCH   1   2
DOCKED: ATOM      2  O   UNL d   1     -12.628   2.685 -13.883 -0.15 -0.31    -0.356 OA
DOCKED: BRANCH   2   3
DOCKED: ATOM      3  P   UNL d   1     -13.710   3.114 -15.045 -0.08 -0.02    -0.014 P 
DOCKED: ATOM      4  O   UNL d   1     -12.842   3.508 -16.250 -0.51 -0.82    -0.577 OA
DOCKED: ATOM      5  O   UNL d   1     -14.500   4.306 -14.509 +0.00 -0.24    -0.577 OA
DOCKED: ATOM      6  O   UNL d   1     -14.578   1.899 -15.353 -0.04 -0.90    -0.638 OA
DOCKED: ENDBRANCH   2   3
DOCKED: ENDBRANCH   1   2
DOCKED: BRANCH   1   7
DOCKED: ATOM      7  C   UNL d   1     -12.138   2.305 -11.490 -0.06 +0.08    +0.201 C 
DOCKED: BRANCH   7   8
DOCKED: ATOM      8  O   UNL d   1     -12.824   2.260 -10.220 -0.05 -0.16    -0.364 OA
DOCKED: BRANCH   8   9
DOCKED: ATOM      9  P   UNL d   1     -12.102   2.873  -8.864 -0.13 -0.02    -0.015 P 
DOCKED: ATOM     10  O   UNL d   1     -13.067   3.949  -8.351 -0.08 -0.68    -0.577 OA
DOCKED: ATOM     11  O   UNL d   1     -10.764   3.468  -9.302 -0.03 -0.46    -0.577 OA
DOCKED: ATOM     12  O   UNL d   1     -11.949   1.720  -7.874 -0.57 -0.81    -0.638 OA
DOCKED: ENDBRANCH   8   9
DOCKED: ENDBRANCH   7   8
DOCKED: ENDBRANCH   1   7
DOCKED: BRANCH   1  13
DOCKED: ATOM     13  C   UNL d   1     -12.605   0.335 -13.052 -0.21 +0.05    +0.073 C 
DOCKED: ATOM     14  O   UNL d   1     -13.015  -0.576 -12.250 -0.03 -0.21    -0.547 OA
DOCKED: ATOM     15  O   UNL d   1     -11.962   0.107 -14.140 -0.61 -0.84    -0.547 OA
DOCKED: ENDBRANCH   1  13
DOCKED: TORSDOF 6
DOCKED: TER
DOCKED: ENDMDL
________________________________________________________________________________


	BEGINNING GENETIC ALGORITHM DOCKING 95 of 100
Run: 95 Seed: 585267910 139994964 [ Run 95 of 100 GA/GALS ]
Beginning LAMARCKIAN GENETIC ALGORITHM (LGA), with a maximum of 25000000 energy evaluations.

Final-Value: -5.894


	FINAL GENETIC ALGORITHM DOCKED STATE
	_______________________________________________


Detailed state:  trans -11.971 2.602 -10.258 quatxyzw 0.068455 0.752450 -0.383945 -0.530772 center 0.015 0.083 0.031 ntor 6 102.7186 -94.5166 -94.1781 11.7985 -21.1535 -29.1794
State:	-11.971   2.602 -10.258   0.081  0.888 -0.453 -115.885    102.72  -94.52  -94.18   11.80  -21.15  -29.18

DOCKED: MODEL       95
DOCKED: USER    Run = 95
DOCKED: USER    DPF = D:/Protein_go_brrr/autodock/final/mut_K82N/2_3_BPG/dock.dpf
DOCKED: USER  
DOCKED: USER    Estimated Free Energy of Binding    =   -6.15 kcal/mol  [=(1)+(2)+(3)-(4)]
DOCKED: USER    Estimated Inhibition Constant, Ki   =   31.08 uM (micromolar)  [Temperature = 298.15 K]
DOCKED: USER    
DOCKED: USER    (1) Final Intermolecular Energy     =   -7.94 kcal/mol
DOCKED: USER        vdW + Hbond + desolv Energy     =   -2.39 kcal/mol
DOCKED: USER        Electrostatic Energy            =   -5.55 kcal/mol
DOCKED: USER    (2) Final Total Internal Energy     =   +2.05 kcal/mol
DOCKED: USER    (3) Torsional Free Energy           =   +1.79 kcal/mol
DOCKED: USER    (4) Unbound System's Energy  [=(2)] =   +2.05 kcal/mol
DOCKED: USER    
DOCKED: USER    
DOCKED: USER    NEWDPF move 2_3_BPG_opt.pdbqt
DOCKED: USER    NEWDPF about 0.015000 0.083000 0.031000
DOCKED: USER    NEWDPF tran0 -11.970903 2.601547 -10.258443
DOCKED: USER    NEWDPF quaternion0 0.068455 0.752450 -0.383945 -0.530772
DOCKED: USER    NEWDPF axisangle0 0.080772 0.887831 -0.453025 -115.884800
DOCKED: USER    NEWDPF quat0 0.080772 0.887831 -0.453025 -115.884800
DOCKED: USER    NEWDPF dihe0 102.72 -94.52 -94.18 11.80 -21.15 -29.18 
DOCKED: USER  keepresnum = 1 
DOCKED: USER  
DOCKED: REMARK  6 active torsions:
DOCKED: REMARK  status: ('A' for Active; 'I' for Inactive)
DOCKED: REMARK    1  A    between atoms: P_1  and  O_3 
DOCKED: REMARK    2  A    between atoms: P_2  and  O_4 
DOCKED: REMARK    3  A    between atoms: O_3  and  C_13 
DOCKED: REMARK    4  A    between atoms: O_4  and  C_14 
DOCKED: REMARK    5  A    between atoms: C_13  and  C_14 
DOCKED: REMARK    6  A    between atoms: C_13  and  C_15 
DOCKED: USER                              x       y       z     vdW  Elec       q    Type
DOCKED: USER                           _______ _______ _______ _____ _____    ______ ____
DOCKED: ROOT
DOCKED: ATOM      1  C   UNL d   1     -11.810   2.502  -9.615 -0.07 +0.12    +0.193 C 
DOCKED: ENDROOT
DOCKED: BRANCH   1   2
DOCKED: ATOM      2  O   UNL d   1     -11.434   3.796  -9.033 -0.10 -0.36    -0.356 OA
DOCKED: BRANCH   2   3
DOCKED: ATOM      3  P   UNL d   1      -9.959   4.093  -8.370 -0.07 -0.02    -0.014 P 
DOCKED: ATOM      4  O   UNL d   1      -9.053   4.399  -9.573 -0.04 -0.26    -0.577 OA
DOCKED: ATOM      5  O   UNL d   1      -9.523   2.819  -7.649 -0.04 -0.70    -0.577 OA
DOCKED: ATOM      6  O   UNL d   1     -10.091   5.300  -7.447 -0.36 -1.21    -0.638 OA
DOCKED: ENDBRANCH   2   3
DOCKED: ENDBRANCH   1   2
DOCKED: BRANCH   1   7
DOCKED: ATOM      7  C   UNL d   1     -12.464   2.754 -11.024 -0.10 +0.08    +0.201 C 
DOCKED: BRANCH   7   8
DOCKED: ATOM      8  O   UNL d   1     -11.942   1.958 -12.112 -0.04 -0.17    -0.364 OA
DOCKED: BRANCH   8   9
DOCKED: ATOM      9  P   UNL d   1     -12.812   1.792 -13.509 -0.20 -0.01    -0.015 P 
DOCKED: ATOM     10  O   UNL d   1     -12.392   2.980 -14.384 -0.10 -0.57    -0.577 OA
DOCKED: ATOM     11  O   UNL d   1     -14.289   1.859 -13.126 -0.01 -0.32    -0.577 OA
DOCKED: ATOM     12  O   UNL d   1     -12.415   0.453 -14.131 -0.57 -1.12    -0.638 OA
DOCKED: ENDBRANCH   8   9
DOCKED: ENDBRANCH   7   8
DOCKED: ENDBRANCH   1   7
DOCKED: BRANCH   1  13
DOCKED: ATOM     13  C   UNL d   1     -12.863   1.781  -8.693 -0.12 +0.05    +0.073 C 
DOCKED: ATOM     14  O   UNL d   1     -13.636   0.905  -9.217 +0.01 -0.21    -0.547 OA
DOCKED: ATOM     15  O   UNL d   1     -12.839   2.074  -7.443 -0.56 -0.85    -0.547 OA
DOCKED: ENDBRANCH   1  13
DOCKED: TORSDOF 6
DOCKED: TER
DOCKED: ENDMDL
________________________________________________________________________________


	BEGINNING GENETIC ALGORITHM DOCKING 96 of 100
Run: 96 Seed: 632563225 242439643 [ Run 96 of 100 GA/GALS ]
Beginning LAMARCKIAN GENETIC ALGORITHM (LGA), with a maximum of 25000000 energy evaluations.

Final-Value: -5.867


	FINAL GENETIC ALGORITHM DOCKED STATE
	_______________________________________________


Detailed state:  trans -11.827 2.672 -10.234 quatxyzw -0.103729 -0.728876 0.411481 0.537275 center 0.015 0.083 0.031 ntor 6 -86.8850 -95.0752 -108.6323 16.1300 -16.7963 -18.0883
State:	-11.827   2.672 -10.234  -0.123 -0.864  0.488 115.003    -86.88  -95.08 -108.63   16.13  -16.80  -18.09

DOCKED: MODEL       96
DOCKED: USER    Run = 96
DOCKED: USER    DPF = D:/Protein_go_brrr/autodock/final/mut_K82N/2_3_BPG/dock.dpf
DOCKED: USER  
DOCKED: USER    Estimated Free Energy of Binding    =   -6.13 kcal/mol  [=(1)+(2)+(3)-(4)]
DOCKED: USER    Estimated Inhibition Constant, Ki   =   32.35 uM (micromolar)  [Temperature = 298.15 K]
DOCKED: USER    
DOCKED: USER    (1) Final Intermolecular Energy     =   -7.92 kcal/mol
DOCKED: USER        vdW + Hbond + desolv Energy     =   -2.57 kcal/mol
DOCKED: USER        Electrostatic Energy            =   -5.35 kcal/mol
DOCKED: USER    (2) Final Total Internal Energy     =   +2.05 kcal/mol
DOCKED: USER    (3) Torsional Free Energy           =   +1.79 kcal/mol
DOCKED: USER    (4) Unbound System's Energy  [=(2)] =   +2.05 kcal/mol
DOCKED: USER    
DOCKED: USER    
DOCKED: USER    NEWDPF move 2_3_BPG_opt.pdbqt
DOCKED: USER    NEWDPF about 0.015000 0.083000 0.031000
DOCKED: USER    NEWDPF tran0 -11.827031 2.671513 -10.234482
DOCKED: USER    NEWDPF quaternion0 -0.103729 -0.728876 0.411481 0.537275
DOCKED: USER    NEWDPF axisangle0 -0.122988 -0.864204 0.487879 115.003362
DOCKED: USER    NEWDPF quat0 -0.122988 -0.864204 0.487879 115.003362
DOCKED: USER    NEWDPF dihe0 -86.88 -95.08 -108.63 16.13 -16.80 -18.09 
DOCKED: USER  keepresnum = 1 
DOCKED: USER  
DOCKED: REMARK  6 active torsions:
DOCKED: REMARK  status: ('A' for Active; 'I' for Inactive)
DOCKED: REMARK    1  A    between atoms: P_1  and  O_3 
DOCKED: REMARK    2  A    between atoms: P_2  and  O_4 
DOCKED: REMARK    3  A    between atoms: O_3  and  C_13 
DOCKED: REMARK    4  A    between atoms: O_4  and  C_14 
DOCKED: REMARK    5  A    between atoms: C_13  and  C_14 
DOCKED: REMARK    6  A    between atoms: C_13  and  C_15 
DOCKED: USER                              x       y       z     vdW  Elec       q    Type
DOCKED: USER                           _______ _______ _______ _____ _____    ______ ____
DOCKED: ROOT
DOCKED: ATOM      1  C   UNL d   1     -11.712   2.576  -9.581 -0.06 +0.13    +0.193 C 
DOCKED: ENDROOT
DOCKED: BRANCH   1   2
DOCKED: ATOM      2  O   UNL d   1     -11.266   3.850  -9.005 -0.10 -0.37    -0.356 OA
DOCKED: BRANCH   2   3
DOCKED: ATOM      3  P   UNL d   1      -9.772   4.072  -8.354 -0.17 -0.02    -0.014 P 
DOCKED: ATOM      4  O   UNL d   1      -8.859   4.316  -9.566 -0.04 -0.24    -0.577 OA
DOCKED: ATOM      5  O   UNL d   1      -9.401   2.785  -7.621 -0.06 -0.66    -0.577 OA
DOCKED: ATOM      6  O   UNL d   1      -9.832   5.294  -7.444 -0.48 -1.07    -0.638 OA
DOCKED: ENDBRANCH   2   3
DOCKED: ENDBRANCH   1   2
DOCKED: BRANCH   1   7
DOCKED: ATOM      7  C   UNL d   1     -12.261   2.843 -11.031 -0.10 +0.08    +0.201 C 
DOCKED: BRANCH   7   8
DOCKED: ATOM      8  O   UNL d   1     -11.945   1.838 -12.019 -0.05 -0.16    -0.364 OA
DOCKED: BRANCH   8   9
DOCKED: ATOM      9  P   UNL d   1     -12.736   1.825 -13.472 -0.19 -0.01    -0.015 P 
DOCKED: ATOM     10  O   UNL d   1     -12.155   3.010 -14.253 -0.09 -0.51    -0.577 OA
DOCKED: ATOM     11  O   UNL d   1     -14.223   2.014 -13.172 -0.01 -0.33    -0.577 OA
DOCKED: ATOM     12  O   UNL d   1     -12.426   0.488 -14.143 -0.57 -1.14    -0.638 OA
DOCKED: ENDBRANCH   8   9
DOCKED: ENDBRANCH   7   8
DOCKED: ENDBRANCH   1   7
DOCKED: BRANCH   1  13
DOCKED: ATOM     13  C   UNL d   1     -12.871   1.965  -8.708 -0.12 +0.06    +0.073 C 
DOCKED: ATOM     14  O   UNL d   1     -12.853   2.164  -7.442 -0.54 -0.89    -0.547 OA
DOCKED: ATOM     15  O   UNL d   1     -13.808   1.350  -9.332 +0.00 -0.22    -0.547 OA
DOCKED: ENDBRANCH   1  13
DOCKED: TORSDOF 6
DOCKED: TER
DOCKED: ENDMDL
________________________________________________________________________________


	BEGINNING GENETIC ALGORITHM DOCKING 97 of 100
Run: 97 Seed: 1716187128 660704108 [ Run 97 of 100 GA/GALS ]
Beginning LAMARCKIAN GENETIC ALGORITHM (LGA), with a maximum of 25000000 energy evaluations.

Final-Value: -5.810


	FINAL GENETIC ALGORITHM DOCKED STATE
	_______________________________________________


Detailed state:  trans 2.183 -16.850 -7.057 quatxyzw -0.837266 0.272998 0.227800 0.415409 center 0.015 0.083 0.031 ntor 6 137.1293 165.9431 157.3048 35.6185 32.0794 -157.4190
State:	  2.183 -16.850  -7.057  -0.920  0.300  0.250 130.910    137.13  165.94  157.30   35.62   32.08 -157.42

DOCKED: MODEL       97
DOCKED: USER    Run = 97
DOCKED: USER    DPF = D:/Protein_go_brrr/autodock/final/mut_K82N/2_3_BPG/dock.dpf
DOCKED: USER  
DOCKED: USER    Estimated Free Energy of Binding    =   -6.24 kcal/mol  [=(1)+(2)+(3)-(4)]
DOCKED: USER    Estimated Inhibition Constant, Ki   =   26.67 uM (micromolar)  [Temperature = 298.15 K]
DOCKED: USER    
DOCKED: USER    (1) Final Intermolecular Energy     =   -8.03 kcal/mol
DOCKED: USER        vdW + Hbond + desolv Energy     =   -3.76 kcal/mol
DOCKED: USER        Electrostatic Energy            =   -4.27 kcal/mol
DOCKED: USER    (2) Final Total Internal Energy     =   +2.22 kcal/mol
DOCKED: USER    (3) Torsional Free Energy           =   +1.79 kcal/mol
DOCKED: USER    (4) Unbound System's Energy  [=(2)] =   +2.22 kcal/mol
DOCKED: USER    
DOCKED: USER    
DOCKED: USER    NEWDPF move 2_3_BPG_opt.pdbqt
DOCKED: USER    NEWDPF about 0.015000 0.083000 0.031000
DOCKED: USER    NEWDPF tran0 2.183315 -16.850349 -7.056953
DOCKED: USER    NEWDPF quaternion0 -0.837266 0.272998 0.227800 0.415409
DOCKED: USER    NEWDPF axisangle0 -0.920442 0.300118 0.250431 130.909888
DOCKED: USER    NEWDPF quat0 -0.920442 0.300118 0.250431 130.909888
DOCKED: USER    NEWDPF dihe0 137.13 165.94 157.30 35.62 32.08 -157.42 
DOCKED: USER  keepresnum = 1 
DOCKED: USER  
DOCKED: REMARK  6 active torsions:
DOCKED: REMARK  status: ('A' for Active; 'I' for Inactive)
DOCKED: REMARK    1  A    between atoms: P_1  and  O_3 
DOCKED: REMARK    2  A    between atoms: P_2  and  O_4 
DOCKED: REMARK    3  A    between atoms: O_3  and  C_13 
DOCKED: REMARK    4  A    between atoms: O_4  and  C_14 
DOCKED: REMARK    5  A    between atoms: C_13  and  C_14 
DOCKED: REMARK    6  A    between atoms: C_13  and  C_15 
DOCKED: USER                              x       y       z     vdW  Elec       q    Type
DOCKED: USER                           _______ _______ _______ _____ _____    ______ ____
DOCKED: ROOT
DOCKED: ATOM      1  C   UNL d   1       1.772 -16.367  -7.273 -0.12 +0.15    +0.193 C 
DOCKED: ENDROOT
DOCKED: BRANCH   1   2
DOCKED: ATOM      2  O   UNL d   1       1.165 -15.724  -6.102 -0.55 -0.63    -0.356 OA
DOCKED: BRANCH   2   3
DOCKED: ATOM      3  P   UNL d   1      -0.320 -16.125  -5.522 -0.42 -0.01    -0.014 P 
DOCKED: ATOM      4  O   UNL d   1      -0.998 -16.867  -6.684 -0.01 -0.25    -0.577 OA
DOCKED: ATOM      5  O   UNL d   1      -1.043 -14.821  -5.190 -0.60 -0.49    -0.577 OA
DOCKED: ATOM      6  O   UNL d   1      -0.125 -17.035  -4.314 -0.10 -0.70    -0.638 OA
DOCKED: ENDBRANCH   2   3
DOCKED: ENDBRANCH   1   2
DOCKED: BRANCH   1   7
DOCKED: ATOM      7  C   UNL d   1       2.946 -17.295  -6.788 -0.08 +0.16    +0.201 C 
DOCKED: BRANCH   7   8
DOCKED: ATOM      8  O   UNL d   1       3.147 -17.362  -5.359 -0.12 -0.58    -0.364 OA
DOCKED: BRANCH   8   9
DOCKED: ATOM      9  P   UNL d   1       4.676 -17.506  -4.742 -0.20 -0.01    -0.015 P 
DOCKED: ATOM     10  O   UNL d   1       5.522 -18.053  -5.898 +0.01 -0.22    -0.577 OA
DOCKED: ATOM     11  O   UNL d   1       4.595 -18.492  -3.577 -0.33 -0.38    -0.577 OA
DOCKED: ATOM     12  O   UNL d   1       5.123 -16.109  -4.314 -0.55 -0.84    -0.638 OA
DOCKED: ENDBRANCH   8   9
DOCKED: ENDBRANCH   7   8
DOCKED: ENDBRANCH   1   7
DOCKED: BRANCH   1  13
DOCKED: ATOM     13  C   UNL d   1       2.361 -15.275  -8.243 -0.08 +0.04    +0.073 C 
DOCKED: ATOM     14  O   UNL d   1       2.740 -15.637  -9.412 -0.05 -0.15    -0.547 OA
DOCKED: ATOM     15  O   UNL d   1       2.366 -14.063  -7.821 -0.55 -0.35    -0.547 OA
DOCKED: ENDBRANCH   1  13
DOCKED: TORSDOF 6
DOCKED: TER
DOCKED: ENDMDL
________________________________________________________________________________


	BEGINNING GENETIC ALGORITHM DOCKING 98 of 100
Run: 98 Seed: 1362437494 271427548 [ Run 98 of 100 GA/GALS ]
Beginning LAMARCKIAN GENETIC ALGORITHM (LGA), with a maximum of 25000000 energy evaluations.

Final-Value: -5.771


	FINAL GENETIC ALGORITHM DOCKED STATE
	_______________________________________________


Detailed state:  trans -11.911 2.620 -10.250 quatxyzw -0.099088 0.741151 -0.481914 -0.456767 center 0.015 0.083 0.031 ntor 6 177.1490 -49.6335 -99.0838 -30.5625 13.1392 -45.7424
State:	-11.911   2.620 -10.250  -0.111  0.833 -0.542 -125.643    177.15  -49.63  -99.08  -30.56   13.14  -45.74

DOCKED: MODEL       98
DOCKED: USER    Run = 98
DOCKED: USER    DPF = D:/Protein_go_brrr/autodock/final/mut_K82N/2_3_BPG/dock.dpf
DOCKED: USER  
DOCKED: USER    Estimated Free Energy of Binding    =   -6.07 kcal/mol  [=(1)+(2)+(3)-(4)]
DOCKED: USER    Estimated Inhibition Constant, Ki   =   35.37 uM (micromolar)  [Temperature = 298.15 K]
DOCKED: USER    
DOCKED: USER    (1) Final Intermolecular Energy     =   -7.86 kcal/mol
DOCKED: USER        vdW + Hbond + desolv Energy     =   -2.46 kcal/mol
DOCKED: USER        Electrostatic Energy            =   -5.41 kcal/mol
DOCKED: USER    (2) Final Total Internal Energy     =   +2.09 kcal/mol
DOCKED: USER    (3) Torsional Free Energy           =   +1.79 kcal/mol
DOCKED: USER    (4) Unbound System's Energy  [=(2)] =   +2.09 kcal/mol
DOCKED: USER    
DOCKED: USER    
DOCKED: USER    NEWDPF move 2_3_BPG_opt.pdbqt
DOCKED: USER    NEWDPF about 0.015000 0.083000 0.031000
DOCKED: USER    NEWDPF tran0 -11.910590 2.620078 -10.249554
DOCKED: USER    NEWDPF quaternion0 -0.099088 0.741151 -0.481914 -0.456767
DOCKED: USER    NEWDPF axisangle0 -0.111387 0.833141 -0.541728 -125.642591
DOCKED: USER    NEWDPF quat0 -0.111387 0.833141 -0.541728 -125.642591
DOCKED: USER    NEWDPF dihe0 177.15 -49.63 -99.08 -30.56 13.14 -45.74 
DOCKED: USER  keepresnum = 1 
DOCKED: USER  
DOCKED: REMARK  6 active torsions:
DOCKED: REMARK  status: ('A' for Active; 'I' for Inactive)
DOCKED: REMARK    1  A    between atoms: P_1  and  O_3 
DOCKED: REMARK    2  A    between atoms: P_2  and  O_4 
DOCKED: REMARK    3  A    between atoms: O_3  and  C_13 
DOCKED: REMARK    4  A    between atoms: O_4  and  C_14 
DOCKED: REMARK    5  A    between atoms: C_13  and  C_14 
DOCKED: REMARK    6  A    between atoms: C_13  and  C_15 
DOCKED: USER                              x       y       z     vdW  Elec       q    Type
DOCKED: USER                           _______ _______ _______ _____ _____    ______ ____
DOCKED: ROOT
DOCKED: ATOM      1  C   UNL d   1     -11.600   2.745  -9.669 -0.06 +0.12    +0.193 C 
DOCKED: ENDROOT
DOCKED: BRANCH   1   2
DOCKED: ATOM      2  O   UNL d   1     -11.272   4.174  -9.624 -0.07 -0.24    -0.356 OA
DOCKED: BRANCH   2   3
DOCKED: ATOM      3  P   UNL d   1     -10.170   4.816  -8.586 -0.15 -0.01    -0.014 P 
DOCKED: ATOM      4  O   UNL d   1      -9.199   5.593  -9.489 -0.01 -0.24    -0.577 OA
DOCKED: ATOM      5  O   UNL d   1      -9.475   3.649  -7.887 -0.18 -0.73    -0.577 OA
DOCKED: ATOM      6  O   UNL d   1     -10.909   5.744  -7.628 -0.14 -1.03    -0.638 OA
DOCKED: ENDBRANCH   2   3
DOCKED: ENDBRANCH   1   2
DOCKED: BRANCH   1   7
DOCKED: ATOM      7  C   UNL d   1     -12.576   2.489 -10.876 -0.09 +0.08    +0.201 C 
DOCKED: BRANCH   7   8
DOCKED: ATOM      8  O   UNL d   1     -12.048   1.684 -11.953 -0.06 -0.16    -0.364 OA
DOCKED: BRANCH   8   9
DOCKED: ATOM      9  P   UNL d   1     -12.800   1.674 -13.427 -0.20 -0.01    -0.015 P 
DOCKED: ATOM     10  O   UNL d   1     -12.268   2.914 -14.154 -0.09 -0.52    -0.577 OA
DOCKED: ATOM     11  O   UNL d   1     -14.302   1.768 -13.161 -0.01 -0.33    -0.577 OA
DOCKED: ATOM     12  O   UNL d   1     -12.397   0.379 -14.130 -0.59 -1.12    -0.638 OA
DOCKED: ENDBRANCH   8   9
DOCKED: ENDBRANCH   7   8
DOCKED: ENDBRANCH   1   7
DOCKED: BRANCH   1  13
DOCKED: ATOM     13  C   UNL d   1     -12.322   2.316  -8.337 -0.01 +0.09    +0.073 C 
DOCKED: ATOM     14  O   UNL d   1     -11.879   1.294  -7.704 -0.48 -0.57    -0.547 OA
DOCKED: ATOM     15  O   UNL d   1     -13.282   3.063  -7.928 -0.31 -0.72    -0.547 OA
DOCKED: ENDBRANCH   1  13
DOCKED: TORSDOF 6
DOCKED: TER
DOCKED: ENDMDL
________________________________________________________________________________


	BEGINNING GENETIC ALGORITHM DOCKING 99 of 100
Run: 99 Seed: 921665793 175686189 [ Run 99 of 100 GA/GALS ]
Beginning LAMARCKIAN GENETIC ALGORITHM (LGA), with a maximum of 25000000 energy evaluations.

Final-Value: -5.823


	FINAL GENETIC ALGORITHM DOCKED STATE
	_______________________________________________


Detailed state:  trans -12.213 2.932 -10.169 quatxyzw -0.288498 0.748504 -0.259396 -0.537795 center 0.015 0.083 0.031 ntor 6 -178.6698 66.2922 -77.5136 -22.9439 13.1180 -30.7840
State:	-12.213   2.932 -10.169  -0.342  0.888 -0.308 -114.933   -178.67   66.29  -77.51  -22.94   13.12  -30.78

DOCKED: MODEL       99
DOCKED: USER    Run = 99
DOCKED: USER    DPF = D:/Protein_go_brrr/autodock/final/mut_K82N/2_3_BPG/dock.dpf
DOCKED: USER  
DOCKED: USER    Estimated Free Energy of Binding    =   -6.09 kcal/mol  [=(1)+(2)+(3)-(4)]
DOCKED: USER    Estimated Inhibition Constant, Ki   =   34.23 uM (micromolar)  [Temperature = 298.15 K]
DOCKED: USER    
DOCKED: USER    (1) Final Intermolecular Energy     =   -7.88 kcal/mol
DOCKED: USER        vdW + Hbond + desolv Energy     =   -2.39 kcal/mol
DOCKED: USER        Electrostatic Energy            =   -5.49 kcal/mol
DOCKED: USER    (2) Final Total Internal Energy     =   +2.06 kcal/mol
DOCKED: USER    (3) Torsional Free Energy           =   +1.79 kcal/mol
DOCKED: USER    (4) Unbound System's Energy  [=(2)] =   +2.06 kcal/mol
DOCKED: USER    
DOCKED: USER    
DOCKED: USER    NEWDPF move 2_3_BPG_opt.pdbqt
DOCKED: USER    NEWDPF about 0.015000 0.083000 0.031000
DOCKED: USER    NEWDPF tran0 -12.212880 2.931741 -10.169027
DOCKED: USER    NEWDPF quaternion0 -0.288498 0.748504 -0.259396 -0.537795
DOCKED: USER    NEWDPF axisangle0 -0.342197 0.887826 -0.307679 -114.932693
DOCKED: USER    NEWDPF quat0 -0.342197 0.887826 -0.307679 -114.932693
DOCKED: USER    NEWDPF dihe0 -178.67 66.29 -77.51 -22.94 13.12 -30.78 
DOCKED: USER  keepresnum = 1 
DOCKED: USER  
DOCKED: REMARK  6 active torsions:
DOCKED: REMARK  status: ('A' for Active; 'I' for Inactive)
DOCKED: REMARK    1  A    between atoms: P_1  and  O_3 
DOCKED: REMARK    2  A    between atoms: P_2  and  O_4 
DOCKED: REMARK    3  A    between atoms: O_3  and  C_13 
DOCKED: REMARK    4  A    between atoms: O_4  and  C_14 
DOCKED: REMARK    5  A    between atoms: C_13  and  C_14 
DOCKED: REMARK    6  A    between atoms: C_13  and  C_15 
DOCKED: USER                              x       y       z     vdW  Elec       q    Type
DOCKED: USER                           _______ _______ _______ _____ _____    ______ ____
DOCKED: ROOT
DOCKED: ATOM      1  C   UNL d   1     -11.927   3.123  -9.594 -0.12 +0.13    +0.193 C 
DOCKED: ENDROOT
DOCKED: BRANCH   1   2
DOCKED: ATOM      2  O   UNL d   1     -12.395   4.477  -9.278 -0.04 -0.27    -0.356 OA
DOCKED: BRANCH   2   3
DOCKED: ATOM      3  P   UNL d   1     -11.550   5.529  -8.338 -0.04 -0.02    -0.014 P 
DOCKED: ATOM      4  O   UNL d   1     -12.467   5.786  -7.132 -0.01 -1.02    -0.577 OA
DOCKED: ATOM      5  O   UNL d   1     -11.333   6.797  -9.160 +0.02 -0.28    -0.577 OA
DOCKED: ATOM      6  O   UNL d   1     -10.252   4.846  -7.918 -0.22 -1.08    -0.638 OA
DOCKED: ENDBRANCH   2   3
DOCKED: ENDBRANCH   1   2
DOCKED: BRANCH   1   7
DOCKED: ATOM      7  C   UNL d   1     -12.800   2.548 -10.769 -0.08 +0.08    +0.201 C 
DOCKED: BRANCH   7   8
DOCKED: ATOM      8  O   UNL d   1     -12.068   2.009 -11.893 -0.07 -0.16    -0.364 OA
DOCKED: BRANCH   8   9
DOCKED: ATOM      9  P   UNL d   1     -12.835   1.749 -13.335 -0.22 -0.01    -0.015 P 
DOCKED: ATOM     10  O   UNL d   1     -12.364   2.887 -14.248 -0.10 -0.56    -0.577 OA
DOCKED: ATOM     11  O   UNL d   1     -14.337   1.822 -13.060 -0.01 -0.31    -0.577 OA
DOCKED: ATOM     12  O   UNL d   1     -12.386   0.380 -13.844 -0.63 -0.88    -0.638 OA
DOCKED: ENDBRANCH   8   9
DOCKED: ENDBRANCH   7   8
DOCKED: ENDBRANCH   1   7
DOCKED: BRANCH   1  13
DOCKED: ATOM     13  C   UNL d   1     -12.094   2.188  -8.338 -0.04 +0.09    +0.073 C 
DOCKED: ATOM     14  O   UNL d   1     -11.067   1.559  -7.904 -0.34 -0.59    -0.547 OA
DOCKED: ATOM     15  O   UNL d   1     -13.250   2.163  -7.780 -0.48 -0.61    -0.547 OA
DOCKED: ENDBRANCH   1  13
DOCKED: TORSDOF 6
DOCKED: TER
DOCKED: ENDMDL
________________________________________________________________________________


	BEGINNING GENETIC ALGORITHM DOCKING 100 of 100
Run: 100 Seed: 248046214 1802319995 [ Run 100 of 100 GA/GALS ]
Beginning LAMARCKIAN GENETIC ALGORITHM (LGA), with a maximum of 25000000 energy evaluations.

Final-Value: -5.939


	FINAL GENETIC ALGORITHM DOCKED STATE
	_______________________________________________


Detailed state:  trans -11.707 2.881 -10.401 quatxyzw 0.159954 0.655212 -0.549940 -0.492623 center 0.015 0.083 0.031 ntor 6 -143.5361 -74.4830 -134.9222 -1.7007 -13.8332 -15.4626
State:	-11.707   2.881 -10.401   0.184  0.753 -0.632 -120.974   -143.54  -74.48 -134.92   -1.70  -13.83  -15.46

DOCKED: MODEL      100
DOCKED: USER    Run = 100
DOCKED: USER    DPF = D:/Protein_go_brrr/autodock/final/mut_K82N/2_3_BPG/dock.dpf
DOCKED: USER  
DOCKED: USER    Estimated Free Energy of Binding    =   -6.17 kcal/mol  [=(1)+(2)+(3)-(4)]
DOCKED: USER    Estimated Inhibition Constant, Ki   =   29.84 uM (micromolar)  [Temperature = 298.15 K]
DOCKED: USER    
DOCKED: USER    (1) Final Intermolecular Energy     =   -7.96 kcal/mol
DOCKED: USER        vdW + Hbond + desolv Energy     =   -2.73 kcal/mol
DOCKED: USER        Electrostatic Energy            =   -5.23 kcal/mol
DOCKED: USER    (2) Final Total Internal Energy     =   +2.02 kcal/mol
DOCKED: USER    (3) Torsional Free Energy           =   +1.79 kcal/mol
DOCKED: USER    (4) Unbound System's Energy  [=(2)] =   +2.02 kcal/mol
DOCKED: USER    
DOCKED: USER    
DOCKED: USER    NEWDPF move 2_3_BPG_opt.pdbqt
DOCKED: USER    NEWDPF about 0.015000 0.083000 0.031000
DOCKED: USER    NEWDPF tran0 -11.707406 2.881349 -10.401498
DOCKED: USER    NEWDPF quaternion0 0.159954 0.655212 -0.549940 -0.492623
DOCKED: USER    NEWDPF axisangle0 0.183804 0.752907 -0.631939 -120.973722
DOCKED: USER    NEWDPF quat0 0.183804 0.752907 -0.631939 -120.973722
DOCKED: USER    NEWDPF dihe0 -143.54 -74.48 -134.92 -1.70 -13.83 -15.46 
DOCKED: USER  keepresnum = 1 
DOCKED: USER  
DOCKED: REMARK  6 active torsions:
DOCKED: REMARK  status: ('A' for Active; 'I' for Inactive)
DOCKED: REMARK    1  A    between atoms: P_1  and  O_3 
DOCKED: REMARK    2  A    between atoms: P_2  and  O_4 
DOCKED: REMARK    3  A    between atoms: O_3  and  C_13 
DOCKED: REMARK    4  A    between atoms: O_4  and  C_14 
DOCKED: REMARK    5  A    between atoms: C_13  and  C_14 
DOCKED: REMARK    6  A    between atoms: C_13  and  C_15 
DOCKED: USER                              x       y       z     vdW  Elec       q    Type
DOCKED: USER                           _______ _______ _______ _____ _____    ______ ____
DOCKED: ROOT
DOCKED: ATOM      1  C   UNL d   1     -11.627   2.887  -9.736 -0.07 +0.12    +0.193 C 
DOCKED: ENDROOT
DOCKED: BRANCH   1   2
DOCKED: ATOM      2  O   UNL d   1     -10.842   4.075  -9.381 -0.09 -0.28    -0.356 OA
DOCKED: BRANCH   2   3
DOCKED: ATOM      3  P   UNL d   1      -9.572   4.039  -8.337 -0.23 -0.01    -0.014 P 
DOCKED: ATOM      4  O   UNL d   1      -8.331   4.056  -9.242 -0.05 -0.22    -0.577 OA
DOCKED: ATOM      5  O   UNL d   1      -9.673   2.737  -7.546 -0.01 -0.77    -0.577 OA
DOCKED: ATOM      6  O   UNL d   1      -9.645   5.288  -7.464 -0.55 -0.96    -0.638 OA
DOCKED: ENDBRANCH   2   3
DOCKED: ENDBRANCH   1   2
DOCKED: BRANCH   1   7
DOCKED: ATOM      7  C   UNL d   1     -12.073   3.008 -11.240 -0.10 +0.08    +0.201 C 
DOCKED: BRANCH   7   8
DOCKED: ATOM      8  O   UNL d   1     -12.105   1.773 -11.989 -0.07 -0.16    -0.364 OA
DOCKED: BRANCH   8   9
DOCKED: ATOM      9  P   UNL d   1     -12.806   1.729 -13.486 -0.20 -0.01    -0.015 P 
DOCKED: ATOM     10  O   UNL d   1     -12.241   2.946 -14.228 -0.09 -0.53    -0.577 OA
DOCKED: ATOM     11  O   UNL d   1     -14.316   1.839 -13.275 -0.01 -0.34    -0.577 OA
DOCKED: ATOM     12  O   UNL d   1     -12.389   0.413 -14.142 -0.58 -1.13    -0.638 OA
DOCKED: ENDBRANCH   8   9
DOCKED: ENDBRANCH   7   8
DOCKED: ENDBRANCH   1   7
DOCKED: BRANCH   1  13
DOCKED: ATOM     13  C   UNL d   1     -12.914   2.800  -8.834 -0.10 +0.06    +0.073 C 
DOCKED: ATOM     14  O   UNL d   1     -12.840   2.165  -7.724 -0.57 -0.77    -0.547 OA
DOCKED: ATOM     15  O   UNL d   1     -13.954   3.433  -9.240 -0.00 -0.30    -0.547 OA
DOCKED: ENDBRANCH   1  13
DOCKED: TORSDOF 6
DOCKED: TER
DOCKED: ENDMDL
________________________________________________________________________________

DPF> analysis                             # perform a ranked cluster analysis


		CLUSTER ANALYSIS OF CONFORMATIONS
		_________________________________

Number of conformations = 100

RMSD cluster analysis will be performed using the ligand atoms only (15 / 15 total atoms).

Outputting structurally similar clusters, ranked in order of increasing energy.


________________________________________________________________________________

Number of distinct conformational clusters found = 7,  out of 100 runs,
Using an rmsd-tolerance of 2.0 A


	CLUSTERING HISTOGRAM
	____________________

________________________________________________________________________________
     |           |     |           |     |                                    
Clus | Lowest    | Run | Mean      | Num | Histogram                          
-ter | Binding   |     | Binding   | in  |                                    
Rank | Energy    |     | Energy    | Clus|    5    10   15   20   25   30   35
_____|___________|_____|___________|_____|____:____|____:____|____:____|____:___
   1 |     -7.38 |  46 |     -6.74 |   8 |########
   2 |     -7.00 |  16 |     -6.54 |   6 |######
   3 |     -6.96 |  82 |     -6.67 |  11 |###########
   4 |     -6.38 |  54 |     -6.21 |   3 |###
   5 |     -6.30 |  79 |     -6.10 |  69 |#####################################################################
   6 |     -5.94 |  11 |     -5.90 |   2 |##
   7 |     -5.58 |  22 |     -5.58 |   1 |#
_____|___________|_____|___________|_____|______________________________________


Number of multi-member conformational clusters found = 6, out of 100 runs.

	RMSD TABLE
	__________

_____________________________________________________________________
     |      |      |           |         |                 |
Rank | Sub- | Run  | Binding   | Cluster | Reference       | Grep
     | Rank |      | Energy    | RMSD    | RMSD            | Pattern
_____|______|______|___________|_________|_________________|___________
   1      1     46       -7.38      0.00     13.32           RANKING
   1      2     44       -6.90      1.83     13.90           RANKING
   1      3     28       -6.78      1.83     13.91           RANKING
   1      4     29       -6.69      1.94     14.40           RANKING
   1      5      2       -6.63      1.79     14.52           RANKING
   1      6     74       -6.63      1.85     14.38           RANKING
   1      7     90       -6.57      1.83     14.51           RANKING
   1      8     63       -6.34      1.70     14.68           RANKING
   2      1     16       -7.00      0.00     14.34           RANKING
   2      2     25       -6.91      1.61     15.04           RANKING
   2      3     12       -6.55      1.89     14.60           RANKING
   2      4     73       -6.48      1.10     14.56           RANKING
   2      5      3       -6.30      1.94     15.10           RANKING
   2      6     37       -6.00      1.74     14.33           RANKING
   3      1     82       -6.96      0.00     15.83           RANKING
   3      2     48       -6.95      1.22     16.07           RANKING
   3      3      7       -6.94      1.43     15.66           RANKING
   3      4     64       -6.92      1.43     15.75           RANKING
   3      5     30       -6.73      1.62     15.29           RANKING
   3      6     56       -6.72      1.23     15.93           RANKING
   3      7     41       -6.59      0.85     16.09           RANKING
   3      8     21       -6.49      1.17     16.20           RANKING
   3      9     66       -6.41      1.17     16.25           RANKING
   3     10     68       -6.37      0.81     16.12           RANKING
   3     11     13       -6.26      1.44     16.32           RANKING
   4      1     54       -6.38      0.00     15.81           RANKING
   4      2     97       -6.24      1.24     16.21           RANKING
   4      3     52       -6.01      1.98     15.95           RANKING
   5      1     79       -6.30      0.00     13.75           RANKING
   5      2     77       -6.28      0.45     13.67           RANKING
   5      3     38       -6.28      0.21     13.80           RANKING
   5      4     72       -6.27      0.30     13.82           RANKING
   5      5      6       -6.26      0.35     13.92           RANKING
   5      6     31       -6.26      0.83     14.06           RANKING
   5      7     15       -6.25      0.34     13.69           RANKING
   5      8     24       -6.21      1.86     15.55           RANKING
   5      9     80       -6.21      0.76     13.95           RANKING
   5     10     86       -6.21      1.27     13.94           RANKING
   5     11     65       -6.21      0.33     13.77           RANKING
   5     12     34       -6.20      0.28     13.74           RANKING
   5     13     76       -6.20      0.67     13.71           RANKING
   5     14     87       -6.19      0.59     14.00           RANKING
   5     15     10       -6.19      1.28     13.96           RANKING
   5     16     18       -6.18      0.77     14.00           RANKING
   5     17     85       -6.18      1.29     13.98           RANKING
   5     18      9       -6.17      1.54     14.45           RANKING
   5     19    100       -6.17      0.31     13.74           RANKING
   5     20     61       -6.16      1.30     13.96           RANKING
   5     21     20       -6.16      1.89     15.54           RANKING
   5     22     23       -6.16      0.52     13.75           RANKING
   5     23     49       -6.16      1.83     15.56           RANKING
   5     24     95       -6.15      0.75     13.76           RANKING
   5     25     14       -6.15      0.42     13.73           RANKING
   5     26     92       -6.15      0.40     13.70           RANKING
   5     27      1       -6.14      0.72     13.64           RANKING
   5     28     71       -6.14      1.87     15.64           RANKING
   5     29      4       -6.14      0.61     13.71           RANKING
   5     30     47       -6.13      0.59     13.62           RANKING
   5     31     32       -6.13      1.92     15.71           RANKING
   5     32     36       -6.13      0.28     13.73           RANKING
   5     33     96       -6.13      0.70     13.70           RANKING
   5     34     70       -6.11      1.32     13.88           RANKING
   5     35     59       -6.10      1.84     15.48           RANKING
   5     36     42       -6.10      0.62     13.68           RANKING
   5     37     45       -6.09      1.93     15.64           RANKING
   5     38     99       -6.09      1.32     13.92           RANKING
   5     39     55       -6.09      1.88     15.69           RANKING
   5     40     93       -6.08      0.73     13.73           RANKING
   5     41     57       -6.08      1.95     15.42           RANKING
   5     42     94       -6.08      1.91     15.63           RANKING
   5     43     40       -6.08      0.49     13.79           RANKING
   5     44     75       -6.08      0.76     13.76           RANKING
   5     45     98       -6.07      0.80     13.71           RANKING
   5     46     43       -6.07      1.85     15.53           RANKING
   5     47     33       -6.07      1.83     15.37           RANKING
   5     48     81       -6.05      0.56     13.70           RANKING
   5     49     83       -6.04      0.80     13.58           RANKING
   5     50     78       -6.04      1.82     15.48           RANKING
   5     51     84       -6.04      1.13     13.83           RANKING
   5     52     69       -6.04      1.41     13.88           RANKING
   5     53     89       -6.03      1.00     13.72           RANKING
   5     54     53       -6.03      0.72     13.70           RANKING
   5     55     60       -6.01      1.03     13.71           RANKING
   5     56     50       -6.01      1.84     15.59           RANKING
   5     57     26       -6.01      1.49     14.07           RANKING
   5     58      5       -6.01      1.08     13.87           RANKING
   5     59     58       -5.99      1.09     13.86           RANKING
   5     60     17       -5.98      1.32     14.04           RANKING
   5     61     62       -5.98      1.40     13.96           RANKING
   5     62     88       -5.98      1.37     14.04           RANKING
   5     63     51       -5.97      1.91     15.45           RANKING
   5     64      8       -5.97      1.29     13.97           RANKING
   5     65     27       -5.94      1.14     13.61           RANKING
   5     66     35       -5.90      0.97     13.56           RANKING
   5     67     39       -5.89      1.08     13.68           RANKING
   5     68     91       -5.78      1.52     14.17           RANKING
   5     69     67       -5.75      1.89     15.30           RANKING
   6      1     11       -5.94      0.00     11.50           RANKING
   6      2     19       -5.86      1.10     11.81           RANKING
   7      1     22       -5.58      0.00     13.37           RANKING
_______________________________________________________________________



	INFORMATION ENTROPY ANALYSIS FOR THIS CLUSTERING
	________________________________________________


Information entropy for this clustering = 0.24  (rmstol = 2.00 Angstrom)

_______________________________________________________________________


	STATISTICAL MECHANICAL ANALYSIS
	_______________________________


Partition function, Q =   101.06            at Temperature, T = 298.15 K
Free energy,        A ~ -2734.71 kcal/mol   at Temperature, T = 298.15 K
Internal energy,    U =    -6.23 kcal/mol   at Temperature, T = 298.15 K
Entropy,            S =     9.15 kcal/mol/K at Temperature, T = 298.15 K

_______________________________________________________________________


	LOWEST ENERGY DOCKED CONFORMATION from EACH CLUSTER
	___________________________________________________



Keeping original residue number (specified in the input PDBQ file) for outputting.

MODEL       46
USER    Run = 46
USER    Cluster Rank = 1
USER    Number of conformations in this cluster = 8
USER  
USER    RMSD from reference structure       = 13.324 A
USER  
USER    Estimated Free Energy of Binding    =   -7.38 kcal/mol  [=(1)+(2)+(3)-(4)]
USER    Estimated Inhibition Constant, Ki   =    3.89 uM (micromolar)  [Temperature = 298.15 K]
USER    
USER    (1) Final Intermolecular Energy     =   -9.17 kcal/mol
USER        vdW + Hbond + desolv Energy     =   -5.01 kcal/mol
USER        Electrostatic Energy            =   -4.16 kcal/mol
USER    (2) Final Total Internal Energy     =   +2.13 kcal/mol
USER    (3) Torsional Free Energy           =   +1.79 kcal/mol
USER    (4) Unbound System's Energy  [=(2)] =   +2.13 kcal/mol
USER    
USER    
USER  
USER    DPF = D:/Protein_go_brrr/autodock/final/mut_K82N/2_3_BPG/dock.dpf
USER    NEWDPF move	2_3_BPG_opt.pdbqt
USER    NEWDPF about	0.015000 0.083000 0.031000
USER    NEWDPF tran0	1.871583 -13.442005 -6.150656
USER    NEWDPF axisangle0	0.242483 -0.639435 -0.729606 -166.271685
USER    NEWDPF quaternion0	0.240745 -0.634852 -0.724376 -0.119516
USER    NEWDPF dihe0	69.89 156.99 -43.05 28.41 8.48 -71.72 
USER  
USER                              x       y       z    vdW   Elec        q     RMS 
ATOM      1  C   UNL d   1       2.368 -13.030  -6.333 -0.27 +0.15    +0.193    13.324
ATOM      2  O   UNL d   1       3.482 -13.213  -5.396 -0.25 -0.48    -0.356    13.324
ATOM      3  P   UNL d   1       3.840 -12.145  -4.198 -0.58 -0.01    -0.014    13.324
ATOM      4  O   UNL d   1       3.317 -10.797  -4.718 +0.16 -0.25    -0.577    13.324
ATOM      5  O   UNL d   1       5.359 -12.136  -4.039 -0.63 -0.37    -0.577    13.324
ATOM      6  O   UNL d   1       3.099 -12.584  -2.939 -0.49 -0.82    -0.638    13.324
ATOM      7  C   UNL d   1       1.321 -14.181  -6.104 +0.40 +0.26    +0.201    13.324
ATOM      8  O   UNL d   1       0.314 -13.928  -5.099 -0.27 -0.45    -0.364    13.324
ATOM      9  P   UNL d   1      -0.657 -15.157  -4.568 -0.60 -0.02    -0.015    13.324
ATOM     10  O   UNL d   1      -0.769 -14.952  -3.053 -0.52 -0.55    -0.577    13.324
ATOM     11  O   UNL d   1       0.051 -16.467  -4.916 -0.43 -0.81    -0.577    13.324
ATOM     12  O   UNL d   1      -2.005 -15.002  -5.270 -0.60 -0.44    -0.638    13.324
ATOM     13  C   UNL d   1       2.890 -13.111  -7.816 -0.27 +0.03    +0.073    13.324
ATOM     14  O   UNL d   1       2.364 -13.973  -8.603 -0.61 -0.27    -0.547    13.324
ATOM     15  O   UNL d   1       3.779 -12.254  -8.168 -0.05 -0.13    -0.547    13.324
TER
ENDMDL
MODEL       16
USER    Run = 16
USER    Cluster Rank = 2
USER    Number of conformations in this cluster = 6
USER  
USER    RMSD from reference structure       = 14.336 A
USER  
USER    Estimated Free Energy of Binding    =   -7.00 kcal/mol  [=(1)+(2)+(3)-(4)]
USER    Estimated Inhibition Constant, Ki   =    7.37 uM (micromolar)  [Temperature = 298.15 K]
USER    
USER    (1) Final Intermolecular Energy     =   -8.79 kcal/mol
USER        vdW + Hbond + desolv Energy     =   -3.87 kcal/mol
USER        Electrostatic Energy            =   -4.92 kcal/mol
USER    (2) Final Total Internal Energy     =   +2.40 kcal/mol
USER    (3) Torsional Free Energy           =   +1.79 kcal/mol
USER    (4) Unbound System's Energy  [=(2)] =   +2.40 kcal/mol
USER    
USER    
USER  
USER    DPF = D:/Protein_go_brrr/autodock/final/mut_K82N/2_3_BPG/dock.dpf
USER    NEWDPF move	2_3_BPG_opt.pdbqt
USER    NEWDPF about	0.015000 0.083000 0.031000
USER    NEWDPF tran0	3.068870 -13.840425 -6.680896
USER    NEWDPF axisangle0	-0.558424 0.231473 0.796607 115.618263
USER    NEWDPF quaternion0	-0.472582 0.195890 0.674151 0.532741
USER    NEWDPF dihe0	80.66 15.03 -173.10 60.74 53.80 -13.33 
USER  
USER                              x       y       z    vdW   Elec        q     RMS 
ATOM      1  C   UNL d   1       2.815 -13.222  -6.625 -0.24 +0.15    +0.193    14.336
ATOM      2  O   UNL d   1       3.770 -12.404  -5.869 -0.21 -0.25    -0.356    14.336
ATOM      3  P   UNL d   1       4.034 -12.583  -4.256 -0.44 -0.01    -0.014    14.336
ATOM      4  O   UNL d   1       4.873 -11.356  -3.866 -0.55 -0.37    -0.577    14.336
ATOM      5  O   UNL d   1       4.815 -13.881  -4.067 +0.01 -0.69    -0.577    14.336
ATOM      6  O   UNL d   1       2.680 -12.580  -3.554 -0.62 -1.01    -0.638    14.336
ATOM      7  C   UNL d   1       3.512 -14.578  -7.016 -0.13 +0.16    +0.201    14.336
ATOM      8  O   UNL d   1       2.654 -15.740  -7.052 -0.13 -0.36    -0.364    14.336
ATOM      9  P   UNL d   1       3.010 -17.062  -6.124 -0.01 -0.02    -0.015    14.336
ATOM     10  O   UNL d   1       4.153 -16.611  -5.208 -0.41 -1.09    -0.577    14.336
ATOM     11  O   UNL d   1       3.448 -18.172  -7.079 +0.02 -0.25    -0.577    14.336
ATOM     12  O   UNL d   1       1.748 -17.414  -5.337 -0.11 -1.03    -0.638    14.336
ATOM     13  C   UNL d   1       2.390 -12.475  -7.944 -0.33 +0.02    +0.073    14.336
ATOM     14  O   UNL d   1       2.367 -13.136  -9.041 -0.54 -0.16    -0.547    14.336
ATOM     15  O   UNL d   1       2.025 -11.250  -7.827 -0.17 -0.00    -0.547    14.336
TER
ENDMDL
MODEL       82
USER    Run = 82
USER    Cluster Rank = 3
USER    Number of conformations in this cluster = 11
USER  
USER    RMSD from reference structure       = 15.835 A
USER  
USER    Estimated Free Energy of Binding    =   -6.96 kcal/mol  [=(1)+(2)+(3)-(4)]
USER    Estimated Inhibition Constant, Ki   =    7.93 uM (micromolar)  [Temperature = 298.15 K]
USER    
USER    (1) Final Intermolecular Energy     =   -8.75 kcal/mol
USER        vdW + Hbond + desolv Energy     =   -4.15 kcal/mol
USER        Electrostatic Energy            =   -4.60 kcal/mol
USER    (2) Final Total Internal Energy     =   +2.72 kcal/mol
USER    (3) Torsional Free Energy           =   +1.79 kcal/mol
USER    (4) Unbound System's Energy  [=(2)] =   +2.72 kcal/mol
USER    
USER    
USER  
USER    DPF = D:/Protein_go_brrr/autodock/final/mut_K82N/2_3_BPG/dock.dpf
USER    NEWDPF move	2_3_BPG_opt.pdbqt
USER    NEWDPF about	0.015000 0.083000 0.031000
USER    NEWDPF tran0	0.014643 -17.686749 -5.444497
USER    NEWDPF axisangle0	-0.498553 0.041761 0.865853 78.222715
USER    NEWDPF quaternion0	-0.314502 0.026344 0.546206 0.775921
USER    NEWDPF dihe0	-5.34 132.56 -126.37 -17.56 73.18 -122.82 
USER  
USER                              x       y       z    vdW   Elec        q     RMS 
ATOM      1  C   UNL d   1      -0.516 -17.287  -5.354 -0.23 +0.13    +0.193    15.835
ATOM      2  O   UNL d   1      -0.028 -15.920  -5.139 -0.59 -0.51    -0.356    15.835
ATOM      3  P   UNL d   1      -0.820 -14.814  -4.216 -0.74 -0.01    -0.014    15.835
ATOM      4  O   UNL d   1      -2.257 -14.820  -4.759 -0.72 -0.42    -0.577    15.835
ATOM      5  O   UNL d   1      -0.139 -13.465  -4.443 -0.28 -0.56    -0.577    15.835
ATOM      6  O   UNL d   1      -0.767 -15.285  -2.766 -0.39 -0.56    -0.638    15.835
ATOM      7  C   UNL d   1       0.681 -18.178  -5.854 -0.14 +0.13    +0.201    15.835
ATOM      8  O   UNL d   1       1.970 -17.888  -5.269 -0.16 -0.44    -0.364    15.835
ATOM      9  P   UNL d   1       3.106 -17.056  -6.138 -0.03 -0.02    -0.015    15.835
ATOM     10  O   UNL d   1       2.415 -15.749  -6.549 -0.16 -0.84    -0.577    15.835
ATOM     11  O   UNL d   1       3.462 -17.918  -7.348 +0.02 -0.25    -0.577    15.835
ATOM     12  O   UNL d   1       4.293 -16.809  -5.208 -0.47 -1.00    -0.638    15.835
ATOM     13  C   UNL d   1      -1.641 -17.291  -6.455 -0.21 +0.02    +0.073    15.835
ATOM     14  O   UNL d   1      -1.426 -16.666  -7.552 -0.06 -0.20    -0.547    15.835
ATOM     15  O   UNL d   1      -2.695 -17.982  -6.208 +0.00 -0.07    -0.547    15.835
TER
ENDMDL
MODEL       54
USER    Run = 54
USER    Cluster Rank = 4
USER    Number of conformations in this cluster = 3
USER  
USER    RMSD from reference structure       = 15.807 A
USER  
USER    Estimated Free Energy of Binding    =   -6.38 kcal/mol  [=(1)+(2)+(3)-(4)]
USER    Estimated Inhibition Constant, Ki   =   21.05 uM (micromolar)  [Temperature = 298.15 K]
USER    
USER    (1) Final Intermolecular Energy     =   -8.17 kcal/mol
USER        vdW + Hbond + desolv Energy     =   -4.05 kcal/mol
USER        Electrostatic Energy            =   -4.12 kcal/mol
USER    (2) Final Total Internal Energy     =   +2.05 kcal/mol
USER    (3) Torsional Free Energy           =   +1.79 kcal/mol
USER    (4) Unbound System's Energy  [=(2)] =   +2.05 kcal/mol
USER    
USER    
USER  
USER    DPF = D:/Protein_go_brrr/autodock/final/mut_K82N/2_3_BPG/dock.dpf
USER    NEWDPF move	2_3_BPG_opt.pdbqt
USER    NEWDPF about	0.015000 0.083000 0.031000
USER    NEWDPF tran0	1.786428 -15.798180 -6.707855
USER    NEWDPF axisangle0	0.170171 0.441094 0.881180 -167.627140
USER    NEWDPF quaternion0	0.169180 0.438526 0.876048 -0.107764
USER    NEWDPF dihe0	-20.25 44.10 -152.96 38.02 27.44 -23.22 
USER  
USER                              x       y       z    vdW   Elec        q     RMS 
ATOM      1  C   UNL d   1       2.374 -15.743  -7.025 -0.13 +0.20    +0.193    15.807
ATOM      2  O   UNL d   1       3.056 -17.040  -6.954 -0.06 -0.27    -0.356    15.807
ATOM      3  P   UNL d   1       4.154 -17.420  -5.790 -0.15 -0.01    -0.014    15.807
ATOM      4  O   UNL d   1       5.248 -18.201  -6.535 +0.02 -0.19    -0.577    15.807
ATOM      5  O   UNL d   1       3.439 -18.296  -4.763 -0.08 -0.55    -0.577    15.807
ATOM      6  O   UNL d   1       4.694 -16.118  -5.208 -0.53 -0.98    -0.638    15.807
ATOM      7  C   UNL d   1       0.886 -15.928  -6.549 -0.05 +0.22    +0.201    15.807
ATOM      8  O   UNL d   1       0.379 -14.910  -5.657 -0.46 -0.52    -0.364    15.807
ATOM      9  P   UNL d   1      -0.768 -15.294  -4.529 -0.69 -0.01    -0.015    15.807
ATOM     10  O   UNL d   1      -0.518 -16.768  -4.191 -0.17 -0.53    -0.577    15.807
ATOM     11  O   UNL d   1      -2.131 -15.082  -5.188 -0.70 -0.38    -0.577    15.807
ATOM     12  O   UNL d   1      -0.538 -14.382  -3.324 -0.34 -0.71    -0.638    15.807
ATOM     13  C   UNL d   1       2.367 -15.218  -8.510 -0.06 +0.04    +0.073    15.807
ATOM     14  O   UNL d   1       2.288 -16.073  -9.460 -0.04 -0.15    -0.547    15.807
ATOM     15  O   UNL d   1       2.378 -13.945  -8.677 -0.61 -0.26    -0.547    15.807
TER
ENDMDL
MODEL       79
USER    Run = 79
USER    Cluster Rank = 5
USER    Number of conformations in this cluster = 69
USER  
USER    RMSD from reference structure       = 13.754 A
USER  
USER    Estimated Free Energy of Binding    =   -6.30 kcal/mol  [=(1)+(2)+(3)-(4)]
USER    Estimated Inhibition Constant, Ki   =   24.21 uM (micromolar)  [Temperature = 298.15 K]
USER    
USER    (1) Final Intermolecular Energy     =   -8.09 kcal/mol
USER        vdW + Hbond + desolv Energy     =   -2.49 kcal/mol
USER        Electrostatic Energy            =   -5.60 kcal/mol
USER    (2) Final Total Internal Energy     =   +2.06 kcal/mol
USER    (3) Torsional Free Energy           =   +1.79 kcal/mol
USER    (4) Unbound System's Energy  [=(2)] =   +2.06 kcal/mol
USER    
USER    
USER  
USER    DPF = D:/Protein_go_brrr/autodock/final/mut_K82N/2_3_BPG/dock.dpf
USER    NEWDPF move	2_3_BPG_opt.pdbqt
USER    NEWDPF about	0.015000 0.083000 0.031000
USER    NEWDPF tran0	-11.816906 2.874066 -10.432117
USER    NEWDPF axisangle0	-0.158962 -0.725722 0.669372 130.567948
USER    NEWDPF quaternion0	-0.144400 -0.659239 0.608052 0.418121
USER    NEWDPF dihe0	-163.19 -43.92 -115.81 -27.63 -9.06 -39.74 
USER  
USER                              x       y       z    vdW   Elec        q     RMS 
ATOM      1  C   UNL d   1     -11.643   2.906  -9.785 -0.07 +0.12    +0.193    13.754
ATOM      2  O   UNL d   1     -10.688   4.008  -9.623 -0.09 -0.24    -0.356    13.754
ATOM      3  P   UNL d   1      -9.668   4.137  -8.339 -0.21 -0.02    -0.014    13.754
ATOM      4  O   UNL d   1      -8.297   4.430  -8.968 -0.05 -0.25    -0.577    13.754
ATOM      5  O   UNL d   1      -9.679   2.792  -7.616 -0.02 -0.76    -0.577    13.754
ATOM      6  O   UNL d   1     -10.146   5.297  -7.472 -0.34 -1.22    -0.638    13.754
ATOM      7  C   UNL d   1     -12.280   2.997 -11.221 -0.10 +0.08    +0.201    13.754
ATOM      8  O   UNL d   1     -12.065   1.855 -12.080 -0.06 -0.17    -0.364    13.754
ATOM      9  P   UNL d   1     -12.810   1.774 -13.554 -0.20 -0.01    -0.015    13.754
ATOM     10  O   UNL d   1     -12.187   2.907 -14.379 -0.10 -0.58    -0.577    13.754
ATOM     11  O   UNL d   1     -14.303   1.998 -13.313 -0.01 -0.34    -0.577    13.754
ATOM     12  O   UNL d   1     -12.499   0.398 -14.142 -0.57 -1.13    -0.638    13.754
ATOM     13  C   UNL d   1     -12.792   3.026  -8.716 -0.08 +0.07    +0.073    13.754
ATOM     14  O   UNL d   1     -12.832   2.171  -7.763 -0.57 -0.76    -0.547    13.754
ATOM     15  O   UNL d   1     -13.593   4.024  -8.830 -0.02 -0.40    -0.547    13.754
TER
ENDMDL
MODEL       11
USER    Run = 11
USER    Cluster Rank = 6
USER    Number of conformations in this cluster = 2
USER  
USER    RMSD from reference structure       = 11.504 A
USER  
USER    Estimated Free Energy of Binding    =   -5.94 kcal/mol  [=(1)+(2)+(3)-(4)]
USER    Estimated Inhibition Constant, Ki   =   44.30 uM (micromolar)  [Temperature = 298.15 K]
USER    
USER    (1) Final Intermolecular Energy     =   -7.73 kcal/mol
USER        vdW + Hbond + desolv Energy     =   -3.08 kcal/mol
USER        Electrostatic Energy            =   -4.65 kcal/mol
USER    (2) Final Total Internal Energy     =   +2.18 kcal/mol
USER    (3) Torsional Free Energy           =   +1.79 kcal/mol
USER    (4) Unbound System's Energy  [=(2)] =   +2.18 kcal/mol
USER    
USER    
USER  
USER    DPF = D:/Protein_go_brrr/autodock/final/mut_K82N/2_3_BPG/dock.dpf
USER    NEWDPF move	2_3_BPG_opt.pdbqt
USER    NEWDPF about	0.015000 0.083000 0.031000
USER    NEWDPF tran0	-9.655118 4.998604 -8.111155
USER    NEWDPF axisangle0	-0.520908 0.096473 -0.848144 80.333843
USER    NEWDPF quaternion0	-0.335994 0.062227 -0.547067 0.764169
USER    NEWDPF dihe0	2.91 178.50 167.88 10.91 43.65 -54.74 
USER  
USER                              x       y       z    vdW   Elec        q     RMS 
ATOM      1  C   UNL d   1      -9.587   4.424  -8.450 -0.16 +0.19    +0.193    11.504
ATOM      2  O   UNL d   1     -10.876   4.104  -9.073 -0.09 -0.33    -0.356    11.504
ATOM      3  P   UNL d   1     -11.698   2.711  -8.782 -0.14 -0.01    -0.014    11.504
ATOM      4  O   UNL d   1     -10.751   1.884  -7.898 -0.26 -0.70    -0.577    11.504
ATOM      5  O   UNL d   1     -11.939   2.036 -10.131 -0.02 -0.27    -0.577    11.504
ATOM      6  O   UNL d   1     -12.984   3.068  -8.043 -0.29 -0.93    -0.638    11.504
ATOM      7  C   UNL d   1      -9.643   5.897  -7.901 -0.15 +0.19    +0.201    11.504
ATOM      8  O   UNL d   1      -9.781   6.031  -6.469 -0.58 -0.57    -0.364    11.504
ATOM      9  P   UNL d   1     -10.891   7.083  -5.837 -0.26 -0.02    -0.015    11.504
ATOM     10  O   UNL d   1     -11.389   7.903  -7.034 +0.01 -0.34    -0.577    11.504
ATOM     11  O   UNL d   1     -10.154   7.950  -4.818 -0.65 -0.40    -0.577    11.504
ATOM     12  O   UNL d   1     -12.005   6.243  -5.214 -0.10 -1.22    -0.638    11.504
ATOM     13  C   UNL d   1      -8.433   4.328  -9.517 -0.25 +0.03    +0.073    11.504
ATOM     14  O   UNL d   1      -8.520   5.040 -10.578 -0.06 -0.13    -0.547    11.504
ATOM     15  O   UNL d   1      -7.431   3.580  -9.225 -0.09 -0.13    -0.547    11.504
TER
ENDMDL
MODEL       22
USER    Run = 22
USER    Cluster Rank = 7
USER    Number of conformations in this cluster = 1
USER  
USER    RMSD from reference structure       = 13.370 A
USER  
USER    Estimated Free Energy of Binding    =   -5.58 kcal/mol  [=(1)+(2)+(3)-(4)]
USER    Estimated Inhibition Constant, Ki   =   81.11 uM (micromolar)  [Temperature = 298.15 K]
USER    
USER    (1) Final Intermolecular Energy     =   -7.37 kcal/mol
USER        vdW + Hbond + desolv Energy     =   -3.74 kcal/mol
USER        Electrostatic Energy            =   -3.63 kcal/mol
USER    (2) Final Total Internal Energy     =   +1.98 kcal/mol
USER    (3) Torsional Free Energy           =   +1.79 kcal/mol
USER    (4) Unbound System's Energy  [=(2)] =   +1.98 kcal/mol
USER    
USER    
USER  
USER    DPF = D:/Protein_go_brrr/autodock/final/mut_K82N/2_3_BPG/dock.dpf
USER    NEWDPF move	2_3_BPG_opt.pdbqt
USER    NEWDPF about	0.015000 0.083000 0.031000
USER    NEWDPF tran0	-10.540088 9.962433 -6.255998
USER    NEWDPF axisangle0	0.666345 0.304989 -0.680416 141.668442
USER    NEWDPF quaternion0	0.629411 0.288084 -0.642703 0.328303
USER    NEWDPF dihe0	-173.99 -8.85 -105.77 52.55 27.89 52.41 
USER  
USER                              x       y       z    vdW   Elec        q     RMS 
ATOM      1  C   UNL d   1     -10.619   9.700  -5.644 -0.17 +0.06    +0.193    13.370
ATOM      2  O   UNL d   1     -10.033   8.355  -5.646 -0.71 -0.22    -0.356    13.370
ATOM      3  P   UNL d   1     -10.801   7.035  -6.257 -0.23 -0.01    -0.014    13.370
ATOM      4  O   UNL d   1      -9.706   5.961  -6.344 -0.53 -0.92    -0.577    13.370
ATOM      5  O   UNL d   1     -11.325   7.417  -7.640 +0.00 -0.38    -0.577    13.370
ATOM      6  O   UNL d   1     -11.902   6.636  -5.279 -0.27 -0.90    -0.638    13.370
ATOM      7  C   UNL d   1     -10.191  10.438  -6.966 -0.15 +0.05    +0.201    13.370
ATOM      8  O   UNL d   1     -10.028  11.870  -6.863 -0.14 -0.11    -0.364    13.370
ATOM      9  P   UNL d   1     -10.338  12.836  -8.170 -0.39 -0.01    -0.015    13.370
ATOM     10  O   UNL d   1     -11.867  12.914  -8.254 +0.01 -0.22    -0.577    13.370
ATOM     11  O   UNL d   1      -9.734  12.143  -9.390 -0.07 -0.24    -0.577    13.370
ATOM     12  O   UNL d   1      -9.709  14.199  -7.883 -0.39 -0.54    -0.638    13.370
ATOM     13  C   UNL d   1     -10.084  10.520  -4.412 -0.43 +0.02    +0.073    13.370
ATOM     14  O   UNL d   1     -10.931  10.961  -3.557 -0.07 -0.13    -0.547    13.370
ATOM     15  O   UNL d   1      -8.811  10.645  -4.303 -0.21 -0.10    -0.547    13.370
TER
ENDMDL


AVSFLD: # AVS field file
AVSFLD: #
AVSFLD: # Created by AutoDock
AVSFLD: #
AVSFLD: ndim=2           # number of dimensions in the field
AVSFLD: nspace=1         # number of physical coordinates
AVSFLD: veclen=7         # vector size
AVSFLD: dim1=15          # atoms
AVSFLD: dim2=7           # conformations
AVSFLD: data=Real       # data type (byte,integer,Real,double)
AVSFLD: field=uniform    # field coordinate layout
AVSFLD: label= x y z vdW Elec q RMS
AVSFLD: variable 1 file = D:/Protein_go_brrr/autodock/final/mut_K82N/2_3_BPG/dock.dlg.pdb filetype = ascii offset = 5 stride = 12
AVSFLD: variable 2 file = D:/Protein_go_brrr/autodock/final/mut_K82N/2_3_BPG/dock.dlg.pdb filetype = ascii offset = 6 stride = 12
AVSFLD: variable 3 file = D:/Protein_go_brrr/autodock/final/mut_K82N/2_3_BPG/dock.dlg.pdb filetype = ascii offset = 7 stride = 12
AVSFLD: variable 4 file = D:/Protein_go_brrr/autodock/final/mut_K82N/2_3_BPG/dock.dlg.pdb filetype = ascii offset = 8 stride = 12
AVSFLD: variable 5 file = D:/Protein_go_brrr/autodock/final/mut_K82N/2_3_BPG/dock.dlg.pdb filetype = ascii offset = 9 stride = 12
AVSFLD: variable 6 file = D:/Protein_go_brrr/autodock/final/mut_K82N/2_3_BPG/dock.dlg.pdb filetype = ascii offset = 10 stride = 12
AVSFLD: variable 7 file = D:/Protein_go_brrr/autodock/final/mut_K82N/2_3_BPG/dock.dlg.pdb filetype = ascii offset = 11 stride = 12
AVSFLD: # end of file

>>> Closing the docking parameter file (DPF)...
This docking finished at:			10:11 26" p.m., 10/03/2025


________________________________________________________________________________

D:/autodockScripts/autodock4.exe: Successful Completion on "ACER"

Real= 6h 35m 04.57s,  CPU= 18.44s,  System= 44.34s
________________________________________________________________________________

