          AutoDock 4.2 Release 4.2.6   
         (C) 1989-2012 The Scripps Research Institute
        AutoDock comes with ABSOLUTELY NO WARRANTY.
        AutoDock is free software, and you are welcome
        to redistribute it under certain conditions;
        for details type 'autodock4 -C'

                     main.cc  $Revision: 1.213 $

                   Compiled on Jul 18 2014 at 15:34:58


This file was created at:			3:31 20" p.m., 10/03/2025
                   on host:		"ACER"
Current Working Directory = "D:\Protein_go_brrr\autodock\final\mut_K82N\heme_Fe"

      ________________________________________________________________

                   SETTING UP DEFAULT PARAMETER LIBRARY
      ________________________________________________________________


Random number generator was seeded with values 123100, 1759498280.
Docking parameter file (DPF) used for this docking:		D:/Protein_go_brrr/autodock/final/mut_K82N/heme_Fe/dock.dpf
DPF> autodock_parameter_version 4.2       # used by autodock to validate parameter set

	Autodock parameter version 4.2.
DPF> outlev 1                             # diagnostic output level

Output Level = 1  ADT-COMPATIBLE OUTPUT DURING DOCKING.
DPF> intelec                              # calculate internal electrostatics

Electrostatic energies will be calculated for all non-bonds between moving atoms.
DPF> seed pid time                        # seeds for random generator

Random number generator was seeded with values 123100, 1759498280.
DPF> ligand_types A C OA N Fe HD          # atoms types in ligand

DPF> fld mut_K82N_m0.maps.fld             # grid_data_file

Opening Grid Map Dimensions file:		mut_K82N_m0.maps.fld
Grid Point Spacing =				0.447 Angstroms

Even Number of User-specified Grid Points =	126 x-points
						126 y-points
						126 z-points

Coordinates of Central Grid Point of Maps =	(0.575, 0.825, 0.156)
Macromolecule file used to create Grid Maps =	mut_K82N_m0.pdbqt
Grid Parameter file used to create Grid Maps =	D:/Protein_go_brrr/autodock/final/mut_K82N/heme_Fe/grid.gpf
Minimum coordinates in grid = (-27.586, -27.336, -28.005)
Maximum coordinates in grid = (28.736, 28.986, 28.317)

DPF> map mut_K82N_m0.A.map                # atom-specific affinity map

DPF> map mut_K82N_m0.C.map                # atom-specific affinity map

DPF> map mut_K82N_m0.OA.map               # atom-specific affinity map

DPF> map mut_K82N_m0.N.map                # atom-specific affinity map

DPF> map mut_K82N_m0.Fe.map               # atom-specific affinity map

DPF> map mut_K82N_m0.HD.map               # atom-specific affinity map

DPF> elecmap mut_K82N_m0.e.map            # electrostatics map

DPF> desolvmap mut_K82N_m0.d.map          # desolvation map

DPF> move heme_Fe_opt.pdbqt               # small molecule

1,4-interactions will be _ignored_ in the non-bonded internal energy calculation.

Ligand PDBQT file = "heme_Fe_opt.pdbqt"

INPUT LIGAND PDBQT FILE:
________________________

INPUT-LIGAND-PDBQT: REMARK  10 active torsions:
INPUT-LIGAND-PDBQT: REMARK  status: ('A' for Active; 'I' for Inactive)
INPUT-LIGAND-PDBQT: REMARK    1  A    between atoms: C_6  and  C_10 
INPUT-LIGAND-PDBQT: REMARK    2  A    between atoms: C_10  and  C_11 
INPUT-LIGAND-PDBQT: REMARK    3  A    between atoms: C_11  and  C_12 
INPUT-LIGAND-PDBQT: REMARK    4  A    between atoms: C_12  and  O_14 
INPUT-LIGAND-PDBQT: REMARK    5  A    between atoms: C_17  and  C_20 
INPUT-LIGAND-PDBQT: REMARK    6  A    between atoms: C_24  and  C_27 
INPUT-LIGAND-PDBQT: REMARK    7  A    between atoms: C_31  and  C_34 
INPUT-LIGAND-PDBQT: REMARK    8  A    between atoms: C_34  and  C_35 
INPUT-LIGAND-PDBQT: REMARK    9  A    between atoms: C_35  and  C_36 
INPUT-LIGAND-PDBQT: REMARK   10  A    between atoms: C_36  and  O_38 
INPUT-LIGAND-PDBQT: ROOT
INPUT-LIGAND-PDBQT: ATOM      1  C   UNL d   1      -2.155  -0.060   0.485  0.00  0.00     0.064 C 
INPUT-LIGAND-PDBQT: ATOM      2  C   UNL d   1       1.497  -3.385   0.291  0.00  0.00     0.064 A 
INPUT-LIGAND-PDBQT: ATOM      3  C   UNL d   1       4.660   0.212  -0.062  0.00  0.00     0.064 C 
INPUT-LIGAND-PDBQT: ATOM      4  C   UNL d   1       1.133   3.443   0.018  0.00  0.00     0.064 C 
INPUT-LIGAND-PDBQT: ATOM      5  C   UNL d   1      -1.427  -1.332   0.379  0.00  0.00     0.066 A 
INPUT-LIGAND-PDBQT: ATOM      6  C   UNL d   1      -2.022  -2.582   0.331  0.00  0.00    -0.021 A 
INPUT-LIGAND-PDBQT: ATOM      7  C   UNL d   1      -1.007  -3.505   0.281  0.00  0.00    -0.025 A 
INPUT-LIGAND-PDBQT: ATOM      8  C   UNL d   1       0.170  -2.782   0.300  0.00  0.00     0.066 A 
INPUT-LIGAND-PDBQT: ATOM      9  C   UNL d   1      -1.169  -4.992   0.200  0.00  0.00     0.051 C 
INPUT-LIGAND-PDBQT: ATOM     10  C   UNL d   1       2.647  -2.710   0.251  0.00  0.00     0.066 A 
INPUT-LIGAND-PDBQT: ATOM     11  C   UNL d   1       3.903  -3.312   0.359  0.00  0.00    -0.021 A 
INPUT-LIGAND-PDBQT: ATOM     12  C   UNL d   1       4.832  -2.294   0.277  0.00  0.00     0.000 A 
INPUT-LIGAND-PDBQT: ATOM     13  C   UNL d   1       4.087  -1.111   0.130  0.00  0.00     0.070 A 
INPUT-LIGAND-PDBQT: ATOM     14  C   UNL d   1       4.202  -4.778   0.598  0.00  0.00     0.052 C 
INPUT-LIGAND-PDBQT: ATOM     15  C   UNL d   1       3.948   1.360  -0.152  0.00  0.00     0.066 A 
INPUT-LIGAND-PDBQT: ATOM     16  C   UNL d   1       4.526   2.591  -0.435  0.00  0.00    -0.021 A 
INPUT-LIGAND-PDBQT: ATOM     17  C   UNL d   1       3.511   3.525  -0.409  0.00  0.00     0.000 A 
INPUT-LIGAND-PDBQT: ATOM     18  C   UNL d   1       2.336   2.841  -0.106  0.00  0.00     0.070 A 
INPUT-LIGAND-PDBQT: ATOM     19  C   UNL d   1       5.979   2.885  -0.695  0.00  0.00     0.052 C 
INPUT-LIGAND-PDBQT: ATOM     20  C   UNL d   1      -0.134   2.748   0.275  0.00  0.00     0.066 A 
INPUT-LIGAND-PDBQT: ATOM     21  C   UNL d   1      -1.347   3.370   0.603  0.00  0.00    -0.025 A 
INPUT-LIGAND-PDBQT: ATOM     22  C   UNL d   1      -2.273   2.354   0.719  0.00  0.00    -0.021 A 
INPUT-LIGAND-PDBQT: ATOM     23  C   UNL d   1      -1.591   1.158   0.465  0.00  0.00     0.066 A 
INPUT-LIGAND-PDBQT: ATOM     24  C   UNL d   1      -1.629   4.841   0.803  0.00  0.00     0.051 C 
INPUT-LIGAND-PDBQT: ATOM     25  N   UNL d   1      -0.089  -1.460   0.350  0.00  0.00    -0.248 N 
INPUT-LIGAND-PDBQT: ATOM     26  N   UNL d   1       2.755  -1.363   0.123  0.00  0.00    -0.248 N 
INPUT-LIGAND-PDBQT: ATOM     27  N   UNL d   1       2.596   1.504   0.009  0.00  0.00    -0.248 N 
INPUT-LIGAND-PDBQT: ATOM     28  N   UNL d   1      -0.277   1.401   0.239  0.00  0.00    -0.248 N 
INPUT-LIGAND-PDBQT: ATOM     29 FE   UNL d   1       1.239   0.021   0.181  0.00  0.00     0.000 Fe
INPUT-LIGAND-PDBQT: ENDROOT
INPUT-LIGAND-PDBQT: BRANCH   6  30
INPUT-LIGAND-PDBQT: ATOM     30  C   UNL d   1      -3.481  -2.886   0.312  0.00  0.00     0.052 C 
INPUT-LIGAND-PDBQT: BRANCH  30  31
INPUT-LIGAND-PDBQT: ATOM     31  C   UNL d   1      -4.006  -2.926  -1.119  0.00  0.00     0.115 C 
INPUT-LIGAND-PDBQT: BRANCH  31  32
INPUT-LIGAND-PDBQT: ATOM     32  C   UNL d   1      -5.478  -3.232  -1.131  0.00  0.00     0.139 C 
INPUT-LIGAND-PDBQT: ATOM     33  O   UNL d   1      -6.086  -3.411  -0.085  0.00  0.00    -0.650 OA
INPUT-LIGAND-PDBQT: BRANCH  32  34
INPUT-LIGAND-PDBQT: ATOM     34  O   UNL d   1      -6.141  -3.312  -2.297  0.00  0.00    -0.776 OA
INPUT-LIGAND-PDBQT: ATOM     35  H   UNL d   1      -7.088  -3.510  -2.286  0.00  0.00     0.167 HD
INPUT-LIGAND-PDBQT: ENDBRANCH  32  34
INPUT-LIGAND-PDBQT: ENDBRANCH  31  32
INPUT-LIGAND-PDBQT: ENDBRANCH  30  31
INPUT-LIGAND-PDBQT: ENDBRANCH   6  30
INPUT-LIGAND-PDBQT: BRANCH  22  36
INPUT-LIGAND-PDBQT: ATOM     36  C   UNL d   1      -3.720   2.522   1.101  0.00  0.00     0.052 C 
INPUT-LIGAND-PDBQT: BRANCH  36  37
INPUT-LIGAND-PDBQT: ATOM     37  C   UNL d   1      -4.581   2.559  -0.153  0.00  0.00     0.115 C 
INPUT-LIGAND-PDBQT: BRANCH  37  38
INPUT-LIGAND-PDBQT: ATOM     38  C   UNL d   1      -6.035   2.706   0.196  0.00  0.00     0.139 C 
INPUT-LIGAND-PDBQT: ATOM     39  O   UNL d   1      -6.394   2.778   1.362  0.00  0.00    -0.650 OA
INPUT-LIGAND-PDBQT: BRANCH  38  40
INPUT-LIGAND-PDBQT: ATOM     40  O   UNL d   1      -6.958   2.756  -0.781  0.00  0.00    -0.776 OA
INPUT-LIGAND-PDBQT: ATOM     41  H   UNL d   1      -7.891   2.847  -0.542  0.00  0.00     0.167 HD
INPUT-LIGAND-PDBQT: ENDBRANCH  38  40
INPUT-LIGAND-PDBQT: ENDBRANCH  37  38
INPUT-LIGAND-PDBQT: ENDBRANCH  36  37
INPUT-LIGAND-PDBQT: ENDBRANCH  22  36
INPUT-LIGAND-PDBQT: BRANCH  12  42
INPUT-LIGAND-PDBQT: ATOM     42  C   UNL d   1       6.314  -2.479   0.357  0.00  0.00     0.004 C 
INPUT-LIGAND-PDBQT: ATOM     43  C   UNL d   1       6.931  -3.422  -0.367  0.00  0.00     0.012 C 
INPUT-LIGAND-PDBQT: ENDBRANCH  12  42
INPUT-LIGAND-PDBQT: BRANCH  17  44
INPUT-LIGAND-PDBQT: ATOM     44  C   UNL d   1       3.653   4.974  -0.677  0.00  0.00     0.004 C 
INPUT-LIGAND-PDBQT: ATOM     45  C   UNL d   1       4.222   5.409  -1.806  0.00  0.00     0.012 C 
INPUT-LIGAND-PDBQT: ENDBRANCH  17  44
INPUT-LIGAND-PDBQT: TORSDOF 10
________________________________________________________________________________

Total charge on ligand                               =	-2.002 e
REMARK  10 active torsions:
REMARK  status: ('A' for Active; 'I' for Inactive)
REMARK    1  A    between atoms: C_6  and  C_10 
REMARK    2  A    between atoms: C_10  and  C_11 
REMARK    3  A    between atoms: C_11  and  C_12 
REMARK    4  A    between atoms: C_12  and  O_14 
REMARK    5  A    between atoms: C_17  and  C_20 
REMARK    6  A    between atoms: C_24  and  C_27 
REMARK    7  A    between atoms: C_31  and  C_34 
REMARK    8  A    between atoms: C_34  and  C_35 
REMARK    9  A    between atoms: C_35  and  C_36 
REMARK   10  A    between atoms: C_36  and  O_38 


Number of Rotatable Bonds in Small Molecule =	10 torsions
Number of atoms in ligand:  45

Number of non-hydrogen atoms in ligand:  43

Number of vibrational degrees of freedom of ligand:  129


Number of torsional degrees of freedom = 10
Estimated loss of torsional free energy upon binding = +2.9830 kcal/mol


DPF> about -0.174 -0.001 -0.047            # small molecule center

Small molecule center of rotation =	(-0.174, -0.001, -0.047)

DPF> tran0 random                         # initial coordinates/A or random

Initial translation =			(-21.730, 1.749, 21.717) Angstroms
DPF> quaternion0 random                   # initial orientation

Each run will begin with a new, random initial orientation.
Initial quaternion,  (x,y,z,w) =	( -0.452, -0.793, 0.056, -0.405 ),
DPF> dihe0 random                         # initial dihedrals (relative) or random

DPF> torsdof 10                            # torsional degrees of freedom

Number of torsional degrees of freedom = 10
Free energy coefficient for torsional degrees of freedom = 0.2983, the factory default value.

Estimated loss of torsional free energy upon binding = +2.9830 kcal/mol

DPF> rmstol 2.0                           # cluster_tolerance/A

Maximum RMS tolerance for conformational cluster analysis = 2.00 Angstroms
DPF> extnrg 1000.0                        # external grid energy

External grid energy (beyond grid map walls) = 1000.00

DPF> e0max 0.0 10000                      # max initial energy; max number of retries

Using user-specified maximum number of retries for simanneal initialization, 10000 retries.
If the simanneal initial energy is greater than e0max, 0.000,
then a new, random initial state will be created.

DPF> ga_pop_size 150                      # number of individuals in population

A population of 150 individuals will be used
DPF> ga_num_evals 25000000                # maximum number of energy evaluations

There will be at most 25000000 function evaluations used.
DPF> ga_num_generations 27000             # maximum number of generations

The GA will run for at most 27000 generations.
DPF> ga_elitism 1                         # number of top individuals to survive to next generation

The 1 best will be preserved each GA generation.
DPF> ga_mutation_rate 0.02                # rate of gene mutation

The mutation rate is 0.020000.
DPF> ga_crossover_rate 0.8                # rate of crossover

The crossover rate is 0.800000.
DPF> ga_window_size 10                    # 

The GA's selection window is 10 generations.
DPF> ga_cauchy_alpha 0.0                  # Alpha parameter of Cauchy distribution

The alpha parameter (for the Cauchy distribution) is being set to 0.000000.
DPF> ga_cauchy_beta 1.0                   # Beta parameter Cauchy distribution

The beta parameter (for the Cauchy distribution) is being set to 1.000000.
DPF> set_ga                               # set the above parameters for GA or LGA

DPF> sw_max_its 300                       # iterations of Solis & Wets local search

Solis & Wets algorithms will perform at most 300 iterations.
DPF> sw_max_succ 4                        # consecutive successes before changing rho

Solis & Wets algorithms expand rho every 4 in a row successes.
DPF> sw_max_fail 4                        # consecutive failures before changing rho

Solis & Wets algorithms contract rho every 4 in a row failures.
DPF> sw_rho 1.0                           # size of local search space to sample

rho is set to 1.000000.
DPF> sw_lb_rho 0.01                       # lower bound on rho

rho will never get smaller than 0.010000.
DPF> ls_search_freq 0.06                  # probability of performing local search on individual

Local search will be performed with frequency 0.060000.
DPF> set_psw1                             # set the above pseudo-Solis & Wets parameters

Creating a new Local Search object using the pseudo-Solis-Wets algorithm (pSW1) with the current settings.

DPF> unbound_model bound                  # state of unbound ligand

DPF> ga_run 100                           # do this many hybrid GA-LS runs

centering ligand on specified point: -0.174 -0.001 -0.047
Furthest true ligand atom from "about" center is 8.241 Angstroms (maxrad).
Number of requested GA dockings = 100 runs
Unbound model to be used is 'same as bound' [AutoDock 4.2 default].

	BEGINNING GENETIC ALGORITHM DOCKING 1 of 100
Run: 1 Seed: 1264316196 14604116 [ Run 1 of 100 GA/GALS ]
Beginning LAMARCKIAN GENETIC ALGORITHM (LGA), with a maximum of 25000000 energy evaluations.

Final-Value: -11.260


	FINAL GENETIC ALGORITHM DOCKED STATE
	_______________________________________________


Detailed state:  trans -8.395 6.573 -13.587 quatxyzw 0.710911 0.217367 -0.381063 0.549680 center -0.174 -0.001 -0.047 ntor 10 -139.1202 -102.9476 93.8241 24.0816 -95.1874 -100.7006 -37.4580 -49.1414 -5.2728 -158.6473
State:	 -8.395   6.573 -13.587   0.851  0.260 -0.456 113.310   -139.12 -102.95   93.82   24.08  -95.19 -100.70  -37.46  -49.14   -5.27 -158.65

DOCKED: MODEL        1
DOCKED: USER    Run = 1
DOCKED: USER    DPF = D:/Protein_go_brrr/autodock/final/mut_K82N/heme_Fe/dock.dpf
DOCKED: USER  
DOCKED: USER    Estimated Free Energy of Binding    =   -7.67 kcal/mol  [=(1)+(2)+(3)-(4)]
DOCKED: USER    Estimated Inhibition Constant, Ki   =    2.39 uM (micromolar)  [Temperature = 298.15 K]
DOCKED: USER    
DOCKED: USER    (1) Final Intermolecular Energy     =  -10.65 kcal/mol
DOCKED: USER        vdW + Hbond + desolv Energy     =   -7.48 kcal/mol
DOCKED: USER        Electrostatic Energy            =   -3.17 kcal/mol
DOCKED: USER    (2) Final Total Internal Energy     =   -0.61 kcal/mol
DOCKED: USER    (3) Torsional Free Energy           =   +2.98 kcal/mol
DOCKED: USER    (4) Unbound System's Energy  [=(2)] =   -0.61 kcal/mol
DOCKED: USER    
DOCKED: USER    
DOCKED: USER    NEWDPF move heme_Fe_opt.pdbqt
DOCKED: USER    NEWDPF about -0.174000 -0.001000 -0.047000
DOCKED: USER    NEWDPF tran0 -8.394617 6.573321 -13.587392
DOCKED: USER    NEWDPF quaternion0 0.710911 0.217367 -0.381063 0.549680
DOCKED: USER    NEWDPF axisangle0 0.851008 0.260203 -0.456158 113.309838
DOCKED: USER    NEWDPF quat0 0.851008 0.260203 -0.456158 113.309838
DOCKED: USER    NEWDPF dihe0 -139.12 -102.95 93.82 24.08 -95.19 -100.70 -37.46 -49.14 -5.27 -158.65 
DOCKED: USER  keepresnum = 1 
DOCKED: USER  
DOCKED: REMARK  10 active torsions:
DOCKED: REMARK  status: ('A' for Active; 'I' for Inactive)
DOCKED: REMARK    1  A    between atoms: C_6  and  C_10 
DOCKED: REMARK    2  A    between atoms: C_10  and  C_11 
DOCKED: REMARK    3  A    between atoms: C_11  and  C_12 
DOCKED: REMARK    4  A    between atoms: C_12  and  O_14 
DOCKED: REMARK    5  A    between atoms: C_17  and  C_20 
DOCKED: REMARK    6  A    between atoms: C_24  and  C_27 
DOCKED: REMARK    7  A    between atoms: C_31  and  C_34 
DOCKED: REMARK    8  A    between atoms: C_34  and  C_35 
DOCKED: REMARK    9  A    between atoms: C_35  and  C_36 
DOCKED: REMARK   10  A    between atoms: C_36  and  O_38 
DOCKED: USER                              x       y       z     vdW  Elec       q    Type
DOCKED: USER                           _______ _______ _______ _____ _____    ______ ____
DOCKED: ROOT
DOCKED: ATOM      1  C   UNL d   1     -10.022   5.477 -12.988 -0.20 +0.01    +0.064 C 
DOCKED: ATOM      2  C   UNL d   1      -7.259   9.017 -10.924 -0.18 +0.00    +0.064 A 
DOCKED: ATOM      3  C   UNL d   1      -5.433  10.019 -15.251 -0.12 -0.01    +0.064 C 
DOCKED: ATOM      4  C   UNL d   1      -8.020   6.527 -17.252 -0.22 -0.01    +0.064 C 
DOCKED: ATOM      5  C   UNL d   1      -9.352   6.324 -11.992 -0.12 +0.01    +0.066 A 
DOCKED: ATOM      6  C   UNL d   1      -9.543   6.238 -10.623 -0.13 -0.01    -0.021 A 
DOCKED: ATOM      7  C   UNL d   1      -8.778   7.224 -10.051 -0.12 -0.01    -0.025 A 
DOCKED: ATOM      8  C   UNL d   1      -8.148   7.875 -11.094 -0.11 +0.01    +0.066 A 
DOCKED: ATOM      9  C   UNL d   1      -8.651   7.504  -8.585 -0.19 +0.01    +0.051 C 
DOCKED: ATOM     10  C   UNL d   1      -6.594   9.626 -11.907 -0.20 -0.01    +0.066 A 
DOCKED: ATOM     11  C   UNL d   1      -5.840  10.789 -11.729 -0.30 +0.00    -0.021 A 
DOCKED: ATOM     12  C   UNL d   1      -5.317  11.108 -12.966 -0.35 -0.00    +0.000 A 
DOCKED: ATOM     13  C   UNL d   1      -5.790  10.119 -13.845 -0.16 -0.01    +0.070 A 
DOCKED: ATOM     14  C   UNL d   1      -5.682  11.595 -10.456 -0.40 -0.01    +0.052 C 
DOCKED: ATOM     15  C   UNL d   1      -5.927   9.099 -16.114 -0.10 -0.01    +0.066 A 
DOCKED: ATOM     16  C   UNL d   1      -5.486   8.975 -17.425 -0.09 +0.00    -0.021 A 
DOCKED: ATOM     17  C   UNL d   1      -6.233   7.971 -18.005 -0.14 -0.00    +0.000 A 
DOCKED: ATOM     18  C   UNL d   1      -7.117   7.508 -17.033 -0.17 -0.01    +0.070 A 
DOCKED: ATOM     19  C   UNL d   1      -4.421   9.784 -18.116 -0.06 -0.01    +0.052 C 
DOCKED: ATOM     20  C   UNL d   1      -8.923   5.973 -16.237 -0.24 +0.00    +0.066 A 
DOCKED: ATOM     21  C   UNL d   1      -9.994   5.104 -16.494 -0.20 -0.01    -0.025 A 
DOCKED: ATOM     22  C   UNL d   1     -10.542   4.808 -15.263 -0.23 -0.01    -0.021 A 
DOCKED: ATOM     23  C   UNL d   1      -9.793   5.508 -14.310 -0.22 +0.01    +0.066 A 
DOCKED: ATOM     24  C   UNL d   1     -10.485   4.579 -17.823 -0.10 +0.02    +0.051 C 
DOCKED: ATOM     25  N   UNL d   1      -8.492   7.319 -12.273 -0.01 -0.02    -0.248 N 
DOCKED: ATOM     26  N   UNL d   1      -6.576   9.221 -13.202 -0.08 +0.02    -0.248 N 
DOCKED: ATOM     27  N   UNL d   1      -6.900   8.171 -15.858 -0.10 +0.03    -0.248 N 
DOCKED: ATOM     28  N   UNL d   1      -8.835   6.252 -14.914 -0.09 -0.02    -0.248 N 
DOCKED: ATOM     29 FE   UNL d   1      -7.706   7.736 -14.060 -0.04 -0.00    +0.000 Fe
DOCKED: ENDROOT
DOCKED: BRANCH   6  30
DOCKED: ATOM     30  C   UNL d   1     -10.392   5.256  -9.891 -0.14 +0.03    +0.052 C 
DOCKED: BRANCH  30  31
DOCKED: ATOM     31  C   UNL d   1      -9.633   3.954  -9.658 -0.07 +0.06    +0.115 C 
DOCKED: BRANCH  31  32
DOCKED: ATOM     32  C   UNL d   1      -9.973   3.382  -8.309 -0.06 +0.17    +0.139 C 
DOCKED: ATOM     33  O   UNL d   1      -9.263   3.608  -7.340 -0.15 -0.96    -0.650 OA
DOCKED: BRANCH  32  34
DOCKED: ATOM     34  O   UNL d   1     -11.064   2.613  -8.158 -0.11 -1.22    -0.776 OA
DOCKED: ATOM     35  H   UNL d   1     -11.280   1.964  -8.842 +0.04 +0.14    +0.167 HD
DOCKED: ENDBRANCH  32  34
DOCKED: ENDBRANCH  31  32
DOCKED: ENDBRANCH  30  31
DOCKED: ENDBRANCH   6  30
DOCKED: BRANCH  22  36
DOCKED: ATOM     36  C   UNL d   1     -11.749   3.939 -15.024 -0.18 +0.04    +0.052 C 
DOCKED: BRANCH  36  37
DOCKED: ATOM     37  C   UNL d   1     -12.965   4.550 -15.705 -0.11 +0.07    +0.115 C 
DOCKED: BRANCH  37  38
DOCKED: ATOM     38  C   UNL d   1     -13.683   3.531 -16.543 +0.11 +0.17    +0.139 C 
DOCKED: ATOM     39  O   UNL d   1     -13.531   3.497 -17.755 -0.48 -0.70    -0.650 OA
DOCKED: BRANCH  38  40
DOCKED: ATOM     40  O   UNL d   1     -14.508   2.643 -15.959 -0.29 -1.05    -0.776 OA
DOCKED: ATOM     41  H   UNL d   1     -15.387   2.932 -15.677 +0.01 +0.11    +0.167 HD
DOCKED: ENDBRANCH  38  40
DOCKED: ENDBRANCH  37  38
DOCKED: ENDBRANCH  36  37
DOCKED: ENDBRANCH  22  36
DOCKED: BRANCH  12  42
DOCKED: ATOM     42  C   UNL d   1      -4.447  12.292 -13.248 -0.51 -0.00    +0.004 C 
DOCKED: ATOM     43  C   UNL d   1      -3.418  12.203 -14.100 -0.47 -0.01    +0.012 C 
DOCKED: ENDBRANCH  12  42
DOCKED: BRANCH  17  44
DOCKED: ATOM     44  C   UNL d   1      -6.095   7.473 -19.392 -0.15 -0.00    +0.004 C 
DOCKED: ATOM     45  C   UNL d   1      -5.103   6.641 -19.726 -0.22 -0.00    +0.012 C 
DOCKED: ENDBRANCH  17  44
DOCKED: TORSDOF 10
DOCKED: TER
DOCKED: ENDMDL
________________________________________________________________________________


	BEGINNING GENETIC ALGORITHM DOCKING 2 of 100
Run: 2 Seed: 223269174 1108965939 [ Run 2 of 100 GA/GALS ]
Beginning LAMARCKIAN GENETIC ALGORITHM (LGA), with a maximum of 25000000 energy evaluations.

Final-Value: -11.921


	FINAL GENETIC ALGORITHM DOCKED STATE
	_______________________________________________


Detailed state:  trans -8.262 6.869 -13.110 quatxyzw 0.730796 -0.039801 -0.484821 0.478855 center -0.174 -0.001 -0.047 ntor 10 -91.9874 65.8812 13.7306 -6.2063 -165.1577 166.0856 23.2130 -57.4056 -9.7192 16.3665
State:	 -8.262   6.869 -13.110   0.832 -0.045 -0.552 122.779    -91.99   65.88   13.73   -6.21 -165.16  166.09   23.21  -57.41   -9.72   16.37

DOCKED: MODEL        2
DOCKED: USER    Run = 2
DOCKED: USER    DPF = D:/Protein_go_brrr/autodock/final/mut_K82N/heme_Fe/dock.dpf
DOCKED: USER  
DOCKED: USER    Estimated Free Energy of Binding    =   -6.98 kcal/mol  [=(1)+(2)+(3)-(4)]
DOCKED: USER    Estimated Inhibition Constant, Ki   =    7.59 uM (micromolar)  [Temperature = 298.15 K]
DOCKED: USER    
DOCKED: USER    (1) Final Intermolecular Energy     =   -9.97 kcal/mol
DOCKED: USER        vdW + Hbond + desolv Energy     =   -7.28 kcal/mol
DOCKED: USER        Electrostatic Energy            =   -2.69 kcal/mol
DOCKED: USER    (2) Final Total Internal Energy     =   -1.95 kcal/mol
DOCKED: USER    (3) Torsional Free Energy           =   +2.98 kcal/mol
DOCKED: USER    (4) Unbound System's Energy  [=(2)] =   -1.95 kcal/mol
DOCKED: USER    
DOCKED: USER    
DOCKED: USER    NEWDPF move heme_Fe_opt.pdbqt
DOCKED: USER    NEWDPF about -0.174000 -0.001000 -0.047000
DOCKED: USER    NEWDPF tran0 -8.262011 6.868821 -13.109582
DOCKED: USER    NEWDPF quaternion0 0.730796 -0.039801 -0.484821 0.478855
DOCKED: USER    NEWDPF axisangle0 0.832442 -0.045337 -0.552255 122.778696
DOCKED: USER    NEWDPF quat0 0.832442 -0.045337 -0.552255 122.778696
DOCKED: USER    NEWDPF dihe0 -91.99 65.88 13.73 -6.21 -165.16 166.09 23.21 -57.41 -9.72 16.37 
DOCKED: USER  keepresnum = 1 
DOCKED: USER  
DOCKED: REMARK  10 active torsions:
DOCKED: REMARK  status: ('A' for Active; 'I' for Inactive)
DOCKED: REMARK    1  A    between atoms: C_6  and  C_10 
DOCKED: REMARK    2  A    between atoms: C_10  and  C_11 
DOCKED: REMARK    3  A    between atoms: C_11  and  C_12 
DOCKED: REMARK    4  A    between atoms: C_12  and  O_14 
DOCKED: REMARK    5  A    between atoms: C_17  and  C_20 
DOCKED: REMARK    6  A    between atoms: C_24  and  C_27 
DOCKED: REMARK    7  A    between atoms: C_31  and  C_34 
DOCKED: REMARK    8  A    between atoms: C_34  and  C_35 
DOCKED: REMARK    9  A    between atoms: C_35  and  C_36 
DOCKED: REMARK   10  A    between atoms: C_36  and  O_38 
DOCKED: USER                              x       y       z     vdW  Elec       q    Type
DOCKED: USER                           _______ _______ _______ _____ _____    ______ ____
DOCKED: ROOT
DOCKED: ATOM      1  C   UNL d   1      -9.631   6.489 -11.629 -0.13 +0.01    +0.064 C 
DOCKED: ATOM      2  C   UNL d   1      -5.840   9.618 -12.144 -0.20 -0.01    +0.064 A 
DOCKED: ATOM      3  C   UNL d   1      -5.817   8.706 -16.859 -0.14 -0.01    +0.064 C 
DOCKED: ATOM      4  C   UNL d   1      -9.417   5.594 -16.368 -0.26 +0.01    +0.064 C 
DOCKED: ATOM      5  C   UNL d   1      -8.512   7.391 -11.324 -0.10 +0.01    +0.066 A 
DOCKED: ATOM      6  C   UNL d   1      -8.140   7.787 -10.050 -0.15 -0.00    -0.021 A 
DOCKED: ATOM      7  C   UNL d   1      -7.090   8.659 -10.194 -0.23 -0.00    -0.025 A 
DOCKED: ATOM      8  C   UNL d   1      -6.860   8.762 -11.552 -0.18 -0.00    +0.066 A 
DOCKED: ATOM      9  C   UNL d   1      -6.344   9.333  -9.084 -0.44 -0.00    +0.051 C 
DOCKED: ATOM     10  C   UNL d   1      -5.560   9.693 -13.446 -0.20 -0.01    +0.066 A 
DOCKED: ATOM     11  C   UNL d   1      -4.657  10.607 -13.993 -0.27 +0.01    -0.021 A 
DOCKED: ATOM     12  C   UNL d   1      -4.644  10.375 -15.354 -0.15 -0.00    +0.000 A 
DOCKED: ATOM     13  C   UNL d   1      -5.556   9.328 -15.570 -0.11 -0.01    +0.070 A 
DOCKED: ATOM     14  C   UNL d   1      -3.894  11.694 -13.264 -0.40 -0.02    +0.052 C 
DOCKED: ATOM     15  C   UNL d   1      -6.732   7.733 -17.080 -0.16 -0.01    +0.066 A 
DOCKED: ATOM     16  C   UNL d   1      -6.881   7.096 -18.306 -0.12 +0.01    -0.021 A 
DOCKED: ATOM     17  C   UNL d   1      -7.921   6.200 -18.167 -0.16 -0.00    +0.000 A 
DOCKED: ATOM     18  C   UNL d   1      -8.385   6.315 -16.859 -0.23 -0.00    +0.070 A 
DOCKED: ATOM     19  C   UNL d   1      -6.094   7.336 -19.567 -0.15 -0.01    +0.052 C 
DOCKED: ATOM     20  C   UNL d   1      -9.893   5.643 -14.980 -0.21 +0.01    +0.066 A 
DOCKED: ATOM     21  C   UNL d   1     -11.077   5.058 -14.509 -0.18 -0.01    -0.025 A 
DOCKED: ATOM     22  C   UNL d   1     -11.112   5.314 -13.154 -0.13 -0.01    -0.021 A 
DOCKED: ATOM     23  C   UNL d   1      -9.957   6.048 -12.854 -0.14 +0.01    +0.066 A 
DOCKED: ATOM     24  C   UNL d   1     -12.128   4.299 -15.286 -0.18 +0.03    +0.051 C 
DOCKED: ATOM     25  N   UNL d   1      -7.721   7.982 -12.237 -0.04 -0.01    -0.248 N 
DOCKED: ATOM     26  N   UNL d   1      -6.122   8.917 -14.408 -0.08 +0.03    -0.248 N 
DOCKED: ATOM     27  N   UNL d   1      -7.627   7.225 -16.177 -0.14 +0.03    -0.248 N 
DOCKED: ATOM     28  N   UNL d   1      -9.241   6.284 -13.980 -0.07 -0.03    -0.248 N 
DOCKED: ATOM     29 FE   UNL d   1      -7.682   7.599 -14.196 -0.04 -0.00    +0.000 Fe
DOCKED: ENDROOT
DOCKED: BRANCH   6  30
DOCKED: ATOM     30  C   UNL d   1      -8.737   7.344  -8.758 -0.18 +0.02    +0.052 C 
DOCKED: BRANCH  30  31
DOCKED: ATOM     31  C   UNL d   1      -8.203   5.973  -8.358 -0.17 +0.05    +0.115 C 
DOCKED: BRANCH  31  32
DOCKED: ATOM     32  C   UNL d   1      -9.162   5.286  -7.425 -0.06 +0.16    +0.139 C 
DOCKED: ATOM     33  O   UNL d   1      -8.811   4.308  -6.779 -0.40 -0.88    -0.650 OA
DOCKED: BRANCH  32  34
DOCKED: ATOM     34  O   UNL d   1     -10.418   5.743  -7.293 -0.23 -1.39    -0.776 OA
DOCKED: ATOM     35  H   UNL d   1     -11.102   5.419  -7.895 +0.02 +0.27    +0.167 HD
DOCKED: ENDBRANCH  32  34
DOCKED: ENDBRANCH  31  32
DOCKED: ENDBRANCH  30  31
DOCKED: ENDBRANCH   6  30
DOCKED: BRANCH  22  36
DOCKED: ATOM     36  C   UNL d   1     -12.218   4.918 -12.212 -0.08 +0.02    +0.052 C 
DOCKED: BRANCH  36  37
DOCKED: ATOM     37  C   UNL d   1     -11.704   3.881 -11.224 -0.12 +0.04    +0.115 C 
DOCKED: BRANCH  37  38
DOCKED: ATOM     38  C   UNL d   1     -11.864   4.360  -9.809 -0.10 +0.09    +0.139 C 
DOCKED: ATOM     39  O   UNL d   1     -11.751   3.585  -8.871 -0.09 -0.73    -0.650 OA
DOCKED: BRANCH  38  40
DOCKED: ATOM     40  O   UNL d   1     -12.138   5.653  -9.565 +0.03 -0.43    -0.776 OA
DOCKED: ATOM     41  H   UNL d   1     -11.481   6.194  -9.103 +0.02 +0.10    +0.167 HD
DOCKED: ENDBRANCH  38  40
DOCKED: ENDBRANCH  37  38
DOCKED: ENDBRANCH  36  37
DOCKED: ENDBRANCH  22  36
DOCKED: BRANCH  12  42
DOCKED: ATOM     42  C   UNL d   1      -3.821  11.136 -16.344 -0.17 -0.00    +0.004 C 
DOCKED: ATOM     43  C   UNL d   1      -2.483  11.130 -16.277 -0.26 -0.01    +0.012 C 
DOCKED: ENDBRANCH  12  42
DOCKED: BRANCH  17  44
DOCKED: ATOM     44  C   UNL d   1      -8.423   5.280 -19.212 -0.25 -0.00    +0.004 C 
DOCKED: ATOM     45  C   UNL d   1      -7.579   4.532 -19.930 -0.28 -0.00    +0.012 C 
DOCKED: ENDBRANCH  17  44
DOCKED: TORSDOF 10
DOCKED: TER
DOCKED: ENDMDL
________________________________________________________________________________


	BEGINNING GENETIC ALGORITHM DOCKING 3 of 100
Run: 3 Seed: 1895849186 1250896139 [ Run 3 of 100 GA/GALS ]
Beginning LAMARCKIAN GENETIC ALGORITHM (LGA), with a maximum of 25000000 energy evaluations.

Final-Value: -10.616


	FINAL GENETIC ALGORITHM DOCKED STATE
	_______________________________________________


Detailed state:  trans 11.052 3.571 13.753 quatxyzw -0.120821 0.572822 0.188978 -0.788394 center -0.174 -0.001 -0.047 ntor 10 26.4131 49.8678 56.5012 1.9789 -177.9290 -74.3480 -71.7404 59.5460 169.4109 -178.4946
State:	 11.052   3.571  13.753  -0.196  0.931  0.307 -75.929     26.41   49.87   56.50    1.98 -177.93  -74.35  -71.74   59.55  169.41 -178.49

DOCKED: MODEL        3
DOCKED: USER    Run = 3
DOCKED: USER    DPF = D:/Protein_go_brrr/autodock/final/mut_K82N/heme_Fe/dock.dpf
DOCKED: USER  
DOCKED: USER    Estimated Free Energy of Binding    =   -5.14 kcal/mol  [=(1)+(2)+(3)-(4)]
DOCKED: USER    Estimated Inhibition Constant, Ki   =  170.10 uM (micromolar)  [Temperature = 298.15 K]
DOCKED: USER    
DOCKED: USER    (1) Final Intermolecular Energy     =   -8.13 kcal/mol
DOCKED: USER        vdW + Hbond + desolv Energy     =   -7.79 kcal/mol
DOCKED: USER        Electrostatic Energy            =   -0.34 kcal/mol
DOCKED: USER    (2) Final Total Internal Energy     =   -2.49 kcal/mol
DOCKED: USER    (3) Torsional Free Energy           =   +2.98 kcal/mol
DOCKED: USER    (4) Unbound System's Energy  [=(2)] =   -2.49 kcal/mol
DOCKED: USER    
DOCKED: USER    
DOCKED: USER    NEWDPF move heme_Fe_opt.pdbqt
DOCKED: USER    NEWDPF about -0.174000 -0.001000 -0.047000
DOCKED: USER    NEWDPF tran0 11.051717 3.570983 13.753333
DOCKED: USER    NEWDPF quaternion0 -0.120821 0.572822 0.188978 -0.788394
DOCKED: USER    NEWDPF axisangle0 -0.196403 0.931159 0.307195 -75.928690
DOCKED: USER    NEWDPF quat0 -0.196403 0.931159 0.307195 -75.928690
DOCKED: USER    NEWDPF dihe0 26.41 49.87 56.50 1.98 -177.93 -74.35 -71.74 59.55 169.41 -178.49 
DOCKED: USER  keepresnum = 1 
DOCKED: USER  
DOCKED: REMARK  10 active torsions:
DOCKED: REMARK  status: ('A' for Active; 'I' for Inactive)
DOCKED: REMARK    1  A    between atoms: C_6  and  C_10 
DOCKED: REMARK    2  A    between atoms: C_10  and  C_11 
DOCKED: REMARK    3  A    between atoms: C_11  and  C_12 
DOCKED: REMARK    4  A    between atoms: C_12  and  O_14 
DOCKED: REMARK    5  A    between atoms: C_17  and  C_20 
DOCKED: REMARK    6  A    between atoms: C_24  and  C_27 
DOCKED: REMARK    7  A    between atoms: C_31  and  C_34 
DOCKED: REMARK    8  A    between atoms: C_34  and  C_35 
DOCKED: REMARK    9  A    between atoms: C_35  and  C_36 
DOCKED: REMARK   10  A    between atoms: C_36  and  O_38 
DOCKED: USER                              x       y       z     vdW  Elec       q    Type
DOCKED: USER                           _______ _______ _______ _____ _____    ______ ____
DOCKED: ROOT
DOCKED: ATOM      1  C   UNL d   1      10.994   3.418  15.799 -0.28 -0.01    +0.064 C 
DOCKED: ATOM      2  C   UNL d   1      13.273   0.932  12.186 -0.17 -0.01    +0.064 A 
DOCKED: ATOM      3  C   UNL d   1      12.262   4.528   9.167 -0.18 -0.00    +0.064 C 
DOCKED: ATOM      4  C   UNL d   1       9.960   6.903  12.623 -0.26 +0.00    +0.064 C 
DOCKED: ATOM      5  C   UNL d   1      11.657   2.347  15.042 -0.25 -0.01    +0.066 A 
DOCKED: ATOM      6  C   UNL d   1      11.999   1.109  15.559 -0.29 +0.00    -0.021 A 
DOCKED: ATOM      7  C   UNL d   1      12.635   0.420  14.556 -0.26 +0.01    -0.025 A 
DOCKED: ATOM      8  C   UNL d   1      12.657   1.266  13.464 -0.19 -0.01    +0.066 A 
DOCKED: ATOM      9  C   UNL d   1      13.171  -0.976  14.645 -0.38 -0.01    +0.051 C 
DOCKED: ATOM     10  C   UNL d   1      13.258   1.706  11.100 -0.16 -0.01    +0.066 A 
DOCKED: ATOM     11  C   UNL d   1      13.955   1.409   9.926 -0.13 +0.00    -0.021 A 
DOCKED: ATOM     12  C   UNL d   1      13.693   2.439   9.046 -0.13 -0.00    +0.000 A 
DOCKED: ATOM     13  C   UNL d   1      12.848   3.325   9.737 -0.13 -0.00    +0.070 A 
DOCKED: ATOM     14  C   UNL d   1      14.881   0.235   9.680 -0.04 -0.00    +0.052 C 
DOCKED: ATOM     15  C   UNL d   1      11.490   5.410   9.844 -0.20 -0.00    +0.066 A 
DOCKED: ATOM     16  C   UNL d   1      10.868   6.494   9.239 -0.23 -0.00    -0.021 A 
DOCKED: ATOM     17  C   UNL d   1      10.206   7.183  10.234 -0.30 +0.00    +0.000 A 
DOCKED: ATOM     18  C   UNL d   1      10.444   6.503  11.427 -0.27 -0.00    +0.070 A 
DOCKED: ATOM     19  C   UNL d   1      10.912   6.885   7.786 -0.06 +0.01    +0.052 C 
DOCKED: ATOM     20  C   UNL d   1      10.139   6.181  13.888 -0.24 -0.01    +0.066 A 
DOCKED: ATOM     21  C   UNL d   1       9.819   6.680  15.158 -0.28 +0.00    -0.025 A 
DOCKED: ATOM     22  C   UNL d   1      10.109   5.666  16.047 -0.24 +0.00    -0.021 A 
DOCKED: ATOM     23  C   UNL d   1      10.599   4.596  15.289 -0.23 -0.01    +0.066 A 
DOCKED: ATOM     24  C   UNL d   1       9.271   8.040  15.527 -0.26 -0.00    +0.051 C 
DOCKED: ATOM     25  N   UNL d   1      12.052   2.434  13.760 -0.10 +0.03    -0.248 N 
DOCKED: ATOM     26  N   UNL d   1      12.590   2.883  10.992 -0.08 +0.02    -0.248 N 
DOCKED: ATOM     27  N   UNL d   1      11.197   5.389  11.182 -0.14 +0.01    -0.248 N 
DOCKED: ATOM     28  N   UNL d   1      10.657   4.932  13.977 -0.17 +0.04    -0.248 N 
DOCKED: ATOM     29 FE   UNL d   1      11.622   3.909  12.485 -0.05 -0.00    +0.000 Fe
DOCKED: ENDROOT
DOCKED: BRANCH   6  30
DOCKED: ATOM     30  C   UNL d   1      11.718   0.595  16.929 -0.36 -0.01    +0.052 C 
DOCKED: BRANCH  30  31
DOCKED: ATOM     31  C   UNL d   1      12.961   0.689  17.807 -0.21 -0.00    +0.115 C 
DOCKED: BRANCH  31  32
DOCKED: ATOM     32  C   UNL d   1      12.800   1.775  18.834 -0.19 +0.01    +0.139 C 
DOCKED: ATOM     33  O   UNL d   1      13.705   2.035  19.614 +0.00 -0.10    -0.650 OA
DOCKED: BRANCH  32  34
DOCKED: ATOM     34  O   UNL d   1      11.654   2.473  18.903 -0.02 -0.09    -0.776 OA
DOCKED: ATOM     35  H   UNL d   1      11.672   3.372  19.259 +0.03 +0.03    +0.167 HD
DOCKED: ENDBRANCH  32  34
DOCKED: ENDBRANCH  31  32
DOCKED: ENDBRANCH  30  31
DOCKED: ENDBRANCH   6  30
DOCKED: BRANCH  22  36
DOCKED: ATOM     36  C   UNL d   1       9.969   5.742  17.545 -0.13 +0.00    +0.052 C 
DOCKED: BRANCH  36  37
DOCKED: ATOM     37  C   UNL d   1      11.183   6.441  18.139 -0.08 +0.01    +0.115 C 
DOCKED: BRANCH  37  38
DOCKED: ATOM     38  C   UNL d   1      11.890   5.551  19.122 -0.09 +0.02    +0.139 C 
DOCKED: ATOM     39  O   UNL d   1      11.418   5.345  20.230 -0.02 -0.17    -0.650 OA
DOCKED: BRANCH  38  40
DOCKED: ATOM     40  O   UNL d   1      13.058   4.976  18.787 +0.04 -0.08    -0.776 OA
DOCKED: ATOM     41  H   UNL d   1      13.172   4.026  18.929 +0.03 +0.02    +0.167 HD
DOCKED: ENDBRANCH  38  40
DOCKED: ENDBRANCH  37  38
DOCKED: ENDBRANCH  36  37
DOCKED: ENDBRANCH  22  36
DOCKED: BRANCH  12  42
DOCKED: ATOM     42  C   UNL d   1      14.246   2.542   7.660 -0.11 +0.00    +0.004 C 
DOCKED: ATOM     43  C   UNL d   1      13.483   2.277   6.592 -0.16 +0.00    +0.012 C 
DOCKED: ENDBRANCH  12  42
DOCKED: BRANCH  17  44
DOCKED: ATOM     44  C   UNL d   1       9.383   8.400  10.053 -0.36 +0.00    +0.004 C 
DOCKED: ATOM     45  C   UNL d   1       8.355   8.410   9.198 -0.46 +0.00    +0.012 C 
DOCKED: ENDBRANCH  17  44
DOCKED: TORSDOF 10
DOCKED: TER
DOCKED: ENDMDL
________________________________________________________________________________


	BEGINNING GENETIC ALGORITHM DOCKING 4 of 100
Run: 4 Seed: 358943828 1026668300 [ Run 4 of 100 GA/GALS ]
Beginning LAMARCKIAN GENETIC ALGORITHM (LGA), with a maximum of 25000000 energy evaluations.

Final-Value: -10.062


	FINAL GENETIC ALGORITHM DOCKED STATE
	_______________________________________________


Detailed state:  trans 9.568 17.651 -8.379 quatxyzw 0.322739 0.230954 -0.753397 -0.524302 center -0.174 -0.001 -0.047 ntor 10 -159.7241 -1.3100 90.8006 -152.2987 -72.3559 -79.5783 146.7294 107.1474 -161.5996 -179.2682
State:	  9.568  17.651  -8.379   0.379  0.271 -0.885 -116.757   -159.72   -1.31   90.80 -152.30  -72.36  -79.58  146.73  107.15 -161.60 -179.27

DOCKED: MODEL        4
DOCKED: USER    Run = 4
DOCKED: USER    DPF = D:/Protein_go_brrr/autodock/final/mut_K82N/heme_Fe/dock.dpf
DOCKED: USER  
DOCKED: USER    Estimated Free Energy of Binding    =   -4.76 kcal/mol  [=(1)+(2)+(3)-(4)]
DOCKED: USER    Estimated Inhibition Constant, Ki   =  324.90 uM (micromolar)  [Temperature = 298.15 K]
DOCKED: USER    
DOCKED: USER    (1) Final Intermolecular Energy     =   -7.74 kcal/mol
DOCKED: USER        vdW + Hbond + desolv Energy     =   -8.13 kcal/mol
DOCKED: USER        Electrostatic Energy            =   +0.38 kcal/mol
DOCKED: USER    (2) Final Total Internal Energy     =   -2.32 kcal/mol
DOCKED: USER    (3) Torsional Free Energy           =   +2.98 kcal/mol
DOCKED: USER    (4) Unbound System's Energy  [=(2)] =   -2.32 kcal/mol
DOCKED: USER    
DOCKED: USER    
DOCKED: USER    NEWDPF move heme_Fe_opt.pdbqt
DOCKED: USER    NEWDPF about -0.174000 -0.001000 -0.047000
DOCKED: USER    NEWDPF tran0 9.568074 17.650662 -8.378609
DOCKED: USER    NEWDPF quaternion0 0.322739 0.230954 -0.753397 -0.524302
DOCKED: USER    NEWDPF axisangle0 0.379010 0.271222 -0.884755 -116.757483
DOCKED: USER    NEWDPF quat0 0.379010 0.271222 -0.884755 -116.757483
DOCKED: USER    NEWDPF dihe0 -159.72 -1.31 90.80 -152.30 -72.36 -79.58 146.73 107.15 -161.60 -179.27 
DOCKED: USER  keepresnum = 1 
DOCKED: USER  
DOCKED: REMARK  10 active torsions:
DOCKED: REMARK  status: ('A' for Active; 'I' for Inactive)
DOCKED: REMARK    1  A    between atoms: C_6  and  C_10 
DOCKED: REMARK    2  A    between atoms: C_10  and  C_11 
DOCKED: REMARK    3  A    between atoms: C_11  and  C_12 
DOCKED: REMARK    4  A    between atoms: C_12  and  O_14 
DOCKED: REMARK    5  A    between atoms: C_17  and  C_20 
DOCKED: REMARK    6  A    between atoms: C_24  and  C_27 
DOCKED: REMARK    7  A    between atoms: C_31  and  C_34 
DOCKED: REMARK    8  A    between atoms: C_34  and  C_35 
DOCKED: REMARK    9  A    between atoms: C_35  and  C_36 
DOCKED: REMARK   10  A    between atoms: C_36  and  O_38 
DOCKED: USER                              x       y       z     vdW  Elec       q    Type
DOCKED: USER                           _______ _______ _______ _____ _____    ______ ____
DOCKED: ROOT
DOCKED: ATOM      1  C   UNL d   1       9.862  18.575  -6.571 -0.12 -0.01    +0.064 C 
DOCKED: ATOM      2  C   UNL d   1       5.903  17.510  -9.332 -0.24 -0.02    +0.064 A 
DOCKED: ATOM      3  C   UNL d   1       8.602  14.489 -11.912 -0.18 +0.00    +0.064 C 
DOCKED: ATOM      4  C   UNL d   1      12.470  15.585  -9.319 -0.14 -0.00    +0.064 C 
DOCKED: ATOM      5  C   UNL d   1       8.517  18.619  -7.161 -0.12 -0.01    +0.066 A 
DOCKED: ATOM      6  C   UNL d   1       7.499  19.462  -6.749 -0.21 +0.00    -0.021 A 
DOCKED: ATOM      7  C   UNL d   1       6.399  19.163  -7.514 -0.27 +0.01    -0.025 A 
DOCKED: ATOM      8  C   UNL d   1       6.789  18.147  -8.365 -0.24 -0.01    +0.066 A 
DOCKED: ATOM      9  C   UNL d   1       5.061  19.833  -7.437 -0.33 -0.02    +0.051 C 
DOCKED: ATOM     10  C   UNL d   1       6.269  16.569 -10.204 -0.29 -0.01    +0.066 A 
DOCKED: ATOM     11  C   UNL d   1       5.373  15.896 -11.039 -0.37 +0.00    -0.021 A 
DOCKED: ATOM     12  C   UNL d   1       6.125  15.007 -11.781 -0.36 -0.00    +0.000 A 
DOCKED: ATOM     13  C   UNL d   1       7.452  15.179 -11.351 -0.23 -0.00    +0.070 A 
DOCKED: ATOM     14  C   UNL d   1       3.866  16.044 -11.079 -0.35 -0.01    +0.052 C 
DOCKED: ATOM     15  C   UNL d   1       9.875  14.613 -11.466 -0.23 +0.00    +0.066 A 
DOCKED: ATOM     16  C   UNL d   1      10.960  14.014 -12.093 -0.17 -0.00    -0.021 A 
DOCKED: ATOM     17  C   UNL d   1      12.076  14.326 -11.345 -0.14 +0.00    +0.000 A 
DOCKED: ATOM     18  C   UNL d   1      11.644  15.106 -10.275 -0.17 +0.00    +0.070 A 
DOCKED: ATOM     19  C   UNL d   1      10.948  13.160 -13.332 -0.13 +0.00    +0.052 C 
DOCKED: ATOM     20  C   UNL d   1      12.061  16.460  -8.213 -0.06 -0.00    +0.066 A 
DOCKED: ATOM     21  C   UNL d   1      12.859  16.798  -7.111 -0.09 +0.00    -0.025 A 
DOCKED: ATOM     22  C   UNL d   1      12.100  17.661  -6.347 -0.09 +0.00    -0.021 A 
DOCKED: ATOM     23  C   UNL d   1      10.874  17.809  -7.007 -0.07 -0.00    +0.066 A 
DOCKED: ATOM     24  C   UNL d   1      14.260  16.336  -6.783 -0.06 -0.00    +0.051 C 
DOCKED: ATOM     25  N   UNL d   1       8.080  17.825  -8.155 -0.06 +0.02    -0.248 N 
DOCKED: ATOM     26  N   UNL d   1       7.539  16.125 -10.383 -0.20 +0.03    -0.248 N 
DOCKED: ATOM     27  N   UNL d   1      10.298  15.320 -10.373 -0.18 -0.01    -0.248 N 
DOCKED: ATOM     28  N   UNL d   1      10.840  17.039  -8.121 +0.06 +0.00    -0.248 N 
DOCKED: ATOM     29 FE   UNL d   1       9.191  16.581  -9.252 -0.06 -0.00    +0.000 Fe
DOCKED: ENDROOT
DOCKED: BRANCH   6  30
DOCKED: ATOM     30  C   UNL d   1       7.571  20.515  -5.696 -0.19 -0.02    +0.052 C 
DOCKED: BRANCH  30  31
DOCKED: ATOM     31  C   UNL d   1       7.636  19.887  -4.308 -0.28 -0.03    +0.115 C 
DOCKED: BRANCH  31  32
DOCKED: ATOM     32  C   UNL d   1       6.846  18.609  -4.271 -0.42 -0.03    +0.139 C 
DOCKED: ATOM     33  O   UNL d   1       5.623  18.631  -4.291 -0.58 +0.16    -0.650 OA
DOCKED: BRANCH  32  34
DOCKED: ATOM     34  O   UNL d   1       7.480  17.425  -4.216 +0.01 +0.16    -0.776 OA
DOCKED: ATOM     35  H   UNL d   1       8.396  17.397  -3.907 +0.06 -0.04    +0.167 HD
DOCKED: ENDBRANCH  32  34
DOCKED: ENDBRANCH  31  32
DOCKED: ENDBRANCH  30  31
DOCKED: ENDBRANCH   6  30
DOCKED: BRANCH  22  36
DOCKED: ATOM     36  C   UNL d   1      12.515  18.269  -5.033 -0.06 -0.00    +0.052 C 
DOCKED: BRANCH  36  37
DOCKED: ATOM     37  C   UNL d   1      12.265  17.276  -3.907 -0.10 -0.01    +0.115 C 
DOCKED: BRANCH  37  38
DOCKED: ATOM     38  C   UNL d   1      10.798  17.160  -3.607 -0.20 -0.03    +0.139 C 
DOCKED: ATOM     39  O   UNL d   1      10.230  18.001  -2.927 +0.02 +0.11    -0.650 OA
DOCKED: BRANCH  38  40
DOCKED: ATOM     40  O   UNL d   1      10.095  16.118  -4.088 +0.10 +0.23    -0.776 OA
DOCKED: ATOM     41  H   UNL d   1       9.156  16.043  -3.868 -0.47 -0.08    +0.167 HD
DOCKED: ENDBRANCH  38  40
DOCKED: ENDBRANCH  37  38
DOCKED: ENDBRANCH  36  37
DOCKED: ENDBRANCH  22  36
DOCKED: BRANCH  12  42
DOCKED: ATOM     42  C   UNL d   1       5.573  14.066 -12.805 -0.44 +0.00    +0.004 C 
DOCKED: ATOM     43  C   UNL d   1       6.207  13.862 -13.966 -0.30 +0.00    +0.012 C 
DOCKED: ENDBRANCH  12  42
DOCKED: BRANCH  17  44
DOCKED: ATOM     44  C   UNL d   1      13.468  13.921 -11.646 -0.08 -0.00    +0.004 C 
DOCKED: ATOM     45  C   UNL d   1      14.022  12.868 -11.036 -0.11 -0.00    +0.012 C 
DOCKED: ENDBRANCH  17  44
DOCKED: TORSDOF 10
DOCKED: TER
DOCKED: ENDMDL
________________________________________________________________________________


	BEGINNING GENETIC ALGORITHM DOCKING 5 of 100
Run: 5 Seed: 1883345121 1464268870 [ Run 5 of 100 GA/GALS ]
Beginning LAMARCKIAN GENETIC ALGORITHM (LGA), with a maximum of 25000000 energy evaluations.

Final-Value: -12.049


	FINAL GENETIC ALGORITHM DOCKED STATE
	_______________________________________________


Detailed state:  trans -8.665 6.949 -12.751 quatxyzw 0.437017 0.525821 -0.117930 -0.720154 center -0.174 -0.001 -0.047 ntor 10 88.8180 -72.4137 -142.9414 63.0331 -22.6161 162.4511 48.6748 49.1629 -41.2917 160.4625
State:	 -8.665   6.949 -12.751   0.630  0.758 -0.170 -87.866     88.82  -72.41 -142.94   63.03  -22.62  162.45   48.67   49.16  -41.29  160.46

DOCKED: MODEL        5
DOCKED: USER    Run = 5
DOCKED: USER    DPF = D:/Protein_go_brrr/autodock/final/mut_K82N/heme_Fe/dock.dpf
DOCKED: USER  
DOCKED: USER    Estimated Free Energy of Binding    =   -7.08 kcal/mol  [=(1)+(2)+(3)-(4)]
DOCKED: USER    Estimated Inhibition Constant, Ki   =    6.44 uM (micromolar)  [Temperature = 298.15 K]
DOCKED: USER    
DOCKED: USER    (1) Final Intermolecular Energy     =  -10.06 kcal/mol
DOCKED: USER        vdW + Hbond + desolv Energy     =   -7.44 kcal/mol
DOCKED: USER        Electrostatic Energy            =   -2.63 kcal/mol
DOCKED: USER    (2) Final Total Internal Energy     =   -1.98 kcal/mol
DOCKED: USER    (3) Torsional Free Energy           =   +2.98 kcal/mol
DOCKED: USER    (4) Unbound System's Energy  [=(2)] =   -1.98 kcal/mol
DOCKED: USER    
DOCKED: USER    
DOCKED: USER    NEWDPF move heme_Fe_opt.pdbqt
DOCKED: USER    NEWDPF about -0.174000 -0.001000 -0.047000
DOCKED: USER    NEWDPF tran0 -8.664881 6.949095 -12.751245
DOCKED: USER    NEWDPF quaternion0 0.437017 0.525821 -0.117930 -0.720154
DOCKED: USER    NEWDPF axisangle0 0.629875 0.757869 -0.169973 -87.865684
DOCKED: USER    NEWDPF quat0 0.629875 0.757869 -0.169973 -87.865684
DOCKED: USER    NEWDPF dihe0 88.82 -72.41 -142.94 63.03 -22.62 162.45 48.67 49.16 -41.29 160.46 
DOCKED: USER  keepresnum = 1 
DOCKED: USER  
DOCKED: REMARK  10 active torsions:
DOCKED: REMARK  status: ('A' for Active; 'I' for Inactive)
DOCKED: REMARK    1  A    between atoms: C_6  and  C_10 
DOCKED: REMARK    2  A    between atoms: C_10  and  C_11 
DOCKED: REMARK    3  A    between atoms: C_11  and  C_12 
DOCKED: REMARK    4  A    between atoms: C_12  and  O_14 
DOCKED: REMARK    5  A    between atoms: C_17  and  C_20 
DOCKED: REMARK    6  A    between atoms: C_24  and  C_27 
DOCKED: REMARK    7  A    between atoms: C_31  and  C_34 
DOCKED: REMARK    8  A    between atoms: C_34  and  C_35 
DOCKED: REMARK    9  A    between atoms: C_35  and  C_36 
DOCKED: REMARK   10  A    between atoms: C_36  and  O_38 
DOCKED: USER                              x       y       z     vdW  Elec       q    Type
DOCKED: USER                           _______ _______ _______ _____ _____    ______ ____
DOCKED: ROOT
DOCKED: ATOM      1  C   UNL d   1      -9.184   5.939 -11.042 -0.18 +0.01    +0.064 C 
DOCKED: ATOM      2  C   UNL d   1      -9.873   5.181 -15.877 -0.23 +0.02    +0.064 A 
DOCKED: ATOM      3  C   UNL d   1      -6.514   8.487 -16.804 -0.14 -0.01    +0.064 C 
DOCKED: ATOM      4  C   UNL d   1      -5.907   9.312 -12.131 -0.25 -0.01    +0.064 C 
DOCKED: ATOM      5  C   UNL d   1      -9.749   5.480 -12.318 -0.18 +0.01    +0.066 A 
DOCKED: ATOM      6  C   UNL d   1     -10.817   4.606 -12.441 -0.17 -0.01    -0.021 A 
DOCKED: ATOM      7  C   UNL d   1     -11.005   4.392 -13.784 -0.20 -0.01    -0.025 A 
DOCKED: ATOM      8  C   UNL d   1     -10.044   5.146 -14.430 -0.23 +0.02    +0.066 A 
DOCKED: ATOM      9  C   UNL d   1     -12.062   3.529 -14.402 -0.20 +0.04    +0.051 C 
DOCKED: ATOM     10  C   UNL d   1      -8.992   5.943 -16.528 -0.24 +0.00    +0.066 A 
DOCKED: ATOM     11  C   UNL d   1      -8.774   5.870 -17.906 -0.22 +0.00    -0.021 A 
DOCKED: ATOM     12  C   UNL d   1      -7.798   6.802 -18.196 -0.16 -0.00    +0.000 A 
DOCKED: ATOM     13  C   UNL d   1      -7.462   7.395 -16.967 -0.17 -0.01    +0.070 A 
DOCKED: ATOM     14  C   UNL d   1      -9.415   4.912 -18.889 -0.22 +0.01    +0.052 C 
DOCKED: ATOM     15  C   UNL d   1      -6.149   9.026 -15.617 -0.11 -0.01    +0.066 A 
DOCKED: ATOM     16  C   UNL d   1      -5.317  10.133 -15.510 -0.10 +0.00    -0.021 A 
DOCKED: ATOM     17  C   UNL d   1      -5.138  10.371 -14.163 -0.21 -0.00    +0.000 A 
DOCKED: ATOM     18  C   UNL d   1      -5.862   9.398 -13.478 -0.18 -0.01    +0.070 A 
DOCKED: ATOM     19  C   UNL d   1      -4.693  10.923 -16.629 -0.08 -0.02    +0.052 C 
DOCKED: ATOM     20  C   UNL d   1      -6.707   8.341 -11.375 -0.19 -0.00    +0.066 A 
DOCKED: ATOM     21  C   UNL d   1      -6.609   8.109  -9.996 -0.27 -0.00    -0.025 A 
DOCKED: ATOM     22  C   UNL d   1      -7.561   7.154  -9.705 -0.20 -0.00    -0.021 A 
DOCKED: ATOM     23  C   UNL d   1      -8.194   6.837 -10.913 -0.12 +0.01    +0.066 A 
DOCKED: ATOM     24  C   UNL d   1      -5.671   8.745  -8.997 -0.47 -0.00    +0.051 C 
DOCKED: ATOM     25  N   UNL d   1      -9.288   5.813 -13.536 -0.08 -0.03    -0.248 N 
DOCKED: ATOM     26  N   UNL d   1      -8.183   6.866 -15.949 -0.14 +0.01    -0.248 N 
DOCKED: ATOM     27  N   UNL d   1      -6.520   8.598 -14.370 -0.06 +0.02    -0.248 N 
DOCKED: ATOM     28  N   UNL d   1      -7.638   7.531 -11.935 +0.05 -0.01    -0.248 N 
DOCKED: ATOM     29 FE   UNL d   1      -7.910   7.200 -13.941 -0.04 +0.00    +0.000 Fe
DOCKED: ENDROOT
DOCKED: BRANCH   6  30
DOCKED: ATOM     30  C   UNL d   1     -11.632   4.018 -11.341 -0.14 +0.02    +0.052 C 
DOCKED: BRANCH  30  31
DOCKED: ATOM     31  C   UNL d   1     -12.066   5.096 -10.354 -0.06 +0.05    +0.115 C 
DOCKED: BRANCH  31  32
DOCKED: ATOM     32  C   UNL d   1     -11.779   4.664  -8.943 -0.09 +0.14    +0.139 C 
DOCKED: ATOM     33  O   UNL d   1     -11.665   3.479  -8.665 -0.10 -0.85    -0.650 OA
DOCKED: BRANCH  32  34
DOCKED: ATOM     34  O   UNL d   1     -11.645   5.582  -7.970 +0.03 -1.10    -0.776 OA
DOCKED: ATOM     35  H   UNL d   1     -10.765   5.933  -7.774 +0.03 +0.22    +0.167 HD
DOCKED: ENDBRANCH  32  34
DOCKED: ENDBRANCH  31  32
DOCKED: ENDBRANCH  30  31
DOCKED: ENDBRANCH   6  30
DOCKED: BRANCH  22  36
DOCKED: ATOM     36  C   UNL d   1      -7.812   6.546  -8.350 -0.10 +0.02    +0.052 C 
DOCKED: BRANCH  36  37
DOCKED: ATOM     37  C   UNL d   1      -7.194   5.157  -8.289 -0.09 +0.03    +0.115 C 
DOCKED: BRANCH  37  38
DOCKED: ATOM     38  C   UNL d   1      -8.172   4.156  -7.741 -0.27 +0.09    +0.139 C 
DOCKED: ATOM     39  O   UNL d   1      -7.997   2.957  -7.904 -0.04 -0.32    -0.650 OA
DOCKED: BRANCH  38  40
DOCKED: ATOM     40  O   UNL d   1      -9.256   4.577  -7.066 -0.38 -1.35    -0.776 OA
DOCKED: ATOM     41  H   UNL d   1     -10.125   4.516  -7.487 +0.06 +0.42    +0.167 HD
DOCKED: ENDBRANCH  38  40
DOCKED: ENDBRANCH  37  38
DOCKED: ENDBRANCH  36  37
DOCKED: ENDBRANCH  22  36
DOCKED: BRANCH  12  42
DOCKED: ATOM     42  C   UNL d   1      -7.240   7.062 -19.560 -0.14 -0.00    +0.004 C 
DOCKED: ATOM     43  C   UNL d   1      -6.115   6.462 -19.970 -0.21 -0.00    +0.012 C 
DOCKED: ENDBRANCH  12  42
DOCKED: BRANCH  17  44
DOCKED: ATOM     44  C   UNL d   1      -4.341  11.469 -13.571 -0.46 -0.00    +0.004 C 
DOCKED: ATOM     45  C   UNL d   1      -4.924  12.407 -12.817 -0.50 -0.00    +0.012 C 
DOCKED: ENDBRANCH  17  44
DOCKED: TORSDOF 10
DOCKED: TER
DOCKED: ENDMDL
________________________________________________________________________________


	BEGINNING GENETIC ALGORITHM DOCKING 6 of 100
Run: 6 Seed: 1763898627 1193856257 [ Run 6 of 100 GA/GALS ]
Beginning LAMARCKIAN GENETIC ALGORITHM (LGA), with a maximum of 25000000 energy evaluations.

Final-Value: -9.685


	FINAL GENETIC ALGORITHM DOCKED STATE
	_______________________________________________


Detailed state:  trans 12.464 2.440 16.203 quatxyzw 0.721680 0.153988 -0.655141 -0.162037 center -0.174 -0.001 -0.047 ntor 10 33.3150 -167.1428 -178.6320 -116.5724 -69.5789 -51.4662 102.1763 129.3639 0.5465 23.4625
State:	 12.464   2.440  16.203   0.731  0.156 -0.664 -161.350     33.32 -167.14 -178.63 -116.57  -69.58  -51.47  102.18  129.36    0.55   23.46

DOCKED: MODEL        6
DOCKED: USER    Run = 6
DOCKED: USER    DPF = D:/Protein_go_brrr/autodock/final/mut_K82N/heme_Fe/dock.dpf
DOCKED: USER  
DOCKED: USER    Estimated Free Energy of Binding    =   -4.36 kcal/mol  [=(1)+(2)+(3)-(4)]
DOCKED: USER    Estimated Inhibition Constant, Ki   =  637.12 uM (micromolar)  [Temperature = 298.15 K]
DOCKED: USER    
DOCKED: USER    (1) Final Intermolecular Energy     =   -7.34 kcal/mol
DOCKED: USER        vdW + Hbond + desolv Energy     =   -6.95 kcal/mol
DOCKED: USER        Electrostatic Energy            =   -0.39 kcal/mol
DOCKED: USER    (2) Final Total Internal Energy     =   -2.34 kcal/mol
DOCKED: USER    (3) Torsional Free Energy           =   +2.98 kcal/mol
DOCKED: USER    (4) Unbound System's Energy  [=(2)] =   -2.34 kcal/mol
DOCKED: USER    
DOCKED: USER    
DOCKED: USER    NEWDPF move heme_Fe_opt.pdbqt
DOCKED: USER    NEWDPF about -0.174000 -0.001000 -0.047000
DOCKED: USER    NEWDPF tran0 12.464276 2.439746 16.203328
DOCKED: USER    NEWDPF quaternion0 0.721680 0.153988 -0.655141 -0.162037
DOCKED: USER    NEWDPF axisangle0 0.731345 0.156050 -0.663915 -161.349701
DOCKED: USER    NEWDPF quat0 0.731345 0.156050 -0.663915 -161.349701
DOCKED: USER    NEWDPF dihe0 33.32 -167.14 -178.63 -116.57 -69.58 -51.47 102.18 129.36 0.55 23.46 
DOCKED: USER  keepresnum = 1 
DOCKED: USER  
DOCKED: REMARK  10 active torsions:
DOCKED: REMARK  status: ('A' for Active; 'I' for Inactive)
DOCKED: REMARK    1  A    between atoms: C_6  and  C_10 
DOCKED: REMARK    2  A    between atoms: C_10  and  C_11 
DOCKED: REMARK    3  A    between atoms: C_11  and  C_12 
DOCKED: REMARK    4  A    between atoms: C_12  and  O_14 
DOCKED: REMARK    5  A    between atoms: C_17  and  C_20 
DOCKED: REMARK    6  A    between atoms: C_24  and  C_27 
DOCKED: REMARK    7  A    between atoms: C_31  and  C_34 
DOCKED: REMARK    8  A    between atoms: C_34  and  C_35 
DOCKED: REMARK    9  A    between atoms: C_35  and  C_36 
DOCKED: REMARK   10  A    between atoms: C_36  and  O_38 
DOCKED: USER                              x       y       z     vdW  Elec       q    Type
DOCKED: USER                           _______ _______ _______ _____ _____    ______ ____
DOCKED: ROOT
DOCKED: ATOM      1  C   UNL d   1      11.776   2.241  18.126 -0.24 +0.00    +0.064 C 
DOCKED: ATOM      2  C   UNL d   1      10.848   5.355  14.401 -0.21 -0.01    +0.064 A 
DOCKED: ATOM      3  C   UNL d   1      13.025   2.303  11.399 -0.16 -0.01    +0.064 C 
DOCKED: ATOM      4  C   UNL d   1      14.026  -0.675  15.007 -0.25 -0.00    +0.064 C 
DOCKED: ATOM      5  C   UNL d   1      11.386   3.440  17.370 -0.15 +0.00    +0.066 A 
DOCKED: ATOM      6  C   UNL d   1      10.830   4.580  17.926 -0.12 -0.00    -0.021 A 
DOCKED: ATOM      7  C   UNL d   1      10.569   5.442  16.891 -0.16 -0.00    -0.025 A 
DOCKED: ATOM      8  C   UNL d   1      10.977   4.795  15.741 -0.20 -0.01    +0.066 A 
DOCKED: ATOM      9  C   UNL d   1       9.980   6.814  17.012 -0.17 -0.00    +0.051 C 
DOCKED: ATOM     10  C   UNL d   1      11.286   4.776  13.281 -0.19 -0.01    +0.066 A 
DOCKED: ATOM     11  C   UNL d   1      11.046   5.284  12.002 -0.23 +0.00    -0.021 A 
DOCKED: ATOM     12  C   UNL d   1      11.649   4.412  11.117 -0.15 -0.00    +0.000 A 
DOCKED: ATOM     13  C   UNL d   1      12.225   3.404  11.910 -0.12 -0.00    +0.070 A 
DOCKED: ATOM     14  C   UNL d   1      10.223   6.502  11.636 -0.33 -0.00    +0.052 C 
DOCKED: ATOM     15  C   UNL d   1      13.538   1.301  12.153 -0.14 -0.01    +0.066 A 
DOCKED: ATOM     16  C   UNL d   1      14.381   0.323  11.642 -0.11 +0.00    -0.021 A 
DOCKED: ATOM     17  C   UNL d   1      14.668  -0.540  12.680 -0.20 -0.00    +0.000 A 
DOCKED: ATOM     18  C   UNL d   1      13.989  -0.068  13.801 -0.18 -0.01    +0.070 A 
DOCKED: ATOM     19  C   UNL d   1      14.878   0.186  10.228 -0.09 -0.01    +0.052 C 
DOCKED: ATOM     20  C   UNL d   1      13.374  -0.174  16.223 -0.21 -0.01    +0.066 A 
DOCKED: ATOM     21  C   UNL d   1      13.237  -0.889  17.421 -0.27 +0.00    -0.025 A 
DOCKED: ATOM     22  C   UNL d   1      12.604  -0.034  18.300 -0.29 +0.00    -0.021 A 
DOCKED: ATOM     23  C   UNL d   1      12.376   1.159  17.606 -0.24 -0.00    +0.066 A 
DOCKED: ATOM     24  C   UNL d   1      13.670  -2.303  17.732 -0.13 +0.00    +0.051 C 
DOCKED: ATOM     25  N   UNL d   1      11.483   3.581  16.037 -0.13 +0.02    -0.248 N 
DOCKED: ATOM     26  N   UNL d   1      11.996   3.621  13.229 -0.09 +0.02    -0.248 N 
DOCKED: ATOM     27  N   UNL d   1      13.329   1.088  13.489 -0.07 +0.04    -0.248 N 
DOCKED: ATOM     28  N   UNL d   1      12.808   1.052  16.325 -0.11 +0.03    -0.248 N 
DOCKED: ATOM     29 FE   UNL d   1      12.403   2.335  14.777 -0.04 -0.00    +0.000 Fe
DOCKED: ENDROOT
DOCKED: BRANCH   6  30
DOCKED: ATOM     30  C   UNL d   1      10.578   4.847  19.371 -0.23 +0.01    +0.052 C 
DOCKED: BRANCH  30  31
DOCKED: ATOM     31  C   UNL d   1      11.788   5.514  20.017 -0.11 +0.03    +0.115 C 
DOCKED: BRANCH  31  32
DOCKED: ATOM     32  C   UNL d   1      12.860   4.498  20.297 -0.11 +0.04    +0.139 C 
DOCKED: ATOM     33  O   UNL d   1      12.706   3.652  21.166 -0.02 -0.32    -0.650 OA
DOCKED: BRANCH  32  34
DOCKED: ATOM     34  O   UNL d   1      14.004   4.512  19.591 +0.03 -0.11    -0.776 OA
DOCKED: ATOM     35  H   UNL d   1      14.448   3.674  19.400 +0.02 +0.02    +0.167 HD
DOCKED: ENDBRANCH  32  34
DOCKED: ENDBRANCH  31  32
DOCKED: ENDBRANCH  30  31
DOCKED: ENDBRANCH   6  30
DOCKED: BRANCH  22  36
DOCKED: ATOM     36  C   UNL d   1      12.199  -0.367  19.712 -0.28 +0.00    +0.052 C 
DOCKED: BRANCH  36  37
DOCKED: ATOM     37  C   UNL d   1      12.884   0.586  20.681 -0.15 +0.03    +0.115 C 
DOCKED: BRANCH  37  38
DOCKED: ATOM     38  C   UNL d   1      14.366   0.632  20.433 -0.08 +0.02    +0.139 C 
DOCKED: ATOM     39  O   UNL d   1      15.022  -0.398  20.375 +0.03 -0.06    -0.650 OA
DOCKED: BRANCH  38  40
DOCKED: ATOM     40  O   UNL d   1      14.984   1.816  20.276 +0.03 -0.11    -0.776 OA
DOCKED: ATOM     41  H   UNL d   1      14.510   2.627  20.505 +0.02 +0.03    +0.167 HD
DOCKED: ENDBRANCH  38  40
DOCKED: ENDBRANCH  37  38
DOCKED: ENDBRANCH  36  37
DOCKED: ENDBRANCH  22  36
DOCKED: BRANCH  12  42
DOCKED: ATOM     42  C   UNL d   1      11.636   4.559   9.629 -0.27 -0.00    +0.004 C 
DOCKED: ATOM     43  C   UNL d   1      11.302   3.531   8.838 -0.35 -0.00    +0.012 C 
DOCKED: ENDBRANCH  12  42
DOCKED: BRANCH  17  44
DOCKED: ATOM     44  C   UNL d   1      15.551  -1.726  12.609 -0.23 -0.00    +0.004 C 
DOCKED: ATOM     45  C   UNL d   1      15.253  -2.754  11.809 -0.27 -0.00    +0.012 C 
DOCKED: ENDBRANCH  17  44
DOCKED: TORSDOF 10
DOCKED: TER
DOCKED: ENDMDL
________________________________________________________________________________


	BEGINNING GENETIC ALGORITHM DOCKING 7 of 100
Run: 7 Seed: 897655904 2035823333 [ Run 7 of 100 GA/GALS ]
Beginning LAMARCKIAN GENETIC ALGORITHM (LGA), with a maximum of 25000000 energy evaluations.

Final-Value: -11.817


	FINAL GENETIC ALGORITHM DOCKED STATE
	_______________________________________________


Detailed state:  trans -8.996 10.268 -10.334 quatxyzw -0.706735 -0.551545 0.394702 0.201334 center -0.174 -0.001 -0.047 ntor 10 -87.1990 -57.9650 69.9667 -168.8539 56.2880 -135.0069 -42.4181 46.3428 169.2835 146.1432
State:	 -8.996  10.268 -10.334  -0.722 -0.563  0.403 156.770    -87.20  -57.97   69.97 -168.85   56.29 -135.01  -42.42   46.34  169.28  146.14

DOCKED: MODEL        7
DOCKED: USER    Run = 7
DOCKED: USER    DPF = D:/Protein_go_brrr/autodock/final/mut_K82N/heme_Fe/dock.dpf
DOCKED: USER  
DOCKED: USER    Estimated Free Energy of Binding    =   -6.45 kcal/mol  [=(1)+(2)+(3)-(4)]
DOCKED: USER    Estimated Inhibition Constant, Ki   =   18.73 uM (micromolar)  [Temperature = 298.15 K]
DOCKED: USER    
DOCKED: USER    (1) Final Intermolecular Energy     =   -9.43 kcal/mol
DOCKED: USER        vdW + Hbond + desolv Energy     =   -6.21 kcal/mol
DOCKED: USER        Electrostatic Energy            =   -3.23 kcal/mol
DOCKED: USER    (2) Final Total Internal Energy     =   -2.38 kcal/mol
DOCKED: USER    (3) Torsional Free Energy           =   +2.98 kcal/mol
DOCKED: USER    (4) Unbound System's Energy  [=(2)] =   -2.38 kcal/mol
DOCKED: USER    
DOCKED: USER    
DOCKED: USER    NEWDPF move heme_Fe_opt.pdbqt
DOCKED: USER    NEWDPF about -0.174000 -0.001000 -0.047000
DOCKED: USER    NEWDPF tran0 -8.996299 10.268018 -10.334195
DOCKED: USER    NEWDPF quaternion0 -0.706735 -0.551545 0.394702 0.201334
DOCKED: USER    NEWDPF axisangle0 -0.721509 -0.563075 0.402953 156.770085
DOCKED: USER    NEWDPF quat0 -0.721509 -0.563075 0.402953 156.770085
DOCKED: USER    NEWDPF dihe0 -87.20 -57.97 69.97 -168.85 56.29 -135.01 -42.42 46.34 169.28 146.14 
DOCKED: USER  keepresnum = 1 
DOCKED: USER  
DOCKED: REMARK  10 active torsions:
DOCKED: REMARK  status: ('A' for Active; 'I' for Inactive)
DOCKED: REMARK    1  A    between atoms: C_6  and  C_10 
DOCKED: REMARK    2  A    between atoms: C_10  and  C_11 
DOCKED: REMARK    3  A    between atoms: C_11  and  C_12 
DOCKED: REMARK    4  A    between atoms: C_12  and  O_14 
DOCKED: REMARK    5  A    between atoms: C_17  and  C_20 
DOCKED: REMARK    6  A    between atoms: C_24  and  C_27 
DOCKED: REMARK    7  A    between atoms: C_31  and  C_34 
DOCKED: REMARK    8  A    between atoms: C_34  and  C_35 
DOCKED: REMARK    9  A    between atoms: C_35  and  C_36 
DOCKED: REMARK   10  A    between atoms: C_36  and  O_38 
DOCKED: USER                              x       y       z     vdW  Elec       q    Type
DOCKED: USER                           _______ _______ _______ _____ _____    ______ ____
DOCKED: ROOT
DOCKED: ATOM      1  C   UNL d   1      -9.389   8.674  -9.103 -0.12 +0.01    +0.064 C 
DOCKED: ATOM      2  C   UNL d   1     -12.152  12.113 -11.332 -0.03 +0.01    +0.064 A 
DOCKED: ATOM      3  C   UNL d   1      -8.405  13.213 -14.128 -0.09 +0.00    +0.064 C 
DOCKED: ATOM      4  C   UNL d   1      -5.681   9.963 -11.913 -0.20 -0.02    +0.064 C 
DOCKED: ATOM      5  C   UNL d   1     -10.489   9.597  -9.415 -0.05 +0.01    +0.066 A 
DOCKED: ATOM      6  C   UNL d   1     -11.693   9.650  -8.733 -0.02 -0.01    -0.021 A 
DOCKED: ATOM      7  C   UNL d   1     -12.462  10.603  -9.355 -0.01 -0.01    -0.025 A 
DOCKED: ATOM      8  C   UNL d   1     -11.695  11.095 -10.394 -0.03 +0.01    +0.066 A 
DOCKED: ATOM      9  C   UNL d   1     -13.843  11.022  -8.955 -0.00 +0.01    +0.051 C 
DOCKED: ATOM     10  C   UNL d   1     -11.413  12.646 -12.307 -0.05 +0.01    +0.066 A 
DOCKED: ATOM     11  C   UNL d   1     -11.914  13.534 -13.261 -0.03 -0.00    -0.021 A 
DOCKED: ATOM     12  C   UNL d   1     -10.857  13.854 -14.090 -0.04 +0.00    +0.000 A 
DOCKED: ATOM     13  C   UNL d   1      -9.757  13.130 -13.598 -0.05 +0.01    +0.070 A 
DOCKED: ATOM     14  C   UNL d   1     -13.346  14.003 -13.419 -0.01 +0.00    +0.052 C 
DOCKED: ATOM     15  C   UNL d   1      -7.354  12.479 -13.691 -0.14 +0.00    +0.066 A 
DOCKED: ATOM     16  C   UNL d   1      -6.057  12.660 -14.155 -0.25 +0.00    -0.021 A 
DOCKED: ATOM     17  C   UNL d   1      -5.271  11.721 -13.520 -0.36 -0.00    +0.000 A 
DOCKED: ATOM     18  C   UNL d   1      -6.108  10.986 -12.685 -0.27 -0.01    +0.070 A 
DOCKED: ATOM     19  C   UNL d   1      -5.578  13.657 -15.175 -0.24 -0.02    +0.052 C 
DOCKED: ATOM     20  C   UNL d   1      -6.521   9.207 -10.976 -0.24 -0.00    +0.066 A 
DOCKED: ATOM     21  C   UNL d   1      -6.145   8.025 -10.322 -0.29 +0.00    -0.025 A 
DOCKED: ATOM     22  C   UNL d   1      -7.211   7.682  -9.517 -0.24 -0.00    -0.021 A 
DOCKED: ATOM     23  C   UNL d   1      -8.194   8.660  -9.715 -0.14 +0.01    +0.066 A 
DOCKED: ATOM     24  C   UNL d   1      -4.854   7.249 -10.446 -0.43 -0.00    +0.051 C 
DOCKED: ATOM     25  N   UNL d   1     -10.492  10.488 -10.422 -0.04 -0.05    -0.248 N 
DOCKED: ATOM     26  N   UNL d   1     -10.097  12.386 -12.517 -0.06 -0.06    -0.248 N 
DOCKED: ATOM     27  N   UNL d   1      -7.381  11.480 -12.756 -0.11 -0.01    -0.248 N 
DOCKED: ATOM     28  N   UNL d   1      -7.785   9.563 -10.639 -0.10 -0.02    -0.248 N 
DOCKED: ATOM     29 FE   UNL d   1      -8.939  10.974 -11.578 -0.03 +0.00    +0.000 Fe
DOCKED: ENDROOT
DOCKED: BRANCH   6  30
DOCKED: ATOM     30  C   UNL d   1     -12.089   8.853  -7.538 -0.03 +0.02    +0.052 C 
DOCKED: BRANCH  30  31
DOCKED: ATOM     31  C   UNL d   1     -13.002   7.699  -7.936 -0.02 +0.05    +0.115 C 
DOCKED: BRANCH  31  32
DOCKED: ATOM     32  C   UNL d   1     -12.618   6.445  -7.200 -0.02 +0.15    +0.139 C 
DOCKED: ATOM     33  O   UNL d   1     -12.579   6.428  -5.977 -0.39 -1.01    -0.650 OA
DOCKED: BRANCH  32  34
DOCKED: ATOM     34  O   UNL d   1     -12.314   5.328  -7.882 +0.05 -1.15    -0.776 OA
DOCKED: ATOM     35  H   UNL d   1     -11.389   5.154  -8.107 +0.02 +0.26    +0.167 HD
DOCKED: ENDBRANCH  32  34
DOCKED: ENDBRANCH  31  32
DOCKED: ENDBRANCH  30  31
DOCKED: ENDBRANCH   6  30
DOCKED: BRANCH  22  36
DOCKED: ATOM     36  C   UNL d   1      -7.298   6.457  -8.646 -0.16 +0.01    +0.052 C 
DOCKED: BRANCH  36  37
DOCKED: ATOM     37  C   UNL d   1      -8.435   5.567  -9.124 -0.21 +0.04    +0.115 C 
DOCKED: BRANCH  37  38
DOCKED: ATOM     38  C   UNL d   1      -9.266   5.087  -7.968 -0.18 +0.14    +0.139 C 
DOCKED: ATOM     39  O   UNL d   1      -9.612   3.917  -7.889 -0.20 -0.92    -0.650 OA
DOCKED: BRANCH  38  40
DOCKED: ATOM     40  O   UNL d   1      -9.640   5.950  -7.007 -0.50 -1.03    -0.776 OA
DOCKED: ATOM     41  H   UNL d   1     -10.583   6.073  -6.826 +0.03 +0.31    +0.167 HD
DOCKED: ENDBRANCH  38  40
DOCKED: ENDBRANCH  37  38
DOCKED: ENDBRANCH  36  37
DOCKED: ENDBRANCH  22  36
DOCKED: BRANCH  12  42
DOCKED: ATOM     42  C   UNL d   1     -10.938  14.773 -15.266 -0.02 +0.00    +0.004 C 
DOCKED: ATOM     43  C   UNL d   1     -10.223  15.905 -15.308 -0.04 +0.00    +0.012 C 
DOCKED: ENDBRANCH  12  42
DOCKED: BRANCH  17  44
DOCKED: ATOM     44  C   UNL d   1      -3.809  11.552 -13.687 -0.49 -0.00    +0.004 C 
DOCKED: ATOM     45  C   UNL d   1      -3.306  10.438 -14.227 -0.40 -0.00    +0.012 C 
DOCKED: ENDBRANCH  17  44
DOCKED: TORSDOF 10
DOCKED: TER
DOCKED: ENDMDL
________________________________________________________________________________


	BEGINNING GENETIC ALGORITHM DOCKING 8 of 100
Run: 8 Seed: 1536492402 907190983 [ Run 8 of 100 GA/GALS ]
Beginning LAMARCKIAN GENETIC ALGORITHM (LGA), with a maximum of 25000000 energy evaluations.

Final-Value: -12.081


	FINAL GENETIC ALGORITHM DOCKED STATE
	_______________________________________________


Detailed state:  trans -9.076 6.697 -14.047 quatxyzw -0.653644 -0.120893 -0.333235 0.668647 center -0.174 -0.001 -0.047 ntor 10 -34.1279 112.7106 71.1966 49.4445 147.5580 62.5969 32.5394 -46.2471 2.8727 26.9010
State:	 -9.076   6.697 -14.047  -0.879 -0.163 -0.448 96.075    -34.13  112.71   71.20   49.44  147.56   62.60   32.54  -46.25    2.87   26.90

DOCKED: MODEL        8
DOCKED: USER    Run = 8
DOCKED: USER    DPF = D:/Protein_go_brrr/autodock/final/mut_K82N/heme_Fe/dock.dpf
DOCKED: USER  
DOCKED: USER    Estimated Free Energy of Binding    =   -7.41 kcal/mol  [=(1)+(2)+(3)-(4)]
DOCKED: USER    Estimated Inhibition Constant, Ki   =    3.73 uM (micromolar)  [Temperature = 298.15 K]
DOCKED: USER    
DOCKED: USER    (1) Final Intermolecular Energy     =  -10.39 kcal/mol
DOCKED: USER        vdW + Hbond + desolv Energy     =   -7.89 kcal/mol
DOCKED: USER        Electrostatic Energy            =   -2.50 kcal/mol
DOCKED: USER    (2) Final Total Internal Energy     =   -1.69 kcal/mol
DOCKED: USER    (3) Torsional Free Energy           =   +2.98 kcal/mol
DOCKED: USER    (4) Unbound System's Energy  [=(2)] =   -1.69 kcal/mol
DOCKED: USER    
DOCKED: USER    
DOCKED: USER    NEWDPF move heme_Fe_opt.pdbqt
DOCKED: USER    NEWDPF about -0.174000 -0.001000 -0.047000
DOCKED: USER    NEWDPF tran0 -9.076118 6.697135 -14.047342
DOCKED: USER    NEWDPF quaternion0 -0.653644 -0.120893 -0.333235 0.668647
DOCKED: USER    NEWDPF axisangle0 -0.879050 -0.162582 -0.448150 96.074550
DOCKED: USER    NEWDPF quat0 -0.879050 -0.162582 -0.448150 96.074550
DOCKED: USER    NEWDPF dihe0 -34.13 112.71 71.20 49.44 147.56 62.60 32.54 -46.25 2.87 26.90 
DOCKED: USER  keepresnum = 1 
DOCKED: USER  
DOCKED: REMARK  10 active torsions:
DOCKED: REMARK  status: ('A' for Active; 'I' for Inactive)
DOCKED: REMARK    1  A    between atoms: C_6  and  C_10 
DOCKED: REMARK    2  A    between atoms: C_10  and  C_11 
DOCKED: REMARK    3  A    between atoms: C_11  and  C_12 
DOCKED: REMARK    4  A    between atoms: C_12  and  O_14 
DOCKED: REMARK    5  A    between atoms: C_17  and  C_20 
DOCKED: REMARK    6  A    between atoms: C_24  and  C_27 
DOCKED: REMARK    7  A    between atoms: C_31  and  C_34 
DOCKED: REMARK    8  A    between atoms: C_34  and  C_35 
DOCKED: REMARK    9  A    between atoms: C_35  and  C_36 
DOCKED: REMARK   10  A    between atoms: C_36  and  O_38 
DOCKED: USER                              x       y       z     vdW  Elec       q    Type
DOCKED: USER                           _______ _______ _______ _____ _____    ______ ____
DOCKED: ROOT
DOCKED: ATOM      1  C   UNL d   1     -10.225   5.084 -14.585 -0.26 +0.02    +0.064 C 
DOCKED: ATOM      2  C   UNL d   1      -6.650   7.697 -16.781 -0.18 -0.01    +0.064 A 
DOCKED: ATOM      3  C   UNL d   1      -5.527   9.611 -12.521 -0.21 -0.01    +0.064 C 
DOCKED: ATOM      4  C   UNL d   1      -9.049   7.171 -10.394 -0.12 +0.01    +0.064 C 
DOCKED: ATOM      5  C   UNL d   1      -9.377   5.705 -15.612 -0.25 +0.01    +0.066 A 
DOCKED: ATOM      6  C   UNL d   1      -9.492   5.479 -16.974 -0.23 -0.00    -0.021 A 
DOCKED: ATOM      7  C   UNL d   1      -8.496   6.202 -17.583 -0.22 +0.00    -0.025 A 
DOCKED: ATOM      8  C   UNL d   1      -7.812   6.842 -16.568 -0.21 -0.01    +0.066 A 
DOCKED: ATOM      9  C   UNL d   1      -8.238   6.283 -19.056 -0.18 -0.01    +0.051 C 
DOCKED: ATOM     10  C   UNL d   1      -6.007   8.371 -15.826 -0.16 -0.01    +0.066 A 
DOCKED: ATOM     11  C   UNL d   1      -4.829   9.090 -16.044 -0.15 +0.00    -0.021 A 
DOCKED: ATOM     12  C   UNL d   1      -4.475   9.638 -14.827 -0.22 -0.00    +0.000 A 
DOCKED: ATOM     13  C   UNL d   1      -5.461   9.214 -13.919 -0.19 -0.01    +0.070 A 
DOCKED: ATOM     14  C   UNL d   1      -4.041   9.193 -17.334 -0.12 -0.01    +0.052 C 
DOCKED: ATOM     15  C   UNL d   1      -6.444   9.165 -11.631 -0.21 -0.01    +0.066 A 
DOCKED: ATOM     16  C   UNL d   1      -6.535   9.644 -10.330 -0.33 +0.00    -0.021 A 
DOCKED: ATOM     17  C   UNL d   1      -7.548   8.939  -9.714 -0.23 +0.00    +0.000 A 
DOCKED: ATOM     18  C   UNL d   1      -8.050   8.042 -10.653 -0.12 +0.01    +0.070 A 
DOCKED: ATOM     19  C   UNL d   1      -5.687  10.705  -9.682 -0.50 -0.01    +0.052 C 
DOCKED: ATOM     20  C   UNL d   1      -9.644   6.255 -11.375 -0.12 +0.01    +0.066 A 
DOCKED: ATOM     21  C   UNL d   1     -10.536   5.215 -11.075 -0.14 -0.01    -0.025 A 
DOCKED: ATOM     22  C   UNL d   1     -10.867   4.642 -12.285 -0.16 -0.01    -0.021 A 
DOCKED: ATOM     23  C   UNL d   1     -10.164   5.347 -13.270 -0.18 +0.01    +0.066 A 
DOCKED: ATOM     24  C   UNL d   1     -11.050   4.773  -9.725 -0.14 +0.03    +0.051 C 
DOCKED: ATOM     25  N   UNL d   1      -8.356   6.545 -15.371 -0.08 -0.00    -0.248 N 
DOCKED: ATOM     26  N   UNL d   1      -6.390   8.435 -14.525 -0.07 +0.03    -0.248 N 
DOCKED: ATOM     27  N   UNL d   1      -7.402   8.210 -11.845 -0.07 -0.00    -0.248 N 
DOCKED: ATOM     28  N   UNL d   1      -9.386   6.301 -12.704 -0.08 -0.03    -0.248 N 
DOCKED: ATOM     29 FE   UNL d   1      -7.888   7.368 -13.613 -0.04 +0.00    +0.000 Fe
DOCKED: ENDROOT
DOCKED: BRANCH   6  30
DOCKED: ATOM     30  C   UNL d   1     -10.508   4.637 -17.666 -0.10 +0.02    +0.052 C 
DOCKED: BRANCH  30  31
DOCKED: ATOM     31  C   UNL d   1     -11.714   5.474 -18.077 -0.09 +0.03    +0.115 C 
DOCKED: BRANCH  31  32
DOCKED: ATOM     32  C   UNL d   1     -12.970   4.650 -18.021 -0.09 +0.07    +0.139 C 
DOCKED: ATOM     33  O   UNL d   1     -14.040   5.164 -17.727 +0.00 -0.22    -0.650 OA
DOCKED: BRANCH  32  34
DOCKED: ATOM     34  O   UNL d   1     -12.928   3.335 -18.295 -0.23 -0.83    -0.776 OA
DOCKED: ATOM     35  H   UNL d   1     -13.521   2.737 -17.819 +0.01 +0.31    +0.167 HD
DOCKED: ENDBRANCH  32  34
DOCKED: ENDBRANCH  31  32
DOCKED: ENDBRANCH  30  31
DOCKED: ENDBRANCH   6  30
DOCKED: BRANCH  22  36
DOCKED: ATOM     36  C   UNL d   1     -11.771   3.452 -12.477 -0.09 +0.02    +0.052 C 
DOCKED: BRANCH  36  37
DOCKED: ATOM     37  C   UNL d   1     -12.905   3.817 -13.423 -0.11 +0.05    +0.115 C 
DOCKED: BRANCH  37  38
DOCKED: ATOM     38  C   UNL d   1     -13.092   2.759 -14.473 -0.10 +0.16    +0.139 C 
DOCKED: ATOM     39  O   UNL d   1     -13.409   1.620 -14.164 -0.27 -0.87    -0.650 OA
DOCKED: BRANCH  38  40
DOCKED: ATOM     40  O   UNL d   1     -12.905   3.061 -15.770 -0.23 -1.41    -0.776 OA
DOCKED: ATOM     41  H   UNL d   1     -13.522   3.666 -16.206 +0.01 +0.19    +0.167 HD
DOCKED: ENDBRANCH  38  40
DOCKED: ENDBRANCH  37  38
DOCKED: ENDBRANCH  36  37
DOCKED: ENDBRANCH  22  36
DOCKED: BRANCH  12  42
DOCKED: ATOM     42  C   UNL d   1      -3.265  10.483 -14.589 -0.39 -0.00    +0.004 C 
DOCKED: ATOM     43  C   UNL d   1      -3.380  11.746 -14.157 -0.48 -0.01    +0.012 C 
DOCKED: ENDBRANCH  12  42
DOCKED: BRANCH  17  44
DOCKED: ATOM     44  C   UNL d   1      -8.018   9.126  -8.323 -0.32 +0.00    +0.004 C 
DOCKED: ATOM     45  C   UNL d   1      -9.156   9.780  -8.067 -0.25 +0.00    +0.012 C 
DOCKED: ENDBRANCH  17  44
DOCKED: TORSDOF 10
DOCKED: TER
DOCKED: ENDMDL
________________________________________________________________________________


	BEGINNING GENETIC ALGORITHM DOCKING 9 of 100
Run: 9 Seed: 220469052 1249712080 [ Run 9 of 100 GA/GALS ]
Beginning LAMARCKIAN GENETIC ALGORITHM (LGA), with a maximum of 25000000 energy evaluations.

Final-Value: -11.241


	FINAL GENETIC ALGORITHM DOCKED STATE
	_______________________________________________


Detailed state:  trans 0.883 5.708 18.174 quatxyzw -0.962571 -0.059513 -0.116398 0.237418 center -0.174 -0.001 -0.047 ntor 10 51.6212 130.8587 -144.9487 -102.6478 -86.3594 -111.5898 -107.3660 -81.8305 -179.5403 -1.9802
State:	  0.883   5.708  18.174  -0.991 -0.061 -0.120 152.532     51.62  130.86 -144.95 -102.65  -86.36 -111.59 -107.37  -81.83 -179.54   -1.98

DOCKED: MODEL        9
DOCKED: USER    Run = 9
DOCKED: USER    DPF = D:/Protein_go_brrr/autodock/final/mut_K82N/heme_Fe/dock.dpf
DOCKED: USER  
DOCKED: USER    Estimated Free Energy of Binding    =   -6.60 kcal/mol  [=(1)+(2)+(3)-(4)]
DOCKED: USER    Estimated Inhibition Constant, Ki   =   14.45 uM (micromolar)  [Temperature = 298.15 K]
DOCKED: USER    
DOCKED: USER    (1) Final Intermolecular Energy     =   -9.59 kcal/mol
DOCKED: USER        vdW + Hbond + desolv Energy     =   -9.90 kcal/mol
DOCKED: USER        Electrostatic Energy            =   +0.32 kcal/mol
DOCKED: USER    (2) Final Total Internal Energy     =   -1.65 kcal/mol
DOCKED: USER    (3) Torsional Free Energy           =   +2.98 kcal/mol
DOCKED: USER    (4) Unbound System's Energy  [=(2)] =   -1.65 kcal/mol
DOCKED: USER    
DOCKED: USER    
DOCKED: USER    NEWDPF move heme_Fe_opt.pdbqt
DOCKED: USER    NEWDPF about -0.174000 -0.001000 -0.047000
DOCKED: USER    NEWDPF tran0 0.883491 5.707745 18.174381
DOCKED: USER    NEWDPF quaternion0 -0.962571 -0.059513 -0.116398 0.237418
DOCKED: USER    NEWDPF axisangle0 -0.990903 -0.061265 -0.119824 152.531650
DOCKED: USER    NEWDPF quat0 -0.990903 -0.061265 -0.119824 152.531650
DOCKED: USER    NEWDPF dihe0 51.62 130.86 -144.95 -102.65 -86.36 -111.59 -107.37 -81.83 -179.54 -1.98 
DOCKED: USER  keepresnum = 1 
DOCKED: USER  
DOCKED: REMARK  10 active torsions:
DOCKED: REMARK  status: ('A' for Active; 'I' for Inactive)
DOCKED: REMARK    1  A    between atoms: C_6  and  C_10 
DOCKED: REMARK    2  A    between atoms: C_10  and  C_11 
DOCKED: REMARK    3  A    between atoms: C_11  and  C_12 
DOCKED: REMARK    4  A    between atoms: C_12  and  O_14 
DOCKED: REMARK    5  A    between atoms: C_17  and  C_20 
DOCKED: REMARK    6  A    between atoms: C_24  and  C_27 
DOCKED: REMARK    7  A    between atoms: C_31  and  C_34 
DOCKED: REMARK    8  A    between atoms: C_34  and  C_35 
DOCKED: REMARK    9  A    between atoms: C_35  and  C_36 
DOCKED: REMARK   10  A    between atoms: C_36  and  O_38 
DOCKED: USER                              x       y       z     vdW  Elec       q    Type
DOCKED: USER                           _______ _______ _______ _____ _____    ______ ____
DOCKED: ROOT
DOCKED: ATOM      1  C   UNL d   1      -0.899   5.187  17.301 -0.26 -0.02    +0.064 C 
DOCKED: ATOM      2  C   UNL d   1       2.382   8.820  16.617 -0.24 -0.03    +0.064 A 
DOCKED: ATOM      3  C   UNL d   1       5.561   6.348  19.234 -0.26 -0.01    +0.064 C 
DOCKED: ATOM      4  C   UNL d   1       2.366   2.870  19.996 -0.20 -0.06    +0.064 C 
DOCKED: ATOM      5  C   UNL d   1      -0.298   6.478  16.936 -0.22 -0.02    +0.066 A 
DOCKED: ATOM      6  C   UNL d   1      -0.959   7.498  16.272 -0.21 +0.01    -0.021 A 
DOCKED: ATOM      7  C   UNL d   1      -0.046   8.505  16.079 -0.19 +0.02    -0.025 A 
DOCKED: ATOM      8  C   UNL d   1       1.138   8.060  16.634 -0.23 -0.03    +0.066 A 
DOCKED: ATOM      9  C   UNL d   1      -0.311   9.822  15.417 -0.19 -0.05    +0.051 C 
DOCKED: ATOM     10  C   UNL d   1       3.523   8.439  17.195 -0.23 -0.03    +0.066 A 
DOCKED: ATOM     11  C   UNL d   1       4.727   9.135  17.064 -0.24 +0.01    -0.021 A 
DOCKED: ATOM     12  C   UNL d   1       5.664   8.433  17.796 -0.20 -0.00    +0.000 A 
DOCKED: ATOM     13  C   UNL d   1       4.978   7.330  18.334 -0.21 -0.02    +0.070 A 
DOCKED: ATOM     14  C   UNL d   1       4.989  10.370  16.227 -0.16 -0.02    +0.052 C 
DOCKED: ATOM     15  C   UNL d   1       4.919   5.256  19.713 -0.26 -0.02    +0.066 A 
DOCKED: ATOM     16  C   UNL d   1       5.479   4.397  20.649 -0.28 +0.00    -0.021 A 
DOCKED: ATOM     17  C   UNL d   1       4.560   3.391  20.868 -0.32 -0.00    +0.000 A 
DOCKED: ATOM     18  C   UNL d   1       3.461   3.659  20.055 -0.30 -0.04    +0.070 A 
DOCKED: ATOM     19  C   UNL d   1       6.834   4.500  21.296 -0.29 +0.01    +0.052 C 
DOCKED: ATOM     20  C   UNL d   1       1.166   3.152  19.200 -0.30 -0.04    +0.066 A 
DOCKED: ATOM     21  C   UNL d   1       0.115   2.253  18.973 -0.25 +0.01    -0.025 A 
DOCKED: ATOM     22  C   UNL d   1      -0.811   2.939  18.213 -0.14 +0.01    -0.021 A 
DOCKED: ATOM     23  C   UNL d   1      -0.287   4.220  18.002 -0.25 -0.02    +0.066 A 
DOCKED: ATOM     24  C   UNL d   1      -0.020   0.822  19.438 -0.14 -0.03    +0.051 C 
DOCKED: ATOM     25  N   UNL d   1       0.979   6.830  17.162 -0.13 +0.12    -0.248 N 
DOCKED: ATOM     26  N   UNL d   1       3.675   7.329  17.960 -0.05 +0.12    -0.248 N 
DOCKED: ATOM     27  N   UNL d   1       3.662   4.829  19.377 -0.17 +0.11    -0.248 N 
DOCKED: ATOM     28  N   UNL d   1       0.939   4.329  18.568 -0.18 +0.12    -0.248 N 
DOCKED: ATOM     29 FE   UNL d   1       2.307   5.827  18.265 -0.05 -0.00    +0.000 Fe
DOCKED: ENDROOT
DOCKED: BRANCH   6  30
DOCKED: ATOM     30  C   UNL d   1      -2.391   7.526  15.859 -0.24 -0.04    +0.052 C 
DOCKED: BRANCH  30  31
DOCKED: ATOM     31  C   UNL d   1      -2.560   6.956  14.455 -0.21 -0.12    +0.115 C 
DOCKED: BRANCH  31  32
DOCKED: ATOM     32  C   UNL d   1      -2.379   5.463  14.468 -0.45 -0.05    +0.139 C 
DOCKED: ATOM     33  O   UNL d   1      -1.265   4.970  14.364 -0.24 +0.17    -0.650 OA
DOCKED: BRANCH  32  34
DOCKED: ATOM     34  O   UNL d   1      -3.445   4.656  14.595 -0.29 +0.11    -0.776 OA
DOCKED: ATOM     35  H   UNL d   1      -3.435   3.968  15.275 -0.30 -0.07    +0.167 HD
DOCKED: ENDBRANCH  32  34
DOCKED: ENDBRANCH  31  32
DOCKED: ENDBRANCH  30  31
DOCKED: ENDBRANCH   6  30
DOCKED: BRANCH  22  36
DOCKED: ATOM     36  C   UNL d   1      -2.102   2.376  17.681 -0.21 -0.01    +0.052 C 
DOCKED: BRANCH  36  37
DOCKED: ATOM     37  C   UNL d   1      -3.240   2.711  18.633 -0.21 -0.02    +0.115 C 
DOCKED: BRANCH  37  38
DOCKED: ATOM     38  C   UNL d   1      -3.989   3.929  18.171 -0.13 -0.03    +0.139 C 
DOCKED: ATOM     39  O   UNL d   1      -3.935   4.973  18.803 +0.04 +0.14    -0.650 OA
DOCKED: BRANCH  38  40
DOCKED: ATOM     40  O   UNL d   1      -4.732   3.875  17.051 +0.05 +0.26    -0.776 OA
DOCKED: ATOM     41  H   UNL d   1      -4.340   3.510  16.245 -0.47 -0.10    +0.167 HD
DOCKED: ENDBRANCH  38  40
DOCKED: ENDBRANCH  37  38
DOCKED: ENDBRANCH  36  37
DOCKED: ENDBRANCH  22  36
DOCKED: BRANCH  12  42
DOCKED: ATOM     42  C   UNL d   1       7.105   8.812  17.930 -0.16 -0.00    +0.004 C 
DOCKED: ATOM     43  C   UNL d   1       8.041   8.249  17.155 -0.23 -0.00    +0.012 C 
DOCKED: ENDBRANCH  12  42
DOCKED: BRANCH  17  44
DOCKED: ATOM     44  C   UNL d   1       4.716   2.258  21.809 -0.34 -0.00    +0.004 C 
DOCKED: ATOM     45  C   UNL d   1       5.833   1.524  21.818 -0.38 -0.00    +0.012 C 
DOCKED: ENDBRANCH  17  44
DOCKED: TORSDOF 10
DOCKED: TER
DOCKED: ENDMDL
________________________________________________________________________________


	BEGINNING GENETIC ALGORITHM DOCKING 10 of 100
Run: 10 Seed: 512703005 2133903995 [ Run 10 of 100 GA/GALS ]
Beginning LAMARCKIAN GENETIC ALGORITHM (LGA), with a maximum of 25000000 energy evaluations.

Final-Value: -10.651


	FINAL GENETIC ALGORITHM DOCKED STATE
	_______________________________________________


Detailed state:  trans -13.363 14.887 -6.457 quatxyzw 0.745871 0.003480 0.549305 0.376735 center -0.174 -0.001 -0.047 ntor 10 31.0171 -108.9059 23.6389 -159.7908 -90.9256 72.2381 -122.0011 147.6437 178.2381 -171.1490
State:	-13.363  14.887  -6.457   0.805  0.004  0.593 135.737     31.02 -108.91   23.64 -159.79  -90.93   72.24 -122.00  147.64  178.24 -171.15

DOCKED: MODEL       10
DOCKED: USER    Run = 10
DOCKED: USER    DPF = D:/Protein_go_brrr/autodock/final/mut_K82N/heme_Fe/dock.dpf
DOCKED: USER  
DOCKED: USER    Estimated Free Energy of Binding    =   -5.73 kcal/mol  [=(1)+(2)+(3)-(4)]
DOCKED: USER    Estimated Inhibition Constant, Ki   =   62.74 uM (micromolar)  [Temperature = 298.15 K]
DOCKED: USER    
DOCKED: USER    (1) Final Intermolecular Energy     =   -8.72 kcal/mol
DOCKED: USER        vdW + Hbond + desolv Energy     =   -6.19 kcal/mol
DOCKED: USER        Electrostatic Energy            =   -2.53 kcal/mol
DOCKED: USER    (2) Final Total Internal Energy     =   -1.94 kcal/mol
DOCKED: USER    (3) Torsional Free Energy           =   +2.98 kcal/mol
DOCKED: USER    (4) Unbound System's Energy  [=(2)] =   -1.94 kcal/mol
DOCKED: USER    
DOCKED: USER    
DOCKED: USER    NEWDPF move heme_Fe_opt.pdbqt
DOCKED: USER    NEWDPF about -0.174000 -0.001000 -0.047000
DOCKED: USER    NEWDPF tran0 -13.362943 14.887324 -6.456583
DOCKED: USER    NEWDPF quaternion0 0.745871 0.003480 0.549305 0.376735
DOCKED: USER    NEWDPF axisangle0 0.805197 0.003757 0.592996 135.736884
DOCKED: USER    NEWDPF quat0 0.805197 0.003757 0.592996 135.736884
DOCKED: USER    NEWDPF dihe0 31.02 -108.91 23.64 -159.79 -90.93 72.24 -122.00 147.64 178.24 -171.15 
DOCKED: USER  keepresnum = 1 
DOCKED: USER  
DOCKED: REMARK  10 active torsions:
DOCKED: REMARK  status: ('A' for Active; 'I' for Inactive)
DOCKED: REMARK    1  A    between atoms: C_6  and  C_10 
DOCKED: REMARK    2  A    between atoms: C_10  and  C_11 
DOCKED: REMARK    3  A    between atoms: C_11  and  C_12 
DOCKED: REMARK    4  A    between atoms: C_12  and  O_14 
DOCKED: REMARK    5  A    between atoms: C_17  and  C_20 
DOCKED: REMARK    6  A    between atoms: C_24  and  C_27 
DOCKED: REMARK    7  A    between atoms: C_31  and  C_34 
DOCKED: REMARK    8  A    between atoms: C_34  and  C_35 
DOCKED: REMARK    9  A    between atoms: C_35  and  C_36 
DOCKED: REMARK   10  A    between atoms: C_36  and  O_38 
DOCKED: USER                              x       y       z     vdW  Elec       q    Type
DOCKED: USER                           _______ _______ _______ _____ _____    ______ ____
DOCKED: ROOT
DOCKED: ATOM      1  C   UNL d   1     -13.739  16.040  -8.112 -0.08 +0.04    +0.064 C 
DOCKED: ATOM      2  C   UNL d   1     -13.842  16.819  -3.232 -0.08 +0.02    +0.064 A 
DOCKED: ATOM      3  C   UNL d   1     -11.369  12.751  -2.600 -0.32 +0.02    +0.064 C 
DOCKED: ATOM      4  C   UNL d   1     -11.348  11.924  -7.312 -0.14 +0.02    +0.064 C 
DOCKED: ATOM      5  C   UNL d   1     -14.070  16.594  -6.792 -0.07 +0.04    +0.066 A 
DOCKED: ATOM      6  C   UNL d   1     -14.869  17.705  -6.578 -0.04 -0.01    -0.021 A 
DOCKED: ATOM      7  C   UNL d   1     -14.894  17.923  -5.222 -0.03 -0.01    -0.025 A 
DOCKED: ATOM      8  C   UNL d   1     -14.109  16.935  -4.661 -0.07 +0.02    +0.066 A 
DOCKED: ATOM      9  C   UNL d   1     -15.647  19.008  -4.517 -0.01 +0.01    +0.051 C 
DOCKED: ATOM     10  C   UNL d   1     -13.136  15.843  -2.659 -0.14 +0.02    +0.066 A 
DOCKED: ATOM     11  C   UNL d   1     -12.802  15.822  -1.303 -0.20 -0.00    -0.021 A 
DOCKED: ATOM     12  C   UNL d   1     -12.074  14.667  -1.098 -0.31 +0.00    +0.000 A 
DOCKED: ATOM     13  C   UNL d   1     -11.994  14.041  -2.354 -0.26 +0.02    +0.070 A 
DOCKED: ATOM     14  C   UNL d   1     -13.103  16.885  -0.266 -0.16 +0.01    +0.052 C 
DOCKED: ATOM     15  C   UNL d   1     -11.244  12.169  -3.816 -0.27 +0.02    +0.066 A 
DOCKED: ATOM     16  C   UNL d   1     -10.730  10.891  -3.996 -0.34 -0.01    -0.021 A 
DOCKED: ATOM     17  C   UNL d   1     -10.720  10.651  -5.355 -0.24 +0.00    +0.000 A 
DOCKED: ATOM     18  C   UNL d   1     -11.225  11.793  -5.973 -0.17 +0.02    +0.070 A 
DOCKED: ATOM     19  C   UNL d   1     -10.243   9.939  -2.936 -0.38 +0.01    +0.052 C 
DOCKED: ATOM     20  C   UNL d   1     -11.932  13.085  -7.994 -0.12 +0.03    +0.066 A 
DOCKED: ATOM     21  C   UNL d   1     -11.884  13.320  -9.376 -0.11 -0.01    -0.025 A 
DOCKED: ATOM     22  C   UNL d   1     -12.583  14.492  -9.583 -0.09 -0.01    -0.021 A 
DOCKED: ATOM     23  C   UNL d   1     -13.021  14.926  -8.326 -0.09 +0.04    +0.066 A 
DOCKED: ATOM     24  C   UNL d   1     -11.216  12.495 -10.451 -0.11 +0.02    +0.051 C 
DOCKED: ATOM     25  N   UNL d   1     -13.616  16.122  -5.617 -0.06 -0.14    -0.248 N 
DOCKED: ATOM     26  N   UNL d   1     -12.634  14.762  -3.308 -0.12 -0.08    -0.248 N 
DOCKED: ATOM     27  N   UNL d   1     -11.588  12.709  -5.026 -0.13 -0.09    -0.248 N 
DOCKED: ATOM     28  N   UNL d   1     -12.583  14.087  -7.356 -0.08 -0.13    -0.248 N 
DOCKED: ATOM     29 FE   UNL d   1     -12.607  14.423  -5.333 -0.04 +0.00    +0.000 Fe
DOCKED: ENDROOT
DOCKED: BRANCH   6  30
DOCKED: ATOM     30  C   UNL d   1     -15.590  18.508  -7.605 -0.01 +0.01    +0.052 C 
DOCKED: BRANCH  30  31
DOCKED: ATOM     31  C   UNL d   1     -14.736  19.682  -8.071 -0.01 +0.03    +0.115 C 
DOCKED: BRANCH  31  32
DOCKED: ATOM     32  C   UNL d   1     -13.429  19.193  -8.630 -0.05 +0.08    +0.139 C 
DOCKED: ATOM     33  O   UNL d   1     -12.449  19.072  -7.909 -0.57 -0.82    -0.650 OA
DOCKED: BRANCH  32  34
DOCKED: ATOM     34  O   UNL d   1     -13.326  18.884  -9.933 +0.01 -0.32    -0.776 OA
DOCKED: ATOM     35  H   UNL d   1     -12.710  18.189 -10.204 +0.02 +0.09    +0.167 HD
DOCKED: ENDBRANCH  32  34
DOCKED: ENDBRANCH  31  32
DOCKED: ENDBRANCH  30  31
DOCKED: ENDBRANCH   6  30
DOCKED: BRANCH  22  36
DOCKED: ATOM     36  C   UNL d   1     -12.774  15.179 -10.909 -0.05 +0.02    +0.052 C 
DOCKED: BRANCH  36  37
DOCKED: ATOM     37  C   UNL d   1     -11.476  15.853 -11.330 -0.12 +0.05    +0.115 C 
DOCKED: BRANCH  37  38
DOCKED: ATOM     38  C   UNL d   1     -10.715  16.350 -10.134 -0.07 +0.13    +0.139 C 
DOCKED: ATOM     39  O   UNL d   1     -10.153  15.568  -9.381 -0.23 -0.87    -0.650 OA
DOCKED: BRANCH  38  40
DOCKED: ATOM     40  O   UNL d   1     -10.649  17.669  -9.881 +0.07 -0.99    -0.776 OA
DOCKED: ATOM     41  H   UNL d   1     -11.442  18.130  -9.574 +0.02 +0.22    +0.167 HD
DOCKED: ENDBRANCH  38  40
DOCKED: ENDBRANCH  37  38
DOCKED: ENDBRANCH  36  37
DOCKED: ENDBRANCH  22  36
DOCKED: BRANCH  12  42
DOCKED: ATOM     42  C   UNL d   1     -11.499  14.239   0.214 -0.13 +0.00    +0.004 C 
DOCKED: ATOM     43  C   UNL d   1     -12.289  13.802   1.204 -0.25 +0.00    +0.012 C 
DOCKED: ENDBRANCH  12  42
DOCKED: BRANCH  17  44
DOCKED: ATOM     44  C   UNL d   1     -10.275   9.404  -6.017 -0.26 +0.00    +0.004 C 
DOCKED: ATOM     45  C   UNL d   1      -9.109   9.353  -6.668 -0.31 +0.00    +0.012 C 
DOCKED: ENDBRANCH  17  44
DOCKED: TORSDOF 10
DOCKED: TER
DOCKED: ENDMDL
________________________________________________________________________________


	BEGINNING GENETIC ALGORITHM DOCKING 11 of 100
Run: 11 Seed: 951474278 1281323646 [ Run 11 of 100 GA/GALS ]
Beginning LAMARCKIAN GENETIC ALGORITHM (LGA), with a maximum of 25000000 energy evaluations.

Final-Value: -10.876


	FINAL GENETIC ALGORITHM DOCKED STATE
	_______________________________________________


Detailed state:  trans -14.057 2.062 -4.399 quatxyzw 0.811982 0.056305 0.535234 0.225919 center -0.174 -0.001 -0.047 ntor 10 -19.8633 -122.2306 140.6096 -139.2911 -87.1478 76.0730 -122.8452 153.9892 171.5539 -179.2878
State:	-14.057   2.062  -4.399   0.834  0.058  0.549 153.886    -19.86 -122.23  140.61 -139.29  -87.15   76.07 -122.85  153.99  171.55 -179.29

DOCKED: MODEL       11
DOCKED: USER    Run = 11
DOCKED: USER    DPF = D:/Protein_go_brrr/autodock/final/mut_K82N/heme_Fe/dock.dpf
DOCKED: USER  
DOCKED: USER    Estimated Free Energy of Binding    =   -6.10 kcal/mol  [=(1)+(2)+(3)-(4)]
DOCKED: USER    Estimated Inhibition Constant, Ki   =   33.54 uM (micromolar)  [Temperature = 298.15 K]
DOCKED: USER    
DOCKED: USER    (1) Final Intermolecular Energy     =   -9.09 kcal/mol
DOCKED: USER        vdW + Hbond + desolv Energy     =   -5.96 kcal/mol
DOCKED: USER        Electrostatic Energy            =   -3.13 kcal/mol
DOCKED: USER    (2) Final Total Internal Energy     =   -1.79 kcal/mol
DOCKED: USER    (3) Torsional Free Energy           =   +2.98 kcal/mol
DOCKED: USER    (4) Unbound System's Energy  [=(2)] =   -1.79 kcal/mol
DOCKED: USER    
DOCKED: USER    
DOCKED: USER    NEWDPF move heme_Fe_opt.pdbqt
DOCKED: USER    NEWDPF about -0.174000 -0.001000 -0.047000
DOCKED: USER    NEWDPF tran0 -14.057062 2.061616 -4.399170
DOCKED: USER    NEWDPF quaternion0 0.811982 0.056305 0.535234 0.225919
DOCKED: USER    NEWDPF axisangle0 0.833532 0.057799 0.549439 153.886171
DOCKED: USER    NEWDPF quat0 0.833532 0.057799 0.549439 153.886171
DOCKED: USER    NEWDPF dihe0 -19.86 -122.23 140.61 -139.29 -87.15 76.07 -122.85 153.99 171.55 -179.29 
DOCKED: USER  keepresnum = 1 
DOCKED: USER  
DOCKED: REMARK  10 active torsions:
DOCKED: REMARK  status: ('A' for Active; 'I' for Inactive)
DOCKED: REMARK    1  A    between atoms: C_6  and  C_10 
DOCKED: REMARK    2  A    between atoms: C_10  and  C_11 
DOCKED: REMARK    3  A    between atoms: C_11  and  C_12 
DOCKED: REMARK    4  A    between atoms: C_12  and  O_14 
DOCKED: REMARK    5  A    between atoms: C_17  and  C_20 
DOCKED: REMARK    6  A    between atoms: C_24  and  C_27 
DOCKED: REMARK    7  A    between atoms: C_31  and  C_34 
DOCKED: REMARK    8  A    between atoms: C_34  and  C_35 
DOCKED: REMARK    9  A    between atoms: C_35  and  C_36 
DOCKED: REMARK   10  A    between atoms: C_36  and  O_38 
DOCKED: USER                              x       y       z     vdW  Elec       q    Type
DOCKED: USER                           _______ _______ _______ _____ _____    ______ ____
DOCKED: ROOT
DOCKED: ATOM      1  C   UNL d   1     -14.461   2.639  -6.326 -0.06 +0.06    +0.064 C 
DOCKED: ATOM      2  C   UNL d   1     -14.197   4.972  -1.976 -0.12 +0.02    +0.064 A 
DOCKED: ATOM      3  C   UNL d   1     -11.965   1.138  -0.135 -0.29 -0.00    +0.064 C 
DOCKED: ATOM      4  C   UNL d   1     -12.305  -1.178  -4.307 -0.12 +0.01    +0.064 C 
DOCKED: ATOM      5  C   UNL d   1     -14.668   3.619  -5.250 -0.07 +0.06    +0.066 A 
DOCKED: ATOM      6  C   UNL d   1     -15.376   4.802  -5.384 -0.06 -0.01    -0.021 A 
DOCKED: ATOM      7  C   UNL d   1     -15.299   5.451  -4.177 -0.06 -0.01    -0.025 A 
DOCKED: ATOM      8  C   UNL d   1     -14.546   4.638  -3.351 -0.10 +0.04    +0.066 A 
DOCKED: ATOM      9  C   UNL d   1     -15.931   6.767  -3.839 -0.02 +0.01    +0.051 C 
DOCKED: ATOM     10  C   UNL d   1     -13.522   4.180  -1.142 -0.14 +0.02    +0.066 A 
DOCKED: ATOM     11  C   UNL d   1     -13.103   4.574   0.132 -0.21 -0.00    -0.021 A 
DOCKED: ATOM     12  C   UNL d   1     -12.442   3.491   0.677 -0.27 +0.00    +0.000 A 
DOCKED: ATOM     13  C   UNL d   1     -12.485   2.486  -0.304 -0.17 +0.01    +0.070 A 
DOCKED: ATOM     14  C   UNL d   1     -13.264   5.938   0.771 -0.23 +0.01    +0.052 C 
DOCKED: ATOM     15  C   UNL d   1     -11.958   0.183  -1.095 -0.21 -0.00    +0.066 A 
DOCKED: ATOM     16  C   UNL d   1     -11.543  -1.122  -0.863 -0.26 +0.01    -0.021 A 
DOCKED: ATOM     17  C   UNL d   1     -11.637  -1.791  -2.066 -0.20 -0.00    +0.000 A 
DOCKED: ATOM     18  C   UNL d   1     -12.104  -0.875  -3.006 -0.12 +0.00    +0.070 A 
DOCKED: ATOM     19  C   UNL d   1     -11.053  -1.714   0.431 -0.12 -0.05    +0.052 C 
DOCKED: ATOM     20  C   UNL d   1     -12.852  -0.258  -5.311 -0.10 +0.02    +0.066 A 
DOCKED: ATOM     21  C   UNL d   1     -12.879  -0.490  -6.693 -0.11 -0.01    -0.025 A 
DOCKED: ATOM     22  C   UNL d   1     -13.509   0.605  -7.248 -0.09 -0.01    -0.021 A 
DOCKED: ATOM     23  C   UNL d   1     -13.835   1.460  -6.189 -0.07 +0.05    +0.066 A 
DOCKED: ATOM     24  C   UNL d   1     -12.338  -1.674  -7.462 -0.18 +0.01    +0.051 C 
DOCKED: ATOM     25  N   UNL d   1     -14.173   3.519  -4.005 -0.08 -0.22    -0.248 N 
DOCKED: ATOM     26  N   UNL d   1     -13.135   2.908  -1.416 -0.10 -0.09    -0.248 N 
DOCKED: ATOM     27  N   UNL d   1     -12.343   0.327  -2.401 -0.10 -0.04    -0.248 N 
DOCKED: ATOM     28  N   UNL d   1     -13.392   0.949  -5.014 -0.07 -0.17    -0.248 N 
DOCKED: ATOM     29 FE   UNL d   1     -13.263   1.927  -3.216 -0.03 +0.00    +0.000 Fe
DOCKED: ENDROOT
DOCKED: BRANCH   6  30
DOCKED: ATOM     30  C   UNL d   1     -16.107   5.285  -6.590 -0.02 +0.02    +0.052 C 
DOCKED: BRANCH  30  31
DOCKED: ATOM     31  C   UNL d   1     -15.267   6.296  -7.363 -0.01 +0.05    +0.115 C 
DOCKED: BRANCH  31  32
DOCKED: ATOM     32  C   UNL d   1     -13.946   5.693  -7.753 -0.05 +0.11    +0.139 C 
DOCKED: ATOM     33  O   UNL d   1     -12.990   5.739  -6.991 -0.21 -1.03    -0.650 OA
DOCKED: BRANCH  32  34
DOCKED: ATOM     34  O   UNL d   1     -13.804   5.096  -8.949 +0.02 -0.45    -0.776 OA
DOCKED: ATOM     35  H   UNL d   1     -12.914   4.975  -9.310 +0.02 +0.11    +0.167 HD
DOCKED: ENDBRANCH  32  34
DOCKED: ENDBRANCH  31  32
DOCKED: ENDBRANCH  30  31
DOCKED: ENDBRANCH   6  30
DOCKED: BRANCH  22  36
DOCKED: ATOM     36  C   UNL d   1     -13.739   0.836  -8.718 -0.07 +0.02    +0.052 C 
DOCKED: BRANCH  36  37
DOCKED: ATOM     37  C   UNL d   1     -12.483   1.416  -9.350 -0.13 +0.06    +0.115 C 
DOCKED: BRANCH  37  38
DOCKED: ATOM     38  C   UNL d   1     -11.671   2.174  -8.337 -0.03 +0.17    +0.139 C 
DOCKED: ATOM     39  O   UNL d   1     -10.997   1.582  -7.507 -0.29 -0.85    -0.650 OA
DOCKED: BRANCH  38  40
DOCKED: ATOM     40  O   UNL d   1     -11.686   3.519  -8.336 -0.01 -1.30    -0.776 OA
DOCKED: ATOM     41  H   UNL d   1     -12.531   3.980  -8.240 +0.01 +0.26    +0.167 HD
DOCKED: ENDBRANCH  38  40
DOCKED: ENDBRANCH  37  38
DOCKED: ENDBRANCH  36  37
DOCKED: ENDBRANCH  22  36
DOCKED: BRANCH  12  42
DOCKED: ATOM     42  C   UNL d   1     -11.812   3.468   2.034 -0.41 +0.00    +0.004 C 
DOCKED: ATOM     43  C   UNL d   1     -11.047   2.439   2.421 -0.47 -0.00    +0.012 C 
DOCKED: ENDBRANCH  12  42
DOCKED: BRANCH  17  44
DOCKED: ATOM     44  C   UNL d   1     -11.321  -3.219  -2.296 -0.21 -0.00    +0.004 C 
DOCKED: ATOM     45  C   UNL d   1     -10.068  -3.609  -2.555 -0.36 -0.01    +0.012 C 
DOCKED: ENDBRANCH  17  44
DOCKED: TORSDOF 10
DOCKED: TER
DOCKED: ENDMDL
________________________________________________________________________________


	BEGINNING GENETIC ALGORITHM DOCKING 12 of 100
Run: 12 Seed: 510487282 148848530 [ Run 12 of 100 GA/GALS ]
Beginning LAMARCKIAN GENETIC ALGORITHM (LGA), with a maximum of 25000000 energy evaluations.

Final-Value: -10.707


	FINAL GENETIC ALGORITHM DOCKED STATE
	_______________________________________________


Detailed state:  trans 11.926 -11.901 2.210 quatxyzw -0.241351 -0.412040 0.487005 -0.731299 center -0.174 -0.001 -0.047 ntor 10 -179.5825 101.4756 178.1443 -100.1130 -39.7897 130.3086 126.4774 140.9911 -146.8251 -164.4587
State:	 11.926 -11.901   2.210  -0.354 -0.604  0.714 -86.009   -179.58  101.48  178.14 -100.11  -39.79  130.31  126.48  140.99 -146.83 -164.46

DOCKED: MODEL       12
DOCKED: USER    Run = 12
DOCKED: USER    DPF = D:/Protein_go_brrr/autodock/final/mut_K82N/heme_Fe/dock.dpf
DOCKED: USER  
DOCKED: USER    Estimated Free Energy of Binding    =   -6.20 kcal/mol  [=(1)+(2)+(3)-(4)]
DOCKED: USER    Estimated Inhibition Constant, Ki   =   28.40 uM (micromolar)  [Temperature = 298.15 K]
DOCKED: USER    
DOCKED: USER    (1) Final Intermolecular Energy     =   -9.19 kcal/mol
DOCKED: USER        vdW + Hbond + desolv Energy     =   -7.58 kcal/mol
DOCKED: USER        Electrostatic Energy            =   -1.61 kcal/mol
DOCKED: USER    (2) Final Total Internal Energy     =   -1.52 kcal/mol
DOCKED: USER    (3) Torsional Free Energy           =   +2.98 kcal/mol
DOCKED: USER    (4) Unbound System's Energy  [=(2)] =   -1.52 kcal/mol
DOCKED: USER    
DOCKED: USER    
DOCKED: USER    NEWDPF move heme_Fe_opt.pdbqt
DOCKED: USER    NEWDPF about -0.174000 -0.001000 -0.047000
DOCKED: USER    NEWDPF tran0 11.925501 -11.901033 2.209584
DOCKED: USER    NEWDPF quaternion0 -0.241351 -0.412040 0.487005 -0.731299
DOCKED: USER    NEWDPF axisangle0 -0.353858 -0.604114 0.714024 -86.009107
DOCKED: USER    NEWDPF quat0 -0.353858 -0.604114 0.714024 -86.009107
DOCKED: USER    NEWDPF dihe0 -179.58 101.48 178.14 -100.11 -39.79 130.31 126.48 140.99 -146.83 -164.46 
DOCKED: USER  keepresnum = 1 
DOCKED: USER  
DOCKED: REMARK  10 active torsions:
DOCKED: REMARK  status: ('A' for Active; 'I' for Inactive)
DOCKED: REMARK    1  A    between atoms: C_6  and  C_10 
DOCKED: REMARK    2  A    between atoms: C_10  and  C_11 
DOCKED: REMARK    3  A    between atoms: C_11  and  C_12 
DOCKED: REMARK    4  A    between atoms: C_12  and  O_14 
DOCKED: REMARK    5  A    between atoms: C_17  and  C_20 
DOCKED: REMARK    6  A    between atoms: C_24  and  C_27 
DOCKED: REMARK    7  A    between atoms: C_31  and  C_34 
DOCKED: REMARK    8  A    between atoms: C_34  and  C_35 
DOCKED: REMARK    9  A    between atoms: C_35  and  C_36 
DOCKED: REMARK   10  A    between atoms: C_36  and  O_38 
DOCKED: USER                              x       y       z     vdW  Elec       q    Type
DOCKED: USER                           _______ _______ _______ _____ _____    ______ ____
DOCKED: ROOT
DOCKED: ATOM      1  C   UNL d   1      11.141 -13.756   1.815 -0.14 +0.02    +0.064 C 
DOCKED: ATOM      2  C   UNL d   1      13.691 -11.779   5.560 -0.09 +0.01    +0.064 A 
DOCKED: ATOM      3  C   UNL d   1      12.728  -7.408   3.818 -0.22 +0.01    +0.064 C 
DOCKED: ATOM      4  C   UNL d   1      10.346  -9.304   0.127 -0.25 +0.00    +0.064 C 
DOCKED: ATOM      5  C   UNL d   1      12.019 -13.608   2.985 -0.08 +0.02    +0.066 A 
DOCKED: ATOM      6  C   UNL d   1      12.590 -14.659   3.683 -0.08 -0.01    -0.021 A 
DOCKED: ATOM      7  C   UNL d   1      13.295 -14.110   4.725 -0.07 -0.01    -0.025 A 
DOCKED: ATOM      8  C   UNL d   1      13.127 -12.742   4.623 -0.08 +0.02    +0.066 A 
DOCKED: ATOM      9  C   UNL d   1      14.096 -14.862   5.743 -0.04 +0.01    +0.051 C 
DOCKED: ATOM     10  C   UNL d   1      13.592 -10.453   5.452 -0.12 +0.01    +0.066 A 
DOCKED: ATOM     11  C   UNL d   1      14.044  -9.560   6.427 -0.12 -0.00    -0.021 A 
DOCKED: ATOM     12  C   UNL d   1      13.763  -8.293   5.956 -0.18 +0.00    +0.000 A 
DOCKED: ATOM     13  C   UNL d   1      13.140  -8.481   4.709 -0.19 +0.01    +0.070 A 
DOCKED: ATOM     14  C   UNL d   1      14.652  -9.899   7.772 -0.08 +0.00    +0.052 C 
DOCKED: ATOM     15  C   UNL d   1      12.082  -7.583   2.641 -0.20 +0.00    +0.066 A 
DOCKED: ATOM     16  C   UNL d   1      11.794  -6.539   1.771 -0.23 -0.00    -0.021 A 
DOCKED: ATOM     17  C   UNL d   1      11.104  -7.083   0.707 -0.27 -0.00    +0.000 A 
DOCKED: ATOM     18  C   UNL d   1      10.983  -8.448   0.956 -0.24 +0.00    +0.070 A 
DOCKED: ATOM     19  C   UNL d   1      12.132  -5.082   1.942 -0.12 -0.00    +0.052 C 
DOCKED: ATOM     20  C   UNL d   1      10.252 -10.755   0.326 -0.18 +0.01    +0.066 A 
DOCKED: ATOM     21  C   UNL d   1       9.432 -11.622  -0.411 -0.17 -0.00    -0.025 A 
DOCKED: ATOM     22  C   UNL d   1       9.684 -12.887   0.078 -0.14 -0.00    -0.021 A 
DOCKED: ATOM     23  C   UNL d   1      10.638 -12.743   1.093 -0.13 +0.01    +0.066 A 
DOCKED: ATOM     24  C   UNL d   1       8.457 -11.287  -1.515 -0.24 +0.01    +0.051 C 
DOCKED: ATOM     25  N   UNL d   1      12.358 -12.440   3.557 -0.06 -0.09    -0.248 N 
DOCKED: ATOM     26  N   UNL d   1      13.027  -9.798   4.406 -0.10 -0.03    -0.248 N 
DOCKED: ATOM     27  N   UNL d   1      11.621  -8.764   2.123 -0.16 -0.01    -0.248 N 
DOCKED: ATOM     28  N   UNL d   1      10.947 -11.435   1.270 -0.10 -0.04    -0.248 N 
DOCKED: ATOM     29 FE   UNL d   1      11.986 -10.616   2.836 -0.04 +0.00    +0.000 Fe
DOCKED: ENDROOT
DOCKED: BRANCH   6  30
DOCKED: ATOM     30  C   UNL d   1      12.490 -16.112   3.366 -0.06 +0.01    +0.052 C 
DOCKED: BRANCH  30  31
DOCKED: ATOM     31  C   UNL d   1      11.033 -16.558   3.328 -0.12 +0.03    +0.115 C 
DOCKED: BRANCH  31  32
DOCKED: ATOM     32  C   UNL d   1      10.333 -16.176   4.603 -0.09 +0.11    +0.139 C 
DOCKED: ATOM     33  O   UNL d   1      10.900 -16.280   5.681 +0.03 -0.63    -0.650 OA
DOCKED: BRANCH  32  34
DOCKED: ATOM     34  O   UNL d   1       9.071 -15.714   4.567 +0.02 -0.81    -0.776 OA
DOCKED: ATOM     35  H   UNL d   1       8.623 -15.639   3.713 -0.52 +0.05    +0.167 HD
DOCKED: ENDBRANCH  32  34
DOCKED: ENDBRANCH  31  32
DOCKED: ENDBRANCH  30  31
DOCKED: ENDBRANCH   6  30
DOCKED: BRANCH  22  36
DOCKED: ATOM     36  C   UNL d   1       9.009 -14.155  -0.373 -0.17 +0.01    +0.052 C 
DOCKED: BRANCH  36  37
DOCKED: ATOM     37  C   UNL d   1       7.542 -14.128   0.033 -0.35 +0.03    +0.115 C 
DOCKED: BRANCH  37  38
DOCKED: ATOM     38  C   UNL d   1       7.373 -13.537   1.404 -0.44 +0.05    +0.139 C 
DOCKED: ATOM     39  O   UNL d   1       6.556 -12.651   1.607 -0.06 -0.19    -0.650 OA
DOCKED: BRANCH  38  40
DOCKED: ATOM     40  O   UNL d   1       8.130 -13.981   2.424 -0.05 -0.24    -0.776 OA
DOCKED: ATOM     41  H   UNL d   1       7.895 -14.815   2.855 -0.48 +0.02    +0.167 HD
DOCKED: ENDBRANCH  38  40
DOCKED: ENDBRANCH  37  38
DOCKED: ENDBRANCH  36  37
DOCKED: ENDBRANCH  22  36
DOCKED: BRANCH  12  42
DOCKED: ATOM     42  C   UNL d   1      14.067  -7.023   6.683 -0.23 +0.00    +0.004 C 
DOCKED: ATOM     43  C   UNL d   1      13.153  -6.047   6.778 -0.37 +0.00    +0.012 C 
DOCKED: ENDBRANCH  12  42
DOCKED: BRANCH  17  44
DOCKED: ATOM     44  C   UNL d   1      10.611  -6.348  -0.479 -0.18 -0.00    +0.004 C 
DOCKED: ATOM     45  C   UNL d   1       9.964  -5.186  -0.345 -0.37 -0.00    +0.012 C 
DOCKED: ENDBRANCH  17  44
DOCKED: TORSDOF 10
DOCKED: TER
DOCKED: ENDMDL
________________________________________________________________________________


	BEGINNING GENETIC ALGORITHM DOCKING 13 of 100
Run: 13 Seed: 208761852 965339194 [ Run 13 of 100 GA/GALS ]
Beginning LAMARCKIAN GENETIC ALGORITHM (LGA), with a maximum of 25000000 energy evaluations.

Final-Value: -9.483


	FINAL GENETIC ALGORITHM DOCKED STATE
	_______________________________________________


Detailed state:  trans 9.752 -13.145 1.927 quatxyzw 0.879119 0.337002 0.282556 -0.183691 center -0.174 -0.001 -0.047 ntor 10 -165.2218 -77.9388 90.3245 44.2414 74.8032 -41.2194 52.5815 96.5532 172.6812 172.6431
State:	  9.752 -13.145   1.927   0.894  0.343  0.287 -158.830   -165.22  -77.94   90.32   44.24   74.80  -41.22   52.58   96.55  172.68  172.64

DOCKED: MODEL       13
DOCKED: USER    Run = 13
DOCKED: USER    DPF = D:/Protein_go_brrr/autodock/final/mut_K82N/heme_Fe/dock.dpf
DOCKED: USER  
DOCKED: USER    Estimated Free Energy of Binding    =   -5.78 kcal/mol  [=(1)+(2)+(3)-(4)]
DOCKED: USER    Estimated Inhibition Constant, Ki   =   57.58 uM (micromolar)  [Temperature = 298.15 K]
DOCKED: USER    
DOCKED: USER    (1) Final Intermolecular Energy     =   -8.77 kcal/mol
DOCKED: USER        vdW + Hbond + desolv Energy     =   -7.67 kcal/mol
DOCKED: USER        Electrostatic Energy            =   -1.10 kcal/mol
DOCKED: USER    (2) Final Total Internal Energy     =   -0.72 kcal/mol
DOCKED: USER    (3) Torsional Free Energy           =   +2.98 kcal/mol
DOCKED: USER    (4) Unbound System's Energy  [=(2)] =   -0.72 kcal/mol
DOCKED: USER    
DOCKED: USER    
DOCKED: USER    NEWDPF move heme_Fe_opt.pdbqt
DOCKED: USER    NEWDPF about -0.174000 -0.001000 -0.047000
DOCKED: USER    NEWDPF tran0 9.751990 -13.145003 1.926885
DOCKED: USER    NEWDPF quaternion0 0.879119 0.337002 0.282556 -0.183691
DOCKED: USER    NEWDPF axisangle0 0.894337 0.342835 0.287448 -158.830353
DOCKED: USER    NEWDPF quat0 0.894337 0.342835 0.287448 -158.830353
DOCKED: USER    NEWDPF dihe0 -165.22 -77.94 90.32 44.24 74.80 -41.22 52.58 96.55 172.68 172.64 
DOCKED: USER  keepresnum = 1 
DOCKED: USER  
DOCKED: REMARK  10 active torsions:
DOCKED: REMARK  status: ('A' for Active; 'I' for Inactive)
DOCKED: REMARK    1  A    between atoms: C_6  and  C_10 
DOCKED: REMARK    2  A    between atoms: C_10  and  C_11 
DOCKED: REMARK    3  A    between atoms: C_11  and  C_12 
DOCKED: REMARK    4  A    between atoms: C_12  and  O_14 
DOCKED: REMARK    5  A    between atoms: C_17  and  C_20 
DOCKED: REMARK    6  A    between atoms: C_24  and  C_27 
DOCKED: REMARK    7  A    between atoms: C_31  and  C_34 
DOCKED: REMARK    8  A    between atoms: C_34  and  C_35 
DOCKED: REMARK    9  A    between atoms: C_35  and  C_36 
DOCKED: REMARK   10  A    between atoms: C_36  and  O_38 
DOCKED: USER                              x       y       z     vdW  Elec       q    Type
DOCKED: USER                           _______ _______ _______ _____ _____    ______ ____
DOCKED: ROOT
DOCKED: ATOM      1  C   UNL d   1       8.839 -14.553   0.747 -0.29 +0.01    +0.064 C 
DOCKED: ATOM      2  C   UNL d   1       9.333  -9.639   0.552 -0.20 +0.00    +0.064 A 
DOCKED: ATOM      3  C   UNL d   1      12.811  -9.927   3.851 -0.18 +0.01    +0.064 C 
DOCKED: ATOM      4  C   UNL d   1      12.277 -14.673   4.132 -0.08 +0.03    +0.064 C 
DOCKED: ATOM      5  C   UNL d   1       8.598 -13.135   0.447 -0.24 +0.01    +0.066 A 
DOCKED: ATOM      6  C   UNL d   1       7.592 -12.661  -0.380 -0.33 -0.00    -0.021 A 
DOCKED: ATOM      7  C   UNL d   1       7.732 -11.297  -0.436 -0.37 -0.00    -0.025 A 
DOCKED: ATOM      8  C   UNL d   1       8.819 -10.990   0.359 -0.26 +0.01    +0.066 A 
DOCKED: ATOM      9  C   UNL d   1       6.856 -10.350  -1.198 -0.30 +0.00    +0.051 C 
DOCKED: ATOM     10  C   UNL d   1      10.343  -9.309   1.358 -0.27 +0.00    +0.066 A 
DOCKED: ATOM     11  C   UNL d   1      10.886  -8.024   1.434 -0.31 +0.00    -0.021 A 
DOCKED: ATOM     12  C   UNL d   1      11.902  -8.085   2.366 -0.26 +0.00    +0.000 A 
DOCKED: ATOM     13  C   UNL d   1      11.932  -9.418   2.810 -0.22 +0.01    +0.070 A 
DOCKED: ATOM     14  C   UNL d   1      10.501  -6.814   0.608 -0.32 -0.00    +0.052 C 
DOCKED: ATOM     15  C   UNL d   1      12.880 -11.221   4.244 -0.12 +0.01    +0.066 A 
DOCKED: ATOM     16  C   UNL d   1      13.660 -11.649   5.311 -0.10 -0.00    -0.021 A 
DOCKED: ATOM     17  C   UNL d   1      13.510 -13.018   5.391 -0.09 +0.00    +0.000 A 
DOCKED: ATOM     18  C   UNL d   1      12.643 -13.394   4.368 +0.02 +0.03    +0.070 A 
DOCKED: ATOM     19  C   UNL d   1      14.533 -10.810   6.204 -0.08 +0.00    +0.052 C 
DOCKED: ATOM     20  C   UNL d   1      11.320 -15.099   3.104 -0.12 +0.03    +0.066 A 
DOCKED: ATOM     21  C   UNL d   1      11.084 -16.426   2.718 -0.11 -0.01    -0.025 A 
DOCKED: ATOM     22  C   UNL d   1      10.091 -16.369   1.761 -0.17 -0.00    -0.021 A 
DOCKED: ATOM     23  C   UNL d   1       9.767 -15.017   1.598 -0.21 +0.02    +0.066 A 
DOCKED: ATOM     24  C   UNL d   1      11.754 -17.686   3.213 -0.05 +0.01    +0.051 C 
DOCKED: ATOM     25  N   UNL d   1       9.337 -12.109   0.903 -0.15 -0.05    -0.248 N 
DOCKED: ATOM     26  N   UNL d   1      10.988 -10.167   2.189 -0.14 -0.03    -0.248 N 
DOCKED: ATOM     27  N   UNL d   1      12.221 -12.285   3.689 -0.05 -0.09    -0.248 N 
DOCKED: ATOM     28  N   UNL d   1      10.552 -14.244   2.387 -0.12 -0.09    -0.248 N 
DOCKED: ATOM     29 FE   UNL d   1      10.771 -12.207   2.289 -0.05 +0.00    +0.000 Fe
DOCKED: ENDROOT
DOCKED: BRANCH   6  30
DOCKED: ATOM     30  C   UNL d   1       6.537 -13.460  -1.065 -0.36 +0.01    +0.052 C 
DOCKED: BRANCH  30  31
DOCKED: ATOM     31  C   UNL d   1       6.925 -13.739  -2.513 -0.20 +0.03    +0.115 C 
DOCKED: BRANCH  31  32
DOCKED: ATOM     32  C   UNL d   1       5.821 -13.321  -3.444 -0.21 +0.07    +0.139 C 
DOCKED: ATOM     33  O   UNL d   1       5.619 -12.138  -3.681 -0.49 -0.35    -0.650 OA
DOCKED: BRANCH  32  34
DOCKED: ATOM     34  O   UNL d   1       5.041 -14.248  -4.025 +0.09 -0.85    -0.776 OA
DOCKED: ATOM     35  H   UNL d   1       5.052 -15.153  -3.682 -0.48 +0.19    +0.167 HD
DOCKED: ENDBRANCH  32  34
DOCKED: ENDBRANCH  31  32
DOCKED: ENDBRANCH  30  31
DOCKED: ENDBRANCH   6  30
DOCKED: BRANCH  22  36
DOCKED: ATOM     36  C   UNL d   1       9.523 -17.546   1.012 -0.14 +0.01    +0.052 C 
DOCKED: BRANCH  36  37
DOCKED: ATOM     37  C   UNL d   1      10.319 -17.775  -0.264 -0.09 +0.01    +0.115 C 
DOCKED: BRANCH  37  38
DOCKED: ATOM     38  C   UNL d   1       9.822 -16.893  -1.374 -0.08 +0.01    +0.139 C 
DOCKED: ATOM     39  O   UNL d   1       8.625 -16.713  -1.542 +0.01 -0.09    -0.650 OA
DOCKED: BRANCH  38  40
DOCKED: ATOM     40  O   UNL d   1      10.700 -16.293  -2.199 +0.03 -0.05    -0.776 OA
DOCKED: ATOM     41  H   UNL d   1      10.846 -16.665  -3.080 +0.01 +0.01    +0.167 HD
DOCKED: ENDBRANCH  38  40
DOCKED: ENDBRANCH  37  38
DOCKED: ENDBRANCH  36  37
DOCKED: ENDBRANCH  22  36
DOCKED: BRANCH  12  42
DOCKED: ATOM     42  C   UNL d   1      12.770  -6.933   2.762 -0.21 +0.00    +0.004 C 
DOCKED: ATOM     43  C   UNL d   1      13.095  -6.724   4.045 -0.22 +0.00    +0.012 C 
DOCKED: ENDBRANCH  12  42
DOCKED: BRANCH  17  44
DOCKED: ATOM     44  C   UNL d   1      14.139 -13.906   6.395 -0.07 +0.00    +0.004 C 
DOCKED: ATOM     45  C   UNL d   1      13.462 -14.305   7.477 -0.09 +0.00    +0.012 C 
DOCKED: ENDBRANCH  17  44
DOCKED: TORSDOF 10
DOCKED: TER
DOCKED: ENDMDL
________________________________________________________________________________


	BEGINNING GENETIC ALGORITHM DOCKING 14 of 100
Run: 14 Seed: 792934226 840154510 [ Run 14 of 100 GA/GALS ]
Beginning LAMARCKIAN GENETIC ALGORITHM (LGA), with a maximum of 25000000 energy evaluations.

Final-Value: -12.378


	FINAL GENETIC ALGORITHM DOCKED STATE
	_______________________________________________


Detailed state:  trans -8.155 6.719 -12.707 quatxyzw -0.686714 0.065285 0.563917 -0.454049 center -0.174 -0.001 -0.047 ntor 10 136.9437 61.0755 17.2831 -4.8710 136.8025 -173.2100 -18.6205 -47.7111 -165.8451 13.2668
State:	 -8.155   6.719 -12.707  -0.771  0.073  0.633 -125.993    136.94   61.08   17.28   -4.87  136.80 -173.21  -18.62  -47.71 -165.85   13.27

DOCKED: MODEL       14
DOCKED: USER    Run = 14
DOCKED: USER    DPF = D:/Protein_go_brrr/autodock/final/mut_K82N/heme_Fe/dock.dpf
DOCKED: USER  
DOCKED: USER    Estimated Free Energy of Binding    =   -7.48 kcal/mol  [=(1)+(2)+(3)-(4)]
DOCKED: USER    Estimated Inhibition Constant, Ki   =    3.30 uM (micromolar)  [Temperature = 298.15 K]
DOCKED: USER    
DOCKED: USER    (1) Final Intermolecular Energy     =  -10.46 kcal/mol
DOCKED: USER        vdW + Hbond + desolv Energy     =   -7.36 kcal/mol
DOCKED: USER        Electrostatic Energy            =   -3.11 kcal/mol
DOCKED: USER    (2) Final Total Internal Energy     =   -1.92 kcal/mol
DOCKED: USER    (3) Torsional Free Energy           =   +2.98 kcal/mol
DOCKED: USER    (4) Unbound System's Energy  [=(2)] =   -1.92 kcal/mol
DOCKED: USER    
DOCKED: USER    
DOCKED: USER    NEWDPF move heme_Fe_opt.pdbqt
DOCKED: USER    NEWDPF about -0.174000 -0.001000 -0.047000
DOCKED: USER    NEWDPF tran0 -8.154936 6.719355 -12.706703
DOCKED: USER    NEWDPF quaternion0 -0.686714 0.065285 0.563917 -0.454049
DOCKED: USER    NEWDPF axisangle0 -0.770743 0.073273 0.632919 -125.992508
DOCKED: USER    NEWDPF quat0 -0.770743 0.073273 0.632919 -125.992508
DOCKED: USER    NEWDPF dihe0 136.94 61.08 17.28 -4.87 136.80 -173.21 -18.62 -47.71 -165.85 13.27 
DOCKED: USER  keepresnum = 1 
DOCKED: USER  
DOCKED: REMARK  10 active torsions:
DOCKED: REMARK  status: ('A' for Active; 'I' for Inactive)
DOCKED: REMARK    1  A    between atoms: C_6  and  C_10 
DOCKED: REMARK    2  A    between atoms: C_10  and  C_11 
DOCKED: REMARK    3  A    between atoms: C_11  and  C_12 
DOCKED: REMARK    4  A    between atoms: C_12  and  O_14 
DOCKED: REMARK    5  A    between atoms: C_17  and  C_20 
DOCKED: REMARK    6  A    between atoms: C_24  and  C_27 
DOCKED: REMARK    7  A    between atoms: C_31  and  C_34 
DOCKED: REMARK    8  A    between atoms: C_34  and  C_35 
DOCKED: REMARK    9  A    between atoms: C_35  and  C_36 
DOCKED: REMARK   10  A    between atoms: C_36  and  O_38 
DOCKED: USER                              x       y       z     vdW  Elec       q    Type
DOCKED: USER                           _______ _______ _______ _____ _____    ______ ____
DOCKED: ROOT
DOCKED: ATOM      1  C   UNL d   1      -9.204   6.288 -10.997 -0.16 +0.01    +0.064 C 
DOCKED: ATOM      2  C   UNL d   1      -5.766   9.621 -12.223 -0.20 -0.01    +0.064 A 
DOCKED: ATOM      3  C   UNL d   1      -6.554   8.628 -16.855 -0.12 -0.01    +0.064 C 
DOCKED: ATOM      4  C   UNL d   1      -9.809   5.322 -15.687 -0.27 +0.01    +0.064 C 
DOCKED: ATOM      5  C   UNL d   1      -8.104   7.258 -10.909 -0.12 +0.01    +0.066 A 
DOCKED: ATOM      6  C   UNL d   1      -7.529   7.697  -9.728 -0.20 -0.00    -0.021 A 
DOCKED: ATOM      7  C   UNL d   1      -6.577   8.626 -10.069 -0.28 +0.00    -0.025 A 
DOCKED: ATOM      8  C   UNL d   1      -6.607   8.717 -11.447 -0.20 -0.00    +0.066 A 
DOCKED: ATOM      9  C   UNL d   1      -5.682   9.362  -9.120 -0.48 -0.01    +0.051 C 
DOCKED: ATOM     10  C   UNL d   1      -5.735   9.688 -13.555 -0.18 -0.01    +0.066 A 
DOCKED: ATOM     11  C   UNL d   1      -5.004  10.642 -14.265 -0.21 +0.01    -0.021 A 
DOCKED: ATOM     12  C   UNL d   1      -5.227  10.388 -15.604 -0.10 -0.00    +0.000 A 
DOCKED: ATOM     13  C   UNL d   1      -6.099   9.286 -15.640 -0.09 -0.01    +0.070 A 
DOCKED: ATOM     14  C   UNL d   1      -4.186  11.784 -13.697 -0.47 -0.02    +0.052 C 
DOCKED: ATOM     15  C   UNL d   1      -7.434   7.599 -16.897 -0.16 -0.01    +0.066 A 
DOCKED: ATOM     16  C   UNL d   1      -7.766   6.933 -18.070 -0.16 +0.00    -0.021 A 
DOCKED: ATOM     17  C   UNL d   1      -8.708   5.981 -17.736 -0.22 -0.00    +0.000 A 
DOCKED: ATOM     18  C   UNL d   1      -8.931   6.093 -16.365 -0.23 +0.00    +0.070 A 
DOCKED: ATOM     19  C   UNL d   1      -7.241   7.195 -19.456 -0.13 -0.01    +0.052 C 
DOCKED: ATOM     20  C   UNL d   1     -10.025   5.369 -14.236 -0.21 +0.01    +0.066 A 
DOCKED: ATOM     21  C   UNL d   1     -11.065   4.725 -13.551 -0.18 -0.01    -0.025 A 
DOCKED: ATOM     22  C   UNL d   1     -10.866   5.003 -12.215 -0.15 -0.01    -0.021 A 
DOCKED: ATOM     23  C   UNL d   1      -9.722   5.807 -12.138 -0.16 +0.01    +0.066 A 
DOCKED: ATOM     24  C   UNL d   1     -12.194   3.893 -14.115 -0.18 +0.03    +0.051 C 
DOCKED: ATOM     25  N   UNL d   1      -7.531   7.877 -11.956 -0.03 -0.01    -0.248 N 
DOCKED: ATOM     26  N   UNL d   1      -6.416   8.864 -14.392 -0.07 +0.03    -0.248 N 
DOCKED: ATOM     27  N   UNL d   1      -8.116   7.057 -15.841 -0.13 +0.01    -0.248 N 
DOCKED: ATOM     28  N   UNL d   1      -9.240   6.063 -13.378 -0.04 -0.03    -0.248 N 
DOCKED: ATOM     29 FE   UNL d   1      -7.829   7.462 -13.886 -0.04 +0.00    +0.000 Fe
DOCKED: ENDROOT
DOCKED: BRANCH   6  30
DOCKED: ATOM     30  C   UNL d   1      -7.851   7.244  -8.345 -0.19 +0.01    +0.052 C 
DOCKED: BRANCH  30  31
DOCKED: ATOM     31  C   UNL d   1      -9.158   7.864  -7.864 -0.17 +0.04    +0.115 C 
DOCKED: BRANCH  31  32
DOCKED: ATOM     32  C   UNL d   1      -9.711   7.089  -6.700 -0.12 +0.11    +0.139 C 
DOCKED: ATOM     33  O   UNL d   1     -10.169   7.669  -5.726 -0.56 -0.51    -0.650 OA
DOCKED: BRANCH  32  34
DOCKED: ATOM     34  O   UNL d   1      -9.708   5.745  -6.722 -0.49 -1.30    -0.776 OA
DOCKED: ATOM     35  H   UNL d   1      -9.965   5.288  -7.535 +0.03 +0.29    +0.167 HD
DOCKED: ENDBRANCH  32  34
DOCKED: ENDBRANCH  31  32
DOCKED: ENDBRANCH  30  31
DOCKED: ENDBRANCH   6  30
DOCKED: BRANCH  22  36
DOCKED: ATOM     36  C   UNL d   1     -11.755   4.561 -11.082 -0.11 +0.02    +0.052 C 
DOCKED: BRANCH  36  37
DOCKED: ATOM     37  C   UNL d   1     -11.035   3.515 -10.243 -0.07 +0.06    +0.115 C 
DOCKED: BRANCH  37  38
DOCKED: ATOM     38  C   UNL d   1     -11.124   3.845  -8.780 -0.09 +0.16    +0.139 C 
DOCKED: ATOM     39  O   UNL d   1     -10.504   3.191  -7.953 +0.24 -1.17    -0.650 OA
DOCKED: BRANCH  38  40
DOCKED: ATOM     40  O   UNL d   1     -11.894   4.867  -8.367 +0.04 -1.05    -0.776 OA
DOCKED: ATOM     41  H   UNL d   1     -11.482   5.608  -7.902 +0.02 +0.25    +0.167 HD
DOCKED: ENDBRANCH  38  40
DOCKED: ENDBRANCH  37  38
DOCKED: ENDBRANCH  36  37
DOCKED: ENDBRANCH  22  36
DOCKED: BRANCH  12  42
DOCKED: ATOM     42  C   UNL d   1      -4.646  11.177 -16.734 -0.09 -0.00    +0.004 C 
DOCKED: ATOM     43  C   UNL d   1      -3.326  11.192 -16.956 -0.14 -0.01    +0.012 C 
DOCKED: ENDBRANCH  12  42
DOCKED: BRANCH  17  44
DOCKED: ATOM     44  C   UNL d   1      -9.338   5.015 -18.664 -0.24 +0.00    +0.004 C 
DOCKED: ATOM     45  C   UNL d   1      -8.594   4.286 -19.501 -0.24 +0.00    +0.012 C 
DOCKED: ENDBRANCH  17  44
DOCKED: TORSDOF 10
DOCKED: TER
DOCKED: ENDMDL
________________________________________________________________________________


	BEGINNING GENETIC ALGORITHM DOCKING 15 of 100
Run: 15 Seed: 1124914822 616590351 [ Run 15 of 100 GA/GALS ]
Beginning LAMARCKIAN GENETIC ALGORITHM (LGA), with a maximum of 25000000 energy evaluations.

Final-Value: -12.031


	FINAL GENETIC ALGORITHM DOCKED STATE
	_______________________________________________


Detailed state:  trans -8.746 6.620 -12.155 quatxyzw -0.718730 0.038370 0.528167 -0.450549 center -0.174 -0.001 -0.047 ntor 10 -169.6741 99.7913 14.1865 -166.4348 15.6494 178.3885 -0.5473 -42.0857 -134.8515 -4.3459
State:	 -8.746   6.620 -12.155  -0.805  0.043  0.592 -126.442   -169.67   99.79   14.19 -166.43   15.65  178.39   -0.55  -42.09 -134.85   -4.35

DOCKED: MODEL       15
DOCKED: USER    Run = 15
DOCKED: USER    DPF = D:/Protein_go_brrr/autodock/final/mut_K82N/heme_Fe/dock.dpf
DOCKED: USER  
DOCKED: USER    Estimated Free Energy of Binding    =   -7.66 kcal/mol  [=(1)+(2)+(3)-(4)]
DOCKED: USER    Estimated Inhibition Constant, Ki   =    2.42 uM (micromolar)  [Temperature = 298.15 K]
DOCKED: USER    
DOCKED: USER    (1) Final Intermolecular Energy     =  -10.65 kcal/mol
DOCKED: USER        vdW + Hbond + desolv Energy     =   -7.31 kcal/mol
DOCKED: USER        Electrostatic Energy            =   -3.33 kcal/mol
DOCKED: USER    (2) Final Total Internal Energy     =   -1.39 kcal/mol
DOCKED: USER    (3) Torsional Free Energy           =   +2.98 kcal/mol
DOCKED: USER    (4) Unbound System's Energy  [=(2)] =   -1.39 kcal/mol
DOCKED: USER    
DOCKED: USER    
DOCKED: USER    NEWDPF move heme_Fe_opt.pdbqt
DOCKED: USER    NEWDPF about -0.174000 -0.001000 -0.047000
DOCKED: USER    NEWDPF tran0 -8.745811 6.619801 -12.155460
DOCKED: USER    NEWDPF quaternion0 -0.718730 0.038370 0.528167 -0.450549
DOCKED: USER    NEWDPF axisangle0 -0.805073 0.042980 0.591616 -126.442160
DOCKED: USER    NEWDPF quat0 -0.805073 0.042980 0.591616 -126.442160
DOCKED: USER    NEWDPF dihe0 -169.67 99.79 14.19 -166.43 15.65 178.39 -0.55 -42.09 -134.85 -4.35 
DOCKED: USER  keepresnum = 1 
DOCKED: USER  
DOCKED: REMARK  10 active torsions:
DOCKED: REMARK  status: ('A' for Active; 'I' for Inactive)
DOCKED: REMARK    1  A    between atoms: C_6  and  C_10 
DOCKED: REMARK    2  A    between atoms: C_10  and  C_11 
DOCKED: REMARK    3  A    between atoms: C_11  and  C_12 
DOCKED: REMARK    4  A    between atoms: C_12  and  O_14 
DOCKED: REMARK    5  A    between atoms: C_17  and  C_20 
DOCKED: REMARK    6  A    between atoms: C_24  and  C_27 
DOCKED: REMARK    7  A    between atoms: C_31  and  C_34 
DOCKED: REMARK    8  A    between atoms: C_34  and  C_35 
DOCKED: REMARK    9  A    between atoms: C_35  and  C_36 
DOCKED: REMARK   10  A    between atoms: C_36  and  O_38 
DOCKED: USER                              x       y       z     vdW  Elec       q    Type
DOCKED: USER                           _______ _______ _______ _____ _____    ______ ____
DOCKED: ROOT
DOCKED: ATOM      1  C   UNL d   1      -9.970   6.187 -10.566 -0.11 +0.02    +0.064 C 
DOCKED: ATOM      2  C   UNL d   1      -6.460   9.556 -11.440 -0.24 -0.01    +0.064 A 
DOCKED: ATOM      3  C   UNL d   1      -6.725   8.518 -16.121 -0.14 -0.01    +0.064 C 
DOCKED: ATOM      4  C   UNL d   1     -10.048   5.179 -15.286 -0.26 +0.02    +0.064 C 
DOCKED: ATOM      5  C   UNL d   1      -8.898   7.172 -10.368 -0.10 +0.01    +0.066 A 
DOCKED: ATOM      6  C   UNL d   1      -8.461   7.628  -9.135 -0.16 -0.00    -0.021 A 
DOCKED: ATOM      7  C   UNL d   1      -7.488   8.566  -9.379 -0.23 -0.00    -0.025 A 
DOCKED: ATOM      8  C   UNL d   1      -7.369   8.647 -10.753 -0.17 +0.00    +0.066 A 
DOCKED: ATOM      9  C   UNL d   1      -6.711   9.321  -8.344 -0.37 +0.00    +0.051 C 
DOCKED: ATOM     10  C   UNL d   1      -6.284   9.613 -12.761 -0.18 -0.01    +0.066 A 
DOCKED: ATOM     11  C   UNL d   1      -5.491  10.572 -13.396 -0.24 +0.00    -0.021 A 
DOCKED: ATOM     12  C   UNL d   1      -5.565  10.304 -14.749 -0.13 -0.00    +0.000 A 
DOCKED: ATOM     13  C   UNL d   1      -6.413   9.191 -14.870 -0.10 -0.01    +0.070 A 
DOCKED: ATOM     14  C   UNL d   1      -4.755  11.729 -12.752 -0.43 -0.01    +0.052 C 
DOCKED: ATOM     15  C   UNL d   1      -7.582   7.478 -16.250 -0.17 -0.01    +0.066 A 
DOCKED: ATOM     16  C   UNL d   1      -7.777   6.798 -17.446 -0.18 +0.00    -0.021 A 
DOCKED: ATOM     17  C   UNL d   1      -8.738   5.837 -17.208 -0.25 +0.00    +0.000 A 
DOCKED: ATOM     18  C   UNL d   1      -9.110   5.956 -15.871 -0.24 +0.01    +0.070 A 
DOCKED: ATOM     19  C   UNL d   1      -7.107   7.057 -18.768 -0.15 -0.01    +0.052 C 
DOCKED: ATOM     20  C   UNL d   1     -10.422   5.233 -13.868 -0.19 +0.02    +0.066 A 
DOCKED: ATOM     21  C   UNL d   1     -11.522   4.581 -13.294 -0.15 -0.01    -0.025 A 
DOCKED: ATOM     22  C   UNL d   1     -11.473   4.872 -11.947 -0.12 -0.01    -0.021 A 
DOCKED: ATOM     23  C   UNL d   1     -10.355   5.691 -11.753 -0.13 +0.02    +0.066 A 
DOCKED: ATOM     24  C   UNL d   1     -12.572   3.731 -13.971 -0.16 +0.03    +0.051 C 
DOCKED: ATOM     25  N   UNL d   1      -8.221   7.791 -11.351 -0.07 -0.02    -0.248 N 
DOCKED: ATOM     26  N   UNL d   1      -6.859   8.774 -13.660 -0.06 +0.02    -0.248 N 
DOCKED: ATOM     27  N   UNL d   1      -8.369   6.934 -15.270 -0.08 -0.00    -0.248 N 
DOCKED: ATOM     28  N   UNL d   1      -9.743   5.945 -12.935 -0.11 -0.04    -0.248 N 
DOCKED: ATOM     29 FE   UNL d   1      -8.302   7.358 -13.299 -0.04 +0.00    +0.000 Fe
DOCKED: ENDROOT
DOCKED: BRANCH   6  30
DOCKED: ATOM     30  C   UNL d   1      -8.926   7.181  -7.792 -0.16 +0.02    +0.052 C 
DOCKED: BRANCH  30  31
DOCKED: ATOM     31  C   UNL d   1     -10.448   7.100  -7.747 -0.14 +0.08    +0.115 C 
DOCKED: BRANCH  31  32
DOCKED: ATOM     32  C   UNL d   1     -10.910   6.636  -6.393 -0.05 +0.19    +0.139 C 
DOCKED: ATOM     33  O   UNL d   1     -10.150   6.653  -5.435 -0.42 -0.80    -0.650 OA
DOCKED: BRANCH  32  34
DOCKED: ATOM     34  O   UNL d   1     -12.169   6.198  -6.224 -0.08 -1.53    -0.776 OA
DOCKED: ATOM     35  H   UNL d   1     -12.721   6.042  -7.003 +0.01 +0.25    +0.167 HD
DOCKED: ENDBRANCH  32  34
DOCKED: ENDBRANCH  31  32
DOCKED: ENDBRANCH  30  31
DOCKED: ENDBRANCH   6  30
DOCKED: BRANCH  22  36
DOCKED: ATOM     36  C   UNL d   1     -12.475   4.427 -10.914 -0.08 +0.02    +0.052 C 
DOCKED: BRANCH  36  37
DOCKED: ATOM     37  C   UNL d   1     -12.015   3.120 -10.283 -0.12 +0.06    +0.115 C 
DOCKED: BRANCH  37  38
DOCKED: ATOM     38  C   UNL d   1     -12.217   3.141  -8.794 -0.09 +0.15    +0.139 C 
DOCKED: ATOM     39  O   UNL d   1     -11.935   2.167  -8.111 -0.51 -0.92    -0.650 OA
DOCKED: BRANCH  38  40
DOCKED: ATOM     40  O   UNL d   1     -12.715   4.240  -8.200 +0.05 -1.12    -0.776 OA
DOCKED: ATOM     41  H   UNL d   1     -12.125   4.984  -8.016 +0.01 +0.27    +0.167 HD
DOCKED: ENDBRANCH  38  40
DOCKED: ENDBRANCH  37  38
DOCKED: ENDBRANCH  36  37
DOCKED: ENDBRANCH  22  36
DOCKED: BRANCH  12  42
DOCKED: ATOM     42  C   UNL d   1      -4.873  11.092 -15.816 -0.13 -0.00    +0.004 C 
DOCKED: ATOM     43  C   UNL d   1      -3.537  11.174 -15.856 -0.23 -0.01    +0.012 C 
DOCKED: ENDBRANCH  12  42
DOCKED: BRANCH  17  44
DOCKED: ATOM     44  C   UNL d   1      -9.251   4.856 -18.191 -0.20 +0.00    +0.004 C 
DOCKED: ATOM     45  C   UNL d   1     -10.514   4.919 -18.626 -0.18 +0.00    +0.012 C 
DOCKED: ENDBRANCH  17  44
DOCKED: TORSDOF 10
DOCKED: TER
DOCKED: ENDMDL
________________________________________________________________________________


	BEGINNING GENETIC ALGORITHM DOCKING 16 of 100
Run: 16 Seed: 631844489 1416841369 [ Run 16 of 100 GA/GALS ]
Beginning LAMARCKIAN GENETIC ALGORITHM (LGA), with a maximum of 25000000 energy evaluations.

Final-Value: -15.323


	FINAL GENETIC ALGORITHM DOCKED STATE
	_______________________________________________


Detailed state:  trans -5.475 3.721 -6.621 quatxyzw 0.917909 -0.185740 0.078606 -0.341708 center -0.174 -0.001 -0.047 ntor 10 -163.7220 -36.0213 20.5979 -136.6136 -51.5939 -161.6704 77.4903 -33.3112 -27.5737 -144.1471
State:	 -5.475   3.721  -6.621   0.977 -0.198  0.084 -140.038   -163.72  -36.02   20.60 -136.61  -51.59 -161.67   77.49  -33.31  -27.57 -144.15

DOCKED: MODEL       16
DOCKED: USER    Run = 16
DOCKED: USER    DPF = D:/Protein_go_brrr/autodock/final/mut_K82N/heme_Fe/dock.dpf
DOCKED: USER  
DOCKED: USER    Estimated Free Energy of Binding    =  -12.00 kcal/mol  [=(1)+(2)+(3)-(4)]
DOCKED: USER    Estimated Inhibition Constant, Ki   =    1.59 nM (nanomolar)  [Temperature = 298.15 K]
DOCKED: USER    
DOCKED: USER    (1) Final Intermolecular Energy     =  -14.99 kcal/mol
DOCKED: USER        vdW + Hbond + desolv Energy     =  -12.42 kcal/mol
DOCKED: USER        Electrostatic Energy            =   -2.57 kcal/mol
DOCKED: USER    (2) Final Total Internal Energy     =   -0.34 kcal/mol
DOCKED: USER    (3) Torsional Free Energy           =   +2.98 kcal/mol
DOCKED: USER    (4) Unbound System's Energy  [=(2)] =   -0.34 kcal/mol
DOCKED: USER    
DOCKED: USER    
DOCKED: USER    NEWDPF move heme_Fe_opt.pdbqt
DOCKED: USER    NEWDPF about -0.174000 -0.001000 -0.047000
DOCKED: USER    NEWDPF tran0 -5.475140 3.720685 -6.620581
DOCKED: USER    NEWDPF quaternion0 0.917909 -0.185740 0.078606 -0.341708
DOCKED: USER    NEWDPF axisangle0 0.976701 -0.197636 0.083641 -140.038009
DOCKED: USER    NEWDPF quat0 0.976701 -0.197636 0.083641 -140.038009
DOCKED: USER    NEWDPF dihe0 -163.72 -36.02 20.60 -136.61 -51.59 -161.67 77.49 -33.31 -27.57 -144.15 
DOCKED: USER  keepresnum = 1 
DOCKED: USER  
DOCKED: REMARK  10 active torsions:
DOCKED: REMARK  status: ('A' for Active; 'I' for Inactive)
DOCKED: REMARK    1  A    between atoms: C_6  and  C_10 
DOCKED: REMARK    2  A    between atoms: C_10  and  C_11 
DOCKED: REMARK    3  A    between atoms: C_11  and  C_12 
DOCKED: REMARK    4  A    between atoms: C_12  and  O_14 
DOCKED: REMARK    5  A    between atoms: C_17  and  C_20 
DOCKED: REMARK    6  A    between atoms: C_24  and  C_27 
DOCKED: REMARK    7  A    between atoms: C_31  and  C_34 
DOCKED: REMARK    8  A    between atoms: C_34  and  C_35 
DOCKED: REMARK    9  A    between atoms: C_35  and  C_36 
DOCKED: REMARK   10  A    between atoms: C_36  and  O_38 
DOCKED: USER                              x       y       z     vdW  Elec       q    Type
DOCKED: USER                           _______ _______ _______ _____ _____    ______ ____
DOCKED: ROOT
DOCKED: ATOM      1  C   UNL d   1      -7.262   3.982  -7.594 -0.30 +0.03    +0.064 C 
DOCKED: ATOM      2  C   UNL d   1      -2.599   5.379  -8.446 -0.44 +0.00    +0.064 A 
DOCKED: ATOM      3  C   UNL d   1      -1.119   2.193  -5.171 -0.42 +0.00    +0.064 C 
DOCKED: ATOM      4  C   UNL d   1      -5.633   0.900  -4.255 -0.48 +0.01    +0.064 C 
DOCKED: ATOM      5  C   UNL d   1      -6.093   4.729  -8.078 -0.11 +0.01    +0.066 A 
DOCKED: ATOM      6  C   UNL d   1      -6.147   5.804  -8.951 -0.27 -0.00    -0.021 A 
DOCKED: ATOM      7  C   UNL d   1      -4.852   6.189  -9.190 -0.41 -0.00    -0.025 A 
DOCKED: ATOM      8  C   UNL d   1      -4.055   5.334  -8.452 -0.41 +0.01    +0.066 A 
DOCKED: ATOM      9  C   UNL d   1      -4.415   7.325 -10.062 -0.48 -0.01    +0.051 C 
DOCKED: ATOM     10  C   UNL d   1      -1.809   4.604  -7.700 -0.42 +0.00    +0.066 A 
DOCKED: ATOM     11  C   UNL d   1      -0.416   4.592  -7.801 -0.48 -0.00    -0.021 A 
DOCKED: ATOM     12  C   UNL d   1       0.034   3.669  -6.879 -0.49 +0.00    +0.000 A 
DOCKED: ATOM     13  C   UNL d   1      -1.120   3.155  -6.262 -0.38 +0.00    +0.070 A 
DOCKED: ATOM     14  C   UNL d   1       0.442   5.372  -8.777 -0.50 +0.00    +0.052 C 
DOCKED: ATOM     15  C   UNL d   1      -2.228   1.656  -4.609 -0.37 +0.00    +0.066 A 
DOCKED: ATOM     16  C   UNL d   1      -2.187   0.817  -3.503 -0.31 -0.00    -0.021 A 
DOCKED: ATOM     17  C   UNL d   1      -3.488   0.440  -3.239 -0.31 +0.00    +0.000 A 
DOCKED: ATOM     18  C   UNL d   1      -4.292   1.056  -4.195 -0.36 +0.00    +0.070 A 
DOCKED: ATOM     19  C   UNL d   1      -0.973   0.366  -2.737 -0.38 -0.00    +0.052 C 
DOCKED: ATOM     20  C   UNL d   1      -6.518   1.580  -5.208 -0.38 +0.01    +0.066 A 
DOCKED: ATOM     21  C   UNL d   1      -7.872   1.280  -5.413 -0.20 -0.01    -0.025 A 
DOCKED: ATOM     22  C   UNL d   1      -8.320   2.178  -6.359 -0.33 -0.01    -0.021 A 
DOCKED: ATOM     23  C   UNL d   1      -7.225   2.983  -6.698 -0.35 +0.03    +0.066 A 
DOCKED: ATOM     24  C   UNL d   1      -8.708   0.203  -4.760 +0.32 +0.02    +0.051 C 
DOCKED: ATOM     25  N   UNL d   1      -4.814   4.453  -7.770 -0.13 -0.07    -0.248 N 
DOCKED: ATOM     26  N   UNL d   1      -2.244   3.718  -6.769 -0.24 -0.03    -0.248 N 
DOCKED: ATOM     27  N   UNL d   1      -3.524   1.839  -5.011 -0.25 -0.02    -0.248 N 
DOCKED: ATOM     28  N   UNL d   1      -6.118   2.585  -6.026 -0.24 -0.06    -0.248 N 
DOCKED: ATOM     29 FE   UNL d   1      -4.182   3.150  -6.396 -0.09 +0.00    +0.000 Fe
DOCKED: ENDROOT
DOCKED: BRANCH   6  30
DOCKED: ATOM     30  C   UNL d   1      -7.368   6.447  -9.514 -0.25 +0.01    +0.052 C 
DOCKED: BRANCH  30  31
DOCKED: ATOM     31  C   UNL d   1      -8.232   7.033  -8.402 -0.17 +0.03    +0.115 C 
DOCKED: BRANCH  31  32
DOCKED: ATOM     32  C   UNL d   1      -9.408   6.138  -8.123 -0.17 +0.10    +0.139 C 
DOCKED: ATOM     33  O   UNL d   1     -10.136   5.764  -9.031 +0.00 -0.41    -0.650 OA
DOCKED: BRANCH  32  34
DOCKED: ATOM     34  O   UNL d   1      -9.669   5.740  -6.866 -0.51 -1.22    -0.776 OA
DOCKED: ATOM     35  H   UNL d   1      -9.255   6.211  -6.129 +0.04 +0.19    +0.167 HD
DOCKED: ENDBRANCH  32  34
DOCKED: ENDBRANCH  31  32
DOCKED: ENDBRANCH  30  31
DOCKED: ENDBRANCH   6  30
DOCKED: BRANCH  22  36
DOCKED: ATOM     36  C   UNL d   1      -9.709   2.226  -6.939 +0.45 +0.07    +0.052 C 
DOCKED: BRANCH  36  37
DOCKED: ATOM     37  C   UNL d   1     -10.144   0.825  -7.343 +0.12 +0.08    +0.115 C 
DOCKED: BRANCH  37  38
DOCKED: ATOM     38  C   UNL d   1     -11.621   0.639  -7.133 -0.17 +0.11    +0.139 C 
DOCKED: ATOM     39  O   UNL d   1     -12.108  -0.481  -7.077 -0.00 -0.25    -0.650 OA
DOCKED: BRANCH  38  40
DOCKED: ATOM     40  O   UNL d   1     -12.422   1.712  -7.009 -0.43 -1.35    -0.776 OA
DOCKED: ATOM     41  H   UNL d   1     -13.311   1.681  -7.387 +0.01 +0.17    +0.167 HD
DOCKED: ENDBRANCH  38  40
DOCKED: ENDBRANCH  37  38
DOCKED: ENDBRANCH  36  37
DOCKED: ENDBRANCH  22  36
DOCKED: BRANCH  12  42
DOCKED: ATOM     42  C   UNL d   1       1.470   3.320  -6.648 -0.61 +0.00    +0.004 C 
DOCKED: ATOM     43  C   UNL d   1       2.315   4.204  -6.102 -0.29 -0.00    +0.012 C 
DOCKED: ENDBRANCH  12  42
DOCKED: BRANCH  17  44
DOCKED: ATOM     44  C   UNL d   1      -3.934  -0.435  -2.132 -0.54 -0.00    +0.004 C 
DOCKED: ATOM     45  C   UNL d   1      -3.876  -1.766  -2.245 -0.69 -0.00    +0.012 C 
DOCKED: ENDBRANCH  17  44
DOCKED: TORSDOF 10
DOCKED: TER
DOCKED: ENDMDL
________________________________________________________________________________


	BEGINNING GENETIC ALGORITHM DOCKING 17 of 100
Run: 17 Seed: 465795772 1817960303 [ Run 17 of 100 GA/GALS ]
Beginning LAMARCKIAN GENETIC ALGORITHM (LGA), with a maximum of 25000000 energy evaluations.

Final-Value: -9.797


	FINAL GENETIC ALGORITHM DOCKED STATE
	_______________________________________________


Detailed state:  trans 12.250 -10.466 2.152 quatxyzw -0.268343 -0.386244 0.522595 -0.711127 center -0.174 -0.001 -0.047 ntor 10 33.3033 9.8433 -130.9984 -127.3697 -79.5774 -105.4598 76.9819 -56.2148 -179.6772 158.4798
State:	 12.250 -10.466   2.152  -0.382 -0.549  0.743 -89.347     33.30    9.84 -131.00 -127.37  -79.58 -105.46   76.98  -56.21 -179.68  158.48

DOCKED: MODEL       17
DOCKED: USER    Run = 17
DOCKED: USER    DPF = D:/Protein_go_brrr/autodock/final/mut_K82N/heme_Fe/dock.dpf
DOCKED: USER  
DOCKED: USER    Estimated Free Energy of Binding    =   -6.10 kcal/mol  [=(1)+(2)+(3)-(4)]
DOCKED: USER    Estimated Inhibition Constant, Ki   =   33.60 uM (micromolar)  [Temperature = 298.15 K]
DOCKED: USER    
DOCKED: USER    (1) Final Intermolecular Energy     =   -9.09 kcal/mol
DOCKED: USER        vdW + Hbond + desolv Energy     =   -8.01 kcal/mol
DOCKED: USER        Electrostatic Energy            =   -1.08 kcal/mol
DOCKED: USER    (2) Final Total Internal Energy     =   -0.71 kcal/mol
DOCKED: USER    (3) Torsional Free Energy           =   +2.98 kcal/mol
DOCKED: USER    (4) Unbound System's Energy  [=(2)] =   -0.71 kcal/mol
DOCKED: USER    
DOCKED: USER    
DOCKED: USER    NEWDPF move heme_Fe_opt.pdbqt
DOCKED: USER    NEWDPF about -0.174000 -0.001000 -0.047000
DOCKED: USER    NEWDPF tran0 12.249848 -10.465541 2.151898
DOCKED: USER    NEWDPF quaternion0 -0.268343 -0.386244 0.522595 -0.711127
DOCKED: USER    NEWDPF axisangle0 -0.381677 -0.549373 0.743312 -89.346625
DOCKED: USER    NEWDPF quat0 -0.381677 -0.549373 0.743312 -89.346625
DOCKED: USER    NEWDPF dihe0 33.30 9.84 -131.00 -127.37 -79.58 -105.46 76.98 -56.21 -179.68 158.48 
DOCKED: USER  keepresnum = 1 
DOCKED: USER  
DOCKED: REMARK  10 active torsions:
DOCKED: REMARK  status: ('A' for Active; 'I' for Inactive)
DOCKED: REMARK    1  A    between atoms: C_6  and  C_10 
DOCKED: REMARK    2  A    between atoms: C_10  and  C_11 
DOCKED: REMARK    3  A    between atoms: C_11  and  C_12 
DOCKED: REMARK    4  A    between atoms: C_12  and  O_14 
DOCKED: REMARK    5  A    between atoms: C_17  and  C_20 
DOCKED: REMARK    6  A    between atoms: C_24  and  C_27 
DOCKED: REMARK    7  A    between atoms: C_31  and  C_34 
DOCKED: REMARK    8  A    between atoms: C_34  and  C_35 
DOCKED: REMARK    9  A    between atoms: C_35  and  C_36 
DOCKED: REMARK   10  A    between atoms: C_36  and  O_38 
DOCKED: USER                              x       y       z     vdW  Elec       q    Type
DOCKED: USER                           _______ _______ _______ _____ _____    ______ ____
DOCKED: ROOT
DOCKED: ATOM      1  C   UNL d   1      11.532 -12.379   1.962 -0.14 +0.01    +0.064 C 
DOCKED: ATOM      2  C   UNL d   1      14.043  -9.933   5.447 -0.10 +0.01    +0.064 A 
DOCKED: ATOM      3  C   UNL d   1      12.899  -5.804   3.276 -0.08 +0.01    +0.064 C 
DOCKED: ATOM      4  C   UNL d   1      10.553  -8.158  -0.165 -0.15 +0.00    +0.064 C 
DOCKED: ATOM      5  C   UNL d   1      12.415 -12.078   3.098 -0.11 +0.02    +0.066 A 
DOCKED: ATOM      6  C   UNL d   1      13.032 -13.030   3.893 -0.09 -0.01    -0.021 A 
DOCKED: ATOM      7  C   UNL d   1      13.726 -12.350   4.863 -0.08 -0.01    -0.025 A 
DOCKED: ATOM      8  C   UNL d   1      13.506 -11.008   4.622 -0.10 +0.01    +0.066 A 
DOCKED: ATOM      9  C   UNL d   1      14.565 -12.963   5.942 -0.05 +0.01    +0.051 C 
DOCKED: ATOM     10  C   UNL d   1      13.893  -8.630   5.204 -0.13 +0.00    +0.066 A 
DOCKED: ATOM     11  C   UNL d   1      14.321  -7.625   6.075 -0.14 -0.00    -0.021 A 
DOCKED: ATOM     12  C   UNL d   1      13.988  -6.425   5.479 -0.19 +0.00    +0.000 A 
DOCKED: ATOM     13  C   UNL d   1      13.360  -6.763   4.268 -0.16 +0.01    +0.070 A 
DOCKED: ATOM     14  C   UNL d   1      14.955  -7.800   7.440 -0.13 +0.00    +0.052 C 
DOCKED: ATOM     15  C   UNL d   1      12.248  -6.123   2.133 -0.17 +0.00    +0.066 A 
DOCKED: ATOM     16  C   UNL d   1      11.913  -5.186   1.164 -0.22 +0.00    -0.021 A 
DOCKED: ATOM     17  C   UNL d   1      11.233  -5.863   0.172 -0.26 -0.00    +0.000 A 
DOCKED: ATOM     18  C   UNL d   1      11.166  -7.198   0.562 -0.22 -0.00    +0.070 A 
DOCKED: ATOM     19  C   UNL d   1      12.197  -3.708   1.178 -0.17 -0.01    +0.052 C 
DOCKED: ATOM     20  C   UNL d   1      10.515  -9.583   0.183 -0.20 +0.00    +0.066 A 
DOCKED: ATOM     21  C   UNL d   1       9.721 -10.551  -0.448 -0.20 -0.00    -0.025 A 
DOCKED: ATOM     22  C   UNL d   1      10.026 -11.748   0.165 -0.16 -0.00    -0.021 A 
DOCKED: ATOM     23  C   UNL d   1      10.984 -11.465   1.146 -0.14 +0.01    +0.066 A 
DOCKED: ATOM     24  C   UNL d   1       8.723 -10.367  -1.568 -0.23 +0.00    +0.051 C 
DOCKED: ATOM     25  N   UNL d   1      12.716 -10.845   3.542 -0.08 -0.04    -0.248 N 
DOCKED: ATOM     26  N   UNL d   1      13.294  -8.107   4.104 -0.09 -0.02    -0.248 N 
DOCKED: ATOM     27  N   UNL d   1      11.827  -7.368   1.746 -0.15 -0.00    -0.248 N 
DOCKED: ATOM     28  N   UNL d   1      11.245 -10.135   1.183 -0.11 -0.02    -0.248 N 
DOCKED: ATOM     29 FE   UNL d   1      12.268  -9.121   2.642 -0.04 +0.00    +0.000 Fe
DOCKED: ENDROOT
DOCKED: BRANCH   6  30
DOCKED: ATOM     30  C   UNL d   1      12.984 -14.511   3.729 -0.08 +0.02    +0.052 C 
DOCKED: BRANCH  30  31
DOCKED: ATOM     31  C   UNL d   1      11.817 -15.103   4.511 +0.03 +0.08    +0.115 C 
DOCKED: BRANCH  31  32
DOCKED: ATOM     32  C   UNL d   1      12.306 -15.745   5.780 -0.06 +0.09    +0.139 C 
DOCKED: ATOM     33  O   UNL d   1      12.807 -16.861   5.761 +0.01 -0.17    -0.650 OA
DOCKED: BRANCH  32  34
DOCKED: ATOM     34  O   UNL d   1      12.197 -15.095   6.950 -0.50 -0.75    -0.776 OA
DOCKED: ATOM     35  H   UNL d   1      12.877 -15.227   7.626 +0.02 +0.06    +0.167 HD
DOCKED: ENDBRANCH  32  34
DOCKED: ENDBRANCH  31  32
DOCKED: ENDBRANCH  30  31
DOCKED: ENDBRANCH   6  30
DOCKED: BRANCH  22  36
DOCKED: ATOM     36  C   UNL d   1       9.394 -13.080  -0.143 -0.15 +0.01    +0.052 C 
DOCKED: BRANCH  36  37
DOCKED: ATOM     37  C   UNL d   1       8.406 -13.446   0.955 -0.33 +0.03    +0.115 C 
DOCKED: BRANCH  37  38
DOCKED: ATOM     38  C   UNL d   1       7.034 -13.682   0.389 -0.33 +0.05    +0.139 C 
DOCKED: ATOM     39  O   UNL d   1       6.146 -12.856   0.538 -0.11 -0.21    -0.650 OA
DOCKED: BRANCH  38  40
DOCKED: ATOM     40  O   UNL d   1       6.774 -14.814  -0.288 -0.56 -0.28    -0.776 OA
DOCKED: ATOM     41  H   UNL d   1       5.936 -14.894  -0.766 -0.54 +0.02    +0.167 HD
DOCKED: ENDBRANCH  38  40
DOCKED: ENDBRANCH  37  38
DOCKED: ENDBRANCH  36  37
DOCKED: ENDBRANCH  22  36
DOCKED: BRANCH  12  42
DOCKED: ATOM     42  C   UNL d   1      14.251  -5.075   6.068 -0.23 +0.00    +0.004 C 
DOCKED: ATOM     43  C   UNL d   1      13.413  -4.539   6.964 -0.40 +0.00    +0.012 C 
DOCKED: ENDBRANCH  12  42
DOCKED: BRANCH  17  44
DOCKED: ATOM     44  C   UNL d   1      10.701  -5.273  -1.078 -0.28 +0.00    +0.004 C 
DOCKED: ATOM     45  C   UNL d   1       9.614  -4.495  -1.059 -0.44 -0.00    +0.012 C 
DOCKED: ENDBRANCH  17  44
DOCKED: TORSDOF 10
DOCKED: TER
DOCKED: ENDMDL
________________________________________________________________________________


	BEGINNING GENETIC ALGORITHM DOCKING 18 of 100
Run: 18 Seed: 1796732032 1173255325 [ Run 18 of 100 GA/GALS ]
Beginning LAMARCKIAN GENETIC ALGORITHM (LGA), with a maximum of 25000000 energy evaluations.

Final-Value: -12.048


	FINAL GENETIC ALGORITHM DOCKED STATE
	_______________________________________________


Detailed state:  trans -8.260 6.701 -12.494 quatxyzw -0.711776 0.035574 0.547418 -0.438683 center -0.174 -0.001 -0.047 ntor 10 163.4352 52.2983 13.6873 -170.7493 124.5844 19.9451 -5.5555 59.6610 -176.7236 127.1504
State:	 -8.260   6.701 -12.494  -0.792  0.040  0.609 -127.960    163.44   52.30   13.69 -170.75  124.58   19.95   -5.56   59.66 -176.72  127.15

DOCKED: MODEL       18
DOCKED: USER    Run = 18
DOCKED: USER    DPF = D:/Protein_go_brrr/autodock/final/mut_K82N/heme_Fe/dock.dpf
DOCKED: USER  
DOCKED: USER    Estimated Free Energy of Binding    =   -7.09 kcal/mol  [=(1)+(2)+(3)-(4)]
DOCKED: USER    Estimated Inhibition Constant, Ki   =    6.32 uM (micromolar)  [Temperature = 298.15 K]
DOCKED: USER    
DOCKED: USER    (1) Final Intermolecular Energy     =  -10.08 kcal/mol
DOCKED: USER        vdW + Hbond + desolv Energy     =   -7.46 kcal/mol
DOCKED: USER        Electrostatic Energy            =   -2.62 kcal/mol
DOCKED: USER    (2) Final Total Internal Energy     =   -1.97 kcal/mol
DOCKED: USER    (3) Torsional Free Energy           =   +2.98 kcal/mol
DOCKED: USER    (4) Unbound System's Energy  [=(2)] =   -1.97 kcal/mol
DOCKED: USER    
DOCKED: USER    
DOCKED: USER    NEWDPF move heme_Fe_opt.pdbqt
DOCKED: USER    NEWDPF about -0.174000 -0.001000 -0.047000
DOCKED: USER    NEWDPF tran0 -8.260399 6.700911 -12.494338
DOCKED: USER    NEWDPF quaternion0 -0.711776 0.035574 0.547418 -0.438683
DOCKED: USER    NEWDPF axisangle0 -0.792058 0.039587 0.609161 -127.960232
DOCKED: USER    NEWDPF quat0 -0.792058 0.039587 0.609161 -127.960232
DOCKED: USER    NEWDPF dihe0 163.44 52.30 13.69 -170.75 124.58 19.95 -5.56 59.66 -176.72 127.15 
DOCKED: USER  keepresnum = 1 
DOCKED: USER  
DOCKED: REMARK  10 active torsions:
DOCKED: REMARK  status: ('A' for Active; 'I' for Inactive)
DOCKED: REMARK    1  A    between atoms: C_6  and  C_10 
DOCKED: REMARK    2  A    between atoms: C_10  and  C_11 
DOCKED: REMARK    3  A    between atoms: C_11  and  C_12 
DOCKED: REMARK    4  A    between atoms: C_12  and  O_14 
DOCKED: REMARK    5  A    between atoms: C_17  and  C_20 
DOCKED: REMARK    6  A    between atoms: C_24  and  C_27 
DOCKED: REMARK    7  A    between atoms: C_31  and  C_34 
DOCKED: REMARK    8  A    between atoms: C_34  and  C_35 
DOCKED: REMARK    9  A    between atoms: C_35  and  C_36 
DOCKED: REMARK   10  A    between atoms: C_36  and  O_38 
DOCKED: USER                              x       y       z     vdW  Elec       q    Type
DOCKED: USER                           _______ _______ _______ _____ _____    ______ ____
DOCKED: ROOT
DOCKED: ATOM      1  C   UNL d   1      -9.416   6.239 -10.863 -0.15 +0.01    +0.064 C 
DOCKED: ATOM      2  C   UNL d   1      -6.051   9.716 -11.873 -0.22 -0.01    +0.064 A 
DOCKED: ATOM      3  C   UNL d   1      -6.438   8.637 -16.537 -0.13 -0.01    +0.064 C 
DOCKED: ATOM      4  C   UNL d   1      -9.617   5.196 -15.571 -0.29 +0.01    +0.064 C 
DOCKED: ATOM      5  C   UNL d   1      -8.371   7.261 -10.706 -0.12 +0.01    +0.066 A 
DOCKED: ATOM      6  C   UNL d   1      -7.909   7.739  -9.491 -0.19 -0.00    -0.021 A 
DOCKED: ATOM      7  C   UNL d   1      -6.977   8.707  -9.773 -0.26 -0.00    -0.025 A 
DOCKED: ATOM      8  C   UNL d   1      -6.907   8.783 -11.150 -0.19 -0.00    +0.066 A 
DOCKED: ATOM      9  C   UNL d   1      -6.191   9.495  -8.769 -0.44 -0.00    +0.051 C 
DOCKED: ATOM     10  C   UNL d   1      -5.922   9.770 -13.199 -0.19 -0.01    +0.066 A 
DOCKED: ATOM     11  C   UNL d   1      -5.183  10.750 -13.866 -0.24 +0.00    -0.021 A 
DOCKED: ATOM     12  C   UNL d   1      -5.292  10.471 -15.214 -0.12 -0.00    +0.000 A 
DOCKED: ATOM     13  C   UNL d   1      -6.107   9.329 -15.301 -0.10 -0.01    +0.070 A 
DOCKED: ATOM     14  C   UNL d   1      -4.464  11.935 -13.254 -0.50 -0.01    +0.052 C 
DOCKED: ATOM     15  C   UNL d   1      -7.263   7.569 -16.630 -0.17 -0.01    +0.066 A 
DOCKED: ATOM     16  C   UNL d   1      -7.475   6.875 -17.815 -0.14 +0.00    -0.021 A 
DOCKED: ATOM     17  C   UNL d   1      -8.395   5.884 -17.540 -0.23 -0.00    +0.000 A 
DOCKED: ATOM     18  C   UNL d   1      -8.726   5.999 -16.192 -0.25 +0.00    +0.070 A 
DOCKED: ATOM     19  C   UNL d   1      -6.858   7.147 -19.161 -0.15 -0.01    +0.052 C 
DOCKED: ATOM     20  C   UNL d   1      -9.945   5.248 -14.141 -0.22 +0.01    +0.066 A 
DOCKED: ATOM     21  C   UNL d   1     -11.003   4.563 -13.528 -0.19 -0.01    -0.025 A 
DOCKED: ATOM     22  C   UNL d   1     -10.919   4.865 -12.184 -0.15 -0.01    -0.021 A 
DOCKED: ATOM     23  C   UNL d   1      -9.823   5.722 -12.033 -0.16 +0.01    +0.066 A 
DOCKED: ATOM     24  C   UNL d   1     -12.046   3.674 -14.164 -0.20 +0.03    +0.051 C 
DOCKED: ATOM     25  N   UNL d   1      -7.749   7.895 -11.715 -0.06 -0.01    -0.248 N 
DOCKED: ATOM     26  N   UNL d   1      -6.498   8.906 -14.073 -0.07 +0.02    -0.248 N 
DOCKED: ATOM     27  N   UNL d   1      -7.999   7.006 -15.622 -0.11 +0.01    -0.248 N 
DOCKED: ATOM     28  N   UNL d   1      -9.260   5.988 -13.236 -0.07 -0.03    -0.248 N 
DOCKED: ATOM     29 FE   UNL d   1      -7.880   7.446 -13.656 -0.04 +0.00    +0.000 Fe
DOCKED: ENDROOT
DOCKED: BRANCH   6  30
DOCKED: ATOM     30  C   UNL d   1      -8.314   7.286  -8.130 -0.14 +0.02    +0.052 C 
DOCKED: BRANCH  30  31
DOCKED: ATOM     31  C   UNL d   1      -9.541   8.052  -7.649 -0.17 +0.05    +0.115 C 
DOCKED: BRANCH  31  32
DOCKED: ATOM     32  C   UNL d   1     -10.024   7.500  -6.337 -0.06 +0.11    +0.139 C 
DOCKED: ATOM     33  O   UNL d   1     -10.151   8.229  -5.362 -0.61 -0.41    -0.650 OA
DOCKED: BRANCH  32  34
DOCKED: ATOM     34  O   UNL d   1     -10.323   6.195  -6.223 -0.23 -1.35    -0.776 OA
DOCKED: ATOM     35  H   UNL d   1     -10.457   5.672  -7.026 +0.05 +0.37    +0.167 HD
DOCKED: ENDBRANCH  32  34
DOCKED: ENDBRANCH  31  32
DOCKED: ENDBRANCH  30  31
DOCKED: ENDBRANCH   6  30
DOCKED: BRANCH  22  36
DOCKED: ATOM     36  C   UNL d   1     -11.871   4.393 -11.116 -0.11 +0.02    +0.052 C 
DOCKED: BRANCH  36  37
DOCKED: ATOM     37  C   UNL d   1     -12.219   5.551 -10.192 -0.04 +0.05    +0.115 C 
DOCKED: BRANCH  37  38
DOCKED: ATOM     38  C   UNL d   1     -11.840   5.240  -8.772 -0.08 +0.13    +0.139 C 
DOCKED: ATOM     39  O   UNL d   1     -11.020   4.369  -8.520 +0.00 -0.90    -0.650 OA
DOCKED: BRANCH  38  40
DOCKED: ATOM     40  O   UNL d   1     -12.407   5.923  -7.761 -0.01 -0.94    -0.776 OA
DOCKED: ATOM     41  H   UNL d   1     -11.839   6.338  -7.097 +0.01 +0.24    +0.167 HD
DOCKED: ENDBRANCH  38  40
DOCKED: ENDBRANCH  37  38
DOCKED: ENDBRANCH  36  37
DOCKED: ENDBRANCH  22  36
DOCKED: BRANCH  12  42
DOCKED: ATOM     42  C   UNL d   1      -4.664  11.274 -16.308 -0.12 -0.00    +0.004 C 
DOCKED: ATOM     43  C   UNL d   1      -3.334  11.408 -16.388 -0.20 -0.01    +0.012 C 
DOCKED: ENDBRANCH  12  42
DOCKED: BRANCH  17  44
DOCKED: ATOM     44  C   UNL d   1      -8.907   4.880 -18.499 -0.20 +0.00    +0.004 C 
DOCKED: ATOM     45  C   UNL d   1     -10.203   4.844 -18.826 -0.20 +0.00    +0.012 C 
DOCKED: ENDBRANCH  17  44
DOCKED: TORSDOF 10
DOCKED: TER
DOCKED: ENDMDL
________________________________________________________________________________


	BEGINNING GENETIC ALGORITHM DOCKING 19 of 100
Run: 19 Seed: 327019282 564059216 [ Run 19 of 100 GA/GALS ]
Beginning LAMARCKIAN GENETIC ALGORITHM (LGA), with a maximum of 25000000 energy evaluations.

Final-Value: -11.184


	FINAL GENETIC ALGORITHM DOCKED STATE
	_______________________________________________


Detailed state:  trans 4.057 6.079 19.177 quatxyzw -0.011022 -0.941422 0.268449 0.203809 center -0.174 -0.001 -0.047 ntor 10 -18.6655 -81.2597 79.8344 -161.2469 -168.4696 -167.9600 50.2064 30.7344 -37.7872 137.2622
State:	  4.057   6.079  19.177  -0.011 -0.962  0.274 156.480    -18.67  -81.26   79.83 -161.25 -168.47 -167.96   50.21   30.73  -37.79  137.26

DOCKED: MODEL       19
DOCKED: USER    Run = 19
DOCKED: USER    DPF = D:/Protein_go_brrr/autodock/final/mut_K82N/heme_Fe/dock.dpf
DOCKED: USER  
DOCKED: USER    Estimated Free Energy of Binding    =   -5.88 kcal/mol  [=(1)+(2)+(3)-(4)]
DOCKED: USER    Estimated Inhibition Constant, Ki   =   48.73 uM (micromolar)  [Temperature = 298.15 K]
DOCKED: USER    
DOCKED: USER    (1) Final Intermolecular Energy     =   -8.87 kcal/mol
DOCKED: USER        vdW + Hbond + desolv Energy     =   -8.35 kcal/mol
DOCKED: USER        Electrostatic Energy            =   -0.52 kcal/mol
DOCKED: USER    (2) Final Total Internal Energy     =   -2.32 kcal/mol
DOCKED: USER    (3) Torsional Free Energy           =   +2.98 kcal/mol
DOCKED: USER    (4) Unbound System's Energy  [=(2)] =   -2.32 kcal/mol
DOCKED: USER    
DOCKED: USER    
DOCKED: USER    NEWDPF move heme_Fe_opt.pdbqt
DOCKED: USER    NEWDPF about -0.174000 -0.001000 -0.047000
DOCKED: USER    NEWDPF tran0 4.056749 6.079190 19.177411
DOCKED: USER    NEWDPF quaternion0 -0.011022 -0.941422 0.268449 0.203809
DOCKED: USER    NEWDPF axisangle0 -0.011259 -0.961605 0.274205 156.480456
DOCKED: USER    NEWDPF quat0 -0.011259 -0.961605 0.274205 156.480456
DOCKED: USER    NEWDPF dihe0 -18.67 -81.26 79.83 -161.25 -168.47 -167.96 50.21 30.73 -37.79 137.26 
DOCKED: USER  keepresnum = 1 
DOCKED: USER  
DOCKED: REMARK  10 active torsions:
DOCKED: REMARK  status: ('A' for Active; 'I' for Inactive)
DOCKED: REMARK    1  A    between atoms: C_6  and  C_10 
DOCKED: REMARK    2  A    between atoms: C_10  and  C_11 
DOCKED: REMARK    3  A    between atoms: C_11  and  C_12 
DOCKED: REMARK    4  A    between atoms: C_12  and  O_14 
DOCKED: REMARK    5  A    between atoms: C_17  and  C_20 
DOCKED: REMARK    6  A    between atoms: C_24  and  C_27 
DOCKED: REMARK    7  A    between atoms: C_31  and  C_34 
DOCKED: REMARK    8  A    between atoms: C_34  and  C_35 
DOCKED: REMARK    9  A    between atoms: C_35  and  C_36 
DOCKED: REMARK   10  A    between atoms: C_36  and  O_38 
DOCKED: USER                              x       y       z     vdW  Elec       q    Type
DOCKED: USER                           _______ _______ _______ _____ _____    ______ ____
DOCKED: ROOT
DOCKED: ATOM      1  C   UNL d   1       6.066   5.933  19.568 -0.26 -0.01    +0.064 C 
DOCKED: ATOM      2  C   UNL d   1       2.212   2.863  19.960 -0.16 -0.06    +0.064 A 
DOCKED: ATOM      3  C   UNL d   1      -0.352   5.840  17.199 -0.26 -0.02    +0.064 C 
DOCKED: ATOM      4  C   UNL d   1       3.332   8.877  16.893 -0.27 -0.02    +0.064 C 
DOCKED: ATOM      5  C   UNL d   1       5.193   4.834  20.003 -0.27 -0.01    +0.066 A 
DOCKED: ATOM      6  C   UNL d   1       5.558   3.842  20.898 -0.31 +0.00    -0.021 A 
DOCKED: ATOM      7  C   UNL d   1       4.488   2.988  21.004 -0.32 +0.01    -0.025 A 
DOCKED: ATOM      8  C   UNL d   1       3.510   3.492  20.168 -0.30 -0.04    +0.066 A 
DOCKED: ATOM      9  C   UNL d   1       4.412   1.771  21.875 -0.13 -0.03    +0.051 C 
DOCKED: ATOM     10  C   UNL d   1       1.231   3.359  19.205 -0.29 -0.04    +0.066 A 
DOCKED: ATOM     11  C   UNL d   1       0.042   2.678  18.934 -0.28 +0.01    -0.021 A 
DOCKED: ATOM     12  C   UNL d   1      -0.708   3.508  18.125 -0.26 -0.00    +0.000 A 
DOCKED: ATOM     13  C   UNL d   1       0.073   4.661  17.936 -0.24 -0.03    +0.070 A 
DOCKED: ATOM     14  C   UNL d   1      -0.333   1.275  19.367 -0.37 -0.03    +0.052 C 
DOCKED: ATOM     15  C   UNL d   1       0.416   6.932  16.971 -0.21 -0.03    +0.066 A 
DOCKED: ATOM     16  C   UNL d   1      -0.061   8.078  16.347 -0.21 +0.01    -0.021 A 
DOCKED: ATOM     17  C   UNL d   1       1.001   8.954  16.255 -0.23 -0.00    +0.000 A 
DOCKED: ATOM     18  C   UNL d   1       2.104   8.318  16.821 -0.23 -0.03    +0.070 A 
DOCKED: ATOM     19  C   UNL d   1      -1.453   8.333  15.835 -0.22 -0.05    +0.052 C 
DOCKED: ATOM     20  C   UNL d   1       4.500   8.264  17.536 -0.21 -0.03    +0.066 A 
DOCKED: ATOM     21  C   UNL d   1       5.816   8.736  17.443 -0.18 +0.01    -0.025 A 
DOCKED: ATOM     22  C   UNL d   1       6.577   7.890  18.224 -0.18 +0.00    -0.021 A 
DOCKED: ATOM     23  C   UNL d   1       5.700   6.935  18.753 -0.22 -0.02    +0.066 A 
DOCKED: ATOM     24  C   UNL d   1       6.342   9.918  16.662 -0.16 -0.01    +0.051 C 
DOCKED: ATOM     25  N   UNL d   1       3.939   4.621  19.568 -0.20 +0.10    -0.248 N 
DOCKED: ATOM     26  N   UNL d   1       1.259   4.567  18.587 -0.09 +0.13    -0.248 N 
DOCKED: ATOM     27  N   UNL d   1       1.735   7.093  17.301 +0.02 +0.13    -0.248 N 
DOCKED: ATOM     28  N   UNL d   1       4.442   7.142  18.294 -0.16 +0.10    -0.248 N 
DOCKED: ATOM     29 FE   UNL d   1       2.850   5.856  18.440 -0.06 -0.00    +0.000 Fe
DOCKED: ENDROOT
DOCKED: BRANCH   6  30
DOCKED: ATOM     30  C   UNL d   1       6.848   3.721  21.634 -0.30 +0.01    +0.052 C 
DOCKED: BRANCH  30  31
DOCKED: ATOM     31  C   UNL d   1       7.186   5.024  22.351 -0.16 +0.03    +0.115 C 
DOCKED: BRANCH  31  32
DOCKED: ATOM     32  C   UNL d   1       8.593   5.448  22.035 -0.16 +0.05    +0.139 C 
DOCKED: ATOM     33  O   UNL d   1       9.130   6.348  22.667 -0.01 -0.26    -0.650 OA
DOCKED: BRANCH  32  34
DOCKED: ATOM     34  O   UNL d   1       9.277   4.840  21.051 -0.09 -0.34    -0.776 OA
DOCKED: ATOM     35  H   UNL d   1      10.052   5.281  20.676 +0.03 +0.06    +0.167 HD
DOCKED: ENDBRANCH  32  34
DOCKED: ENDBRANCH  31  32
DOCKED: ENDBRANCH  30  31
DOCKED: ENDBRANCH   6  30
DOCKED: BRANCH  22  36
DOCKED: ATOM     36  C   UNL d   1       8.069   7.967  18.408 -0.13 -0.01    +0.052 C 
DOCKED: BRANCH  36  37
DOCKED: ATOM     37  C   UNL d   1       8.699   6.625  18.064 -0.17 -0.00    +0.115 C 
DOCKED: BRANCH  37  38
DOCKED: ATOM     38  C   UNL d   1       9.950   6.397  18.864 -0.11 +0.01    +0.139 C 
DOCKED: ATOM     39  O   UNL d   1      10.716   5.486  18.582 -0.00 -0.08    -0.650 OA
DOCKED: BRANCH  38  40
DOCKED: ATOM     40  O   UNL d   1      10.236   7.197  19.907 +0.05 -0.08    -0.776 OA
DOCKED: ATOM     41  H   UNL d   1      10.021   6.898  20.801 +0.03 +0.03    +0.167 HD
DOCKED: ENDBRANCH  38  40
DOCKED: ENDBRANCH  37  38
DOCKED: ENDBRANCH  36  37
DOCKED: ENDBRANCH  22  36
DOCKED: BRANCH  12  42
DOCKED: ATOM     42  C   UNL d   1      -2.061   3.178  17.578 -0.33 -0.00    +0.004 C 
DOCKED: ATOM     43  C   UNL d   1      -3.093   4.016  17.740 -0.23 -0.00    +0.012 C 
DOCKED: ENDBRANCH  12  42
DOCKED: BRANCH  17  44
DOCKED: ATOM     44  C   UNL d   1       0.958  10.318  15.681 -0.20 -0.00    +0.004 C 
DOCKED: ATOM     45  C   UNL d   1       1.524  10.581  14.498 -0.29 -0.01    +0.012 C 
DOCKED: ENDBRANCH  17  44
DOCKED: TORSDOF 10
DOCKED: TER
DOCKED: ENDMDL
________________________________________________________________________________


	BEGINNING GENETIC ALGORITHM DOCKING 20 of 100
Run: 20 Seed: 1501822505 637584995 [ Run 20 of 100 GA/GALS ]
Beginning LAMARCKIAN GENETIC ALGORITHM (LGA), with a maximum of 25000000 energy evaluations.

Final-Value: -11.376


	FINAL GENETIC ALGORITHM DOCKED STATE
	_______________________________________________


Detailed state:  trans -8.934 10.320 -10.138 quatxyzw 0.694942 0.551525 -0.416102 -0.199335 center -0.174 -0.001 -0.047 ntor 10 140.6764 -72.0397 69.6378 -171.0246 102.9494 110.8656 -24.4656 59.4928 -159.6574 164.3404
State:	 -8.934  10.320 -10.138   0.709  0.563 -0.425 -157.004    140.68  -72.04   69.64 -171.02  102.95  110.87  -24.47   59.49 -159.66  164.34

DOCKED: MODEL       20
DOCKED: USER    Run = 20
DOCKED: USER    DPF = D:/Protein_go_brrr/autodock/final/mut_K82N/heme_Fe/dock.dpf
DOCKED: USER  
DOCKED: USER    Estimated Free Energy of Binding    =   -6.41 kcal/mol  [=(1)+(2)+(3)-(4)]
DOCKED: USER    Estimated Inhibition Constant, Ki   =   19.97 uM (micromolar)  [Temperature = 298.15 K]
DOCKED: USER    
DOCKED: USER    (1) Final Intermolecular Energy     =   -9.39 kcal/mol
DOCKED: USER        vdW + Hbond + desolv Energy     =   -6.13 kcal/mol
DOCKED: USER        Electrostatic Energy            =   -3.27 kcal/mol
DOCKED: USER    (2) Final Total Internal Energy     =   -1.98 kcal/mol
DOCKED: USER    (3) Torsional Free Energy           =   +2.98 kcal/mol
DOCKED: USER    (4) Unbound System's Energy  [=(2)] =   -1.98 kcal/mol
DOCKED: USER    
DOCKED: USER    
DOCKED: USER    NEWDPF move heme_Fe_opt.pdbqt
DOCKED: USER    NEWDPF about -0.174000 -0.001000 -0.047000
DOCKED: USER    NEWDPF tran0 -8.934360 10.319951 -10.137503
DOCKED: USER    NEWDPF quaternion0 0.694942 0.551525 -0.416102 -0.199335
DOCKED: USER    NEWDPF axisangle0 0.709174 0.562820 -0.424624 -157.003884
DOCKED: USER    NEWDPF quat0 0.709174 0.562820 -0.424624 -157.003884
DOCKED: USER    NEWDPF dihe0 140.68 -72.04 69.64 -171.02 102.95 110.87 -24.47 59.49 -159.66 164.34 
DOCKED: USER  keepresnum = 1 
DOCKED: USER  
DOCKED: REMARK  10 active torsions:
DOCKED: REMARK  status: ('A' for Active; 'I' for Inactive)
DOCKED: REMARK    1  A    between atoms: C_6  and  C_10 
DOCKED: REMARK    2  A    between atoms: C_10  and  C_11 
DOCKED: REMARK    3  A    between atoms: C_11  and  C_12 
DOCKED: REMARK    4  A    between atoms: C_12  and  O_14 
DOCKED: REMARK    5  A    between atoms: C_17  and  C_20 
DOCKED: REMARK    6  A    between atoms: C_24  and  C_27 
DOCKED: REMARK    7  A    between atoms: C_31  and  C_34 
DOCKED: REMARK    8  A    between atoms: C_34  and  C_35 
DOCKED: REMARK    9  A    between atoms: C_35  and  C_36 
DOCKED: REMARK   10  A    between atoms: C_36  and  O_38 
DOCKED: USER                              x       y       z     vdW  Elec       q    Type
DOCKED: USER                           _______ _______ _______ _____ _____    ______ ____
DOCKED: ROOT
DOCKED: ATOM      1  C   UNL d   1      -9.270   8.757  -8.851 -0.14 +0.01    +0.064 C 
DOCKED: ATOM      2  C   UNL d   1     -12.135  12.131 -11.050 -0.03 +0.01    +0.064 A 
DOCKED: ATOM      3  C   UNL d   1      -8.511  13.168 -14.026 -0.06 +0.00    +0.064 C 
DOCKED: ATOM      4  C   UNL d   1      -5.687   9.982 -11.845 -0.19 -0.02    +0.064 C 
DOCKED: ATOM      5  C   UNL d   1     -10.385   9.669  -9.140 -0.06 +0.02    +0.066 A 
DOCKED: ATOM      6  C   UNL d   1     -11.560   9.737  -8.410 -0.03 -0.01    -0.021 A 
DOCKED: ATOM      7  C   UNL d   1     -12.357  10.672  -9.023 -0.02 -0.01    -0.025 A 
DOCKED: ATOM      8  C   UNL d   1     -11.636  11.139 -10.105 -0.03 +0.01    +0.066 A 
DOCKED: ATOM      9  C   UNL d   1     -13.722  11.099  -8.577 -0.00 +0.01    +0.051 C 
DOCKED: ATOM     10  C   UNL d   1     -11.439  12.641 -12.068 -0.05 +0.01    +0.066 A 
DOCKED: ATOM     11  C   UNL d   1     -11.982  13.504 -13.023 -0.03 -0.00    -0.021 A 
DOCKED: ATOM     12  C   UNL d   1     -10.962  13.804 -13.902 -0.04 +0.00    +0.000 A 
DOCKED: ATOM     13  C   UNL d   1      -9.840  13.096 -13.438 -0.04 +0.01    +0.070 A 
DOCKED: ATOM     14  C   UNL d   1     -13.421  13.965 -13.132 -0.01 +0.01    +0.052 C 
DOCKED: ATOM     15  C   UNL d   1      -7.441  12.448 -13.615 -0.12 +0.00    +0.066 A 
DOCKED: ATOM     16  C   UNL d   1      -6.165  12.620 -14.138 -0.24 +0.00    -0.021 A 
DOCKED: ATOM     17  C   UNL d   1      -5.350  11.699 -13.513 -0.35 -0.00    +0.000 A 
DOCKED: ATOM     18  C   UNL d   1      -6.149  10.984 -12.624 -0.27 -0.01    +0.070 A 
DOCKED: ATOM     19  C   UNL d   1      -5.732  13.592 -15.202 -0.23 -0.02    +0.052 C 
DOCKED: ATOM     20  C   UNL d   1      -6.485   9.249 -10.854 -0.25 -0.01    +0.066 A 
DOCKED: ATOM     21  C   UNL d   1      -6.077   8.085 -10.188 -0.31 +0.00    -0.025 A 
DOCKED: ATOM     22  C   UNL d   1      -7.108   7.760  -9.330 -0.26 -0.00    -0.021 A 
DOCKED: ATOM     23  C   UNL d   1      -8.101   8.730  -9.511 -0.16 +0.01    +0.066 A 
DOCKED: ATOM     24  C   UNL d   1      -4.790   7.309 -10.345 -0.44 -0.01    +0.051 C 
DOCKED: ATOM     25  N   UNL d   1     -10.433  10.534 -10.168 -0.04 -0.06    -0.248 N 
DOCKED: ATOM     26  N   UNL d   1     -10.132  12.379 -12.325 -0.06 -0.06    -0.248 N 
DOCKED: ATOM     27  N   UNL d   1      -7.425  11.473 -12.655 -0.11 -0.01    -0.248 N 
DOCKED: ATOM     28  N   UNL d   1      -7.734   9.610 -10.475 -0.11 -0.02    -0.248 N 
DOCKED: ATOM     29 FE   UNL d   1      -8.931  10.994 -11.400 -0.04 +0.00    +0.000 Fe
DOCKED: ENDROOT
DOCKED: BRANCH   6  30
DOCKED: ATOM     30  C   UNL d   1     -11.903   8.970  -7.179 -0.05 +0.02    +0.052 C 
DOCKED: BRANCH  30  31
DOCKED: ATOM     31  C   UNL d   1     -12.129   7.498  -7.506 -0.06 +0.07    +0.115 C 
DOCKED: BRANCH  31  32
DOCKED: ATOM     32  C   UNL d   1     -11.885   6.646  -6.291 +0.06 +0.20    +0.139 C 
DOCKED: ATOM     33  O   UNL d   1     -12.822   6.194  -5.648 -0.51 -1.11    -0.650 OA
DOCKED: BRANCH  32  34
DOCKED: ATOM     34  O   UNL d   1     -10.629   6.373  -5.899 -0.06 -1.31    -0.776 OA
DOCKED: ATOM     35  H   UNL d   1      -9.957   6.190  -6.571 +0.03 +0.24    +0.167 HD
DOCKED: ENDBRANCH  32  34
DOCKED: ENDBRANCH  31  32
DOCKED: ENDBRANCH  30  31
DOCKED: ENDBRANCH   6  30
DOCKED: BRANCH  22  36
DOCKED: ATOM     36  C   UNL d   1      -7.154   6.557  -8.425 +0.03 +0.01    +0.052 C 
DOCKED: BRANCH  36  37
DOCKED: ATOM     37  C   UNL d   1      -7.979   5.457  -9.076 -0.23 +0.04    +0.115 C 
DOCKED: BRANCH  37  38
DOCKED: ATOM     38  C   UNL d   1      -9.141   5.069  -8.206 -0.20 +0.12    +0.139 C 
DOCKED: ATOM     39  O   UNL d   1     -10.287   5.333  -8.538 -0.13 -0.64    -0.650 OA
DOCKED: BRANCH  38  40
DOCKED: ATOM     40  O   UNL d   1      -8.924   4.426  -7.044 -0.38 -1.08    -0.776 OA
DOCKED: ATOM     41  H   UNL d   1      -9.052   4.903  -6.212 +0.04 +0.29    +0.167 HD
DOCKED: ENDBRANCH  38  40
DOCKED: ENDBRANCH  37  38
DOCKED: ENDBRANCH  36  37
DOCKED: ENDBRANCH  22  36
DOCKED: BRANCH  12  42
DOCKED: ATOM     42  C   UNL d   1     -11.095  14.693 -15.097 -0.02 +0.00    +0.004 C 
DOCKED: ATOM     43  C   UNL d   1     -10.391  15.829 -15.194 -0.03 +0.00    +0.012 C 
DOCKED: ENDBRANCH  12  42
DOCKED: BRANCH  17  44
DOCKED: ATOM     44  C   UNL d   1      -3.896  11.529 -13.736 -0.49 -0.00    +0.004 C 
DOCKED: ATOM     45  C   UNL d   1      -3.408  10.386 -14.228 -0.40 -0.00    +0.012 C 
DOCKED: ENDBRANCH  17  44
DOCKED: TORSDOF 10
DOCKED: TER
DOCKED: ENDMDL
________________________________________________________________________________


	BEGINNING GENETIC ALGORITHM DOCKING 21 of 100
Run: 21 Seed: 411584508 441781654 [ Run 21 of 100 GA/GALS ]
Beginning LAMARCKIAN GENETIC ALGORITHM (LGA), with a maximum of 25000000 energy evaluations.

Final-Value: -13.177


	FINAL GENETIC ALGORITHM DOCKED STATE
	_______________________________________________


Detailed state:  trans -8.617 7.122 -12.732 quatxyzw -0.435849 -0.509544 0.173620 0.721288 center -0.174 -0.001 -0.047 ntor 10 66.1707 82.5716 -125.6511 61.5931 175.5855 156.0044 -40.3462 -32.6586 -168.9447 24.8639
State:	 -8.617   7.122 -12.732  -0.629 -0.736  0.251 87.678     66.17   82.57 -125.65   61.59  175.59  156.00  -40.35  -32.66 -168.94   24.86

DOCKED: MODEL       21
DOCKED: USER    Run = 21
DOCKED: USER    DPF = D:/Protein_go_brrr/autodock/final/mut_K82N/heme_Fe/dock.dpf
DOCKED: USER  
DOCKED: USER    Estimated Free Energy of Binding    =   -7.83 kcal/mol  [=(1)+(2)+(3)-(4)]
DOCKED: USER    Estimated Inhibition Constant, Ki   =    1.82 uM (micromolar)  [Temperature = 298.15 K]
DOCKED: USER    
DOCKED: USER    (1) Final Intermolecular Energy     =  -10.81 kcal/mol
DOCKED: USER        vdW + Hbond + desolv Energy     =   -7.61 kcal/mol
DOCKED: USER        Electrostatic Energy            =   -3.20 kcal/mol
DOCKED: USER    (2) Final Total Internal Energy     =   -2.36 kcal/mol
DOCKED: USER    (3) Torsional Free Energy           =   +2.98 kcal/mol
DOCKED: USER    (4) Unbound System's Energy  [=(2)] =   -2.36 kcal/mol
DOCKED: USER    
DOCKED: USER    
DOCKED: USER    NEWDPF move heme_Fe_opt.pdbqt
DOCKED: USER    NEWDPF about -0.174000 -0.001000 -0.047000
DOCKED: USER    NEWDPF tran0 -8.617126 7.122482 -12.731985
DOCKED: USER    NEWDPF quaternion0 -0.435849 -0.509544 0.173620 0.721288
DOCKED: USER    NEWDPF axisangle0 -0.629262 -0.735660 0.250666 87.678118
DOCKED: USER    NEWDPF quat0 -0.629262 -0.735660 0.250666 87.678118
DOCKED: USER    NEWDPF dihe0 66.17 82.57 -125.65 61.59 175.59 156.00 -40.35 -32.66 -168.94 24.86 
DOCKED: USER  keepresnum = 1 
DOCKED: USER  
DOCKED: REMARK  10 active torsions:
DOCKED: REMARK  status: ('A' for Active; 'I' for Inactive)
DOCKED: REMARK    1  A    between atoms: C_6  and  C_10 
DOCKED: REMARK    2  A    between atoms: C_10  and  C_11 
DOCKED: REMARK    3  A    between atoms: C_11  and  C_12 
DOCKED: REMARK    4  A    between atoms: C_12  and  O_14 
DOCKED: REMARK    5  A    between atoms: C_17  and  C_20 
DOCKED: REMARK    6  A    between atoms: C_24  and  C_27 
DOCKED: REMARK    7  A    between atoms: C_31  and  C_34 
DOCKED: REMARK    8  A    between atoms: C_34  and  C_35 
DOCKED: REMARK    9  A    between atoms: C_35  and  C_36 
DOCKED: REMARK   10  A    between atoms: C_36  and  O_38 
DOCKED: USER                              x       y       z     vdW  Elec       q    Type
DOCKED: USER                           _______ _______ _______ _____ _____    ______ ____
DOCKED: ROOT
DOCKED: ATOM      1  C   UNL d   1      -9.180   6.277 -10.949 -0.16 +0.01    +0.064 C 
DOCKED: ATOM      2  C   UNL d   1     -10.068   5.280 -15.708 -0.23 +0.02    +0.064 A 
DOCKED: ATOM      3  C   UNL d   1      -6.446   8.190 -16.922 -0.17 -0.01    +0.064 C 
DOCKED: ATOM      4  C   UNL d   1      -5.637   9.251 -12.328 -0.24 -0.01    +0.064 C 
DOCKED: ATOM      5  C   UNL d   1      -9.820   5.791 -12.180 -0.16 +0.01    +0.066 A 
DOCKED: ATOM      6  C   UNL d   1     -10.966   5.015 -12.222 -0.15 -0.01    -0.021 A 
DOCKED: ATOM      7  C   UNL d   1     -11.210   4.735 -13.544 -0.17 -0.01    -0.025 A 
DOCKED: ATOM      8  C   UNL d   1     -10.202   5.353 -14.258 -0.20 +0.01    +0.066 A 
DOCKED: ATOM      9  C   UNL d   1     -12.358   3.937 -14.080 -0.17 +0.03    +0.051 C 
DOCKED: ATOM     10  C   UNL d   1      -9.139   5.912 -16.426 -0.23 +0.01    +0.066 A 
DOCKED: ATOM     11  C   UNL d   1      -8.966   5.732 -17.801 -0.22 -0.00    -0.021 A 
DOCKED: ATOM     12  C   UNL d   1      -7.916   6.548 -18.173 -0.18 -0.00    +0.000 A 
DOCKED: ATOM     13  C   UNL d   1      -7.493   7.184 -16.993 -0.18 -0.01    +0.070 A 
DOCKED: ATOM     14  C   UNL d   1      -9.719   4.776 -18.704 -0.21 +0.01    +0.052 C 
DOCKED: ATOM     15  C   UNL d   1      -6.000   8.767 -15.781 -0.13 -0.01    +0.066 A 
DOCKED: ATOM     16  C   UNL d   1      -5.067   9.796 -15.766 -0.11 +0.00    -0.021 A 
DOCKED: ATOM     17  C   UNL d   1      -4.830  10.102 -14.442 -0.21 -0.00    +0.000 A 
DOCKED: ATOM     18  C   UNL d   1      -5.622   9.247 -13.679 -0.18 -0.01    +0.070 A 
DOCKED: ATOM     19  C   UNL d   1      -4.404  10.452 -16.947 -0.08 -0.02    +0.052 C 
DOCKED: ATOM     20  C   UNL d   1      -6.503   8.410 -11.493 -0.20 -0.00    +0.066 A 
DOCKED: ATOM     21  C   UNL d   1      -6.389   8.259 -10.104 -0.29 +0.00    -0.025 A 
DOCKED: ATOM     22  C   UNL d   1      -7.417   7.417  -9.730 -0.21 -0.00    -0.021 A 
DOCKED: ATOM     23  C   UNL d   1      -8.109   7.084 -10.901 -0.12 +0.01    +0.066 A 
DOCKED: ATOM     24  C   UNL d   1      -5.369   8.866  -9.169 -0.43 -0.01    +0.051 C 
DOCKED: ATOM     25  N   UNL d   1      -9.363   6.002 -13.427 -0.08 -0.03    -0.248 N 
DOCKED: ATOM     26  N   UNL d   1      -8.233   6.790 -15.926 -0.15 +0.01    -0.248 N 
DOCKED: ATOM     27  N   UNL d   1      -6.374   8.456 -14.502 -0.07 +0.03    -0.248 N 
DOCKED: ATOM     28  N   UNL d   1      -7.520   7.657 -11.978 +0.07 -0.01    -0.248 N 
DOCKED: ATOM     29 FE   UNL d   1      -7.875   7.225 -13.952 -0.04 +0.00    +0.000 Fe
DOCKED: ENDROOT
DOCKED: BRANCH   6  30
DOCKED: ATOM     30  C   UNL d   1     -11.802   4.578 -11.068 -0.11 +0.02    +0.052 C 
DOCKED: BRANCH  30  31
DOCKED: ATOM     31  C   UNL d   1     -11.169   3.382 -10.365 -0.01 +0.06    +0.115 C 
DOCKED: BRANCH  31  32
DOCKED: ATOM     32  C   UNL d   1     -11.304   3.517  -8.873 -0.10 +0.16    +0.139 C 
DOCKED: ATOM     33  O   UNL d   1     -10.932   2.619  -8.130 -0.12 -1.01    -0.650 OA
DOCKED: BRANCH  32  34
DOCKED: ATOM     34  O   UNL d   1     -11.837   4.630  -8.342 +0.06 -1.14    -0.776 OA
DOCKED: ATOM     35  H   UNL d   1     -11.277   5.210  -7.808 +0.02 +0.32    +0.167 HD
DOCKED: ENDBRANCH  32  34
DOCKED: ENDBRANCH  31  32
DOCKED: ENDBRANCH  30  31
DOCKED: ENDBRANCH   6  30
DOCKED: BRANCH  22  36
DOCKED: ATOM     36  C   UNL d   1      -7.685   6.923  -8.333 -0.10 +0.01    +0.052 C 
DOCKED: BRANCH  36  37
DOCKED: ATOM     37  C   UNL d   1      -9.090   7.324  -7.908 -0.17 +0.05    +0.115 C 
DOCKED: BRANCH  37  38
DOCKED: ATOM     38  C   UNL d   1      -9.699   6.285  -7.010 -0.14 +0.16    +0.139 C 
DOCKED: ATOM     39  O   UNL d   1     -10.590   6.579  -6.227 -0.24 -0.92    -0.650 OA
DOCKED: BRANCH  38  40
DOCKED: ATOM     40  O   UNL d   1      -9.259   5.014  -7.059 -0.52 -1.23    -0.776 OA
DOCKED: ATOM     41  H   UNL d   1      -9.750   4.367  -7.584 +0.04 +0.32    +0.167 HD
DOCKED: ENDBRANCH  38  40
DOCKED: ENDBRANCH  37  38
DOCKED: ENDBRANCH  36  37
DOCKED: ENDBRANCH  22  36
DOCKED: BRANCH  12  42
DOCKED: ATOM     42  C   UNL d   1      -7.375   6.667 -19.562 -0.17 -0.00    +0.004 C 
DOCKED: ATOM     43  C   UNL d   1      -6.567   5.726 -20.070 -0.22 -0.00    +0.012 C 
DOCKED: ENDBRANCH  12  42
DOCKED: BRANCH  17  44
DOCKED: ATOM     44  C   UNL d   1      -3.920  11.156 -13.940 -0.43 -0.00    +0.004 C 
DOCKED: ATOM     45  C   UNL d   1      -4.396  12.206 -13.262 -0.52 -0.00    +0.012 C 
DOCKED: ENDBRANCH  17  44
DOCKED: TORSDOF 10
DOCKED: TER
DOCKED: ENDMDL
________________________________________________________________________________


	BEGINNING GENETIC ALGORITHM DOCKING 22 of 100
Run: 22 Seed: 348757209 1669266747 [ Run 22 of 100 GA/GALS ]
Beginning LAMARCKIAN GENETIC ALGORITHM (LGA), with a maximum of 25000000 energy evaluations.

Final-Value: -12.506


	FINAL GENETIC ALGORITHM DOCKED STATE
	_______________________________________________


Detailed state:  trans -8.269 6.793 -12.328 quatxyzw 0.706000 -0.087584 -0.538940 0.451039 center -0.174 -0.001 -0.047 ntor 10 -79.2599 106.6445 17.0746 -168.5527 -4.2620 -178.2507 -54.0103 -34.0051 -147.5127 -18.4490
State:	 -8.269   6.793 -12.328   0.791 -0.098 -0.604 126.379    -79.26  106.64   17.07 -168.55   -4.26 -178.25  -54.01  -34.01 -147.51  -18.45

DOCKED: MODEL       22
DOCKED: USER    Run = 22
DOCKED: USER    DPF = D:/Protein_go_brrr/autodock/final/mut_K82N/heme_Fe/dock.dpf
DOCKED: USER  
DOCKED: USER    Estimated Free Energy of Binding    =   -7.56 kcal/mol  [=(1)+(2)+(3)-(4)]
DOCKED: USER    Estimated Inhibition Constant, Ki   =    2.88 uM (micromolar)  [Temperature = 298.15 K]
DOCKED: USER    
DOCKED: USER    (1) Final Intermolecular Energy     =  -10.54 kcal/mol
DOCKED: USER        vdW + Hbond + desolv Energy     =   -7.31 kcal/mol
DOCKED: USER        Electrostatic Energy            =   -3.23 kcal/mol
DOCKED: USER    (2) Final Total Internal Energy     =   -1.96 kcal/mol
DOCKED: USER    (3) Torsional Free Energy           =   +2.98 kcal/mol
DOCKED: USER    (4) Unbound System's Energy  [=(2)] =   -1.96 kcal/mol
DOCKED: USER    
DOCKED: USER    
DOCKED: USER    NEWDPF move heme_Fe_opt.pdbqt
DOCKED: USER    NEWDPF about -0.174000 -0.001000 -0.047000
DOCKED: USER    NEWDPF tran0 -8.268824 6.793132 -12.328333
DOCKED: USER    NEWDPF quaternion0 0.706000 -0.087584 -0.538940 0.451039
DOCKED: USER    NEWDPF axisangle0 0.791033 -0.098133 -0.603851 126.379213
DOCKED: USER    NEWDPF quat0 0.791033 -0.098133 -0.603851 126.379213
DOCKED: USER    NEWDPF dihe0 -79.26 106.64 17.07 -168.55 -4.26 -178.25 -54.01 -34.01 -147.51 -18.45 
DOCKED: USER  keepresnum = 1 
DOCKED: USER  
DOCKED: REMARK  10 active torsions:
DOCKED: REMARK  status: ('A' for Active; 'I' for Inactive)
DOCKED: REMARK    1  A    between atoms: C_6  and  C_10 
DOCKED: REMARK    2  A    between atoms: C_10  and  C_11 
DOCKED: REMARK    3  A    between atoms: C_11  and  C_12 
DOCKED: REMARK    4  A    between atoms: C_12  and  O_14 
DOCKED: REMARK    5  A    between atoms: C_17  and  C_20 
DOCKED: REMARK    6  A    between atoms: C_24  and  C_27 
DOCKED: REMARK    7  A    between atoms: C_31  and  C_34 
DOCKED: REMARK    8  A    between atoms: C_34  and  C_35 
DOCKED: REMARK    9  A    between atoms: C_35  and  C_36 
DOCKED: REMARK   10  A    between atoms: C_36  and  O_38 
DOCKED: USER                              x       y       z     vdW  Elec       q    Type
DOCKED: USER                           _______ _______ _______ _____ _____    ______ ____
DOCKED: ROOT
DOCKED: ATOM      1  C   UNL d   1      -9.395   6.498 -10.639 -0.13 +0.01    +0.064 C 
DOCKED: ATOM      2  C   UNL d   1      -5.761   9.601 -11.900 -0.17 -0.01    +0.064 A 
DOCKED: ATOM      3  C   UNL d   1      -6.437   8.411 -16.504 -0.15 -0.01    +0.064 C 
DOCKED: ATOM      4  C   UNL d   1      -9.886   5.325 -15.295 -0.27 +0.01    +0.064 C 
DOCKED: ATOM      5  C   UNL d   1      -8.254   7.419 -10.559 -0.13 +0.01    +0.066 A 
DOCKED: ATOM      6  C   UNL d   1      -7.699   7.891  -9.381 -0.21 -0.00    -0.021 A 
DOCKED: ATOM      7  C   UNL d   1      -6.692   8.756  -9.732 -0.30 +0.00    -0.025 A 
DOCKED: ATOM      8  C   UNL d   1      -6.671   8.778 -11.113 -0.21 -0.00    +0.066 A 
DOCKED: ATOM      9  C   UNL d   1      -5.795   9.497  -8.788 -0.43 -0.00    +0.051 C 
DOCKED: ATOM     10  C   UNL d   1      -5.681   9.599 -13.232 -0.20 -0.01    +0.066 A 
DOCKED: ATOM     11  C   UNL d   1      -4.880  10.481 -13.962 -0.25 +0.01    -0.021 A 
DOCKED: ATOM     12  C   UNL d   1      -5.070  10.170 -15.293 -0.13 -0.00    +0.000 A 
DOCKED: ATOM     13  C   UNL d   1      -5.992   9.109 -15.308 -0.11 -0.01    +0.070 A 
DOCKED: ATOM     14  C   UNL d   1      -4.029  11.611 -13.421 -0.42 -0.02    +0.052 C 
DOCKED: ATOM     15  C   UNL d   1      -7.363   7.424 -16.528 -0.18 -0.01    +0.066 A 
DOCKED: ATOM     16  C   UNL d   1      -7.687   6.716 -17.678 -0.15 +0.00    -0.021 A 
DOCKED: ATOM     17  C   UNL d   1      -8.684   5.827 -17.332 -0.24 +0.00    +0.000 A 
DOCKED: ATOM     18  C   UNL d   1      -8.948   6.018 -15.978 -0.24 +0.00    +0.070 A 
DOCKED: ATOM     19  C   UNL d   1      -7.103   6.882 -19.054 -0.15 -0.01    +0.052 C 
DOCKED: ATOM     20  C   UNL d   1     -10.149   5.455 -13.857 -0.19 +0.01    +0.066 A 
DOCKED: ATOM     21  C   UNL d   1     -11.241   4.896 -13.180 -0.15 -0.01    -0.025 A 
DOCKED: ATOM     22  C   UNL d   1     -11.075   5.232 -11.852 -0.12 -0.01    -0.021 A 
DOCKED: ATOM     23  C   UNL d   1      -9.897   5.984 -11.773 -0.13 +0.01    +0.066 A 
DOCKED: ATOM     24  C   UNL d   1     -12.389   4.090 -13.743 -0.15 +0.02    +0.051 C 
DOCKED: ATOM     25  N   UNL d   1      -7.616   7.957 -11.613 -0.07 -0.01    -0.248 N 
DOCKED: ATOM     26  N   UNL d   1      -6.372   8.766 -14.052 -0.07 +0.02    -0.248 N 
DOCKED: ATOM     27  N   UNL d   1      -8.106   6.969 -15.472 -0.09 +0.01    -0.248 N 
DOCKED: ATOM     28  N   UNL d   1      -9.360   6.155 -13.006 -0.08 -0.03    -0.248 N 
DOCKED: ATOM     29 FE   UNL d   1      -7.867   7.459 -13.530 -0.04 +0.00    +0.000 Fe
DOCKED: ENDROOT
DOCKED: BRANCH   6  30
DOCKED: ATOM     30  C   UNL d   1      -8.089   7.524  -7.990 -0.08 +0.01    +0.052 C 
DOCKED: BRANCH  30  31
DOCKED: ATOM     31  C   UNL d   1      -9.560   7.839  -7.741 -0.16 +0.05    +0.115 C 
DOCKED: BRANCH  31  32
DOCKED: ATOM     32  C   UNL d   1     -10.281   6.621  -7.235 -0.16 +0.14    +0.139 C 
DOCKED: ATOM     33  O   UNL d   1      -9.705   5.545  -7.151 -0.51 -1.06    -0.650 OA
DOCKED: BRANCH  32  34
DOCKED: ATOM     34  O   UNL d   1     -11.572   6.704  -6.869 -0.05 -0.95    -0.776 OA
DOCKED: ATOM     35  H   UNL d   1     -12.254   6.395  -7.481 +0.01 +0.19    +0.167 HD
DOCKED: ENDBRANCH  32  34
DOCKED: ENDBRANCH  31  32
DOCKED: ENDBRANCH  30  31
DOCKED: ENDBRANCH   6  30
DOCKED: BRANCH  22  36
DOCKED: ATOM     36  C   UNL d   1     -12.022   4.889 -10.732 -0.08 +0.02    +0.052 C 
DOCKED: BRANCH  36  37
DOCKED: ATOM     37  C   UNL d   1     -11.821   3.440 -10.315 -0.12 +0.06    +0.115 C 
DOCKED: BRANCH  37  38
DOCKED: ATOM     38  C   UNL d   1     -12.024   3.272  -8.836 -0.09 +0.15    +0.139 C 
DOCKED: ATOM     39  O   UNL d   1     -11.876   2.182  -8.304 -0.49 -0.80    -0.650 OA
DOCKED: BRANCH  38  40
DOCKED: ATOM     40  O   UNL d   1     -12.377   4.329  -8.083 +0.26 -1.34    -0.776 OA
DOCKED: ATOM     41  H   UNL d   1     -11.716   5.008  -7.887 +0.01 +0.31    +0.167 HD
DOCKED: ENDBRANCH  38  40
DOCKED: ENDBRANCH  37  38
DOCKED: ENDBRANCH  36  37
DOCKED: ENDBRANCH  22  36
DOCKED: BRANCH  12  42
DOCKED: ATOM     42  C   UNL d   1      -4.414  10.872 -16.439 -0.12 -0.00    +0.004 C 
DOCKED: ATOM     43  C   UNL d   1      -3.086  10.818 -16.611 -0.18 -0.01    +0.012 C 
DOCKED: ENDBRANCH  12  42
DOCKED: BRANCH  17  44
DOCKED: ATOM     44  C   UNL d   1      -9.328   4.845 -18.234 -0.21 +0.00    +0.004 C 
DOCKED: ATOM     45  C   UNL d   1     -10.624   4.949 -18.546 -0.17 +0.00    +0.012 C 
DOCKED: ENDBRANCH  17  44
DOCKED: TORSDOF 10
DOCKED: TER
DOCKED: ENDMDL
________________________________________________________________________________


	BEGINNING GENETIC ALGORITHM DOCKING 23 of 100
Run: 23 Seed: 1115270490 266790419 [ Run 23 of 100 GA/GALS ]
Beginning LAMARCKIAN GENETIC ALGORITHM (LGA), with a maximum of 25000000 energy evaluations.

Final-Value: -10.764


	FINAL GENETIC ALGORITHM DOCKED STATE
	_______________________________________________


Detailed state:  trans 12.311 2.768 17.811 quatxyzw -0.624144 -0.110505 0.773446 -0.003731 center -0.174 -0.001 -0.047 ntor 10 -180.0000 175.0396 85.1315 46.1843 -83.7472 20.4921 -11.3317 -21.3997 -28.2264 32.9900
State:	 12.311   2.768  17.811  -0.624 -0.111  0.773 -179.572   -180.00  175.04   85.13   46.18  -83.75   20.49  -11.33  -21.40  -28.23   32.99

DOCKED: MODEL       23
DOCKED: USER    Run = 23
DOCKED: USER    DPF = D:/Protein_go_brrr/autodock/final/mut_K82N/heme_Fe/dock.dpf
DOCKED: USER  
DOCKED: USER    Estimated Free Energy of Binding    =   -6.24 kcal/mol  [=(1)+(2)+(3)-(4)]
DOCKED: USER    Estimated Inhibition Constant, Ki   =   26.62 uM (micromolar)  [Temperature = 298.15 K]
DOCKED: USER    
DOCKED: USER    (1) Final Intermolecular Energy     =   -9.22 kcal/mol
DOCKED: USER        vdW + Hbond + desolv Energy     =   -7.82 kcal/mol
DOCKED: USER        Electrostatic Energy            =   -1.40 kcal/mol
DOCKED: USER    (2) Final Total Internal Energy     =   -1.54 kcal/mol
DOCKED: USER    (3) Torsional Free Energy           =   +2.98 kcal/mol
DOCKED: USER    (4) Unbound System's Energy  [=(2)] =   -1.54 kcal/mol
DOCKED: USER    
DOCKED: USER    
DOCKED: USER    NEWDPF move heme_Fe_opt.pdbqt
DOCKED: USER    NEWDPF about -0.174000 -0.001000 -0.047000
DOCKED: USER    NEWDPF tran0 12.310951 2.767502 17.811186
DOCKED: USER    NEWDPF quaternion0 -0.624144 -0.110505 0.773446 -0.003731
DOCKED: USER    NEWDPF axisangle0 -0.624148 -0.110506 0.773452 -179.572468
DOCKED: USER    NEWDPF quat0 -0.624148 -0.110506 0.773452 -179.572468
DOCKED: USER    NEWDPF dihe0 -180.00 175.04 85.13 46.18 -83.75 20.49 -11.33 -21.40 -28.23 32.99 
DOCKED: USER  keepresnum = 1 
DOCKED: USER  
DOCKED: REMARK  10 active torsions:
DOCKED: REMARK  status: ('A' for Active; 'I' for Inactive)
DOCKED: REMARK    1  A    between atoms: C_6  and  C_10 
DOCKED: REMARK    2  A    between atoms: C_10  and  C_11 
DOCKED: REMARK    3  A    between atoms: C_11  and  C_12 
DOCKED: REMARK    4  A    between atoms: C_12  and  O_14 
DOCKED: REMARK    5  A    between atoms: C_17  and  C_20 
DOCKED: REMARK    6  A    between atoms: C_24  and  C_27 
DOCKED: REMARK    7  A    between atoms: C_31  and  C_34 
DOCKED: REMARK    8  A    between atoms: C_34  and  C_35 
DOCKED: REMARK    9  A    between atoms: C_35  and  C_36 
DOCKED: REMARK   10  A    between atoms: C_36  and  O_38 
DOCKED: USER                              x       y       z     vdW  Elec       q    Type
DOCKED: USER                           _______ _______ _______ _____ _____    ______ ____
DOCKED: ROOT
DOCKED: ATOM      1  C   UNL d   1      12.227   2.452  19.837 -0.03 +0.02    +0.064 C 
DOCKED: ATOM      2  C   UNL d   1      11.168   6.253  16.860 -0.09 -0.00    +0.064 A 
DOCKED: ATOM      3  C   UNL d   1      11.286   3.257  13.108 -0.12 -0.01    +0.064 C 
DOCKED: ATOM      4  C   UNL d   1      12.415  -0.415  15.958 -0.33 -0.01    +0.064 C 
DOCKED: ATOM      5  C   UNL d   1      12.000   3.815  19.337 -0.19 +0.01    +0.066 A 
DOCKED: ATOM      6  C   UNL d   1      12.013   4.957  20.121 -0.14 -0.01    -0.021 A 
DOCKED: ATOM      7  C   UNL d   1      11.715   6.012  19.294 -0.08 -0.00    -0.025 A 
DOCKED: ATOM      8  C   UNL d   1      11.532   5.472  18.036 -0.10 +0.00    +0.066 A 
DOCKED: ATOM      9  C   UNL d   1      11.632   7.452  19.696 -0.03 +0.00    +0.051 C 
DOCKED: ATOM     10  C   UNL d   1      11.042   5.766  15.624 -0.15 -0.00    +0.066 A 
DOCKED: ATOM     11  C   UNL d   1      10.581   6.516  14.539 -0.22 +0.00    -0.021 A 
DOCKED: ATOM     12  C   UNL d   1      10.589   5.670  13.448 -0.26 -0.00    +0.000 A 
DOCKED: ATOM     13  C   UNL d   1      11.052   4.433  13.930 -0.21 -0.01    +0.070 A 
DOCKED: ATOM     14  C   UNL d   1      10.090   7.949  14.555 -0.23 +0.00    +0.052 C 
DOCKED: ATOM     15  C   UNL d   1      11.682   2.050  13.575 -0.25 -0.01    +0.066 A 
DOCKED: ATOM     16  C   UNL d   1      11.990   0.979  12.746 -0.32 +0.00    -0.021 A 
DOCKED: ATOM     17  C   UNL d   1      12.313  -0.083  13.566 -0.36 -0.00    +0.000 A 
DOCKED: ATOM     18  C   UNL d   1      12.189   0.366  14.879 -0.26 -0.02    +0.070 A 
DOCKED: ATOM     19  C   UNL d   1      11.960   0.944  11.242 -0.24 -0.01    +0.052 C 
DOCKED: ATOM     20  C   UNL d   1      12.354   0.038  17.353 -0.32 -0.01    +0.066 A 
DOCKED: ATOM     21  C   UNL d   1      12.387  -0.798  18.478 -0.35 +0.00    -0.025 A 
DOCKED: ATOM     22  C   UNL d   1      12.346   0.041  19.573 -0.24 -0.00    -0.021 A 
DOCKED: ATOM     23  C   UNL d   1      12.282   1.348  19.075 -0.21 +0.01    +0.066 A 
DOCKED: ATOM     24  C   UNL d   1      12.451  -2.307  18.532 -0.37 +0.00    +0.051 C 
DOCKED: ATOM     25  N   UNL d   1      11.716   4.137  18.063 -0.12 -0.02    -0.248 N 
DOCKED: ATOM     26  N   UNL d   1      11.320   4.489  15.258 -0.12 +0.02    -0.248 N 
DOCKED: ATOM     27  N   UNL d   1      11.844   1.688  14.886 -0.16 +0.05    -0.248 N 
DOCKED: ATOM     28  N   UNL d   1      12.243   1.337  17.721 -0.17 +0.01    -0.248 N 
DOCKED: ATOM     29 FE   UNL d   1      11.781   2.911  16.489 -0.05 -0.00    +0.000 Fe
DOCKED: ENDROOT
DOCKED: BRANCH   6  30
DOCKED: ATOM     30  C   UNL d   1      12.313   5.047  21.578 -0.02 +0.03    +0.052 C 
DOCKED: BRANCH  30  31
DOCKED: ATOM     31  C   UNL d   1      13.728   4.560  21.869 -0.08 +0.05    +0.115 C 
DOCKED: BRANCH  31  32
DOCKED: ATOM     32  C   UNL d   1      14.124   4.905  23.278 -0.06 +0.08    +0.139 C 
DOCKED: ATOM     33  O   UNL d   1      14.570   6.011  23.548 -0.00 -0.25    -0.650 OA
DOCKED: BRANCH  32  34
DOCKED: ATOM     34  O   UNL d   1      13.990   3.995  24.258 -0.02 -0.81    -0.776 OA
DOCKED: ATOM     35  H   UNL d   1      13.637   3.121  24.042 +0.01 +0.21    +0.167 HD
DOCKED: ENDBRANCH  32  34
DOCKED: ENDBRANCH  31  32
DOCKED: ENDBRANCH  30  31
DOCKED: ENDBRANCH   6  30
DOCKED: BRANCH  22  36
DOCKED: ATOM     36  C   UNL d   1      12.318  -0.394  21.014 -0.19 +0.01    +0.052 C 
DOCKED: BRANCH  36  37
DOCKED: ATOM     37  C   UNL d   1      13.380   0.361  21.799 -0.14 +0.04    +0.115 C 
DOCKED: BRANCH  37  38
DOCKED: ATOM     38  C   UNL d   1      13.055   0.381  23.266 -0.10 +0.08    +0.139 C 
DOCKED: ATOM     39  O   UNL d   1      12.289  -0.441  23.747 -0.05 -0.33    -0.650 OA
DOCKED: BRANCH  38  40
DOCKED: ATOM     40  O   UNL d   1      13.606   1.313  24.063 -0.02 -0.64    -0.776 OA
DOCKED: ATOM     41  H   UNL d   1      14.267   1.916  23.695 +0.01 +0.11    +0.167 HD
DOCKED: ENDBRANCH  38  40
DOCKED: ENDBRANCH  37  38
DOCKED: ENDBRANCH  36  37
DOCKED: ENDBRANCH  22  36
DOCKED: BRANCH  12  42
DOCKED: ATOM     42  C   UNL d   1      10.160   6.050  12.067 -0.31 -0.00    +0.004 C 
DOCKED: ATOM     43  C   UNL d   1      10.911   5.739  11.002 -0.31 -0.00    +0.012 C 
DOCKED: ENDBRANCH  12  42
DOCKED: BRANCH  17  44
DOCKED: ATOM     44  C   UNL d   1      12.732  -1.431  13.122 -0.48 -0.00    +0.004 C 
DOCKED: ATOM     45  C   UNL d   1      14.023  -1.779  13.113 -0.35 -0.00    +0.012 C 
DOCKED: ENDBRANCH  17  44
DOCKED: TORSDOF 10
DOCKED: TER
DOCKED: ENDMDL
________________________________________________________________________________


	BEGINNING GENETIC ALGORITHM DOCKING 24 of 100
Run: 24 Seed: 83997519 37959521 [ Run 24 of 100 GA/GALS ]
Beginning LAMARCKIAN GENETIC ALGORITHM (LGA), with a maximum of 25000000 energy evaluations.

Final-Value: -11.634


	FINAL GENETIC ALGORITHM DOCKED STATE
	_______________________________________________


Detailed state:  trans 4.360 5.629 18.614 quatxyzw 0.130633 -0.261858 -0.953314 0.074547 center -0.174 -0.001 -0.047 ntor 10 -21.9192 -157.3066 94.0733 -146.7053 -133.0990 -107.6454 -89.1940 8.8282 -174.9651 -180.0000
State:	  4.360   5.629  18.614   0.131 -0.263 -0.956 171.450    -21.92 -157.31   94.07 -146.71 -133.10 -107.65  -89.19    8.83 -174.97 -180.00

DOCKED: MODEL       24
DOCKED: USER    Run = 24
DOCKED: USER    DPF = D:/Protein_go_brrr/autodock/final/mut_K82N/heme_Fe/dock.dpf
DOCKED: USER  
DOCKED: USER    Estimated Free Energy of Binding    =   -6.39 kcal/mol  [=(1)+(2)+(3)-(4)]
DOCKED: USER    Estimated Inhibition Constant, Ki   =   20.54 uM (micromolar)  [Temperature = 298.15 K]
DOCKED: USER    
DOCKED: USER    (1) Final Intermolecular Energy     =   -9.38 kcal/mol
DOCKED: USER        vdW + Hbond + desolv Energy     =   -8.23 kcal/mol
DOCKED: USER        Electrostatic Energy            =   -1.15 kcal/mol
DOCKED: USER    (2) Final Total Internal Energy     =   -2.26 kcal/mol
DOCKED: USER    (3) Torsional Free Energy           =   +2.98 kcal/mol
DOCKED: USER    (4) Unbound System's Energy  [=(2)] =   -2.26 kcal/mol
DOCKED: USER    
DOCKED: USER    
DOCKED: USER    NEWDPF move heme_Fe_opt.pdbqt
DOCKED: USER    NEWDPF about -0.174000 -0.001000 -0.047000
DOCKED: USER    NEWDPF tran0 4.359685 5.628941 18.614117
DOCKED: USER    NEWDPF quaternion0 0.130633 -0.261858 -0.953314 0.074547
DOCKED: USER    NEWDPF axisangle0 0.130997 -0.262588 -0.955974 171.449621
DOCKED: USER    NEWDPF quat0 0.130997 -0.262588 -0.955974 171.449621
DOCKED: USER    NEWDPF dihe0 -21.92 -157.31 94.07 -146.71 -133.10 -107.65 -89.19 8.83 -174.97 -180.00 
DOCKED: USER  keepresnum = 1 
DOCKED: USER  
DOCKED: REMARK  10 active torsions:
DOCKED: REMARK  status: ('A' for Active; 'I' for Inactive)
DOCKED: REMARK    1  A    between atoms: C_6  and  C_10 
DOCKED: REMARK    2  A    between atoms: C_10  and  C_11 
DOCKED: REMARK    3  A    between atoms: C_11  and  C_12 
DOCKED: REMARK    4  A    between atoms: C_12  and  O_14 
DOCKED: REMARK    5  A    between atoms: C_17  and  C_20 
DOCKED: REMARK    6  A    between atoms: C_24  and  C_27 
DOCKED: REMARK    7  A    between atoms: C_31  and  C_34 
DOCKED: REMARK    8  A    between atoms: C_34  and  C_35 
DOCKED: REMARK    9  A    between atoms: C_35  and  C_36 
DOCKED: REMARK   10  A    between atoms: C_36  and  O_38 
DOCKED: USER                              x       y       z     vdW  Elec       q    Type
DOCKED: USER                           _______ _______ _______ _____ _____    ______ ____
DOCKED: ROOT
DOCKED: ATOM      1  C   UNL d   1       6.152   5.809  19.597 -0.27 -0.01    +0.064 C 
DOCKED: ATOM      2  C   UNL d   1       3.406   8.810  16.789 -0.25 -0.03    +0.064 A 
DOCKED: ATOM      3  C   UNL d   1      -0.297   5.796  17.311 -0.25 -0.02    +0.064 C 
DOCKED: ATOM      4  C   UNL d   1       2.373   2.826  19.944 -0.20 -0.06    +0.064 C 
DOCKED: ATOM      5  C   UNL d   1       5.747   6.891  18.690 -0.23 -0.02    +0.066 A 
DOCKED: ATOM      6  C   UNL d   1       6.588   7.887  18.221 -0.18 +0.00    -0.021 A 
DOCKED: ATOM      7  C   UNL d   1       5.824   8.722  17.445 -0.18 +0.01    -0.025 A 
DOCKED: ATOM      8  C   UNL d   1       4.544   8.203  17.468 -0.21 -0.03    +0.066 A 
DOCKED: ATOM      9  C   UNL d   1       6.309   9.935  16.711 -0.19 -0.01    +0.051 C 
DOCKED: ATOM     10  C   UNL d   1       2.174   8.299  16.749 -0.24 -0.03    +0.066 A 
DOCKED: ATOM     11  C   UNL d   1       1.079   8.960  16.187 -0.23 +0.01    -0.021 A 
DOCKED: ATOM     12  C   UNL d   1      -0.005   8.119  16.340 -0.22 -0.00    +0.000 A 
DOCKED: ATOM     13  C   UNL d   1       0.488   6.980  17.001 -0.21 -0.03    +0.070 A 
DOCKED: ATOM     14  C   UNL d   1       1.052  10.355  15.596 -0.19 -0.03    +0.052 C 
DOCKED: ATOM     15  C   UNL d   1       0.160   4.719  17.993 -0.24 -0.03    +0.066 A 
DOCKED: ATOM     16  C   UNL d   1      -0.592   3.566  18.182 -0.25 +0.01    -0.021 A 
DOCKED: ATOM     17  C   UNL d   1       0.175   2.710  18.944 -0.29 -0.00    +0.000 A 
DOCKED: ATOM     18  C   UNL d   1       1.377   3.363  19.206 -0.30 -0.04    +0.070 A 
DOCKED: ATOM     19  C   UNL d   1      -1.986   3.288  17.689 -0.30 -0.02    +0.052 C 
DOCKED: ATOM     20  C   UNL d   1       3.675   3.457  20.188 -0.31 -0.03    +0.066 A 
DOCKED: ATOM     21  C   UNL d   1       4.633   3.008  21.108 -0.32 +0.01    -0.025 A 
DOCKED: ATOM     22  C   UNL d   1       5.707   3.866  20.984 -0.31 +0.00    -0.021 A 
DOCKED: ATOM     23  C   UNL d   1       5.361   4.803  20.003 -0.27 -0.01    +0.066 A 
DOCKED: ATOM     24  C   UNL d   1       4.551   1.838  22.061 -0.24 -0.03    +0.051 C 
DOCKED: ATOM     25  N   UNL d   1       4.502   7.084  18.219 -0.16 +0.11    -0.248 N 
DOCKED: ATOM     26  N   UNL d   1       1.814   7.093  17.258 +0.07 +0.13    -0.248 N 
DOCKED: ATOM     27  N   UNL d   1       1.386   4.580  18.585 -0.04 +0.14    -0.248 N 
DOCKED: ATOM     28  N   UNL d   1       4.103   4.576  19.553 -0.21 +0.10    -0.248 N 
DOCKED: ATOM     29 FE   UNL d   1       2.958   5.833  18.407 -0.05 -0.00    +0.000 Fe
DOCKED: ENDROOT
DOCKED: BRANCH   6  30
DOCKED: ATOM     30  C   UNL d   1       8.049   8.029  18.480 -0.12 -0.00    +0.052 C 
DOCKED: BRANCH  30  31
DOCKED: ATOM     31  C   UNL d   1       8.297   8.772  19.788 -0.02 -0.00    +0.115 C 
DOCKED: BRANCH  31  32
DOCKED: ATOM     32  C   UNL d   1       8.398   7.803  20.933 -0.03 +0.01    +0.139 C 
DOCKED: ATOM     33  O   UNL d   1       7.789   8.003  21.975 +0.03 -0.05    -0.650 OA
DOCKED: BRANCH  32  34
DOCKED: ATOM     34  O   UNL d   1       9.162   6.703  20.821 +0.05 -0.13    -0.776 OA
DOCKED: ATOM     35  H   UNL d   1       9.478   6.267  21.624 +0.03 +0.05    +0.167 HD
DOCKED: ENDBRANCH  32  34
DOCKED: ENDBRANCH  31  32
DOCKED: ENDBRANCH  30  31
DOCKED: ENDBRANCH   6  30
DOCKED: BRANCH  22  36
DOCKED: ATOM     36  C   UNL d   1       6.973   3.814  21.798 -0.27 +0.01    +0.052 C 
DOCKED: BRANCH  36  37
DOCKED: ATOM     37  C   UNL d   1       6.758   4.524  23.126 -0.14 +0.03    +0.115 C 
DOCKED: BRANCH  37  38
DOCKED: ATOM     38  C   UNL d   1       8.051   4.661  23.879 -0.08 +0.09    +0.139 C 
DOCKED: ATOM     39  O   UNL d   1       8.270   3.986  24.874 -0.25 -0.75    -0.650 OA
DOCKED: BRANCH  38  40
DOCKED: ATOM     40  O   UNL d   1       8.982   5.537  23.461 -0.01 -0.55    -0.776 OA
DOCKED: ATOM     41  H   UNL d   1       8.711   6.284  22.908 +0.02 +0.06    +0.167 HD
DOCKED: ENDBRANCH  38  40
DOCKED: ENDBRANCH  37  38
DOCKED: ENDBRANCH  36  37
DOCKED: ENDBRANCH  22  36
DOCKED: BRANCH  12  42
DOCKED: ATOM     42  C   UNL d   1      -1.398   8.427  15.891 -0.24 -0.00    +0.004 C 
DOCKED: ATOM     43  C   UNL d   1      -2.180   7.475  15.366 -0.28 -0.01    +0.012 C 
DOCKED: ENDBRANCH  12  42
DOCKED: BRANCH  17  44
DOCKED: ATOM     44  C   UNL d   1      -0.209   1.347  19.376 -0.37 -0.00    +0.004 C 
DOCKED: ATOM     45  C   UNL d   1      -0.800   1.145  20.559 -0.28 -0.00    +0.012 C 
DOCKED: ENDBRANCH  17  44
DOCKED: TORSDOF 10
DOCKED: TER
DOCKED: ENDMDL
________________________________________________________________________________


	BEGINNING GENETIC ALGORITHM DOCKING 25 of 100
Run: 25 Seed: 1513046410 1476571624 [ Run 25 of 100 GA/GALS ]
Beginning LAMARCKIAN GENETIC ALGORITHM (LGA), with a maximum of 25000000 energy evaluations.

Final-Value: -12.205


	FINAL GENETIC ALGORITHM DOCKED STATE
	_______________________________________________


Detailed state:  trans -9.380 6.712 -14.533 quatxyzw -0.634462 -0.032912 -0.324678 0.700684 center -0.174 -0.001 -0.047 ntor 10 -28.5922 -152.9335 59.4987 -111.3421 -70.3634 152.6453 52.5080 37.5066 -51.3516 -170.2352
State:	 -9.380   6.712 -14.533  -0.889 -0.046 -0.455 91.036    -28.59 -152.93   59.50 -111.34  -70.36  152.65   52.51   37.51  -51.35 -170.24

DOCKED: MODEL       25
DOCKED: USER    Run = 25
DOCKED: USER    DPF = D:/Protein_go_brrr/autodock/final/mut_K82N/heme_Fe/dock.dpf
DOCKED: USER  
DOCKED: USER    Estimated Free Energy of Binding    =   -7.99 kcal/mol  [=(1)+(2)+(3)-(4)]
DOCKED: USER    Estimated Inhibition Constant, Ki   =    1.40 uM (micromolar)  [Temperature = 298.15 K]
DOCKED: USER    
DOCKED: USER    (1) Final Intermolecular Energy     =  -10.97 kcal/mol
DOCKED: USER        vdW + Hbond + desolv Energy     =   -8.14 kcal/mol
DOCKED: USER        Electrostatic Energy            =   -2.83 kcal/mol
DOCKED: USER    (2) Final Total Internal Energy     =   -1.23 kcal/mol
DOCKED: USER    (3) Torsional Free Energy           =   +2.98 kcal/mol
DOCKED: USER    (4) Unbound System's Energy  [=(2)] =   -1.23 kcal/mol
DOCKED: USER    
DOCKED: USER    
DOCKED: USER    NEWDPF move heme_Fe_opt.pdbqt
DOCKED: USER    NEWDPF about -0.174000 -0.001000 -0.047000
DOCKED: USER    NEWDPF tran0 -9.379544 6.711671 -14.533454
DOCKED: USER    NEWDPF quaternion0 -0.634462 -0.032912 -0.324678 0.700684
DOCKED: USER    NEWDPF axisangle0 -0.889261 -0.046129 -0.455068 91.036136
DOCKED: USER    NEWDPF quat0 -0.889261 -0.046129 -0.455068 91.036136
DOCKED: USER    NEWDPF dihe0 -28.59 -152.93 59.50 -111.34 -70.36 152.65 52.51 37.51 -51.35 -170.24 
DOCKED: USER  keepresnum = 1 
DOCKED: USER  
DOCKED: REMARK  10 active torsions:
DOCKED: REMARK  status: ('A' for Active; 'I' for Inactive)
DOCKED: REMARK    1  A    between atoms: C_6  and  C_10 
DOCKED: REMARK    2  A    between atoms: C_10  and  C_11 
DOCKED: REMARK    3  A    between atoms: C_11  and  C_12 
DOCKED: REMARK    4  A    between atoms: C_12  and  O_14 
DOCKED: REMARK    5  A    between atoms: C_17  and  C_20 
DOCKED: REMARK    6  A    between atoms: C_24  and  C_27 
DOCKED: REMARK    7  A    between atoms: C_31  and  C_34 
DOCKED: REMARK    8  A    between atoms: C_34  and  C_35 
DOCKED: REMARK    9  A    between atoms: C_35  and  C_36 
DOCKED: REMARK   10  A    between atoms: C_36  and  O_38 
DOCKED: USER                              x       y       z     vdW  Elec       q    Type
DOCKED: USER                           _______ _______ _______ _____ _____    ______ ____
DOCKED: ROOT
DOCKED: ATOM      1  C   UNL d   1     -10.670   5.267 -15.209 -0.21 +0.02    +0.064 C 
DOCKED: ATOM      2  C   UNL d   1      -6.511   7.302 -16.938 -0.11 -0.02    +0.064 A 
DOCKED: ATOM      3  C   UNL d   1      -5.670   9.123 -12.574 -0.26 -0.01    +0.064 C 
DOCKED: ATOM      4  C   UNL d   1      -9.744   7.250 -10.907 -0.08 +0.01    +0.064 C 
DOCKED: ATOM      5  C   UNL d   1      -9.620   5.741 -16.122 -0.22 +0.01    +0.066 A 
DOCKED: ATOM      6  C   UNL d   1      -9.594   5.507 -17.487 -0.21 -0.00    -0.021 A 
DOCKED: ATOM      7  C   UNL d   1      -8.437   6.069 -17.965 -0.21 +0.00    -0.025 A 
DOCKED: ATOM      8  C   UNL d   1      -7.801   6.626 -16.873 -0.20 -0.01    +0.066 A 
DOCKED: ATOM      9  C   UNL d   1      -7.987   6.083 -19.394 -0.18 -0.01    +0.051 C 
DOCKED: ATOM     10  C   UNL d   1      -5.903   7.898 -15.910 -0.21 -0.01    +0.066 A 
DOCKED: ATOM     11  C   UNL d   1      -4.617   8.437 -15.978 -0.23 +0.00    -0.021 A 
DOCKED: ATOM     12  C   UNL d   1      -4.344   8.954 -14.727 -0.28 -0.00    +0.000 A 
DOCKED: ATOM     13  C   UNL d   1      -5.486   8.692 -13.951 -0.17 -0.01    +0.070 A 
DOCKED: ATOM     14  C   UNL d   1      -3.666   8.402 -17.157 -0.23 -0.01    +0.052 C 
DOCKED: ATOM     15  C   UNL d   1      -6.746   8.829 -11.806 -0.18 -0.00    +0.066 A 
DOCKED: ATOM     16  C   UNL d   1      -6.929   9.342 -10.529 -0.26 +0.00    -0.021 A 
DOCKED: ATOM     17  C   UNL d   1      -8.102   8.800 -10.045 -0.16 +0.00    +0.000 A 
DOCKED: ATOM     18  C   UNL d   1      -8.606   7.964 -11.039 -0.09 +0.01    +0.070 A 
DOCKED: ATOM     19  C   UNL d   1      -6.027  10.285  -9.779 -0.47 -0.01    +0.052 C 
DOCKED: ATOM     20  C   UNL d   1     -10.337   6.408 -11.954 -0.09 +0.01    +0.066 A 
DOCKED: ATOM     21  C   UNL d   1     -11.398   5.511 -11.768 -0.09 -0.01    -0.025 A 
DOCKED: ATOM     22  C   UNL d   1     -11.654   4.967 -13.010 -0.12 -0.01    -0.021 A 
DOCKED: ATOM     23  C   UNL d   1     -10.739   5.545 -13.898 -0.15 +0.02    +0.066 A 
DOCKED: ATOM     24  C   UNL d   1     -12.136   5.174 -10.493 -0.06 +0.02    +0.051 C 
DOCKED: ATOM     25  N   UNL d   1      -8.528   6.433 -15.754 -0.15 -0.00    -0.248 N 
DOCKED: ATOM     26  N   UNL d   1      -6.434   8.041 -14.669 +0.05 +0.02    -0.248 N 
DOCKED: ATOM     27  N   UNL d   1      -7.796   8.015 -12.139 -0.05 -0.01    -0.248 N 
DOCKED: ATOM     28  N   UNL d   1      -9.909   6.390 -13.240 -0.08 -0.04    -0.248 N 
DOCKED: ATOM     29 FE   UNL d   1      -8.172   7.215 -13.953 -0.04 +0.00    +0.000 Fe
DOCKED: ENDROOT
DOCKED: BRANCH   6  30
DOCKED: ATOM     30  C   UNL d   1     -10.626   4.803 -18.301 -0.17 +0.02    +0.052 C 
DOCKED: BRANCH  30  31
DOCKED: ATOM     31  C   UNL d   1     -12.028   5.144 -17.808 -0.11 +0.04    +0.115 C 
DOCKED: BRANCH  31  32
DOCKED: ATOM     32  C   UNL d   1     -12.811   3.889 -17.540 -0.05 +0.13    +0.139 C 
DOCKED: ATOM     33  O   UNL d   1     -13.186   3.179 -18.462 -0.22 -0.69    -0.650 OA
DOCKED: BRANCH  32  34
DOCKED: ATOM     34  O   UNL d   1     -13.106   3.535 -16.278 -0.51 -1.05    -0.776 OA
DOCKED: ATOM     35  H   UNL d   1     -13.907   3.019 -16.110 +0.01 +0.26    +0.167 HD
DOCKED: ENDBRANCH  32  34
DOCKED: ENDBRANCH  31  32
DOCKED: ENDBRANCH  30  31
DOCKED: ENDBRANCH   6  30
DOCKED: BRANCH  22  36
DOCKED: ATOM     36  C   UNL d   1     -12.687   3.914 -13.312 -0.13 +0.02    +0.052 C 
DOCKED: BRANCH  36  37
DOCKED: ATOM     37  C   UNL d   1     -12.222   2.569 -12.775 -0.04 +0.06    +0.115 C 
DOCKED: BRANCH  37  38
DOCKED: ATOM     38  C   UNL d   1     -12.622   1.452 -13.697 -0.10 +0.15    +0.139 C 
DOCKED: ATOM     39  O   UNL d   1     -11.971   0.419 -13.748 -0.60 -0.77    -0.650 OA
DOCKED: BRANCH  38  40
DOCKED: ATOM     40  O   UNL d   1     -13.706   1.586 -14.482 -0.10 -1.19    -0.776 OA
DOCKED: ATOM     41  H   UNL d   1     -13.986   2.472 -14.750 +0.01 +0.20    +0.167 HD
DOCKED: ENDBRANCH  38  40
DOCKED: ENDBRANCH  37  38
DOCKED: ENDBRANCH  36  37
DOCKED: ENDBRANCH  22  36
DOCKED: BRANCH  12  42
DOCKED: ATOM     42  C   UNL d   1      -3.064   9.623 -14.338 -0.42 -0.00    +0.004 C 
DOCKED: ATOM     43  C   UNL d   1      -3.009  10.949 -14.151 -0.41 -0.01    +0.012 C 
DOCKED: ENDBRANCH  12  42
DOCKED: BRANCH  17  44
DOCKED: ATOM     44  C   UNL d   1      -8.712   9.080  -8.725 -0.23 +0.00    +0.004 C 
DOCKED: ATOM     45  C   UNL d   1      -8.032   8.859  -7.595 -0.32 +0.00    +0.012 C 
DOCKED: ENDBRANCH  17  44
DOCKED: TORSDOF 10
DOCKED: TER
DOCKED: ENDMDL
________________________________________________________________________________


	BEGINNING GENETIC ALGORITHM DOCKING 26 of 100
Run: 26 Seed: 904501551 654700080 [ Run 26 of 100 GA/GALS ]
Beginning LAMARCKIAN GENETIC ALGORITHM (LGA), with a maximum of 25000000 energy evaluations.

Final-Value: -9.985


	FINAL GENETIC ALGORITHM DOCKED STATE
	_______________________________________________


Detailed state:  trans 13.214 10.996 1.135 quatxyzw -0.762395 -0.090738 0.639481 0.039799 center -0.174 -0.001 -0.047 ntor 10 151.1440 -55.3008 171.1643 -147.4097 72.0884 140.3189 0.0228 60.6005 -159.8781 158.1855
State:	 13.214  10.996   1.135  -0.763 -0.091  0.640 175.438    151.14  -55.30  171.16 -147.41   72.09  140.32    0.02   60.60 -159.88  158.19

DOCKED: MODEL       26
DOCKED: USER    Run = 26
DOCKED: USER    DPF = D:/Protein_go_brrr/autodock/final/mut_K82N/heme_Fe/dock.dpf
DOCKED: USER  
DOCKED: USER    Estimated Free Energy of Binding    =   -4.85 kcal/mol  [=(1)+(2)+(3)-(4)]
DOCKED: USER    Estimated Inhibition Constant, Ki   =  277.54 uM (micromolar)  [Temperature = 298.15 K]
DOCKED: USER    
DOCKED: USER    (1) Final Intermolecular Energy     =   -7.84 kcal/mol
DOCKED: USER        vdW + Hbond + desolv Energy     =   -6.63 kcal/mol
DOCKED: USER        Electrostatic Energy            =   -1.20 kcal/mol
DOCKED: USER    (2) Final Total Internal Energy     =   -2.15 kcal/mol
DOCKED: USER    (3) Torsional Free Energy           =   +2.98 kcal/mol
DOCKED: USER    (4) Unbound System's Energy  [=(2)] =   -2.15 kcal/mol
DOCKED: USER    
DOCKED: USER    
DOCKED: USER    NEWDPF move heme_Fe_opt.pdbqt
DOCKED: USER    NEWDPF about -0.174000 -0.001000 -0.047000
DOCKED: USER    NEWDPF tran0 13.214415 10.995900 1.135152
DOCKED: USER    NEWDPF quaternion0 -0.762395 -0.090738 0.639481 0.039799
DOCKED: USER    NEWDPF axisangle0 -0.763000 -0.090810 0.639988 175.438156
DOCKED: USER    NEWDPF quat0 -0.763000 -0.090810 0.639988 175.438156
DOCKED: USER    NEWDPF dihe0 151.14 -55.30 171.16 -147.41 72.09 140.32 0.02 60.60 -159.88 158.19 
DOCKED: USER  keepresnum = 1 
DOCKED: USER  
DOCKED: REMARK  10 active torsions:
DOCKED: REMARK  status: ('A' for Active; 'I' for Inactive)
DOCKED: REMARK    1  A    between atoms: C_6  and  C_10 
DOCKED: REMARK    2  A    between atoms: C_10  and  C_11 
DOCKED: REMARK    3  A    between atoms: C_11  and  C_12 
DOCKED: REMARK    4  A    between atoms: C_12  and  O_14 
DOCKED: REMARK    5  A    between atoms: C_17  and  C_20 
DOCKED: REMARK    6  A    between atoms: C_24  and  C_27 
DOCKED: REMARK    7  A    between atoms: C_31  and  C_34 
DOCKED: REMARK    8  A    between atoms: C_34  and  C_35 
DOCKED: REMARK    9  A    between atoms: C_35  and  C_36 
DOCKED: REMARK   10  A    between atoms: C_36  and  O_38 
DOCKED: USER                              x       y       z     vdW  Elec       q    Type
DOCKED: USER                           _______ _______ _______ _____ _____    ______ ____
DOCKED: ROOT
DOCKED: ATOM      1  C   UNL d   1      12.360  10.786   2.989 -0.13 +0.00    +0.064 C 
DOCKED: ATOM      2  C   UNL d   1      12.524  14.400  -0.379 -0.22 -0.01    +0.064 A 
DOCKED: ATOM      3  C   UNL d   1      14.070  11.212  -3.622 -0.28 -0.01    +0.064 C 
DOCKED: ATOM      4  C   UNL d   1      14.020   7.722  -0.351 -0.19 +0.00    +0.064 C 
DOCKED: ATOM      5  C   UNL d   1      12.343  12.116   2.363 -0.09 +0.00    +0.066 A 
DOCKED: ATOM      6  C   UNL d   1      12.054  13.298   3.026 -0.10 -0.00    -0.021 A 
DOCKED: ATOM      7  C   UNL d   1      12.096  14.300   2.089 -0.13 +0.00    -0.025 A 
DOCKED: ATOM      8  C   UNL d   1      12.409  13.691   0.889 -0.18 -0.00    +0.066 A 
DOCKED: ATOM      9  C   UNL d   1      11.866  15.758   2.345 -0.09 -0.00    +0.051 C 
DOCKED: ATOM     10  C   UNL d   1      12.881  13.846  -1.539 -0.24 -0.01    +0.066 A 
DOCKED: ATOM     11  C   UNL d   1      12.870  14.527  -2.759 -0.24 +0.00    -0.021 A 
DOCKED: ATOM     12  C   UNL d   1      13.296  13.624  -3.713 -0.22 -0.00    +0.000 A 
DOCKED: ATOM     13  C   UNL d   1      13.539  12.425  -3.021 -0.09 -0.02    +0.070 A 
DOCKED: ATOM     14  C   UNL d   1      12.411  15.948  -3.014 -0.20 -0.01    +0.052 C 
DOCKED: ATOM     15  C   UNL d   1      14.256  10.041  -2.970 -0.25 -0.01    +0.066 A 
DOCKED: ATOM     16  C   UNL d   1      14.859   8.934  -3.556 -0.20 +0.00    -0.021 A 
DOCKED: ATOM     17  C   UNL d   1      14.843   7.925  -2.615 -0.18 +0.00    +0.000 A 
DOCKED: ATOM     18  C   UNL d   1      14.225   8.440  -1.477 -0.19 +0.00    +0.070 A 
DOCKED: ATOM     19  C   UNL d   1      15.407   8.819  -4.953 -0.17 -0.00    +0.052 C 
DOCKED: ATOM     20  C   UNL d   1      13.430   8.247   0.886 -0.16 -0.00    +0.066 A 
DOCKED: ATOM     21  C   UNL d   1      13.029   7.474   1.984 -0.16 +0.00    -0.025 A 
DOCKED: ATOM     22  C   UNL d   1      12.571   8.368   2.930 -0.13 -0.00    -0.021 A 
DOCKED: ATOM     23  C   UNL d   1      12.703   9.645   2.371 -0.12 +0.00    +0.066 A 
DOCKED: ATOM     24  C   UNL d   1      13.067   5.971   2.144 -0.16 -0.00    +0.051 C 
DOCKED: ATOM     25  N   UNL d   1      12.568  12.364   1.061 -0.10 +0.00    -0.248 N 
DOCKED: ATOM     26  N   UNL d   1      13.277  12.557  -1.697 -0.16 +0.05    -0.248 N 
DOCKED: ATOM     27  N   UNL d   1      13.904   9.753  -1.679 -0.17 +0.02    -0.248 N 
DOCKED: ATOM     28  N   UNL d   1      13.186   9.562   1.108 +0.00 +0.00    -0.248 N 
DOCKED: ATOM     29 FE   UNL d   1      13.232  11.058  -0.295 -0.05 -0.00    +0.000 Fe
DOCKED: ENDROOT
DOCKED: BRANCH   6  30
DOCKED: ATOM     30  C   UNL d   1      11.773  13.472   4.479 -0.06 +0.00    +0.052 C 
DOCKED: BRANCH  30  31
DOCKED: ATOM     31  C   UNL d   1      10.416  12.879   4.842 -0.12 +0.03    +0.115 C 
DOCKED: BRANCH  31  32
DOCKED: ATOM     32  C   UNL d   1      10.138  13.059   6.308 -0.07 +0.05    +0.139 C 
DOCKED: ATOM     33  O   UNL d   1       9.874  14.164   6.762 +0.00 -0.16    -0.650 OA
DOCKED: BRANCH  32  34
DOCKED: ATOM     34  O   UNL d   1      10.177  12.003   7.137 -0.12 -0.60    -0.776 OA
DOCKED: ATOM     35  H   UNL d   1       9.965  11.125   6.789 +0.04 +0.17    +0.167 HD
DOCKED: ENDBRANCH  32  34
DOCKED: ENDBRANCH  31  32
DOCKED: ENDBRANCH  30  31
DOCKED: ENDBRANCH   6  30
DOCKED: BRANCH  22  36
DOCKED: ATOM     36  C   UNL d   1      11.993   8.009   4.273 -0.13 +0.00    +0.052 C 
DOCKED: BRANCH  36  37
DOCKED: ATOM     37  C   UNL d   1      10.482   8.181   4.245 -0.23 +0.02    +0.115 C 
DOCKED: BRANCH  37  38
DOCKED: ATOM     38  C   UNL d   1      10.034   9.185   5.269 -0.21 +0.06    +0.139 C 
DOCKED: ATOM     39  O   UNL d   1       9.145   9.985   5.014 -0.30 -0.56    -0.650 OA
DOCKED: BRANCH  38  40
DOCKED: ATOM     40  O   UNL d   1      10.616   9.213   6.481 +0.05 -0.29    -0.776 OA
DOCKED: ATOM     41  H   UNL d   1      11.010  10.039   6.795 +0.03 +0.06    +0.167 HD
DOCKED: ENDBRANCH  38  40
DOCKED: ENDBRANCH  37  38
DOCKED: ENDBRANCH  36  37
DOCKED: ENDBRANCH  22  36
DOCKED: BRANCH  12  42
DOCKED: ATOM     42  C   UNL d   1      13.429  13.921  -5.173 -0.26 -0.00    +0.004 C 
DOCKED: ATOM     43  C   UNL d   1      13.087  13.012  -6.095 -0.34 -0.00    +0.012 C 
DOCKED: ENDBRANCH  12  42
DOCKED: BRANCH  17  44
DOCKED: ATOM     44  C   UNL d   1      15.400   6.565  -2.787 -0.15 +0.00    +0.004 C 
DOCKED: ATOM     45  C   UNL d   1      14.628   5.556  -3.205 -0.19 +0.00    +0.012 C 
DOCKED: ENDBRANCH  17  44
DOCKED: TORSDOF 10
DOCKED: TER
DOCKED: ENDMDL
________________________________________________________________________________


	BEGINNING GENETIC ALGORITHM DOCKING 27 of 100
Run: 27 Seed: 1549738671 1459819987 [ Run 27 of 100 GA/GALS ]
Beginning LAMARCKIAN GENETIC ALGORITHM (LGA), with a maximum of 25000000 energy evaluations.

Final-Value: -11.669


	FINAL GENETIC ALGORITHM DOCKED STATE
	_______________________________________________


Detailed state:  trans -12.890 0.512 -5.417 quatxyzw -0.470574 0.547090 0.123835 0.681115 center -0.174 -0.001 -0.047 ntor 10 96.8209 121.7519 48.6070 25.8773 107.3284 -93.1425 136.7970 -143.5250 0.8388 -30.9105
State:	-12.890   0.512  -5.417  -0.643  0.747  0.169 94.138     96.82  121.75   48.61   25.88  107.33  -93.14  136.80 -143.52    0.84  -30.91

DOCKED: MODEL       27
DOCKED: USER    Run = 27
DOCKED: USER    DPF = D:/Protein_go_brrr/autodock/final/mut_K82N/heme_Fe/dock.dpf
DOCKED: USER  
DOCKED: USER    Estimated Free Energy of Binding    =   -7.32 kcal/mol  [=(1)+(2)+(3)-(4)]
DOCKED: USER    Estimated Inhibition Constant, Ki   =    4.31 uM (micromolar)  [Temperature = 298.15 K]
DOCKED: USER    
DOCKED: USER    (1) Final Intermolecular Energy     =  -10.30 kcal/mol
DOCKED: USER        vdW + Hbond + desolv Energy     =   -6.80 kcal/mol
DOCKED: USER        Electrostatic Energy            =   -3.50 kcal/mol
DOCKED: USER    (2) Final Total Internal Energy     =   -1.37 kcal/mol
DOCKED: USER    (3) Torsional Free Energy           =   +2.98 kcal/mol
DOCKED: USER    (4) Unbound System's Energy  [=(2)] =   -1.37 kcal/mol
DOCKED: USER    
DOCKED: USER    
DOCKED: USER    NEWDPF move heme_Fe_opt.pdbqt
DOCKED: USER    NEWDPF about -0.174000 -0.001000 -0.047000
DOCKED: USER    NEWDPF tran0 -12.889791 0.511782 -5.417060
DOCKED: USER    NEWDPF quaternion0 -0.470574 0.547090 0.123835 0.681115
DOCKED: USER    NEWDPF axisangle0 -0.642706 0.747210 0.169132 94.138367
DOCKED: USER    NEWDPF quat0 -0.642706 0.747210 0.169132 94.138367
DOCKED: USER    NEWDPF dihe0 96.82 121.75 48.61 25.88 107.33 -93.14 136.80 -143.52 0.84 -30.91 
DOCKED: USER  keepresnum = 1 
DOCKED: USER  
DOCKED: REMARK  10 active torsions:
DOCKED: REMARK  status: ('A' for Active; 'I' for Inactive)
DOCKED: REMARK    1  A    between atoms: C_6  and  C_10 
DOCKED: REMARK    2  A    between atoms: C_10  and  C_11 
DOCKED: REMARK    3  A    between atoms: C_11  and  C_12 
DOCKED: REMARK    4  A    between atoms: C_12  and  O_14 
DOCKED: REMARK    5  A    between atoms: C_17  and  C_20 
DOCKED: REMARK    6  A    between atoms: C_24  and  C_27 
DOCKED: REMARK    7  A    between atoms: C_31  and  C_34 
DOCKED: REMARK    8  A    between atoms: C_34  and  C_35 
DOCKED: REMARK    9  A    between atoms: C_35  and  C_36 
DOCKED: REMARK   10  A    between atoms: C_36  and  O_38 
DOCKED: USER                              x       y       z     vdW  Elec       q    Type
DOCKED: USER                           _______ _______ _______ _____ _____    ______ ____
DOCKED: ROOT
DOCKED: ATOM      1  C   UNL d   1     -14.062   1.566  -6.730 -0.08 +0.05    +0.064 C 
DOCKED: ATOM      2  C   UNL d   1     -11.390  -2.583  -7.008 -0.20 +0.01    +0.064 A 
DOCKED: ATOM      3  C   UNL d   1     -11.159  -2.673  -2.212 -0.24 -0.04    +0.064 C 
DOCKED: ATOM      4  C   UNL d   1     -13.654   1.399  -1.924 -0.12 +0.01    +0.064 C 
DOCKED: ATOM      5  C   UNL d   1     -13.261   0.452  -7.256 -0.09 +0.04    +0.066 A 
DOCKED: ATOM      6  C   UNL d   1     -13.007   0.225  -8.599 -0.11 -0.01    -0.021 A 
DOCKED: ATOM      7  C   UNL d   1     -12.268  -0.929  -8.675 -0.18 -0.01    -0.025 A 
DOCKED: ATOM      8  C   UNL d   1     -12.099  -1.363  -7.375 -0.16 +0.01    +0.066 A 
DOCKED: ATOM      9  C   UNL d   1     -11.744  -1.560  -9.929 -0.27 +0.01    +0.051 C 
DOCKED: ATOM     10  C   UNL d   1     -11.163  -2.993  -5.759 -0.17 +0.00    +0.066 A 
DOCKED: ATOM     11  C   UNL d   1     -10.582  -4.224  -5.442 -0.24 +0.00    -0.021 A 
DOCKED: ATOM     12  C   UNL d   1     -10.519  -4.281  -4.064 -0.25 -0.00    +0.000 A 
DOCKED: ATOM     13  C   UNL d   1     -11.078  -3.075  -3.607 -0.18 -0.02    +0.070 A 
DOCKED: ATOM     14  C   UNL d   1     -10.170  -5.321  -6.402 -0.49 -0.00    +0.052 C 
DOCKED: ATOM     15  C   UNL d   1     -11.742  -1.536  -1.764 -0.18 -0.02    +0.066 A 
DOCKED: ATOM     16  C   UNL d   1     -11.710  -1.140  -0.433 -0.25 +0.01    -0.021 A 
DOCKED: ATOM     17  C   UNL d   1     -12.432   0.032  -0.347 -0.18 -0.00    +0.000 A 
DOCKED: ATOM     18  C   UNL d   1     -12.892   0.322  -1.630 -0.11 +0.00    +0.070 A 
DOCKED: ATOM     19  C   UNL d   1     -11.049  -1.847   0.719 +0.01 -0.05    +0.052 C 
DOCKED: ATOM     20  C   UNL d   1     -14.104   1.769  -3.271 -0.09 +0.03    +0.066 A 
DOCKED: ATOM     21  C   UNL d   1     -15.052   2.760  -3.564 -0.08 -0.01    -0.025 A 
DOCKED: ATOM     22  C   UNL d   1     -15.143   2.799  -4.940 -0.07 -0.01    -0.021 A 
DOCKED: ATOM     23  C   UNL d   1     -14.258   1.832  -5.429 -0.07 +0.05    +0.066 A 
DOCKED: ATOM     24  C   UNL d   1     -15.838   3.626  -2.607 -0.04 +0.01    +0.051 C 
DOCKED: ATOM     25  N   UNL d   1     -12.695  -0.515  -6.513 -0.07 -0.09    -0.248 N 
DOCKED: ATOM     26  N   UNL d   1     -11.479  -2.293  -4.640 -0.09 +0.00    -0.248 N 
DOCKED: ATOM     27  N   UNL d   1     -12.432  -0.618  -2.509 -0.06 +0.00    -0.248 N 
DOCKED: ATOM     28  N   UNL d   1     -13.660   1.176  -4.405 -0.07 -0.15    -0.248 N 
DOCKED: ATOM     29 FE   UNL d   1     -12.570  -0.558  -4.521 -0.02 +0.00    +0.000 Fe
DOCKED: ENDROOT
DOCKED: BRANCH   6  30
DOCKED: ATOM     30  C   UNL d   1     -13.426   1.072  -9.751 -0.09 +0.02    +0.052 C 
DOCKED: BRANCH  30  31
DOCKED: ATOM     31  C   UNL d   1     -12.364   2.120 -10.066 -0.12 +0.06    +0.115 C 
DOCKED: BRANCH  31  32
DOCKED: ATOM     32  C   UNL d   1     -11.845   2.740  -8.799 -0.11 +0.15    +0.139 C 
DOCKED: ATOM     33  O   UNL d   1     -10.725   2.471  -8.387 -0.14 -0.75    -0.650 OA
DOCKED: BRANCH  32  34
DOCKED: ATOM     34  O   UNL d   1     -12.610   3.598  -8.104 +0.03 -1.32    -0.776 OA
DOCKED: ATOM     35  H   UNL d   1     -12.635   4.527  -8.371 +0.01 +0.21    +0.167 HD
DOCKED: ENDBRANCH  32  34
DOCKED: ENDBRANCH  31  32
DOCKED: ENDBRANCH  30  31
DOCKED: ENDBRANCH   6  30
DOCKED: BRANCH  22  36
DOCKED: ATOM     36  C   UNL d   1     -16.067   3.684  -5.735 -0.03 +0.02    +0.052 C 
DOCKED: BRANCH  36  37
DOCKED: ATOM     37  C   UNL d   1     -15.667   5.140  -5.551 -0.04 +0.05    +0.115 C 
DOCKED: BRANCH  37  38
DOCKED: ATOM     38  C   UNL d   1     -14.175   5.280  -5.442 +0.00 +0.16    +0.139 C 
DOCKED: ATOM     39  O   UNL d   1     -13.626   5.283  -4.350 -0.37 -0.82    -0.650 OA
DOCKED: BRANCH  38  40
DOCKED: ATOM     40  O   UNL d   1     -13.430   5.406  -6.554 -0.22 -1.37    -0.776 OA
DOCKED: ATOM     41  H   UNL d   1     -13.465   4.711  -7.225 +0.00 +0.27    +0.167 HD
DOCKED: ENDBRANCH  38  40
DOCKED: ENDBRANCH  37  38
DOCKED: ENDBRANCH  36  37
DOCKED: ENDBRANCH  22  36
DOCKED: BRANCH  12  42
DOCKED: ATOM     42  C   UNL d   1      -9.975  -5.432  -3.279 -0.41 -0.00    +0.004 C 
DOCKED: ATOM     43  C   UNL d   1      -8.711  -5.427  -2.834 -0.61 -0.01    +0.012 C 
DOCKED: ENDBRANCH  12  42
DOCKED: BRANCH  17  44
DOCKED: ATOM     44  C   UNL d   1     -12.650   0.833   0.878 -0.20 -0.00    +0.004 C 
DOCKED: ATOM     45  C   UNL d   1     -11.704   1.661   1.333 -0.37 -0.00    +0.012 C 
DOCKED: ENDBRANCH  17  44
DOCKED: TORSDOF 10
DOCKED: TER
DOCKED: ENDMDL
________________________________________________________________________________


	BEGINNING GENETIC ALGORITHM DOCKING 28 of 100
Run: 28 Seed: 345612308 1398847801 [ Run 28 of 100 GA/GALS ]
Beginning LAMARCKIAN GENETIC ALGORITHM (LGA), with a maximum of 25000000 energy evaluations.

Final-Value: -10.145


	FINAL GENETIC ALGORITHM DOCKED STATE
	_______________________________________________


Detailed state:  trans 13.114 10.923 1.294 quatxyzw 0.789015 0.033152 -0.609926 -0.065931 center -0.174 -0.001 -0.047 ntor 10 -39.7957 95.6497 -137.4322 -136.1241 56.0022 -99.1567 -80.9823 52.0064 165.2798 -170.8661
State:	 13.114  10.923   1.294   0.791  0.033 -0.611 -172.439    -39.80   95.65 -137.43 -136.12   56.00  -99.16  -80.98   52.01  165.28 -170.87

DOCKED: MODEL       28
DOCKED: USER    Run = 28
DOCKED: USER    DPF = D:/Protein_go_brrr/autodock/final/mut_K82N/heme_Fe/dock.dpf
DOCKED: USER  
DOCKED: USER    Estimated Free Energy of Binding    =   -5.18 kcal/mol  [=(1)+(2)+(3)-(4)]
DOCKED: USER    Estimated Inhibition Constant, Ki   =  160.56 uM (micromolar)  [Temperature = 298.15 K]
DOCKED: USER    
DOCKED: USER    (1) Final Intermolecular Energy     =   -8.16 kcal/mol
DOCKED: USER        vdW + Hbond + desolv Energy     =   -6.82 kcal/mol
DOCKED: USER        Electrostatic Energy            =   -1.34 kcal/mol
DOCKED: USER    (2) Final Total Internal Energy     =   -1.99 kcal/mol
DOCKED: USER    (3) Torsional Free Energy           =   +2.98 kcal/mol
DOCKED: USER    (4) Unbound System's Energy  [=(2)] =   -1.99 kcal/mol
DOCKED: USER    
DOCKED: USER    
DOCKED: USER    NEWDPF move heme_Fe_opt.pdbqt
DOCKED: USER    NEWDPF about -0.174000 -0.001000 -0.047000
DOCKED: USER    NEWDPF tran0 13.114339 10.922781 1.293881
DOCKED: USER    NEWDPF quaternion0 0.789015 0.033152 -0.609926 -0.065931
DOCKED: USER    NEWDPF axisangle0 0.790735 0.033224 -0.611256 -172.439330
DOCKED: USER    NEWDPF quat0 0.790735 0.033224 -0.611256 -172.439330
DOCKED: USER    NEWDPF dihe0 -39.80 95.65 -137.43 -136.12 56.00 -99.16 -80.98 52.01 165.28 -170.87 
DOCKED: USER  keepresnum = 1 
DOCKED: USER  
DOCKED: REMARK  10 active torsions:
DOCKED: REMARK  status: ('A' for Active; 'I' for Inactive)
DOCKED: REMARK    1  A    between atoms: C_6  and  C_10 
DOCKED: REMARK    2  A    between atoms: C_10  and  C_11 
DOCKED: REMARK    3  A    between atoms: C_11  and  C_12 
DOCKED: REMARK    4  A    between atoms: C_12  and  O_14 
DOCKED: REMARK    5  A    between atoms: C_17  and  C_20 
DOCKED: REMARK    6  A    between atoms: C_24  and  C_27 
DOCKED: REMARK    7  A    between atoms: C_31  and  C_34 
DOCKED: REMARK    8  A    between atoms: C_34  and  C_35 
DOCKED: REMARK    9  A    between atoms: C_35  and  C_36 
DOCKED: REMARK   10  A    between atoms: C_36  and  O_38 
DOCKED: USER                              x       y       z     vdW  Elec       q    Type
DOCKED: USER                           _______ _______ _______ _____ _____    ______ ____
DOCKED: ROOT
DOCKED: ATOM      1  C   UNL d   1      12.094  10.960   3.074 -0.11 +0.00    +0.064 C 
DOCKED: ATOM      2  C   UNL d   1      12.765  14.174  -0.621 -0.21 -0.01    +0.064 A 
DOCKED: ATOM      3  C   UNL d   1      14.384  10.578  -3.363 -0.26 -0.01    +0.064 C 
DOCKED: ATOM      4  C   UNL d   1      13.841   7.470   0.233 -0.17 +0.00    +0.064 C 
DOCKED: ATOM      5  C   UNL d   1      12.212  12.213   2.315 -0.08 +0.00    +0.066 A 
DOCKED: ATOM      6  C   UNL d   1      11.941  13.473   2.823 -0.11 -0.00    -0.021 A 
DOCKED: ATOM      7  C   UNL d   1      12.124  14.365   1.795 -0.14 +0.00    -0.025 A 
DOCKED: ATOM      8  C   UNL d   1      12.500  13.614   0.699 -0.19 -0.00    +0.066 A 
DOCKED: ATOM      9  C   UNL d   1      11.963  15.852   1.877 -0.10 -0.00    +0.051 C 
DOCKED: ATOM     10  C   UNL d   1      13.185  13.480  -1.680 -0.22 -0.01    +0.066 A 
DOCKED: ATOM     11  C   UNL d   1      13.321  14.024  -2.959 -0.21 +0.00    -0.021 A 
DOCKED: ATOM     12  C   UNL d   1      13.770  13.003  -3.772 -0.21 -0.00    +0.000 A 
DOCKED: ATOM     13  C   UNL d   1      13.879  11.875  -2.940 -0.16 -0.02    +0.070 A 
DOCKED: ATOM     14  C   UNL d   1      12.973  15.432  -3.400 -0.18 -0.01    +0.052 C 
DOCKED: ATOM     15  C   UNL d   1      14.442   9.476  -2.579 -0.22 -0.00    +0.066 A 
DOCKED: ATOM     16  C   UNL d   1      15.023   8.283  -2.990 -0.18 +0.00    -0.021 A 
DOCKED: ATOM     17  C   UNL d   1      14.864   7.384  -1.955 -0.17 +0.00    +0.000 A 
DOCKED: ATOM     18  C   UNL d   1      14.185   8.050  -0.938 -0.18 +0.00    +0.070 A 
DOCKED: ATOM     19  C   UNL d   1      15.680   7.989  -4.311 -0.13 -0.00    +0.052 C 
DOCKED: ATOM     20  C   UNL d   1      13.181   8.156   1.350 -0.16 -0.00    +0.066 A 
DOCKED: ATOM     21  C   UNL d   1      12.641   7.528   2.482 -0.15 +0.00    -0.025 A 
DOCKED: ATOM     22  C   UNL d   1      12.160   8.542   3.284 -0.14 -0.00    -0.021 A 
DOCKED: ATOM     23  C   UNL d   1      12.418   9.742   2.611 -0.12 +0.00    +0.066 A 
DOCKED: ATOM     24  C   UNL d   1      12.573   6.052   2.798 -0.16 -0.00    +0.051 C 
DOCKED: ATOM     25  N   UNL d   1      12.562  12.306   1.021 -0.09 +0.00    -0.248 N 
DOCKED: ATOM     26  N   UNL d   1      13.514  12.163  -1.667 -0.17 +0.04    -0.248 N 
DOCKED: ATOM     27  N   UNL d   1      13.963   9.348  -1.302 -0.16 +0.01    -0.248 N 
DOCKED: ATOM     28  N   UNL d   1      13.000   9.498   1.412 -0.01 +0.00    -0.248 N 
DOCKED: ATOM     29 FE   UNL d   1      13.257  10.828  -0.127 -0.05 -0.00    +0.000 Fe
DOCKED: ENDROOT
DOCKED: BRANCH   6  30
DOCKED: ATOM     30  C   UNL d   1      11.548  13.817   4.219 -0.07 +0.00    +0.052 C 
DOCKED: BRANCH  30  31
DOCKED: ATOM     31  C   UNL d   1      10.065  14.161   4.294 -0.12 +0.01    +0.115 C 
DOCKED: BRANCH  31  32
DOCKED: ATOM     32  C   UNL d   1       9.275  12.980   4.784 -0.18 +0.05    +0.139 C 
DOCKED: ATOM     33  O   UNL d   1       9.548  12.446   5.850 +0.07 -0.40    -0.650 OA
DOCKED: BRANCH  32  34
DOCKED: ATOM     34  O   UNL d   1       8.257  12.498   4.051 -0.01 -0.32    -0.776 OA
DOCKED: ATOM     35  H   UNL d   1       8.133  11.540   3.991 +0.06 +0.10    +0.167 HD
DOCKED: ENDBRANCH  32  34
DOCKED: ENDBRANCH  31  32
DOCKED: ENDBRANCH  30  31
DOCKED: ENDBRANCH   6  30
DOCKED: BRANCH  22  36
DOCKED: ATOM     36  C   UNL d   1      11.449   8.361   4.599 -0.16 +0.01    +0.052 C 
DOCKED: BRANCH  36  37
DOCKED: ATOM     37  C   UNL d   1      10.038   7.849   4.353 -0.25 +0.02    +0.115 C 
DOCKED: BRANCH  37  38
DOCKED: ATOM     38  C   UNL d   1       9.026   8.691   5.078 -0.29 +0.07    +0.139 C 
DOCKED: ATOM     39  O   UNL d   1       8.561   8.327   6.148 -0.08 -0.40    -0.650 OA
DOCKED: BRANCH  38  40
DOCKED: ATOM     40  O   UNL d   1       8.620   9.858   4.547 -0.51 -0.62    -0.776 OA
DOCKED: ATOM     41  H   UNL d   1       9.148  10.654   4.703 +0.06 +0.13    +0.167 HD
DOCKED: ENDBRANCH  38  40
DOCKED: ENDBRANCH  37  38
DOCKED: ENDBRANCH  36  37
DOCKED: ENDBRANCH  22  36
DOCKED: BRANCH  12  42
DOCKED: ATOM     42  C   UNL d   1      14.045  13.133  -5.237 -0.24 -0.00    +0.004 C 
DOCKED: ATOM     43  C   UNL d   1      13.083  12.907  -6.141 -0.33 -0.00    +0.012 C 
DOCKED: ENDBRANCH  12  42
DOCKED: BRANCH  17  44
DOCKED: ATOM     44  C   UNL d   1      15.350   5.985  -1.934 -0.13 +0.00    +0.004 C 
DOCKED: ATOM     45  C   UNL d   1      14.648   5.008  -2.518 -0.15 +0.00    +0.012 C 
DOCKED: ENDBRANCH  17  44
DOCKED: TORSDOF 10
DOCKED: TER
DOCKED: ENDMDL
________________________________________________________________________________


	BEGINNING GENETIC ALGORITHM DOCKING 29 of 100
Run: 29 Seed: 1691397998 69730138 [ Run 29 of 100 GA/GALS ]
Beginning LAMARCKIAN GENETIC ALGORITHM (LGA), with a maximum of 25000000 energy evaluations.

Final-Value: -14.465


	FINAL GENETIC ALGORITHM DOCKED STATE
	_______________________________________________


Detailed state:  trans -4.883 3.409 -7.263 quatxyzw 0.348475 0.192667 0.245327 0.883889 center -0.174 -0.001 -0.047 ntor 10 -86.7278 135.3058 85.8997 -151.8930 -115.1732 98.6423 48.2991 -33.3404 -79.5747 -160.1937
State:	 -4.883   3.409  -7.263   0.745  0.412  0.525 55.770    -86.73  135.31   85.90 -151.89 -115.17   98.64   48.30  -33.34  -79.57 -160.19

DOCKED: MODEL       29
DOCKED: USER    Run = 29
DOCKED: USER    DPF = D:/Protein_go_brrr/autodock/final/mut_K82N/heme_Fe/dock.dpf
DOCKED: USER  
DOCKED: USER    Estimated Free Energy of Binding    =  -11.67 kcal/mol  [=(1)+(2)+(3)-(4)]
DOCKED: USER    Estimated Inhibition Constant, Ki   =    2.77 nM (nanomolar)  [Temperature = 298.15 K]
DOCKED: USER    
DOCKED: USER    (1) Final Intermolecular Energy     =  -14.66 kcal/mol
DOCKED: USER        vdW + Hbond + desolv Energy     =  -13.25 kcal/mol
DOCKED: USER        Electrostatic Energy            =   -1.40 kcal/mol
DOCKED: USER    (2) Final Total Internal Energy     =   +0.19 kcal/mol
DOCKED: USER    (3) Torsional Free Energy           =   +2.98 kcal/mol
DOCKED: USER    (4) Unbound System's Energy  [=(2)] =   +0.19 kcal/mol
DOCKED: USER    
DOCKED: USER    
DOCKED: USER    NEWDPF move heme_Fe_opt.pdbqt
DOCKED: USER    NEWDPF about -0.174000 -0.001000 -0.047000
DOCKED: USER    NEWDPF tran0 -4.882617 3.409239 -7.262854
DOCKED: USER    NEWDPF quaternion0 0.348475 0.192667 0.245327 0.883889
DOCKED: USER    NEWDPF axisangle0 0.745087 0.411948 0.524543 55.769807
DOCKED: USER    NEWDPF quat0 0.745087 0.411948 0.524543 55.769807
DOCKED: USER    NEWDPF dihe0 -86.73 135.31 85.90 -151.89 -115.17 98.64 48.30 -33.34 -79.57 -160.19 
DOCKED: USER  keepresnum = 1 
DOCKED: USER  
DOCKED: REMARK  10 active torsions:
DOCKED: REMARK  status: ('A' for Active; 'I' for Inactive)
DOCKED: REMARK    1  A    between atoms: C_6  and  C_10 
DOCKED: REMARK    2  A    between atoms: C_10  and  C_11 
DOCKED: REMARK    3  A    between atoms: C_11  and  C_12 
DOCKED: REMARK    4  A    between atoms: C_12  and  O_14 
DOCKED: REMARK    5  A    between atoms: C_17  and  C_20 
DOCKED: REMARK    6  A    between atoms: C_24  and  C_27 
DOCKED: REMARK    7  A    between atoms: C_31  and  C_34 
DOCKED: REMARK    8  A    between atoms: C_34  and  C_35 
DOCKED: REMARK    9  A    between atoms: C_35  and  C_36 
DOCKED: REMARK   10  A    between atoms: C_36  and  O_38 
DOCKED: USER                              x       y       z     vdW  Elec       q    Type
DOCKED: USER                           _______ _______ _______ _____ _____    ______ ____
DOCKED: ROOT
DOCKED: ATOM      1  C   UNL d   1      -6.602   4.343  -7.882 -0.24 +0.02    +0.064 C 
DOCKED: ATOM      2  C   UNL d   1      -5.516   0.994  -4.412 -0.41 +0.01    +0.064 A 
DOCKED: ATOM      3  C   UNL d   1      -0.866   2.087  -4.911 -0.33 +0.00    +0.064 C 
DOCKED: ATOM      4  C   UNL d   1      -1.885   5.257  -8.346 -0.51 +0.00    +0.064 C 
DOCKED: ATOM      5  C   UNL d   1      -6.720   3.240  -6.919 -0.30 +0.02    +0.066 A 
DOCKED: ATOM      6  C   UNL d   1      -7.901   2.588  -6.604 -0.36 -0.01    -0.021 A 
DOCKED: ATOM      7  C   UNL d   1      -7.599   1.660  -5.638 -0.33 -0.01    -0.025 A 
DOCKED: ATOM      8  C   UNL d   1      -6.244   1.782  -5.400 -0.37 +0.01    +0.066 A 
DOCKED: ATOM      9  C   UNL d   1      -8.561   0.705  -5.000 +0.20 +0.02    +0.051 C 
DOCKED: ATOM     10  C   UNL d   1      -4.200   1.051  -4.203 -0.36 +0.00    +0.066 A 
DOCKED: ATOM     11  C   UNL d   1      -3.548   0.369  -3.173 -0.33 +0.00    -0.021 A 
DOCKED: ATOM     12  C   UNL d   1      -2.208   0.681  -3.285 -0.23 -0.00    +0.000 A 
DOCKED: ATOM     13  C   UNL d   1      -2.111   1.552  -4.383 -0.36 +0.00    +0.070 A 
DOCKED: ATOM     14  C   UNL d   1      -4.181  -0.484  -2.093 -0.46 -0.01    +0.052 C 
DOCKED: ATOM     15  C   UNL d   1      -0.772   2.967  -5.936 -0.37 +0.00    +0.066 A 
DOCKED: ATOM     16  C   UNL d   1       0.441   3.377  -6.475 -0.48 -0.00    -0.021 A 
DOCKED: ATOM     17  C   UNL d   1       0.149   4.294  -7.464 -0.51 +0.00    +0.000 A 
DOCKED: ATOM     18  C   UNL d   1      -1.237   4.425  -7.501 -0.42 +0.00    +0.070 A 
DOCKED: ATOM     19  C   UNL d   1       1.822   2.944  -6.063 -0.08 -0.00    +0.052 C 
DOCKED: ATOM     20  C   UNL d   1      -3.344   5.377  -8.456 -0.43 +0.01    +0.066 A 
DOCKED: ATOM     21  C   UNL d   1      -4.023   6.369  -9.177 -0.48 +0.00    -0.025 A 
DOCKED: ATOM     22  C   UNL d   1      -5.365   6.082  -9.042 -0.35 -0.00    -0.021 A 
DOCKED: ATOM     23  C   UNL d   1      -5.452   4.935  -8.243 -0.26 +0.01    +0.066 A 
DOCKED: ATOM     24  C   UNL d   1      -3.449   7.532  -9.952 -0.40 -0.01    +0.051 C 
DOCKED: ATOM     25  N   UNL d   1      -5.710   2.737  -6.187 -0.20 -0.06    -0.248 N 
DOCKED: ATOM     26  N   UNL d   1      -3.326   1.786  -4.938 -0.25 -0.01    -0.248 N 
DOCKED: ATOM     27  N   UNL d   1      -1.806   3.578  -6.592 -0.25 -0.02    -0.248 N 
DOCKED: ATOM     28  N   UNL d   1      -4.218   4.536  -7.851 -0.04 -0.07    -0.248 N 
DOCKED: ATOM     29 FE   UNL d   1      -3.771   3.162  -6.396 -0.09 +0.00    +0.000 Fe
DOCKED: ENDROOT
DOCKED: BRANCH   6  30
DOCKED: ATOM     30  C   UNL d   1      -9.245   2.817  -7.205 -0.03 +0.06    +0.052 C 
DOCKED: BRANCH  30  31
DOCKED: ATOM     31  C   UNL d   1      -9.145   3.732  -8.421 -0.23 +0.09    +0.115 C 
DOCKED: BRANCH  31  32
DOCKED: ATOM     32  C   UNL d   1     -10.170   4.828  -8.341 -0.07 +0.17    +0.139 C 
DOCKED: ATOM     33  O   UNL d   1     -11.073   4.899  -9.164 -0.01 -0.53    -0.650 OA
DOCKED: BRANCH  32  34
DOCKED: ATOM     34  O   UNL d   1     -10.103   5.745  -7.360 -0.41 -1.21    -0.776 OA
DOCKED: ATOM     35  H   UNL d   1      -9.635   6.575  -7.525 +0.04 +0.13    +0.167 HD
DOCKED: ENDBRANCH  32  34
DOCKED: ENDBRANCH  31  32
DOCKED: ENDBRANCH  30  31
DOCKED: ENDBRANCH   6  30
DOCKED: BRANCH  22  36
DOCKED: ATOM     36  C   UNL d   1      -6.500   6.893  -9.609 -0.30 +0.00    +0.052 C 
DOCKED: BRANCH  36  37
DOCKED: ATOM     37  C   UNL d   1      -6.500   8.281  -8.985 -0.34 +0.00    +0.115 C 
DOCKED: BRANCH  37  38
DOCKED: ATOM     38  C   UNL d   1      -6.957   9.316  -9.974 -0.27 +0.00    +0.139 C 
DOCKED: ATOM     39  O   UNL d   1      -8.111   9.720  -9.969 +0.03 -0.08    -0.650 OA
DOCKED: BRANCH  38  40
DOCKED: ATOM     40  O   UNL d   1      -6.093   9.806 -10.881 +0.08 +0.12    -0.776 OA
DOCKED: ATOM     41  H   UNL d   1      -5.204  10.060 -10.594 -0.48 -0.08    +0.167 HD
DOCKED: ENDBRANCH  38  40
DOCKED: ENDBRANCH  37  38
DOCKED: ENDBRANCH  36  37
DOCKED: ENDBRANCH  22  36
DOCKED: BRANCH  12  42
DOCKED: ATOM     42  C   UNL d   1      -1.133   0.176  -2.376 -0.43 -0.00    +0.004 C 
DOCKED: ATOM     43  C   UNL d   1       0.016  -0.306  -2.868 -0.57 -0.00    +0.012 C 
DOCKED: ENDBRANCH  12  42
DOCKED: BRANCH  17  44
DOCKED: ATOM     44  C   UNL d   1       1.132   4.984  -8.330 -0.54 +0.00    +0.004 C 
DOCKED: ATOM     45  C   UNL d   1       1.543   6.224  -8.046 -0.71 +0.00    +0.012 C 
DOCKED: ENDBRANCH  17  44
DOCKED: TORSDOF 10
DOCKED: TER
DOCKED: ENDMDL
________________________________________________________________________________


	BEGINNING GENETIC ALGORITHM DOCKING 30 of 100
Run: 30 Seed: 1900062502 238169243 [ Run 30 of 100 GA/GALS ]
Beginning LAMARCKIAN GENETIC ALGORITHM (LGA), with a maximum of 25000000 energy evaluations.

Final-Value: -10.566


	FINAL GENETIC ALGORITHM DOCKED STATE
	_______________________________________________


Detailed state:  trans 9.232 -15.041 -1.319 quatxyzw -0.075455 0.467240 -0.018471 0.880711 center -0.174 -0.001 -0.047 ntor 10 132.4281 -144.9200 -168.5278 -104.9310 119.8778 -156.0820 -58.4485 7.4980 -174.2691 -173.9598
State:	  9.232 -15.041  -1.319  -0.159  0.986 -0.039 56.543    132.43 -144.92 -168.53 -104.93  119.88 -156.08  -58.45    7.50 -174.27 -173.96

DOCKED: MODEL       30
DOCKED: USER    Run = 30
DOCKED: USER    DPF = D:/Protein_go_brrr/autodock/final/mut_K82N/heme_Fe/dock.dpf
DOCKED: USER  
DOCKED: USER    Estimated Free Energy of Binding    =   -6.62 kcal/mol  [=(1)+(2)+(3)-(4)]
DOCKED: USER    Estimated Inhibition Constant, Ki   =   13.99 uM (micromolar)  [Temperature = 298.15 K]
DOCKED: USER    
DOCKED: USER    (1) Final Intermolecular Energy     =   -9.61 kcal/mol
DOCKED: USER        vdW + Hbond + desolv Energy     =   -6.90 kcal/mol
DOCKED: USER        Electrostatic Energy            =   -2.71 kcal/mol
DOCKED: USER    (2) Final Total Internal Energy     =   -0.96 kcal/mol
DOCKED: USER    (3) Torsional Free Energy           =   +2.98 kcal/mol
DOCKED: USER    (4) Unbound System's Energy  [=(2)] =   -0.96 kcal/mol
DOCKED: USER    
DOCKED: USER    
DOCKED: USER    NEWDPF move heme_Fe_opt.pdbqt
DOCKED: USER    NEWDPF about -0.174000 -0.001000 -0.047000
DOCKED: USER    NEWDPF tran0 9.231606 -15.041186 -1.318767
DOCKED: USER    NEWDPF quaternion0 -0.075455 0.467240 -0.018471 0.880711
DOCKED: USER    NEWDPF axisangle0 -0.159305 0.986459 -0.038998 56.543455
DOCKED: USER    NEWDPF quat0 -0.159305 0.986459 -0.038998 56.543455
DOCKED: USER    NEWDPF dihe0 132.43 -144.92 -168.53 -104.93 119.88 -156.08 -58.45 7.50 -174.27 -173.96 
DOCKED: USER  keepresnum = 1 
DOCKED: USER  
DOCKED: REMARK  10 active torsions:
DOCKED: REMARK  status: ('A' for Active; 'I' for Inactive)
DOCKED: REMARK    1  A    between atoms: C_6  and  C_10 
DOCKED: REMARK    2  A    between atoms: C_10  and  C_11 
DOCKED: REMARK    3  A    between atoms: C_11  and  C_12 
DOCKED: REMARK    4  A    between atoms: C_12  and  O_14 
DOCKED: REMARK    5  A    between atoms: C_17  and  C_20 
DOCKED: REMARK    6  A    between atoms: C_24  and  C_27 
DOCKED: REMARK    7  A    between atoms: C_31  and  C_34 
DOCKED: REMARK    8  A    between atoms: C_34  and  C_35 
DOCKED: REMARK    9  A    between atoms: C_35  and  C_36 
DOCKED: REMARK   10  A    between atoms: C_36  and  O_38 
DOCKED: USER                              x       y       z     vdW  Elec       q    Type
DOCKED: USER                           _______ _______ _______ _____ _____    ______ ____
DOCKED: ROOT
DOCKED: ATOM      1  C   UNL d   1       7.687 -15.104  -2.668 -0.16 +0.01    +0.064 C 
DOCKED: ATOM      2  C   UNL d   1      10.243 -18.499  -0.144 -0.09 +0.00    +0.064 A 
DOCKED: ATOM      3  C   UNL d   1      11.942 -15.012   2.689 -0.09 +0.02    +0.064 C 
DOCKED: ATOM      4  C   UNL d   1       9.559 -11.698   0.195 -0.22 +0.01    +0.064 C 
DOCKED: ATOM      5  C   UNL d   1       8.314 -16.373  -2.272 -0.11 +0.01    +0.066 A 
DOCKED: ATOM      6  C   UNL d   1       8.148 -17.578  -2.935 -0.11 -0.00    -0.021 A 
DOCKED: ATOM      7  C   UNL d   1       8.855 -18.521  -2.231 -0.05 -0.00    -0.025 A 
DOCKED: ATOM      8  C   UNL d   1       9.427 -17.854  -1.165 -0.04 +0.01    +0.066 A 
DOCKED: ATOM      9  C   UNL d   1       8.983 -19.971  -2.581 -0.10 +0.00    +0.051 C 
DOCKED: ATOM     10  C   UNL d   1      10.854 -17.869   0.862 -0.07 +0.01    +0.066 A 
DOCKED: ATOM     11  C   UNL d   1      11.534 -18.528   1.889 -0.04 -0.00    -0.021 A 
DOCKED: ATOM     12  C   UNL d   1      12.019 -17.545   2.729 -0.03 +0.00    +0.000 A 
DOCKED: ATOM     13  C   UNL d   1      11.598 -16.326   2.169 -0.05 +0.01    +0.070 A 
DOCKED: ATOM     14  C   UNL d   1      11.657 -20.024   2.098 -0.02 +0.00    +0.052 C 
DOCKED: ATOM     15  C   UNL d   1      11.497 -13.837   2.185 -0.11 +0.02    +0.066 A 
DOCKED: ATOM     16  C   UNL d   1      11.927 -12.601   2.648 -0.12 -0.01    -0.021 A 
DOCKED: ATOM     17  C   UNL d   1      11.239 -11.643   1.932 -0.16 +0.00    +0.000 A 
DOCKED: ATOM     18  C   UNL d   1      10.399 -12.320   1.050 -0.15 +0.01    +0.070 A 
DOCKED: ATOM     19  C   UNL d   1      12.928 -12.326   3.738 -0.11 +0.01    +0.052 C 
DOCKED: ATOM     20  C   UNL d   1       8.707 -12.375  -0.790 -0.15 +0.01    +0.066 A 
DOCKED: ATOM     21  C   UNL d   1       7.691 -11.764  -1.539 -0.26 -0.00    -0.025 A 
DOCKED: ATOM     22  C   UNL d   1       7.180 -12.750  -2.357 -0.22 -0.00    -0.021 A 
DOCKED: ATOM     23  C   UNL d   1       7.895 -13.919  -2.072 -0.14 +0.01    +0.066 A 
DOCKED: ATOM     24  C   UNL d   1       7.217 -10.330  -1.491 -0.28 +0.00    +0.051 C 
DOCKED: ATOM     25  N   UNL d   1       9.104 -16.545  -1.198 -0.09 -0.03    -0.248 N 
DOCKED: ATOM     26  N   UNL d   1      10.881 -16.524   1.036 -0.04 -0.03    -0.248 N 
DOCKED: ATOM     27  N   UNL d   1      10.589 -13.668   1.174 -0.07 -0.05    -0.248 N 
DOCKED: ATOM     28  N   UNL d   1       8.795 -13.695  -1.084 -0.05 -0.04    -0.248 N 
DOCKED: ATOM     29 FE   UNL d   1       9.837 -15.107  -0.024 -0.03 +0.00    +0.000 Fe
DOCKED: ENDROOT
DOCKED: BRANCH   6  30
DOCKED: ATOM     30  C   UNL d   1       7.374 -17.820  -4.185 -0.12 +0.01    +0.052 C 
DOCKED: BRANCH  30  31
DOCKED: ATOM     31  C   UNL d   1       5.899 -18.051  -3.872 -0.19 +0.05    +0.115 C 
DOCKED: BRANCH  31  32
DOCKED: ATOM     32  C   UNL d   1       5.045 -17.040  -4.583 -0.14 +0.14    +0.139 C 
DOCKED: ATOM     33  O   UNL d   1       4.197 -17.396  -5.390 -0.33 -0.71    -0.650 OA
DOCKED: BRANCH  32  34
DOCKED: ATOM     34  O   UNL d   1       5.206 -15.728  -4.338 -0.40 -1.00    -0.776 OA
DOCKED: ATOM     35  H   UNL d   1       5.255 -15.425  -3.421 -0.53 +0.14    +0.167 HD
DOCKED: ENDBRANCH  32  34
DOCKED: ENDBRANCH  31  32
DOCKED: ENDBRANCH  30  31
DOCKED: ENDBRANCH   6  30
DOCKED: BRANCH  22  36
DOCKED: ATOM     36  C   UNL d   1       6.035 -12.586  -3.322 -0.32 +0.02    +0.052 C 
DOCKED: BRANCH  36  37
DOCKED: ATOM     37  C   UNL d   1       4.718 -12.583  -2.559 -0.31 +0.07    +0.115 C 
DOCKED: BRANCH  37  38
DOCKED: ATOM     38  C   UNL d   1       3.549 -12.584  -3.504 -0.14 +0.18    +0.139 C 
DOCKED: ATOM     39  O   UNL d   1       2.459 -12.157  -3.150 -0.56 -0.68    -0.650 OA
DOCKED: BRANCH  38  40
DOCKED: ATOM     40  O   UNL d   1       3.695 -13.062  -4.752 -0.15 -1.15    -0.776 OA
DOCKED: ATOM     41  H   UNL d   1       4.289 -13.811  -4.902 +0.05 +0.26    +0.167 HD
DOCKED: ENDBRANCH  38  40
DOCKED: ENDBRANCH  37  38
DOCKED: ENDBRANCH  36  37
DOCKED: ENDBRANCH  22  36
DOCKED: BRANCH  12  42
DOCKED: ATOM     42  C   UNL d   1      12.806 -17.796   3.975 -0.02 +0.00    +0.004 C 
DOCKED: ATOM     43  C   UNL d   1      12.367 -17.368   5.166 -0.06 +0.00    +0.012 C 
DOCKED: ENDBRANCH  12  42
DOCKED: BRANCH  17  44
DOCKED: ATOM     44  C   UNL d   1      11.389 -10.177   2.069 -0.25 +0.00    +0.004 C 
DOCKED: ATOM     45  C   UNL d   1      11.317  -9.590   3.268 -0.28 +0.00    +0.012 C 
DOCKED: ENDBRANCH  17  44
DOCKED: TORSDOF 10
DOCKED: TER
DOCKED: ENDMDL
________________________________________________________________________________


	BEGINNING GENETIC ALGORITHM DOCKING 31 of 100
Run: 31 Seed: 402122476 655527087 [ Run 31 of 100 GA/GALS ]
Beginning LAMARCKIAN GENETIC ALGORITHM (LGA), with a maximum of 25000000 energy evaluations.

Final-Value: -10.769


	FINAL GENETIC ALGORITHM DOCKED STATE
	_______________________________________________


Detailed state:  trans 11.045 3.569 13.721 quatxyzw 0.119844 -0.572047 -0.188332 0.789260 center -0.174 -0.001 -0.047 ntor 10 33.4633 72.3329 58.7184 1.6459 -139.4821 -28.4432 -74.1518 52.7785 156.1772 162.3449
State:	 11.045   3.569  13.721   0.195 -0.932 -0.307 75.767     33.46   72.33   58.72    1.65 -139.48  -28.44  -74.15   52.78  156.18  162.34

DOCKED: MODEL       31
DOCKED: USER    Run = 31
DOCKED: USER    DPF = D:/Protein_go_brrr/autodock/final/mut_K82N/heme_Fe/dock.dpf
DOCKED: USER  
DOCKED: USER    Estimated Free Energy of Binding    =   -5.29 kcal/mol  [=(1)+(2)+(3)-(4)]
DOCKED: USER    Estimated Inhibition Constant, Ki   =  131.82 uM (micromolar)  [Temperature = 298.15 K]
DOCKED: USER    
DOCKED: USER    (1) Final Intermolecular Energy     =   -8.28 kcal/mol
DOCKED: USER        vdW + Hbond + desolv Energy     =   -7.88 kcal/mol
DOCKED: USER        Electrostatic Energy            =   -0.39 kcal/mol
DOCKED: USER    (2) Final Total Internal Energy     =   -2.49 kcal/mol
DOCKED: USER    (3) Torsional Free Energy           =   +2.98 kcal/mol
DOCKED: USER    (4) Unbound System's Energy  [=(2)] =   -2.49 kcal/mol
DOCKED: USER    
DOCKED: USER    
DOCKED: USER    NEWDPF move heme_Fe_opt.pdbqt
DOCKED: USER    NEWDPF about -0.174000 -0.001000 -0.047000
DOCKED: USER    NEWDPF tran0 11.044851 3.569019 13.720838
DOCKED: USER    NEWDPF quaternion0 0.119844 -0.572047 -0.188332 0.789260
DOCKED: USER    NEWDPF axisangle0 0.195167 -0.931582 -0.306699 75.767235
DOCKED: USER    NEWDPF quat0 0.195167 -0.931582 -0.306699 75.767235
DOCKED: USER    NEWDPF dihe0 33.46 72.33 58.72 1.65 -139.48 -28.44 -74.15 52.78 156.18 162.34 
DOCKED: USER  keepresnum = 1 
DOCKED: USER  
DOCKED: REMARK  10 active torsions:
DOCKED: REMARK  status: ('A' for Active; 'I' for Inactive)
DOCKED: REMARK    1  A    between atoms: C_6  and  C_10 
DOCKED: REMARK    2  A    between atoms: C_10  and  C_11 
DOCKED: REMARK    3  A    between atoms: C_11  and  C_12 
DOCKED: REMARK    4  A    between atoms: C_12  and  O_14 
DOCKED: REMARK    5  A    between atoms: C_17  and  C_20 
DOCKED: REMARK    6  A    between atoms: C_24  and  C_27 
DOCKED: REMARK    7  A    between atoms: C_31  and  C_34 
DOCKED: REMARK    8  A    between atoms: C_34  and  C_35 
DOCKED: REMARK    9  A    between atoms: C_35  and  C_36 
DOCKED: REMARK   10  A    between atoms: C_36  and  O_38 
DOCKED: USER                              x       y       z     vdW  Elec       q    Type
DOCKED: USER                           _______ _______ _______ _____ _____    ______ ____
DOCKED: ROOT
DOCKED: ATOM      1  C   UNL d   1      10.983   3.414  15.766 -0.28 -0.01    +0.064 C 
DOCKED: ATOM      2  C   UNL d   1      13.264   0.927  12.155 -0.17 -0.01    +0.064 A 
DOCKED: ATOM      3  C   UNL d   1      12.267   4.529   9.138 -0.18 -0.00    +0.064 C 
DOCKED: ATOM      4  C   UNL d   1       9.963   6.905  12.593 -0.26 +0.00    +0.064 C 
DOCKED: ATOM      5  C   UNL d   1      11.644   2.342  15.009 -0.25 -0.01    +0.066 A 
DOCKED: ATOM      6  C   UNL d   1      11.983   1.102  15.525 -0.29 +0.00    -0.021 A 
DOCKED: ATOM      7  C   UNL d   1      12.620   0.414  14.522 -0.26 +0.01    -0.025 A 
DOCKED: ATOM      8  C   UNL d   1      12.645   1.261  13.431 -0.19 -0.01    +0.066 A 
DOCKED: ATOM      9  C   UNL d   1      13.152  -0.984  14.611 -0.38 -0.01    +0.051 C 
DOCKED: ATOM     10  C   UNL d   1      13.252   1.702  11.069 -0.16 -0.01    +0.066 A 
DOCKED: ATOM     11  C   UNL d   1      13.951   1.405   9.897 -0.13 +0.00    -0.021 A 
DOCKED: ATOM     12  C   UNL d   1      13.693   2.437   9.017 -0.13 -0.00    +0.000 A 
DOCKED: ATOM     13  C   UNL d   1      12.849   3.324   9.708 -0.13 -0.00    +0.070 A 
DOCKED: ATOM     14  C   UNL d   1      14.875   0.230   9.651 -0.02 -0.00    +0.052 C 
DOCKED: ATOM     15  C   UNL d   1      11.495   5.412   9.815 -0.20 -0.00    +0.066 A 
DOCKED: ATOM     16  C   UNL d   1      10.877   6.499   9.210 -0.23 -0.00    -0.021 A 
DOCKED: ATOM     17  C   UNL d   1      10.214   7.187  10.205 -0.29 +0.00    +0.000 A 
DOCKED: ATOM     18  C   UNL d   1      10.449   6.506  11.397 -0.27 -0.00    +0.070 A 
DOCKED: ATOM     19  C   UNL d   1      10.925   6.891   7.758 -0.06 +0.01    +0.052 C 
DOCKED: ATOM     20  C   UNL d   1      10.138   6.181  13.857 -0.24 -0.01    +0.066 A 
DOCKED: ATOM     21  C   UNL d   1       9.816   6.679  15.128 -0.29 +0.00    -0.025 A 
DOCKED: ATOM     22  C   UNL d   1      10.103   5.663  16.016 -0.24 +0.00    -0.021 A 
DOCKED: ATOM     23  C   UNL d   1      10.592   4.593  15.257 -0.23 -0.01    +0.066 A 
DOCKED: ATOM     24  C   UNL d   1       9.271   8.039  15.497 -0.26 -0.00    +0.051 C 
DOCKED: ATOM     25  N   UNL d   1      12.043   2.430  13.728 -0.10 +0.03    -0.248 N 
DOCKED: ATOM     26  N   UNL d   1      12.587   2.881  10.962 -0.08 +0.02    -0.248 N 
DOCKED: ATOM     27  N   UNL d   1      11.200   5.390  11.152 -0.14 +0.01    -0.248 N 
DOCKED: ATOM     28  N   UNL d   1      10.653   4.931  13.946 -0.17 +0.04    -0.248 N 
DOCKED: ATOM     29 FE   UNL d   1      11.619   3.907  12.454 -0.05 -0.00    +0.000 Fe
DOCKED: ENDROOT
DOCKED: BRANCH   6  30
DOCKED: ATOM     30  C   UNL d   1      11.698   0.587  16.894 -0.35 -0.01    +0.052 C 
DOCKED: BRANCH  30  31
DOCKED: ATOM     31  C   UNL d   1      12.993   0.370  17.670 -0.22 -0.00    +0.115 C 
DOCKED: BRANCH  31  32
DOCKED: ATOM     32  C   UNL d   1      13.171   1.444  18.707 -0.16 +0.01    +0.139 C 
DOCKED: ATOM     33  O   UNL d   1      14.272   1.936  18.911 +0.03 -0.05    -0.650 OA
DOCKED: BRANCH  32  34
DOCKED: ATOM     34  O   UNL d   1      12.118   1.874  19.421 -0.02 -0.13    -0.776 OA
DOCKED: ATOM     35  H   UNL d   1      12.082   2.802  19.693 +0.03 +0.04    +0.167 HD
DOCKED: ENDBRANCH  32  34
DOCKED: ENDBRANCH  31  32
DOCKED: ENDBRANCH  30  31
DOCKED: ENDBRANCH   6  30
DOCKED: BRANCH  22  36
DOCKED: ATOM     36  C   UNL d   1       9.960   5.737  17.513 -0.13 +0.00    +0.052 C 
DOCKED: BRANCH  36  37
DOCKED: ATOM     37  C   UNL d   1      11.322   5.981  18.147 -0.09 +0.01    +0.115 C 
DOCKED: BRANCH  37  38
DOCKED: ATOM     38  C   UNL d   1      11.603   4.973  19.225 -0.15 +0.02    +0.139 C 
DOCKED: ATOM     39  O   UNL d   1      10.689   4.460  19.854 -0.09 -0.19    -0.650 OA
DOCKED: BRANCH  38  40
DOCKED: ATOM     40  O   UNL d   1      12.872   4.629  19.508 +0.03 -0.13    -0.776 OA
DOCKED: ATOM     41  H   UNL d   1      13.191   3.754  19.247 +0.03 +0.02    +0.167 HD
DOCKED: ENDBRANCH  38  40
DOCKED: ENDBRANCH  37  38
DOCKED: ENDBRANCH  36  37
DOCKED: ENDBRANCH  22  36
DOCKED: BRANCH  12  42
DOCKED: ATOM     42  C   UNL d   1      14.249   2.541   7.632 -0.11 +0.00    +0.004 C 
DOCKED: ATOM     43  C   UNL d   1      13.476   2.322   6.561 -0.16 +0.00    +0.012 C 
DOCKED: ENDBRANCH  12  42
DOCKED: BRANCH  17  44
DOCKED: ATOM     44  C   UNL d   1       9.394   8.406  10.024 -0.36 +0.00    +0.004 C 
DOCKED: ATOM     45  C   UNL d   1       8.372   8.422   9.161 -0.47 +0.00    +0.012 C 
DOCKED: ENDBRANCH  17  44
DOCKED: TORSDOF 10
DOCKED: TER
DOCKED: ENDMDL
________________________________________________________________________________


	BEGINNING GENETIC ALGORITHM DOCKING 32 of 100
Run: 32 Seed: 1717815096 1763464161 [ Run 32 of 100 GA/GALS ]
Beginning LAMARCKIAN GENETIC ALGORITHM (LGA), with a maximum of 25000000 energy evaluations.

Final-Value: -11.591


	FINAL GENETIC ALGORITHM DOCKED STATE
	_______________________________________________


Detailed state:  trans -8.803 7.493 -14.151 quatxyzw 0.481170 0.371992 -0.070231 -0.790674 center -0.174 -0.001 -0.047 ntor 10 125.5736 180.0000 -163.0578 72.4269 170.9411 111.8090 80.5411 3.7129 180.0000 177.9270
State:	 -8.803   7.493 -14.151   0.786  0.608 -0.115 -75.503    125.57  180.00 -163.06   72.43  170.94  111.81   80.54    3.71  180.00  177.93

DOCKED: MODEL       32
DOCKED: USER    Run = 32
DOCKED: USER    DPF = D:/Protein_go_brrr/autodock/final/mut_K82N/heme_Fe/dock.dpf
DOCKED: USER  
DOCKED: USER    Estimated Free Energy of Binding    =   -8.02 kcal/mol  [=(1)+(2)+(3)-(4)]
DOCKED: USER    Estimated Inhibition Constant, Ki   =    1.33 uM (micromolar)  [Temperature = 298.15 K]
DOCKED: USER    
DOCKED: USER    (1) Final Intermolecular Energy     =  -11.00 kcal/mol
DOCKED: USER        vdW + Hbond + desolv Energy     =   -7.37 kcal/mol
DOCKED: USER        Electrostatic Energy            =   -3.63 kcal/mol
DOCKED: USER    (2) Final Total Internal Energy     =   -0.59 kcal/mol
DOCKED: USER    (3) Torsional Free Energy           =   +2.98 kcal/mol
DOCKED: USER    (4) Unbound System's Energy  [=(2)] =   -0.59 kcal/mol
DOCKED: USER    
DOCKED: USER    
DOCKED: USER    NEWDPF move heme_Fe_opt.pdbqt
DOCKED: USER    NEWDPF about -0.174000 -0.001000 -0.047000
DOCKED: USER    NEWDPF tran0 -8.803467 7.493261 -14.150659
DOCKED: USER    NEWDPF quaternion0 0.481170 0.371992 -0.070231 -0.790674
DOCKED: USER    NEWDPF axisangle0 0.785920 0.607594 -0.114713 -75.502960
DOCKED: USER    NEWDPF quat0 0.785920 0.607594 -0.114713 -75.502960
DOCKED: USER    NEWDPF dihe0 125.57 180.00 -163.06 72.43 170.94 111.81 80.54 3.71 180.00 177.93 
DOCKED: USER  keepresnum = 1 
DOCKED: USER  
DOCKED: REMARK  10 active torsions:
DOCKED: REMARK  status: ('A' for Active; 'I' for Inactive)
DOCKED: REMARK    1  A    between atoms: C_6  and  C_10 
DOCKED: REMARK    2  A    between atoms: C_10  and  C_11 
DOCKED: REMARK    3  A    between atoms: C_11  and  C_12 
DOCKED: REMARK    4  A    between atoms: C_12  and  O_14 
DOCKED: REMARK    5  A    between atoms: C_17  and  C_20 
DOCKED: REMARK    6  A    between atoms: C_24  and  C_27 
DOCKED: REMARK    7  A    between atoms: C_31  and  C_34 
DOCKED: REMARK    8  A    between atoms: C_34  and  C_35 
DOCKED: REMARK    9  A    between atoms: C_35  and  C_36 
DOCKED: REMARK   10  A    between atoms: C_36  and  O_38 
DOCKED: USER                              x       y       z     vdW  Elec       q    Type
DOCKED: USER                           _______ _______ _______ _____ _____    ______ ____
DOCKED: ROOT
DOCKED: ATOM      1  C   UNL d   1      -9.967   6.540 -12.755 -0.13 +0.01    +0.064 C 
DOCKED: ATOM      2  C   UNL d   1      -9.023   5.847 -17.557 -0.21 +0.00    +0.064 A 
DOCKED: ATOM      3  C   UNL d   1      -5.263   8.811 -17.174 -0.13 -0.01    +0.064 C 
DOCKED: ATOM      4  C   UNL d   1      -6.222   9.578 -12.550 -0.23 -0.01    +0.064 C 
DOCKED: ATOM      5  C   UNL d   1     -10.100   6.136 -14.161 -0.14 +0.01    +0.066 A 
DOCKED: ATOM      6  C   UNL d   1     -11.136   5.369 -14.669 -0.16 -0.01    -0.021 A 
DOCKED: ATOM      7  C   UNL d   1     -10.870   5.174 -16.002 -0.18 -0.01    -0.025 A 
DOCKED: ATOM      8  C   UNL d   1      -9.682   5.830 -16.257 -0.21 +0.01    +0.066 A 
DOCKED: ATOM      9  C   UNL d   1     -11.726   4.416 -16.971 -0.12 +0.03    +0.051 C 
DOCKED: ATOM     10  C   UNL d   1      -7.907   6.520 -17.843 -0.16 -0.01    +0.066 A 
DOCKED: ATOM     11  C   UNL d   1      -7.237   6.425 -19.065 -0.09 +0.00    -0.021 A 
DOCKED: ATOM     12  C   UNL d   1      -6.139   7.257 -18.974 -0.14 -0.00    +0.000 A 
DOCKED: ATOM     13  C   UNL d   1      -6.192   7.816 -17.686 -0.14 -0.02    +0.070 A 
DOCKED: ATOM     14  C   UNL d   1      -7.587   5.531 -20.238 -0.20 -0.01    +0.052 C 
DOCKED: ATOM     15  C   UNL d   1      -5.279   9.314 -15.917 -0.11 -0.01    +0.066 A 
DOCKED: ATOM     16  C   UNL d   1      -4.437  10.336 -15.497 -0.14 +0.01    -0.021 A 
DOCKED: ATOM     17  C   UNL d   1      -4.709  10.556 -14.163 -0.26 -0.00    +0.000 A 
DOCKED: ATOM     18  C   UNL d   1      -5.711   9.659 -13.798 -0.17 -0.01    +0.070 A 
DOCKED: ATOM     19  C   UNL d   1      -3.398  11.061 -16.309 -0.18 -0.03    +0.052 C 
DOCKED: ATOM     20  C   UNL d   1      -7.318   8.690 -12.145 -0.13 -0.00    +0.066 A 
DOCKED: ATOM     21  C   UNL d   1      -7.721   8.452 -10.823 -0.15 -0.00    -0.025 A 
DOCKED: ATOM     22  C   UNL d   1      -8.797   7.593 -10.906 -0.10 -0.00    -0.021 A 
DOCKED: ATOM     23  C   UNL d   1      -9.004   7.338 -12.267 -0.08 +0.01    +0.066 A 
DOCKED: ATOM     24  C   UNL d   1      -7.128   8.995  -9.544 -0.30 +0.00    +0.051 C 
DOCKED: ATOM     25  N   UNL d   1      -9.220   6.422 -15.137 -0.12 -0.02    -0.248 N 
DOCKED: ATOM     26  N   UNL d   1      -7.264   7.360 -16.993 -0.13 +0.04    -0.248 N 
DOCKED: ATOM     27  N   UNL d   1      -6.092   8.925 -14.886 -0.07 +0.03    -0.248 N 
DOCKED: ATOM     28  N   UNL d   1      -8.070   7.974 -13.015 -0.03 -0.01    -0.248 N 
DOCKED: ATOM     29 FE   UNL d   1      -7.666   7.668 -15.002 -0.04 -0.00    +0.000 Fe
DOCKED: ENDROOT
DOCKED: BRANCH   6  30
DOCKED: ATOM     30  C   UNL d   1     -12.329   4.864 -13.933 -0.11 +0.02    +0.052 C 
DOCKED: BRANCH  30  31
DOCKED: ATOM     31  C   UNL d   1     -12.056   3.485 -13.342 -0.15 +0.06    +0.115 C 
DOCKED: BRANCH  31  32
DOCKED: ATOM     32  C   UNL d   1     -12.644   2.413 -14.217 -0.07 +0.16    +0.139 C 
DOCKED: ATOM     33  O   UNL d   1     -12.394   1.233 -14.010 -0.47 -1.00    -0.650 OA
DOCKED: BRANCH  32  34
DOCKED: ATOM     34  O   UNL d   1     -13.452   2.743 -15.238 -0.14 -1.24    -0.776 OA
DOCKED: ATOM     35  H   UNL d   1     -14.229   3.292 -15.063 +0.01 +0.14    +0.167 HD
DOCKED: ENDBRANCH  32  34
DOCKED: ENDBRANCH  31  32
DOCKED: ENDBRANCH  30  31
DOCKED: ENDBRANCH   6  30
DOCKED: BRANCH  22  36
DOCKED: ATOM     36  C   UNL d   1      -9.552   7.014  -9.738 -0.10 +0.02    +0.052 C 
DOCKED: BRANCH  36  37
DOCKED: ATOM     37  C   UNL d   1      -8.844   5.763  -9.240 -0.18 +0.05    +0.115 C 
DOCKED: BRANCH  37  38
DOCKED: ATOM     38  C   UNL d   1      -9.611   5.121  -8.118 -0.12 +0.15    +0.139 C 
DOCKED: ATOM     39  O   UNL d   1     -10.155   4.037  -8.273 -0.11 -0.91    -0.650 OA
DOCKED: BRANCH  38  40
DOCKED: ATOM     40  O   UNL d   1      -9.707   5.742  -6.929 -0.52 -1.22    -0.776 OA
DOCKED: ATOM     41  H   UNL d   1      -9.274   6.599  -6.810 +0.04 +0.14    +0.167 HD
DOCKED: ENDBRANCH  38  40
DOCKED: ENDBRANCH  37  38
DOCKED: ENDBRANCH  36  37
DOCKED: ENDBRANCH  22  36
DOCKED: BRANCH  12  42
DOCKED: ATOM     42  C   UNL d   1      -5.127   7.461 -20.057 -0.16 -0.00    +0.004 C 
DOCKED: ATOM     43  C   UNL d   1      -3.853   7.082 -19.889 -0.19 -0.00    +0.012 C 
DOCKED: ENDBRANCH  12  42
DOCKED: BRANCH  17  44
DOCKED: ATOM     44  C   UNL d   1      -4.068  11.573 -13.299 -0.44 -0.00    +0.004 C 
DOCKED: ATOM     45  C   UNL d   1      -4.805  12.450 -12.611 -0.42 -0.00    +0.012 C 
DOCKED: ENDBRANCH  17  44
DOCKED: TORSDOF 10
DOCKED: TER
DOCKED: ENDMDL
________________________________________________________________________________


	BEGINNING GENETIC ALGORITHM DOCKING 33 of 100
Run: 33 Seed: 1214033834 1023497776 [ Run 33 of 100 GA/GALS ]
Beginning LAMARCKIAN GENETIC ALGORITHM (LGA), with a maximum of 25000000 energy evaluations.

Final-Value: -15.036


	FINAL GENETIC ALGORITHM DOCKED STATE
	_______________________________________________


Detailed state:  trans -5.613 3.517 -6.468 quatxyzw 0.928560 -0.133616 0.039901 -0.343994 center -0.174 -0.001 -0.047 ntor 10 -137.0802 37.6445 63.4303 -152.6607 7.5889 -179.9547 79.6378 5.1195 2.6663 152.6942
State:	 -5.613   3.517  -6.468   0.989 -0.142  0.042 -139.759   -137.08   37.64   63.43 -152.66    7.59 -179.95   79.64    5.12    2.67  152.69

DOCKED: MODEL       33
DOCKED: USER    Run = 33
DOCKED: USER    DPF = D:/Protein_go_brrr/autodock/final/mut_K82N/heme_Fe/dock.dpf
DOCKED: USER  
DOCKED: USER    Estimated Free Energy of Binding    =  -11.54 kcal/mol  [=(1)+(2)+(3)-(4)]
DOCKED: USER    Estimated Inhibition Constant, Ki   =    3.48 nM (nanomolar)  [Temperature = 298.15 K]
DOCKED: USER    
DOCKED: USER    (1) Final Intermolecular Energy     =  -14.52 kcal/mol
DOCKED: USER        vdW + Hbond + desolv Energy     =  -11.94 kcal/mol
DOCKED: USER        Electrostatic Energy            =   -2.58 kcal/mol
DOCKED: USER    (2) Final Total Internal Energy     =   -0.51 kcal/mol
DOCKED: USER    (3) Torsional Free Energy           =   +2.98 kcal/mol
DOCKED: USER    (4) Unbound System's Energy  [=(2)] =   -0.51 kcal/mol
DOCKED: USER    
DOCKED: USER    
DOCKED: USER    NEWDPF move heme_Fe_opt.pdbqt
DOCKED: USER    NEWDPF about -0.174000 -0.001000 -0.047000
DOCKED: USER    NEWDPF tran0 -5.612643 3.517333 -6.468398
DOCKED: USER    NEWDPF quaternion0 0.928560 -0.133616 0.039901 -0.343994
DOCKED: USER    NEWDPF axisangle0 0.988911 -0.142300 0.042494 -139.759241
DOCKED: USER    NEWDPF quat0 0.988911 -0.142300 0.042494 -139.759241
DOCKED: USER    NEWDPF dihe0 -137.08 37.64 63.43 -152.66 7.59 -179.95 79.64 5.12 2.67 152.69 
DOCKED: USER  keepresnum = 1 
DOCKED: USER  
DOCKED: REMARK  10 active torsions:
DOCKED: REMARK  status: ('A' for Active; 'I' for Inactive)
DOCKED: REMARK    1  A    between atoms: C_6  and  C_10 
DOCKED: REMARK    2  A    between atoms: C_10  and  C_11 
DOCKED: REMARK    3  A    between atoms: C_11  and  C_12 
DOCKED: REMARK    4  A    between atoms: C_12  and  O_14 
DOCKED: REMARK    5  A    between atoms: C_17  and  C_20 
DOCKED: REMARK    6  A    between atoms: C_24  and  C_27 
DOCKED: REMARK    7  A    between atoms: C_31  and  C_34 
DOCKED: REMARK    8  A    between atoms: C_34  and  C_35 
DOCKED: REMARK    9  A    between atoms: C_35  and  C_36 
DOCKED: REMARK   10  A    between atoms: C_36  and  O_38 
DOCKED: USER                              x       y       z     vdW  Elec       q    Type
DOCKED: USER                           _______ _______ _______ _____ _____    ______ ____
DOCKED: ROOT
DOCKED: ATOM      1  C   UNL d   1      -7.510   3.652  -7.239 -0.33 +0.03    +0.064 C 
DOCKED: ATOM      2  C   UNL d   1      -3.080   5.391  -8.574 -0.45 +0.00    +0.064 A 
DOCKED: ATOM      3  C   UNL d   1      -1.025   2.305  -5.521 -0.40 +0.00    +0.064 C 
DOCKED: ATOM      4  C   UNL d   1      -5.307   0.681  -4.137 -0.48 +0.00    +0.064 C 
DOCKED: ATOM      5  C   UNL d   1      -6.458   4.486  -7.836 -0.01 +0.02    +0.066 A 
DOCKED: ATOM      6  C   UNL d   1      -6.684   5.558  -8.684 -0.21 -0.00    -0.021 A 
DOCKED: ATOM      7  C   UNL d   1      -5.453   6.038  -9.057 -0.33 -0.00    -0.025 A 
DOCKED: ATOM      8  C   UNL d   1      -4.522   5.240  -8.422 -0.38 +0.01    +0.066 A 
DOCKED: ATOM      9  C   UNL d   1      -5.198   7.208  -9.957 -0.42 -0.00    +0.051 C 
DOCKED: ATOM     10  C   UNL d   1      -2.160   4.672  -7.928 -0.41 +0.01    +0.066 A 
DOCKED: ATOM     11  C   UNL d   1      -0.789   4.763  -8.180 -0.49 -0.00    -0.021 A 
DOCKED: ATOM     12  C   UNL d   1      -0.175   3.871  -7.324 -0.50 +0.00    +0.000 A 
DOCKED: ATOM     13  C   UNL d   1      -1.215   3.270  -6.593 -0.38 +0.00    +0.070 A 
DOCKED: ATOM     14  C   UNL d   1      -0.102   5.609  -9.233 -0.43 +0.00    +0.052 C 
DOCKED: ATOM     15  C   UNL d   1      -2.024   1.686  -4.849 -0.39 +0.00    +0.066 A 
DOCKED: ATOM     16  C   UNL d   1      -1.803   0.846  -3.765 -0.38 +0.00    -0.021 A 
DOCKED: ATOM     17  C   UNL d   1      -3.036   0.374  -3.366 -0.38 -0.00    +0.000 A 
DOCKED: ATOM     18  C   UNL d   1      -3.982   0.934  -4.222 -0.37 +0.00    +0.070 A 
DOCKED: ATOM     19  C   UNL d   1      -0.483   0.480  -3.141 -0.21 -0.00    +0.052 C 
DOCKED: ATOM     20  C   UNL d   1      -6.338   1.299  -4.980 -0.39 +0.01    +0.066 A 
DOCKED: ATOM     21  C   UNL d   1      -7.681   0.901  -5.040 -0.13 -0.01    -0.025 A 
DOCKED: ATOM     22  C   UNL d   1      -8.293   1.769  -5.920 -0.27 -0.01    -0.021 A 
DOCKED: ATOM     23  C   UNL d   1      -7.303   2.654  -6.365 -0.35 +0.03    +0.066 A 
DOCKED: ATOM     24  C   UNL d   1      -8.361  -0.237  -4.314 +0.44 +0.01    +0.051 C 
DOCKED: ATOM     25  N   UNL d   1      -5.136   4.302  -7.673 -0.04 -0.07    -0.248 N 
DOCKED: ATOM     26  N   UNL d   1      -2.425   3.752  -6.967 -0.21 -0.04    -0.248 N 
DOCKED: ATOM     27  N   UNL d   1      -3.366   1.775  -5.106 -0.25 -0.01    -0.248 N 
DOCKED: ATOM     28  N   UNL d   1      -6.103   2.334  -5.822 -0.24 -0.06    -0.248 N 
DOCKED: ATOM     29 FE   UNL d   1      -4.265   3.041  -6.393 -0.09 +0.00    +0.000 Fe
DOCKED: ENDROOT
DOCKED: BRANCH   6  30
DOCKED: ATOM     30  C   UNL d   1      -8.002   6.113  -9.103 -0.23 +0.01    +0.052 C 
DOCKED: BRANCH  30  31
DOCKED: ATOM     31  C   UNL d   1      -8.439   7.233  -8.164 -0.14 +0.04    +0.115 C 
DOCKED: BRANCH  31  32
DOCKED: ATOM     32  C   UNL d   1      -9.447   6.724  -7.171 -0.12 +0.11    +0.139 C 
DOCKED: ATOM     33  O   UNL d   1      -9.705   5.530  -7.101 -0.49 -1.09    -0.650 OA
DOCKED: BRANCH  32  34
DOCKED: ATOM     34  O   UNL d   1     -10.076   7.580  -6.349 -0.31 -0.58    -0.776 OA
DOCKED: ATOM     35  H   UNL d   1     -10.402   8.419  -6.704 +0.05 +0.08    +0.167 HD
DOCKED: ENDBRANCH  32  34
DOCKED: ENDBRANCH  31  32
DOCKED: ENDBRANCH  30  31
DOCKED: ENDBRANCH   6  30
DOCKED: BRANCH  22  36
DOCKED: ATOM     36  C   UNL d   1      -9.737   1.718  -6.345 +0.67 +0.06    +0.052 C 
DOCKED: BRANCH  36  37
DOCKED: ATOM     37  C   UNL d   1      -9.828   1.289  -7.802 +0.06 +0.08    +0.115 C 
DOCKED: BRANCH  37  38
DOCKED: ATOM     38  C   UNL d   1     -11.249   1.329  -8.287 -0.14 +0.11    +0.139 C 
DOCKED: ATOM     39  O   UNL d   1     -11.527   1.018  -9.436 +0.09 -0.30    -0.650 OA
DOCKED: BRANCH  38  40
DOCKED: ATOM     40  O   UNL d   1     -12.232   1.714  -7.454 -0.54 -1.17    -0.776 OA
DOCKED: ATOM     41  H   UNL d   1     -13.091   1.271  -7.504 +0.02 +0.14    +0.167 HD
DOCKED: ENDBRANCH  38  40
DOCKED: ENDBRANCH  37  38
DOCKED: ENDBRANCH  36  37
DOCKED: ENDBRANCH  22  36
DOCKED: BRANCH  12  42
DOCKED: ATOM     42  C   UNL d   1       1.299   3.626  -7.255 -0.63 +0.00    +0.004 C 
DOCKED: ATOM     43  C   UNL d   1       2.011   4.003  -6.185 -0.47 -0.00    +0.012 C 
DOCKED: ENDBRANCH  12  42
DOCKED: BRANCH  17  44
DOCKED: ATOM     44  C   UNL d   1      -3.294  -0.538  -2.229 -0.59 -0.00    +0.004 C 
DOCKED: ATOM     45  C   UNL d   1      -3.467  -1.849  -2.428 -0.69 -0.00    +0.012 C 
DOCKED: ENDBRANCH  17  44
DOCKED: TORSDOF 10
DOCKED: TER
DOCKED: ENDMDL
________________________________________________________________________________


	BEGINNING GENETIC ALGORITHM DOCKING 34 of 100
Run: 34 Seed: 1043026280 772777712 [ Run 34 of 100 GA/GALS ]
Beginning LAMARCKIAN GENETIC ALGORITHM (LGA), with a maximum of 25000000 energy evaluations.

Final-Value: -11.129


	FINAL GENETIC ALGORITHM DOCKED STATE
	_______________________________________________


Detailed state:  trans -13.324 0.363 -6.770 quatxyzw -0.714433 -0.035759 -0.576728 -0.394578 center -0.174 -0.001 -0.047 ntor 10 153.0417 -162.5404 -126.2145 42.7095 89.8793 103.6196 -172.8312 22.9157 178.8306 -37.7201
State:	-13.324   0.363  -6.770  -0.778 -0.039 -0.628 -133.521    153.04 -162.54 -126.21   42.71   89.88  103.62 -172.83   22.92  178.83  -37.72

DOCKED: MODEL       34
DOCKED: USER    Run = 34
DOCKED: USER    DPF = D:/Protein_go_brrr/autodock/final/mut_K82N/heme_Fe/dock.dpf
DOCKED: USER  
DOCKED: USER    Estimated Free Energy of Binding    =   -7.58 kcal/mol  [=(1)+(2)+(3)-(4)]
DOCKED: USER    Estimated Inhibition Constant, Ki   =    2.79 uM (micromolar)  [Temperature = 298.15 K]
DOCKED: USER    
DOCKED: USER    (1) Final Intermolecular Energy     =  -10.56 kcal/mol
DOCKED: USER        vdW + Hbond + desolv Energy     =   -6.83 kcal/mol
DOCKED: USER        Electrostatic Energy            =   -3.73 kcal/mol
DOCKED: USER    (2) Final Total Internal Energy     =   -0.57 kcal/mol
DOCKED: USER    (3) Torsional Free Energy           =   +2.98 kcal/mol
DOCKED: USER    (4) Unbound System's Energy  [=(2)] =   -0.57 kcal/mol
DOCKED: USER    
DOCKED: USER    
DOCKED: USER    NEWDPF move heme_Fe_opt.pdbqt
DOCKED: USER    NEWDPF about -0.174000 -0.001000 -0.047000
DOCKED: USER    NEWDPF tran0 -13.323715 0.362553 -6.770187
DOCKED: USER    NEWDPF quaternion0 -0.714433 -0.035759 -0.576728 -0.394578
DOCKED: USER    NEWDPF axisangle0 -0.777519 -0.038916 -0.627654 -133.520624
DOCKED: USER    NEWDPF quat0 -0.777519 -0.038916 -0.627654 -133.520624
DOCKED: USER    NEWDPF dihe0 153.04 -162.54 -126.21 42.71 89.88 103.62 -172.83 22.92 178.83 -37.72 
DOCKED: USER  keepresnum = 1 
DOCKED: USER  
DOCKED: REMARK  10 active torsions:
DOCKED: REMARK  status: ('A' for Active; 'I' for Inactive)
DOCKED: REMARK    1  A    between atoms: C_6  and  C_10 
DOCKED: REMARK    2  A    between atoms: C_10  and  C_11 
DOCKED: REMARK    3  A    between atoms: C_11  and  C_12 
DOCKED: REMARK    4  A    between atoms: C_12  and  O_14 
DOCKED: REMARK    5  A    between atoms: C_17  and  C_20 
DOCKED: REMARK    6  A    between atoms: C_24  and  C_27 
DOCKED: REMARK    7  A    between atoms: C_31  and  C_34 
DOCKED: REMARK    8  A    between atoms: C_34  and  C_35 
DOCKED: REMARK    9  A    between atoms: C_35  and  C_36 
DOCKED: REMARK   10  A    between atoms: C_36  and  O_38 
DOCKED: USER                              x       y       z     vdW  Elec       q    Type
DOCKED: USER                           _______ _______ _______ _____ _____    ______ ____
DOCKED: ROOT
DOCKED: ATOM      1  C   UNL d   1     -13.588   1.525  -8.440 -0.08 +0.04    +0.064 C 
DOCKED: ATOM      2  C   UNL d   1     -14.213   2.214  -3.586 -0.09 +0.03    +0.064 A 
DOCKED: ATOM      3  C   UNL d   1     -11.622  -1.746  -2.761 -0.18 -0.01    +0.064 C 
DOCKED: ATOM      4  C   UNL d   1     -11.094  -2.489  -7.457 -0.22 +0.01    +0.064 C 
DOCKED: ATOM      5  C   UNL d   1     -14.075   2.040  -7.153 -0.06 +0.06    +0.066 A 
DOCKED: ATOM      6  C   UNL d   1     -14.943   3.109  -7.005 -0.06 -0.01    -0.021 A 
DOCKED: ATOM      7  C   UNL d   1     -15.113   3.302  -5.657 -0.07 -0.02    -0.025 A 
DOCKED: ATOM      8  C   UNL d   1     -14.341   2.341  -5.032 -0.06 +0.05    +0.066 A 
DOCKED: ATOM      9  C   UNL d   1     -15.984   4.338  -5.016 -0.04 +0.02    +0.051 C 
DOCKED: ATOM     10  C   UNL d   1     -13.521   1.262  -2.957 -0.10 +0.02    +0.066 A 
DOCKED: ATOM     11  C   UNL d   1     -13.322   1.232  -1.575 -0.12 -0.00    -0.021 A 
DOCKED: ATOM     12  C   UNL d   1     -12.564   0.109  -1.313 -0.16 -0.00    +0.000 A 
DOCKED: ATOM     13  C   UNL d   1     -12.329  -0.490  -2.563 -0.12 +0.00    +0.070 A 
DOCKED: ATOM     14  C   UNL d   1     -13.775   2.262  -0.559 -0.13 +0.01    +0.052 C 
DOCKED: ATOM     15  C   UNL d   1     -11.349  -2.300  -3.966 -0.15 -0.01    +0.066 A 
DOCKED: ATOM     16  C   UNL d   1     -10.759  -3.549  -4.110 -0.21 +0.00    -0.021 A 
DOCKED: ATOM     17  C   UNL d   1     -10.603  -3.764  -5.464 -0.18 -0.00    +0.000 A 
DOCKED: ATOM     18  C   UNL d   1     -11.098  -2.637  -6.115 -0.13 +0.00    +0.070 A 
DOCKED: ATOM     19  C   UNL d   1     -10.334  -4.496  -3.019 -0.32 -0.03    +0.052 C 
DOCKED: ATOM     20  C   UNL d   1     -11.663  -1.345  -8.180 -0.22 +0.01    +0.066 A 
DOCKED: ATOM     21  C   UNL d   1     -11.490  -1.083  -9.547 -0.29 -0.01    -0.025 A 
DOCKED: ATOM     22  C   UNL d   1     -12.219   0.058  -9.808 -0.16 -0.01    -0.021 A 
DOCKED: ATOM     23  C   UNL d   1     -12.800   0.450  -8.595 -0.11 +0.03    +0.066 A 
DOCKED: ATOM     24  C   UNL d   1     -10.679  -1.857 -10.560 -0.30 +0.00    +0.051 C 
DOCKED: ATOM     25  N   UNL d   1     -13.718   1.569  -5.945 -0.07 -0.23    -0.248 N 
DOCKED: ATOM     26  N   UNL d   1     -12.905   0.216  -3.566 -0.07 -0.08    -0.248 N 
DOCKED: ATOM     27  N   UNL d   1     -11.597  -1.755  -5.197 -0.10 -0.03    -0.248 N 
DOCKED: ATOM     28  N   UNL d   1     -12.421  -0.385  -7.597 -0.08 -0.09    -0.248 N 
DOCKED: ATOM     29 FE   UNL d   1     -12.662  -0.085  -5.583 -0.02 +0.00    +0.000 Fe
DOCKED: ENDROOT
DOCKED: BRANCH   6  30
DOCKED: ATOM     30  C   UNL d   1     -15.597   3.895  -8.090 -0.02 +0.02    +0.052 C 
DOCKED: BRANCH  30  31
DOCKED: ATOM     31  C   UNL d   1     -14.751   5.108  -8.463 -0.02 +0.06    +0.115 C 
DOCKED: BRANCH  31  32
DOCKED: ATOM     32  C   UNL d   1     -13.425   5.062  -7.755 +0.03 +0.16    +0.139 C 
DOCKED: ATOM     33  O   UNL d   1     -12.465   4.504  -8.267 +0.05 -0.92    -0.650 OA
DOCKED: BRANCH  32  34
DOCKED: ATOM     34  O   UNL d   1     -13.284   5.637  -6.549 -0.30 -1.33    -0.776 OA
DOCKED: ATOM     35  H   UNL d   1     -13.857   6.380  -6.313 +0.01 +0.15    +0.167 HD
DOCKED: ENDBRANCH  32  34
DOCKED: ENDBRANCH  31  32
DOCKED: ENDBRANCH  30  31
DOCKED: ENDBRANCH   6  30
DOCKED: BRANCH  22  36
DOCKED: ATOM     36  C   UNL d   1     -12.311   0.759 -11.138 -0.14 +0.02    +0.052 C 
DOCKED: BRANCH  36  37
DOCKED: ATOM     37  C   UNL d   1     -12.877  -0.193 -12.181 -0.17 +0.05    +0.115 C 
DOCKED: BRANCH  37  38
DOCKED: ATOM     38  C   UNL d   1     -12.499   0.243 -13.569 -0.11 +0.15    +0.139 C 
DOCKED: ATOM     39  O   UNL d   1     -11.615  -0.332 -14.186 -0.45 -0.79    -0.650 OA
DOCKED: BRANCH  38  40
DOCKED: ATOM     40  O   UNL d   1     -13.136   1.279 -14.143 -0.35 -1.20    -0.776 OA
DOCKED: ATOM     41  H   UNL d   1     -13.643   1.886 -13.586 +0.02 +0.14    +0.167 HD
DOCKED: ENDBRANCH  38  40
DOCKED: ENDBRANCH  37  38
DOCKED: ENDBRANCH  36  37
DOCKED: ENDBRANCH  22  36
DOCKED: BRANCH  12  42
DOCKED: ATOM     42  C   UNL d   1     -12.101  -0.314   0.045 -0.25 -0.00    +0.004 C 
DOCKED: ATOM     43  C   UNL d   1     -11.054   0.279   0.633 -0.36 -0.00    +0.012 C 
DOCKED: ENDBRANCH  12  42
DOCKED: BRANCH  17  44
DOCKED: ATOM     44  C   UNL d   1     -10.035  -4.978  -6.093 -0.43 -0.00    +0.004 C 
DOCKED: ATOM     45  C   UNL d   1     -10.833  -5.950  -6.549 -0.43 -0.00    +0.012 C 
DOCKED: ENDBRANCH  17  44
DOCKED: TORSDOF 10
DOCKED: TER
DOCKED: ENDMDL
________________________________________________________________________________


	BEGINNING GENETIC ALGORITHM DOCKING 35 of 100
Run: 35 Seed: 1026714791 341838945 [ Run 35 of 100 GA/GALS ]
Beginning LAMARCKIAN GENETIC ALGORITHM (LGA), with a maximum of 25000000 energy evaluations.

Final-Value: -9.761


	FINAL GENETIC ALGORITHM DOCKED STATE
	_______________________________________________


Detailed state:  trans 11.060 3.575 13.881 quatxyzw -0.119534 0.573981 0.190409 -0.787402 center -0.174 -0.001 -0.047 ntor 10 -93.5550 87.0859 33.3573 0.9662 55.1117 -72.2015 -23.8597 47.0830 170.6874 172.6077
State:	 11.060   3.575  13.881  -0.194  0.931  0.309 -76.113    -93.55   87.09   33.36    0.97   55.11  -72.20  -23.86   47.08  170.69  172.61

DOCKED: MODEL       35
DOCKED: USER    Run = 35
DOCKED: USER    DPF = D:/Protein_go_brrr/autodock/final/mut_K82N/heme_Fe/dock.dpf
DOCKED: USER  
DOCKED: USER    Estimated Free Energy of Binding    =   -5.29 kcal/mol  [=(1)+(2)+(3)-(4)]
DOCKED: USER    Estimated Inhibition Constant, Ki   =  132.08 uM (micromolar)  [Temperature = 298.15 K]
DOCKED: USER    
DOCKED: USER    (1) Final Intermolecular Energy     =   -8.28 kcal/mol
DOCKED: USER        vdW + Hbond + desolv Energy     =   -7.82 kcal/mol
DOCKED: USER        Electrostatic Energy            =   -0.45 kcal/mol
DOCKED: USER    (2) Final Total Internal Energy     =   -1.49 kcal/mol
DOCKED: USER    (3) Torsional Free Energy           =   +2.98 kcal/mol
DOCKED: USER    (4) Unbound System's Energy  [=(2)] =   -1.49 kcal/mol
DOCKED: USER    
DOCKED: USER    
DOCKED: USER    NEWDPF move heme_Fe_opt.pdbqt
DOCKED: USER    NEWDPF about -0.174000 -0.001000 -0.047000
DOCKED: USER    NEWDPF tran0 11.060299 3.574581 13.880592
DOCKED: USER    NEWDPF quaternion0 -0.119534 0.573981 0.190409 -0.787402
DOCKED: USER    NEWDPF axisangle0 -0.193910 0.931122 0.308885 -76.113219
DOCKED: USER    NEWDPF quat0 -0.193910 0.931122 0.308885 -76.113219
DOCKED: USER    NEWDPF dihe0 -93.55 87.09 33.36 0.97 55.11 -72.20 -23.86 47.08 170.69 172.61 
DOCKED: USER  keepresnum = 1 
DOCKED: USER  
DOCKED: REMARK  10 active torsions:
DOCKED: REMARK  status: ('A' for Active; 'I' for Inactive)
DOCKED: REMARK    1  A    between atoms: C_6  and  C_10 
DOCKED: REMARK    2  A    between atoms: C_10  and  C_11 
DOCKED: REMARK    3  A    between atoms: C_11  and  C_12 
DOCKED: REMARK    4  A    between atoms: C_12  and  O_14 
DOCKED: REMARK    5  A    between atoms: C_17  and  C_20 
DOCKED: REMARK    6  A    between atoms: C_24  and  C_27 
DOCKED: REMARK    7  A    between atoms: C_31  and  C_34 
DOCKED: REMARK    8  A    between atoms: C_34  and  C_35 
DOCKED: REMARK    9  A    between atoms: C_35  and  C_36 
DOCKED: REMARK   10  A    between atoms: C_36  and  O_38 
DOCKED: USER                              x       y       z     vdW  Elec       q    Type
DOCKED: USER                           _______ _______ _______ _____ _____    ______ ____
DOCKED: ROOT
DOCKED: ATOM      1  C   UNL d   1      11.011   3.416  15.926 -0.26 -0.01    +0.064 C 
DOCKED: ATOM      2  C   UNL d   1      13.278   0.942  12.297 -0.17 -0.01    +0.064 A 
DOCKED: ATOM      3  C   UNL d   1      12.253   4.546   9.293 -0.18 -0.00    +0.064 C 
DOCKED: ATOM      4  C   UNL d   1       9.962   6.909  12.764 -0.26 +0.00    +0.064 C 
DOCKED: ATOM      5  C   UNL d   1      11.671   2.348  15.163 -0.24 -0.01    +0.066 A 
DOCKED: ATOM      6  C   UNL d   1      12.017   1.108  15.675 -0.29 +0.00    -0.021 A 
DOCKED: ATOM      7  C   UNL d   1      12.650   0.423  14.668 -0.26 +0.01    -0.025 A 
DOCKED: ATOM      8  C   UNL d   1      12.666   1.272  13.578 -0.19 -0.01    +0.066 A 
DOCKED: ATOM      9  C   UNL d   1      13.187  -0.973  14.751 -0.37 -0.01    +0.051 C 
DOCKED: ATOM     10  C   UNL d   1      13.258   1.719  11.213 -0.16 -0.01    +0.066 A 
DOCKED: ATOM     11  C   UNL d   1      13.951   1.427  10.036 -0.14 +0.00    -0.021 A 
DOCKED: ATOM     12  C   UNL d   1      13.685   2.459   9.159 -0.13 -0.00    +0.000 A 
DOCKED: ATOM     13  C   UNL d   1      12.842   3.342   9.857 -0.12 -0.00    +0.070 A 
DOCKED: ATOM     14  C   UNL d   1      14.877   0.255   9.783 -0.06 -0.00    +0.052 C 
DOCKED: ATOM     15  C   UNL d   1      11.482   5.426   9.976 -0.20 -0.00    +0.066 A 
DOCKED: ATOM     16  C   UNL d   1      10.857   6.511   9.376 -0.24 -0.00    -0.021 A 
DOCKED: ATOM     17  C   UNL d   1      10.198   7.196  10.376 -0.30 +0.00    +0.000 A 
DOCKED: ATOM     18  C   UNL d   1      10.442   6.514  11.565 -0.27 -0.00    +0.070 A 
DOCKED: ATOM     19  C   UNL d   1      10.895   6.906   7.924 -0.11 +0.01    +0.052 C 
DOCKED: ATOM     20  C   UNL d   1      10.146   6.183  14.027 -0.25 -0.01    +0.066 A 
DOCKED: ATOM     21  C   UNL d   1       9.830   6.678  15.300 -0.28 +0.00    -0.025 A 
DOCKED: ATOM     22  C   UNL d   1      10.125   5.662  16.184 -0.23 +0.00    -0.021 A 
DOCKED: ATOM     23  C   UNL d   1      10.613   4.594  15.421 -0.23 -0.01    +0.066 A 
DOCKED: ATOM     24  C   UNL d   1       9.283   8.036  15.675 -0.26 -0.00    +0.051 C 
DOCKED: ATOM     25  N   UNL d   1      12.062   2.438  13.880 -0.10 +0.03    -0.248 N 
DOCKED: ATOM     26  N   UNL d   1      12.588   2.896  11.112 -0.08 +0.02    -0.248 N 
DOCKED: ATOM     27  N   UNL d   1      11.195   5.401  11.314 -0.14 +0.01    -0.248 N 
DOCKED: ATOM     28  N   UNL d   1      10.665   4.934  14.110 -0.17 +0.04    -0.248 N 
DOCKED: ATOM     29 FE   UNL d   1      11.626   3.917  12.611 -0.05 -0.00    +0.000 Fe
DOCKED: ENDROOT
DOCKED: BRANCH   6  30
DOCKED: ATOM     30  C   UNL d   1      11.741   0.589  17.045 -0.37 -0.01    +0.052 C 
DOCKED: BRANCH  30  31
DOCKED: ATOM     31  C   UNL d   1      12.979   0.711  17.927 -0.20 -0.00    +0.115 C 
DOCKED: BRANCH  31  32
DOCKED: ATOM     32  C   UNL d   1      12.588   0.753  19.379 -0.22 +0.02    +0.139 C 
DOCKED: ATOM     33  O   UNL d   1      11.901  -0.133  19.865 -0.01 -0.09    -0.650 OA
DOCKED: BRANCH  32  34
DOCKED: ATOM     34  O   UNL d   1      12.993   1.771  20.157 -0.01 -0.18    -0.776 OA
DOCKED: ATOM     35  H   UNL d   1      12.462   2.579  20.187 +0.03 +0.05    +0.167 HD
DOCKED: ENDBRANCH  32  34
DOCKED: ENDBRANCH  31  32
DOCKED: ENDBRANCH  30  31
DOCKED: ENDBRANCH   6  30
DOCKED: BRANCH  22  36
DOCKED: ATOM     36  C   UNL d   1       9.991   5.733  17.683 -0.13 +0.00    +0.052 C 
DOCKED: BRANCH  36  37
DOCKED: ATOM     37  C   UNL d   1      11.294   6.228  18.292 -0.08 +0.01    +0.115 C 
DOCKED: BRANCH  37  38
DOCKED: ATOM     38  C   UNL d   1      11.694   5.384  19.468 -0.12 +0.02    +0.139 C 
DOCKED: ATOM     39  O   UNL d   1      11.086   5.455  20.525 -0.03 -0.20    -0.650 OA
DOCKED: BRANCH  38  40
DOCKED: ATOM     40  O   UNL d   1      12.736   4.539  19.364 +0.03 -0.13    -0.776 OA
DOCKED: ATOM     41  H   UNL d   1      12.572   3.619  19.111 +0.03 +0.03    +0.167 HD
DOCKED: ENDBRANCH  38  40
DOCKED: ENDBRANCH  37  38
DOCKED: ENDBRANCH  36  37
DOCKED: ENDBRANCH  22  36
DOCKED: BRANCH  12  42
DOCKED: ATOM     42  C   UNL d   1      14.233   2.567   7.772 -0.11 +0.00    +0.004 C 
DOCKED: ATOM     43  C   UNL d   1      13.673   1.896   6.756 -0.16 +0.00    +0.012 C 
DOCKED: ENDBRANCH  12  42
DOCKED: BRANCH  17  44
DOCKED: ATOM     44  C   UNL d   1       9.373   8.413  10.201 -0.34 +0.00    +0.004 C 
DOCKED: ATOM     45  C   UNL d   1       8.354   8.431   9.335 -0.42 +0.00    +0.012 C 
DOCKED: ENDBRANCH  17  44
DOCKED: TORSDOF 10
DOCKED: TER
DOCKED: ENDMDL
________________________________________________________________________________


	BEGINNING GENETIC ALGORITHM DOCKING 36 of 100
Run: 36 Seed: 1874566682 1024286026 [ Run 36 of 100 GA/GALS ]
Beginning LAMARCKIAN GENETIC ALGORITHM (LGA), with a maximum of 25000000 energy evaluations.

Final-Value: -11.133


	FINAL GENETIC ALGORITHM DOCKED STATE
	_______________________________________________


Detailed state:  trans 11.526 -11.841 1.477 quatxyzw 0.221967 0.441597 -0.411661 0.765675 center -0.174 -0.001 -0.047 ntor 10 -116.9006 -19.2304 156.6118 -129.3431 -95.0547 119.4142 165.0639 108.9810 -172.9375 178.1792
State:	 11.526 -11.841   1.477   0.345  0.687 -0.640 80.066   -116.90  -19.23  156.61 -129.34  -95.05  119.41  165.06  108.98 -172.94  178.18

DOCKED: MODEL       36
DOCKED: USER    Run = 36
DOCKED: USER    DPF = D:/Protein_go_brrr/autodock/final/mut_K82N/heme_Fe/dock.dpf
DOCKED: USER  
DOCKED: USER    Estimated Free Energy of Binding    =   -6.05 kcal/mol  [=(1)+(2)+(3)-(4)]
DOCKED: USER    Estimated Inhibition Constant, Ki   =   36.99 uM (micromolar)  [Temperature = 298.15 K]
DOCKED: USER    
DOCKED: USER    (1) Final Intermolecular Energy     =   -9.03 kcal/mol
DOCKED: USER        vdW + Hbond + desolv Energy     =   -7.73 kcal/mol
DOCKED: USER        Electrostatic Energy            =   -1.30 kcal/mol
DOCKED: USER    (2) Final Total Internal Energy     =   -2.10 kcal/mol
DOCKED: USER    (3) Torsional Free Energy           =   +2.98 kcal/mol
DOCKED: USER    (4) Unbound System's Energy  [=(2)] =   -2.10 kcal/mol
DOCKED: USER    
DOCKED: USER    
DOCKED: USER    NEWDPF move heme_Fe_opt.pdbqt
DOCKED: USER    NEWDPF about -0.174000 -0.001000 -0.047000
DOCKED: USER    NEWDPF tran0 11.526479 -11.840529 1.476752
DOCKED: USER    NEWDPF quaternion0 0.221967 0.441597 -0.411661 0.765675
DOCKED: USER    NEWDPF axisangle0 0.345083 0.686533 -0.639993 80.065849
DOCKED: USER    NEWDPF quat0 0.345083 0.686533 -0.639993 80.065849
DOCKED: USER    NEWDPF dihe0 -116.90 -19.23 156.61 -129.34 -95.05 119.41 165.06 108.98 -172.94 178.18 
DOCKED: USER  keepresnum = 1 
DOCKED: USER  
DOCKED: REMARK  10 active torsions:
DOCKED: REMARK  status: ('A' for Active; 'I' for Inactive)
DOCKED: REMARK    1  A    between atoms: C_6  and  C_10 
DOCKED: REMARK    2  A    between atoms: C_10  and  C_11 
DOCKED: REMARK    3  A    between atoms: C_11  and  C_12 
DOCKED: REMARK    4  A    between atoms: C_12  and  O_14 
DOCKED: REMARK    5  A    between atoms: C_17  and  C_20 
DOCKED: REMARK    6  A    between atoms: C_24  and  C_27 
DOCKED: REMARK    7  A    between atoms: C_31  and  C_34 
DOCKED: REMARK    8  A    between atoms: C_34  and  C_35 
DOCKED: REMARK    9  A    between atoms: C_35  and  C_36 
DOCKED: REMARK   10  A    between atoms: C_36  and  O_38 
DOCKED: USER                              x       y       z     vdW  Elec       q    Type
DOCKED: USER                           _______ _______ _______ _____ _____    ______ ____
DOCKED: ROOT
DOCKED: ATOM      1  C   UNL d   1      10.558 -13.523   0.813 -0.13 +0.01    +0.064 C 
DOCKED: ATOM      2  C   UNL d   1      13.159 -12.371   4.855 -0.08 +0.02    +0.064 A 
DOCKED: ATOM      3  C   UNL d   1      12.757  -7.725   3.705 -0.23 +0.00    +0.064 C 
DOCKED: ATOM      4  C   UNL d   1      10.329  -8.825  -0.268 -0.15 +0.00    +0.064 C 
DOCKED: ATOM      5  C   UNL d   1      11.399 -13.635   2.013 -0.11 +0.02    +0.066 A 
DOCKED: ATOM      6  C   UNL d   1      11.822 -14.829   2.574 -0.09 -0.01    -0.021 A 
DOCKED: ATOM      7  C   UNL d   1      12.541 -14.508   3.698 -0.08 -0.01    -0.025 A 
DOCKED: ATOM      8  C   UNL d   1      12.530 -13.129   3.780 -0.02 +0.03    +0.066 A 
DOCKED: ATOM      9  C   UNL d   1      13.212 -15.476   4.623 -0.06 +0.02    +0.051 C 
DOCKED: ATOM     10  C   UNL d   1      13.212 -11.040   4.927 -0.13 +0.01    +0.066 A 
DOCKED: ATOM     11  C   UNL d   1      13.721 -10.343   6.026 -0.14 -0.00    -0.021 A 
DOCKED: ATOM     12  C   UNL d   1      13.601  -9.001   5.726 -0.18 +0.00    +0.000 A 
DOCKED: ATOM     13  C   UNL d   1      13.012  -8.948   4.451 -0.18 +0.01    +0.070 A 
DOCKED: ATOM     14  C   UNL d   1      14.233 -10.927   7.327 -0.10 +0.00    +0.052 C 
DOCKED: ATOM     15  C   UNL d   1      12.143  -7.666   2.500 -0.21 +0.00    +0.066 A 
DOCKED: ATOM     16  C   UNL d   1      12.008  -6.489   1.774 -0.22 -0.00    -0.021 A 
DOCKED: ATOM     17  C   UNL d   1      11.305  -6.803   0.630 -0.26 -0.00    +0.000 A 
DOCKED: ATOM     18  C   UNL d   1      11.023  -8.166   0.686 -0.23 +0.00    +0.070 A 
DOCKED: ATOM     19  C   UNL d   1      12.497  -5.117   2.152 -0.14 -0.00    +0.052 C 
DOCKED: ATOM     20  C   UNL d   1      10.067 -10.269  -0.273 -0.18 +0.00    +0.066 A 
DOCKED: ATOM     21  C   UNL d   1       9.186 -10.929  -1.141 -0.18 -0.00    -0.025 A 
DOCKED: ATOM     22  C   UNL d   1       9.277 -12.269  -0.824 -0.12 -0.00    -0.021 A 
DOCKED: ATOM     23  C   UNL d   1      10.199 -12.372   0.224 -0.12 +0.01    +0.066 A 
DOCKED: ATOM     24  C   UNL d   1       8.299 -10.339  -2.213 -0.25 +0.01    +0.051 C 
DOCKED: ATOM     25  N   UNL d   1      11.842 -12.600   2.748 -0.09 -0.08    -0.248 N 
DOCKED: ATOM     26  N   UNL d   1      12.766 -10.190   3.967 -0.10 -0.03    -0.248 N 
DOCKED: ATOM     27  N   UNL d   1      11.575  -8.706   1.814 -0.15 -0.01    -0.248 N 
DOCKED: ATOM     28  N   UNL d   1      10.644 -11.144   0.586 -0.09 -0.03    -0.248 N 
DOCKED: ATOM     29 FE   UNL d   1      11.704 -10.666   2.275 -0.04 +0.00    +0.000 Fe
DOCKED: ENDROOT
DOCKED: BRANCH   6  30
DOCKED: ATOM     30  C   UNL d   1      11.575 -16.205   2.058 -0.07 +0.01    +0.052 C 
DOCKED: BRANCH  30  31
DOCKED: ATOM     31  C   UNL d   1      10.209 -16.713   2.507 -0.17 +0.03    +0.115 C 
DOCKED: BRANCH  31  32
DOCKED: ATOM     32  C   UNL d   1       9.667 -15.855   3.616 -0.22 +0.07    +0.139 C 
DOCKED: ATOM     33  O   UNL d   1       9.828 -16.174   4.786 -0.19 -0.62    -0.650 OA
DOCKED: BRANCH  32  34
DOCKED: ATOM     34  O   UNL d   1       8.998 -14.726   3.330 +0.10 -0.41    -0.776 OA
DOCKED: ATOM     35  H   UNL d   1       8.166 -14.784   2.840 -0.46 +0.04    +0.167 HD
DOCKED: ENDBRANCH  32  34
DOCKED: ENDBRANCH  31  32
DOCKED: ENDBRANCH  30  31
DOCKED: ENDBRANCH   6  30
DOCKED: BRANCH  22  36
DOCKED: ATOM     36  C   UNL d   1       8.483 -13.379  -1.461 -0.15 +0.01    +0.052 C 
DOCKED: BRANCH  36  37
DOCKED: ATOM     37  C   UNL d   1       7.132 -13.504  -0.773 -0.34 +0.03    +0.115 C 
DOCKED: BRANCH  37  38
DOCKED: ATOM     38  C   UNL d   1       7.281 -14.088   0.604 -0.25 +0.05    +0.139 C 
DOCKED: ATOM     39  O   UNL d   1       6.932 -13.459   1.591 -0.40 -0.23    -0.650 OA
DOCKED: BRANCH  38  40
DOCKED: ATOM     40  O   UNL d   1       7.806 -15.317   0.758 -0.39 -0.30    -0.776 OA
DOCKED: ATOM     41  H   UNL d   1       8.159 -15.572   1.622 +0.02 +0.06    +0.167 HD
DOCKED: ENDBRANCH  38  40
DOCKED: ENDBRANCH  37  38
DOCKED: ENDBRANCH  36  37
DOCKED: ENDBRANCH  22  36
DOCKED: BRANCH  12  42
DOCKED: ATOM     42  C   UNL d   1      14.014  -7.882   6.628 -0.18 +0.00    +0.004 C 
DOCKED: ATOM     43  C   UNL d   1      13.458  -6.669   6.521 -0.30 +0.00    +0.012 C 
DOCKED: ENDBRANCH  12  42
DOCKED: BRANCH  17  44
DOCKED: ATOM     44  C   UNL d   1      10.944  -5.864  -0.457 -0.27 -0.00    +0.004 C 
DOCKED: ATOM     45  C   UNL d   1       9.953  -4.981  -0.297 -0.43 -0.00    +0.012 C 
DOCKED: ENDBRANCH  17  44
DOCKED: TORSDOF 10
DOCKED: TER
DOCKED: ENDMDL
________________________________________________________________________________


	BEGINNING GENETIC ALGORITHM DOCKING 37 of 100
Run: 37 Seed: 31511598 272061759 [ Run 37 of 100 GA/GALS ]
Beginning LAMARCKIAN GENETIC ALGORITHM (LGA), with a maximum of 25000000 energy evaluations.

Final-Value: -11.272


	FINAL GENETIC ALGORITHM DOCKED STATE
	_______________________________________________


Detailed state:  trans -6.477 8.432 -11.650 quatxyzw 0.583850 0.450886 -0.540671 -0.404346 center -0.174 -0.001 -0.047 ntor 10 -160.5192 9.1251 -173.8423 16.9908 -133.7713 -82.7782 -21.5833 -41.8982 171.3341 -155.1955
State:	 -6.477   8.432 -11.650   0.638  0.493 -0.591 -132.300   -160.52    9.13 -173.84   16.99 -133.77  -82.78  -21.58  -41.90  171.33 -155.20

DOCKED: MODEL       37
DOCKED: USER    Run = 37
DOCKED: USER    DPF = D:/Protein_go_brrr/autodock/final/mut_K82N/heme_Fe/dock.dpf
DOCKED: USER  
DOCKED: USER    Estimated Free Energy of Binding    =   -7.80 kcal/mol  [=(1)+(2)+(3)-(4)]
DOCKED: USER    Estimated Inhibition Constant, Ki   =    1.92 uM (micromolar)  [Temperature = 298.15 K]
DOCKED: USER    
DOCKED: USER    (1) Final Intermolecular Energy     =  -10.78 kcal/mol
DOCKED: USER        vdW + Hbond + desolv Energy     =   -9.20 kcal/mol
DOCKED: USER        Electrostatic Energy            =   -1.58 kcal/mol
DOCKED: USER    (2) Final Total Internal Energy     =   -0.49 kcal/mol
DOCKED: USER    (3) Torsional Free Energy           =   +2.98 kcal/mol
DOCKED: USER    (4) Unbound System's Energy  [=(2)] =   -0.49 kcal/mol
DOCKED: USER    
DOCKED: USER    
DOCKED: USER    NEWDPF move heme_Fe_opt.pdbqt
DOCKED: USER    NEWDPF about -0.174000 -0.001000 -0.047000
DOCKED: USER    NEWDPF tran0 -6.477258 8.432449 -11.649777
DOCKED: USER    NEWDPF quaternion0 0.583850 0.450886 -0.540671 -0.404346
DOCKED: USER    NEWDPF axisangle0 0.638362 0.492983 -0.591152 -132.299703
DOCKED: USER    NEWDPF quat0 0.638362 0.492983 -0.591152 -132.299703
DOCKED: USER    NEWDPF dihe0 -160.52 9.13 -173.84 16.99 -133.77 -82.78 -21.58 -41.90 171.33 -155.20 
DOCKED: USER  keepresnum = 1 
DOCKED: USER  
DOCKED: REMARK  10 active torsions:
DOCKED: REMARK  status: ('A' for Active; 'I' for Inactive)
DOCKED: REMARK    1  A    between atoms: C_6  and  C_10 
DOCKED: REMARK    2  A    between atoms: C_10  and  C_11 
DOCKED: REMARK    3  A    between atoms: C_11  and  C_12 
DOCKED: REMARK    4  A    between atoms: C_12  and  O_14 
DOCKED: REMARK    5  A    between atoms: C_17  and  C_20 
DOCKED: REMARK    6  A    between atoms: C_24  and  C_27 
DOCKED: REMARK    7  A    between atoms: C_31  and  C_34 
DOCKED: REMARK    8  A    between atoms: C_34  and  C_35 
DOCKED: REMARK    9  A    between atoms: C_35  and  C_36 
DOCKED: REMARK   10  A    between atoms: C_36  and  O_38 
DOCKED: USER                              x       y       z     vdW  Elec       q    Type
DOCKED: USER                           _______ _______ _______ _____ _____    ______ ____
DOCKED: ROOT
DOCKED: ATOM      1  C   UNL d   1      -6.693   7.761  -9.723 -0.29 +0.00    +0.064 C 
DOCKED: ATOM      2  C   UNL d   1      -9.814   9.159 -13.292 -0.03 +0.00    +0.064 A 
DOCKED: ATOM      3  C   UNL d   1      -6.226   8.822 -16.466 -0.13 -0.01    +0.064 C 
DOCKED: ATOM      4  C   UNL d   1      -3.164   7.569 -13.010 -0.52 -0.01    +0.064 C 
DOCKED: ATOM      5  C   UNL d   1      -7.885   8.266 -10.419 -0.14 +0.01    +0.066 A 
DOCKED: ATOM      6  C   UNL d   1      -9.082   8.592  -9.803 -0.10 -0.00    -0.021 A 
DOCKED: ATOM      7  C   UNL d   1      -9.949   8.977 -10.795 -0.04 -0.00    -0.025 A 
DOCKED: ATOM      8  C   UNL d   1      -9.247   8.871 -11.980 -0.06 +0.01    +0.066 A 
DOCKED: ATOM      9  C   UNL d   1     -11.362   9.436 -10.604 -0.02 +0.01    +0.051 C 
DOCKED: ATOM     10  C   UNL d   1      -9.143   9.120 -14.444 -0.04 +0.00    +0.066 A 
DOCKED: ATOM     11  C   UNL d   1      -9.741   9.289 -15.695 -0.03 -0.00    -0.021 A 
DOCKED: ATOM     12  C   UNL d   1      -8.730   9.179 -16.629 -0.04 -0.00    +0.000 A 
DOCKED: ATOM     13  C   UNL d   1      -7.557   8.939 -15.892 -0.07 -0.01    +0.070 A 
DOCKED: ATOM     14  C   UNL d   1     -11.215   9.477 -15.992 -0.01 +0.00    +0.052 C 
DOCKED: ATOM     15  C   UNL d   1      -5.102   8.539 -15.767 -0.19 -0.01    +0.066 A 
DOCKED: ATOM     16  C   UNL d   1      -3.835   8.534 -16.336 -0.23 +0.01    -0.021 A 
DOCKED: ATOM     17  C   UNL d   1      -2.950   8.169 -15.342 -0.37 -0.00    +0.000 A 
DOCKED: ATOM     18  C   UNL d   1      -3.701   7.956 -14.188 -0.40 -0.02    +0.070 A 
DOCKED: ATOM     19  C   UNL d   1      -3.469   8.835 -17.765 -0.14 -0.01    +0.052 C 
DOCKED: ATOM     20  C   UNL d   1      -3.913   7.395 -11.760 -0.36 -0.01    +0.066 A 
DOCKED: ATOM     21  C   UNL d   1      -3.412   6.806 -10.591 -0.51 +0.00    -0.025 A 
DOCKED: ATOM     22  C   UNL d   1      -4.430   6.883  -9.663 -0.46 +0.00    -0.021 A 
DOCKED: ATOM     23  C   UNL d   1      -5.509   7.506 -10.302 -0.32 -0.00    +0.066 A 
DOCKED: ATOM     24  C   UNL d   1      -2.050   6.197 -10.350 -0.17 +0.00    +0.051 C 
DOCKED: ATOM     25  N   UNL d   1      -7.988   8.448 -11.747 -0.06 -0.01    -0.248 N 
DOCKED: ATOM     26  N   UNL d   1      -7.810   8.894 -14.561 -0.05 +0.01    -0.248 N 
DOCKED: ATOM     27  N   UNL d   1      -5.018   8.225 -14.437 -0.14 +0.04    -0.248 N 
DOCKED: ATOM     28  N   UNL d   1      -5.203   7.775 -11.594 -0.17 +0.04    -0.248 N 
DOCKED: ATOM     29 FE   UNL d   1      -6.504   8.334 -13.078 -0.05 -0.00    +0.000 Fe
DOCKED: ENDROOT
DOCKED: BRANCH   6  30
DOCKED: ATOM     30  C   UNL d   1      -9.382   8.561  -8.343 -0.16 +0.01    +0.052 C 
DOCKED: BRANCH  30  31
DOCKED: ATOM     31  C   UNL d   1     -10.133   7.287  -7.973 -0.14 +0.06    +0.115 C 
DOCKED: BRANCH  31  32
DOCKED: ATOM     32  C   UNL d   1      -9.980   6.993  -6.507 -0.14 +0.13    +0.139 C 
DOCKED: ATOM     33  O   UNL d   1      -9.706   5.865  -6.122 -0.43 -1.13    -0.650 OA
DOCKED: BRANCH  32  34
DOCKED: ATOM     34  O   UNL d   1     -10.145   7.973  -5.602 -0.55 -0.54    -0.776 OA
DOCKED: ATOM     35  H   UNL d   1     -10.628   8.771  -5.857 +0.06 +0.08    +0.167 HD
DOCKED: ENDBRANCH  32  34
DOCKED: ENDBRANCH  31  32
DOCKED: ENDBRANCH  30  31
DOCKED: ENDBRANCH   6  30
DOCKED: BRANCH  22  36
DOCKED: ATOM     36  C   UNL d   1      -4.383   6.342  -8.258 -0.41 +0.00    +0.052 C 
DOCKED: BRANCH  36  37
DOCKED: ATOM     37  C   UNL d   1      -4.099   4.848  -8.293 -0.34 +0.02    +0.115 C 
DOCKED: BRANCH  37  38
DOCKED: ATOM     38  C   UNL d   1      -3.098   4.465  -7.239 -0.26 +0.03    +0.139 C 
DOCKED: ATOM     39  O   UNL d   1      -1.899   4.594  -7.439 -0.04 -0.05    -0.650 OA
DOCKED: BRANCH  38  40
DOCKED: ATOM     40  O   UNL d   1      -3.520   3.972  -6.061 -0.91 -0.25    -0.776 OA
DOCKED: ATOM     41  H   UNL d   1      -2.880   3.851  -5.346 +0.10 +0.03    +0.167 HD
DOCKED: ENDBRANCH  38  40
DOCKED: ENDBRANCH  37  38
DOCKED: ENDBRANCH  36  37
DOCKED: ENDBRANCH  22  36
DOCKED: BRANCH  12  42
DOCKED: ATOM     42  C   UNL d   1      -8.916   9.284 -18.109 -0.03 -0.00    +0.004 C 
DOCKED: ATOM     43  C   UNL d   1      -8.484   8.317 -18.929 -0.05 -0.00    +0.012 C 
DOCKED: ENDBRANCH  12  42
DOCKED: BRANCH  17  44
DOCKED: ATOM     44  C   UNL d   1      -1.481   8.053 -15.482 -0.34 -0.00    +0.004 C 
DOCKED: ATOM     45  C   UNL d   1      -0.719   9.142 -15.626 -0.42 -0.00    +0.012 C 
DOCKED: ENDBRANCH  17  44
DOCKED: TORSDOF 10
DOCKED: TER
DOCKED: ENDMDL
________________________________________________________________________________


	BEGINNING GENETIC ALGORITHM DOCKING 38 of 100
Run: 38 Seed: 626136423 252915346 [ Run 38 of 100 GA/GALS ]
Beginning LAMARCKIAN GENETIC ALGORITHM (LGA), with a maximum of 25000000 energy evaluations.

Final-Value: -12.258


	FINAL GENETIC ALGORITHM DOCKED STATE
	_______________________________________________


Detailed state:  trans -9.006 7.030 -12.495 quatxyzw 0.432795 0.491862 -0.147782 -0.740892 center -0.174 -0.001 -0.047 ntor 10 -135.1792 -100.2093 -91.9713 34.3759 126.8710 79.5040 -55.2439 -31.0881 -179.6257 3.9027
State:	 -9.006   7.030 -12.495   0.644  0.732 -0.220 -84.385   -135.18 -100.21  -91.97   34.38  126.87   79.50  -55.24  -31.09 -179.63    3.90

DOCKED: MODEL       38
DOCKED: USER    Run = 38
DOCKED: USER    DPF = D:/Protein_go_brrr/autodock/final/mut_K82N/heme_Fe/dock.dpf
DOCKED: USER  
DOCKED: USER    Estimated Free Energy of Binding    =   -7.86 kcal/mol  [=(1)+(2)+(3)-(4)]
DOCKED: USER    Estimated Inhibition Constant, Ki   =    1.73 uM (micromolar)  [Temperature = 298.15 K]
DOCKED: USER    
DOCKED: USER    (1) Final Intermolecular Energy     =  -10.84 kcal/mol
DOCKED: USER        vdW + Hbond + desolv Energy     =   -7.71 kcal/mol
DOCKED: USER        Electrostatic Energy            =   -3.14 kcal/mol
DOCKED: USER    (2) Final Total Internal Energy     =   -1.42 kcal/mol
DOCKED: USER    (3) Torsional Free Energy           =   +2.98 kcal/mol
DOCKED: USER    (4) Unbound System's Energy  [=(2)] =   -1.42 kcal/mol
DOCKED: USER    
DOCKED: USER    
DOCKED: USER    NEWDPF move heme_Fe_opt.pdbqt
DOCKED: USER    NEWDPF about -0.174000 -0.001000 -0.047000
DOCKED: USER    NEWDPF tran0 -9.006314 7.029770 -12.495219
DOCKED: USER    NEWDPF quaternion0 0.432795 0.491862 -0.147782 -0.740892
DOCKED: USER    NEWDPF axisangle0 0.644401 0.732346 -0.220037 -84.385112
DOCKED: USER    NEWDPF quat0 0.644401 0.732346 -0.220037 -84.385112
DOCKED: USER    NEWDPF dihe0 -135.18 -100.21 -91.97 34.38 126.87 79.50 -55.24 -31.09 -179.63 3.90 
DOCKED: USER  keepresnum = 1 
DOCKED: USER  
DOCKED: REMARK  10 active torsions:
DOCKED: REMARK  status: ('A' for Active; 'I' for Inactive)
DOCKED: REMARK    1  A    between atoms: C_6  and  C_10 
DOCKED: REMARK    2  A    between atoms: C_10  and  C_11 
DOCKED: REMARK    3  A    between atoms: C_11  and  C_12 
DOCKED: REMARK    4  A    between atoms: C_12  and  O_14 
DOCKED: REMARK    5  A    between atoms: C_17  and  C_20 
DOCKED: REMARK    6  A    between atoms: C_24  and  C_27 
DOCKED: REMARK    7  A    between atoms: C_31  and  C_34 
DOCKED: REMARK    8  A    between atoms: C_34  and  C_35 
DOCKED: REMARK    9  A    between atoms: C_35  and  C_36 
DOCKED: REMARK   10  A    between atoms: C_36  and  O_38 
DOCKED: USER                              x       y       z     vdW  Elec       q    Type
DOCKED: USER                           _______ _______ _______ _____ _____    ______ ____
DOCKED: ROOT
DOCKED: ATOM      1  C   UNL d   1      -9.661   6.167 -10.752 -0.14 +0.02    +0.064 C 
DOCKED: ATOM      2  C   UNL d   1     -10.195   5.141 -15.557 -0.22 +0.02    +0.064 A 
DOCKED: ATOM      3  C   UNL d   1      -6.594   8.165 -16.533 -0.17 -0.01    +0.064 C 
DOCKED: ATOM      4  C   UNL d   1      -6.129   9.252 -11.898 -0.26 -0.01    +0.064 C 
DOCKED: ATOM      5  C   UNL d   1     -10.200   5.661 -12.022 -0.14 +0.01    +0.066 A 
DOCKED: ATOM      6  C   UNL d   1     -11.316   4.849 -12.138 -0.13 -0.01    -0.021 A 
DOCKED: ATOM      7  C   UNL d   1     -11.462   4.561 -13.473 -0.16 -0.01    -0.025 A 
DOCKED: ATOM      8  C   UNL d   1     -10.428   5.210 -14.120 -0.20 +0.02    +0.066 A 
DOCKED: ATOM      9  C   UNL d   1     -12.546   3.726 -14.083 -0.17 +0.03    +0.051 C 
DOCKED: ATOM     10  C   UNL d   1      -9.241   5.803 -16.213 -0.24 +0.01    +0.066 A 
DOCKED: ATOM     11  C   UNL d   1      -8.971   5.627 -17.573 -0.22 -0.00    -0.021 A 
DOCKED: ATOM     12  C   UNL d   1      -7.925   6.476 -17.875 -0.18 -0.00    +0.000 A 
DOCKED: ATOM     13  C   UNL d   1      -7.602   7.126 -16.671 -0.20 -0.01    +0.070 A 
DOCKED: ATOM     14  C   UNL d   1      -9.631   4.648 -18.522 -0.17 +0.01    +0.052 C 
DOCKED: ATOM     15  C   UNL d   1      -6.244   8.756 -15.367 -0.12 -0.01    +0.066 A 
DOCKED: ATOM     16  C   UNL d   1      -5.348   9.815 -15.291 -0.12 +0.00    -0.021 A 
DOCKED: ATOM     17  C   UNL d   1      -5.209  10.128 -13.955 -0.22 -0.00    +0.000 A 
DOCKED: ATOM     18  C   UNL d   1      -6.024   9.248 -13.245 -0.18 -0.01    +0.070 A 
DOCKED: ATOM     19  C   UNL d   1      -4.628  10.491 -16.427 -0.09 -0.02    +0.052 C 
DOCKED: ATOM     20  C   UNL d   1      -7.022   8.384 -11.121 -0.18 -0.00    +0.066 A 
DOCKED: ATOM     21  C   UNL d   1      -6.997   8.237  -9.726 -0.25 -0.00    -0.025 A 
DOCKED: ATOM     22  C   UNL d   1      -8.019   7.363  -9.421 -0.18 -0.00    -0.021 A 
DOCKED: ATOM     23  C   UNL d   1      -8.621   7.008 -10.634 -0.12 +0.01    +0.066 A 
DOCKED: ATOM     24  C   UNL d   1      -6.061   8.877  -8.727 -0.46 -0.00    +0.051 C 
DOCKED: ATOM     25  N   UNL d   1      -9.668   5.886 -13.235 -0.11 -0.04    -0.248 N 
DOCKED: ATOM     26  N   UNL d   1      -8.398   6.709 -15.656 -0.14 +0.00    -0.248 N 
DOCKED: ATOM     27  N   UNL d   1      -6.694   8.434 -14.114 -0.05 +0.02    -0.248 N 
DOCKED: ATOM     28  N   UNL d   1      -7.979   7.599 -11.671 -0.06 -0.02    -0.248 N 
DOCKED: ATOM     29 FE   UNL d   1      -8.188   7.155 -13.663 -0.04 +0.00    +0.000 Fe
DOCKED: ENDROOT
DOCKED: BRANCH   6  30
DOCKED: ATOM     30  C   UNL d   1     -12.213   4.385 -11.042 -0.09 +0.02    +0.052 C 
DOCKED: BRANCH  30  31
DOCKED: ATOM     31  C   UNL d   1     -11.724   3.060 -10.468 -0.10 +0.05    +0.115 C 
DOCKED: BRANCH  31  32
DOCKED: ATOM     32  C   UNL d   1     -11.524   3.172  -8.982 -0.11 +0.14    +0.139 C 
DOCKED: ATOM     33  O   UNL d   1     -12.055   2.376  -8.220 -0.44 -0.92    -0.650 OA
DOCKED: BRANCH  32  34
DOCKED: ATOM     34  O   UNL d   1     -10.757   4.152  -8.477 +0.01 -1.08    -0.776 OA
DOCKED: ATOM     35  H   UNL d   1     -10.860   5.052  -8.817 +0.03 +0.16    +0.167 HD
DOCKED: ENDBRANCH  32  34
DOCKED: ENDBRANCH  31  32
DOCKED: ENDBRANCH  30  31
DOCKED: ENDBRANCH   6  30
DOCKED: BRANCH  22  36
DOCKED: ATOM     36  C   UNL d   1      -8.365   6.861  -8.043 -0.08 +0.02    +0.052 C 
DOCKED: BRANCH  36  37
DOCKED: ATOM     37  C   UNL d   1      -9.564   7.627  -7.504 -0.17 +0.06    +0.115 C 
DOCKED: BRANCH  37  38
DOCKED: ATOM     38  C   UNL d   1     -10.398   6.758  -6.606 -0.15 +0.16    +0.139 C 
DOCKED: ATOM     39  O   UNL d   1     -10.065   6.554  -5.448 -0.35 -0.83    -0.650 OA
DOCKED: BRANCH  38  40
DOCKED: ATOM     40  O   UNL d   1     -11.525   6.194  -7.075 -0.02 -1.25    -0.776 OA
DOCKED: ATOM     41  H   UNL d   1     -11.460   5.395  -7.617 +0.02 +0.33    +0.167 HD
DOCKED: ENDBRANCH  38  40
DOCKED: ENDBRANCH  37  38
DOCKED: ENDBRANCH  36  37
DOCKED: ENDBRANCH  22  36
DOCKED: BRANCH  12  42
DOCKED: ATOM     42  C   UNL d   1      -7.296   6.612 -19.226 -0.17 -0.00    +0.004 C 
DOCKED: ATOM     43  C   UNL d   1      -7.004   5.532 -19.962 -0.23 -0.00    +0.012 C 
DOCKED: ENDBRANCH  12  42
DOCKED: BRANCH  17  44
DOCKED: ATOM     44  C   UNL d   1      -4.369  11.211 -13.396 -0.41 -0.00    +0.004 C 
DOCKED: ATOM     45  C   UNL d   1      -4.855  12.448 -13.250 -0.51 -0.00    +0.012 C 
DOCKED: ENDBRANCH  17  44
DOCKED: TORSDOF 10
DOCKED: TER
DOCKED: ENDMDL
________________________________________________________________________________


	BEGINNING GENETIC ALGORITHM DOCKING 39 of 100
Run: 39 Seed: 1412551047 1991539924 [ Run 39 of 100 GA/GALS ]
Beginning LAMARCKIAN GENETIC ALGORITHM (LGA), with a maximum of 25000000 energy evaluations.

Final-Value: -16.567


	FINAL GENETIC ALGORITHM DOCKED STATE
	_______________________________________________


Detailed state:  trans -5.057 3.188 -6.955 quatxyzw -0.339178 -0.149697 -0.166005 -0.913779 center -0.174 -0.001 -0.047 ntor 10 -154.2316 -143.0425 65.3341 -113.9381 -130.6141 -28.1091 -2.5329 -69.8012 -8.8837 48.3442
State:	 -5.057   3.188  -6.955  -0.835 -0.369 -0.409 -47.934   -154.23 -143.04   65.33 -113.94 -130.61  -28.11   -2.53  -69.80   -8.88   48.34

DOCKED: MODEL       39
DOCKED: USER    Run = 39
DOCKED: USER    DPF = D:/Protein_go_brrr/autodock/final/mut_K82N/heme_Fe/dock.dpf
DOCKED: USER  
DOCKED: USER    Estimated Free Energy of Binding    =  -12.21 kcal/mol  [=(1)+(2)+(3)-(4)]
DOCKED: USER    Estimated Inhibition Constant, Ki   =    1.12 nM (nanomolar)  [Temperature = 298.15 K]
DOCKED: USER    
DOCKED: USER    (1) Final Intermolecular Energy     =  -15.19 kcal/mol
DOCKED: USER        vdW + Hbond + desolv Energy     =  -12.56 kcal/mol
DOCKED: USER        Electrostatic Energy            =   -2.64 kcal/mol
DOCKED: USER    (2) Final Total Internal Energy     =   -1.37 kcal/mol
DOCKED: USER    (3) Torsional Free Energy           =   +2.98 kcal/mol
DOCKED: USER    (4) Unbound System's Energy  [=(2)] =   -1.37 kcal/mol
DOCKED: USER    
DOCKED: USER    
DOCKED: USER    NEWDPF move heme_Fe_opt.pdbqt
DOCKED: USER    NEWDPF about -0.174000 -0.001000 -0.047000
DOCKED: USER    NEWDPF tran0 -5.057456 3.188106 -6.954985
DOCKED: USER    NEWDPF quaternion0 -0.339178 -0.149697 -0.166005 -0.913779
DOCKED: USER    NEWDPF axisangle0 -0.834977 -0.368518 -0.408665 -47.934230
DOCKED: USER    NEWDPF quat0 -0.834977 -0.368518 -0.408665 -47.934230
DOCKED: USER    NEWDPF dihe0 -154.23 -143.04 65.33 -113.94 -130.61 -28.11 -2.53 -69.80 -8.88 48.34 
DOCKED: USER  keepresnum = 1 
DOCKED: USER  
DOCKED: REMARK  10 active torsions:
DOCKED: REMARK  status: ('A' for Active; 'I' for Inactive)
DOCKED: REMARK    1  A    between atoms: C_6  and  C_10 
DOCKED: REMARK    2  A    between atoms: C_10  and  C_11 
DOCKED: REMARK    3  A    between atoms: C_11  and  C_12 
DOCKED: REMARK    4  A    between atoms: C_12  and  O_14 
DOCKED: REMARK    5  A    between atoms: C_17  and  C_20 
DOCKED: REMARK    6  A    between atoms: C_24  and  C_27 
DOCKED: REMARK    7  A    between atoms: C_31  and  C_34 
DOCKED: REMARK    8  A    between atoms: C_34  and  C_35 
DOCKED: REMARK    9  A    between atoms: C_35  and  C_36 
DOCKED: REMARK   10  A    between atoms: C_36  and  O_38 
DOCKED: USER                              x       y       z     vdW  Elec       q    Type
DOCKED: USER                           _______ _______ _______ _____ _____    ______ ____
DOCKED: ROOT
DOCKED: ATOM      1  C   UNL d   1      -6.950   3.902  -7.301 -0.21 +0.02    +0.064 C 
DOCKED: ATOM      2  C   UNL d   1      -4.978   0.658  -4.135 -0.42 +0.00    +0.064 A 
DOCKED: ATOM      3  C   UNL d   1      -0.618   2.355  -5.220 -0.38 +0.00    +0.064 C 
DOCKED: ATOM      4  C   UNL d   1      -2.497   5.430  -8.367 -0.49 +0.00    +0.064 C 
DOCKED: ATOM      5  C   UNL d   1      -6.793   2.775  -6.371 -0.34 +0.02    +0.066 A 
DOCKED: ATOM      6  C   UNL d   1      -7.827   1.969  -5.923 -0.34 -0.01    -0.021 A 
DOCKED: ATOM      7  C   UNL d   1      -7.279   1.071  -5.041 -0.30 -0.01    -0.025 A 
DOCKED: ATOM      8  C   UNL d   1      -5.930   1.363  -4.985 -0.38 +0.01    +0.066 A 
DOCKED: ATOM      9  C   UNL d   1      -8.014  -0.013  -4.314 +0.00 +0.01    +0.051 C 
DOCKED: ATOM     10  C   UNL d   1      -3.663   0.882  -4.105 -0.37 +0.00    +0.066 A 
DOCKED: ATOM     11  C   UNL d   1      -2.794   0.270  -3.198 -0.33 +0.00    -0.021 A 
DOCKED: ATOM     12  C   UNL d   1      -1.532   0.756  -3.479 -0.37 -0.00    +0.000 A 
DOCKED: ATOM     13  C   UNL d   1      -1.700   1.653  -4.548 -0.37 +0.00    +0.070 A 
DOCKED: ATOM     14  C   UNL d   1      -3.157  -0.678  -2.074 -0.57 -0.00    +0.052 C 
DOCKED: ATOM     15  C   UNL d   1      -0.779   3.259  -6.215 -0.39 +0.00    +0.066 A 
DOCKED: ATOM     16  C   UNL d   1       0.285   3.832  -6.899 -0.50 -0.00    -0.021 A 
DOCKED: ATOM     17  C   UNL d   1      -0.255   4.722  -7.805 -0.51 +0.00    +0.000 A 
DOCKED: ATOM     18  C   UNL d   1      -1.638   4.673  -7.649 -0.42 +0.00    +0.070 A 
DOCKED: ATOM     19  C   UNL d   1       1.754   3.575  -6.694 -0.46 +0.00    +0.052 C 
DOCKED: ATOM     20  C   UNL d   1      -3.960   5.361  -8.273 -0.41 +0.01    +0.066 A 
DOCKED: ATOM     21  C   UNL d   1      -4.853   6.270  -8.859 -0.41 -0.00    -0.025 A 
DOCKED: ATOM     22  C   UNL d   1      -6.116   5.808  -8.553 -0.15 -0.00    -0.021 A 
DOCKED: ATOM     23  C   UNL d   1      -5.946   4.645  -7.792 +0.17 +0.02    +0.066 A 
DOCKED: ATOM     24  C   UNL d   1      -4.543   7.512  -9.661 -0.49 -0.01    +0.051 C 
DOCKED: ATOM     25  N   UNL d   1      -5.636   2.394  -5.802 -0.22 -0.05    -0.248 N 
DOCKED: ATOM     26  N   UNL d   1      -3.000   1.737  -4.924 -0.25 -0.01    -0.248 N 
DOCKED: ATOM     27  N   UNL d   1      -1.964   3.742  -6.703 -0.25 -0.02    -0.248 N 
DOCKED: ATOM     28  N   UNL d   1      -4.628   4.403  -7.587 -0.10 -0.08    -0.248 N 
DOCKED: ATOM     29 FE   UNL d   1      -3.813   3.071  -6.257 -0.09 +0.00    +0.000 Fe
DOCKED: ENDROOT
DOCKED: BRANCH   6  30
DOCKED: ATOM     30  C   UNL d   1      -9.260   2.034  -6.327 +0.29 +0.06    +0.052 C 
DOCKED: BRANCH  30  31
DOCKED: ATOM     31  C   UNL d   1      -9.477   1.334  -7.664 +0.21 +0.08    +0.115 C 
DOCKED: BRANCH  31  32
DOCKED: ATOM     32  C   UNL d   1     -10.933   1.349  -8.036 -0.12 +0.12    +0.139 C 
DOCKED: ATOM     33  O   UNL d   1     -11.497   0.323  -8.390 -0.02 -0.31    -0.650 OA
DOCKED: BRANCH  32  34
DOCKED: ATOM     34  O   UNL d   1     -11.631   2.497  -7.984 -0.14 -1.42    -0.776 OA
DOCKED: ATOM     35  H   UNL d   1     -11.160   3.337  -8.079 +0.03 +0.34    +0.167 HD
DOCKED: ENDBRANCH  32  34
DOCKED: ENDBRANCH  31  32
DOCKED: ENDBRANCH  30  31
DOCKED: ENDBRANCH   6  30
DOCKED: BRANCH  22  36
DOCKED: ATOM     36  C   UNL d   1      -7.412   6.476  -8.931 -0.25 +0.01    +0.052 C 
DOCKED: BRANCH  36  37
DOCKED: ATOM     37  C   UNL d   1      -8.470   5.420  -9.217 -0.21 +0.04    +0.115 C 
DOCKED: BRANCH  37  38
DOCKED: ATOM     38  C   UNL d   1      -9.515   5.398  -8.138 -0.16 +0.13    +0.139 C 
DOCKED: ATOM     39  O   UNL d   1      -9.243   5.737  -6.996 -0.60 -0.77    -0.650 OA
DOCKED: BRANCH  38  40
DOCKED: ATOM     40  O   UNL d   1     -10.767   4.998  -8.425 -0.08 -0.98    -0.776 OA
DOCKED: ATOM     41  H   UNL d   1     -10.897   4.278  -9.057 +0.03 +0.16    +0.167 HD
DOCKED: ENDBRANCH  38  40
DOCKED: ENDBRANCH  37  38
DOCKED: ENDBRANCH  36  37
DOCKED: ENDBRANCH  22  36
DOCKED: BRANCH  12  42
DOCKED: ATOM     42  C   UNL d   1      -0.286   0.378  -2.744 -0.32 -0.00    +0.004 C 
DOCKED: ATOM     43  C   UNL d   1       0.686  -0.320  -3.346 -0.63 -0.00    +0.012 C 
DOCKED: ENDBRANCH  12  42
DOCKED: BRANCH  17  44
DOCKED: ATOM     44  C   UNL d   1       0.503   5.550  -8.770 -0.59 +0.00    +0.004 C 
DOCKED: ATOM     45  C   UNL d   1       1.409   6.438  -8.348 -0.65 +0.00    +0.012 C 
DOCKED: ENDBRANCH  17  44
DOCKED: TORSDOF 10
DOCKED: TER
DOCKED: ENDMDL
________________________________________________________________________________


	BEGINNING GENETIC ALGORITHM DOCKING 40 of 100
Run: 40 Seed: 1419625136 202249103 [ Run 40 of 100 GA/GALS ]
Beginning LAMARCKIAN GENETIC ALGORITHM (LGA), with a maximum of 25000000 energy evaluations.

Final-Value: -11.788


	FINAL GENETIC ALGORITHM DOCKED STATE
	_______________________________________________


Detailed state:  trans -6.611 8.323 -11.539 quatxyzw 0.577442 0.452959 -0.538101 -0.414531 center -0.174 -0.001 -0.047 ntor 10 -177.0594 -38.2204 -166.2249 14.1231 -46.8323 65.4325 72.0970 97.8627 -126.1751 -178.0186
State:	 -6.611   8.323 -11.539   0.635  0.498 -0.591 -131.020   -177.06  -38.22 -166.22   14.12  -46.83   65.43   72.10   97.86 -126.18 -178.02

DOCKED: MODEL       40
DOCKED: USER    Run = 40
DOCKED: USER    DPF = D:/Protein_go_brrr/autodock/final/mut_K82N/heme_Fe/dock.dpf
DOCKED: USER  
DOCKED: USER    Estimated Free Energy of Binding    =   -6.78 kcal/mol  [=(1)+(2)+(3)-(4)]
DOCKED: USER    Estimated Inhibition Constant, Ki   =   10.80 uM (micromolar)  [Temperature = 298.15 K]
DOCKED: USER    
DOCKED: USER    (1) Final Intermolecular Energy     =   -9.76 kcal/mol
DOCKED: USER        vdW + Hbond + desolv Energy     =   -7.65 kcal/mol
DOCKED: USER        Electrostatic Energy            =   -2.11 kcal/mol
DOCKED: USER    (2) Final Total Internal Energy     =   -2.03 kcal/mol
DOCKED: USER    (3) Torsional Free Energy           =   +2.98 kcal/mol
DOCKED: USER    (4) Unbound System's Energy  [=(2)] =   -2.03 kcal/mol
DOCKED: USER    
DOCKED: USER    
DOCKED: USER    NEWDPF move heme_Fe_opt.pdbqt
DOCKED: USER    NEWDPF about -0.174000 -0.001000 -0.047000
DOCKED: USER    NEWDPF tran0 -6.611021 8.323063 -11.539209
DOCKED: USER    NEWDPF quaternion0 0.577442 0.452959 -0.538101 -0.414531
DOCKED: USER    NEWDPF axisangle0 0.634528 0.497738 -0.591297 -131.020375
DOCKED: USER    NEWDPF quat0 0.634528 0.497738 -0.591297 -131.020375
DOCKED: USER    NEWDPF dihe0 -177.06 -38.22 -166.22 14.12 -46.83 65.43 72.10 97.86 -126.18 -178.02 
DOCKED: USER  keepresnum = 1 
DOCKED: USER  
DOCKED: REMARK  10 active torsions:
DOCKED: REMARK  status: ('A' for Active; 'I' for Inactive)
DOCKED: REMARK    1  A    between atoms: C_6  and  C_10 
DOCKED: REMARK    2  A    between atoms: C_10  and  C_11 
DOCKED: REMARK    3  A    between atoms: C_11  and  C_12 
DOCKED: REMARK    4  A    between atoms: C_12  and  O_14 
DOCKED: REMARK    5  A    between atoms: C_17  and  C_20 
DOCKED: REMARK    6  A    between atoms: C_24  and  C_27 
DOCKED: REMARK    7  A    between atoms: C_31  and  C_34 
DOCKED: REMARK    8  A    between atoms: C_34  and  C_35 
DOCKED: REMARK    9  A    between atoms: C_35  and  C_36 
DOCKED: REMARK   10  A    between atoms: C_36  and  O_38 
DOCKED: USER                              x       y       z     vdW  Elec       q    Type
DOCKED: USER                           _______ _______ _______ _____ _____    ______ ____
DOCKED: ROOT
DOCKED: ATOM      1  C   UNL d   1      -6.820   7.671  -9.605 -0.29 +0.00    +0.064 C 
DOCKED: ATOM      2  C   UNL d   1      -9.956   8.958 -13.202 -0.03 +0.00    +0.064 A 
DOCKED: ATOM      3  C   UNL d   1      -6.350   8.657 -16.359 -0.14 -0.01    +0.064 C 
DOCKED: ATOM      4  C   UNL d   1      -3.275   7.514 -12.877 -0.53 -0.01    +0.064 C 
DOCKED: ATOM      5  C   UNL d   1      -8.019   8.142 -10.311 -0.13 +0.01    +0.066 A 
DOCKED: ATOM      6  C   UNL d   1      -9.225   8.450  -9.703 -0.09 -0.00    -0.021 A 
DOCKED: ATOM      7  C   UNL d   1     -10.097   8.804 -10.703 -0.04 -0.00    -0.025 A 
DOCKED: ATOM      8  C   UNL d   1      -9.388   8.698 -11.885 -0.06 +0.01    +0.066 A 
DOCKED: ATOM      9  C   UNL d   1     -11.520   9.236 -10.523 -0.01 +0.01    +0.051 C 
DOCKED: ATOM     10  C   UNL d   1      -9.280   8.919 -14.351 -0.05 +0.00    +0.066 A 
DOCKED: ATOM     11  C   UNL d   1      -9.877   9.059 -15.606 -0.03 -0.00    -0.021 A 
DOCKED: ATOM     12  C   UNL d   1      -8.860   8.959 -16.535 -0.05 -0.00    +0.000 A 
DOCKED: ATOM     13  C   UNL d   1      -7.685   8.753 -15.791 -0.08 -0.01    +0.070 A 
DOCKED: ATOM     14  C   UNL d   1     -11.353   9.212 -15.910 -0.01 +0.00    +0.052 C 
DOCKED: ATOM     15  C   UNL d   1      -5.223   8.407 -15.653 -0.20 -0.01    +0.066 A 
DOCKED: ATOM     16  C   UNL d   1      -3.954   8.422 -16.218 -0.25 +0.01    -0.021 A 
DOCKED: ATOM     17  C   UNL d   1      -3.066   8.089 -15.216 -0.38 -0.00    +0.000 A 
DOCKED: ATOM     18  C   UNL d   1      -3.815   7.874 -14.062 -0.39 -0.01    +0.070 A 
DOCKED: ATOM     19  C   UNL d   1      -3.590   8.713 -17.649 -0.16 -0.01    +0.052 C 
DOCKED: ATOM     20  C   UNL d   1      -4.025   7.339 -11.628 -0.35 -0.01    +0.066 A 
DOCKED: ATOM     21  C   UNL d   1      -3.516   6.775 -10.449 -0.52 +0.00    -0.025 A 
DOCKED: ATOM     22  C   UNL d   1      -4.539   6.842  -9.526 -0.45 +0.00    -0.021 A 
DOCKED: ATOM     23  C   UNL d   1      -5.629   7.434 -10.176 -0.31 -0.00    +0.066 A 
DOCKED: ATOM     24  C   UNL d   1      -2.142   6.199 -10.197 -0.37 +0.00    +0.051 C 
DOCKED: ATOM     25  N   UNL d   1      -8.122   8.305 -11.642 -0.06 -0.02    -0.248 N 
DOCKED: ATOM     26  N   UNL d   1      -7.942   8.719 -14.461 -0.05 +0.01    -0.248 N 
DOCKED: ATOM     27  N   UNL d   1      -5.137   8.112 -14.318 -0.11 +0.04    -0.248 N 
DOCKED: ATOM     28  N   UNL d   1      -5.324   7.694 -11.471 -0.17 +0.03    -0.248 N 
DOCKED: ATOM     29 FE   UNL d   1      -6.631   8.206 -12.966 -0.05 -0.00    +0.000 Fe
DOCKED: ENDROOT
DOCKED: BRANCH   6  30
DOCKED: ATOM     30  C   UNL d   1      -9.530   8.431  -8.245 -0.16 +0.02    +0.052 C 
DOCKED: BRANCH  30  31
DOCKED: ATOM     31  C   UNL d   1      -8.813   7.274  -7.558 -0.06 +0.05    +0.115 C 
DOCKED: BRANCH  31  32
DOCKED: ATOM     32  C   UNL d   1      -9.794   6.201  -7.174 -0.13 +0.16    +0.139 C 
DOCKED: ATOM     33  O   UNL d   1     -10.841   6.486  -6.610 -0.16 -0.97    -0.650 OA
DOCKED: BRANCH  32  34
DOCKED: ATOM     34  O   UNL d   1      -9.526   4.913  -7.448 -0.44 -1.26    -0.776 OA
DOCKED: ATOM     35  H   UNL d   1      -8.678   4.686  -7.855 +0.06 +0.14    +0.167 HD
DOCKED: ENDBRANCH  32  34
DOCKED: ENDBRANCH  31  32
DOCKED: ENDBRANCH  30  31
DOCKED: ENDBRANCH   6  30
DOCKED: BRANCH  22  36
DOCKED: ATOM     36  C   UNL d   1      -4.485   6.320  -8.115 -0.32 +0.00    +0.052 C 
DOCKED: BRANCH  36  37
DOCKED: ATOM     37  C   UNL d   1      -4.736   4.819  -8.112 -0.29 +0.02    +0.115 C 
DOCKED: BRANCH  37  38
DOCKED: ATOM     38  C   UNL d   1      -6.207   4.518  -8.146 -0.23 +0.03    +0.139 C 
DOCKED: ATOM     39  O   UNL d   1      -6.884   4.817  -9.119 +0.03 -0.13    -0.650 OA
DOCKED: BRANCH  38  40
DOCKED: ATOM     40  O   UNL d   1      -6.794   3.917  -7.096 +0.10 -0.28    -0.776 OA
DOCKED: ATOM     41  H   UNL d   1      -7.682   4.195  -6.831 +0.07 +0.10    +0.167 HD
DOCKED: ENDBRANCH  38  40
DOCKED: ENDBRANCH  37  38
DOCKED: ENDBRANCH  36  37
DOCKED: ENDBRANCH  22  36
DOCKED: BRANCH  12  42
DOCKED: ATOM     42  C   UNL d   1      -9.044   9.042 -18.017 -0.03 -0.00    +0.004 C 
DOCKED: ATOM     43  C   UNL d   1      -8.726   8.010 -18.809 -0.06 -0.00    +0.012 C 
DOCKED: ENDBRANCH  12  42
DOCKED: BRANCH  17  44
DOCKED: ATOM     44  C   UNL d   1      -1.594   8.003 -15.349 -0.28 -0.00    +0.004 C 
DOCKED: ATOM     45  C   UNL d   1      -0.860   9.100 -15.561 -0.42 -0.00    +0.012 C 
DOCKED: ENDBRANCH  17  44
DOCKED: TORSDOF 10
DOCKED: TER
DOCKED: ENDMDL
________________________________________________________________________________


	BEGINNING GENETIC ALGORITHM DOCKING 41 of 100
Run: 41 Seed: 1683742869 346497211 [ Run 41 of 100 GA/GALS ]
Beginning LAMARCKIAN GENETIC ALGORITHM (LGA), with a maximum of 25000000 energy evaluations.

Final-Value: -10.191


	FINAL GENETIC ALGORITHM DOCKED STATE
	_______________________________________________


Detailed state:  trans 12.841 11.403 1.494 quatxyzw 0.794504 0.048079 -0.596072 -0.105595 center -0.174 -0.001 -0.047 ntor 10 -61.4658 -95.1877 -146.8042 -139.2139 26.4025 104.4545 -86.2117 108.3994 177.1115 -161.1411
State:	 12.841  11.403   1.494   0.799  0.048 -0.599 -167.877    -61.47  -95.19 -146.80 -139.21   26.40  104.45  -86.21  108.40  177.11 -161.14

DOCKED: MODEL       41
DOCKED: USER    Run = 41
DOCKED: USER    DPF = D:/Protein_go_brrr/autodock/final/mut_K82N/heme_Fe/dock.dpf
DOCKED: USER  
DOCKED: USER    Estimated Free Energy of Binding    =   -5.02 kcal/mol  [=(1)+(2)+(3)-(4)]
DOCKED: USER    Estimated Inhibition Constant, Ki   =  207.84 uM (micromolar)  [Temperature = 298.15 K]
DOCKED: USER    
DOCKED: USER    (1) Final Intermolecular Energy     =   -8.01 kcal/mol
DOCKED: USER        vdW + Hbond + desolv Energy     =   -6.82 kcal/mol
DOCKED: USER        Electrostatic Energy            =   -1.19 kcal/mol
DOCKED: USER    (2) Final Total Internal Energy     =   -2.18 kcal/mol
DOCKED: USER    (3) Torsional Free Energy           =   +2.98 kcal/mol
DOCKED: USER    (4) Unbound System's Energy  [=(2)] =   -2.18 kcal/mol
DOCKED: USER    
DOCKED: USER    
DOCKED: USER    NEWDPF move heme_Fe_opt.pdbqt
DOCKED: USER    NEWDPF about -0.174000 -0.001000 -0.047000
DOCKED: USER    NEWDPF tran0 12.840864 11.402678 1.494476
DOCKED: USER    NEWDPF quaternion0 0.794504 0.048079 -0.596072 -0.105595
DOCKED: USER    NEWDPF axisangle0 0.798971 0.048349 -0.599423 -167.877126
DOCKED: USER    NEWDPF quat0 0.798971 0.048349 -0.599423 -167.877126
DOCKED: USER    NEWDPF dihe0 -61.47 -95.19 -146.80 -139.21 26.40 104.45 -86.21 108.40 177.11 -161.14 
DOCKED: USER  keepresnum = 1 
DOCKED: USER  
DOCKED: REMARK  10 active torsions:
DOCKED: REMARK  status: ('A' for Active; 'I' for Inactive)
DOCKED: REMARK    1  A    between atoms: C_6  and  C_10 
DOCKED: REMARK    2  A    between atoms: C_10  and  C_11 
DOCKED: REMARK    3  A    between atoms: C_11  and  C_12 
DOCKED: REMARK    4  A    between atoms: C_12  and  O_14 
DOCKED: REMARK    5  A    between atoms: C_17  and  C_20 
DOCKED: REMARK    6  A    between atoms: C_24  and  C_27 
DOCKED: REMARK    7  A    between atoms: C_31  and  C_34 
DOCKED: REMARK    8  A    between atoms: C_34  and  C_35 
DOCKED: REMARK    9  A    between atoms: C_35  and  C_36 
DOCKED: REMARK   10  A    between atoms: C_36  and  O_38 
DOCKED: USER                              x       y       z     vdW  Elec       q    Type
DOCKED: USER                           _______ _______ _______ _____ _____    ______ ____
DOCKED: ROOT
DOCKED: ATOM      1  C   UNL d   1      11.766  11.438   3.242 -0.10 +0.00    +0.064 C 
DOCKED: ATOM      2  C   UNL d   1      12.315  14.537  -0.569 -0.24 -0.01    +0.064 A 
DOCKED: ATOM      3  C   UNL d   1      14.275  10.960  -3.106 -0.26 -0.01    +0.064 C 
DOCKED: ATOM      4  C   UNL d   1      13.849   7.972   0.606 -0.18 -0.00    +0.064 C 
DOCKED: ATOM      5  C   UNL d   1      11.816  12.664   2.433 -0.02 +0.00    +0.066 A 
DOCKED: ATOM      6  C   UNL d   1      11.438  13.921   2.878 -0.13 -0.00    -0.021 A 
DOCKED: ATOM      7  C   UNL d   1      11.588  14.780   1.817 -0.16 +0.00    -0.025 A 
DOCKED: ATOM      8  C   UNL d   1      12.051  14.014   0.765 -0.21 -0.00    +0.066 A 
DOCKED: ATOM      9  C   UNL d   1      11.316  16.253   1.830 -0.13 -0.00    +0.051 C 
DOCKED: ATOM     10  C   UNL d   1      12.817  13.832  -1.585 -0.24 -0.01    +0.066 A 
DOCKED: ATOM     11  C   UNL d   1      12.952  14.331  -2.883 -0.24 +0.00    -0.021 A 
DOCKED: ATOM     12  C   UNL d   1      13.499  13.313  -3.638 -0.22 -0.00    +0.000 A 
DOCKED: ATOM     13  C   UNL d   1      13.664  12.232  -2.755 -0.12 -0.02    +0.070 A 
DOCKED: ATOM     14  C   UNL d   1      12.516  15.689  -3.395 -0.21 -0.01    +0.052 C 
DOCKED: ATOM     15  C   UNL d   1      14.388   9.898  -2.273 -0.22 -0.01    +0.066 A 
DOCKED: ATOM     16  C   UNL d   1      15.067   8.735  -2.615 -0.17 +0.00    -0.021 A 
DOCKED: ATOM     17  C   UNL d   1      14.943   7.871  -1.547 -0.17 +0.00    +0.000 A 
DOCKED: ATOM     18  C   UNL d   1      14.186   8.526  -0.579 -0.18 -0.00    +0.070 A 
DOCKED: ATOM     19  C   UNL d   1      15.784   8.436  -3.904 -0.12 -0.00    +0.052 C 
DOCKED: ATOM     20  C   UNL d   1      13.107   8.653   1.674 -0.14 -0.00    +0.066 A 
DOCKED: ATOM     21  C   UNL d   1      12.580   8.034   2.816 -0.14 -0.00    -0.025 A 
DOCKED: ATOM     22  C   UNL d   1      12.002   9.043   3.559 -0.13 -0.00    -0.021 A 
DOCKED: ATOM     23  C   UNL d   1      12.192  10.230   2.842 -0.12 +0.00    +0.066 A 
DOCKED: ATOM     24  C   UNL d   1      12.610   6.572   3.195 -0.14 -0.00    +0.051 C 
DOCKED: ATOM     25  N   UNL d   1      12.198  12.729   1.146 -0.10 +0.00    -0.248 N 
DOCKED: ATOM     26  N   UNL d   1      13.240  12.545  -1.505 -0.17 +0.04    -0.248 N 
DOCKED: ATOM     27  N   UNL d   1      13.882   9.789  -1.006 -0.09 +0.01    -0.248 N 
DOCKED: ATOM     28  N   UNL d   1      12.827   9.979   1.672 -0.01 -0.00    -0.248 N 
DOCKED: ATOM     29 FE   UNL d   1      13.034  11.260   0.083 -0.05 -0.00    +0.000 Fe
DOCKED: ENDROOT
DOCKED: BRANCH   6  30
DOCKED: ATOM     30  C   UNL d   1      10.979  14.293   4.246 -0.09 +0.00    +0.052 C 
DOCKED: BRANCH  30  31
DOCKED: ATOM     31  C   UNL d   1       9.458  14.244   4.337 -0.15 +0.02    +0.115 C 
DOCKED: BRANCH  31  32
DOCKED: ATOM     32  C   UNL d   1       9.004  12.905   4.848 -0.19 +0.06    +0.139 C 
DOCKED: ATOM     33  O   UNL d   1       9.735  12.228   5.557 +0.03 -0.36    -0.650 OA
DOCKED: BRANCH  32  34
DOCKED: ATOM     34  O   UNL d   1       7.785  12.439   4.528 -0.00 -0.46    -0.776 OA
DOCKED: ATOM     35  H   UNL d   1       7.714  11.615   4.026 +0.07 +0.11    +0.167 HD
DOCKED: ENDBRANCH  32  34
DOCKED: ENDBRANCH  31  32
DOCKED: ENDBRANCH  30  31
DOCKED: ENDBRANCH   6  30
DOCKED: BRANCH  22  36
DOCKED: ATOM     36  C   UNL d   1      11.266   8.865   4.861 -0.16 +0.01    +0.052 C 
DOCKED: BRANCH  36  37
DOCKED: ATOM     37  C   UNL d   1      10.016   8.028   4.634 -0.25 +0.02    +0.115 C 
DOCKED: BRANCH  37  38
DOCKED: ATOM     38  C   UNL d   1       8.968   8.813   3.898 -0.39 +0.04    +0.139 C 
DOCKED: ATOM     39  O   UNL d   1       8.751   8.609   2.712 -0.05 -0.11    -0.650 OA
DOCKED: BRANCH  38  40
DOCKED: ATOM     40  O   UNL d   1       8.259   9.757   4.544 -0.44 -0.68    -0.776 OA
DOCKED: ATOM     41  H   UNL d   1       8.629  10.646   4.630 +0.06 +0.16    +0.167 HD
DOCKED: ENDBRANCH  38  40
DOCKED: ENDBRANCH  37  38
DOCKED: ENDBRANCH  36  37
DOCKED: ENDBRANCH  22  36
DOCKED: BRANCH  12  42
DOCKED: ATOM     42  C   UNL d   1      13.809  13.402  -5.098 -0.25 -0.00    +0.004 C 
DOCKED: ATOM     43  C   UNL d   1      12.971  12.896  -6.013 -0.33 -0.00    +0.012 C 
DOCKED: ENDBRANCH  12  42
DOCKED: BRANCH  17  44
DOCKED: ATOM     44  C   UNL d   1      15.527   6.514  -1.451 -0.11 +0.00    +0.004 C 
DOCKED: ATOM     45  C   UNL d   1      14.887   5.455  -1.958 -0.14 +0.00    +0.012 C 
DOCKED: ENDBRANCH  17  44
DOCKED: TORSDOF 10
DOCKED: TER
DOCKED: ENDMDL
________________________________________________________________________________


	BEGINNING GENETIC ALGORITHM DOCKING 42 of 100
Run: 42 Seed: 613008860 1291371403 [ Run 42 of 100 GA/GALS ]
Beginning LAMARCKIAN GENETIC ALGORITHM (LGA), with a maximum of 25000000 energy evaluations.

Final-Value: -12.299


	FINAL GENETIC ALGORITHM DOCKED STATE
	_______________________________________________


Detailed state:  trans -8.527 6.655 -12.261 quatxyzw 0.717463 -0.009226 -0.531567 0.450110 center -0.174 -0.001 -0.047 ntor 10 165.8053 84.4306 12.7132 -169.4400 69.0234 150.7691 -0.2338 -44.0766 -165.6506 7.9004
State:	 -8.527   6.655 -12.261   0.803 -0.010 -0.595 126.499    165.81   84.43   12.71 -169.44   69.02  150.77   -0.23  -44.08 -165.65    7.90

DOCKED: MODEL       42
DOCKED: USER    Run = 42
DOCKED: USER    DPF = D:/Protein_go_brrr/autodock/final/mut_K82N/heme_Fe/dock.dpf
DOCKED: USER  
DOCKED: USER    Estimated Free Energy of Binding    =   -7.80 kcal/mol  [=(1)+(2)+(3)-(4)]
DOCKED: USER    Estimated Inhibition Constant, Ki   =    1.93 uM (micromolar)  [Temperature = 298.15 K]
DOCKED: USER    
DOCKED: USER    (1) Final Intermolecular Energy     =  -10.78 kcal/mol
DOCKED: USER        vdW + Hbond + desolv Energy     =   -7.57 kcal/mol
DOCKED: USER        Electrostatic Energy            =   -3.21 kcal/mol
DOCKED: USER    (2) Final Total Internal Energy     =   -1.52 kcal/mol
DOCKED: USER    (3) Torsional Free Energy           =   +2.98 kcal/mol
DOCKED: USER    (4) Unbound System's Energy  [=(2)] =   -1.52 kcal/mol
DOCKED: USER    
DOCKED: USER    
DOCKED: USER    NEWDPF move heme_Fe_opt.pdbqt
DOCKED: USER    NEWDPF about -0.174000 -0.001000 -0.047000
DOCKED: USER    NEWDPF tran0 -8.527492 6.655216 -12.261086
DOCKED: USER    NEWDPF quaternion0 0.717463 -0.009226 -0.531567 0.450110
DOCKED: USER    NEWDPF axisangle0 0.803454 -0.010332 -0.595278 126.498547
DOCKED: USER    NEWDPF quat0 0.803454 -0.010332 -0.595278 126.498547
DOCKED: USER    NEWDPF dihe0 165.81 84.43 12.71 -169.44 69.02 150.77 -0.23 -44.08 -165.65 7.90 
DOCKED: USER  keepresnum = 1 
DOCKED: USER  
DOCKED: REMARK  10 active torsions:
DOCKED: REMARK  status: ('A' for Active; 'I' for Inactive)
DOCKED: REMARK    1  A    between atoms: C_6  and  C_10 
DOCKED: REMARK    2  A    between atoms: C_10  and  C_11 
DOCKED: REMARK    3  A    between atoms: C_11  and  C_12 
DOCKED: REMARK    4  A    between atoms: C_12  and  O_14 
DOCKED: REMARK    5  A    between atoms: C_17  and  C_20 
DOCKED: REMARK    6  A    between atoms: C_24  and  C_27 
DOCKED: REMARK    7  A    between atoms: C_31  and  C_34 
DOCKED: REMARK    8  A    between atoms: C_34  and  C_35 
DOCKED: REMARK    9  A    between atoms: C_35  and  C_36 
DOCKED: REMARK   10  A    between atoms: C_36  and  O_38 
DOCKED: USER                              x       y       z     vdW  Elec       q    Type
DOCKED: USER                           _______ _______ _______ _____ _____    ______ ____
DOCKED: ROOT
DOCKED: ATOM      1  C   UNL d   1      -9.761   6.117 -10.712 -0.13 +0.02    +0.064 C 
DOCKED: ATOM      2  C   UNL d   1      -6.392   9.667 -11.407 -0.25 -0.01    +0.064 A 
DOCKED: ATOM      3  C   UNL d   1      -6.520   8.768 -16.123 -0.12 -0.01    +0.064 C 
DOCKED: ATOM      4  C   UNL d   1      -9.702   5.258 -15.461 -0.29 +0.01    +0.064 C 
DOCKED: ATOM      5  C   UNL d   1      -8.739   7.143 -10.461 -0.11 +0.01    +0.066 A 
DOCKED: ATOM      6  C   UNL d   1      -8.347   7.578  -9.206 -0.16 -0.00    -0.021 A 
DOCKED: ATOM      7  C   UNL d   1      -7.414   8.566  -9.400 -0.24 -0.00    -0.025 A 
DOCKED: ATOM      8  C   UNL d   1      -7.272   8.696 -10.768 -0.17 +0.00    +0.066 A 
DOCKED: ATOM      9  C   UNL d   1      -6.692   9.322  -8.327 -0.37 +0.00    +0.051 C 
DOCKED: ATOM     10  C   UNL d   1      -6.194   9.774 -12.722 -0.20 -0.01    +0.066 A 
DOCKED: ATOM     11  C   UNL d   1      -5.433  10.787 -13.311 -0.27 +0.00    -0.021 A 
DOCKED: ATOM     12  C   UNL d   1      -5.468  10.560 -14.672 -0.14 -0.00    +0.000 A 
DOCKED: ATOM     13  C   UNL d   1      -6.263   9.414 -14.846 -0.10 -0.01    +0.070 A 
DOCKED: ATOM     14  C   UNL d   1      -4.763  11.955 -12.616 -0.46 -0.01    +0.052 C 
DOCKED: ATOM     15  C   UNL d   1      -7.326   7.695 -16.302 -0.16 -0.01    +0.066 A 
DOCKED: ATOM     16  C   UNL d   1      -7.466   7.046 -17.522 -0.17 +0.00    -0.021 A 
DOCKED: ATOM     17  C   UNL d   1      -8.386   6.036 -17.334 -0.24 -0.00    +0.000 A 
DOCKED: ATOM     18  C   UNL d   1      -8.789   6.094 -16.002 -0.24 +0.00    +0.070 A 
DOCKED: ATOM     19  C   UNL d   1      -6.783   7.377 -18.822 -0.14 -0.01    +0.052 C 
DOCKED: ATOM     20  C   UNL d   1     -10.105   5.250 -14.050 -0.21 +0.01    +0.066 A 
DOCKED: ATOM     21  C   UNL d   1     -11.186   4.531 -13.520 -0.18 -0.01    -0.025 A 
DOCKED: ATOM     22  C   UNL d   1     -11.176   4.780 -12.163 -0.14 -0.01    -0.021 A 
DOCKED: ATOM     23  C   UNL d   1     -10.100   5.642 -11.921 -0.15 +0.01    +0.066 A 
DOCKED: ATOM     24  C   UNL d   1     -12.182   3.656 -14.244 -0.19 +0.03    +0.051 C 
DOCKED: ATOM     25  N   UNL d   1      -8.073   7.823 -11.410 -0.07 -0.02    -0.248 N 
DOCKED: ATOM     26  N   UNL d   1      -6.713   8.939 -13.658 -0.07 +0.02    -0.248 N 
DOCKED: ATOM     27  N   UNL d   1      -8.106   7.086 -15.356 -0.07 +0.01    -0.248 N 
DOCKED: ATOM     28  N   UNL d   1      -9.477   5.961 -13.082 -0.09 -0.04    -0.248 N 
DOCKED: ATOM     29 FE   UNL d   1      -8.096   7.449 -13.371 -0.04 +0.00    +0.000 Fe
DOCKED: ENDROOT
DOCKED: BRANCH   6  30
DOCKED: ATOM     30  C   UNL d   1      -8.817   7.067  -7.887 -0.18 +0.02    +0.052 C 
DOCKED: BRANCH  30  31
DOCKED: ATOM     31  C   UNL d   1     -10.211   7.598  -7.568 -0.15 +0.06    +0.115 C 
DOCKED: BRANCH  31  32
DOCKED: ATOM     32  C   UNL d   1     -10.681   7.075  -6.239 -0.19 +0.14    +0.139 C 
DOCKED: ATOM     33  O   UNL d   1     -10.153   7.448  -5.201 -0.58 -0.56    -0.650 OA
DOCKED: BRANCH  32  34
DOCKED: ATOM     34  O   UNL d   1     -11.691   6.190  -6.181 +0.17 -1.64    -0.776 OA
DOCKED: ATOM     35  H   UNL d   1     -12.241   6.053  -6.965 +0.01 +0.29    +0.167 HD
DOCKED: ENDBRANCH  32  34
DOCKED: ENDBRANCH  31  32
DOCKED: ENDBRANCH  30  31
DOCKED: ENDBRANCH   6  30
DOCKED: BRANCH  22  36
DOCKED: ATOM     36  C   UNL d   1     -12.176   4.258 -11.166 -0.10 +0.02    +0.052 C 
DOCKED: BRANCH  36  37
DOCKED: ATOM     37  C   UNL d   1     -11.550   3.135 -10.351 -0.09 +0.06    +0.115 C 
DOCKED: BRANCH  37  38
DOCKED: ATOM     38  C   UNL d   1     -11.857   3.295  -8.889 -0.09 +0.15    +0.139 C 
DOCKED: ATOM     39  O   UNL d   1     -11.935   2.319  -8.157 -0.42 -0.96    -0.650 OA
DOCKED: BRANCH  38  40
DOCKED: ATOM     40  O   UNL d   1     -12.052   4.522  -8.374 +0.05 -1.11    -0.776 OA
DOCKED: ATOM     41  H   UNL d   1     -11.311   4.977  -7.951 +0.02 +0.31    +0.167 HD
DOCKED: ENDBRANCH  38  40
DOCKED: ENDBRANCH  37  38
DOCKED: ENDBRANCH  36  37
DOCKED: ENDBRANCH  22  36
DOCKED: BRANCH  12  42
DOCKED: ATOM     42  C   UNL d   1      -4.793  11.412 -15.700 -0.16 -0.00    +0.004 C 
DOCKED: ATOM     43  C   UNL d   1      -3.464  11.578 -15.692 -0.28 -0.01    +0.012 C 
DOCKED: ENDBRANCH  12  42
DOCKED: BRANCH  17  44
DOCKED: ATOM     44  C   UNL d   1      -8.835   5.064 -18.358 -0.20 +0.00    +0.004 C 
DOCKED: ATOM     45  C   UNL d   1     -10.106   5.045 -18.773 -0.19 +0.00    +0.012 C 
DOCKED: ENDBRANCH  17  44
DOCKED: TORSDOF 10
DOCKED: TER
DOCKED: ENDMDL
________________________________________________________________________________


	BEGINNING GENETIC ALGORITHM DOCKING 43 of 100
Run: 43 Seed: 1403609019 1140334038 [ Run 43 of 100 GA/GALS ]
Beginning LAMARCKIAN GENETIC ALGORITHM (LGA), with a maximum of 25000000 energy evaluations.

Final-Value: -11.284


	FINAL GENETIC ALGORITHM DOCKED STATE
	_______________________________________________


Detailed state:  trans -8.357 6.613 -13.414 quatxyzw -0.712111 -0.215490 0.392075 -0.541054 center -0.174 -0.001 -0.047 ntor 10 138.3354 -105.3480 90.7188 20.8484 20.0420 -100.9620 67.1691 -48.9849 158.5236 -161.5678
State:	 -8.357   6.613 -13.414  -0.847 -0.256  0.466 -114.489    138.34 -105.35   90.72   20.85   20.04 -100.96   67.17  -48.98  158.52 -161.57

DOCKED: MODEL       43
DOCKED: USER    Run = 43
DOCKED: USER    DPF = D:/Protein_go_brrr/autodock/final/mut_K82N/heme_Fe/dock.dpf
DOCKED: USER  
DOCKED: USER    Estimated Free Energy of Binding    =   -7.73 kcal/mol  [=(1)+(2)+(3)-(4)]
DOCKED: USER    Estimated Inhibition Constant, Ki   =    2.17 uM (micromolar)  [Temperature = 298.15 K]
DOCKED: USER    
DOCKED: USER    (1) Final Intermolecular Energy     =  -10.71 kcal/mol
DOCKED: USER        vdW + Hbond + desolv Energy     =   -7.33 kcal/mol
DOCKED: USER        Electrostatic Energy            =   -3.37 kcal/mol
DOCKED: USER    (2) Final Total Internal Energy     =   -0.58 kcal/mol
DOCKED: USER    (3) Torsional Free Energy           =   +2.98 kcal/mol
DOCKED: USER    (4) Unbound System's Energy  [=(2)] =   -0.58 kcal/mol
DOCKED: USER    
DOCKED: USER    
DOCKED: USER    NEWDPF move heme_Fe_opt.pdbqt
DOCKED: USER    NEWDPF about -0.174000 -0.001000 -0.047000
DOCKED: USER    NEWDPF tran0 -8.356903 6.613109 -13.413901
DOCKED: USER    NEWDPF quaternion0 -0.712111 -0.215490 0.392075 -0.541054
DOCKED: USER    NEWDPF axisangle0 -0.846755 -0.256235 0.466208 -114.489202
DOCKED: USER    NEWDPF quat0 -0.846755 -0.256235 0.466208 -114.489202
DOCKED: USER    NEWDPF dihe0 138.34 -105.35 90.72 20.85 20.04 -100.96 67.17 -48.98 158.52 -161.57 
DOCKED: USER  keepresnum = 1 
DOCKED: USER  
DOCKED: REMARK  10 active torsions:
DOCKED: REMARK  status: ('A' for Active; 'I' for Inactive)
DOCKED: REMARK    1  A    between atoms: C_6  and  C_10 
DOCKED: REMARK    2  A    between atoms: C_10  and  C_11 
DOCKED: REMARK    3  A    between atoms: C_11  and  C_12 
DOCKED: REMARK    4  A    between atoms: C_12  and  O_14 
DOCKED: REMARK    5  A    between atoms: C_17  and  C_20 
DOCKED: REMARK    6  A    between atoms: C_24  and  C_27 
DOCKED: REMARK    7  A    between atoms: C_31  and  C_34 
DOCKED: REMARK    8  A    between atoms: C_34  and  C_35 
DOCKED: REMARK    9  A    between atoms: C_35  and  C_36 
DOCKED: REMARK   10  A    between atoms: C_36  and  O_38 
DOCKED: USER                              x       y       z     vdW  Elec       q    Type
DOCKED: USER                           _______ _______ _______ _____ _____    ______ ____
DOCKED: ROOT
DOCKED: ATOM      1  C   UNL d   1      -9.959   5.504 -12.771 -0.20 +0.01    +0.064 C 
DOCKED: ATOM      2  C   UNL d   1      -7.225   9.127 -10.814 -0.19 +0.00    +0.064 A 
DOCKED: ATOM      3  C   UNL d   1      -5.471  10.070 -15.185 -0.12 -0.01    +0.064 C 
DOCKED: ATOM      4  C   UNL d   1      -8.029   6.500 -17.082 -0.23 -0.01    +0.064 C 
DOCKED: ATOM      5  C   UNL d   1      -9.289   6.381 -11.801 -0.12 +0.01    +0.066 A 
DOCKED: ATOM      6  C   UNL d   1      -9.461   6.319 -10.428 -0.12 -0.01    -0.021 A 
DOCKED: ATOM      7  C   UNL d   1      -8.705   7.328  -9.886 -0.13 -0.01    -0.025 A 
DOCKED: ATOM      8  C   UNL d   1      -8.099   7.968 -10.950 -0.12 +0.01    +0.066 A 
DOCKED: ATOM      9  C   UNL d   1      -8.563   7.640  -8.427 -0.21 +0.01    +0.051 C 
DOCKED: ATOM     10  C   UNL d   1      -6.583   9.726 -11.818 -0.21 -0.01    +0.066 A 
DOCKED: ATOM     11  C   UNL d   1      -5.845  10.903 -11.672 -0.32 +0.00    -0.021 A 
DOCKED: ATOM     12  C   UNL d   1      -5.342  11.206 -12.922 -0.36 -0.00    +0.000 A 
DOCKED: ATOM     13  C   UNL d   1      -5.811  10.192 -13.776 -0.16 -0.01    +0.070 A 
DOCKED: ATOM     14  C   UNL d   1      -5.683  11.737 -10.418 -0.27 -0.01    +0.052 C 
DOCKED: ATOM     15  C   UNL d   1      -5.962   9.126 -16.022 -0.10 -0.01    +0.066 A 
DOCKED: ATOM     16  C   UNL d   1      -5.535   8.982 -17.336 -0.10 +0.00    -0.021 A 
DOCKED: ATOM     17  C   UNL d   1      -6.274   7.956 -17.886 -0.15 -0.00    +0.000 A 
DOCKED: ATOM     18  C   UNL d   1      -7.139   7.499 -16.894 -0.18 -0.01    +0.070 A 
DOCKED: ATOM     19  C   UNL d   1      -4.493   9.794 -18.057 -0.06 -0.01    +0.052 C 
DOCKED: ATOM     20  C   UNL d   1      -8.910   5.952 -16.044 -0.25 +0.00    +0.066 A 
DOCKED: ATOM     21  C   UNL d   1      -9.970   5.062 -16.269 -0.21 -0.01    -0.025 A 
DOCKED: ATOM     22  C   UNL d   1     -10.498   4.782 -15.026 -0.24 -0.01    -0.021 A 
DOCKED: ATOM     23  C   UNL d   1      -9.748   5.512 -14.097 -0.21 +0.01    +0.066 A 
DOCKED: ATOM     24  C   UNL d   1     -10.471   4.503 -17.581 -0.02 +0.02    +0.051 C 
DOCKED: ATOM     25  N   UNL d   1      -8.449   7.383 -12.113 -0.04 -0.02    -0.248 N 
DOCKED: ATOM     26  N   UNL d   1      -6.575   9.295 -13.105 -0.09 +0.02    -0.248 N 
DOCKED: ATOM     27  N   UNL d   1      -6.917   8.188 -15.735 -0.09 +0.03    -0.248 N 
DOCKED: ATOM     28  N   UNL d   1      -8.810   6.259 -14.728 -0.04 -0.02    -0.248 N 
DOCKED: ATOM     29 FE   UNL d   1      -7.693   7.776 -13.919 -0.04 -0.00    +0.000 Fe
DOCKED: ENDROOT
DOCKED: BRANCH   6  30
DOCKED: ATOM     30  C   UNL d   1     -10.286   5.339  -9.666 -0.15 +0.03    +0.052 C 
DOCKED: BRANCH  30  31
DOCKED: ATOM     31  C   UNL d   1     -11.484   6.026  -9.022 -0.07 +0.08    +0.115 C 
DOCKED: BRANCH  31  32
DOCKED: ATOM     32  C   UNL d   1     -11.352   6.020  -7.524 +0.30 +0.21    +0.139 C 
DOCKED: ATOM     33  O   UNL d   1     -10.262   5.855  -6.995 -0.32 -1.20    -0.650 OA
DOCKED: BRANCH  32  34
DOCKED: ATOM     34  O   UNL d   1     -12.436   6.197  -6.750 -0.20 -1.24    -0.776 OA
DOCKED: ATOM     35  H   UNL d   1     -13.088   6.866  -7.002 +0.01 +0.14    +0.167 HD
DOCKED: ENDBRANCH  32  34
DOCKED: ENDBRANCH  31  32
DOCKED: ENDBRANCH  30  31
DOCKED: ENDBRANCH   6  30
DOCKED: BRANCH  22  36
DOCKED: ATOM     36  C   UNL d   1     -11.688   3.899 -14.754 -0.19 +0.03    +0.052 C 
DOCKED: BRANCH  36  37
DOCKED: ATOM     37  C   UNL d   1     -12.936   4.516 -15.370 -0.11 +0.07    +0.115 C 
DOCKED: BRANCH  37  38
DOCKED: ATOM     38  C   UNL d   1     -13.685   3.507 -16.194 +0.05 +0.17    +0.139 C 
DOCKED: ATOM     39  O   UNL d   1     -13.589   3.500 -17.412 -0.56 -0.77    -0.650 OA
DOCKED: BRANCH  38  40
DOCKED: ATOM     40  O   UNL d   1     -14.474   2.601 -15.591 -0.21 -0.98    -0.776 OA
DOCKED: ATOM     41  H   UNL d   1     -15.326   2.884 -15.232 +0.01 +0.11    +0.167 HD
DOCKED: ENDBRANCH  38  40
DOCKED: ENDBRANCH  37  38
DOCKED: ENDBRANCH  36  37
DOCKED: ENDBRANCH  22  36
DOCKED: BRANCH  12  42
DOCKED: ATOM     42  C   UNL d   1      -4.495  12.397 -13.239 -0.50 -0.00    +0.004 C 
DOCKED: ATOM     43  C   UNL d   1      -3.438  12.294 -14.055 -0.46 -0.01    +0.012 C 
DOCKED: ENDBRANCH  12  42
DOCKED: BRANCH  17  44
DOCKED: ATOM     44  C   UNL d   1      -6.147   7.432 -19.265 -0.16 -0.00    +0.004 C 
DOCKED: ATOM     45  C   UNL d   1      -5.111   6.662 -19.612 -0.22 -0.00    +0.012 C 
DOCKED: ENDBRANCH  17  44
DOCKED: TORSDOF 10
DOCKED: TER
DOCKED: ENDMDL
________________________________________________________________________________


	BEGINNING GENETIC ALGORITHM DOCKING 44 of 100
Run: 44 Seed: 248510226 827965627 [ Run 44 of 100 GA/GALS ]
Beginning LAMARCKIAN GENETIC ALGORITHM (LGA), with a maximum of 25000000 energy evaluations.

Final-Value: -12.706


	FINAL GENETIC ALGORITHM DOCKED STATE
	_______________________________________________


Detailed state:  trans -10.650 2.533 -7.782 quatxyzw -0.812269 0.386671 -0.366128 0.238023 center -0.174 -0.001 -0.047 ntor 10 55.8839 -74.8538 -125.9439 -146.2692 135.2668 163.4172 -57.5776 43.3292 -153.9585 -173.0727
State:	-10.650   2.533  -7.782  -0.836  0.398 -0.377 152.460     55.88  -74.85 -125.94 -146.27  135.27  163.42  -57.58   43.33 -153.96 -173.07

DOCKED: MODEL       44
DOCKED: USER    Run = 44
DOCKED: USER    DPF = D:/Protein_go_brrr/autodock/final/mut_K82N/heme_Fe/dock.dpf
DOCKED: USER  
DOCKED: USER    Estimated Free Energy of Binding    =   -7.60 kcal/mol  [=(1)+(2)+(3)-(4)]
DOCKED: USER    Estimated Inhibition Constant, Ki   =    2.68 uM (micromolar)  [Temperature = 298.15 K]
DOCKED: USER    
DOCKED: USER    (1) Final Intermolecular Energy     =  -10.58 kcal/mol
DOCKED: USER        vdW + Hbond + desolv Energy     =   -8.37 kcal/mol
DOCKED: USER        Electrostatic Energy            =   -2.21 kcal/mol
DOCKED: USER    (2) Final Total Internal Energy     =   -2.12 kcal/mol
DOCKED: USER    (3) Torsional Free Energy           =   +2.98 kcal/mol
DOCKED: USER    (4) Unbound System's Energy  [=(2)] =   -2.12 kcal/mol
DOCKED: USER    
DOCKED: USER    
DOCKED: USER    NEWDPF move heme_Fe_opt.pdbqt
DOCKED: USER    NEWDPF about -0.174000 -0.001000 -0.047000
DOCKED: USER    NEWDPF tran0 -10.649703 2.533186 -7.782417
DOCKED: USER    NEWDPF quaternion0 -0.812269 0.386671 -0.366128 0.238023
DOCKED: USER    NEWDPF axisangle0 -0.836305 0.398113 -0.376962 152.460286
DOCKED: USER    NEWDPF quat0 -0.836305 0.398113 -0.376962 152.460286
DOCKED: USER    NEWDPF dihe0 55.88 -74.85 -125.94 -146.27 135.27 163.42 -57.58 43.33 -153.96 -173.07 
DOCKED: USER  keepresnum = 1 
DOCKED: USER  
DOCKED: REMARK  10 active torsions:
DOCKED: REMARK  status: ('A' for Active; 'I' for Inactive)
DOCKED: REMARK    1  A    between atoms: C_6  and  C_10 
DOCKED: REMARK    2  A    between atoms: C_10  and  C_11 
DOCKED: REMARK    3  A    between atoms: C_11  and  C_12 
DOCKED: REMARK    4  A    between atoms: C_12  and  O_14 
DOCKED: REMARK    5  A    between atoms: C_17  and  C_20 
DOCKED: REMARK    6  A    between atoms: C_24  and  C_27 
DOCKED: REMARK    7  A    between atoms: C_31  and  C_34 
DOCKED: REMARK    8  A    between atoms: C_34  and  C_35 
DOCKED: REMARK    9  A    between atoms: C_35  and  C_36 
DOCKED: REMARK   10  A    between atoms: C_36  and  O_38 
DOCKED: USER                              x       y       z     vdW  Elec       q    Type
DOCKED: USER                           _______ _______ _______ _____ _____    ______ ____
DOCKED: ROOT
DOCKED: ATOM      1  C   UNL d   1     -11.241   3.111  -9.661 -0.06 +0.04    +0.064 C 
DOCKED: ATOM      2  C   UNL d   1      -7.072   3.537  -7.040 -0.29 +0.03    +0.064 A 
DOCKED: ATOM      3  C   UNL d   1      -8.734   0.224  -3.986 -0.34 +0.02    +0.064 C 
DOCKED: ATOM      4  C   UNL d   1     -12.821  -0.127  -6.448 -0.13 +0.03    +0.064 C 
DOCKED: ATOM      5  C   UNL d   1      -9.949   3.599  -9.160 +0.01 +0.05    +0.066 A 
DOCKED: ATOM      6  C   UNL d   1      -9.223   4.635  -9.723 -0.21 -0.01    -0.021 A 
DOCKED: ATOM      7  C   UNL d   1      -8.064   4.751  -8.997 -0.27 -0.01    -0.025 A 
DOCKED: ATOM      8  C   UNL d   1      -8.127   3.779  -8.017 -0.30 +0.04    +0.066 A 
DOCKED: ATOM      9  C   UNL d   1      -6.974   5.752  -9.227 -0.27 +0.01    +0.051 C 
DOCKED: ATOM     10  C   UNL d   1      -7.132   2.645  -6.050 -0.36 +0.03    +0.066 A 
DOCKED: ATOM     11  C   UNL d   1      -6.061   2.357  -5.201 -0.42 -0.00    -0.021 A 
DOCKED: ATOM     12  C   UNL d   1      -6.510   1.392  -4.321 -0.48 +0.00    +0.000 A 
DOCKED: ATOM     13  C   UNL d   1      -7.842   1.133  -4.688 -0.34 +0.02    +0.070 A 
DOCKED: ATOM     14  C   UNL d   1      -4.657   2.922  -5.268 -0.33 +0.01    +0.052 C 
DOCKED: ATOM     15  C   UNL d   1     -10.001  -0.067  -4.366 -0.24 +0.02    +0.066 A 
DOCKED: ATOM     16  C   UNL d   1     -10.855  -0.863  -3.613 -0.24 -0.00    -0.021 A 
DOCKED: ATOM     17  C   UNL d   1     -12.033  -0.969  -4.323 -0.14 +0.00    +0.000 A 
DOCKED: ATOM     18  C   UNL d   1     -11.868  -0.237  -5.497 -0.15 +0.03    +0.070 A 
DOCKED: ATOM     19  C   UNL d   1     -10.568  -1.521  -2.290 -0.29 -0.01    +0.052 C 
DOCKED: ATOM     20  C   UNL d   1     -12.706   0.684  -7.666 -0.12 +0.04    +0.066 A 
DOCKED: ATOM     21  C   UNL d   1     -13.596   0.649  -8.749 -0.07 -0.01    -0.025 A 
DOCKED: ATOM     22  C   UNL d   1     -13.133   1.589  -9.647 -0.09 -0.01    -0.021 A 
DOCKED: ATOM     23  C   UNL d   1     -11.983   2.152  -9.083 -0.13 +0.05    +0.066 A 
DOCKED: ATOM     24  C   UNL d   1     -14.816  -0.221  -8.940 -0.03 +0.01    +0.051 C 
DOCKED: ATOM     25  N   UNL d   1      -9.279   3.086  -8.113 -0.15 -0.23    -0.248 N 
DOCKED: ATOM     26  N   UNL d   1      -8.219   1.890  -5.747 -0.22 -0.15    -0.248 N 
DOCKED: ATOM     27  N   UNL d   1     -10.635   0.354  -5.504 -0.13 -0.16    -0.248 N 
DOCKED: ATOM     28  N   UNL d   1     -11.702   1.564  -7.894 -0.09 -0.28    -0.248 N 
DOCKED: ATOM     29 FE   UNL d   1      -9.962   1.726  -6.821 -0.06 +0.00    +0.000 Fe
DOCKED: ENDROOT
DOCKED: BRANCH   6  30
DOCKED: ATOM     30  C   UNL d   1      -9.619   5.489 -10.879 -0.19 +0.01    +0.052 C 
DOCKED: BRANCH  30  31
DOCKED: ATOM     31  C   UNL d   1      -9.722   4.659 -12.153 -0.19 +0.03    +0.115 C 
DOCKED: BRANCH  31  32
DOCKED: ATOM     32  C   UNL d   1     -11.098   4.776 -12.748 -0.15 +0.04    +0.139 C 
DOCKED: ATOM     33  O   UNL d   1     -11.245   4.953 -13.949 -0.00 -0.21    -0.650 OA
DOCKED: BRANCH  32  34
DOCKED: ATOM     34  O   UNL d   1     -12.183   4.686 -11.961 +0.03 -0.25    -0.776 OA
DOCKED: ATOM     35  H   UNL d   1     -12.857   4.023 -12.164 +0.03 +0.06    +0.167 HD
DOCKED: ENDBRANCH  32  34
DOCKED: ENDBRANCH  31  32
DOCKED: ENDBRANCH  30  31
DOCKED: ENDBRANCH   6  30
DOCKED: BRANCH  22  36
DOCKED: ATOM     36  C   UNL d   1     -13.738   1.891 -10.993 -0.06 +0.02    +0.052 C 
DOCKED: BRANCH  36  37
DOCKED: ATOM     37  C   UNL d   1     -13.370   0.792 -11.979 -0.11 +0.05    +0.115 C 
DOCKED: BRANCH  37  38
DOCKED: ATOM     38  C   UNL d   1     -12.990   1.370 -13.313 -0.16 +0.12    +0.139 C 
DOCKED: ATOM     39  O   UNL d   1     -12.382   0.699 -14.134 -0.54 -1.16    -0.650 OA
DOCKED: BRANCH  38  40
DOCKED: ATOM     40  O   UNL d   1     -13.315   2.640 -13.611 -0.01 -0.57    -0.776 OA
DOCKED: ATOM     41  H   UNL d   1     -12.625   3.318 -13.597 +0.03 +0.10    +0.167 HD
DOCKED: ENDBRANCH  38  40
DOCKED: ENDBRANCH  37  38
DOCKED: ENDBRANCH  36  37
DOCKED: ENDBRANCH  22  36
DOCKED: BRANCH  12  42
DOCKED: ATOM     42  C   UNL d   1      -5.687   0.774  -3.236 -0.42 +0.00    +0.004 C 
DOCKED: ATOM     43  C   UNL d   1      -4.788  -0.180  -3.510 -0.57 +0.00    +0.012 C 
DOCKED: ENDBRANCH  12  42
DOCKED: BRANCH  17  44
DOCKED: ATOM     44  C   UNL d   1     -13.244  -1.705  -3.897 -0.07 -0.00    +0.004 C 
DOCKED: ATOM     45  C   UNL d   1     -13.433  -2.979  -4.256 -0.05 -0.00    +0.012 C 
DOCKED: ENDBRANCH  17  44
DOCKED: TORSDOF 10
DOCKED: TER
DOCKED: ENDMDL
________________________________________________________________________________


	BEGINNING GENETIC ALGORITHM DOCKING 45 of 100
Run: 45 Seed: 757678781 1995329150 [ Run 45 of 100 GA/GALS ]
Beginning LAMARCKIAN GENETIC ALGORITHM (LGA), with a maximum of 25000000 energy evaluations.

Final-Value: -11.322


	FINAL GENETIC ALGORITHM DOCKED STATE
	_______________________________________________


Detailed state:  trans -8.827 7.346 -14.316 quatxyzw -0.545918 -0.258475 -0.138249 0.784890 center -0.174 -0.001 -0.047 ntor 10 -99.7756 177.6280 -162.1574 170.6873 -127.1814 -77.5239 -21.8824 -54.1811 42.7241 -177.8757
State:	 -8.827   7.346 -14.316  -0.881 -0.417 -0.223 76.579    -99.78  177.63 -162.16  170.69 -127.18  -77.52  -21.88  -54.18   42.72 -177.88

DOCKED: MODEL       45
DOCKED: USER    Run = 45
DOCKED: USER    DPF = D:/Protein_go_brrr/autodock/final/mut_K82N/heme_Fe/dock.dpf
DOCKED: USER  
DOCKED: USER    Estimated Free Energy of Binding    =   -7.87 kcal/mol  [=(1)+(2)+(3)-(4)]
DOCKED: USER    Estimated Inhibition Constant, Ki   =    1.70 uM (micromolar)  [Temperature = 298.15 K]
DOCKED: USER    
DOCKED: USER    (1) Final Intermolecular Energy     =  -10.85 kcal/mol
DOCKED: USER        vdW + Hbond + desolv Energy     =   -7.63 kcal/mol
DOCKED: USER        Electrostatic Energy            =   -3.23 kcal/mol
DOCKED: USER    (2) Final Total Internal Energy     =   -0.47 kcal/mol
DOCKED: USER    (3) Torsional Free Energy           =   +2.98 kcal/mol
DOCKED: USER    (4) Unbound System's Energy  [=(2)] =   -0.47 kcal/mol
DOCKED: USER    
DOCKED: USER    
DOCKED: USER    NEWDPF move heme_Fe_opt.pdbqt
DOCKED: USER    NEWDPF about -0.174000 -0.001000 -0.047000
DOCKED: USER    NEWDPF tran0 -8.826584 7.345795 -14.316327
DOCKED: USER    NEWDPF quaternion0 -0.545918 -0.258475 -0.138249 0.784890
DOCKED: USER    NEWDPF axisangle0 -0.881030 -0.417141 -0.223113 76.579079
DOCKED: USER    NEWDPF quat0 -0.881030 -0.417141 -0.223113 76.579079
DOCKED: USER    NEWDPF dihe0 -99.78 177.63 -162.16 170.69 -127.18 -77.52 -21.88 -54.18 42.72 -177.88 
DOCKED: USER  keepresnum = 1 
DOCKED: USER  
DOCKED: REMARK  10 active torsions:
DOCKED: REMARK  status: ('A' for Active; 'I' for Inactive)
DOCKED: REMARK    1  A    between atoms: C_6  and  C_10 
DOCKED: REMARK    2  A    between atoms: C_10  and  C_11 
DOCKED: REMARK    3  A    between atoms: C_11  and  C_12 
DOCKED: REMARK    4  A    between atoms: C_12  and  O_14 
DOCKED: REMARK    5  A    between atoms: C_17  and  C_20 
DOCKED: REMARK    6  A    between atoms: C_24  and  C_27 
DOCKED: REMARK    7  A    between atoms: C_31  and  C_34 
DOCKED: REMARK    8  A    between atoms: C_34  and  C_35 
DOCKED: REMARK    9  A    between atoms: C_35  and  C_36 
DOCKED: REMARK   10  A    between atoms: C_36  and  O_38 
DOCKED: USER                              x       y       z     vdW  Elec       q    Type
DOCKED: USER                           _______ _______ _______ _____ _____    ______ ____
DOCKED: ROOT
DOCKED: ATOM      1  C   UNL d   1     -10.175   5.917 -13.723 -0.17 +0.01    +0.064 C 
DOCKED: ATOM      2  C   UNL d   1      -7.475   6.677 -17.793 -0.09 -0.01    +0.064 A 
DOCKED: ATOM      3  C   UNL d   1      -4.818   9.849 -15.354 -0.15 -0.02    +0.064 C 
DOCKED: ATOM      4  C   UNL d   1      -7.483   9.207 -11.434 -0.18 +0.00    +0.064 C 
DOCKED: ATOM      5  C   UNL d   1      -9.714   5.899 -15.118 -0.20 +0.01    +0.066 A 
DOCKED: ATOM      6  C   UNL d   1     -10.315   5.182 -16.140 -0.21 -0.01    -0.021 A 
DOCKED: ATOM      7  C   UNL d   1      -9.562   5.391 -17.269 -0.22 -0.00    -0.025 A 
DOCKED: ATOM      8  C   UNL d   1      -8.530   6.228 -16.892 -0.23 -0.00    +0.066 A 
DOCKED: ATOM      9  C   UNL d   1      -9.838   4.830 -18.630 -0.21 +0.01    +0.051 C 
DOCKED: ATOM     10  C   UNL d   1      -6.501   7.529 -17.470 -0.16 -0.02    +0.066 A 
DOCKED: ATOM     11  C   UNL d   1      -5.440   7.851 -18.319 -0.15 +0.01    -0.021 A 
DOCKED: ATOM     12  C   UNL d   1      -4.650   8.752 -17.633 -0.13 -0.00    +0.000 A 
DOCKED: ATOM     13  C   UNL d   1      -5.272   8.928 -16.385 -0.12 -0.01    +0.070 A 
DOCKED: ATOM     14  C   UNL d   1      -5.155   7.277 -19.692 -0.18 -0.01    +0.052 C 
DOCKED: ATOM     15  C   UNL d   1      -5.383   9.984 -14.131 -0.17 -0.01    +0.066 A 
DOCKED: ATOM     16  C   UNL d   1      -4.981  10.945 -13.212 -0.31 +0.01    -0.021 A 
DOCKED: ATOM     17  C   UNL d   1      -5.746  10.759 -12.079 -0.32 -0.00    +0.000 A 
DOCKED: ATOM     18  C   UNL d   1      -6.595   9.685 -12.333 -0.19 -0.01    +0.070 A 
DOCKED: ATOM     19  C   UNL d   1      -3.904  11.982 -13.380 -0.47 -0.02    +0.052 C 
DOCKED: ATOM     20  C   UNL d   1      -8.435   8.118 -11.687 -0.09 +0.01    +0.066 A 
DOCKED: ATOM     21  C   UNL d   1      -9.216   7.482 -10.712 -0.09 -0.00    -0.025 A 
DOCKED: ATOM     22  C   UNL d   1      -9.985   6.557 -11.388 -0.10 -0.00    -0.021 A 
DOCKED: ATOM     23  C   UNL d   1      -9.639   6.660 -12.741 -0.11 +0.01    +0.066 A 
DOCKED: ATOM     24  C   UNL d   1      -9.243   7.723  -9.220 -0.12 +0.01    +0.051 C 
DOCKED: ATOM     25  N   UNL d   1      -8.630   6.543 -15.585 -0.14 -0.01    -0.248 N 
DOCKED: ATOM     26  N   UNL d   1      -6.395   8.176 -16.281 -0.11 +0.04    -0.248 N 
DOCKED: ATOM     27  N   UNL d   1      -6.403   9.235 -13.610 -0.08 +0.03    -0.248 N 
DOCKED: ATOM     28  N   UNL d   1      -8.661   7.582 -12.911 -0.04 -0.02    -0.248 N 
DOCKED: ATOM     29 FE   UNL d   1      -7.528   7.880 -14.594 -0.04 -0.00    +0.000 Fe
DOCKED: ENDROOT
DOCKED: BRANCH   6  30
DOCKED: ATOM     30  C   UNL d   1     -11.554   4.358 -16.055 -0.10 +0.03    +0.052 C 
DOCKED: BRANCH  30  31
DOCKED: ATOM     31  C   UNL d   1     -12.503   4.690 -17.201 -0.12 +0.07    +0.115 C 
DOCKED: BRANCH  31  32
DOCKED: ATOM     32  C   UNL d   1     -13.458   3.553 -17.440 +0.09 +0.16    +0.139 C 
DOCKED: ATOM     33  O   UNL d   1     -13.587   3.072 -18.556 -0.20 -0.64    -0.650 OA
DOCKED: BRANCH  32  34
DOCKED: ATOM     34  O   UNL d   1     -14.181   3.055 -16.423 -0.50 -1.08    -0.776 OA
DOCKED: ATOM     35  H   UNL d   1     -14.981   3.521 -16.143 +0.01 +0.11    +0.167 HD
DOCKED: ENDBRANCH  32  34
DOCKED: ENDBRANCH  31  32
DOCKED: ENDBRANCH  30  31
DOCKED: ENDBRANCH   6  30
DOCKED: BRANCH  22  36
DOCKED: ATOM     36  C   UNL d   1     -10.960   5.596 -10.760 -0.10 +0.02    +0.052 C 
DOCKED: BRANCH  36  37
DOCKED: ATOM     37  C   UNL d   1     -10.209   4.397 -10.200 -0.17 +0.05    +0.115 C 
DOCKED: BRANCH  37  38
DOCKED: ATOM     38  C   UNL d   1     -10.524   4.196  -8.745 -0.11 +0.15    +0.139 C 
DOCKED: ATOM     39  O   UNL d   1     -10.008   4.901  -7.890 -0.33 -1.01    -0.650 OA
DOCKED: BRANCH  38  40
DOCKED: ATOM     40  O   UNL d   1     -11.381   3.229  -8.371 -0.07 -1.23    -0.776 OA
DOCKED: ATOM     41  H   UNL d   1     -11.815   2.697  -9.052 +0.03 +0.15    +0.167 HD
DOCKED: ENDBRANCH  38  40
DOCKED: ENDBRANCH  37  38
DOCKED: ENDBRANCH  36  37
DOCKED: ENDBRANCH  22  36
DOCKED: BRANCH  12  42
DOCKED: ATOM     42  C   UNL d   1      -3.390   9.361 -18.161 -0.10 -0.00    +0.004 C 
DOCKED: ATOM     43  C   UNL d   1      -2.205   9.091 -17.598 -0.18 -0.00    +0.012 C 
DOCKED: ENDBRANCH  12  42
DOCKED: BRANCH  17  44
DOCKED: ATOM     44  C   UNL d   1      -5.684  11.571 -10.843 -0.48 -0.00    +0.004 C 
DOCKED: ATOM     45  C   UNL d   1      -5.683  10.987  -9.640 -0.52 -0.00    +0.012 C 
DOCKED: ENDBRANCH  17  44
DOCKED: TORSDOF 10
DOCKED: TER
DOCKED: ENDMDL
________________________________________________________________________________


	BEGINNING GENETIC ALGORITHM DOCKING 46 of 100
Run: 46 Seed: 1249093411 328778081 [ Run 46 of 100 GA/GALS ]
Beginning LAMARCKIAN GENETIC ALGORITHM (LGA), with a maximum of 25000000 energy evaluations.

Final-Value: -9.879


	FINAL GENETIC ALGORITHM DOCKED STATE
	_______________________________________________


Detailed state:  trans 10.050 -11.230 -3.259 quatxyzw 0.503301 0.399692 -0.515499 0.566740 center -0.174 -0.001 -0.047 ntor 10 44.9039 -66.6829 -140.7262 -153.7569 -113.3974 -128.0635 -104.8220 33.7822 149.6806 -180.0000
State:	 10.050 -11.230  -3.259   0.611  0.485 -0.626 110.954     44.90  -66.68 -140.73 -153.76 -113.40 -128.06 -104.82   33.78  149.68 -180.00

DOCKED: MODEL       46
DOCKED: USER    Run = 46
DOCKED: USER    DPF = D:/Protein_go_brrr/autodock/final/mut_K82N/heme_Fe/dock.dpf
DOCKED: USER  
DOCKED: USER    Estimated Free Energy of Binding    =   -5.39 kcal/mol  [=(1)+(2)+(3)-(4)]
DOCKED: USER    Estimated Inhibition Constant, Ki   =  112.91 uM (micromolar)  [Temperature = 298.15 K]
DOCKED: USER    
DOCKED: USER    (1) Final Intermolecular Energy     =   -8.37 kcal/mol
DOCKED: USER        vdW + Hbond + desolv Energy     =   -7.00 kcal/mol
DOCKED: USER        Electrostatic Energy            =   -1.37 kcal/mol
DOCKED: USER    (2) Final Total Internal Energy     =   -1.51 kcal/mol
DOCKED: USER    (3) Torsional Free Energy           =   +2.98 kcal/mol
DOCKED: USER    (4) Unbound System's Energy  [=(2)] =   -1.51 kcal/mol
DOCKED: USER    
DOCKED: USER    
DOCKED: USER    NEWDPF move heme_Fe_opt.pdbqt
DOCKED: USER    NEWDPF about -0.174000 -0.001000 -0.047000
DOCKED: USER    NEWDPF tran0 10.049562 -11.229545 -3.258849
DOCKED: USER    NEWDPF quaternion0 0.503301 0.399692 -0.515499 0.566740
DOCKED: USER    NEWDPF axisangle0 0.610879 0.485124 -0.625685 110.953566
DOCKED: USER    NEWDPF quat0 0.610879 0.485124 -0.625685 110.953566
DOCKED: USER    NEWDPF dihe0 44.90 -66.68 -140.73 -153.76 -113.40 -128.06 -104.82 33.78 149.68 -180.00 
DOCKED: USER  keepresnum = 1 
DOCKED: USER  
DOCKED: REMARK  10 active torsions:
DOCKED: REMARK  status: ('A' for Active; 'I' for Inactive)
DOCKED: REMARK    1  A    between atoms: C_6  and  C_10 
DOCKED: REMARK    2  A    between atoms: C_10  and  C_11 
DOCKED: REMARK    3  A    between atoms: C_11  and  C_12 
DOCKED: REMARK    4  A    between atoms: C_12  and  O_14 
DOCKED: REMARK    5  A    between atoms: C_17  and  C_20 
DOCKED: REMARK    6  A    between atoms: C_24  and  C_27 
DOCKED: REMARK    7  A    between atoms: C_31  and  C_34 
DOCKED: REMARK    8  A    between atoms: C_34  and  C_35 
DOCKED: REMARK    9  A    between atoms: C_35  and  C_36 
DOCKED: REMARK   10  A    between atoms: C_36  and  O_38 
DOCKED: USER                              x       y       z     vdW  Elec       q    Type
DOCKED: USER                           _______ _______ _______ _____ _____    ______ ____
DOCKED: ROOT
DOCKED: ATOM      1  C   UNL d   1       9.248 -13.098  -2.978 -0.06 +0.01    +0.064 C 
DOCKED: ATOM      2  C   UNL d   1      10.586  -9.398   0.015 -0.18 +0.00    +0.064 A 
DOCKED: ATOM      3  C   UNL d   1      10.746  -6.471  -3.789 -0.15 +0.00    +0.064 C 
DOCKED: ATOM      4  C   UNL d   1       9.554 -10.061  -6.718 -0.07 +0.00    +0.064 C 
DOCKED: ATOM      5  C   UNL d   1       9.691 -12.348  -1.794 -0.05 +0.01    +0.066 A 
DOCKED: ATOM      6  C   UNL d   1       9.876 -12.895  -0.535 -0.09 -0.00    -0.021 A 
DOCKED: ATOM      7  C   UNL d   1      10.244 -11.866   0.296 -0.15 -0.00    -0.025 A 
DOCKED: ATOM      8  C   UNL d   1      10.270 -10.729  -0.489 -0.13 +0.01    +0.066 A 
DOCKED: ATOM      9  C   UNL d   1      10.569 -11.982   1.754 -0.11 +0.01    +0.051 C 
DOCKED: ATOM     10  C   UNL d   1      10.673  -8.296  -0.731 -0.05 +0.00    +0.066 A 
DOCKED: ATOM     11  C   UNL d   1      10.865  -7.017  -0.203 -0.20 +0.00    -0.021 A 
DOCKED: ATOM     12  C   UNL d   1      10.898  -6.152  -1.279 -0.16 +0.00    +0.000 A 
DOCKED: ATOM     13  C   UNL d   1      10.714  -6.955  -2.418 -0.06 +0.00    +0.070 A 
DOCKED: ATOM     14  C   UNL d   1      10.944  -6.628   1.259 -0.32 -0.00    +0.052 C 
DOCKED: ATOM     15  C   UNL d   1      10.518  -7.231  -4.886 -0.12 -0.00    +0.066 A 
DOCKED: ATOM     16  C   UNL d   1      10.655  -6.753  -6.183 -0.10 +0.00    -0.021 A 
DOCKED: ATOM     17  C   UNL d   1      10.309  -7.785  -7.029 -0.10 -0.00    +0.000 A 
DOCKED: ATOM     18  C   UNL d   1       9.964  -8.871  -6.227 -0.10 -0.00    +0.070 A 
DOCKED: ATOM     19  C   UNL d   1      11.071  -5.371  -6.612 -0.11 -0.00    +0.052 C 
DOCKED: ATOM     20  C   UNL d   1       9.242 -11.244  -5.907 +0.01 +0.01    +0.066 A 
DOCKED: ATOM     21  C   UNL d   1       8.630 -12.412  -6.381 -0.07 -0.00    -0.025 A 
DOCKED: ATOM     22  C   UNL d   1       8.564 -13.269  -5.301 -0.05 -0.00    -0.021 A 
DOCKED: ATOM     23  C   UNL d   1       9.130 -12.591  -4.215 -0.05 +0.01    +0.066 A 
DOCKED: ATOM     24  C   UNL d   1       8.125 -12.715  -7.773 -0.06 +0.00    +0.051 C 
DOCKED: ATOM     25  N   UNL d   1       9.942 -11.027  -1.762 -0.04 -0.02    -0.248 N 
DOCKED: ATOM     26  N   UNL d   1      10.569  -8.261  -2.084 -0.04 -0.01    -0.248 N 
DOCKED: ATOM     27  N   UNL d   1      10.134  -8.545  -4.910 -0.09 -0.00    -0.248 N 
DOCKED: ATOM     28  N   UNL d   1       9.501 -11.339  -4.580 -0.05 -0.03    -0.248 N 
DOCKED: ATOM     29 FE   UNL d   1      10.035  -9.800  -3.334 -0.03 +0.00    +0.000 Fe
DOCKED: ENDROOT
DOCKED: BRANCH   6  30
DOCKED: ATOM     30  C   UNL d   1       9.733 -14.326  -0.144 -0.12 +0.01    +0.052 C 
DOCKED: BRANCH  30  31
DOCKED: ATOM     31  C   UNL d   1       8.680 -14.484   0.947 -0.31 +0.03    +0.115 C 
DOCKED: BRANCH  31  32
DOCKED: ATOM     32  C   UNL d   1       7.299 -14.348   0.369 -0.20 +0.05    +0.139 C 
DOCKED: ATOM     33  O   UNL d   1       6.586 -13.401   0.673 -0.44 -0.25    -0.650 OA
DOCKED: BRANCH  32  34
DOCKED: ATOM     34  O   UNL d   1       6.833 -15.270  -0.490 -0.41 -0.25    -0.776 OA
DOCKED: ATOM     35  H   UNL d   1       6.376 -14.977  -1.291 -0.50 +0.02    +0.167 HD
DOCKED: ENDBRANCH  32  34
DOCKED: ENDBRANCH  31  32
DOCKED: ENDBRANCH  30  31
DOCKED: ENDBRANCH   6  30
DOCKED: BRANCH  22  36
DOCKED: ATOM     36  C   UNL d   1       7.946 -14.642  -5.305 -0.03 +0.01    +0.052 C 
DOCKED: BRANCH  36  37
DOCKED: ATOM     37  C   UNL d   1       6.442 -14.529  -5.109 -0.11 +0.05    +0.115 C 
DOCKED: BRANCH  37  38
DOCKED: ATOM     38  C   UNL d   1       5.908 -15.705  -4.341 -0.15 +0.10    +0.139 C 
DOCKED: ATOM     39  O   UNL d   1       4.965 -16.355  -4.768 -0.55 -0.88    -0.650 OA
DOCKED: BRANCH  38  40
DOCKED: ATOM     40  O   UNL d   1       6.468 -16.050  -3.168 +0.01 -0.25    -0.776 OA
DOCKED: ATOM     41  H   UNL d   1       5.953 -15.952  -2.355 -0.50 +0.01    +0.167 HD
DOCKED: ENDBRANCH  38  40
DOCKED: ENDBRANCH  37  38
DOCKED: ENDBRANCH  36  37
DOCKED: ENDBRANCH  22  36
DOCKED: BRANCH  12  42
DOCKED: ATOM     42  C   UNL d   1      11.075  -4.670  -1.181 -0.29 +0.00    +0.004 C 
DOCKED: ATOM     43  C   UNL d   1      10.016  -3.852  -1.122 -0.45 +0.00    +0.012 C 
DOCKED: ENDBRANCH  12  42
DOCKED: BRANCH  17  44
DOCKED: ATOM     44  C   UNL d   1      10.327  -7.743  -8.509 -0.07 -0.00    +0.004 C 
DOCKED: ATOM     45  C   UNL d   1       9.200  -7.550  -9.202 -0.10 -0.00    +0.012 C 
DOCKED: ENDBRANCH  17  44
DOCKED: TORSDOF 10
DOCKED: TER
DOCKED: ENDMDL
________________________________________________________________________________


	BEGINNING GENETIC ALGORITHM DOCKING 47 of 100
Run: 47 Seed: 1713838072 890441265 [ Run 47 of 100 GA/GALS ]
Beginning LAMARCKIAN GENETIC ALGORITHM (LGA), with a maximum of 25000000 energy evaluations.

Final-Value: -10.926


	FINAL GENETIC ALGORITHM DOCKED STATE
	_______________________________________________


Detailed state:  trans 11.059 3.572 13.761 quatxyzw -0.124370 0.575100 0.187071 -0.786636 center -0.174 -0.001 -0.047 ntor 10 62.5753 106.3114 56.7248 -2.7066 -109.4034 6.5176 -81.1423 35.4342 165.6501 143.1485
State:	 11.059   3.572  13.761  -0.201  0.931  0.303 -76.255     62.58  106.31   56.72   -2.71 -109.40    6.52  -81.14   35.43  165.65  143.15

DOCKED: MODEL       47
DOCKED: USER    Run = 47
DOCKED: USER    DPF = D:/Protein_go_brrr/autodock/final/mut_K82N/heme_Fe/dock.dpf
DOCKED: USER  
DOCKED: USER    Estimated Free Energy of Binding    =   -5.49 kcal/mol  [=(1)+(2)+(3)-(4)]
DOCKED: USER    Estimated Inhibition Constant, Ki   =   94.78 uM (micromolar)  [Temperature = 298.15 K]
DOCKED: USER    
DOCKED: USER    (1) Final Intermolecular Energy     =   -8.47 kcal/mol
DOCKED: USER        vdW + Hbond + desolv Energy     =   -7.97 kcal/mol
DOCKED: USER        Electrostatic Energy            =   -0.50 kcal/mol
DOCKED: USER    (2) Final Total Internal Energy     =   -2.45 kcal/mol
DOCKED: USER    (3) Torsional Free Energy           =   +2.98 kcal/mol
DOCKED: USER    (4) Unbound System's Energy  [=(2)] =   -2.45 kcal/mol
DOCKED: USER    
DOCKED: USER    
DOCKED: USER    NEWDPF move heme_Fe_opt.pdbqt
DOCKED: USER    NEWDPF about -0.174000 -0.001000 -0.047000
DOCKED: USER    NEWDPF tran0 11.059399 3.572362 13.761366
DOCKED: USER    NEWDPF quaternion0 -0.124370 0.575100 0.187071 -0.786636
DOCKED: USER    NEWDPF axisangle0 -0.201436 0.931462 0.302989 -76.255486
DOCKED: USER    NEWDPF quat0 -0.201436 0.931462 0.302989 -76.255486
DOCKED: USER    NEWDPF dihe0 62.58 106.31 56.72 -2.71 -109.40 6.52 -81.14 35.43 165.65 143.15 
DOCKED: USER  keepresnum = 1 
DOCKED: USER  
DOCKED: REMARK  10 active torsions:
DOCKED: REMARK  status: ('A' for Active; 'I' for Inactive)
DOCKED: REMARK    1  A    between atoms: C_6  and  C_10 
DOCKED: REMARK    2  A    between atoms: C_10  and  C_11 
DOCKED: REMARK    3  A    between atoms: C_11  and  C_12 
DOCKED: REMARK    4  A    between atoms: C_12  and  O_14 
DOCKED: REMARK    5  A    between atoms: C_17  and  C_20 
DOCKED: REMARK    6  A    between atoms: C_24  and  C_27 
DOCKED: REMARK    7  A    between atoms: C_31  and  C_34 
DOCKED: REMARK    8  A    between atoms: C_34  and  C_35 
DOCKED: REMARK    9  A    between atoms: C_35  and  C_36 
DOCKED: REMARK   10  A    between atoms: C_36  and  O_38 
DOCKED: USER                              x       y       z     vdW  Elec       q    Type
DOCKED: USER                           _______ _______ _______ _____ _____    ______ ____
DOCKED: ROOT
DOCKED: ATOM      1  C   UNL d   1      11.010   3.438  15.808 -0.28 -0.01    +0.064 C 
DOCKED: ATOM      2  C   UNL d   1      13.278   0.922  12.210 -0.17 -0.01    +0.064 A 
DOCKED: ATOM      3  C   UNL d   1      12.251   4.489   9.162 -0.18 -0.00    +0.064 C 
DOCKED: ATOM      4  C   UNL d   1       9.960   6.893  12.605 -0.26 +0.00    +0.064 C 
DOCKED: ATOM      5  C   UNL d   1      11.671   2.361  15.058 -0.25 -0.01    +0.066 A 
DOCKED: ATOM      6  C   UNL d   1      12.016   1.128  15.585 -0.29 +0.00    -0.021 A 
DOCKED: ATOM      7  C   UNL d   1      12.650   0.431  14.586 -0.26 +0.01    -0.025 A 
DOCKED: ATOM      8  C   UNL d   1      12.666   1.267  13.487 -0.19 -0.01    +0.066 A 
DOCKED: ATOM      9  C   UNL d   1      13.187  -0.964  14.687 -0.38 -0.01    +0.051 C 
DOCKED: ATOM     10  C   UNL d   1      13.257   1.686  11.117 -0.16 -0.01    +0.066 A 
DOCKED: ATOM     11  C   UNL d   1      13.951   1.379   9.943 -0.13 +0.00    -0.021 A 
DOCKED: ATOM     12  C   UNL d   1      13.685   2.401   9.054 -0.13 -0.00    +0.000 A 
DOCKED: ATOM     13  C   UNL d   1      12.841   3.292   9.741 -0.13 -0.00    +0.070 A 
DOCKED: ATOM     14  C   UNL d   1      14.877   0.204   9.704 -0.03 -0.00    +0.052 C 
DOCKED: ATOM     15  C   UNL d   1      11.481   5.376   9.834 -0.20 -0.00    +0.066 A 
DOCKED: ATOM     16  C   UNL d   1      10.855   6.454   9.221 -0.23 -0.00    -0.021 A 
DOCKED: ATOM     17  C   UNL d   1      10.196   7.151  10.213 -0.30 +0.00    +0.000 A 
DOCKED: ATOM     18  C   UNL d   1      10.440   6.483  11.411 -0.27 -0.00    +0.070 A 
DOCKED: ATOM     19  C   UNL d   1      10.893   6.832   7.765 -0.03 +0.01    +0.052 C 
DOCKED: ATOM     20  C   UNL d   1      10.144   6.182  13.876 -0.24 -0.01    +0.066 A 
DOCKED: ATOM     21  C   UNL d   1       9.828   6.693  15.143 -0.28 +0.00    -0.025 A 
DOCKED: ATOM     22  C   UNL d   1      10.123   5.687  16.040 -0.24 +0.00    -0.021 A 
DOCKED: ATOM     23  C   UNL d   1      10.611   4.610  15.289 -0.23 -0.01    +0.066 A 
DOCKED: ATOM     24  C   UNL d   1       9.280   8.055  15.501 -0.26 -0.00    +0.051 C 
DOCKED: ATOM     25  N   UNL d   1      12.061   2.437  13.774 -0.10 +0.03    -0.248 N 
DOCKED: ATOM     26  N   UNL d   1      12.588   2.861  11.001 -0.08 +0.02    -0.248 N 
DOCKED: ATOM     27  N   UNL d   1      11.193   5.367  11.173 -0.14 +0.01    -0.248 N 
DOCKED: ATOM     28  N   UNL d   1      10.664   4.935  13.975 -0.17 +0.04    -0.248 N 
DOCKED: ATOM     29 FE   UNL d   1      11.625   3.900  12.488 -0.05 -0.00    +0.000 Fe
DOCKED: ENDROOT
DOCKED: BRANCH   6  30
DOCKED: ATOM     30  C   UNL d   1      11.741   0.626  16.962 -0.37 -0.01    +0.052 C 
DOCKED: BRANCH  30  31
DOCKED: ATOM     31  C   UNL d   1      13.010   0.642  17.806 -0.20 -0.00    +0.115 C 
DOCKED: BRANCH  31  32
DOCKED: ATOM     32  C   UNL d   1      13.044   1.865  18.681 -0.16 +0.01    +0.139 C 
DOCKED: ATOM     33  O   UNL d   1      13.837   2.769  18.459 +0.03 -0.05    -0.650 OA
DOCKED: BRANCH  32  34
DOCKED: ATOM     34  O   UNL d   1      12.199   1.974  19.720 -0.00 -0.17    -0.776 OA
DOCKED: ATOM     35  H   UNL d   1      11.551   2.693  19.725 +0.03 +0.04    +0.167 HD
DOCKED: ENDBRANCH  32  34
DOCKED: ENDBRANCH  31  32
DOCKED: ENDBRANCH  30  31
DOCKED: ENDBRANCH   6  30
DOCKED: BRANCH  22  36
DOCKED: ATOM     36  C   UNL d   1       9.989   5.776  17.537 -0.14 +0.00    +0.052 C 
DOCKED: BRANCH  36  37
DOCKED: ATOM     37  C   UNL d   1      11.346   5.554  18.188 -0.11 +0.01    +0.115 C 
DOCKED: BRANCH  37  38
DOCKED: ATOM     38  C   UNL d   1      11.205   4.826  19.495 -0.19 +0.03    +0.139 C 
DOCKED: ATOM     39  O   UNL d   1      10.121   4.388  19.852 -0.08 -0.21    -0.650 OA
DOCKED: BRANCH  38  40
DOCKED: ATOM     40  O   UNL d   1      12.278   4.653  20.287 -0.00 -0.23    -0.776 OA
DOCKED: ATOM     41  H   UNL d   1      12.949   4.004  20.034 +0.03 +0.04    +0.167 HD
DOCKED: ENDBRANCH  38  40
DOCKED: ENDBRANCH  37  38
DOCKED: ENDBRANCH  36  37
DOCKED: ENDBRANCH  22  36
DOCKED: BRANCH  12  42
DOCKED: ATOM     42  C   UNL d   1      14.232   2.492   7.665 -0.11 +0.00    +0.004 C 
DOCKED: ATOM     43  C   UNL d   1      13.464   2.221   6.602 -0.17 +0.00    +0.012 C 
DOCKED: ENDBRANCH  12  42
DOCKED: BRANCH  17  44
DOCKED: ATOM     44  C   UNL d   1       9.370   8.365  10.024 -0.36 +0.00    +0.004 C 
DOCKED: ATOM     45  C   UNL d   1       8.399   8.396   9.106 -0.48 +0.00    +0.012 C 
DOCKED: ENDBRANCH  17  44
DOCKED: TORSDOF 10
DOCKED: TER
DOCKED: ENDMDL
________________________________________________________________________________


	BEGINNING GENETIC ALGORITHM DOCKING 48 of 100
Run: 48 Seed: 582725295 1811481516 [ Run 48 of 100 GA/GALS ]
Beginning LAMARCKIAN GENETIC ALGORITHM (LGA), with a maximum of 25000000 energy evaluations.

Final-Value: -16.463


	FINAL GENETIC ALGORITHM DOCKED STATE
	_______________________________________________


Detailed state:  trans -5.534 2.959 -6.958 quatxyzw -0.349874 -0.155759 -0.152601 -0.911065 center -0.174 -0.001 -0.047 ntor 10 65.0309 147.2652 77.7740 -107.0974 -71.3466 -169.2335 41.4679 79.5273 -33.3120 176.0132
State:	 -5.534   2.959  -6.958  -0.849 -0.378 -0.370 -48.694     65.03  147.27   77.77 -107.10  -71.35 -169.23   41.47   79.53  -33.31  176.01

DOCKED: MODEL       48
DOCKED: USER    Run = 48
DOCKED: USER    DPF = D:/Protein_go_brrr/autodock/final/mut_K82N/heme_Fe/dock.dpf
DOCKED: USER  
DOCKED: USER    Estimated Free Energy of Binding    =  -11.87 kcal/mol  [=(1)+(2)+(3)-(4)]
DOCKED: USER    Estimated Inhibition Constant, Ki   =    1.99 nM (nanomolar)  [Temperature = 298.15 K]
DOCKED: USER    
DOCKED: USER    (1) Final Intermolecular Energy     =  -14.85 kcal/mol
DOCKED: USER        vdW + Hbond + desolv Energy     =  -12.02 kcal/mol
DOCKED: USER        Electrostatic Energy            =   -2.84 kcal/mol
DOCKED: USER    (2) Final Total Internal Energy     =   -1.61 kcal/mol
DOCKED: USER    (3) Torsional Free Energy           =   +2.98 kcal/mol
DOCKED: USER    (4) Unbound System's Energy  [=(2)] =   -1.61 kcal/mol
DOCKED: USER    
DOCKED: USER    
DOCKED: USER    NEWDPF move heme_Fe_opt.pdbqt
DOCKED: USER    NEWDPF about -0.174000 -0.001000 -0.047000
DOCKED: USER    NEWDPF tran0 -5.534262 2.958572 -6.958407
DOCKED: USER    NEWDPF quaternion0 -0.349874 -0.155759 -0.152601 -0.911065
DOCKED: USER    NEWDPF axisangle0 -0.848669 -0.377816 -0.370155 -48.694030
DOCKED: USER    NEWDPF quat0 -0.848669 -0.377816 -0.370155 -48.694030
DOCKED: USER    NEWDPF dihe0 65.03 147.27 77.77 -107.10 -71.35 -169.23 41.47 79.53 -33.31 176.01 
DOCKED: USER  keepresnum = 1 
DOCKED: USER  
DOCKED: REMARK  10 active torsions:
DOCKED: REMARK  status: ('A' for Active; 'I' for Inactive)
DOCKED: REMARK    1  A    between atoms: C_6  and  C_10 
DOCKED: REMARK    2  A    between atoms: C_10  and  C_11 
DOCKED: REMARK    3  A    between atoms: C_11  and  C_12 
DOCKED: REMARK    4  A    between atoms: C_12  and  O_14 
DOCKED: REMARK    5  A    between atoms: C_17  and  C_20 
DOCKED: REMARK    6  A    between atoms: C_24  and  C_27 
DOCKED: REMARK    7  A    between atoms: C_31  and  C_34 
DOCKED: REMARK    8  A    between atoms: C_34  and  C_35 
DOCKED: REMARK    9  A    between atoms: C_35  and  C_36 
DOCKED: REMARK   10  A    between atoms: C_36  and  O_38 
DOCKED: USER                              x       y       z     vdW  Elec       q    Type
DOCKED: USER                           _______ _______ _______ _____ _____    ______ ____
DOCKED: ROOT
DOCKED: ATOM      1  C   UNL d   1      -7.444   3.616  -7.321 -0.35 +0.03    +0.064 C 
DOCKED: ATOM      2  C   UNL d   1      -5.392   0.510  -4.070 -0.43 +0.00    +0.064 A 
DOCKED: ATOM      3  C   UNL d   1      -1.075   2.282  -5.207 -0.42 +0.00    +0.064 C 
DOCKED: ATOM      4  C   UNL d   1      -3.030   5.223  -8.434 -0.50 +0.00    +0.064 C 
DOCKED: ATOM      5  C   UNL d   1      -7.259   2.519  -6.362 -0.35 +0.03    +0.066 A 
DOCKED: ATOM      6  C   UNL d   1      -8.272   1.701  -5.890 -0.25 -0.01    -0.021 A 
DOCKED: ATOM      7  C   UNL d   1      -7.702   0.841  -4.985 -0.14 -0.01    -0.025 A 
DOCKED: ATOM      8  C   UNL d   1      -6.361   1.168  -4.938 -0.38 +0.01    +0.066 A 
DOCKED: ATOM      9  C   UNL d   1      -8.410  -0.241  -4.228 +0.33 +0.01    +0.051 C 
DOCKED: ATOM     10  C   UNL d   1      -4.083   0.766  -4.048 -0.39 +0.00    +0.066 A 
DOCKED: ATOM     11  C   UNL d   1      -3.198   0.201  -3.126 -0.35 +0.00    -0.021 A 
DOCKED: ATOM     12  C   UNL d   1      -1.949   0.709  -3.421 -0.36 -0.00    +0.000 A 
DOCKED: ATOM     13  C   UNL d   1      -2.139   1.573  -4.514 -0.37 +0.00    +0.070 A 
DOCKED: ATOM     14  C   UNL d   1      -3.538  -0.724  -1.975 -0.57 -0.01    +0.052 C 
DOCKED: ATOM     15  C   UNL d   1      -1.259   3.154  -6.226 -0.38 +0.00    +0.066 A 
DOCKED: ATOM     16  C   UNL d   1      -0.209   3.735  -6.926 -0.47 -0.00    -0.021 A 
DOCKED: ATOM     17  C   UNL d   1      -0.771   4.586  -7.855 -0.50 +0.00    +0.000 A 
DOCKED: ATOM     18  C   UNL d   1      -2.153   4.508  -7.696 -0.40 +0.01    +0.070 A 
DOCKED: ATOM     19  C   UNL d   1       1.265   3.519  -6.716 -0.61 +0.00    +0.052 C 
DOCKED: ATOM     20  C   UNL d   1      -4.491   5.120  -8.337 -0.36 +0.01    +0.066 A 
DOCKED: ATOM     21  C   UNL d   1      -5.406   5.991  -8.946 -0.34 -0.00    -0.025 A 
DOCKED: ATOM     22  C   UNL d   1      -6.658   5.507  -8.626 -0.18 -0.00    -0.021 A 
DOCKED: ATOM     23  C   UNL d   1      -6.459   4.370  -7.834 -0.14 +0.02    +0.066 A 
DOCKED: ATOM     24  C   UNL d   1      -5.127   7.218  -9.783 -0.43 -0.00    +0.051 C 
DOCKED: ATOM     25  N   UNL d   1      -6.092   2.182  -5.784 -0.24 -0.05    -0.248 N 
DOCKED: ATOM     26  N   UNL d   1      -3.441   1.615  -4.891 -0.25 -0.01    -0.248 N 
DOCKED: ATOM     27  N   UNL d   1      -2.455   3.595  -6.725 -0.21 -0.04    -0.248 N 
DOCKED: ATOM     28  N   UNL d   1      -5.135   4.165  -7.624 +0.13 -0.08    -0.248 N 
DOCKED: ATOM     29 FE   UNL d   1      -4.287   2.891  -6.258 -0.09 +0.00    +0.000 Fe
DOCKED: ENDROOT
DOCKED: BRANCH   6  30
DOCKED: ATOM     30  C   UNL d   1      -9.707   1.719  -6.294 +0.66 +0.06    +0.052 C 
DOCKED: BRANCH  30  31
DOCKED: ATOM     31  C   UNL d   1      -9.846   1.547  -7.803 -0.01 +0.09    +0.115 C 
DOCKED: BRANCH  31  32
DOCKED: ATOM     32  C   UNL d   1     -10.900   2.472  -8.344 +0.01 +0.17    +0.139 C 
DOCKED: ATOM     33  O   UNL d   1     -12.084   2.269  -8.115 -0.47 -0.94    -0.650 OA
DOCKED: BRANCH  32  34
DOCKED: ATOM     34  O   UNL d   1     -10.548   3.535  -9.087 +0.02 -0.69    -0.776 OA
DOCKED: ATOM     35  H   UNL d   1     -10.720   4.424  -8.745 +0.03 +0.19    +0.167 HD
DOCKED: ENDBRANCH  32  34
DOCKED: ENDBRANCH  31  32
DOCKED: ENDBRANCH  30  31
DOCKED: ENDBRANCH   6  30
DOCKED: BRANCH  22  36
DOCKED: ATOM     36  C   UNL d   1      -7.970   6.132  -9.021 -0.23 +0.01    +0.052 C 
DOCKED: BRANCH  36  37
DOCKED: ATOM     37  C   UNL d   1      -8.370   7.178  -7.991 -0.08 +0.04    +0.115 C 
DOCKED: BRANCH  37  38
DOCKED: ATOM     38  C   UNL d   1      -9.414   6.640  -7.054 -0.09 +0.12    +0.139 C 
DOCKED: ATOM     39  O   UNL d   1     -10.004   7.381  -6.282 -0.38 -0.54    -0.650 OA
DOCKED: BRANCH  38  40
DOCKED: ATOM     40  O   UNL d   1      -9.705   5.327  -7.056 -0.35 -1.48    -0.776 OA
DOCKED: ATOM     41  H   UNL d   1      -9.650   4.835  -7.888 +0.04 +0.22    +0.167 HD
DOCKED: ENDBRANCH  38  40
DOCKED: ENDBRANCH  37  38
DOCKED: ENDBRANCH  36  37
DOCKED: ENDBRANCH  22  36
DOCKED: BRANCH  12  42
DOCKED: ATOM     42  C   UNL d   1      -0.694   0.383  -2.677 -0.38 -0.00    +0.004 C 
DOCKED: ATOM     43  C   UNL d   1       0.386  -0.083  -3.318 -0.60 -0.00    +0.012 C 
DOCKED: ENDBRANCH  12  42
DOCKED: BRANCH  17  44
DOCKED: ATOM     44  C   UNL d   1      -0.034   5.405  -8.844 -0.55 +0.00    +0.004 C 
DOCKED: ATOM     45  C   UNL d   1       0.946   6.229  -8.457 -0.63 +0.00    +0.012 C 
DOCKED: ENDBRANCH  17  44
DOCKED: TORSDOF 10
DOCKED: TER
DOCKED: ENDMDL
________________________________________________________________________________


	BEGINNING GENETIC ALGORITHM DOCKING 49 of 100
Run: 49 Seed: 1086324396 2105247155 [ Run 49 of 100 GA/GALS ]
Beginning LAMARCKIAN GENETIC ALGORITHM (LGA), with a maximum of 25000000 energy evaluations.

Final-Value: -11.036


	FINAL GENETIC ALGORITHM DOCKED STATE
	_______________________________________________


Detailed state:  trans 4.183 6.200 19.256 quatxyzw 0.024658 0.936704 -0.281974 -0.206079 center -0.174 -0.001 -0.047 ntor 10 123.2474 -148.9239 170.4692 -158.6608 42.9872 80.3685 19.7496 -82.5191 20.7978 173.8987
State:	  4.183   6.200  19.256   0.025  0.957 -0.288 -156.215    123.25 -148.92  170.47 -158.66   42.99   80.37   19.75  -82.52   20.80  173.90

DOCKED: MODEL       49
DOCKED: USER    Run = 49
DOCKED: USER    DPF = D:/Protein_go_brrr/autodock/final/mut_K82N/heme_Fe/dock.dpf
DOCKED: USER  
DOCKED: USER    Estimated Free Energy of Binding    =   -7.41 kcal/mol  [=(1)+(2)+(3)-(4)]
DOCKED: USER    Estimated Inhibition Constant, Ki   =    3.68 uM (micromolar)  [Temperature = 298.15 K]
DOCKED: USER    
DOCKED: USER    (1) Final Intermolecular Energy     =  -10.40 kcal/mol
DOCKED: USER        vdW + Hbond + desolv Energy     =   -9.30 kcal/mol
DOCKED: USER        Electrostatic Energy            =   -1.10 kcal/mol
DOCKED: USER    (2) Final Total Internal Energy     =   -0.64 kcal/mol
DOCKED: USER    (3) Torsional Free Energy           =   +2.98 kcal/mol
DOCKED: USER    (4) Unbound System's Energy  [=(2)] =   -0.64 kcal/mol
DOCKED: USER    
DOCKED: USER    
DOCKED: USER    NEWDPF move heme_Fe_opt.pdbqt
DOCKED: USER    NEWDPF about -0.174000 -0.001000 -0.047000
DOCKED: USER    NEWDPF tran0 4.183171 6.199526 19.256314
DOCKED: USER    NEWDPF quaternion0 0.024658 0.936704 -0.281974 -0.206079
DOCKED: USER    NEWDPF axisangle0 0.025199 0.957251 -0.288159 -156.214717
DOCKED: USER    NEWDPF quat0 0.025199 0.957251 -0.288159 -156.214717
DOCKED: USER    NEWDPF dihe0 123.25 -148.92 170.47 -158.66 42.99 80.37 19.75 -82.52 20.80 173.90 
DOCKED: USER  keepresnum = 1 
DOCKED: USER  
DOCKED: REMARK  10 active torsions:
DOCKED: REMARK  status: ('A' for Active; 'I' for Inactive)
DOCKED: REMARK    1  A    between atoms: C_6  and  C_10 
DOCKED: REMARK    2  A    between atoms: C_10  and  C_11 
DOCKED: REMARK    3  A    between atoms: C_11  and  C_12 
DOCKED: REMARK    4  A    between atoms: C_12  and  O_14 
DOCKED: REMARK    5  A    between atoms: C_17  and  C_20 
DOCKED: REMARK    6  A    between atoms: C_24  and  C_27 
DOCKED: REMARK    7  A    between atoms: C_31  and  C_34 
DOCKED: REMARK    8  A    between atoms: C_34  and  C_35 
DOCKED: REMARK    9  A    between atoms: C_35  and  C_36 
DOCKED: REMARK   10  A    between atoms: C_36  and  O_38 
DOCKED: USER                              x       y       z     vdW  Elec       q    Type
DOCKED: USER                           _______ _______ _______ _____ _____    ______ ____
DOCKED: ROOT
DOCKED: ATOM      1  C   UNL d   1       6.182   6.002  19.677 -0.24 -0.01    +0.064 C 
DOCKED: ATOM      2  C   UNL d   1       2.232   3.059  20.086 -0.26 -0.05    +0.064 A 
DOCKED: ATOM      3  C   UNL d   1      -0.205   6.048  17.224 -0.25 -0.02    +0.064 C 
DOCKED: ATOM      4  C   UNL d   1       3.572   8.965  16.900 -0.27 -0.02    +0.064 C 
DOCKED: ATOM      5  C   UNL d   1       5.271   4.940  20.125 -0.25 -0.01    +0.066 A 
DOCKED: ATOM      6  C   UNL d   1       5.593   3.958  21.047 -0.29 +0.00    -0.021 A 
DOCKED: ATOM      7  C   UNL d   1       4.497   3.139  21.157 -0.29 +0.01    -0.025 A 
DOCKED: ATOM      8  C   UNL d   1       3.546   3.653  20.297 -0.28 -0.03    +0.066 A 
DOCKED: ATOM      9  C   UNL d   1       4.374   1.945  22.053 -0.21 -0.03    +0.051 C 
DOCKED: ATOM     10  C   UNL d   1       1.276   3.567  19.306 -0.27 -0.04    +0.066 A 
DOCKED: ATOM     11  C   UNL d   1       0.071   2.915  19.034 -0.27 +0.01    -0.021 A 
DOCKED: ATOM     12  C   UNL d   1      -0.643   3.749  18.197 -0.26 -0.00    +0.000 A 
DOCKED: ATOM     13  C   UNL d   1       0.175   4.874  17.993 -0.22 -0.03    +0.070 A 
DOCKED: ATOM     14  C   UNL d   1      -0.352   1.534  19.493 -0.35 -0.03    +0.052 C 
DOCKED: ATOM     15  C   UNL d   1       0.598   7.110  16.982 -0.22 -0.03    +0.066 A 
DOCKED: ATOM     16  C   UNL d   1       0.165   8.256  16.327 -0.22 +0.01    -0.021 A 
DOCKED: ATOM     17  C   UNL d   1       1.254   9.097  16.229 -0.23 -0.00    +0.000 A 
DOCKED: ATOM     18  C   UNL d   1       2.329   8.442  16.825 -0.24 -0.03    +0.070 A 
DOCKED: ATOM     19  C   UNL d   1      -1.212   8.541  15.790 -0.22 -0.05    +0.052 C 
DOCKED: ATOM     20  C   UNL d   1       4.713   8.332  17.573 -0.21 -0.03    +0.066 A 
DOCKED: ATOM     21  C   UNL d   1       6.045   8.763  17.488 -0.18 +0.01    -0.025 A 
DOCKED: ATOM     22  C   UNL d   1       6.769   7.912  18.297 -0.16 +0.00    -0.021 A 
DOCKED: ATOM     23  C   UNL d   1       5.857   6.996  18.836 -0.21 -0.02    +0.066 A 
DOCKED: ATOM     24  C   UNL d   1       6.616   9.910  16.687 -0.17 -0.01    +0.051 C 
DOCKED: ATOM     25  N   UNL d   1       4.016   4.755  19.678 -0.19 +0.09    -0.248 N 
DOCKED: ATOM     26  N   UNL d   1       1.349   4.759  18.662 -0.04 +0.13    -0.248 N 
DOCKED: ATOM     27  N   UNL d   1       1.917   7.239  17.326 +0.02 +0.13    -0.248 N 
DOCKED: ATOM     28  N   UNL d   1       4.611   7.230  18.355 -0.16 +0.09    -0.248 N 
DOCKED: ATOM     29 FE   UNL d   1       2.980   5.996  18.507 -0.06 -0.00    +0.000 Fe
DOCKED: ENDROOT
DOCKED: BRANCH   6  30
DOCKED: ATOM     30  C   UNL d   1       6.870   3.815  21.802 -0.29 +0.01    +0.052 C 
DOCKED: BRANCH  30  31
DOCKED: ATOM     31  C   UNL d   1       6.661   4.125  23.281 -0.15 +0.03    +0.115 C 
DOCKED: BRANCH  31  32
DOCKED: ATOM     32  C   UNL d   1       7.972   4.453  23.940 -0.06 +0.10    +0.139 C 
DOCKED: ATOM     33  O   UNL d   1       8.786   5.177  23.383 -0.01 -0.48    -0.650 OA
DOCKED: BRANCH  32  34
DOCKED: ATOM     34  O   UNL d   1       8.262   3.951  25.152 -0.35 -0.93    -0.776 OA
DOCKED: ATOM     35  H   UNL d   1       7.658   4.124  25.888 +0.01 +0.12    +0.167 HD
DOCKED: ENDBRANCH  32  34
DOCKED: ENDBRANCH  31  32
DOCKED: ENDBRANCH  30  31
DOCKED: ENDBRANCH   6  30
DOCKED: BRANCH  22  36
DOCKED: ATOM     36  C   UNL d   1       8.261   7.948  18.500 -0.12 -0.00    +0.052 C 
DOCKED: BRANCH  36  37
DOCKED: ATOM     37  C   UNL d   1       8.943   7.082  17.451 -0.19 -0.01    +0.115 C 
DOCKED: BRANCH  37  38
DOCKED: ATOM     38  C   UNL d   1       9.418   7.912  16.292 -0.19 -0.01    +0.139 C 
DOCKED: ATOM     39  O   UNL d   1      10.461   8.544  16.363 +0.03 +0.02    -0.650 OA
DOCKED: BRANCH  38  40
DOCKED: ATOM     40  O   UNL d   1       8.690   7.966  15.163 -0.15 +0.08    -0.776 OA
DOCKED: ATOM     41  H   UNL d   1       7.728   7.881  15.219 -0.52 -0.07    +0.167 HD
DOCKED: ENDBRANCH  38  40
DOCKED: ENDBRANCH  37  38
DOCKED: ENDBRANCH  36  37
DOCKED: ENDBRANCH  22  36
DOCKED: BRANCH  12  42
DOCKED: ATOM     42  C   UNL d   1      -1.998   3.447  17.640 -0.32 -0.00    +0.004 C 
DOCKED: ATOM     43  C   UNL d   1      -2.319   3.788  16.385 -0.29 -0.00    +0.012 C 
DOCKED: ENDBRANCH  12  42
DOCKED: BRANCH  17  44
DOCKED: ATOM     44  C   UNL d   1       1.259  10.449  15.624 -0.20 -0.00    +0.004 C 
DOCKED: ATOM     45  C   UNL d   1       1.803  10.658  14.421 -0.30 -0.01    +0.012 C 
DOCKED: ENDBRANCH  17  44
DOCKED: TORSDOF 10
DOCKED: TER
DOCKED: ENDMDL
________________________________________________________________________________


	BEGINNING GENETIC ALGORITHM DOCKING 50 of 100
Run: 50 Seed: 812055189 542404348 [ Run 50 of 100 GA/GALS ]
Beginning LAMARCKIAN GENETIC ALGORITHM (LGA), with a maximum of 25000000 energy evaluations.

Final-Value: -11.018


	FINAL GENETIC ALGORITHM DOCKED STATE
	_______________________________________________


Detailed state:  trans -10.365 12.099 -7.443 quatxyzw 0.458275 0.544468 -0.682668 0.165842 center -0.174 -0.001 -0.047 ntor 10 12.6379 -149.2253 65.4035 8.5498 -89.9729 -129.0553 -93.9694 28.3400 177.7948 -167.0664
State:	-10.365  12.099  -7.443   0.465  0.552 -0.692 160.908     12.64 -149.23   65.40    8.55  -89.97 -129.06  -93.97   28.34  177.79 -167.07

DOCKED: MODEL       50
DOCKED: USER    Run = 50
DOCKED: USER    DPF = D:/Protein_go_brrr/autodock/final/mut_K82N/heme_Fe/dock.dpf
DOCKED: USER  
DOCKED: USER    Estimated Free Energy of Binding    =   -5.90 kcal/mol  [=(1)+(2)+(3)-(4)]
DOCKED: USER    Estimated Inhibition Constant, Ki   =   47.52 uM (micromolar)  [Temperature = 298.15 K]
DOCKED: USER    
DOCKED: USER    (1) Final Intermolecular Energy     =   -8.88 kcal/mol
DOCKED: USER        vdW + Hbond + desolv Energy     =   -6.51 kcal/mol
DOCKED: USER        Electrostatic Energy            =   -2.38 kcal/mol
DOCKED: USER    (2) Final Total Internal Energy     =   -2.14 kcal/mol
DOCKED: USER    (3) Torsional Free Energy           =   +2.98 kcal/mol
DOCKED: USER    (4) Unbound System's Energy  [=(2)] =   -2.14 kcal/mol
DOCKED: USER    
DOCKED: USER    
DOCKED: USER    NEWDPF move heme_Fe_opt.pdbqt
DOCKED: USER    NEWDPF about -0.174000 -0.001000 -0.047000
DOCKED: USER    NEWDPF tran0 -10.364953 12.099189 -7.443297
DOCKED: USER    NEWDPF quaternion0 0.458275 0.544468 -0.682668 0.165842
DOCKED: USER    NEWDPF axisangle0 0.464710 0.552114 -0.692254 160.907696
DOCKED: USER    NEWDPF quat0 0.464710 0.552114 -0.692254 160.907696
DOCKED: USER    NEWDPF dihe0 12.64 -149.23 65.40 8.55 -89.97 -129.06 -93.97 28.34 177.79 -167.07 
DOCKED: USER  keepresnum = 1 
DOCKED: USER  
DOCKED: REMARK  10 active torsions:
DOCKED: REMARK  status: ('A' for Active; 'I' for Inactive)
DOCKED: REMARK    1  A    between atoms: C_6  and  C_10 
DOCKED: REMARK    2  A    between atoms: C_10  and  C_11 
DOCKED: REMARK    3  A    between atoms: C_11  and  C_12 
DOCKED: REMARK    4  A    between atoms: C_12  and  O_14 
DOCKED: REMARK    5  A    between atoms: C_17  and  C_20 
DOCKED: REMARK    6  A    between atoms: C_24  and  C_27 
DOCKED: REMARK    7  A    between atoms: C_31  and  C_34 
DOCKED: REMARK    8  A    between atoms: C_34  and  C_35 
DOCKED: REMARK    9  A    between atoms: C_35  and  C_36 
DOCKED: REMARK   10  A    between atoms: C_36  and  O_38 
DOCKED: USER                              x       y       z     vdW  Elec       q    Type
DOCKED: USER                           _______ _______ _______ _____ _____    ______ ____
DOCKED: ROOT
DOCKED: ATOM      1  C   UNL d   1      -9.770  10.368  -6.516 -0.26 +0.02    +0.064 C 
DOCKED: ATOM      2  C   UNL d   1     -12.437  14.303  -5.161 -0.12 +0.03    +0.064 A 
DOCKED: ATOM      3  C   UNL d   1     -12.832  15.540  -9.785 -0.09 +0.03    +0.064 C 
DOCKED: ATOM      4  C   UNL d   1     -10.165  11.796 -11.110 -0.03 +0.02    +0.064 C 
DOCKED: ATOM      5  C   UNL d   1     -10.413  11.407  -5.699 -0.25 +0.02    +0.066 A 
DOCKED: ATOM      6  C   UNL d   1     -10.403  11.444  -4.315 -0.38 -0.01    -0.021 A 
DOCKED: ATOM      7  C   UNL d   1     -11.147  12.535  -3.939 -0.29 -0.01    -0.025 A 
DOCKED: ATOM      8  C   UNL d   1     -11.583  13.123  -5.111 -0.19 +0.03    +0.066 A 
DOCKED: ATOM      9  C   UNL d   1     -11.402  12.989  -2.535 -0.33 +0.01    +0.051 C 
DOCKED: ATOM     10  C   UNL d   1     -12.825  14.923  -6.277 -0.04 +0.04    +0.066 A 
DOCKED: ATOM     11  C   UNL d   1     -13.735  15.983  -6.299 -0.09 -0.01    -0.021 A 
DOCKED: ATOM     12  C   UNL d   1     -13.879  16.347  -7.623 -0.08 +0.00    +0.000 A 
DOCKED: ATOM     13  C   UNL d   1     -13.047  15.477  -8.348 -0.09 +0.05    +0.070 A 
DOCKED: ATOM     14  C   UNL d   1     -14.484  16.574  -5.122 -0.06 +0.02    +0.052 C 
DOCKED: ATOM     15  C   UNL d   1     -12.073  14.672 -10.495 -0.10 +0.03    +0.066 A 
DOCKED: ATOM     16  C   UNL d   1     -11.813  14.826 -11.851 -0.07 -0.01    -0.021 A 
DOCKED: ATOM     17  C   UNL d   1     -11.046  13.745 -12.236 -0.08 +0.00    +0.000 A 
DOCKED: ATOM     18  C   UNL d   1     -10.860  12.954 -11.104 -0.05 +0.02    +0.070 A 
DOCKED: ATOM     19  C   UNL d   1     -12.286  15.930 -12.758 -0.03 +0.01    +0.052 C 
DOCKED: ATOM     20  C   UNL d   1      -9.896  10.970  -9.927 -0.10 +0.02    +0.066 A 
DOCKED: ATOM     21  C   UNL d   1      -9.354   9.677  -9.948 -0.11 -0.00    -0.025 A 
DOCKED: ATOM     22  C   UNL d   1      -9.239   9.294  -8.628 -0.16 -0.00    -0.021 A 
DOCKED: ATOM     23  C   UNL d   1      -9.718  10.360  -7.857 -0.17 +0.02    +0.066 A 
DOCKED: ATOM     24  C   UNL d   1      -8.967   8.836 -11.142 -0.09 +0.01    +0.051 C 
DOCKED: ATOM     25  N   UNL d   1     -11.127  12.440  -6.180 -0.13 -0.09    -0.248 N 
DOCKED: ATOM     26  N   UNL d   1     -12.411  14.603  -7.530 -0.10 -0.18    -0.248 N 
DOCKED: ATOM     27  N   UNL d   1     -11.454  13.546 -10.025 -0.09 -0.10    -0.248 N 
DOCKED: ATOM     28  N   UNL d   1     -10.159  11.362  -8.656 -0.11 -0.07    -0.248 N 
DOCKED: ATOM     29 FE   UNL d   1     -11.285  12.982  -8.095 -0.03 +0.00    +0.000 Fe
DOCKED: ENDROOT
DOCKED: BRANCH   6  30
DOCKED: ATOM     30  C   UNL d   1      -9.705  10.504  -3.393 -0.53 +0.01    +0.052 C 
DOCKED: BRANCH  30  31
DOCKED: ATOM     31  C   UNL d   1     -10.635   9.372  -2.969 -0.37 +0.03    +0.115 C 
DOCKED: BRANCH  31  32
DOCKED: ATOM     32  C   UNL d   1     -10.599   8.257  -3.978 -0.34 +0.07    +0.139 C 
DOCKED: ATOM     33  O   UNL d   1     -11.376   8.246  -4.922 -0.01 -0.35    -0.650 OA
DOCKED: BRANCH  32  34
DOCKED: ATOM     34  O   UNL d   1      -9.710   7.258  -3.848 -0.18 -0.52    -0.776 OA
DOCKED: ATOM     35  H   UNL d   1      -9.572   6.653  -4.590 +0.05 +0.16    +0.167 HD
DOCKED: ENDBRANCH  32  34
DOCKED: ENDBRANCH  31  32
DOCKED: ENDBRANCH  30  31
DOCKED: ENDBRANCH   6  30
DOCKED: BRANCH  22  36
DOCKED: ATOM     36  C   UNL d   1      -8.741   7.959  -8.139 -0.21 +0.02    +0.052 C 
DOCKED: BRANCH  36  37
DOCKED: ATOM     37  C   UNL d   1      -9.762   6.880  -8.467 -0.13 +0.06    +0.115 C 
DOCKED: BRANCH  37  38
DOCKED: ATOM     38  C   UNL d   1      -9.678   5.743  -7.487 -0.06 +0.17    +0.139 C 
DOCKED: ATOM     39  O   UNL d   1      -9.587   4.588  -7.876 -0.37 -0.89    -0.650 OA
DOCKED: BRANCH  38  40
DOCKED: ATOM     40  O   UNL d   1      -9.706   5.993  -6.166 -0.42 -1.24    -0.776 OA
DOCKED: ATOM     41  H   UNL d   1     -10.199   6.760  -5.843 +0.03 +0.20    +0.167 HD
DOCKED: ENDBRANCH  38  40
DOCKED: ENDBRANCH  37  38
DOCKED: ENDBRANCH  36  37
DOCKED: ENDBRANCH  22  36
DOCKED: BRANCH  12  42
DOCKED: ATOM     42  C   UNL d   1     -14.772  17.440  -8.118 -0.04 +0.00    +0.004 C 
DOCKED: ATOM     43  C   UNL d   1     -14.263  18.550  -8.667 -0.04 +0.00    +0.012 C 
DOCKED: ENDBRANCH  12  42
DOCKED: BRANCH  17  44
DOCKED: ATOM     44  C   UNL d   1     -10.510  13.496 -13.593 -0.07 +0.00    +0.004 C 
DOCKED: ATOM     45  C   UNL d   1      -9.643  14.346 -14.153 -0.08 +0.00    +0.012 C 
DOCKED: ENDBRANCH  17  44
DOCKED: TORSDOF 10
DOCKED: TER
DOCKED: ENDMDL
________________________________________________________________________________


	BEGINNING GENETIC ALGORITHM DOCKING 51 of 100
Run: 51 Seed: 748281417 439082643 [ Run 51 of 100 GA/GALS ]
Beginning LAMARCKIAN GENETIC ALGORITHM (LGA), with a maximum of 25000000 energy evaluations.

Final-Value: -11.888


	FINAL GENETIC ALGORITHM DOCKED STATE
	_______________________________________________


Detailed state:  trans -8.677 7.093 -12.747 quatxyzw 0.407906 0.529130 -0.118603 -0.734552 center -0.174 -0.001 -0.047 ntor 10 -120.6172 143.0828 -137.0324 51.3589 -123.5173 123.9052 9.1146 -34.9412 -17.9363 8.2221
State:	 -8.677   7.093 -12.747   0.601  0.780 -0.175 -85.461   -120.62  143.08 -137.03   51.36 -123.52  123.91    9.11  -34.94  -17.94    8.22

DOCKED: MODEL       51
DOCKED: USER    Run = 51
DOCKED: USER    DPF = D:/Protein_go_brrr/autodock/final/mut_K82N/heme_Fe/dock.dpf
DOCKED: USER  
DOCKED: USER    Estimated Free Energy of Binding    =   -7.40 kcal/mol  [=(1)+(2)+(3)-(4)]
DOCKED: USER    Estimated Inhibition Constant, Ki   =    3.76 uM (micromolar)  [Temperature = 298.15 K]
DOCKED: USER    
DOCKED: USER    (1) Final Intermolecular Energy     =  -10.38 kcal/mol
DOCKED: USER        vdW + Hbond + desolv Energy     =   -7.54 kcal/mol
DOCKED: USER        Electrostatic Energy            =   -2.84 kcal/mol
DOCKED: USER    (2) Final Total Internal Energy     =   -1.51 kcal/mol
DOCKED: USER    (3) Torsional Free Energy           =   +2.98 kcal/mol
DOCKED: USER    (4) Unbound System's Energy  [=(2)] =   -1.51 kcal/mol
DOCKED: USER    
DOCKED: USER    
DOCKED: USER    NEWDPF move heme_Fe_opt.pdbqt
DOCKED: USER    NEWDPF about -0.174000 -0.001000 -0.047000
DOCKED: USER    NEWDPF tran0 -8.677456 7.092820 -12.746801
DOCKED: USER    NEWDPF quaternion0 0.407906 0.529130 -0.118603 -0.734552
DOCKED: USER    NEWDPF axisangle0 0.601142 0.779793 -0.174789 -85.461197
DOCKED: USER    NEWDPF quat0 0.601142 0.779793 -0.174789 -85.461197
DOCKED: USER    NEWDPF dihe0 -120.62 143.08 -137.03 51.36 -123.52 123.91 9.11 -34.94 -17.94 8.22 
DOCKED: USER  keepresnum = 1 
DOCKED: USER  
DOCKED: REMARK  10 active torsions:
DOCKED: REMARK  status: ('A' for Active; 'I' for Inactive)
DOCKED: REMARK    1  A    between atoms: C_6  and  C_10 
DOCKED: REMARK    2  A    between atoms: C_10  and  C_11 
DOCKED: REMARK    3  A    between atoms: C_11  and  C_12 
DOCKED: REMARK    4  A    between atoms: C_12  and  O_14 
DOCKED: REMARK    5  A    between atoms: C_17  and  C_20 
DOCKED: REMARK    6  A    between atoms: C_24  and  C_27 
DOCKED: REMARK    7  A    between atoms: C_31  and  C_34 
DOCKED: REMARK    8  A    between atoms: C_34  and  C_35 
DOCKED: REMARK    9  A    between atoms: C_35  and  C_36 
DOCKED: REMARK   10  A    between atoms: C_36  and  O_38 
DOCKED: USER                              x       y       z     vdW  Elec       q    Type
DOCKED: USER                           _______ _______ _______ _____ _____    ______ ____
DOCKED: ROOT
DOCKED: ATOM      1  C   UNL d   1      -9.167   6.160 -10.986 -0.16 +0.01    +0.064 C 
DOCKED: ATOM      2  C   UNL d   1      -9.810   5.115 -15.774 -0.24 +0.02    +0.064 A 
DOCKED: ATOM      3  C   UNL d   1      -6.567   8.484 -16.873 -0.13 -0.01    +0.064 C 
DOCKED: ATOM      4  C   UNL d   1      -6.008   9.583 -12.251 -0.25 -0.01    +0.064 C 
DOCKED: ATOM      5  C   UNL d   1      -9.710   5.611 -12.236 -0.17 +0.01    +0.066 A 
DOCKED: ATOM      6  C   UNL d   1     -10.745   4.694 -12.314 -0.17 -0.01    -0.021 A 
DOCKED: ATOM      7  C   UNL d   1     -10.920   4.401 -13.643 -0.20 -0.01    -0.025 A 
DOCKED: ATOM      8  C   UNL d   1      -9.985   5.153 -14.328 -0.23 +0.02    +0.066 A 
DOCKED: ATOM      9  C   UNL d   1     -11.943   3.468 -14.215 -0.21 +0.04    +0.051 C 
DOCKED: ATOM     10  C   UNL d   1      -8.954   5.872 -16.464 -0.24 +0.00    +0.066 A 
DOCKED: ATOM     11  C   UNL d   1      -8.728   5.732 -17.836 -0.22 +0.00    -0.021 A 
DOCKED: ATOM     12  C   UNL d   1      -7.784   6.681 -18.174 -0.17 -0.00    +0.000 A 
DOCKED: ATOM     13  C   UNL d   1      -7.474   7.352 -16.978 -0.17 -0.01    +0.070 A 
DOCKED: ATOM     14  C   UNL d   1      -9.330   4.699 -18.766 -0.20 +0.01    +0.052 C 
DOCKED: ATOM     15  C   UNL d   1      -6.226   9.100 -15.716 -0.10 -0.01    +0.066 A 
DOCKED: ATOM     16  C   UNL d   1      -5.435  10.240 -15.669 -0.08 +0.00    -0.021 A 
DOCKED: ATOM     17  C   UNL d   1      -5.270  10.557 -14.336 -0.19 -0.00    +0.000 A 
DOCKED: ATOM     18  C   UNL d   1      -5.962   9.598 -13.601 -0.16 -0.01    +0.070 A 
DOCKED: ATOM     19  C   UNL d   1      -4.835  10.991 -16.827 -0.07 -0.02    +0.052 C 
DOCKED: ATOM     20  C   UNL d   1      -6.776   8.627 -11.445 -0.19 -0.00    +0.066 A 
DOCKED: ATOM     21  C   UNL d   1      -6.676   8.474 -10.055 -0.27 +0.00    -0.025 A 
DOCKED: ATOM     22  C   UNL d   1      -7.594   7.502  -9.714 -0.20 -0.00    -0.021 A 
DOCKED: ATOM     23  C   UNL d   1      -8.210   7.098 -10.904 -0.12 +0.01    +0.066 A 
DOCKED: ATOM     24  C   UNL d   1      -5.764   9.197  -9.090 -0.47 -0.00    +0.051 C 
DOCKED: ATOM     25  N   UNL d   1      -9.256   5.895 -13.470 -0.07 -0.03    -0.248 N 
DOCKED: ATOM     26  N   UNL d   1      -8.181   6.853 -15.934 -0.15 +0.01    -0.248 N 
DOCKED: ATOM     27  N   UNL d   1      -6.586   8.727 -14.449 -0.07 +0.02    -0.248 N 
DOCKED: ATOM     28  N   UNL d   1      -7.676   7.755 -11.962 -0.00 -0.01    -0.248 N 
DOCKED: ATOM     29 FE   UNL d   1      -7.927   7.305 -13.947 -0.04 +0.00    +0.000 Fe
DOCKED: ENDROOT
DOCKED: BRANCH   6  30
DOCKED: ATOM     30  C   UNL d   1     -11.543   4.138 -11.184 -0.14 +0.02    +0.052 C 
DOCKED: BRANCH  30  31
DOCKED: ATOM     31  C   UNL d   1     -12.475   5.198 -10.608 -0.04 +0.04    +0.115 C 
DOCKED: BRANCH  31  32
DOCKED: ATOM     32  C   UNL d   1     -13.111   4.705  -9.338 -0.05 +0.09    +0.139 C 
DOCKED: ATOM     33  O   UNL d   1     -14.328   4.670  -9.222 +0.01 -0.30    -0.650 OA
DOCKED: BRANCH  32  34
DOCKED: ATOM     34  O   UNL d   1     -12.343   4.296  -8.313 +0.04 -1.13    -0.776 OA
DOCKED: ATOM     35  H   UNL d   1     -11.715   4.918  -7.920 +0.01 +0.31    +0.167 HD
DOCKED: ENDBRANCH  32  34
DOCKED: ENDBRANCH  31  32
DOCKED: ENDBRANCH  30  31
DOCKED: ENDBRANCH   6  30
DOCKED: BRANCH  22  36
DOCKED: ATOM     36  C   UNL d   1      -7.828   6.960  -8.329 -0.13 +0.01    +0.052 C 
DOCKED: BRANCH  36  37
DOCKED: ATOM     37  C   UNL d   1      -9.129   7.520  -7.772 -0.17 +0.05    +0.115 C 
DOCKED: BRANCH  37  38
DOCKED: ATOM     38  C   UNL d   1      -9.838   6.498  -6.929 -0.14 +0.15    +0.139 C 
DOCKED: ATOM     39  O   UNL d   1     -10.137   6.742  -5.770 -0.45 -0.77    -0.650 OA
DOCKED: BRANCH  38  40
DOCKED: ATOM     40  O   UNL d   1     -10.147   5.297  -7.450 -0.29 -1.51    -0.776 OA
DOCKED: ATOM     41  H   UNL d   1     -10.428   5.244  -8.374 +0.03 +0.19    +0.167 HD
DOCKED: ENDBRANCH  38  40
DOCKED: ENDBRANCH  37  38
DOCKED: ENDBRANCH  36  37
DOCKED: ENDBRANCH  22  36
DOCKED: BRANCH  12  42
DOCKED: ATOM     42  C   UNL d   1      -7.231   6.887 -19.549 -0.16 -0.00    +0.004 C 
DOCKED: ATOM     43  C   UNL d   1      -6.149   6.216 -19.963 -0.21 -0.00    +0.012 C 
DOCKED: ENDBRANCH  12  42
DOCKED: BRANCH  17  44
DOCKED: ATOM     44  C   UNL d   1      -4.515  11.714 -13.803 -0.45 -0.00    +0.004 C 
DOCKED: ATOM     45  C   UNL d   1      -5.155  12.779 -13.308 -0.45 -0.00    +0.012 C 
DOCKED: ENDBRANCH  17  44
DOCKED: TORSDOF 10
DOCKED: TER
DOCKED: ENDMDL
________________________________________________________________________________


	BEGINNING GENETIC ALGORITHM DOCKING 52 of 100
Run: 52 Seed: 259950347 2025376181 [ Run 52 of 100 GA/GALS ]
Beginning LAMARCKIAN GENETIC ALGORITHM (LGA), with a maximum of 25000000 energy evaluations.

Final-Value: -11.238


	FINAL GENETIC ALGORITHM DOCKED STATE
	_______________________________________________


Detailed state:  trans -12.192 6.403 -9.133 quatxyzw -0.583436 -0.027444 -0.352208 0.731300 center -0.174 -0.001 -0.047 ntor 10 133.3086 -132.9844 30.3485 -138.3769 175.0969 -119.2206 44.0443 -140.7956 -179.2796 144.0056
State:	-12.192   6.403  -9.133  -0.855 -0.040 -0.516 86.009    133.31 -132.98   30.35 -138.38  175.10 -119.22   44.04 -140.80 -179.28  144.01

DOCKED: MODEL       52
DOCKED: USER    Run = 52
DOCKED: USER    DPF = D:/Protein_go_brrr/autodock/final/mut_K82N/heme_Fe/dock.dpf
DOCKED: USER  
DOCKED: USER    Estimated Free Energy of Binding    =   -7.55 kcal/mol  [=(1)+(2)+(3)-(4)]
DOCKED: USER    Estimated Inhibition Constant, Ki   =    2.92 uM (micromolar)  [Temperature = 298.15 K]
DOCKED: USER    
DOCKED: USER    (1) Final Intermolecular Energy     =  -10.53 kcal/mol
DOCKED: USER        vdW + Hbond + desolv Energy     =   -6.76 kcal/mol
DOCKED: USER        Electrostatic Energy            =   -3.78 kcal/mol
DOCKED: USER    (2) Final Total Internal Energy     =   -0.70 kcal/mol
DOCKED: USER    (3) Torsional Free Energy           =   +2.98 kcal/mol
DOCKED: USER    (4) Unbound System's Energy  [=(2)] =   -0.70 kcal/mol
DOCKED: USER    
DOCKED: USER    
DOCKED: USER    NEWDPF move heme_Fe_opt.pdbqt
DOCKED: USER    NEWDPF about -0.174000 -0.001000 -0.047000
DOCKED: USER    NEWDPF tran0 -12.192395 6.403085 -9.133249
DOCKED: USER    NEWDPF quaternion0 -0.583436 -0.027444 -0.352208 0.731300
DOCKED: USER    NEWDPF axisangle0 -0.855407 -0.040237 -0.516391 86.009074
DOCKED: USER    NEWDPF quat0 -0.855407 -0.040237 -0.516391 86.009074
DOCKED: USER    NEWDPF dihe0 133.31 -132.98 30.35 -138.38 175.10 -119.22 44.04 -140.80 -179.28 144.01 
DOCKED: USER  keepresnum = 1 
DOCKED: USER  
DOCKED: REMARK  10 active torsions:
DOCKED: REMARK  status: ('A' for Active; 'I' for Inactive)
DOCKED: REMARK    1  A    between atoms: C_6  and  C_10 
DOCKED: REMARK    2  A    between atoms: C_10  and  C_11 
DOCKED: REMARK    3  A    between atoms: C_11  and  C_12 
DOCKED: REMARK    4  A    between atoms: C_12  and  O_14 
DOCKED: REMARK    5  A    between atoms: C_17  and  C_20 
DOCKED: REMARK    6  A    between atoms: C_24  and  C_27 
DOCKED: REMARK    7  A    between atoms: C_31  and  C_34 
DOCKED: REMARK    8  A    between atoms: C_34  and  C_35 
DOCKED: REMARK    9  A    between atoms: C_35  and  C_36 
DOCKED: REMARK   10  A    between atoms: C_36  and  O_38 
DOCKED: USER                              x       y       z     vdW  Elec       q    Type
DOCKED: USER                           _______ _______ _______ _____ _____    ______ ____
DOCKED: ROOT
DOCKED: ATOM      1  C   UNL d   1     -13.410   4.871  -9.750 -0.04 +0.03    +0.064 C 
DOCKED: ATOM      2  C   UNL d   1      -9.151   6.795 -11.359 -0.11 +0.01    +0.064 A 
DOCKED: ATOM      3  C   UNL d   1      -8.675   9.076  -7.159 -0.26 +0.02    +0.064 C 
DOCKED: ATOM      4  C   UNL d   1     -12.846   7.309  -5.622 -0.11 +0.05    +0.064 C 
DOCKED: ATOM      5  C   UNL d   1     -12.297   5.268 -10.624 -0.04 +0.03    +0.066 A 
DOCKED: ATOM      6  C   UNL d   1     -12.162   4.893 -11.951 -0.08 -0.01    -0.021 A 
DOCKED: ATOM      7  C   UNL d   1     -10.977   5.425 -12.396 -0.13 -0.01    -0.025 A 
DOCKED: ATOM      8  C   UNL d   1     -10.434   6.104 -11.322 -0.09 +0.02    +0.066 A 
DOCKED: ATOM      9  C   UNL d   1     -10.416   5.298 -13.779 -0.21 +0.01    +0.051 C 
DOCKED: ATOM     10  C   UNL d   1      -8.632   7.505 -10.356 -0.11 +0.01    +0.066 A 
DOCKED: ATOM     11  C   UNL d   1      -7.350   8.060 -10.382 -0.19 -0.00    -0.021 A 
DOCKED: ATOM     12  C   UNL d   1      -7.182   8.709  -9.175 -0.29 +0.00    +0.000 A 
DOCKED: ATOM     13  C   UNL d   1      -8.379   8.508  -8.466 -0.19 +0.01    +0.070 A 
DOCKED: ATOM     14  C   UNL d   1      -6.310   7.920 -11.474 -0.16 -0.00    +0.052 C 
DOCKED: ATOM     15  C   UNL d   1      -9.804   8.843  -6.450 -0.20 +0.03    +0.066 A 
DOCKED: ATOM     16  C   UNL d   1     -10.093   9.483  -5.252 -0.29 -0.01    -0.021 A 
DOCKED: ATOM     17  C   UNL d   1     -11.294   8.972  -4.805 -0.20 +0.00    +0.000 A 
DOCKED: ATOM     18  C   UNL d   1     -11.709   8.028  -5.741 -0.13 +0.04    +0.070 A 
DOCKED: ATOM     19  C   UNL d   1      -9.262  10.515  -4.539 -0.50 +0.01    +0.052 C 
DOCKED: ATOM     20  C   UNL d   1     -13.345   6.352  -6.617 -0.02 +0.07    +0.066 A 
DOCKED: ATOM     21  C   UNL d   1     -14.408   5.459  -6.420 -0.05 -0.02    -0.025 A 
DOCKED: ATOM     22  C   UNL d   1     -14.560   4.783  -7.613 -0.05 -0.02    -0.021 A 
DOCKED: ATOM     23  C   UNL d   1     -13.585   5.283  -8.485 -0.05 +0.05    +0.066 A 
DOCKED: ATOM     24  C   UNL d   1     -15.240   5.242  -5.177 -0.06 +0.03    +0.051 C 
DOCKED: ATOM     25  N   UNL d   1     -11.245   6.015 -10.249 -0.02 -0.10    -0.248 N 
DOCKED: ATOM     26  N   UNL d   1      -9.260   7.767  -9.182 -0.05 -0.07    -0.248 N 
DOCKED: ATOM     27  N   UNL d   1     -10.816   7.979  -6.775 -0.09 -0.15    -0.248 N 
DOCKED: ATOM     28  N   UNL d   1     -12.818   6.208  -7.857 -0.05 -0.23    -0.248 N 
DOCKED: ATOM     29 FE   UNL d   1     -11.040   6.988  -8.518 -0.02 +0.00    +0.000 Fe
DOCKED: ENDROOT
DOCKED: BRANCH   6  30
DOCKED: ATOM     30  C   UNL d   1     -13.118   4.089 -12.763 -0.08 +0.02    +0.052 C 
DOCKED: BRANCH  30  31
DOCKED: ATOM     31  C   UNL d   1     -12.802   2.601 -12.654 -0.14 +0.06    +0.115 C 
DOCKED: BRANCH  31  32
DOCKED: ATOM     32  C   UNL d   1     -12.869   1.948 -14.007 -0.03 +0.17    +0.139 C 
DOCKED: ATOM     33  O   UNL d   1     -12.559   0.774 -14.148 -0.52 -1.17    -0.650 OA
DOCKED: BRANCH  32  34
DOCKED: ATOM     34  O   UNL d   1     -13.272   2.654 -15.077 -0.11 -1.25    -0.776 OA
DOCKED: ATOM     35  H   UNL d   1     -14.067   3.201 -15.006 +0.01 +0.15    +0.167 HD
DOCKED: ENDBRANCH  32  34
DOCKED: ENDBRANCH  31  32
DOCKED: ENDBRANCH  30  31
DOCKED: ENDBRANCH   6  30
DOCKED: BRANCH  22  36
DOCKED: ATOM     36  C   UNL d   1     -15.554   3.685  -7.882 -0.02 +0.02    +0.052 C 
DOCKED: BRANCH  36  37
DOCKED: ATOM     37  C   UNL d   1     -14.818   2.403  -8.244 -0.04 +0.06    +0.115 C 
DOCKED: BRANCH  37  38
DOCKED: ATOM     38  C   UNL d   1     -13.574   2.244  -7.417 +0.06 +0.16    +0.139 C 
DOCKED: ATOM     39  O   UNL d   1     -12.474   2.190  -7.946 -0.56 -0.92    -0.650 OA
DOCKED: BRANCH  38  40
DOCKED: ATOM     40  O   UNL d   1     -13.665   2.156  -6.078 -0.11 -1.00    -0.776 OA
DOCKED: ATOM     41  H   UNL d   1     -14.322   1.562  -5.689 +0.01 +0.11    +0.167 HD
DOCKED: ENDBRANCH  38  40
DOCKED: ENDBRANCH  37  38
DOCKED: ENDBRANCH  36  37
DOCKED: ENDBRANCH  22  36
DOCKED: BRANCH  12  42
DOCKED: ATOM     42  C   UNL d   1      -5.944   9.440  -8.761 -0.47 -0.00    +0.004 C 
DOCKED: ATOM     43  C   UNL d   1      -5.681  10.668  -9.227 -0.44 -0.00    +0.012 C 
DOCKED: ENDBRANCH  12  42
DOCKED: BRANCH  17  44
DOCKED: ATOM     44  C   UNL d   1     -12.008   9.376  -3.573 -0.21 +0.00    +0.004 C 
DOCKED: ATOM     45  C   UNL d   1     -11.700   8.831  -2.392 -0.32 +0.00    +0.012 C 
DOCKED: ENDBRANCH  17  44
DOCKED: TORSDOF 10
DOCKED: TER
DOCKED: ENDMDL
________________________________________________________________________________


	BEGINNING GENETIC ALGORITHM DOCKING 53 of 100
Run: 53 Seed: 85046025 1462977146 [ Run 53 of 100 GA/GALS ]
Beginning LAMARCKIAN GENETIC ALGORITHM (LGA), with a maximum of 25000000 energy evaluations.

Final-Value: -11.004


	FINAL GENETIC ALGORITHM DOCKED STATE
	_______________________________________________


Detailed state:  trans -13.672 0.326 -6.642 quatxyzw -0.764275 0.041676 -0.502101 -0.402544 center -0.174 -0.001 -0.047 ntor 10 157.7790 -156.6429 29.4668 -95.6833 99.8857 75.1931 169.1677 -37.9311 -171.4427 -147.6302
State:	-13.672   0.326  -6.642  -0.835  0.046 -0.549 -132.525    157.78 -156.64   29.47  -95.68   99.89   75.19  169.17  -37.93 -171.44 -147.63

DOCKED: MODEL       53
DOCKED: USER    Run = 53
DOCKED: USER    DPF = D:/Protein_go_brrr/autodock/final/mut_K82N/heme_Fe/dock.dpf
DOCKED: USER  
DOCKED: USER    Estimated Free Energy of Binding    =   -7.56 kcal/mol  [=(1)+(2)+(3)-(4)]
DOCKED: USER    Estimated Inhibition Constant, Ki   =    2.86 uM (micromolar)  [Temperature = 298.15 K]
DOCKED: USER    
DOCKED: USER    (1) Final Intermolecular Energy     =  -10.55 kcal/mol
DOCKED: USER        vdW + Hbond + desolv Energy     =   -6.94 kcal/mol
DOCKED: USER        Electrostatic Energy            =   -3.61 kcal/mol
DOCKED: USER    (2) Final Total Internal Energy     =   -0.46 kcal/mol
DOCKED: USER    (3) Torsional Free Energy           =   +2.98 kcal/mol
DOCKED: USER    (4) Unbound System's Energy  [=(2)] =   -0.46 kcal/mol
DOCKED: USER    
DOCKED: USER    
DOCKED: USER    NEWDPF move heme_Fe_opt.pdbqt
DOCKED: USER    NEWDPF about -0.174000 -0.001000 -0.047000
DOCKED: USER    NEWDPF tran0 -13.671688 0.326429 -6.641982
DOCKED: USER    NEWDPF quaternion0 -0.764275 0.041676 -0.502101 -0.402544
DOCKED: USER    NEWDPF axisangle0 -0.834907 0.045527 -0.548504 -132.525345
DOCKED: USER    NEWDPF quat0 -0.834907 0.045527 -0.548504 -132.525345
DOCKED: USER    NEWDPF dihe0 157.78 -156.64 29.47 -95.68 99.89 75.19 169.17 -37.93 -171.44 -147.63 
DOCKED: USER  keepresnum = 1 
DOCKED: USER  
DOCKED: REMARK  10 active torsions:
DOCKED: REMARK  status: ('A' for Active; 'I' for Inactive)
DOCKED: REMARK    1  A    between atoms: C_6  and  C_10 
DOCKED: REMARK    2  A    between atoms: C_10  and  C_11 
DOCKED: REMARK    3  A    between atoms: C_11  and  C_12 
DOCKED: REMARK    4  A    between atoms: C_12  and  O_14 
DOCKED: REMARK    5  A    between atoms: C_17  and  C_20 
DOCKED: REMARK    6  A    between atoms: C_24  and  C_27 
DOCKED: REMARK    7  A    between atoms: C_31  and  C_34 
DOCKED: REMARK    8  A    between atoms: C_34  and  C_35 
DOCKED: REMARK    9  A    between atoms: C_35  and  C_36 
DOCKED: REMARK   10  A    between atoms: C_36  and  O_38 
DOCKED: USER                              x       y       z     vdW  Elec       q    Type
DOCKED: USER                           _______ _______ _______ _____ _____    ______ ____
DOCKED: ROOT
DOCKED: ATOM      1  C   UNL d   1     -14.241   1.598  -8.148 -0.06 +0.03    +0.064 C 
DOCKED: ATOM      2  C   UNL d   1     -13.731   2.014  -3.250 -0.05 +0.04    +0.064 A 
DOCKED: ATOM      3  C   UNL d   1     -11.231  -2.087  -3.232 -0.20 -0.01    +0.064 C 
DOCKED: ATOM      4  C   UNL d   1     -11.803  -2.564  -7.957 -0.26 +0.01    +0.064 C 
DOCKED: ATOM      5  C   UNL d   1     -14.401   2.052  -6.760 -0.06 +0.05    +0.066 A 
DOCKED: ATOM      6  C   UNL d   1     -15.158   3.144  -6.367 -0.06 -0.01    -0.021 A 
DOCKED: ATOM      7  C   UNL d   1     -15.012   3.261  -5.007 -0.08 -0.02    -0.025 A 
DOCKED: ATOM      8  C   UNL d   1     -14.171   2.235  -4.622 -0.06 +0.05    +0.066 A 
DOCKED: ATOM      9  C   UNL d   1     -15.663   4.290  -4.135 -0.06 +0.02    +0.051 C 
DOCKED: ATOM     10  C   UNL d   1     -12.967   0.999  -2.842 -0.10 +0.02    +0.066 A 
DOCKED: ATOM     11  C   UNL d   1     -12.467   0.878  -1.544 -0.18 -0.00    -0.021 A 
DOCKED: ATOM     12  C   UNL d   1     -11.728  -0.288  -1.517 -0.24 -0.00    +0.000 A 
DOCKED: ATOM     13  C   UNL d   1     -11.810  -0.820  -2.816 -0.15 -0.00    +0.070 A 
DOCKED: ATOM     14  C   UNL d   1     -12.627   1.861  -0.402 -0.22 +0.01    +0.052 C 
DOCKED: ATOM     15  C   UNL d   1     -11.263  -2.578  -4.493 -0.15 -0.00    +0.066 A 
DOCKED: ATOM     16  C   UNL d   1     -10.786  -3.838  -4.829 -0.20 +0.00    -0.021 A 
DOCKED: ATOM     17  C   UNL d   1     -10.947  -3.977  -6.192 -0.27 -0.00    +0.000 A 
DOCKED: ATOM     18  C   UNL d   1     -11.515  -2.793  -6.657 -0.21 +0.01    +0.070 A 
DOCKED: ATOM     19  C   UNL d   1     -10.179  -4.865  -3.911 -0.33 -0.02    +0.052 C 
DOCKED: ATOM     20  C   UNL d   1     -12.458  -1.356  -8.474 -0.16 +0.01    +0.066 A 
DOCKED: ATOM     21  C   UNL d   1     -12.581  -1.019  -9.830 -0.17 -0.01    -0.025 A 
DOCKED: ATOM     22  C   UNL d   1     -13.290   0.164  -9.862 -0.09 -0.01    -0.021 A 
DOCKED: ATOM     23  C   UNL d   1     -13.564   0.504  -8.532 -0.07 +0.03    +0.066 A 
DOCKED: ATOM     24  C   UNL d   1     -12.058  -1.761 -11.038 -0.17 +0.01    +0.051 C 
DOCKED: ATOM     25  N   UNL d   1     -13.809   1.495  -5.689 -0.07 -0.21    -0.248 N 
DOCKED: ATOM     26  N   UNL d   1     -12.557  -0.031  -3.626 -0.07 -0.07    -0.248 N 
DOCKED: ATOM     27  N   UNL d   1     -11.751  -1.950  -5.608 -0.09 -0.03    -0.248 N 
DOCKED: ATOM     28  N   UNL d   1     -13.016  -0.404  -7.688 -0.05 -0.08    -0.248 N 
DOCKED: ATOM     29 FE   UNL d   1     -12.786  -0.219  -5.659 -0.02 +0.00    +0.000 Fe
DOCKED: ENDROOT
DOCKED: BRANCH   6  30
DOCKED: ATOM     30  C   UNL d   1     -15.995   4.020  -7.235 -0.02 +0.02    +0.052 C 
DOCKED: BRANCH  30  31
DOCKED: ATOM     31  C   UNL d   1     -15.138   5.080  -7.918 -0.02 +0.05    +0.115 C 
DOCKED: BRANCH  31  32
DOCKED: ATOM     32  C   UNL d   1     -13.757   5.104  -7.324 +0.01 +0.16    +0.139 C 
DOCKED: ATOM     33  O   UNL d   1     -12.827   4.544  -7.888 +0.07 -1.03    -0.650 OA
DOCKED: BRANCH  32  34
DOCKED: ATOM     34  O   UNL d   1     -13.533   5.743  -6.164 -0.48 -1.18    -0.776 OA
DOCKED: ATOM     35  H   UNL d   1     -14.145   6.438  -5.885 +0.01 +0.13    +0.167 HD
DOCKED: ENDBRANCH  32  34
DOCKED: ENDBRANCH  31  32
DOCKED: ENDBRANCH  30  31
DOCKED: ENDBRANCH   6  30
DOCKED: BRANCH  22  36
DOCKED: ATOM     36  C   UNL d   1     -13.639   0.947 -11.100 -0.08 +0.02    +0.052 C 
DOCKED: BRANCH  36  37
DOCKED: ATOM     37  C   UNL d   1     -12.390   1.160 -11.942 -0.14 +0.05    +0.115 C 
DOCKED: BRANCH  37  38
DOCKED: ATOM     38  C   UNL d   1     -12.700   1.035 -13.407 -0.13 +0.13    +0.139 C 
DOCKED: ATOM     39  O   UNL d   1     -13.286   1.929 -14.000 -0.20 -0.75    -0.650 OA
DOCKED: BRANCH  38  40
DOCKED: ATOM     40  O   UNL d   1     -12.336  -0.072 -14.079 -0.54 -1.15    -0.776 OA
DOCKED: ATOM     41  H   UNL d   1     -12.193  -0.893 -13.588 +0.05 +0.12    +0.167 HD
DOCKED: ENDBRANCH  38  40
DOCKED: ENDBRANCH  37  38
DOCKED: ENDBRANCH  36  37
DOCKED: ENDBRANCH  22  36
DOCKED: BRANCH  12  42
DOCKED: ATOM     42  C   UNL d   1     -10.998  -0.812  -0.321 -0.35 -0.00    +0.004 C 
DOCKED: ATOM     43  C   UNL d   1     -11.653  -1.426   0.673 -0.29 -0.01    +0.012 C 
DOCKED: ENDBRANCH  12  42
DOCKED: BRANCH  17  44
DOCKED: ATOM     44  C   UNL d   1     -10.598  -5.171  -6.994 -0.38 +0.00    +0.004 C 
DOCKED: ATOM     45  C   UNL d   1      -9.462  -5.839  -6.769 -0.55 -0.00    +0.012 C 
DOCKED: ENDBRANCH  17  44
DOCKED: TORSDOF 10
DOCKED: TER
DOCKED: ENDMDL
________________________________________________________________________________


	BEGINNING GENETIC ALGORITHM DOCKING 54 of 100
Run: 54 Seed: 2025372230 1755475033 [ Run 54 of 100 GA/GALS ]
Beginning LAMARCKIAN GENETIC ALGORITHM (LGA), with a maximum of 25000000 energy evaluations.

Final-Value: -10.065


	FINAL GENETIC ALGORITHM DOCKED STATE
	_______________________________________________


Detailed state:  trans -6.784 -12.512 7.548 quatxyzw -0.055151 0.168485 -0.841201 0.510835 center -0.174 -0.001 -0.047 ntor 10 -61.8198 -154.9079 57.5998 50.6413 135.6953 138.8904 70.0227 94.9450 -40.4502 -178.9052
State:	 -6.784 -12.512   7.548  -0.064  0.196 -0.979 118.561    -61.82 -154.91   57.60   50.64  135.70  138.89   70.02   94.94  -40.45 -178.91

DOCKED: MODEL       54
DOCKED: USER    Run = 54
DOCKED: USER    DPF = D:/Protein_go_brrr/autodock/final/mut_K82N/heme_Fe/dock.dpf
DOCKED: USER  
DOCKED: USER    Estimated Free Energy of Binding    =   -4.85 kcal/mol  [=(1)+(2)+(3)-(4)]
DOCKED: USER    Estimated Inhibition Constant, Ki   =  278.60 uM (micromolar)  [Temperature = 298.15 K]
DOCKED: USER    
DOCKED: USER    (1) Final Intermolecular Energy     =   -7.83 kcal/mol
DOCKED: USER        vdW + Hbond + desolv Energy     =   -7.35 kcal/mol
DOCKED: USER        Electrostatic Energy            =   -0.48 kcal/mol
DOCKED: USER    (2) Final Total Internal Energy     =   -2.23 kcal/mol
DOCKED: USER    (3) Torsional Free Energy           =   +2.98 kcal/mol
DOCKED: USER    (4) Unbound System's Energy  [=(2)] =   -2.23 kcal/mol
DOCKED: USER    
DOCKED: USER    
DOCKED: USER    NEWDPF move heme_Fe_opt.pdbqt
DOCKED: USER    NEWDPF about -0.174000 -0.001000 -0.047000
DOCKED: USER    NEWDPF tran0 -6.783981 -12.511974 7.547726
DOCKED: USER    NEWDPF quaternion0 -0.055151 0.168485 -0.841201 0.510835
DOCKED: USER    NEWDPF axisangle0 -0.064153 0.195986 -0.978506 118.561120
DOCKED: USER    NEWDPF quat0 -0.064153 0.195986 -0.978506 118.561120
DOCKED: USER    NEWDPF dihe0 -61.82 -154.91 57.60 50.64 135.70 138.89 70.02 94.94 -40.45 -178.91 
DOCKED: USER  keepresnum = 1 
DOCKED: USER  
DOCKED: REMARK  10 active torsions:
DOCKED: REMARK  status: ('A' for Active; 'I' for Inactive)
DOCKED: REMARK    1  A    between atoms: C_6  and  C_10 
DOCKED: REMARK    2  A    between atoms: C_10  and  C_11 
DOCKED: REMARK    3  A    between atoms: C_11  and  C_12 
DOCKED: REMARK    4  A    between atoms: C_12  and  O_14 
DOCKED: REMARK    5  A    between atoms: C_17  and  C_20 
DOCKED: REMARK    6  A    between atoms: C_24  and  C_27 
DOCKED: REMARK    7  A    between atoms: C_31  and  C_34 
DOCKED: REMARK    8  A    between atoms: C_34  and  C_35 
DOCKED: REMARK    9  A    between atoms: C_35  and  C_36 
DOCKED: REMARK   10  A    between atoms: C_36  and  O_38 
DOCKED: USER                              x       y       z     vdW  Elec       q    Type
DOCKED: USER                           _______ _______ _______ _____ _____    ______ ____
DOCKED: ROOT
DOCKED: ATOM      1  C   UNL d   1      -5.839 -14.334   7.535 -0.21 -0.01    +0.064 C 
DOCKED: ATOM      2  C   UNL d   1      -4.628  -9.796   9.076 -0.35 -0.02    +0.064 A 
DOCKED: ATOM      3  C   UNL d   1      -9.252  -8.532   8.766 -0.13 -0.01    +0.064 C 
DOCKED: ATOM      4  C   UNL d   1     -10.430 -12.886   7.173 -0.14 -0.01    +0.064 C 
DOCKED: ATOM      5  C   UNL d   1      -5.058 -13.150   7.917 -0.26 -0.01    +0.066 A 
DOCKED: ATOM      6  C   UNL d   1      -3.676 -13.107   7.999 -0.35 +0.00    -0.021 A 
DOCKED: ATOM      7  C   UNL d   1      -3.340 -11.848   8.430 -0.37 +0.01    -0.025 A 
DOCKED: ATOM      8  C   UNL d   1      -4.532 -11.169   8.596 -0.27 -0.02    +0.066 A 
DOCKED: ATOM      9  C   UNL d   1      -1.952 -11.330   8.649 -0.53 -0.01    +0.051 C 
DOCKED: ATOM     10  C   UNL d   1      -5.761  -9.100   9.190 -0.36 -0.01    +0.066 A 
DOCKED: ATOM     11  C   UNL d   1      -5.833  -7.827   9.760 -0.40 +0.00    -0.021 A 
DOCKED: ATOM     12  C   UNL d   1      -7.159  -7.447   9.698 -0.26 -0.00    +0.000 A 
DOCKED: ATOM     13  C   UNL d   1      -7.835  -8.522   9.095 -0.18 -0.01    +0.070 A 
DOCKED: ATOM     14  C   UNL d   1      -4.706  -7.039  10.396 -0.30 -0.00    +0.052 C 
DOCKED: ATOM     15  C   UNL d   1      -9.916  -9.584   8.232 -0.08 -0.01    +0.066 A 
DOCKED: ATOM     16  C   UNL d   1     -11.247  -9.520   7.841 -0.07 +0.00    -0.021 A 
DOCKED: ATOM     17  C   UNL d   1     -11.590 -10.776   7.384 -0.08 -0.00    +0.000 A 
DOCKED: ATOM     18  C   UNL d   1     -10.459 -11.579   7.512 -0.08 -0.01    +0.070 A 
DOCKED: ATOM     19  C   UNL d   1     -12.171  -8.334   7.915 -0.04 -0.01    +0.052 C 
DOCKED: ATOM     20  C   UNL d   1      -9.242 -13.746   7.236 -0.12 -0.01    +0.066 A 
DOCKED: ATOM     21  C   UNL d   1      -9.242 -15.139   7.081 -0.08 +0.00    -0.025 A 
DOCKED: ATOM     22  C   UNL d   1      -7.922 -15.529   7.175 -0.08 +0.00    -0.021 A 
DOCKED: ATOM     23  C   UNL d   1      -7.173 -14.366   7.389 -0.13 -0.02    +0.066 A 
DOCKED: ATOM     24  C   UNL d   1     -10.416 -16.064   6.859 -0.04 -0.01    +0.051 C 
DOCKED: ATOM     25  N   UNL d   1      -5.575 -11.961   8.274 -0.20 +0.06    -0.248 N 
DOCKED: ATOM     26  N   UNL d   1      -6.984  -9.533   8.792 -0.18 +0.04    -0.248 N 
DOCKED: ATOM     27  N   UNL d   1      -9.417 -10.836   7.992 -0.02 +0.03    -0.248 N 
DOCKED: ATOM     28  N   UNL d   1      -7.989 -13.286   7.470 -0.11 +0.06    -0.248 N 
DOCKED: ATOM     29 FE   UNL d   1      -7.488 -11.411   8.131 -0.05 -0.00    +0.000 Fe
DOCKED: ENDROOT
DOCKED: BRANCH   6  30
DOCKED: ATOM     30  C   UNL d   1      -2.718 -14.199   7.663 -0.35 +0.01    +0.052 C 
DOCKED: BRANCH  30  31
DOCKED: ATOM     31  C   UNL d   1      -3.042 -14.802   6.301 -0.39 +0.02    +0.115 C 
DOCKED: BRANCH  31  32
DOCKED: ATOM     32  C   UNL d   1      -3.587 -16.194   6.457 -0.21 +0.04    +0.139 C 
DOCKED: ATOM     33  O   UNL d   1      -4.564 -16.557   5.818 -0.05 +0.27    -0.650 OA
DOCKED: BRANCH  32  34
DOCKED: ATOM     34  O   UNL d   1      -3.002 -17.056   7.306 -0.28 -0.89    -0.776 OA
DOCKED: ATOM     35  H   UNL d   1      -3.512 -17.400   8.052 +0.03 +0.08    +0.167 HD
DOCKED: ENDBRANCH  32  34
DOCKED: ENDBRANCH  31  32
DOCKED: ENDBRANCH  30  31
DOCKED: ENDBRANCH   6  30
DOCKED: BRANCH  22  36
DOCKED: ATOM     36  C   UNL d   1      -7.417 -16.947   7.111 -0.04 -0.01    +0.052 C 
DOCKED: BRANCH  36  37
DOCKED: ATOM     37  C   UNL d   1      -7.571 -17.608   8.473 -0.00 -0.01    +0.115 C 
DOCKED: BRANCH  37  38
DOCKED: ATOM     38  C   UNL d   1      -6.386 -17.317   9.350 -0.00 -0.01    +0.139 C 
DOCKED: ATOM     39  O   UNL d   1      -6.534 -17.057  10.535 +0.02 +0.02    -0.650 OA
DOCKED: BRANCH  38  40
DOCKED: ATOM     40  O   UNL d   1      -5.145 -17.339   8.831 +0.05 -0.03    -0.776 OA
DOCKED: ATOM     41  H   UNL d   1      -5.029 -17.180   7.884 +0.04 +0.00    +0.167 HD
DOCKED: ENDBRANCH  38  40
DOCKED: ENDBRANCH  37  38
DOCKED: ENDBRANCH  36  37
DOCKED: ENDBRANCH  22  36
DOCKED: BRANCH  12  42
DOCKED: ATOM     42  C   UNL d   1      -7.703  -6.150  10.208 -0.26 -0.00    +0.004 C 
DOCKED: ATOM     43  C   UNL d   1      -8.055  -5.171   9.364 -0.27 -0.00    +0.012 C 
DOCKED: ENDBRANCH  12  42
DOCKED: BRANCH  17  44
DOCKED: ATOM     44  C   UNL d   1     -12.908 -11.176   6.841 -0.06 -0.00    +0.004 C 
DOCKED: ATOM     45  C   UNL d   1     -13.085 -11.347   5.527 -0.10 -0.00    +0.012 C 
DOCKED: ENDBRANCH  17  44
DOCKED: TORSDOF 10
DOCKED: TER
DOCKED: ENDMDL
________________________________________________________________________________


	BEGINNING GENETIC ALGORITHM DOCKING 55 of 100
Run: 55 Seed: 905486662 2123694380 [ Run 55 of 100 GA/GALS ]
Beginning LAMARCKIAN GENETIC ALGORITHM (LGA), with a maximum of 25000000 energy evaluations.

Final-Value: -10.640


	FINAL GENETIC ALGORITHM DOCKED STATE
	_______________________________________________


Detailed state:  trans -8.502 9.624 -11.514 quatxyzw 0.258860 -0.292944 -0.154669 0.907333 center -0.174 -0.001 -0.047 ntor 10 -69.4004 171.6236 68.1586 -153.7753 -33.1803 76.0566 13.4231 -95.3559 -157.7185 169.7754
State:	 -8.502   9.624 -11.514   0.616 -0.697 -0.368 49.721    -69.40  171.62   68.16 -153.78  -33.18   76.06   13.42  -95.36 -157.72  169.78

DOCKED: MODEL       55
DOCKED: USER    Run = 55
DOCKED: USER    DPF = D:/Protein_go_brrr/autodock/final/mut_K82N/heme_Fe/dock.dpf
DOCKED: USER  
DOCKED: USER    Estimated Free Energy of Binding    =   -6.96 kcal/mol  [=(1)+(2)+(3)-(4)]
DOCKED: USER    Estimated Inhibition Constant, Ki   =    7.91 uM (micromolar)  [Temperature = 298.15 K]
DOCKED: USER    
DOCKED: USER    (1) Final Intermolecular Energy     =   -9.94 kcal/mol
DOCKED: USER        vdW + Hbond + desolv Energy     =   -7.66 kcal/mol
DOCKED: USER        Electrostatic Energy            =   -2.28 kcal/mol
DOCKED: USER    (2) Final Total Internal Energy     =   -0.70 kcal/mol
DOCKED: USER    (3) Torsional Free Energy           =   +2.98 kcal/mol
DOCKED: USER    (4) Unbound System's Energy  [=(2)] =   -0.70 kcal/mol
DOCKED: USER    
DOCKED: USER    
DOCKED: USER    NEWDPF move heme_Fe_opt.pdbqt
DOCKED: USER    NEWDPF about -0.174000 -0.001000 -0.047000
DOCKED: USER    NEWDPF tran0 -8.502366 9.624065 -11.513640
DOCKED: USER    NEWDPF quaternion0 0.258860 -0.292944 -0.154669 0.907333
DOCKED: USER    NEWDPF axisangle0 0.615727 -0.696801 -0.367898 49.721377
DOCKED: USER    NEWDPF quat0 0.615727 -0.696801 -0.367898 49.721377
DOCKED: USER    NEWDPF dihe0 -69.40 171.62 68.16 -153.78 -33.18 76.06 13.42 -95.36 -157.72 169.78 
DOCKED: USER  keepresnum = 1 
DOCKED: USER  
DOCKED: REMARK  10 active torsions:
DOCKED: REMARK  status: ('A' for Active; 'I' for Inactive)
DOCKED: REMARK    1  A    between atoms: C_6  and  C_10 
DOCKED: REMARK    2  A    between atoms: C_10  and  C_11 
DOCKED: REMARK    3  A    between atoms: C_11  and  C_12 
DOCKED: REMARK    4  A    between atoms: C_12  and  O_14 
DOCKED: REMARK    5  A    between atoms: C_17  and  C_20 
DOCKED: REMARK    6  A    between atoms: C_24  and  C_27 
DOCKED: REMARK    7  A    between atoms: C_31  and  C_34 
DOCKED: REMARK    8  A    between atoms: C_34  and  C_35 
DOCKED: REMARK    9  A    between atoms: C_35  and  C_36 
DOCKED: REMARK   10  A    between atoms: C_36  and  O_38 
DOCKED: USER                              x       y       z     vdW  Elec       q    Type
DOCKED: USER                           _______ _______ _______ _____ _____    ______ ____
DOCKED: ROOT
DOCKED: ATOM      1  C   UNL d   1      -9.783   9.618  -9.910 -0.09 +0.01    +0.064 C 
DOCKED: ATOM      2  C   UNL d   1      -5.582   7.260 -11.018 -0.14 -0.00    +0.064 A 
DOCKED: ATOM      3  C   UNL d   1      -4.828  10.414 -14.562 -0.21 -0.02    +0.064 C 
DOCKED: ATOM      4  C   UNL d   1      -8.942  12.647 -13.574 -0.05 +0.01    +0.064 C 
DOCKED: ATOM      5  C   UNL d   1      -8.713   8.612  -9.947 -0.10 +0.01    +0.066 A 
DOCKED: ATOM      6  C   UNL d   1      -8.658   7.486  -9.142 -0.15 -0.01    -0.021 A 
DOCKED: ATOM      7  C   UNL d   1      -7.490   6.834  -9.448 -0.22 -0.00    -0.025 A 
DOCKED: ATOM      8  C   UNL d   1      -6.875   7.588 -10.429 -0.20 +0.00    +0.066 A 
DOCKED: ATOM      9  C   UNL d   1      -7.010   5.551  -8.841 -0.28 +0.01    +0.051 C 
DOCKED: ATOM     10  C   UNL d   1      -4.995   7.939 -12.005 -0.19 -0.01    +0.066 A 
DOCKED: ATOM     11  C   UNL d   1      -3.705   7.669 -12.470 -0.39 +0.00    -0.021 A 
DOCKED: ATOM     12  C   UNL d   1      -3.457   8.575 -13.481 -0.39 -0.00    +0.000 A 
DOCKED: ATOM     13  C   UNL d   1      -4.617   9.365 -13.576 -0.24 -0.02    +0.070 A 
DOCKED: ATOM     14  C   UNL d   1      -2.730   6.642 -11.931 -0.45 -0.00    +0.052 C 
DOCKED: ATOM     15  C   UNL d   1      -5.921  11.210 -14.624 -0.11 -0.01    +0.066 A 
DOCKED: ATOM     16  C   UNL d   1      -6.130  12.134 -15.641 -0.08 +0.01    -0.021 A 
DOCKED: ATOM     17  C   UNL d   1      -7.314  12.781 -15.356 -0.08 -0.00    +0.000 A 
DOCKED: ATOM     18  C   UNL d   1      -7.799  12.240 -14.167 -0.10 -0.00    +0.070 A 
DOCKED: ATOM     19  C   UNL d   1      -5.240  12.416 -16.821 -0.09 -0.02    +0.052 C 
DOCKED: ATOM     20  C   UNL d   1      -9.514  12.059 -12.357 +0.02 +0.02    +0.066 A 
DOCKED: ATOM     21  C   UNL d   1     -10.582  12.595 -11.623 -0.06 -0.01    -0.025 A 
DOCKED: ATOM     22  C   UNL d   1     -10.813  11.709 -10.591 -0.09 -0.01    -0.021 A 
DOCKED: ATOM     23  C   UNL d   1      -9.878  10.676 -10.731 -0.08 +0.02    +0.066 A 
DOCKED: ATOM     24  C   UNL d   1     -11.348  13.874 -11.869 -0.08 +0.01    +0.051 C 
DOCKED: ATOM     25  N   UNL d   1      -7.626   8.664 -10.737 -0.08 -0.01    -0.248 N 
DOCKED: ATOM     26  N   UNL d   1      -5.551   8.983 -12.671 -0.15 +0.05    -0.248 N 
DOCKED: ATOM     27  N   UNL d   1      -6.966  11.244 -13.740 -0.07 +0.02    -0.248 N 
DOCKED: ATOM     28  N   UNL d   1      -9.060  10.918 -11.784 -0.06 -0.06    -0.248 N 
DOCKED: ATOM     29 FE   UNL d   1      -7.306   9.952 -12.228 -0.04 -0.00    +0.000 Fe
DOCKED: ENDROOT
DOCKED: BRANCH   6  30
DOCKED: ATOM     30  C   UNL d   1      -9.674   7.038  -8.148 -0.17 +0.03    +0.052 C 
DOCKED: BRANCH  30  31
DOCKED: ATOM     31  C   UNL d   1      -9.725   7.993  -6.960 -0.18 +0.06    +0.115 C 
DOCKED: BRANCH  31  32
DOCKED: ATOM     32  C   UNL d   1     -10.495   7.380  -5.824 -0.19 +0.12    +0.139 C 
DOCKED: ATOM     33  O   UNL d   1     -11.439   6.633  -6.042 -0.14 -0.96    -0.650 OA
DOCKED: BRANCH  32  34
DOCKED: ATOM     34  O   UNL d   1     -10.152   7.648  -4.553 -0.48 -0.57    -0.776 OA
DOCKED: ATOM     35  H   UNL d   1     -10.744   8.188  -4.011 +0.07 +0.08    +0.167 HD
DOCKED: ENDBRANCH  32  34
DOCKED: ENDBRANCH  31  32
DOCKED: ENDBRANCH  30  31
DOCKED: ENDBRANCH   6  30
DOCKED: BRANCH  22  36
DOCKED: ATOM     36  C   UNL d   1     -11.843  11.874  -9.504 -0.07 +0.01    +0.052 C 
DOCKED: BRANCH  36  37
DOCKED: ATOM     37  C   UNL d   1     -11.211  12.552  -8.297 -0.16 +0.04    +0.115 C 
DOCKED: BRANCH  37  38
DOCKED: ATOM     38  C   UNL d   1     -11.203  14.046  -8.462 -0.24 +0.10    +0.139 C 
DOCKED: ATOM     39  O   UNL d   1     -12.226  14.697  -8.309 -0.03 -0.47    -0.650 OA
DOCKED: BRANCH  38  40
DOCKED: ATOM     40  O   UNL d   1     -10.062  14.680  -8.784 -0.56 -0.78    -0.776 OA
DOCKED: ATOM     41  H   UNL d   1      -9.232  14.183  -8.783 -0.37 +0.08    +0.167 HD
DOCKED: ENDBRANCH  38  40
DOCKED: ENDBRANCH  37  38
DOCKED: ENDBRANCH  36  37
DOCKED: ENDBRANCH  22  36
DOCKED: BRANCH  12  42
DOCKED: ATOM     42  C   UNL d   1      -2.185   8.660 -14.262 -0.36 -0.00    +0.004 C 
DOCKED: ATOM     43  C   UNL d   1      -2.166   8.417 -15.579 -0.43 -0.00    +0.012 C 
DOCKED: ENDBRANCH  12  42
DOCKED: BRANCH  17  44
DOCKED: ATOM     44  C   UNL d   1      -7.951  13.835 -16.178 -0.05 -0.00    +0.004 C 
DOCKED: ATOM     45  C   UNL d   1      -7.824  15.126 -15.855 -0.08 -0.00    +0.012 C 
DOCKED: ENDBRANCH  17  44
DOCKED: TORSDOF 10
DOCKED: TER
DOCKED: ENDMDL
________________________________________________________________________________


	BEGINNING GENETIC ALGORITHM DOCKING 56 of 100
Run: 56 Seed: 1379472464 393366483 [ Run 56 of 100 GA/GALS ]
Beginning LAMARCKIAN GENETIC ALGORITHM (LGA), with a maximum of 25000000 energy evaluations.

Final-Value: -10.314


	FINAL GENETIC ALGORITHM DOCKED STATE
	_______________________________________________


Detailed state:  trans 4.175 6.101 19.197 quatxyzw 0.033545 0.939914 -0.273766 -0.201219 center -0.174 -0.001 -0.047 ntor 10 46.2018 -163.9919 164.4185 -157.4333 -52.3053 -80.1140 100.0477 159.1461 1.4249 6.3711
State:	  4.175   6.101  19.197   0.034  0.960 -0.279 -156.783     46.20 -163.99  164.42 -157.43  -52.31  -80.11  100.05  159.15    1.42    6.37

DOCKED: MODEL       56
DOCKED: USER    Run = 56
DOCKED: USER    DPF = D:/Protein_go_brrr/autodock/final/mut_K82N/heme_Fe/dock.dpf
DOCKED: USER  
DOCKED: USER    Estimated Free Energy of Binding    =   -5.00 kcal/mol  [=(1)+(2)+(3)-(4)]
DOCKED: USER    Estimated Inhibition Constant, Ki   =  217.13 uM (micromolar)  [Temperature = 298.15 K]
DOCKED: USER    
DOCKED: USER    (1) Final Intermolecular Energy     =   -7.98 kcal/mol
DOCKED: USER        vdW + Hbond + desolv Energy     =   -7.94 kcal/mol
DOCKED: USER        Electrostatic Energy            =   -0.04 kcal/mol
DOCKED: USER    (2) Final Total Internal Energy     =   -2.33 kcal/mol
DOCKED: USER    (3) Torsional Free Energy           =   +2.98 kcal/mol
DOCKED: USER    (4) Unbound System's Energy  [=(2)] =   -2.33 kcal/mol
DOCKED: USER    
DOCKED: USER    
DOCKED: USER    NEWDPF move heme_Fe_opt.pdbqt
DOCKED: USER    NEWDPF about -0.174000 -0.001000 -0.047000
DOCKED: USER    NEWDPF tran0 4.175005 6.101310 19.197419
DOCKED: USER    NEWDPF quaternion0 0.033545 0.939914 -0.273766 -0.201219
DOCKED: USER    NEWDPF axisangle0 0.034246 0.959540 -0.279482 -156.783472
DOCKED: USER    NEWDPF quat0 0.034246 0.959540 -0.279482 -156.783472
DOCKED: USER    NEWDPF dihe0 46.20 -163.99 164.42 -157.43 -52.31 -80.11 100.05 159.15 1.42 6.37 
DOCKED: USER  keepresnum = 1 
DOCKED: USER  
DOCKED: REMARK  10 active torsions:
DOCKED: REMARK  status: ('A' for Active; 'I' for Inactive)
DOCKED: REMARK    1  A    between atoms: C_6  and  C_10 
DOCKED: REMARK    2  A    between atoms: C_10  and  C_11 
DOCKED: REMARK    3  A    between atoms: C_11  and  C_12 
DOCKED: REMARK    4  A    between atoms: C_12  and  O_14 
DOCKED: REMARK    5  A    between atoms: C_17  and  C_20 
DOCKED: REMARK    6  A    between atoms: C_24  and  C_27 
DOCKED: REMARK    7  A    between atoms: C_31  and  C_34 
DOCKED: REMARK    8  A    between atoms: C_34  and  C_35 
DOCKED: REMARK    9  A    between atoms: C_35  and  C_36 
DOCKED: REMARK   10  A    between atoms: C_36  and  O_38 
DOCKED: USER                              x       y       z     vdW  Elec       q    Type
DOCKED: USER                           _______ _______ _______ _____ _____    ______ ____
DOCKED: ROOT
DOCKED: ATOM      1  C   UNL d   1       6.172   5.864  19.604 -0.26 -0.01    +0.064 C 
DOCKED: ATOM      2  C   UNL d   1       2.179   2.975  19.971 -0.22 -0.05    +0.064 A 
DOCKED: ATOM      3  C   UNL d   1      -0.225   6.062  17.185 -0.25 -0.02    +0.064 C 
DOCKED: ATOM      4  C   UNL d   1       3.597   8.925  16.903 -0.27 -0.02    +0.064 C 
DOCKED: ATOM      5  C   UNL d   1       5.246   4.807  20.034 -0.27 -0.01    +0.066 A 
DOCKED: ATOM      6  C   UNL d   1       5.558   3.800  20.933 -0.31 +0.00    -0.021 A 
DOCKED: ATOM      7  C   UNL d   1       4.450   2.996  21.032 -0.31 +0.01    -0.025 A 
DOCKED: ATOM      8  C   UNL d   1       3.503   3.544  20.188 -0.30 -0.03    +0.066 A 
DOCKED: ATOM      9  C   UNL d   1       4.311   1.786  21.903 -0.09 -0.03    +0.051 C 
DOCKED: ATOM     10  C   UNL d   1       1.227   3.514  19.207 -0.28 -0.04    +0.066 A 
DOCKED: ATOM     11  C   UNL d   1       0.010   2.888  18.927 -0.27 +0.01    -0.021 A 
DOCKED: ATOM     12  C   UNL d   1      -0.695   3.750  18.112 -0.26 -0.00    +0.000 A 
DOCKED: ATOM     13  C   UNL d   1       0.140   4.866  17.928 -0.23 -0.03    +0.070 A 
DOCKED: ATOM     14  C   UNL d   1      -0.432   1.504  19.360 -0.35 -0.02    +0.052 C 
DOCKED: ATOM     15  C   UNL d   1       0.594   7.116  16.961 -0.22 -0.03    +0.066 A 
DOCKED: ATOM     16  C   UNL d   1       0.176   8.282  16.333 -0.22 +0.01    -0.021 A 
DOCKED: ATOM     17  C   UNL d   1       1.277   9.108  16.247 -0.23 -0.00    +0.000 A 
DOCKED: ATOM     18  C   UNL d   1       2.345   8.424  16.823 -0.24 -0.03    +0.070 A 
DOCKED: ATOM     19  C   UNL d   1      -1.199   8.601  15.809 -0.22 -0.05    +0.052 C 
DOCKED: ATOM     20  C   UNL d   1       4.730   8.260  17.556 -0.21 -0.03    +0.066 A 
DOCKED: ATOM     21  C   UNL d   1       6.068   8.671  17.473 -0.17 +0.01    -0.025 A 
DOCKED: ATOM     22  C   UNL d   1       6.783   7.792  18.261 -0.18 +0.00    -0.021 A 
DOCKED: ATOM     23  C   UNL d   1       5.859   6.880  18.785 -0.22 -0.02    +0.066 A 
DOCKED: ATOM     24  C   UNL d   1       6.654   9.826  16.694 -0.19 -0.01    +0.051 C 
DOCKED: ATOM     25  N   UNL d   1       3.987   4.651  19.590 -0.20 +0.10    -0.248 N 
DOCKED: ATOM     26  N   UNL d   1       1.315   4.719  18.587 -0.04 +0.13    -0.248 N 
DOCKED: ATOM     27  N   UNL d   1       1.916   7.217  17.301 +0.03 +0.13    -0.248 N 
DOCKED: ATOM     28  N   UNL d   1       4.615   7.144  18.316 -0.16 +0.10    -0.248 N 
DOCKED: ATOM     29 FE   UNL d   1       2.965   5.933  18.451 -0.06 -0.00    +0.000 Fe
DOCKED: ENDROOT
DOCKED: BRANCH   6  30
DOCKED: ATOM     30  C   UNL d   1       6.836   3.621  21.679 -0.30 +0.01    +0.052 C 
DOCKED: BRANCH  30  31
DOCKED: ATOM     31  C   UNL d   1       6.782   4.339  23.023 -0.15 +0.03    +0.115 C 
DOCKED: BRANCH  31  32
DOCKED: ATOM     32  C   UNL d   1       7.040   5.809  22.845 -0.07 +0.03    +0.139 C 
DOCKED: ATOM     33  O   UNL d   1       8.030   6.200  22.241 +0.01 -0.16    -0.650 OA
DOCKED: BRANCH  32  34
DOCKED: ATOM     34  O   UNL d   1       6.182   6.711  23.351 +0.04 -0.07    -0.776 OA
DOCKED: ATOM     35  H   UNL d   1       5.900   7.453  22.798 +0.01 +0.00    +0.167 HD
DOCKED: ENDBRANCH  32  34
DOCKED: ENDBRANCH  31  32
DOCKED: ENDBRANCH  30  31
DOCKED: ENDBRANCH   6  30
DOCKED: BRANCH  22  36
DOCKED: ATOM     36  C   UNL d   1       8.276   7.801  18.457 -0.13 -0.00    +0.052 C 
DOCKED: BRANCH  36  37
DOCKED: ATOM     37  C   UNL d   1       8.612   8.394  19.817 -0.03 +0.00    +0.115 C 
DOCKED: BRANCH  37  38
DOCKED: ATOM     38  C   UNL d   1       7.486   9.250  20.324 -0.01 -0.01    +0.139 C 
DOCKED: ATOM     39  O   UNL d   1       7.342  10.396  19.924 +0.02 +0.04    -0.650 OA
DOCKED: BRANCH  38  40
DOCKED: ATOM     40  O   UNL d   1       6.625   8.757  21.232 +0.03 +0.02    -0.776 OA
DOCKED: ATOM     41  H   UNL d   1       6.862   7.955  21.718 +0.02 +0.00    +0.167 HD
DOCKED: ENDBRANCH  38  40
DOCKED: ENDBRANCH  37  38
DOCKED: ENDBRANCH  36  37
DOCKED: ENDBRANCH  22  36
DOCKED: BRANCH  12  42
DOCKED: ATOM     42  C   UNL d   1      -2.057   3.481  17.555 -0.32 -0.00    +0.004 C 
DOCKED: ATOM     43  C   UNL d   1      -2.418   3.959  16.357 -0.36 -0.00    +0.012 C 
DOCKED: ENDBRANCH  12  42
DOCKED: BRANCH  17  44
DOCKED: ATOM     44  C   UNL d   1       1.302  10.472  15.671 -0.19 -0.00    +0.004 C 
DOCKED: ATOM     45  C   UNL d   1       1.820  10.694  14.459 -0.30 -0.01    +0.012 C 
DOCKED: ENDBRANCH  17  44
DOCKED: TORSDOF 10
DOCKED: TER
DOCKED: ENDMDL
________________________________________________________________________________


	BEGINNING GENETIC ALGORITHM DOCKING 57 of 100
Run: 57 Seed: 596059980 388404133 [ Run 57 of 100 GA/GALS ]
Beginning LAMARCKIAN GENETIC ALGORITHM (LGA), with a maximum of 25000000 energy evaluations.

Final-Value: -10.865


	FINAL GENETIC ALGORITHM DOCKED STATE
	_______________________________________________


Detailed state:  trans 13.533 2.421 22.432 quatxyzw 0.005308 0.814921 -0.004953 -0.579526 center -0.174 -0.001 -0.047 ntor 10 8.1567 95.8434 -135.5620 39.2460 121.5681 -86.0113 99.2526 -147.8000 1.1706 -23.7026
State:	 13.533   2.421  22.432   0.007  1.000 -0.006 -109.166      8.16   95.84 -135.56   39.25  121.57  -86.01   99.25 -147.80    1.17  -23.70

DOCKED: MODEL       57
DOCKED: USER    Run = 57
DOCKED: USER    DPF = D:/Protein_go_brrr/autodock/final/mut_K82N/heme_Fe/dock.dpf
DOCKED: USER  
DOCKED: USER    Estimated Free Energy of Binding    =   -5.78 kcal/mol  [=(1)+(2)+(3)-(4)]
DOCKED: USER    Estimated Inhibition Constant, Ki   =   57.58 uM (micromolar)  [Temperature = 298.15 K]
DOCKED: USER    
DOCKED: USER    (1) Final Intermolecular Energy     =   -8.77 kcal/mol
DOCKED: USER        vdW + Hbond + desolv Energy     =   -5.75 kcal/mol
DOCKED: USER        Electrostatic Energy            =   -3.01 kcal/mol
DOCKED: USER    (2) Final Total Internal Energy     =   -2.10 kcal/mol
DOCKED: USER    (3) Torsional Free Energy           =   +2.98 kcal/mol
DOCKED: USER    (4) Unbound System's Energy  [=(2)] =   -2.10 kcal/mol
DOCKED: USER    
DOCKED: USER    
DOCKED: USER    NEWDPF move heme_Fe_opt.pdbqt
DOCKED: USER    NEWDPF about -0.174000 -0.001000 -0.047000
DOCKED: USER    NEWDPF tran0 13.533421 2.421454 22.432472
DOCKED: USER    NEWDPF quaternion0 0.005308 0.814921 -0.004953 -0.579526
DOCKED: USER    NEWDPF axisangle0 0.006513 0.999960 -0.006078 -109.165525
DOCKED: USER    NEWDPF quat0 0.006513 0.999960 -0.006078 -109.165525
DOCKED: USER    NEWDPF dihe0 8.16 95.84 -135.56 39.25 121.57 -86.01 99.25 -147.80 1.17 -23.70 
DOCKED: USER  keepresnum = 1 
DOCKED: USER  
DOCKED: REMARK  10 active torsions:
DOCKED: REMARK  status: ('A' for Active; 'I' for Inactive)
DOCKED: REMARK    1  A    between atoms: C_6  and  C_10 
DOCKED: REMARK    2  A    between atoms: C_10  and  C_11 
DOCKED: REMARK    3  A    between atoms: C_11  and  C_12 
DOCKED: REMARK    4  A    between atoms: C_12  and  O_14 
DOCKED: REMARK    5  A    between atoms: C_17  and  C_20 
DOCKED: REMARK    6  A    between atoms: C_24  and  C_27 
DOCKED: REMARK    7  A    between atoms: C_31  and  C_34 
DOCKED: REMARK    8  A    between atoms: C_34  and  C_35 
DOCKED: REMARK    9  A    between atoms: C_35  and  C_36 
DOCKED: REMARK   10  A    between atoms: C_36  and  O_38 
DOCKED: USER                              x       y       z     vdW  Elec       q    Type
DOCKED: USER                           _______ _______ _______ _____ _____    ______ ____
DOCKED: ROOT
DOCKED: ATOM      1  C   UNL d   1      14.685   2.349  24.129 -0.09 +0.04    +0.064 C 
DOCKED: ATOM      2  C   UNL d   1      13.255  -0.962  20.750 -0.15 +0.01    +0.064 A 
DOCKED: ATOM      3  C   UNL d   1      11.936   2.649  17.871 -0.23 +0.00    +0.064 C 
DOCKED: ATOM      4  C   UNL d   1      13.215   5.868  21.170 -0.07 +0.02    +0.064 C 
DOCKED: ATOM      5  C   UNL d   1      14.328   1.081  23.479 -0.09 +0.03    +0.066 A 
DOCKED: ATOM      6  C   UNL d   1      14.460  -0.170  24.059 -0.06 -0.01    -0.021 A 
DOCKED: ATOM      7  C   UNL d   1      14.066  -1.089  23.118 -0.06 -0.01    -0.025 A 
DOCKED: ATOM      8  C   UNL d   1      13.708  -0.363  21.999 -0.11 +0.02    +0.066 A 
DOCKED: ATOM      9  C   UNL d   1      14.021  -2.575  23.301 -0.03 +0.01    +0.051 C 
DOCKED: ATOM     10  C   UNL d   1      12.850  -0.283  19.675 -0.21 +0.01    +0.066 A 
DOCKED: ATOM     11  C   UNL d   1      12.531  -0.883  18.454 -0.34 +0.00    -0.021 A 
DOCKED: ATOM     12  C   UNL d   1      12.163   0.139  17.602 -0.37 -0.00    +0.000 A 
DOCKED: ATOM     13  C   UNL d   1      12.286   1.321  18.352 -0.24 +0.00    +0.070 A 
DOCKED: ATOM     14  C   UNL d   1      12.637  -2.351  18.096 -0.34 +0.00    +0.052 C 
DOCKED: ATOM     15  C   UNL d   1      12.101   3.796  18.571 -0.17 +0.01    +0.066 A 
DOCKED: ATOM     16  C   UNL d   1      11.662   5.032  18.115 -0.13 -0.00    -0.021 A 
DOCKED: ATOM     17  C   UNL d   1      12.033   5.963  19.064 -0.07 +0.00    +0.000 A 
DOCKED: ATOM     18  C   UNL d   1      12.695   5.271  20.075 -0.08 +0.01    +0.070 A 
DOCKED: ATOM     19  C   UNL d   1      10.943   5.334  16.828 -0.18 +0.00    +0.052 C 
DOCKED: ATOM     20  C   UNL d   1      13.864   5.166  22.284 -0.07 +0.03    +0.066 A 
DOCKED: ATOM     21  C   UNL d   1      14.581   5.779  23.321 -0.05 -0.01    -0.025 A 
DOCKED: ATOM     22  C   UNL d   1      14.980   4.759  24.159 -0.06 -0.01    -0.021 A 
DOCKED: ATOM     23  C   UNL d   1      14.499   3.569  23.601 -0.06 +0.04    +0.066 A 
DOCKED: ATOM     24  C   UNL d   1      14.884   7.247  23.519 -0.01 +0.01    +0.051 C 
DOCKED: ATOM     25  N   UNL d   1      13.859   0.957  22.225 -0.09 -0.10    -0.248 N 
DOCKED: ATOM     26  N   UNL d   1      12.713   1.066  19.613 -0.15 -0.04    -0.248 N 
DOCKED: ATOM     27  N   UNL d   1      12.699   3.934  19.795 -0.10 -0.06    -0.248 N 
DOCKED: ATOM     28  N   UNL d   1      13.858   3.819  22.433 -0.04 -0.15    -0.248 N 
DOCKED: ATOM     29 FE   UNL d   1      13.285   2.444  21.023 -0.03 +0.00    +0.000 Fe
DOCKED: ENDROOT
DOCKED: BRANCH   6  30
DOCKED: ATOM     30  C   UNL d   1      14.916  -0.478  25.444 -0.02 +0.01    +0.052 C 
DOCKED: BRANCH  30  31
DOCKED: ATOM     31  C   UNL d   1      13.733  -0.528  26.404 -0.04 +0.04    +0.115 C 
DOCKED: BRANCH  31  32
DOCKED: ATOM     32  C   UNL d   1      13.332   0.861  26.817 -0.07 +0.11    +0.139 C 
DOCKED: ATOM     33  O   UNL d   1      12.199   1.272  26.606 -0.53 -1.14    -0.650 OA
DOCKED: BRANCH  32  34
DOCKED: ATOM     34  O   UNL d   1      14.219   1.668  27.424 -0.00 -0.43    -0.776 OA
DOCKED: ATOM     35  H   UNL d   1      13.915   2.510  27.789 +0.01 +0.11    +0.167 HD
DOCKED: ENDBRANCH  32  34
DOCKED: ENDBRANCH  31  32
DOCKED: ENDBRANCH  30  31
DOCKED: ENDBRANCH   6  30
DOCKED: BRANCH  22  36
DOCKED: ATOM     36  C   UNL d   1      15.818   4.918  25.400 -0.02 +0.02    +0.052 C 
DOCKED: BRANCH  36  37
DOCKED: ATOM     37  C   UNL d   1      14.982   5.543  26.508 -0.03 +0.05    +0.115 C 
DOCKED: BRANCH  37  38
DOCKED: ATOM     38  C   UNL d   1      13.540   5.141  26.386 +0.09 +0.16    +0.139 C 
DOCKED: ATOM     39  O   UNL d   1      12.774   5.769  25.670 -0.54 -0.91    -0.650 OA
DOCKED: BRANCH  38  40
DOCKED: ATOM     40  O   UNL d   1      13.078   4.081  27.073 -0.14 -1.20    -0.776 OA
DOCKED: ATOM     41  H   UNL d   1      13.186   3.196  26.699 -0.00 +0.30    +0.167 HD
DOCKED: ENDBRANCH  38  40
DOCKED: ENDBRANCH  37  38
DOCKED: ENDBRANCH  36  37
DOCKED: ENDBRANCH  22  36
DOCKED: BRANCH  12  42
DOCKED: ATOM     42  C   UNL d   1      11.750  -0.043  16.176 -0.34 -0.00    +0.004 C 
DOCKED: ATOM     43  C   UNL d   1      12.658  -0.056  15.191 -0.35 -0.00    +0.012 C 
DOCKED: ENDBRANCH  12  42
DOCKED: BRANCH  17  44
DOCKED: ATOM     44  C   UNL d   1      11.754   7.416  19.015 -0.04 +0.00    +0.004 C 
DOCKED: ATOM     45  C   UNL d   1      10.664   7.924  19.600 -0.04 +0.00    +0.012 C 
DOCKED: ENDBRANCH  17  44
DOCKED: TORSDOF 10
DOCKED: TER
DOCKED: ENDMDL
________________________________________________________________________________


	BEGINNING GENETIC ALGORITHM DOCKING 58 of 100
Run: 58 Seed: 2120449365 1236548322 [ Run 58 of 100 GA/GALS ]
Beginning LAMARCKIAN GENETIC ALGORITHM (LGA), with a maximum of 25000000 energy evaluations.

Final-Value: -10.877


	FINAL GENETIC ALGORITHM DOCKED STATE
	_______________________________________________


Detailed state:  trans -8.078 7.374 -12.120 quatxyzw 0.663888 -0.069282 -0.650298 0.362719 center -0.174 -0.001 -0.047 ntor 10 17.3142 154.2591 25.5972 -148.5224 88.6629 -82.3268 -83.9578 8.3845 -179.3561 172.8753
State:	 -8.078   7.374 -12.120   0.712 -0.074 -0.698 137.465     17.31  154.26   25.60 -148.52   88.66  -82.33  -83.96    8.38 -179.36  172.88

DOCKED: MODEL       58
DOCKED: USER    Run = 58
DOCKED: USER    DPF = D:/Protein_go_brrr/autodock/final/mut_K82N/heme_Fe/dock.dpf
DOCKED: USER  
DOCKED: USER    Estimated Free Energy of Binding    =   -5.68 kcal/mol  [=(1)+(2)+(3)-(4)]
DOCKED: USER    Estimated Inhibition Constant, Ki   =   68.14 uM (micromolar)  [Temperature = 298.15 K]
DOCKED: USER    
DOCKED: USER    (1) Final Intermolecular Energy     =   -8.67 kcal/mol
DOCKED: USER        vdW + Hbond + desolv Energy     =   -6.49 kcal/mol
DOCKED: USER        Electrostatic Energy            =   -2.18 kcal/mol
DOCKED: USER    (2) Final Total Internal Energy     =   -2.21 kcal/mol
DOCKED: USER    (3) Torsional Free Energy           =   +2.98 kcal/mol
DOCKED: USER    (4) Unbound System's Energy  [=(2)] =   -2.21 kcal/mol
DOCKED: USER    
DOCKED: USER    
DOCKED: USER    NEWDPF move heme_Fe_opt.pdbqt
DOCKED: USER    NEWDPF about -0.174000 -0.001000 -0.047000
DOCKED: USER    NEWDPF tran0 -8.078475 7.374454 -12.120452
DOCKED: USER    NEWDPF quaternion0 0.663888 -0.069282 -0.650298 0.362719
DOCKED: USER    NEWDPF axisangle0 0.712404 -0.074345 -0.697820 137.465445
DOCKED: USER    NEWDPF quat0 0.712404 -0.074345 -0.697820 137.465445
DOCKED: USER    NEWDPF dihe0 17.31 154.26 25.60 -148.52 88.66 -82.33 -83.96 8.38 -179.36 172.88 
DOCKED: USER  keepresnum = 1 
DOCKED: USER  
DOCKED: REMARK  10 active torsions:
DOCKED: REMARK  status: ('A' for Active; 'I' for Inactive)
DOCKED: REMARK    1  A    between atoms: C_6  and  C_10 
DOCKED: REMARK    2  A    between atoms: C_10  and  C_11 
DOCKED: REMARK    3  A    between atoms: C_11  and  C_12 
DOCKED: REMARK    4  A    between atoms: C_12  and  O_14 
DOCKED: REMARK    5  A    between atoms: C_17  and  C_20 
DOCKED: REMARK    6  A    between atoms: C_24  and  C_27 
DOCKED: REMARK    7  A    between atoms: C_31  and  C_34 
DOCKED: REMARK    8  A    between atoms: C_34  and  C_35 
DOCKED: REMARK    9  A    between atoms: C_35  and  C_36 
DOCKED: REMARK   10  A    between atoms: C_36  and  O_38 
DOCKED: USER                              x       y       z     vdW  Elec       q    Type
DOCKED: USER                           _______ _______ _______ _____ _____    ______ ____
DOCKED: ROOT
DOCKED: ATOM      1  C   UNL d   1      -8.764   6.969 -10.229 -0.14 +0.01    +0.064 C 
DOCKED: ATOM      2  C   UNL d   1      -6.204  10.663 -12.286 -0.27 -0.01    +0.064 A 
DOCKED: ATOM      3  C   UNL d   1      -7.487   9.047 -16.622 -0.07 -0.01    +0.064 C 
DOCKED: ATOM      4  C   UNL d   1      -9.884   5.403 -14.656 -0.26 +0.01    +0.064 C 
DOCKED: ATOM      5  C   UNL d   1      -7.856   8.110 -10.408 -0.14 +0.01    +0.066 A 
DOCKED: ATOM      6  C   UNL d   1      -7.198   8.766  -9.380 -0.27 -0.00    -0.021 A 
DOCKED: ATOM      7  C   UNL d   1      -6.490   9.794  -9.952 -0.37 +0.00    -0.025 A 
DOCKED: ATOM      8  C   UNL d   1      -6.743   9.726 -11.308 -0.23 -0.00    +0.066 A 
DOCKED: ATOM      9  C   UNL d   1      -5.610  10.768  -9.230 -0.33 -0.01    +0.051 C 
DOCKED: ATOM     10  C   UNL d   1      -6.386  10.586 -13.605 -0.15 -0.01    +0.066 A 
DOCKED: ATOM     11  C   UNL d   1      -5.952  11.563 -14.505 -0.15 +0.00    -0.021 A 
DOCKED: ATOM     12  C   UNL d   1      -6.325  11.128 -15.761 -0.05 -0.00    +0.000 A 
DOCKED: ATOM     13  C   UNL d   1      -6.980   9.901 -15.560 -0.05 -0.01    +0.070 A 
DOCKED: ATOM     14  C   UNL d   1      -5.277  12.879 -14.178 -0.36 -0.02    +0.052 C 
DOCKED: ATOM     15  C   UNL d   1      -8.164   7.890 -16.431 -0.11 -0.00    +0.066 A 
DOCKED: ATOM     16  C   UNL d   1      -8.544   7.052 -17.472 -0.15 +0.00    -0.021 A 
DOCKED: ATOM     17  C   UNL d   1      -9.239   6.003 -16.907 -0.23 +0.00    +0.000 A 
DOCKED: ATOM     18  C   UNL d   1      -9.270   6.227 -15.533 -0.20 +0.01    +0.070 A 
DOCKED: ATOM     19  C   UNL d   1      -8.289   7.242 -18.943 -0.11 -0.00    +0.052 C 
DOCKED: ATOM     20  C   UNL d   1      -9.884   5.574 -13.198 -0.18 +0.01    +0.066 A 
DOCKED: ATOM     21  C   UNL d   1     -10.677   4.849 -12.298 -0.17 -0.01    -0.025 A 
DOCKED: ATOM     22  C   UNL d   1     -10.333   5.303 -11.041 -0.15 -0.01    -0.021 A 
DOCKED: ATOM     23  C   UNL d   1      -9.353   6.286 -11.224 -0.13 +0.01    +0.066 A 
DOCKED: ATOM     24  C   UNL d   1     -11.710   3.786 -12.594 -0.13 +0.02    +0.051 C 
DOCKED: ATOM     25  N   UNL d   1      -7.567   8.695 -11.584 -0.07 -0.01    -0.248 N 
DOCKED: ATOM     26  N   UNL d   1      -7.025   9.575 -14.245 -0.04 +0.02    -0.248 N 
DOCKED: ATOM     27  N   UNL d   1      -8.572   7.364 -15.235 -0.08 -0.00    -0.248 N 
DOCKED: ATOM     28  N   UNL d   1      -9.116   6.479 -12.544 -0.03 -0.03    -0.248 N 
DOCKED: ATOM     29 FE   UNL d   1      -8.072   8.025 -13.395 -0.03 +0.00    +0.000 Fe
DOCKED: ENDROOT
DOCKED: BRANCH   6  30
DOCKED: ATOM     30  C   UNL d   1      -7.222   8.422  -7.930 -0.30 +0.00    +0.052 C 
DOCKED: BRANCH  30  31
DOCKED: ATOM     31  C   UNL d   1      -8.360   9.149  -7.221 -0.22 +0.02    +0.115 C 
DOCKED: BRANCH  31  32
DOCKED: ATOM     32  C   UNL d   1      -9.568   8.260  -7.117 -0.18 +0.06    +0.139 C 
DOCKED: ATOM     33  O   UNL d   1      -9.710   7.511  -6.161 -0.42 -0.52    -0.650 OA
DOCKED: BRANCH  32  34
DOCKED: ATOM     34  O   UNL d   1     -10.506   8.281  -8.079 +0.07 -0.30    -0.776 OA
DOCKED: ATOM     35  H   UNL d   1     -11.380   7.910  -7.891 +0.03 +0.08    +0.167 HD
DOCKED: ENDBRANCH  32  34
DOCKED: ENDBRANCH  31  32
DOCKED: ENDBRANCH  30  31
DOCKED: ENDBRANCH   6  30
DOCKED: BRANCH  22  36
DOCKED: ATOM     36  C   UNL d   1     -10.947   4.849  -9.743 -0.14 +0.03    +0.052 C 
DOCKED: BRANCH  36  37
DOCKED: ATOM     37  C   UNL d   1     -12.141   5.730  -9.406 -0.06 +0.07    +0.115 C 
DOCKED: BRANCH  37  38
DOCKED: ATOM     38  C   UNL d   1     -12.665   5.423  -8.031 +0.02 +0.17    +0.139 C 
DOCKED: ATOM     39  O   UNL d   1     -13.425   4.484  -7.847 -0.01 -0.82    -0.650 OA
DOCKED: BRANCH  38  40
DOCKED: ATOM     40  O   UNL d   1     -12.300   6.189  -6.988 -0.14 -1.17    -0.776 OA
DOCKED: ATOM     41  H   UNL d   1     -11.457   6.663  -7.024 +0.02 +0.20    +0.167 HD
DOCKED: ENDBRANCH  38  40
DOCKED: ENDBRANCH  37  38
DOCKED: ENDBRANCH  36  37
DOCKED: ENDBRANCH  22  36
DOCKED: BRANCH  12  42
DOCKED: ATOM     42  C   UNL d   1      -6.072  11.871 -17.034 -0.04 -0.00    +0.004 C 
DOCKED: ATOM     43  C   UNL d   1      -4.842  11.937 -17.561 -0.06 -0.00    +0.012 C 
DOCKED: ENDBRANCH  12  42
DOCKED: BRANCH  17  44
DOCKED: ATOM     44  C   UNL d   1      -9.817   4.849 -17.634 -0.21 +0.00    +0.004 C 
DOCKED: ATOM     45  C   UNL d   1     -11.097   4.857 -18.022 -0.17 +0.00    +0.012 C 
DOCKED: ENDBRANCH  17  44
DOCKED: TORSDOF 10
DOCKED: TER
DOCKED: ENDMDL
________________________________________________________________________________


	BEGINNING GENETIC ALGORITHM DOCKING 59 of 100
Run: 59 Seed: 773653383 1255100835 [ Run 59 of 100 GA/GALS ]
Beginning LAMARCKIAN GENETIC ALGORITHM (LGA), with a maximum of 25000000 energy evaluations.

Final-Value: -9.478


	FINAL GENETIC ALGORITHM DOCKED STATE
	_______________________________________________


Detailed state:  trans 13.768 9.482 -10.163 quatxyzw -0.214618 0.381237 0.741252 0.509061 center -0.174 -0.001 -0.047 ntor 10 67.3954 35.6541 -117.9186 -148.2966 -79.6690 -79.5898 -114.9702 85.5077 152.6993 173.5772
State:	 13.768   9.482 -10.163  -0.249  0.443  0.861 118.797     67.40   35.65 -117.92 -148.30  -79.67  -79.59 -114.97   85.51  152.70  173.58

DOCKED: MODEL       59
DOCKED: USER    Run = 59
DOCKED: USER    DPF = D:/Protein_go_brrr/autodock/final/mut_K82N/heme_Fe/dock.dpf
DOCKED: USER  
DOCKED: USER    Estimated Free Energy of Binding    =   -3.86 kcal/mol  [=(1)+(2)+(3)-(4)]
DOCKED: USER    Estimated Inhibition Constant, Ki   =    1.49 mM (millimolar)  [Temperature = 298.15 K]
DOCKED: USER    
DOCKED: USER    (1) Final Intermolecular Energy     =   -6.84 kcal/mol
DOCKED: USER        vdW + Hbond + desolv Energy     =   -6.77 kcal/mol
DOCKED: USER        Electrostatic Energy            =   -0.07 kcal/mol
DOCKED: USER    (2) Final Total Internal Energy     =   -2.64 kcal/mol
DOCKED: USER    (3) Torsional Free Energy           =   +2.98 kcal/mol
DOCKED: USER    (4) Unbound System's Energy  [=(2)] =   -2.64 kcal/mol
DOCKED: USER    
DOCKED: USER    
DOCKED: USER    NEWDPF move heme_Fe_opt.pdbqt
DOCKED: USER    NEWDPF about -0.174000 -0.001000 -0.047000
DOCKED: USER    NEWDPF tran0 13.768228 9.481755 -10.162947
DOCKED: USER    NEWDPF quaternion0 -0.214618 0.381237 0.741252 0.509061
DOCKED: USER    NEWDPF axisangle0 -0.249344 0.442923 0.861189 118.797445
DOCKED: USER    NEWDPF quat0 -0.249344 0.442923 0.861189 118.797445
DOCKED: USER    NEWDPF dihe0 67.40 35.65 -117.92 -148.30 -79.67 -79.59 -114.97 85.51 152.70 173.58 
DOCKED: USER  keepresnum = 1 
DOCKED: USER  
DOCKED: REMARK  10 active torsions:
DOCKED: REMARK  status: ('A' for Active; 'I' for Inactive)
DOCKED: REMARK    1  A    between atoms: C_6  and  C_10 
DOCKED: REMARK    2  A    between atoms: C_10  and  C_11 
DOCKED: REMARK    3  A    between atoms: C_11  and  C_12 
DOCKED: REMARK    4  A    between atoms: C_12  and  O_14 
DOCKED: REMARK    5  A    between atoms: C_17  and  C_20 
DOCKED: REMARK    6  A    between atoms: C_24  and  C_27 
DOCKED: REMARK    7  A    between atoms: C_31  and  C_34 
DOCKED: REMARK    8  A    between atoms: C_34  and  C_35 
DOCKED: REMARK    9  A    between atoms: C_35  and  C_36 
DOCKED: REMARK   10  A    between atoms: C_36  and  O_38 
DOCKED: USER                              x       y       z     vdW  Elec       q    Type
DOCKED: USER                           _______ _______ _______ _____ _____    ______ ____
DOCKED: ROOT
DOCKED: ATOM      1  C   UNL d   1      14.129  11.497 -10.019 -0.16 -0.00    +0.064 C 
DOCKED: ATOM      2  C   UNL d   1      10.878   8.711 -12.489 -0.21 +0.00    +0.064 A 
DOCKED: ATOM      3  C   UNL d   1      12.021   4.997  -9.667 -0.29 -0.02    +0.064 C 
DOCKED: ATOM      4  C   UNL d   1      15.249   7.646  -7.332 -0.15 -0.00    +0.064 C 
DOCKED: ATOM      5  C   UNL d   1      13.169  11.034 -11.031 -0.18 -0.00    +0.066 A 
DOCKED: ATOM      6  C   UNL d   1      12.696  11.803 -12.082 -0.17 -0.00    -0.021 A 
DOCKED: ATOM      7  C   UNL d   1      11.790  11.030 -12.765 -0.18 -0.00    -0.025 A 
DOCKED: ATOM      8  C   UNL d   1      11.745   9.817 -12.104 -0.22 +0.00    +0.066 A 
DOCKED: ATOM      9  C   UNL d   1      11.032  11.435 -13.992 -0.13 +0.01    +0.051 C 
DOCKED: ATOM     10  C   UNL d   1      10.858   7.512 -11.905 -0.22 -0.01    +0.066 A 
DOCKED: ATOM     11  C   UNL d   1       9.936   6.511 -12.222 -0.26 +0.00    -0.021 A 
DOCKED: ATOM     12  C   UNL d   1      10.234   5.435 -11.410 -0.31 -0.00    +0.000 A 
DOCKED: ATOM     13  C   UNL d   1      11.327   5.842 -10.625 -0.24 -0.02    +0.070 A 
DOCKED: ATOM     14  C   UNL d   1       8.784   6.599 -13.202 -0.32 +0.01    +0.052 C 
DOCKED: ATOM     15  C   UNL d   1      13.041   5.400  -8.873 -0.20 -0.01    +0.066 A 
DOCKED: ATOM     16  C   UNL d   1      13.743   4.536  -8.042 -0.18 +0.00    -0.021 A 
DOCKED: ATOM     17  C   UNL d   1      14.672   5.299  -7.365 -0.13 -0.00    +0.000 A 
DOCKED: ATOM     18  C   UNL d   1      14.512   6.613  -7.796 -0.15 -0.01    +0.070 A 
DOCKED: ATOM     19  C   UNL d   1      13.535   3.055  -7.871 -0.18 -0.03    +0.052 C 
DOCKED: ATOM     20  C   UNL d   1      15.150   9.032  -7.807 -0.11 -0.00    +0.066 A 
DOCKED: ATOM     21  C   UNL d   1      15.759  10.140  -7.202 -0.11 +0.00    -0.025 A 
DOCKED: ATOM     22  C   UNL d   1      15.437  11.225  -7.991 -0.12 +0.00    -0.021 A 
DOCKED: ATOM     23  C   UNL d   1      14.644  10.739  -9.038 -0.07 -0.00    +0.066 A 
DOCKED: ATOM     24  C   UNL d   1      16.597  10.188  -5.946 -0.07 -0.00    +0.051 C 
DOCKED: ATOM     25  N   UNL d   1      12.592   9.820 -11.055 -0.18 +0.00    -0.248 N 
DOCKED: ATOM     26  N   UNL d   1      11.702   7.111 -10.920 -0.18 +0.04    -0.248 N 
DOCKED: ATOM     27  N   UNL d   1      13.539   6.670  -8.755 -0.13 +0.03    -0.248 N 
DOCKED: ATOM     28  N   UNL d   1      14.435   9.408  -8.895 -0.09 +0.01    -0.248 N 
DOCKED: ATOM     29 FE   UNL d   1      13.070   8.259  -9.906 -0.07 -0.00    +0.000 Fe
DOCKED: ENDROOT
DOCKED: BRANCH   6  30
DOCKED: ATOM     30  C   UNL d   1      13.098  13.194 -12.434 -0.08 -0.00    +0.052 C 
DOCKED: BRANCH  30  31
DOCKED: ATOM     31  C   UNL d   1      11.906  14.141 -12.340 -0.09 +0.00    +0.115 C 
DOCKED: BRANCH  31  32
DOCKED: ATOM     32  C   UNL d   1      11.426  14.244 -10.919 -0.22 +0.00    +0.139 C 
DOCKED: ATOM     33  O   UNL d   1      10.717  13.373 -10.436 -0.11 -0.08    -0.650 OA
DOCKED: BRANCH  32  34
DOCKED: ATOM     34  O   UNL d   1      11.775  15.300 -10.165 +0.04 -0.00    -0.776 OA
DOCKED: ATOM     35  H   UNL d   1      12.363  15.164  -9.409 +0.04 -0.00    +0.167 HD
DOCKED: ENDBRANCH  32  34
DOCKED: ENDBRANCH  31  32
DOCKED: ENDBRANCH  30  31
DOCKED: ENDBRANCH   6  30
DOCKED: BRANCH  22  36
DOCKED: ATOM     36  C   UNL d   1      15.830  12.654  -7.725 -0.07 -0.00    +0.052 C 
DOCKED: BRANCH  36  37
DOCKED: ATOM     37  C   UNL d   1      14.770  13.327  -6.866 -0.12 -0.01    +0.115 C 
DOCKED: BRANCH  37  38
DOCKED: ATOM     38  C   UNL d   1      13.784  14.077  -7.716 -0.15 -0.00    +0.139 C 
DOCKED: ATOM     39  O   UNL d   1      14.055  15.182  -8.161 +0.02 +0.03    -0.650 OA
DOCKED: BRANCH  38  40
DOCKED: ATOM     40  O   UNL d   1      12.585  13.533  -7.992 +0.02 -0.01    -0.776 OA
DOCKED: ATOM     41  H   UNL d   1      12.185  13.691  -8.858 +0.05 +0.01    +0.167 HD
DOCKED: ENDBRANCH  38  40
DOCKED: ENDBRANCH  37  38
DOCKED: ENDBRANCH  36  37
DOCKED: ENDBRANCH  22  36
DOCKED: BRANCH  12  42
DOCKED: ATOM     42  C   UNL d   1       9.491   4.137 -11.402 -0.39 -0.00    +0.004 C 
DOCKED: ATOM     43  C   UNL d   1       8.243   4.060 -10.921 -0.52 -0.01    +0.012 C 
DOCKED: ENDBRANCH  12  42
DOCKED: BRANCH  17  44
DOCKED: ATOM     44  C   UNL d   1      15.663   4.799  -6.385 -0.07 -0.00    +0.004 C 
DOCKED: ATOM     45  C   UNL d   1      15.399   4.818  -5.075 -0.10 +0.00    +0.012 C 
DOCKED: ENDBRANCH  17  44
DOCKED: TORSDOF 10
DOCKED: TER
DOCKED: ENDMDL
________________________________________________________________________________


	BEGINNING GENETIC ALGORITHM DOCKING 60 of 100
Run: 60 Seed: 1977628868 788545316 [ Run 60 of 100 GA/GALS ]
Beginning LAMARCKIAN GENETIC ALGORITHM (LGA), with a maximum of 25000000 energy evaluations.

Final-Value: -12.707


	FINAL GENETIC ALGORITHM DOCKED STATE
	_______________________________________________


Detailed state:  trans -8.619 7.270 -12.865 quatxyzw 0.436408 0.479373 -0.155250 -0.745417 center -0.174 -0.001 -0.047 ntor 10 37.2785 98.3242 -178.0548 54.6713 179.9843 -172.0188 -50.0081 -41.8115 -164.0829 3.8722
State:	 -8.619   7.270 -12.865   0.655  0.719 -0.233 -83.610     37.28   98.32 -178.05   54.67  179.98 -172.02  -50.01  -41.81 -164.08    3.87

DOCKED: MODEL       60
DOCKED: USER    Run = 60
DOCKED: USER    DPF = D:/Protein_go_brrr/autodock/final/mut_K82N/heme_Fe/dock.dpf
DOCKED: USER  
DOCKED: USER    Estimated Free Energy of Binding    =   -7.28 kcal/mol  [=(1)+(2)+(3)-(4)]
DOCKED: USER    Estimated Inhibition Constant, Ki   =    4.60 uM (micromolar)  [Temperature = 298.15 K]
DOCKED: USER    
DOCKED: USER    (1) Final Intermolecular Energy     =  -10.26 kcal/mol
DOCKED: USER        vdW + Hbond + desolv Energy     =   -7.50 kcal/mol
DOCKED: USER        Electrostatic Energy            =   -2.76 kcal/mol
DOCKED: USER    (2) Final Total Internal Energy     =   -2.44 kcal/mol
DOCKED: USER    (3) Torsional Free Energy           =   +2.98 kcal/mol
DOCKED: USER    (4) Unbound System's Energy  [=(2)] =   -2.44 kcal/mol
DOCKED: USER    
DOCKED: USER    
DOCKED: USER    NEWDPF move heme_Fe_opt.pdbqt
DOCKED: USER    NEWDPF about -0.174000 -0.001000 -0.047000
DOCKED: USER    NEWDPF tran0 -8.619198 7.269908 -12.864988
DOCKED: USER    NEWDPF quaternion0 0.436408 0.479373 -0.155250 -0.745417
DOCKED: USER    NEWDPF axisangle0 0.654679 0.719134 -0.232900 -83.610143
DOCKED: USER    NEWDPF quat0 0.654679 0.719134 -0.232900 -83.610143
DOCKED: USER    NEWDPF dihe0 37.28 98.32 -178.05 54.67 179.98 -172.02 -50.01 -41.81 -164.08 3.87 
DOCKED: USER  keepresnum = 1 
DOCKED: USER  
DOCKED: REMARK  10 active torsions:
DOCKED: REMARK  status: ('A' for Active; 'I' for Inactive)
DOCKED: REMARK    1  A    between atoms: C_6  and  C_10 
DOCKED: REMARK    2  A    between atoms: C_10  and  C_11 
DOCKED: REMARK    3  A    between atoms: C_11  and  C_12 
DOCKED: REMARK    4  A    between atoms: C_12  and  O_14 
DOCKED: REMARK    5  A    between atoms: C_17  and  C_20 
DOCKED: REMARK    6  A    between atoms: C_24  and  C_27 
DOCKED: REMARK    7  A    between atoms: C_31  and  C_34 
DOCKED: REMARK    8  A    between atoms: C_34  and  C_35 
DOCKED: REMARK    9  A    between atoms: C_35  and  C_36 
DOCKED: REMARK   10  A    between atoms: C_36  and  O_38 
DOCKED: USER                              x       y       z     vdW  Elec       q    Type
DOCKED: USER                           _______ _______ _______ _____ _____    ______ ____
DOCKED: ROOT
DOCKED: ATOM      1  C   UNL d   1      -9.324   6.441 -11.126 -0.14 +0.01    +0.064 C 
DOCKED: ATOM      2  C   UNL d   1      -9.800   5.380 -15.930 -0.24 +0.01    +0.064 A 
DOCKED: ATOM      3  C   UNL d   1      -6.110   8.307 -16.870 -0.17 -0.01    +0.064 C 
DOCKED: ATOM      4  C   UNL d   1      -5.700   9.428 -12.238 -0.25 -0.01    +0.064 C 
DOCKED: ATOM      5  C   UNL d   1      -9.854   5.935 -12.400 -0.15 +0.01    +0.066 A 
DOCKED: ATOM      6  C   UNL d   1     -10.987   5.149 -12.529 -0.14 -0.01    -0.021 A 
DOCKED: ATOM      7  C   UNL d   1     -11.116   4.852 -13.863 -0.17 -0.01    -0.025 A 
DOCKED: ATOM      8  C   UNL d   1     -10.056   5.469 -14.498 -0.21 +0.01    +0.066 A 
DOCKED: ATOM      9  C   UNL d   1     -12.209   4.037 -14.484 -0.18 +0.03    +0.051 C 
DOCKED: ATOM     10  C   UNL d   1      -8.819   6.013 -16.575 -0.24 +0.00    +0.066 A 
DOCKED: ATOM     11  C   UNL d   1      -8.529   5.817 -17.928 -0.22 +0.00    -0.021 A 
DOCKED: ATOM     12  C   UNL d   1      -7.458   6.638 -18.220 -0.12 -0.00    +0.000 A 
DOCKED: ATOM     13  C   UNL d   1      -7.141   7.291 -17.016 -0.17 -0.01    +0.070 A 
DOCKED: ATOM     14  C   UNL d   1      -9.196   4.845 -18.879 -0.23 +0.01    +0.052 C 
DOCKED: ATOM     15  C   UNL d   1      -5.767   8.901 -15.703 -0.13 -0.01    +0.066 A 
DOCKED: ATOM     16  C   UNL d   1      -4.846   9.939 -15.622 -0.12 +0.01    -0.021 A 
DOCKED: ATOM     17  C   UNL d   1      -4.724  10.261 -14.286 -0.24 -0.00    +0.000 A 
DOCKED: ATOM     18  C   UNL d   1      -5.571   9.409 -13.582 -0.19 -0.01    +0.070 A 
DOCKED: ATOM     19  C   UNL d   1      -4.091  10.586 -16.751 -0.10 -0.02    +0.052 C 
DOCKED: ATOM     20  C   UNL d   1      -6.627   8.589 -11.468 -0.20 -0.00    +0.066 A 
DOCKED: ATOM     21  C   UNL d   1      -6.629   8.455 -10.073 -0.27 +0.00    -0.025 A 
DOCKED: ATOM     22  C   UNL d   1      -7.678   7.610  -9.777 -0.19 -0.00    -0.021 A 
DOCKED: ATOM     23  C   UNL d   1      -8.267   7.257 -10.997 -0.12 +0.01    +0.066 A 
DOCKED: ATOM     24  C   UNL d   1      -5.696   9.083  -9.063 -0.47 -0.00    +0.051 C 
DOCKED: ATOM     25  N   UNL d   1      -9.296   6.135 -13.606 -0.07 -0.03    -0.248 N 
DOCKED: ATOM     26  N   UNL d   1      -7.964   6.904 -16.011 -0.15 +0.02    -0.248 N 
DOCKED: ATOM     27  N   UNL d   1      -6.245   8.602 -14.456 -0.08 +0.03    -0.248 N 
DOCKED: ATOM     28  N   UNL d   1      -7.593   7.822 -12.028 +0.01 -0.01    -0.248 N 
DOCKED: ATOM     29 FE   UNL d   1      -7.777   7.364 -14.019 -0.04 -0.00    +0.000 Fe
DOCKED: ENDROOT
DOCKED: BRANCH   6  30
DOCKED: ATOM     30  C   UNL d   1     -11.914   4.718 -11.444 -0.10 +0.02    +0.052 C 
DOCKED: BRANCH  30  31
DOCKED: ATOM     31  C   UNL d   1     -11.282   3.616 -10.600 -0.10 +0.05    +0.115 C 
DOCKED: BRANCH  31  32
DOCKED: ATOM     32  C   UNL d   1     -11.387   3.948  -9.137 -0.12 +0.13    +0.139 C 
DOCKED: ATOM     33  O   UNL d   1     -10.940   3.186  -8.292 +0.00 -1.03    -0.650 OA
DOCKED: BRANCH  32  34
DOCKED: ATOM     34  O   UNL d   1     -11.976   5.090  -8.745 +0.03 -0.77    -0.776 OA
DOCKED: ATOM     35  H   UNL d   1     -11.613   5.569  -7.987 +0.02 +0.24    +0.167 HD
DOCKED: ENDBRANCH  32  34
DOCKED: ENDBRANCH  31  32
DOCKED: ENDBRANCH  30  31
DOCKED: ENDBRANCH   6  30
DOCKED: BRANCH  22  36
DOCKED: ATOM     36  C   UNL d   1      -8.060   7.130  -8.401 -0.19 +0.01    +0.052 C 
DOCKED: BRANCH  36  37
DOCKED: ATOM     37  C   UNL d   1      -9.249   7.930  -7.890 -0.17 +0.04    +0.115 C 
DOCKED: BRANCH  37  38
DOCKED: ATOM     38  C   UNL d   1     -10.252   7.035  -7.218 -0.17 +0.11    +0.139 C 
DOCKED: ATOM     39  O   UNL d   1     -11.340   7.467  -6.869 -0.00 -0.50    -0.650 OA
DOCKED: BRANCH  38  40
DOCKED: ATOM     40  O   UNL d   1      -9.953   5.743  -6.992 -0.43 -1.35    -0.776 OA
DOCKED: ATOM     41  H   UNL d   1     -10.060   5.103  -7.709 +0.04 +0.29    +0.167 HD
DOCKED: ENDBRANCH  38  40
DOCKED: ENDBRANCH  37  38
DOCKED: ENDBRANCH  36  37
DOCKED: ENDBRANCH  22  36
DOCKED: BRANCH  12  42
DOCKED: ATOM     42  C   UNL d   1      -6.802   6.745 -19.560 -0.17 -0.00    +0.004 C 
DOCKED: ATOM     43  C   UNL d   1      -5.472   6.650 -19.686 -0.20 -0.00    +0.012 C 
DOCKED: ENDBRANCH  12  42
DOCKED: BRANCH  17  44
DOCKED: ATOM     44  C   UNL d   1      -3.867  11.329 -13.723 -0.46 -0.00    +0.004 C 
DOCKED: ATOM     45  C   UNL d   1      -4.406  12.447 -13.224 -0.49 -0.00    +0.012 C 
DOCKED: ENDBRANCH  17  44
DOCKED: TORSDOF 10
DOCKED: TER
DOCKED: ENDMDL
________________________________________________________________________________


	BEGINNING GENETIC ALGORITHM DOCKING 61 of 100
Run: 61 Seed: 1854911362 1860768866 [ Run 61 of 100 GA/GALS ]
Beginning LAMARCKIAN GENETIC ALGORITHM (LGA), with a maximum of 25000000 energy evaluations.

Final-Value: -10.797


	FINAL GENETIC ALGORITHM DOCKED STATE
	_______________________________________________


Detailed state:  trans -9.793 4.292 -9.026 quatxyzw -0.932961 -0.037397 -0.125775 0.335211 center -0.174 -0.001 -0.047 ntor 10 165.9155 138.3055 -173.9566 54.4825 3.2087 55.0100 -99.9770 -146.6332 159.3556 -32.1779
State:	 -9.793   4.292  -9.026  -0.990 -0.040 -0.133 140.829    165.92  138.31 -173.96   54.48    3.21   55.01  -99.98 -146.63  159.36  -32.18

DOCKED: MODEL       61
DOCKED: USER    Run = 61
DOCKED: USER    DPF = D:/Protein_go_brrr/autodock/final/mut_K82N/heme_Fe/dock.dpf
DOCKED: USER  
DOCKED: USER    Estimated Free Energy of Binding    =   -7.16 kcal/mol  [=(1)+(2)+(3)-(4)]
DOCKED: USER    Estimated Inhibition Constant, Ki   =    5.66 uM (micromolar)  [Temperature = 298.15 K]
DOCKED: USER    
DOCKED: USER    (1) Final Intermolecular Energy     =  -10.14 kcal/mol
DOCKED: USER        vdW + Hbond + desolv Energy     =   -7.75 kcal/mol
DOCKED: USER        Electrostatic Energy            =   -2.39 kcal/mol
DOCKED: USER    (2) Final Total Internal Energy     =   -0.66 kcal/mol
DOCKED: USER    (3) Torsional Free Energy           =   +2.98 kcal/mol
DOCKED: USER    (4) Unbound System's Energy  [=(2)] =   -0.66 kcal/mol
DOCKED: USER    
DOCKED: USER    
DOCKED: USER    NEWDPF move heme_Fe_opt.pdbqt
DOCKED: USER    NEWDPF about -0.174000 -0.001000 -0.047000
DOCKED: USER    NEWDPF tran0 -9.793149 4.292440 -9.026221
DOCKED: USER    NEWDPF quaternion0 -0.932961 -0.037397 -0.125775 0.335211
DOCKED: USER    NEWDPF axisangle0 -0.990254 -0.039694 -0.133499 140.829213
DOCKED: USER    NEWDPF quat0 -0.990254 -0.039694 -0.133499 140.829213
DOCKED: USER    NEWDPF dihe0 165.92 138.31 -173.96 54.48 3.21 55.01 -99.98 -146.63 159.36 -32.18 
DOCKED: USER  keepresnum = 1 
DOCKED: USER  
DOCKED: REMARK  10 active torsions:
DOCKED: REMARK  status: ('A' for Active; 'I' for Inactive)
DOCKED: REMARK    1  A    between atoms: C_6  and  C_10 
DOCKED: REMARK    2  A    between atoms: C_10  and  C_11 
DOCKED: REMARK    3  A    between atoms: C_11  and  C_12 
DOCKED: REMARK    4  A    between atoms: C_12  and  O_14 
DOCKED: REMARK    5  A    between atoms: C_17  and  C_20 
DOCKED: REMARK    6  A    between atoms: C_24  and  C_27 
DOCKED: REMARK    7  A    between atoms: C_31  and  C_34 
DOCKED: REMARK    8  A    between atoms: C_34  and  C_35 
DOCKED: REMARK    9  A    between atoms: C_35  and  C_36 
DOCKED: REMARK   10  A    between atoms: C_36  and  O_38 
DOCKED: USER                              x       y       z     vdW  Elec       q    Type
DOCKED: USER                           _______ _______ _______ _____ _____    ______ ____
DOCKED: ROOT
DOCKED: ATOM      1  C   UNL d   1     -11.567   3.705  -9.875 -0.14 +0.04    +0.064 C 
DOCKED: ATOM      2  C   UNL d   1      -8.043   6.956 -11.076 -0.08 +0.01    +0.064 A 
DOCKED: ATOM      3  C   UNL d   1      -5.133   4.882  -7.867 -0.23 +0.01    +0.064 C 
DOCKED: ATOM      4  C   UNL d   1      -8.564   1.793  -6.614 -0.22 +0.04    +0.064 C 
DOCKED: ATOM      5  C   UNL d   1     -10.873   4.865 -10.451 -0.12 +0.03    +0.066 A 
DOCKED: ATOM      6  C   UNL d   1     -11.442   5.769 -11.333 -0.07 -0.01    -0.021 A 
DOCKED: ATOM      7  C   UNL d   1     -10.461   6.669 -11.669 -0.07 -0.00    -0.025 A 
DOCKED: ATOM      8  C   UNL d   1      -9.330   6.280 -10.978 -0.13 +0.01    +0.066 A 
DOCKED: ATOM      9  C   UNL d   1     -10.617   7.842 -12.587 -0.05 +0.01    +0.051 C 
DOCKED: ATOM     10  C   UNL d   1      -6.952   6.636 -10.376 -0.12 +0.01    +0.066 A 
DOCKED: ATOM     11  C   UNL d   1      -5.703   7.228 -10.576 -0.28 +0.00    -0.021 A 
DOCKED: ATOM     12  C   UNL d   1      -4.842   6.636  -9.674 -0.42 -0.00    +0.000 A 
DOCKED: ATOM     13  C   UNL d   1      -5.617   5.697  -8.969 -0.25 +0.01    +0.070 A 
DOCKED: ATOM     14  C   UNL d   1      -5.331   8.260 -11.621 -0.26 -0.01    +0.052 C 
DOCKED: ATOM     15  C   UNL d   1      -5.860   3.941  -7.220 -0.06 +0.02    +0.066 A 
DOCKED: ATOM     16  C   UNL d   1      -5.393   3.254  -6.107 -0.23 -0.01    -0.021 A 
DOCKED: ATOM     17  C   UNL d   1      -6.380   2.360  -5.746 -0.40 +0.00    +0.000 A 
DOCKED: ATOM     18  C   UNL d   1      -7.426   2.520  -6.652 -0.34 +0.03    +0.070 A 
DOCKED: ATOM     19  C   UNL d   1      -4.062   3.411  -5.422 -0.24 +0.01    +0.052 C 
DOCKED: ATOM     20  C   UNL d   1      -9.711   1.977  -7.512 -0.14 +0.07    +0.066 A 
DOCKED: ATOM     21  C   UNL d   1     -10.806   1.107  -7.615 -0.18 -0.02    -0.025 A 
DOCKED: ATOM     22  C   UNL d   1     -11.655   1.678  -8.541 -0.15 -0.02    -0.021 A 
DOCKED: ATOM     23  C   UNL d   1     -11.045   2.863  -8.968 -0.05 +0.06    +0.066 A 
DOCKED: ATOM     24  C   UNL d   1     -11.048  -0.196  -6.889 -0.11 +0.02    +0.051 C 
DOCKED: ATOM     25  N   UNL d   1      -9.587   5.188 -10.230 -0.11 -0.09    -0.248 N 
DOCKED: ATOM     26  N   UNL d   1      -6.901   5.691  -9.403 -0.12 -0.04    -0.248 N 
DOCKED: ATOM     27  N   UNL d   1      -7.126   3.522  -7.532 -0.24 -0.09    -0.248 N 
DOCKED: ATOM     28  N   UNL d   1      -9.839   3.017  -8.370 -0.10 -0.25    -0.248 N 
DOCKED: ATOM     29 FE   UNL d   1      -8.370   4.353  -8.886 -0.05 +0.00    +0.000 Fe
DOCKED: ENDROOT
DOCKED: BRANCH   6  30
DOCKED: ATOM     30  C   UNL d   1     -12.851   5.790 -11.818 -0.03 +0.01    +0.052 C 
DOCKED: BRANCH  30  31
DOCKED: ATOM     31  C   UNL d   1     -12.918   5.438 -13.300 -0.04 +0.03    +0.115 C 
DOCKED: BRANCH  31  32
DOCKED: ATOM     32  C   UNL d   1     -12.832   3.949 -13.491 -0.11 +0.06    +0.139 C 
DOCKED: ATOM     33  O   UNL d   1     -12.782   3.198 -12.526 -0.00 -0.29    -0.650 OA
DOCKED: BRANCH  32  34
DOCKED: ATOM     34  O   UNL d   1     -12.810   3.427 -14.729 -0.07 -0.71    -0.776 OA
DOCKED: ATOM     35  H   UNL d   1     -13.054   3.988 -15.479 +0.02 +0.14    +0.167 HD
DOCKED: ENDBRANCH  32  34
DOCKED: ENDBRANCH  31  32
DOCKED: ENDBRANCH  30  31
DOCKED: ENDBRANCH   6  30
DOCKED: BRANCH  22  36
DOCKED: ATOM     36  C   UNL d   1     -12.956   1.090  -9.021 -0.12 +0.03    +0.052 C 
DOCKED: BRANCH  36  37
DOCKED: ATOM     37  C   UNL d   1     -13.946   1.023  -7.868 -0.07 +0.06    +0.115 C 
DOCKED: BRANCH  37  38
DOCKED: ATOM     38  C   UNL d   1     -13.736   2.162  -6.911 +0.01 +0.16    +0.139 C 
DOCKED: ATOM     39  O   UNL d   1     -13.751   3.319  -7.304 -0.13 -0.89    -0.650 OA
DOCKED: BRANCH  38  40
DOCKED: ATOM     40  O   UNL d   1     -13.526   1.913  -5.607 +0.01 -0.93    -0.776 OA
DOCKED: ATOM     41  H   UNL d   1     -14.054   1.231  -5.167 +0.01 +0.10    +0.167 HD
DOCKED: ENDBRANCH  38  40
DOCKED: ENDBRANCH  37  38
DOCKED: ENDBRANCH  36  37
DOCKED: ENDBRANCH  22  36
DOCKED: BRANCH  12  42
DOCKED: ATOM     42  C   UNL d   1      -3.388   6.958  -9.540 -0.58 -0.00    +0.004 C 
DOCKED: ATOM     43  C   UNL d   1      -2.459   5.994  -9.606 -0.59 +0.00    +0.012 C 
DOCKED: ENDBRANCH  12  42
DOCKED: BRANCH  17  44
DOCKED: ATOM     44  C   UNL d   1      -6.334   1.427  -4.597 -0.52 +0.00    +0.004 C 
DOCKED: ATOM     45  C   UNL d   1      -7.095   1.633  -3.517 -0.56 +0.00    +0.012 C 
DOCKED: ENDBRANCH  17  44
DOCKED: TORSDOF 10
DOCKED: TER
DOCKED: ENDMDL
________________________________________________________________________________


	BEGINNING GENETIC ALGORITHM DOCKING 62 of 100
Run: 62 Seed: 1041407123 1612869658 [ Run 62 of 100 GA/GALS ]
Beginning LAMARCKIAN GENETIC ALGORITHM (LGA), with a maximum of 25000000 energy evaluations.

Final-Value: -11.534


	FINAL GENETIC ALGORITHM DOCKED STATE
	_______________________________________________


Detailed state:  trans -10.108 2.607 -7.449 quatxyzw -0.811285 0.421857 -0.333658 0.229183 center -0.174 -0.001 -0.047 ntor 10 122.4585 169.0744 -130.2636 -149.5305 84.1675 -78.2057 -150.9337 162.0174 -22.9578 10.2242
State:	-10.108   2.607  -7.449  -0.833  0.433 -0.343 153.502    122.46  169.07 -130.26 -149.53   84.17  -78.21 -150.93  162.02  -22.96   10.22

DOCKED: MODEL       62
DOCKED: USER    Run = 62
DOCKED: USER    DPF = D:/Protein_go_brrr/autodock/final/mut_K82N/heme_Fe/dock.dpf
DOCKED: USER  
DOCKED: USER    Estimated Free Energy of Binding    =   -6.85 kcal/mol  [=(1)+(2)+(3)-(4)]
DOCKED: USER    Estimated Inhibition Constant, Ki   =    9.54 uM (micromolar)  [Temperature = 298.15 K]
DOCKED: USER    
DOCKED: USER    (1) Final Intermolecular Energy     =   -9.83 kcal/mol
DOCKED: USER        vdW + Hbond + desolv Energy     =   -7.71 kcal/mol
DOCKED: USER        Electrostatic Energy            =   -2.12 kcal/mol
DOCKED: USER    (2) Final Total Internal Energy     =   -1.70 kcal/mol
DOCKED: USER    (3) Torsional Free Energy           =   +2.98 kcal/mol
DOCKED: USER    (4) Unbound System's Energy  [=(2)] =   -1.70 kcal/mol
DOCKED: USER    
DOCKED: USER    
DOCKED: USER    NEWDPF move heme_Fe_opt.pdbqt
DOCKED: USER    NEWDPF about -0.174000 -0.001000 -0.047000
DOCKED: USER    NEWDPF tran0 -10.107500 2.606699 -7.448973
DOCKED: USER    NEWDPF quaternion0 -0.811285 0.421857 -0.333658 0.229183
DOCKED: USER    NEWDPF axisangle0 -0.833470 0.433392 -0.342782 153.501991
DOCKED: USER    NEWDPF quat0 -0.833470 0.433392 -0.342782 153.501991
DOCKED: USER    NEWDPF dihe0 122.46 169.07 -130.26 -149.53 84.17 -78.21 -150.93 162.02 -22.96 10.22 
DOCKED: USER  keepresnum = 1 
DOCKED: USER  
DOCKED: REMARK  10 active torsions:
DOCKED: REMARK  status: ('A' for Active; 'I' for Inactive)
DOCKED: REMARK    1  A    between atoms: C_6  and  C_10 
DOCKED: REMARK    2  A    between atoms: C_10  and  C_11 
DOCKED: REMARK    3  A    between atoms: C_11  and  C_12 
DOCKED: REMARK    4  A    between atoms: C_12  and  O_14 
DOCKED: REMARK    5  A    between atoms: C_17  and  C_20 
DOCKED: REMARK    6  A    between atoms: C_24  and  C_27 
DOCKED: REMARK    7  A    between atoms: C_31  and  C_34 
DOCKED: REMARK    8  A    between atoms: C_34  and  C_35 
DOCKED: REMARK    9  A    between atoms: C_35  and  C_36 
DOCKED: REMARK   10  A    between atoms: C_36  and  O_38 
DOCKED: USER                              x       y       z     vdW  Elec       q    Type
DOCKED: USER                           _______ _______ _______ _____ _____    ______ ____
DOCKED: ROOT
DOCKED: ATOM      1  C   UNL d   1     -10.708   3.344  -9.268 -0.05 +0.05    +0.064 C 
DOCKED: ATOM      2  C   UNL d   1      -6.452   3.322  -6.754 -0.25 +0.02    +0.064 A 
DOCKED: ATOM      3  C   UNL d   1      -8.254  -0.068  -3.868 -0.17 +0.01    +0.064 C 
DOCKED: ATOM      4  C   UNL d   1     -12.418   0.013  -6.221 -0.15 +0.03    +0.064 C 
DOCKED: ATOM      5  C   UNL d   1      -9.373   3.712  -8.776 -0.14 +0.05    +0.066 A 
DOCKED: ATOM      6  C   UNL d   1      -8.593   4.733  -9.294 -0.24 -0.01    -0.021 A 
DOCKED: ATOM      7  C   UNL d   1      -7.410   4.724  -8.598 -0.28 -0.01    -0.025 A 
DOCKED: ATOM      8  C   UNL d   1      -7.513   3.696  -7.681 -0.32 +0.03    +0.066 A 
DOCKED: ATOM      9  C   UNL d   1      -6.261   5.664  -8.797 -0.31 +0.01    +0.051 C 
DOCKED: ATOM     10  C   UNL d   1      -6.546   2.373  -5.821 -0.36 +0.02    +0.066 A 
DOCKED: ATOM     11  C   UNL d   1      -5.475   1.959  -5.026 -0.40 -0.00    -0.021 A 
DOCKED: ATOM     12  C   UNL d   1      -5.965   0.970  -4.196 -0.47 +0.00    +0.000 A 
DOCKED: ATOM     13  C   UNL d   1      -7.321   0.824  -4.537 -0.35 +0.01    +0.070 A 
DOCKED: ATOM     14  C   UNL d   1      -4.038   2.434  -5.099 -0.35 +0.01    +0.052 C 
DOCKED: ATOM     15  C   UNL d   1      -9.547  -0.249  -4.227 -0.21 +0.02    +0.066 A 
DOCKED: ATOM     16  C   UNL d   1     -10.432  -1.035  -3.501 -0.26 -0.00    -0.021 A 
DOCKED: ATOM     17  C   UNL d   1     -11.633  -1.016  -4.179 -0.18 +0.00    +0.000 A 
DOCKED: ATOM     18  C   UNL d   1     -11.450  -0.221  -5.308 -0.17 +0.03    +0.070 A 
DOCKED: ATOM     19  C   UNL d   1     -10.157  -1.796  -2.232 -0.15 -0.02    +0.052 C 
DOCKED: ATOM     20  C   UNL d   1     -12.281   0.893  -7.388 -0.12 +0.06    +0.066 A 
DOCKED: ATOM     21  C   UNL d   1     -13.199   0.988  -8.443 -0.10 -0.01    -0.025 A 
DOCKED: ATOM     22  C   UNL d   1     -12.698   1.953  -9.293 -0.12 -0.01    -0.021 A 
DOCKED: ATOM     23  C   UNL d   1     -11.497   2.401  -8.730 -0.10 +0.07    +0.066 A 
DOCKED: ATOM     24  C   UNL d   1     -14.480   0.215  -8.652 -0.04 +0.01    +0.051 C 
DOCKED: ATOM     25  N   UNL d   1      -8.712   3.089  -7.785 -0.20 -0.20    -0.248 N 
DOCKED: ATOM     26  N   UNL d   1      -7.673   1.673  -5.534 -0.23 -0.10    -0.248 N 
DOCKED: ATOM     27  N   UNL d   1     -10.181   0.286  -5.315 -0.10 -0.14    -0.248 N 
DOCKED: ATOM     28  N   UNL d   1     -11.225   1.719  -7.590 +0.07 -0.35    -0.248 N 
DOCKED: ATOM     29 FE   UNL d   1      -9.451   1.695  -6.562 -0.07 +0.00    +0.000 Fe
DOCKED: ENDROOT
DOCKED: BRANCH   6  30
DOCKED: ATOM     30  C   UNL d   1      -8.960   5.685 -10.381 -0.20 +0.01    +0.052 C 
DOCKED: BRANCH  30  31
DOCKED: ATOM     31  C   UNL d   1     -10.096   6.600  -9.937 -0.07 +0.04    +0.115 C 
DOCKED: BRANCH  31  32
DOCKED: ATOM     32  C   UNL d   1     -10.055   6.806  -8.448 -0.12 +0.08    +0.139 C 
DOCKED: ATOM     33  O   UNL d   1      -9.331   7.660  -7.957 +0.00 -0.26    -0.650 OA
DOCKED: BRANCH  32  34
DOCKED: ATOM     34  O   UNL d   1     -10.817   6.049  -7.641 -0.15 -1.03    -0.776 OA
DOCKED: ATOM     35  H   UNL d   1     -11.775   6.041  -7.771 +0.02 +0.21    +0.167 HD
DOCKED: ENDBRANCH  32  34
DOCKED: ENDBRANCH  31  32
DOCKED: ENDBRANCH  30  31
DOCKED: ENDBRANCH   6  30
DOCKED: BRANCH  22  36
DOCKED: ATOM     36  C   UNL d   1     -13.315   2.382 -10.598 -0.08 +0.02    +0.052 C 
DOCKED: BRANCH  36  37
DOCKED: ATOM     37  C   UNL d   1     -13.931   3.764 -10.444 -0.02 +0.04    +0.115 C 
DOCKED: BRANCH  37  38
DOCKED: ATOM     38  C   UNL d   1     -14.156   4.096  -8.996 -0.04 +0.08    +0.139 C 
DOCKED: ATOM     39  O   UNL d   1     -15.109   3.631  -8.389 +0.01 -0.30    -0.650 OA
DOCKED: BRANCH  38  40
DOCKED: ATOM     40  O   UNL d   1     -13.304   4.916  -8.356 +0.01 -0.72    -0.776 OA
DOCKED: ATOM     41  H   UNL d   1     -12.469   5.154  -8.783 +0.01 +0.15    +0.167 HD
DOCKED: ENDBRANCH  38  40
DOCKED: ENDBRANCH  37  38
DOCKED: ENDBRANCH  36  37
DOCKED: ENDBRANCH  22  36
DOCKED: BRANCH  12  42
DOCKED: ATOM     42  C   UNL d   1      -5.158   0.230  -3.177 -0.51 +0.00    +0.004 C 
DOCKED: ATOM     43  C   UNL d   1      -4.398  -0.817  -3.528 -0.59 -0.00    +0.012 C 
DOCKED: ENDBRANCH  12  42
DOCKED: BRANCH  17  44
DOCKED: ATOM     44  C   UNL d   1     -12.880  -1.698  -3.764 -0.09 -0.00    +0.004 C 
DOCKED: ATOM     45  C   UNL d   1     -13.196  -2.903  -4.248 -0.06 -0.00    +0.012 C 
DOCKED: ENDBRANCH  17  44
DOCKED: TORSDOF 10
DOCKED: TER
DOCKED: ENDMDL
________________________________________________________________________________


	BEGINNING GENETIC ALGORITHM DOCKING 63 of 100
Run: 63 Seed: 148971680 1172344866 [ Run 63 of 100 GA/GALS ]
Beginning LAMARCKIAN GENETIC ALGORITHM (LGA), with a maximum of 25000000 energy evaluations.

Final-Value: -12.244


	FINAL GENETIC ALGORITHM DOCKED STATE
	_______________________________________________


Detailed state:  trans -10.320 3.537 -10.368 quatxyzw 0.308207 0.356131 0.094796 0.877036 center -0.174 -0.001 -0.047 ntor 10 -62.6770 -40.5447 31.9924 -0.8995 109.1787 12.9392 71.9890 -76.7527 12.3290 0.3868
State:	-10.320   3.537 -10.368   0.642  0.741  0.197 57.426    -62.68  -40.54   31.99   -0.90  109.18   12.94   71.99  -76.75   12.33    0.39

DOCKED: MODEL       63
DOCKED: USER    Run = 63
DOCKED: USER    DPF = D:/Protein_go_brrr/autodock/final/mut_K82N/heme_Fe/dock.dpf
DOCKED: USER  
DOCKED: USER    Estimated Free Energy of Binding    =   -6.72 kcal/mol  [=(1)+(2)+(3)-(4)]
DOCKED: USER    Estimated Inhibition Constant, Ki   =   11.83 uM (micromolar)  [Temperature = 298.15 K]
DOCKED: USER    
DOCKED: USER    (1) Final Intermolecular Energy     =   -9.70 kcal/mol
DOCKED: USER        vdW + Hbond + desolv Energy     =   -7.28 kcal/mol
DOCKED: USER        Electrostatic Energy            =   -2.42 kcal/mol
DOCKED: USER    (2) Final Total Internal Energy     =   -2.54 kcal/mol
DOCKED: USER    (3) Torsional Free Energy           =   +2.98 kcal/mol
DOCKED: USER    (4) Unbound System's Energy  [=(2)] =   -2.54 kcal/mol
DOCKED: USER    
DOCKED: USER    
DOCKED: USER    NEWDPF move heme_Fe_opt.pdbqt
DOCKED: USER    NEWDPF about -0.174000 -0.001000 -0.047000
DOCKED: USER    NEWDPF tran0 -10.320292 3.536910 -10.367992
DOCKED: USER    NEWDPF quaternion0 0.308207 0.356131 0.094796 0.877036
DOCKED: USER    NEWDPF axisangle0 0.641531 0.741285 0.197317 57.426183
DOCKED: USER    NEWDPF quat0 0.641531 0.741285 0.197317 57.426183
DOCKED: USER    NEWDPF dihe0 -62.68 -40.54 31.99 -0.90 109.18 12.94 71.99 -76.75 12.33 0.39 
DOCKED: USER  keepresnum = 1 
DOCKED: USER  
DOCKED: REMARK  10 active torsions:
DOCKED: REMARK  status: ('A' for Active; 'I' for Inactive)
DOCKED: REMARK    1  A    between atoms: C_6  and  C_10 
DOCKED: REMARK    2  A    between atoms: C_10  and  C_11 
DOCKED: REMARK    3  A    between atoms: C_11  and  C_12 
DOCKED: REMARK    4  A    between atoms: C_12  and  O_14 
DOCKED: REMARK    5  A    between atoms: C_17  and  C_20 
DOCKED: REMARK    6  A    between atoms: C_24  and  C_27 
DOCKED: REMARK    7  A    between atoms: C_31  and  C_34 
DOCKED: REMARK    8  A    between atoms: C_34  and  C_35 
DOCKED: REMARK    9  A    between atoms: C_35  and  C_36 
DOCKED: REMARK   10  A    between atoms: C_36  and  O_38 
DOCKED: USER                              x       y       z     vdW  Elec       q    Type
DOCKED: USER                           _______ _______ _______ _____ _____    ______ ____
DOCKED: ROOT
DOCKED: ATOM      1  C   UNL d   1     -12.087   3.708 -11.397 -0.12 +0.02    +0.064 C 
DOCKED: ATOM      2  C   UNL d   1     -10.600   1.151  -7.437 -0.17 +0.06    +0.064 A 
DOCKED: ATOM      3  C   UNL d   1      -6.709   3.954  -7.175 -0.08 +0.02    +0.064 C 
DOCKED: ATOM      4  C   UNL d   1      -8.076   6.374 -11.068 -0.02 +0.01    +0.064 C 
DOCKED: ATOM      5  C   UNL d   1     -11.988   2.675 -10.357 -0.10 +0.03    +0.066 A 
DOCKED: ATOM      6  C   UNL d   1     -12.876   1.624 -10.199 -0.11 -0.01    -0.021 A 
DOCKED: ATOM      7  C   UNL d   1     -12.465   0.917  -9.097 -0.14 -0.01    -0.025 A 
DOCKED: ATOM      8  C   UNL d   1     -11.339   1.564  -8.624 -0.04 +0.05    +0.066 A 
DOCKED: ATOM      9  C   UNL d   1     -13.110  -0.319  -8.549 -0.11 +0.02    +0.051 C 
DOCKED: ATOM     10  C   UNL d   1      -9.479   1.723  -6.994 -0.15 +0.06    +0.066 A 
DOCKED: ATOM     11  C   UNL d   1      -8.858   1.378  -5.791 +0.03 -0.01    -0.021 A 
DOCKED: ATOM     12  C   UNL d   1      -7.742   2.184  -5.683 -0.39 +0.00    +0.000 A 
DOCKED: ATOM     13  C   UNL d   1      -7.745   2.992  -6.834 -0.34 +0.04    +0.070 A 
DOCKED: ATOM     14  C   UNL d   1      -9.341   0.379  -4.760 -0.17 +0.02    +0.052 C 
DOCKED: ATOM     15  C   UNL d   1      -6.733   4.771  -8.255 -0.18 +0.02    +0.066 A 
DOCKED: ATOM     16  C   UNL d   1      -5.677   5.604  -8.599 -0.28 -0.00    -0.021 A 
DOCKED: ATOM     17  C   UNL d   1      -6.071   6.306  -9.720 -0.17 +0.00    +0.000 A 
DOCKED: ATOM     18  C   UNL d   1      -7.362   5.886 -10.031 -0.02 +0.01    +0.070 A 
DOCKED: ATOM     19  C   UNL d   1      -4.358   5.756  -7.891 -0.36 +0.01    +0.052 C 
DOCKED: ATOM     20  C   UNL d   1      -9.413   5.912 -11.462 -0.15 +0.01    +0.066 A 
DOCKED: ATOM     21  C   UNL d   1     -10.242   6.540 -12.402 -0.10 -0.00    -0.025 A 
DOCKED: ATOM     22  C   UNL d   1     -11.374   5.756 -12.490 -0.09 -0.00    -0.021 A 
DOCKED: ATOM     23  C   UNL d   1     -11.195   4.691 -11.599 -0.12 +0.02    +0.066 A 
DOCKED: ATOM     24  C   UNL d   1      -9.993   7.811 -13.180 -0.08 +0.00    +0.051 C 
DOCKED: ATOM     25  N   UNL d   1     -11.046   2.627  -9.399 +0.05 -0.18    -0.248 N 
DOCKED: ATOM     26  N   UNL d   1      -8.809   2.717  -7.628 -0.20 -0.20    -0.248 N 
DOCKED: ATOM     27  N   UNL d   1      -7.754   4.910  -9.157 -0.17 -0.07    -0.248 N 
DOCKED: ATOM     28  N   UNL d   1     -10.016   4.816 -10.943 -0.12 -0.08    -0.248 N 
DOCKED: ATOM     29 FE   UNL d   1      -9.412   3.768  -9.286 -0.05 +0.00    +0.000 Fe
DOCKED: ENDROOT
DOCKED: BRANCH   6  30
DOCKED: ATOM     30  C   UNL d   1     -14.045   1.294 -11.062 -0.06 +0.02    +0.052 C 
DOCKED: BRANCH  30  31
DOCKED: ATOM     31  C   UNL d   1     -13.713   0.142 -12.004 -0.09 +0.04    +0.115 C 
DOCKED: BRANCH  31  32
DOCKED: ATOM     32  C   UNL d   1     -13.568   0.640 -13.415 -0.12 +0.12    +0.139 C 
DOCKED: ATOM     33  O   UNL d   1     -12.470   0.680 -13.952 -0.57 -1.00    -0.650 OA
DOCKED: BRANCH  32  34
DOCKED: ATOM     34  O   UNL d   1     -14.649   1.049 -14.101 -0.02 -0.66    -0.776 OA
DOCKED: ATOM     35  H   UNL d   1     -14.701   1.971 -14.390 +0.01 +0.14    +0.167 HD
DOCKED: ENDBRANCH  32  34
DOCKED: ENDBRANCH  31  32
DOCKED: ENDBRANCH  30  31
DOCKED: ENDBRANCH   6  30
DOCKED: BRANCH  22  36
DOCKED: ATOM     36  C   UNL d   1     -12.580   6.045 -13.345 -0.04 +0.01    +0.052 C 
DOCKED: BRANCH  36  37
DOCKED: ATOM     37  C   UNL d   1     -12.487   5.258 -14.644 -0.08 +0.04    +0.115 C 
DOCKED: BRANCH  37  38
DOCKED: ATOM     38  C   UNL d   1     -13.383   4.052 -14.609 -0.10 +0.08    +0.139 C 
DOCKED: ATOM     39  O   UNL d   1     -14.231   3.929 -13.738 +0.01 -0.27    -0.650 OA
DOCKED: BRANCH  38  40
DOCKED: ATOM     40  O   UNL d   1     -13.252   3.092 -15.541 -0.32 -1.19    -0.776 OA
DOCKED: ATOM     41  H   UNL d   1     -13.317   2.164 -15.273 +0.03 +0.41    +0.167 HD
DOCKED: ENDBRANCH  38  40
DOCKED: ENDBRANCH  37  38
DOCKED: ENDBRANCH  36  37
DOCKED: ENDBRANCH  22  36
DOCKED: BRANCH  12  42
DOCKED: ATOM     42  C   UNL d   1      -6.779   2.165  -4.539 -0.55 +0.00    +0.004 C 
DOCKED: ATOM     43  C   UNL d   1      -5.827   1.227  -4.455 -0.51 +0.00    +0.012 C 
DOCKED: ENDBRANCH  12  42
DOCKED: BRANCH  17  44
DOCKED: ATOM     44  C   UNL d   1      -5.257   7.298 -10.458 -0.41 -0.00    +0.004 C 
DOCKED: ATOM     45  C   UNL d   1      -4.028   6.992 -10.888 -0.52 -0.00    +0.012 C 
DOCKED: ENDBRANCH  17  44
DOCKED: TORSDOF 10
DOCKED: TER
DOCKED: ENDMDL
________________________________________________________________________________


	BEGINNING GENETIC ALGORITHM DOCKING 64 of 100
Run: 64 Seed: 130397557 839385707 [ Run 64 of 100 GA/GALS ]
Beginning LAMARCKIAN GENETIC ALGORITHM (LGA), with a maximum of 25000000 energy evaluations.

Final-Value: -11.869


	FINAL GENETIC ALGORITHM DOCKED STATE
	_______________________________________________


Detailed state:  trans -8.272 6.588 -12.356 quatxyzw -0.693937 0.010305 0.564350 -0.447051 center -0.174 -0.001 -0.047 ntor 10 -76.9812 86.3849 14.3895 -171.2014 46.1141 21.2193 -30.7640 29.8799 -175.5912 144.1302
State:	 -8.272   6.588 -12.356  -0.776  0.012  0.631 -126.891    -76.98   86.38   14.39 -171.20   46.11   21.22  -30.76   29.88 -175.59  144.13

DOCKED: MODEL       64
DOCKED: USER    Run = 64
DOCKED: USER    DPF = D:/Protein_go_brrr/autodock/final/mut_K82N/heme_Fe/dock.dpf
DOCKED: USER  
DOCKED: USER    Estimated Free Energy of Binding    =   -6.96 kcal/mol  [=(1)+(2)+(3)-(4)]
DOCKED: USER    Estimated Inhibition Constant, Ki   =    7.97 uM (micromolar)  [Temperature = 298.15 K]
DOCKED: USER    
DOCKED: USER    (1) Final Intermolecular Energy     =   -9.94 kcal/mol
DOCKED: USER        vdW + Hbond + desolv Energy     =   -7.08 kcal/mol
DOCKED: USER        Electrostatic Energy            =   -2.86 kcal/mol
DOCKED: USER    (2) Final Total Internal Energy     =   -1.93 kcal/mol
DOCKED: USER    (3) Torsional Free Energy           =   +2.98 kcal/mol
DOCKED: USER    (4) Unbound System's Energy  [=(2)] =   -1.93 kcal/mol
DOCKED: USER    
DOCKED: USER    
DOCKED: USER    NEWDPF move heme_Fe_opt.pdbqt
DOCKED: USER    NEWDPF about -0.174000 -0.001000 -0.047000
DOCKED: USER    NEWDPF tran0 -8.272306 6.587768 -12.355777
DOCKED: USER    NEWDPF quaternion0 -0.693937 0.010305 0.564350 -0.447051
DOCKED: USER    NEWDPF axisangle0 -0.775775 0.011521 0.630905 -126.890756
DOCKED: USER    NEWDPF quat0 -0.775775 0.011521 0.630905 -126.890756
DOCKED: USER    NEWDPF dihe0 -76.98 86.38 14.39 -171.20 46.11 21.22 -30.76 29.88 -175.59 144.13 
DOCKED: USER  keepresnum = 1 
DOCKED: USER  
DOCKED: REMARK  10 active torsions:
DOCKED: REMARK  status: ('A' for Active; 'I' for Inactive)
DOCKED: REMARK    1  A    between atoms: C_6  and  C_10 
DOCKED: REMARK    2  A    between atoms: C_10  and  C_11 
DOCKED: REMARK    3  A    between atoms: C_11  and  C_12 
DOCKED: REMARK    4  A    between atoms: C_12  and  O_14 
DOCKED: REMARK    5  A    between atoms: C_17  and  C_20 
DOCKED: REMARK    6  A    between atoms: C_24  and  C_27 
DOCKED: REMARK    7  A    between atoms: C_31  and  C_34 
DOCKED: REMARK    8  A    between atoms: C_34  and  C_35 
DOCKED: REMARK    9  A    between atoms: C_35  and  C_36 
DOCKED: REMARK   10  A    between atoms: C_36  and  O_38 
DOCKED: USER                              x       y       z     vdW  Elec       q    Type
DOCKED: USER                           _______ _______ _______ _____ _____    ______ ____
DOCKED: ROOT
DOCKED: ATOM      1  C   UNL d   1      -9.372   5.988 -10.730 -0.16 +0.02    +0.064 C 
DOCKED: ATOM      2  C   UNL d   1      -6.172   9.651 -11.607 -0.25 -0.01    +0.064 A 
DOCKED: ATOM      3  C   UNL d   1      -6.617   8.821 -16.317 -0.11 -0.01    +0.064 C 
DOCKED: ATOM      4  C   UNL d   1      -9.635   5.203 -15.486 -0.29 +0.01    +0.064 C 
DOCKED: ATOM      5  C   UNL d   1      -8.366   7.041 -10.537 -0.13 +0.01    +0.066 A 
DOCKED: ATOM      6  C   UNL d   1      -7.896   7.469  -9.306 -0.19 -0.00    -0.021 A 
DOCKED: ATOM      7  C   UNL d   1      -7.010   8.489  -9.550 -0.26 -0.00    -0.025 A 
DOCKED: ATOM      8  C   UNL d   1      -6.973   8.645 -10.923 -0.19 -0.00    +0.066 A 
DOCKED: ATOM      9  C   UNL d   1      -6.235   9.251  -8.520 -0.44 -0.00    +0.051 C 
DOCKED: ATOM     10  C   UNL d   1      -6.074   9.785 -12.931 -0.19 -0.01    +0.066 A 
DOCKED: ATOM     11  C   UNL d   1      -5.389  10.830 -13.556 -0.25 +0.00    -0.021 A 
DOCKED: ATOM     12  C   UNL d   1      -5.517  10.623 -14.915 -0.12 -0.00    +0.000 A 
DOCKED: ATOM     13  C   UNL d   1      -6.287   9.455 -15.050 -0.09 -0.01    +0.070 A 
DOCKED: ATOM     14  C   UNL d   1      -4.705  12.008 -12.892 -0.49 -0.01    +0.052 C 
DOCKED: ATOM     15  C   UNL d   1      -7.402   7.726 -16.455 -0.16 -0.01    +0.066 A 
DOCKED: ATOM     16  C   UNL d   1      -7.612   7.091 -17.673 -0.17 +0.00    -0.021 A 
DOCKED: ATOM     17  C   UNL d   1      -8.485   6.050 -17.436 -0.23 -0.00    +0.000 A 
DOCKED: ATOM     18  C   UNL d   1      -8.791   6.076 -16.077 -0.24 +0.00    +0.070 A 
DOCKED: ATOM     19  C   UNL d   1      -7.036   7.463 -19.013 -0.13 -0.01    +0.052 C 
DOCKED: ATOM     20  C   UNL d   1      -9.933   5.161 -14.049 -0.23 +0.01    +0.066 A 
DOCKED: ATOM     21  C   UNL d   1     -10.950   4.401 -13.455 -0.19 -0.01    -0.025 A 
DOCKED: ATOM     22  C   UNL d   1     -10.849   4.630 -12.098 -0.16 -0.01    -0.021 A 
DOCKED: ATOM     23  C   UNL d   1      -9.784   5.521 -11.920 -0.17 +0.01    +0.066 A 
DOCKED: ATOM     24  C   UNL d   1     -11.971   3.506 -14.119 -0.21 +0.03    +0.051 C 
DOCKED: ATOM     25  N   UNL d   1      -7.792   7.756 -11.520 -0.07 -0.01    -0.248 N 
DOCKED: ATOM     26  N   UNL d   1      -6.635   8.949 -13.841 -0.07 +0.02    -0.248 N 
DOCKED: ATOM     27  N   UNL d   1      -8.092   7.078 -15.465 -0.10 +0.01    -0.248 N 
DOCKED: ATOM     28  N   UNL d   1      -9.259   5.877 -13.117 -0.07 -0.03    -0.248 N 
DOCKED: ATOM     29 FE   UNL d   1      -7.948   7.411 -13.481 -0.04 +0.00    +0.000 Fe
DOCKED: ENDROOT
DOCKED: BRANCH   6  30
DOCKED: ATOM     30  C   UNL d   1      -8.253   6.925  -7.965 +0.04 +0.02    +0.052 C 
DOCKED: BRANCH  30  31
DOCKED: ATOM     31  C   UNL d   1      -9.514   7.593  -7.429 -0.18 +0.06    +0.115 C 
DOCKED: BRANCH  31  32
DOCKED: ATOM     32  C   UNL d   1     -10.282   6.641  -6.554 -0.15 +0.17    +0.139 C 
DOCKED: ATOM     33  O   UNL d   1      -9.709   5.976  -5.703 -0.29 -1.04    -0.650 OA
DOCKED: BRANCH  32  34
DOCKED: ATOM     34  O   UNL d   1     -11.612   6.513  -6.701 -0.05 -1.14    -0.776 OA
DOCKED: ATOM     35  H   UNL d   1     -11.960   5.737  -7.163 +0.01 +0.34    +0.167 HD
DOCKED: ENDBRANCH  32  34
DOCKED: ENDBRANCH  31  32
DOCKED: ENDBRANCH  30  31
DOCKED: ENDBRANCH   6  30
DOCKED: BRANCH  22  36
DOCKED: ATOM     36  C   UNL d   1     -11.757   4.061 -11.040 -0.13 +0.02    +0.052 C 
DOCKED: BRANCH  36  37
DOCKED: ATOM     37  C   UNL d   1     -12.461   5.192 -10.306 -0.05 +0.05    +0.115 C 
DOCKED: BRANCH  37  38
DOCKED: ATOM     38  C   UNL d   1     -12.782   4.799  -8.891 -0.07 +0.12    +0.139 C 
DOCKED: ATOM     39  O   UNL d   1     -12.175   3.892  -8.341 -0.04 -1.01    -0.650 OA
DOCKED: BRANCH  38  40
DOCKED: ATOM     40  O   UNL d   1     -13.750   5.446  -8.218 +0.00 -0.58    -0.776 OA
DOCKED: ATOM     41  H   UNL d   1     -13.510   6.195  -7.654 +0.01 +0.13    +0.167 HD
DOCKED: ENDBRANCH  38  40
DOCKED: ENDBRANCH  37  38
DOCKED: ENDBRANCH  36  37
DOCKED: ENDBRANCH  22  36
DOCKED: BRANCH  12  42
DOCKED: ATOM     42  C   UNL d   1      -4.945  11.511 -15.974 -0.13 -0.00    +0.004 C 
DOCKED: ATOM     43  C   UNL d   1      -3.623  11.692 -16.081 -0.22 -0.01    +0.012 C 
DOCKED: ENDBRANCH  12  42
DOCKED: BRANCH  17  44
DOCKED: ATOM     44  C   UNL d   1      -8.978   5.080 -18.441 -0.22 +0.00    +0.004 C 
DOCKED: ATOM     45  C   UNL d   1     -10.279   5.004 -18.737 -0.19 +0.00    +0.012 C 
DOCKED: ENDBRANCH  17  44
DOCKED: TORSDOF 10
DOCKED: TER
DOCKED: ENDMDL
________________________________________________________________________________


	BEGINNING GENETIC ALGORITHM DOCKING 65 of 100
Run: 65 Seed: 1888701863 364729837 [ Run 65 of 100 GA/GALS ]
Beginning LAMARCKIAN GENETIC ALGORITHM (LGA), with a maximum of 25000000 energy evaluations.

Final-Value: -11.566


	FINAL GENETIC ALGORITHM DOCKED STATE
	_______________________________________________


Detailed state:  trans -7.170 8.408 -10.508 quatxyzw 0.174231 -0.464744 -0.436805 0.750238 center -0.174 -0.001 -0.047 ntor 10 -53.4184 46.2678 -131.1057 -158.8492 101.3858 -108.7364 80.2442 -111.1783 11.0549 -25.4799
State:	 -7.170   8.408 -10.508   0.264 -0.703 -0.661 82.778    -53.42   46.27 -131.11 -158.85  101.39 -108.74   80.24 -111.18   11.05  -25.48

DOCKED: MODEL       65
DOCKED: USER    Run = 65
DOCKED: USER    DPF = D:/Protein_go_brrr/autodock/final/mut_K82N/heme_Fe/dock.dpf
DOCKED: USER  
DOCKED: USER    Estimated Free Energy of Binding    =   -6.49 kcal/mol  [=(1)+(2)+(3)-(4)]
DOCKED: USER    Estimated Inhibition Constant, Ki   =   17.49 uM (micromolar)  [Temperature = 298.15 K]
DOCKED: USER    
DOCKED: USER    (1) Final Intermolecular Energy     =   -9.47 kcal/mol
DOCKED: USER        vdW + Hbond + desolv Energy     =   -7.49 kcal/mol
DOCKED: USER        Electrostatic Energy            =   -1.99 kcal/mol
DOCKED: USER    (2) Final Total Internal Energy     =   -2.09 kcal/mol
DOCKED: USER    (3) Torsional Free Energy           =   +2.98 kcal/mol
DOCKED: USER    (4) Unbound System's Energy  [=(2)] =   -2.09 kcal/mol
DOCKED: USER    
DOCKED: USER    
DOCKED: USER    NEWDPF move heme_Fe_opt.pdbqt
DOCKED: USER    NEWDPF about -0.174000 -0.001000 -0.047000
DOCKED: USER    NEWDPF tran0 -7.170133 8.407947 -10.507831
DOCKED: USER    NEWDPF quaternion0 0.174231 -0.464744 -0.436805 0.750238
DOCKED: USER    NEWDPF axisangle0 0.263520 -0.702915 -0.660658 82.777936
DOCKED: USER    NEWDPF quat0 0.263520 -0.702915 -0.660658 82.777936
DOCKED: USER    NEWDPF dihe0 -53.42 46.27 -131.11 -158.85 101.39 -108.74 80.24 -111.18 11.05 -25.48 
DOCKED: USER  keepresnum = 1 
DOCKED: USER  
DOCKED: REMARK  10 active torsions:
DOCKED: REMARK  status: ('A' for Active; 'I' for Inactive)
DOCKED: REMARK    1  A    between atoms: C_6  and  C_10 
DOCKED: REMARK    2  A    between atoms: C_10  and  C_11 
DOCKED: REMARK    3  A    between atoms: C_11  and  C_12 
DOCKED: REMARK    4  A    between atoms: C_12  and  O_14 
DOCKED: REMARK    5  A    between atoms: C_17  and  C_20 
DOCKED: REMARK    6  A    between atoms: C_24  and  C_27 
DOCKED: REMARK    7  A    between atoms: C_31  and  C_34 
DOCKED: REMARK    8  A    between atoms: C_34  and  C_35 
DOCKED: REMARK    9  A    between atoms: C_35  and  C_36 
DOCKED: REMARK   10  A    between atoms: C_36  and  O_38 
DOCKED: USER                              x       y       z     vdW  Elec       q    Type
DOCKED: USER                           _______ _______ _______ _____ _____    ______ ____
DOCKED: ROOT
DOCKED: ATOM      1  C   UNL d   1      -7.201   7.753  -8.564 -0.27 +0.01    +0.064 C 
DOCKED: ATOM      2  C   UNL d   1      -3.908   7.571 -12.245 -0.37 -0.01    +0.064 A 
DOCKED: ATOM      3  C   UNL d   1      -6.451  10.902 -14.591 -0.11 -0.01    +0.064 C 
DOCKED: ATOM      4  C   UNL d   1      -9.706  11.017 -11.087 -0.08 +0.02    +0.064 C 
DOCKED: ATOM      5  C   UNL d   1      -6.084   7.332  -9.420 -0.31 +0.00    +0.066 A 
DOCKED: ATOM      6  C   UNL d   1      -5.199   6.309  -9.119 -0.38 -0.00    -0.021 A 
DOCKED: ATOM      7  C   UNL d   1      -4.283   6.262 -10.140 -0.33 +0.00    -0.025 A 
DOCKED: ATOM      8  C   UNL d   1      -4.644   7.258 -11.026 -0.33 -0.01    +0.066 A 
DOCKED: ATOM      9  C   UNL d   1      -3.142   5.298 -10.259 -0.26 +0.00    +0.051 C 
DOCKED: ATOM     10  C   UNL d   1      -4.268   8.488 -13.145 -0.30 -0.02    +0.066 A 
DOCKED: ATOM     11  C   UNL d   1      -3.482   8.844 -14.244 -0.39 +0.01    -0.021 A 
DOCKED: ATOM     12  C   UNL d   1      -4.186   9.816 -14.928 -0.23 -0.00    +0.000 A 
DOCKED: ATOM     13  C   UNL d   1      -5.372  10.010 -14.198 -0.16 -0.01    +0.070 A 
DOCKED: ATOM     14  C   UNL d   1      -2.098   8.334 -14.589 -0.40 -0.01    +0.052 C 
DOCKED: ATOM     15  C   UNL d   1      -7.571  11.131 -13.866 -0.09 -0.00    +0.066 A 
DOCKED: ATOM     16  C   UNL d   1      -8.624  11.914 -14.323 -0.07 -0.00    -0.021 A 
DOCKED: ATOM     17  C   UNL d   1      -9.562  11.951 -13.312 -0.08 +0.00    +0.000 A 
DOCKED: ATOM     18  C   UNL d   1      -9.057  11.192 -12.259 -0.06 +0.01    +0.070 A 
DOCKED: ATOM     19  C   UNL d   1      -8.735  12.621 -15.647 -0.03 -0.00    +0.052 C 
DOCKED: ATOM     20  C   UNL d   1      -9.234  10.176  -9.981 -0.13 +0.01    +0.066 A 
DOCKED: ATOM     21  C   UNL d   1      -9.790  10.143  -8.694 -0.14 -0.01    -0.025 A 
DOCKED: ATOM     22  C   UNL d   1      -9.069   9.197  -7.996 -0.21 -0.00    -0.021 A 
DOCKED: ATOM     23  C   UNL d   1      -8.103   8.697  -8.877 -0.20 +0.01    +0.066 A 
DOCKED: ATOM     24  C   UNL d   1     -10.936  10.958  -8.140 -0.12 +0.01    +0.051 C 
DOCKED: ATOM     25  N   UNL d   1      -5.745   7.901 -10.590 -0.19 +0.02    -0.248 N 
DOCKED: ATOM     26  N   UNL d   1      -5.418   9.207 -13.107 -0.14 +0.05    -0.248 N 
DOCKED: ATOM     27  N   UNL d   1      -7.853  10.652 -12.615 -0.08 -0.01    -0.248 N 
DOCKED: ATOM     28  N   UNL d   1      -8.179   9.330 -10.073 -0.08 -0.03    -0.248 N 
DOCKED: ATOM     29 FE   UNL d   1      -6.800   9.270 -11.589 -0.05 -0.00    +0.000 Fe
DOCKED: ENDROOT
DOCKED: BRANCH   6  30
DOCKED: ATOM     30  C   UNL d   1      -5.233   5.407  -7.933 -0.02 +0.01    +0.052 C 
DOCKED: BRANCH  30  31
DOCKED: ATOM     31  C   UNL d   1      -5.841   4.057  -8.299 -0.11 +0.02    +0.115 C 
DOCKED: BRANCH  31  32
DOCKED: ATOM     32  C   UNL d   1      -7.281   3.996  -7.872 -0.30 +0.05    +0.139 C 
DOCKED: ATOM     33  O   UNL d   1      -8.180   4.157  -8.687 -0.02 -0.30    -0.650 OA
DOCKED: BRANCH  32  34
DOCKED: ATOM     34  O   UNL d   1      -7.595   3.764  -6.587 +0.07 -0.45    -0.776 OA
DOCKED: ATOM     35  H   UNL d   1      -8.187   4.378  -6.130 +0.06 +0.15    +0.167 HD
DOCKED: ENDBRANCH  32  34
DOCKED: ENDBRANCH  31  32
DOCKED: ENDBRANCH  30  31
DOCKED: ENDBRANCH   6  30
DOCKED: BRANCH  22  36
DOCKED: ATOM     36  C   UNL d   1      -9.268   8.831  -6.548 -0.19 +0.02    +0.052 C 
DOCKED: BRANCH  36  37
DOCKED: ATOM     37  C   UNL d   1     -10.566   8.055  -6.389 -0.19 +0.07    +0.115 C 
DOCKED: BRANCH  37  38
DOCKED: ATOM     38  C   UNL d   1     -10.470   6.705  -7.042 -0.16 +0.15    +0.139 C 
DOCKED: ATOM     39  O   UNL d   1     -11.085   6.463  -8.070 -0.03 -0.58    -0.650 OA
DOCKED: BRANCH  38  40
DOCKED: ATOM     40  O   UNL d   1      -9.704   5.746  -6.492 -0.45 -1.38    -0.776 OA
DOCKED: ATOM     41  H   UNL d   1      -9.110   5.235  -7.060 +0.04 +0.22    +0.167 HD
DOCKED: ENDBRANCH  38  40
DOCKED: ENDBRANCH  37  38
DOCKED: ENDBRANCH  36  37
DOCKED: ENDBRANCH  22  36
DOCKED: BRANCH  12  42
DOCKED: ATOM     42  C   UNL d   1      -3.715  10.497 -16.173 -0.17 -0.00    +0.004 C 
DOCKED: ATOM     43  C   UNL d   1      -2.883  11.545 -16.113 -0.26 -0.01    +0.012 C 
DOCKED: ENDBRANCH  12  42
DOCKED: BRANCH  17  44
DOCKED: ATOM     44  C   UNL d   1     -10.866  12.650 -13.359 -0.06 +0.00    +0.004 C 
DOCKED: ATOM     45  C   UNL d   1     -11.054  13.796 -12.696 -0.08 +0.00    +0.012 C 
DOCKED: ENDBRANCH  17  44
DOCKED: TORSDOF 10
DOCKED: TER
DOCKED: ENDMDL
________________________________________________________________________________


	BEGINNING GENETIC ALGORITHM DOCKING 66 of 100
Run: 66 Seed: 1823405827 67025673 [ Run 66 of 100 GA/GALS ]
Beginning LAMARCKIAN GENETIC ALGORITHM (LGA), with a maximum of 25000000 energy evaluations.

Final-Value: -9.649


	FINAL GENETIC ALGORITHM DOCKED STATE
	_______________________________________________


Detailed state:  trans 7.720 -6.994 20.079 quatxyzw 0.810637 -0.398902 -0.033376 0.427353 center -0.174 -0.001 -0.047 ntor 10 -162.2020 162.8857 -150.7327 -118.6333 -86.7110 143.5344 105.8327 55.8848 177.4076 -21.7784
State:	  7.720  -6.994  20.079   0.897 -0.441 -0.037 129.401   -162.20  162.89 -150.73 -118.63  -86.71  143.53  105.83   55.88  177.41  -21.78

DOCKED: MODEL       66
DOCKED: USER    Run = 66
DOCKED: USER    DPF = D:/Protein_go_brrr/autodock/final/mut_K82N/heme_Fe/dock.dpf
DOCKED: USER  
DOCKED: USER    Estimated Free Energy of Binding    =   -6.01 kcal/mol  [=(1)+(2)+(3)-(4)]
DOCKED: USER    Estimated Inhibition Constant, Ki   =   39.33 uM (micromolar)  [Temperature = 298.15 K]
DOCKED: USER    
DOCKED: USER    (1) Final Intermolecular Energy     =   -8.99 kcal/mol
DOCKED: USER        vdW + Hbond + desolv Energy     =   -8.08 kcal/mol
DOCKED: USER        Electrostatic Energy            =   -0.92 kcal/mol
DOCKED: USER    (2) Final Total Internal Energy     =   -0.66 kcal/mol
DOCKED: USER    (3) Torsional Free Energy           =   +2.98 kcal/mol
DOCKED: USER    (4) Unbound System's Energy  [=(2)] =   -0.66 kcal/mol
DOCKED: USER    
DOCKED: USER    
DOCKED: USER    NEWDPF move heme_Fe_opt.pdbqt
DOCKED: USER    NEWDPF about -0.174000 -0.001000 -0.047000
DOCKED: USER    NEWDPF tran0 7.719568 -6.993812 20.078738
DOCKED: USER    NEWDPF quaternion0 0.810637 -0.398902 -0.033376 0.427353
DOCKED: USER    NEWDPF axisangle0 0.896638 -0.441222 -0.036917 129.400591
DOCKED: USER    NEWDPF quat0 0.896638 -0.441222 -0.036917 129.400591
DOCKED: USER    NEWDPF dihe0 -162.20 162.89 -150.73 -118.63 -86.71 143.53 105.83 55.88 177.41 -21.78 
DOCKED: USER  keepresnum = 1 
DOCKED: USER  
DOCKED: REMARK  10 active torsions:
DOCKED: REMARK  status: ('A' for Active; 'I' for Inactive)
DOCKED: REMARK    1  A    between atoms: C_6  and  C_10 
DOCKED: REMARK    2  A    between atoms: C_10  and  C_11 
DOCKED: REMARK    3  A    between atoms: C_11  and  C_12 
DOCKED: REMARK    4  A    between atoms: C_12  and  O_14 
DOCKED: REMARK    5  A    between atoms: C_17  and  C_20 
DOCKED: REMARK    6  A    between atoms: C_24  and  C_27 
DOCKED: REMARK    7  A    between atoms: C_31  and  C_34 
DOCKED: REMARK    8  A    between atoms: C_34  and  C_35 
DOCKED: REMARK    9  A    between atoms: C_35  and  C_36 
DOCKED: REMARK   10  A    between atoms: C_36  and  O_38 
DOCKED: USER                              x       y       z     vdW  Elec       q    Type
DOCKED: USER                           _______ _______ _______ _____ _____    ______ ____
DOCKED: ROOT
DOCKED: ATOM      1  C   UNL d   1       6.566  -5.368  20.564 -0.24 -0.00    +0.064 C 
DOCKED: ATOM      2  C   UNL d   1      11.237  -6.713  21.459 -0.07 +0.00    +0.064 A 
DOCKED: ATOM      3  C   UNL d   1      10.856 -10.060  18.037 -0.13 +0.01    +0.064 C 
DOCKED: ATOM      4  C   UNL d   1       6.301  -8.845  17.227 -0.14 -0.00    +0.064 C 
DOCKED: ATOM      5  C   UNL d   1       7.889  -5.491  21.191 -0.14 -0.00    +0.066 A 
DOCKED: ATOM      6  C   UNL d   1       8.315  -4.763  22.289 -0.14 +0.00    -0.021 A 
DOCKED: ATOM      7  C   UNL d   1       9.614  -5.134  22.535 -0.09 -0.00    -0.025 A 
DOCKED: ATOM      8  C   UNL d   1       9.931  -6.077  21.576 -0.07 +0.00    +0.066 A 
DOCKED: ATOM      9  C   UNL d   1      10.484  -4.621  23.641 -0.05 +0.00    +0.051 C 
DOCKED: ATOM     10  C   UNL d   1      11.551  -7.666  20.581 -0.10 +0.00    +0.066 A 
DOCKED: ATOM     11  C   UNL d   1      12.842  -8.174  20.417 -0.08 -0.00    -0.021 A 
DOCKED: ATOM     12  C   UNL d   1      12.763  -9.130  19.424 -0.12 +0.00    +0.000 A 
DOCKED: ATOM     13  C   UNL d   1      11.415  -9.149  19.023 -0.17 +0.01    +0.070 A 
DOCKED: ATOM     14  C   UNL d   1      14.104  -7.723  21.125 -0.04 +0.00    +0.052 C 
DOCKED: ATOM     15  C   UNL d   1       9.571 -10.048  17.610 -0.20 +0.01    +0.066 A 
DOCKED: ATOM     16  C   UNL d   1       9.052 -10.999  16.741 -0.17 -0.00    -0.021 A 
DOCKED: ATOM     17  C   UNL d   1       7.739 -10.648  16.503 -0.26 -0.00    +0.000 A 
DOCKED: ATOM     18  C   UNL d   1       7.489  -9.487  17.231 -0.24 +0.00    +0.070 A 
DOCKED: ATOM     19  C   UNL d   1       9.766 -12.177  16.135 -0.14 -0.00    +0.052 C 
DOCKED: ATOM     20  C   UNL d   1       5.983  -7.657  18.028 -0.16 -0.00    +0.066 A 
DOCKED: ATOM     21  C   UNL d   1       4.833  -6.868  17.885 -0.23 +0.00    -0.025 A 
DOCKED: ATOM     22  C   UNL d   1       4.923  -5.890  18.854 -0.26 +0.00    -0.021 A 
DOCKED: ATOM     23  C   UNL d   1       6.121  -6.116  19.543 -0.22 -0.01    +0.066 A 
DOCKED: ATOM     24  C   UNL d   1       3.705  -7.015  16.890 -0.41 -0.00    +0.051 C 
DOCKED: ATOM     25  N   UNL d   1       8.876  -6.299  20.766 -0.02 -0.01    -0.248 N 
DOCKED: ATOM     26  N   UNL d   1      10.678  -8.251  19.721 -0.11 -0.03    -0.248 N 
DOCKED: ATOM     27  N   UNL d   1       8.602  -9.142  17.946 -0.17 -0.03    -0.248 N 
DOCKED: ATOM     28  N   UNL d   1       6.785  -7.168  19.004 -0.14 +0.01    -0.248 N 
DOCKED: ATOM     29 FE   UNL d   1       8.730  -7.710  19.362 -0.04 +0.00    +0.000 Fe
DOCKED: ENDROOT
DOCKED: BRANCH   6  30
DOCKED: ATOM     30  C   UNL d   1       7.523  -3.778  23.080 -0.15 -0.00    +0.052 C 
DOCKED: BRANCH  30  31
DOCKED: ATOM     31  C   UNL d   1       7.740  -2.363  22.554 -0.25 -0.00    +0.115 C 
DOCKED: BRANCH  31  32
DOCKED: ATOM     32  C   UNL d   1       9.098  -1.856  22.953 -0.15 +0.01    +0.139 C 
DOCKED: ATOM     33  O   UNL d   1       9.264  -1.304  24.032 -0.04 -0.18    -0.650 OA
DOCKED: BRANCH  32  34
DOCKED: ATOM     34  O   UNL d   1      10.144  -2.004  22.124 +0.02 -0.02    -0.776 OA
DOCKED: ATOM     35  H   UNL d   1       9.979  -2.194  21.189 -0.42 -0.06    +0.167 HD
DOCKED: ENDBRANCH  32  34
DOCKED: ENDBRANCH  31  32
DOCKED: ENDBRANCH  30  31
DOCKED: ENDBRANCH   6  30
DOCKED: BRANCH  22  36
DOCKED: ATOM     36  C   UNL d   1       3.936  -4.774  19.073 -0.34 -0.01    +0.052 C 
DOCKED: BRANCH  36  37
DOCKED: ATOM     37  C   UNL d   1       2.686  -5.319  19.748 -0.24 +0.00    +0.115 C 
DOCKED: BRANCH  37  38
DOCKED: ATOM     38  C   UNL d   1       1.455  -4.986  18.953 -0.30 +0.06    +0.139 C 
DOCKED: ATOM     39  O   UNL d   1       0.527  -5.778  18.876 -0.06 -0.29    -0.650 OA
DOCKED: BRANCH  38  40
DOCKED: ATOM     40  O   UNL d   1       1.369  -3.807  18.312 -0.35 -0.31    -0.776 OA
DOCKED: ATOM     41  H   UNL d   1       1.967  -3.090  18.564 -0.38 -0.09    +0.167 HD
DOCKED: ENDBRANCH  38  40
DOCKED: ENDBRANCH  37  38
DOCKED: ENDBRANCH  36  37
DOCKED: ENDBRANCH  22  36
DOCKED: BRANCH  12  42
DOCKED: ATOM     42  C   UNL d   1      13.917  -9.930  18.911 -0.11 +0.00    +0.004 C 
DOCKED: ATOM     43  C   UNL d   1      14.496  -9.633  17.740 -0.13 +0.00    +0.012 C 
DOCKED: ENDBRANCH  12  42
DOCKED: BRANCH  17  44
DOCKED: ATOM     44  C   UNL d   1       6.780 -11.388  15.651 -0.34 -0.00    +0.004 C 
DOCKED: ATOM     45  C   UNL d   1       6.980 -11.500  14.334 -0.48 -0.00    +0.012 C 
DOCKED: ENDBRANCH  17  44
DOCKED: TORSDOF 10
DOCKED: TER
DOCKED: ENDMDL
________________________________________________________________________________


	BEGINNING GENETIC ALGORITHM DOCKING 67 of 100
Run: 67 Seed: 765164032 933826014 [ Run 67 of 100 GA/GALS ]
Beginning LAMARCKIAN GENETIC ALGORITHM (LGA), with a maximum of 25000000 energy evaluations.

Final-Value: -10.551


	FINAL GENETIC ALGORITHM DOCKED STATE
	_______________________________________________


Detailed state:  trans 0.596 5.756 18.262 quatxyzw 0.958456 0.068484 0.094794 -0.260166 center -0.174 -0.001 -0.047 ntor 10 20.2040 -148.9664 -166.3345 -111.0747 -78.1278 121.0016 -121.4442 24.6690 178.7982 -23.4433
State:	  0.596   5.756  18.262   0.993  0.071  0.098 -149.840     20.20 -148.97 -166.33 -111.07  -78.13  121.00 -121.44   24.67  178.80  -23.44

DOCKED: MODEL       67
DOCKED: USER    Run = 67
DOCKED: USER    DPF = D:/Protein_go_brrr/autodock/final/mut_K82N/heme_Fe/dock.dpf
DOCKED: USER  
DOCKED: USER    Estimated Free Energy of Binding    =   -7.07 kcal/mol  [=(1)+(2)+(3)-(4)]
DOCKED: USER    Estimated Inhibition Constant, Ki   =    6.59 uM (micromolar)  [Temperature = 298.15 K]
DOCKED: USER    
DOCKED: USER    (1) Final Intermolecular Energy     =  -10.05 kcal/mol
DOCKED: USER        vdW + Hbond + desolv Energy     =  -10.11 kcal/mol
DOCKED: USER        Electrostatic Energy            =   +0.06 kcal/mol
DOCKED: USER    (2) Final Total Internal Energy     =   -0.50 kcal/mol
DOCKED: USER    (3) Torsional Free Energy           =   +2.98 kcal/mol
DOCKED: USER    (4) Unbound System's Energy  [=(2)] =   -0.50 kcal/mol
DOCKED: USER    
DOCKED: USER    
DOCKED: USER    NEWDPF move heme_Fe_opt.pdbqt
DOCKED: USER    NEWDPF about -0.174000 -0.001000 -0.047000
DOCKED: USER    NEWDPF tran0 0.596320 5.755551 18.261819
DOCKED: USER    NEWDPF quaternion0 0.958456 0.068484 0.094794 -0.260166
DOCKED: USER    NEWDPF axisangle0 0.992638 0.070927 0.098175 -149.840173
DOCKED: USER    NEWDPF quat0 0.992638 0.070927 0.098175 -149.840173
DOCKED: USER    NEWDPF dihe0 20.20 -148.97 -166.33 -111.07 -78.13 121.00 -121.44 24.67 178.80 -23.44 
DOCKED: USER  keepresnum = 1 
DOCKED: USER  
DOCKED: REMARK  10 active torsions:
DOCKED: REMARK  status: ('A' for Active; 'I' for Inactive)
DOCKED: REMARK    1  A    between atoms: C_6  and  C_10 
DOCKED: REMARK    2  A    between atoms: C_10  and  C_11 
DOCKED: REMARK    3  A    between atoms: C_11  and  C_12 
DOCKED: REMARK    4  A    between atoms: C_12  and  O_14 
DOCKED: REMARK    5  A    between atoms: C_17  and  C_20 
DOCKED: REMARK    6  A    between atoms: C_24  and  C_27 
DOCKED: REMARK    7  A    between atoms: C_31  and  C_34 
DOCKED: REMARK    8  A    between atoms: C_34  and  C_35 
DOCKED: REMARK    9  A    between atoms: C_35  and  C_36 
DOCKED: REMARK   10  A    between atoms: C_36  and  O_38 
DOCKED: USER                              x       y       z     vdW  Elec       q    Type
DOCKED: USER                           _______ _______ _______ _____ _____    ______ ____
DOCKED: ROOT
DOCKED: ATOM      1  C   UNL d   1      -1.220   5.190  17.492 -0.21 -0.02    +0.064 C 
DOCKED: ATOM      2  C   UNL d   1       2.018   8.787  16.488 -0.24 -0.03    +0.064 A 
DOCKED: ATOM      3  C   UNL d   1       5.312   6.454  19.090 -0.27 -0.02    +0.064 C 
DOCKED: ATOM      4  C   UNL d   1       2.164   3.015  20.160 -0.24 -0.05    +0.064 C 
DOCKED: ATOM      5  C   UNL d   1      -0.639   6.461  17.037 -0.19 -0.02    +0.066 A 
DOCKED: ATOM      6  C   UNL d   1      -1.330   7.446  16.351 -0.20 +0.01    -0.021 A 
DOCKED: ATOM      7  C   UNL d   1      -0.430   8.443  16.069 -0.19 +0.02    -0.025 A 
DOCKED: ATOM      8  C   UNL d   1       0.778   8.028  16.595 -0.22 -0.03    +0.066 A 
DOCKED: ATOM      9  C   UNL d   1      -0.727   9.724  15.353 -0.12 -0.06    +0.051 C 
DOCKED: ATOM     10  C   UNL d   1       3.183   8.437  17.035 -0.24 -0.03    +0.066 A 
DOCKED: ATOM     11  C   UNL d   1       4.379   9.126  16.819 -0.26 +0.01    -0.021 A 
DOCKED: ATOM     12  C   UNL d   1       5.348   8.463  17.545 -0.21 -0.00    +0.000 A 
DOCKED: ATOM     13  C   UNL d   1       4.688   7.388  18.166 -0.21 -0.03    +0.070 A 
DOCKED: ATOM     14  C   UNL d   1       4.601  10.318  15.911 -0.13 -0.02    +0.052 C 
DOCKED: ATOM     15  C   UNL d   1       4.694   5.387  19.649 -0.25 -0.02    +0.066 A 
DOCKED: ATOM     16  C   UNL d   1       5.296   4.576  20.603 -0.26 +0.00    -0.021 A 
DOCKED: ATOM     17  C   UNL d   1       4.391   3.581  20.911 -0.29 -0.00    +0.000 A 
DOCKED: ATOM     18  C   UNL d   1       3.258   3.807  20.133 -0.27 -0.04    +0.070 A 
DOCKED: ATOM     19  C   UNL d   1       6.677   4.713  21.186 -0.27 +0.01    +0.052 C 
DOCKED: ATOM     20  C   UNL d   1       0.931   3.255  19.402 -0.26 -0.04    +0.066 A 
DOCKED: ATOM     21  C   UNL d   1      -0.127   2.345  19.265 -0.28 +0.01    -0.025 A 
DOCKED: ATOM     22  C   UNL d   1      -1.086   2.990  18.512 -0.25 +0.01    -0.021 A 
DOCKED: ATOM     23  C   UNL d   1      -0.576   4.260  18.214 -0.21 -0.02    +0.066 A 
DOCKED: ATOM     24  C   UNL d   1      -0.237   0.939  19.807 -0.17 -0.03    +0.051 C 
DOCKED: ATOM     25  N   UNL d   1       0.646   6.826  17.192 -0.15 +0.11    -0.248 N 
DOCKED: ATOM     26  N   UNL d   1       3.371   7.367  17.849 +0.03 +0.12    -0.248 N 
DOCKED: ATOM     27  N   UNL d   1       3.426   4.941  19.389 -0.15 +0.12    -0.248 N 
DOCKED: ATOM     28  N   UNL d   1       0.673   4.399  18.722 -0.15 +0.11    -0.248 N 
DOCKED: ATOM     29 FE   UNL d   1       2.022   5.881  18.286 -0.06 -0.00    +0.000 Fe
DOCKED: ENDROOT
DOCKED: BRANCH   6  30
DOCKED: ATOM     30  C   UNL d   1      -2.779   7.451  15.999 -0.22 -0.04    +0.052 C 
DOCKED: BRANCH  30  31
DOCKED: ATOM     31  C   UNL d   1      -3.000   6.848  14.616 -0.15 -0.11    +0.115 C 
DOCKED: BRANCH  31  32
DOCKED: ATOM     32  C   UNL d   1      -2.480   5.438  14.567 -0.45 -0.05    +0.139 C 
DOCKED: ATOM     33  O   UNL d   1      -1.282   5.220  14.452 -0.31 +0.17    -0.650 OA
DOCKED: BRANCH  32  34
DOCKED: ATOM     34  O   UNL d   1      -3.331   4.402  14.650 -0.33 +0.11    -0.776 OA
DOCKED: ATOM     35  H   UNL d   1      -2.990   3.535  14.912 -0.46 -0.07    +0.167 HD
DOCKED: ENDBRANCH  32  34
DOCKED: ENDBRANCH  31  32
DOCKED: ENDBRANCH  30  31
DOCKED: ENDBRANCH   6  30
DOCKED: BRANCH  22  36
DOCKED: ATOM     36  C   UNL d   1      -2.396   2.400  18.063 -0.29 -0.01    +0.052 C 
DOCKED: BRANCH  36  37
DOCKED: ATOM     37  C   UNL d   1      -3.350   2.308  19.245 -0.19 -0.02    +0.115 C 
DOCKED: BRANCH  37  38
DOCKED: ATOM     38  C   UNL d   1      -4.391   1.249  19.017 -0.17 -0.01    +0.139 C 
DOCKED: ATOM     39  O   UNL d   1      -4.506   0.309  19.789 -0.04 -0.03    -0.650 OA
DOCKED: BRANCH  38  40
DOCKED: ATOM     40  O   UNL d   1      -5.207   1.329  17.951 +0.02 +0.13    -0.776 OA
DOCKED: ATOM     41  H   UNL d   1      -4.882   1.745  17.140 -0.46 -0.07    +0.167 HD
DOCKED: ENDBRANCH  38  40
DOCKED: ENDBRANCH  37  38
DOCKED: ENDBRANCH  36  37
DOCKED: ENDBRANCH  22  36
DOCKED: BRANCH  12  42
DOCKED: ATOM     42  C   UNL d   1       6.792   8.850  17.600 -0.20 -0.00    +0.004 C 
DOCKED: ATOM     43  C   UNL d   1       7.746   8.016  17.167 -0.25 -0.00    +0.012 C 
DOCKED: ENDBRANCH  12  42
DOCKED: BRANCH  17  44
DOCKED: ATOM     44  C   UNL d   1       4.589   2.498  21.900 -0.30 -0.00    +0.004 C 
DOCKED: ATOM     45  C   UNL d   1       5.626   1.660  21.799 -0.39 -0.00    +0.012 C 
DOCKED: ENDBRANCH  17  44
DOCKED: TORSDOF 10
DOCKED: TER
DOCKED: ENDMDL
________________________________________________________________________________


	BEGINNING GENETIC ALGORITHM DOCKING 68 of 100
Run: 68 Seed: 1738924327 1656598754 [ Run 68 of 100 GA/GALS ]
Beginning LAMARCKIAN GENETIC ALGORITHM (LGA), with a maximum of 25000000 energy evaluations.

Final-Value: -11.549


	FINAL GENETIC ALGORITHM DOCKED STATE
	_______________________________________________


Detailed state:  trans -10.539 2.819 -8.066 quatxyzw 0.809741 -0.401506 0.372034 -0.211429 center -0.174 -0.001 -0.047 ntor 10 152.1395 139.0491 -126.9992 -151.9764 97.1804 -102.9861 158.1426 -45.7687 5.3412 135.8510
State:	-10.539   2.819  -8.066   0.828 -0.411  0.381 -155.588    152.14  139.05 -127.00 -151.98   97.18 -102.99  158.14  -45.77    5.34  135.85

DOCKED: MODEL       68
DOCKED: USER    Run = 68
DOCKED: USER    DPF = D:/Protein_go_brrr/autodock/final/mut_K82N/heme_Fe/dock.dpf
DOCKED: USER  
DOCKED: USER    Estimated Free Energy of Binding    =   -7.98 kcal/mol  [=(1)+(2)+(3)-(4)]
DOCKED: USER    Estimated Inhibition Constant, Ki   =    1.42 uM (micromolar)  [Temperature = 298.15 K]
DOCKED: USER    
DOCKED: USER    (1) Final Intermolecular Energy     =  -10.96 kcal/mol
DOCKED: USER        vdW + Hbond + desolv Energy     =   -8.21 kcal/mol
DOCKED: USER        Electrostatic Energy            =   -2.74 kcal/mol
DOCKED: USER    (2) Final Total Internal Energy     =   -0.59 kcal/mol
DOCKED: USER    (3) Torsional Free Energy           =   +2.98 kcal/mol
DOCKED: USER    (4) Unbound System's Energy  [=(2)] =   -0.59 kcal/mol
DOCKED: USER    
DOCKED: USER    
DOCKED: USER    NEWDPF move heme_Fe_opt.pdbqt
DOCKED: USER    NEWDPF about -0.174000 -0.001000 -0.047000
DOCKED: USER    NEWDPF tran0 -10.539215 2.818595 -8.065811
DOCKED: USER    NEWDPF quaternion0 0.809741 -0.401506 0.372034 -0.211429
DOCKED: USER    NEWDPF axisangle0 0.828470 -0.410793 0.380639 -155.587831
DOCKED: USER    NEWDPF quat0 0.828470 -0.410793 0.380639 -155.587831
DOCKED: USER    NEWDPF dihe0 152.14 139.05 -127.00 -151.98 97.18 -102.99 158.14 -45.77 5.34 135.85 
DOCKED: USER  keepresnum = 1 
DOCKED: USER  
DOCKED: REMARK  10 active torsions:
DOCKED: REMARK  status: ('A' for Active; 'I' for Inactive)
DOCKED: REMARK    1  A    between atoms: C_6  and  C_10 
DOCKED: REMARK    2  A    between atoms: C_10  and  C_11 
DOCKED: REMARK    3  A    between atoms: C_11  and  C_12 
DOCKED: REMARK    4  A    between atoms: C_12  and  O_14 
DOCKED: REMARK    5  A    between atoms: C_17  and  C_20 
DOCKED: REMARK    6  A    between atoms: C_24  and  C_27 
DOCKED: REMARK    7  A    between atoms: C_31  and  C_34 
DOCKED: REMARK    8  A    between atoms: C_34  and  C_35 
DOCKED: REMARK    9  A    between atoms: C_35  and  C_36 
DOCKED: REMARK   10  A    between atoms: C_36  and  O_38 
DOCKED: USER                              x       y       z     vdW  Elec       q    Type
DOCKED: USER                           _______ _______ _______ _____ _____    ______ ____
DOCKED: ROOT
DOCKED: ATOM      1  C   UNL d   1     -11.055   3.489  -9.935 -0.11 +0.04    +0.064 C 
DOCKED: ATOM      2  C   UNL d   1      -6.991   3.769  -7.137 -0.15 +0.02    +0.064 A 
DOCKED: ATOM      3  C   UNL d   1      -8.780   0.320  -4.314 -0.31 +0.02    +0.064 C 
DOCKED: ATOM      4  C   UNL d   1     -12.768   0.107  -6.947 -0.13 +0.03    +0.064 C 
DOCKED: ATOM      5  C   UNL d   1      -9.782   3.946  -9.362 -0.12 +0.04    +0.066 A 
DOCKED: ATOM      6  C   UNL d   1      -9.032   5.005  -9.845 -0.21 -0.01    -0.021 A 
DOCKED: ATOM      7  C   UNL d   1      -7.901   5.080  -9.070 -0.25 -0.01    -0.025 A 
DOCKED: ATOM      8  C   UNL d   1      -8.005   4.062  -8.141 -0.29 +0.03    +0.066 A 
DOCKED: ATOM      9  C   UNL d   1      -6.801   6.086  -9.209 -0.29 +0.01    +0.051 C 
DOCKED: ATOM     10  C   UNL d   1      -7.092   2.830  -6.194 -0.36 +0.03    +0.066 A 
DOCKED: ATOM     11  C   UNL d   1      -6.056   2.496  -5.319 -0.41 -0.00    -0.021 A 
DOCKED: ATOM     12  C   UNL d   1      -6.541   1.492  -4.505 -0.47 +0.00    +0.000 A 
DOCKED: ATOM     13  C   UNL d   1      -7.859   1.258  -4.936 -0.31 +0.02    +0.070 A 
DOCKED: ATOM     14  C   UNL d   1      -4.649   3.058  -5.304 -0.31 +0.01    +0.052 C 
DOCKED: ATOM     15  C   UNL d   1     -10.032   0.054  -4.756 -0.15 +0.03    +0.066 A 
DOCKED: ATOM     16  C   UNL d   1     -10.917  -0.774  -4.077 -0.23 -0.00    -0.021 A 
DOCKED: ATOM     17  C   UNL d   1     -12.066  -0.840  -4.837 -0.15 +0.00    +0.000 A 
DOCKED: ATOM     18  C   UNL d   1     -11.854  -0.052  -5.966 -0.16 +0.04    +0.070 A 
DOCKED: ATOM     19  C   UNL d   1     -10.684  -1.496  -2.777 -0.27 -0.01    +0.052 C 
DOCKED: ATOM     20  C   UNL d   1     -12.604   0.976  -8.119 -0.12 +0.04    +0.066 A 
DOCKED: ATOM     21  C   UNL d   1     -13.450   0.997  -9.236 -0.08 -0.01    -0.025 A 
DOCKED: ATOM     22  C   UNL d   1     -12.951   1.977 -10.069 -0.10 -0.01    -0.021 A 
DOCKED: ATOM     23  C   UNL d   1     -11.821   2.507  -9.434 -0.10 +0.05    +0.066 A 
DOCKED: ATOM     24  C   UNL d   1     -14.665   0.143  -9.517 -0.03 +0.01    +0.051 C 
DOCKED: ATOM     25  N   UNL d   1      -9.155   3.380  -8.315 -0.16 -0.21    -0.248 N 
DOCKED: ATOM     26  N   UNL d   1      -8.192   2.067  -5.971 -0.22 -0.15    -0.248 N 
DOCKED: ATOM     27  N   UNL d   1     -10.620   0.532  -5.896 -0.09 -0.19    -0.248 N 
DOCKED: ATOM     28  N   UNL d   1     -11.589   1.861  -8.265 -0.09 -0.27    -0.248 N 
DOCKED: ATOM     29 FE   UNL d   1      -9.892   1.963  -7.118 -0.06 +0.00    +0.000 Fe
DOCKED: ENDROOT
DOCKED: BRANCH   6  30
DOCKED: ATOM     30  C   UNL d   1      -9.379   5.915 -10.973 -0.17 +0.01    +0.052 C 
DOCKED: BRANCH  30  31
DOCKED: ATOM     31  C   UNL d   1     -10.061   7.178 -10.458 -0.06 +0.03    +0.115 C 
DOCKED: BRANCH  31  32
DOCKED: ATOM     32  C   UNL d   1     -10.658   6.937  -9.099 -0.06 +0.06    +0.139 C 
DOCKED: ATOM     33  O   UNL d   1     -10.053   7.261  -8.087 +0.01 -0.35    -0.650 OA
DOCKED: BRANCH  32  34
DOCKED: ATOM     34  O   UNL d   1     -11.867   6.361  -8.986 +0.03 -0.47    -0.776 OA
DOCKED: ATOM     35  H   UNL d   1     -12.507   6.469  -9.703 +0.01 +0.07    +0.167 HD
DOCKED: ENDBRANCH  32  34
DOCKED: ENDBRANCH  31  32
DOCKED: ENDBRANCH  30  31
DOCKED: ENDBRANCH   6  30
DOCKED: BRANCH  22  36
DOCKED: ATOM     36  C   UNL d   1     -13.501   2.346 -11.422 -0.08 +0.02    +0.052 C 
DOCKED: BRANCH  36  37
DOCKED: ATOM     37  C   UNL d   1     -12.388   2.304 -12.458 -0.13 +0.06    +0.115 C 
DOCKED: BRANCH  37  38
DOCKED: ATOM     38  C   UNL d   1     -12.828   1.570 -13.692 -0.14 +0.15    +0.139 C 
DOCKED: ATOM     39  O   UNL d   1     -12.459   0.424 -13.903 -0.61 -0.95    -0.650 OA
DOCKED: BRANCH  38  40
DOCKED: ATOM     40  O   UNL d   1     -13.635   2.175 -14.582 -0.10 -1.06    -0.776 OA
DOCKED: ATOM     41  H   UNL d   1     -14.368   2.718 -14.258 +0.01 +0.12    +0.167 HD
DOCKED: ENDBRANCH  38  40
DOCKED: ENDBRANCH  37  38
DOCKED: ENDBRANCH  36  37
DOCKED: ENDBRANCH  22  36
DOCKED: BRANCH  12  42
DOCKED: ATOM     42  C   UNL d   1      -5.763   0.819  -3.419 -0.53 +0.00    +0.004 C 
DOCKED: ATOM     43  C   UNL d   1      -4.872  -0.140  -3.703 -0.56 +0.00    +0.012 C 
DOCKED: ENDBRANCH  12  42
DOCKED: BRANCH  17  44
DOCKED: ATOM     44  C   UNL d   1     -13.296  -1.590  -4.494 -0.07 +0.00    +0.004 C 
DOCKED: ATOM     45  C   UNL d   1     -13.526  -2.801  -5.013 -0.05 -0.00    +0.012 C 
DOCKED: ENDBRANCH  17  44
DOCKED: TORSDOF 10
DOCKED: TER
DOCKED: ENDMDL
________________________________________________________________________________


	BEGINNING GENETIC ALGORITHM DOCKING 69 of 100
Run: 69 Seed: 311650380 2057230918 [ Run 69 of 100 GA/GALS ]
Beginning LAMARCKIAN GENETIC ALGORITHM (LGA), with a maximum of 25000000 energy evaluations.

Final-Value: -12.549


	FINAL GENETIC ALGORITHM DOCKED STATE
	_______________________________________________


Detailed state:  trans -8.854 7.124 -12.854 quatxyzw -0.428747 -0.492227 0.170834 0.738040 center -0.174 -0.001 -0.047 ntor 10 82.4522 -105.0901 -109.5686 64.6037 128.7506 177.8146 -36.9522 29.6765 -166.8725 148.4286
State:	 -8.854   7.124 -12.854  -0.635 -0.729  0.253 84.871     82.45 -105.09 -109.57   64.60  128.75  177.81  -36.95   29.68 -166.87  148.43

DOCKED: MODEL       69
DOCKED: USER    Run = 69
DOCKED: USER    DPF = D:/Protein_go_brrr/autodock/final/mut_K82N/heme_Fe/dock.dpf
DOCKED: USER  
DOCKED: USER    Estimated Free Energy of Binding    =   -7.99 kcal/mol  [=(1)+(2)+(3)-(4)]
DOCKED: USER    Estimated Inhibition Constant, Ki   =    1.39 uM (micromolar)  [Temperature = 298.15 K]
DOCKED: USER    
DOCKED: USER    (1) Final Intermolecular Energy     =  -10.97 kcal/mol
DOCKED: USER        vdW + Hbond + desolv Energy     =   -7.90 kcal/mol
DOCKED: USER        Electrostatic Energy            =   -3.08 kcal/mol
DOCKED: USER    (2) Final Total Internal Energy     =   -1.57 kcal/mol
DOCKED: USER    (3) Torsional Free Energy           =   +2.98 kcal/mol
DOCKED: USER    (4) Unbound System's Energy  [=(2)] =   -1.57 kcal/mol
DOCKED: USER    
DOCKED: USER    
DOCKED: USER    NEWDPF move heme_Fe_opt.pdbqt
DOCKED: USER    NEWDPF about -0.174000 -0.001000 -0.047000
DOCKED: USER    NEWDPF tran0 -8.853633 7.123505 -12.854440
DOCKED: USER    NEWDPF quaternion0 -0.428747 -0.492227 0.170834 0.738040
DOCKED: USER    NEWDPF axisangle0 -0.635410 -0.729489 0.253179 84.870525
DOCKED: USER    NEWDPF quat0 -0.635410 -0.729489 0.253179 84.870525
DOCKED: USER    NEWDPF dihe0 82.45 -105.09 -109.57 64.60 128.75 177.81 -36.95 29.68 -166.87 148.43 
DOCKED: USER  keepresnum = 1 
DOCKED: USER  
DOCKED: REMARK  10 active torsions:
DOCKED: REMARK  status: ('A' for Active; 'I' for Inactive)
DOCKED: REMARK    1  A    between atoms: C_6  and  C_10 
DOCKED: REMARK    2  A    between atoms: C_10  and  C_11 
DOCKED: REMARK    3  A    between atoms: C_11  and  C_12 
DOCKED: REMARK    4  A    between atoms: C_12  and  O_14 
DOCKED: REMARK    5  A    between atoms: C_17  and  C_20 
DOCKED: REMARK    6  A    between atoms: C_24  and  C_27 
DOCKED: REMARK    7  A    between atoms: C_31  and  C_34 
DOCKED: REMARK    8  A    between atoms: C_34  and  C_35 
DOCKED: REMARK    9  A    between atoms: C_35  and  C_36 
DOCKED: REMARK   10  A    between atoms: C_36  and  O_38 
DOCKED: USER                              x       y       z     vdW  Elec       q    Type
DOCKED: USER                           _______ _______ _______ _____ _____    ______ ____
DOCKED: ROOT
DOCKED: ATOM      1  C   UNL d   1      -9.490   6.327 -11.074 -0.14 +0.01    +0.064 C 
DOCKED: ATOM      2  C   UNL d   1     -10.175   5.194 -15.836 -0.22 +0.02    +0.064 A 
DOCKED: ATOM      3  C   UNL d   1      -6.509   8.079 -16.978 -0.17 -0.01    +0.064 C 
DOCKED: ATOM      4  C   UNL d   1      -5.896   9.270 -12.386 -0.25 -0.01    +0.064 C 
DOCKED: ATOM      5  C   UNL d   1     -10.077   5.805 -12.316 -0.15 +0.01    +0.066 A 
DOCKED: ATOM      6  C   UNL d   1     -11.219   5.025 -12.385 -0.13 -0.01    -0.021 A 
DOCKED: ATOM      7  C   UNL d   1     -11.407   4.708 -13.707 -0.16 -0.01    -0.025 A 
DOCKED: ATOM      8  C   UNL d   1     -10.370   5.308 -14.396 -0.20 +0.02    +0.066 A 
DOCKED: ATOM      9  C   UNL d   1     -12.530   3.892 -14.269 -0.17 +0.03    +0.051 C 
DOCKED: ATOM     10  C   UNL d   1      -9.218   5.809 -16.532 -0.24 +0.01    +0.066 A 
DOCKED: ATOM     11  C   UNL d   1      -8.987   5.591 -17.892 -0.22 -0.00    -0.021 A 
DOCKED: ATOM     12  C   UNL d   1      -7.924   6.398 -18.243 -0.17 -0.00    +0.000 A 
DOCKED: ATOM     13  C   UNL d   1      -7.552   7.069 -17.064 -0.18 -0.01    +0.070 A 
DOCKED: ATOM     14  C   UNL d   1      -9.700   4.608 -18.799 -0.20 +0.01    +0.052 C 
DOCKED: ATOM     15  C   UNL d   1      -6.113   8.689 -15.836 -0.13 -0.01    +0.066 A 
DOCKED: ATOM     16  C   UNL d   1      -5.183   9.721 -15.811 -0.10 +0.00    -0.021 A 
DOCKED: ATOM     17  C   UNL d   1      -5.002  10.063 -14.487 -0.20 -0.00    +0.000 A 
DOCKED: ATOM     18  C   UNL d   1      -5.824   9.229 -13.734 -0.17 -0.01    +0.070 A 
DOCKED: ATOM     19  C   UNL d   1      -4.471  10.345 -16.981 -0.08 -0.02    +0.052 C 
DOCKED: ATOM     20  C   UNL d   1      -6.795   8.450 -11.564 -0.18 -0.00    +0.066 A 
DOCKED: ATOM     21  C   UNL d   1      -6.740   8.338 -10.168 -0.25 -0.00    -0.025 A 
DOCKED: ATOM     22  C   UNL d   1      -7.781   7.505  -9.814 -0.18 -0.00    -0.021 A 
DOCKED: ATOM     23  C   UNL d   1      -8.423   7.138 -11.003 -0.12 +0.01    +0.066 A 
DOCKED: ATOM     24  C   UNL d   1      -5.761   8.975  -9.209 -0.47 -0.00    +0.051 C 
DOCKED: ATOM     25  N   UNL d   1      -9.568   5.982 -13.548 -0.10 -0.04    -0.248 N 
DOCKED: ATOM     26  N   UNL d   1      -8.335   6.703 -16.019 -0.15 +0.01    -0.248 N 
DOCKED: ATOM     27  N   UNL d   1      -6.540   8.413 -14.565 -0.07 +0.02    -0.248 N 
DOCKED: ATOM     28  N   UNL d   1      -7.790   7.682 -12.071 +0.03 -0.01    -0.248 N 
DOCKED: ATOM     29 FE   UNL d   1      -8.061   7.194 -14.044 -0.04 +0.00    +0.000 Fe
DOCKED: ENDROOT
DOCKED: BRANCH   6  30
DOCKED: ATOM     30  C   UNL d   1     -12.102   4.618 -11.255 -0.09 +0.02    +0.052 C 
DOCKED: BRANCH  30  31
DOCKED: ATOM     31  C   UNL d   1     -11.473   3.478 -10.462 -0.12 +0.06    +0.115 C 
DOCKED: BRANCH  31  32
DOCKED: ATOM     32  C   UNL d   1     -11.761   3.636  -8.994 -0.10 +0.14    +0.139 C 
DOCKED: ATOM     33  O   UNL d   1     -12.233   2.710  -8.348 -0.41 -0.89    -0.650 OA
DOCKED: BRANCH  32  34
DOCKED: ATOM     34  O   UNL d   1     -11.503   4.801  -8.378 +0.04 -1.10    -0.776 OA
DOCKED: ATOM     35  H   UNL d   1     -10.675   4.899  -7.886 +0.02 +0.32    +0.167 HD
DOCKED: ENDBRANCH  32  34
DOCKED: ENDBRANCH  31  32
DOCKED: ENDBRANCH  30  31
DOCKED: ENDBRANCH   6  30
DOCKED: BRANCH  22  36
DOCKED: ATOM     36  C   UNL d   1      -8.107   7.050  -8.417 -0.19 +0.01    +0.052 C 
DOCKED: BRANCH  36  37
DOCKED: ATOM     37  C   UNL d   1      -7.899   5.546  -8.305 -0.14 +0.05    +0.115 C 
DOCKED: BRANCH  37  38
DOCKED: ATOM     38  C   UNL d   1      -8.812   4.952  -7.270 -0.08 +0.15    +0.139 C 
DOCKED: ATOM     39  O   UNL d   1      -8.822   3.747  -7.063 -0.26 -0.79    -0.650 OA
DOCKED: BRANCH  38  40
DOCKED: ATOM     40  O   UNL d   1      -9.633   5.748  -6.562 -0.47 -1.31    -0.776 OA
DOCKED: ATOM     41  H   UNL d   1     -10.421   6.111  -6.990 +0.03 +0.27    +0.167 HD
DOCKED: ENDBRANCH  38  40
DOCKED: ENDBRANCH  37  38
DOCKED: ENDBRANCH  36  37
DOCKED: ENDBRANCH  22  36
DOCKED: BRANCH  12  42
DOCKED: ATOM     42  C   UNL d   1      -7.325   6.480 -19.611 -0.18 -0.00    +0.004 C 
DOCKED: ATOM     43  C   UNL d   1      -6.765   5.406 -20.183 -0.23 -0.00    +0.012 C 
DOCKED: ENDBRANCH  12  42
DOCKED: BRANCH  17  44
DOCKED: ATOM     44  C   UNL d   1      -4.116  11.134 -13.977 -0.41 -0.00    +0.004 C 
DOCKED: ATOM     45  C   UNL d   1      -4.615  12.171 -13.297 -0.51 -0.00    +0.012 C 
DOCKED: ENDBRANCH  17  44
DOCKED: TORSDOF 10
DOCKED: TER
DOCKED: ENDMDL
________________________________________________________________________________


	BEGINNING GENETIC ALGORITHM DOCKING 70 of 100
Run: 70 Seed: 1462910354 1017444763 [ Run 70 of 100 GA/GALS ]
Beginning LAMARCKIAN GENETIC ALGORITHM (LGA), with a maximum of 25000000 energy evaluations.

Final-Value: -12.525


	FINAL GENETIC ALGORITHM DOCKED STATE
	_______________________________________________


Detailed state:  trans -8.627 7.432 -12.750 quatxyzw -0.405519 -0.499956 0.152865 0.749820 center -0.174 -0.001 -0.047 ntor 10 -102.6134 -172.5069 -180.0000 58.2964 112.2412 122.6906 -42.6973 -11.7947 -180.0000 10.0853
State:	 -8.627   7.432 -12.750  -0.613 -0.756  0.231 82.850   -102.61 -172.51 -180.00   58.30  112.24  122.69  -42.70  -11.79 -180.00   10.09

DOCKED: MODEL       70
DOCKED: USER    Run = 70
DOCKED: USER    DPF = D:/Protein_go_brrr/autodock/final/mut_K82N/heme_Fe/dock.dpf
DOCKED: USER  
DOCKED: USER    Estimated Free Energy of Binding    =   -8.11 kcal/mol  [=(1)+(2)+(3)-(4)]
DOCKED: USER    Estimated Inhibition Constant, Ki   =    1.14 uM (micromolar)  [Temperature = 298.15 K]
DOCKED: USER    
DOCKED: USER    (1) Final Intermolecular Energy     =  -11.09 kcal/mol
DOCKED: USER        vdW + Hbond + desolv Energy     =   -8.24 kcal/mol
DOCKED: USER        Electrostatic Energy            =   -2.85 kcal/mol
DOCKED: USER    (2) Final Total Internal Energy     =   -1.43 kcal/mol
DOCKED: USER    (3) Torsional Free Energy           =   +2.98 kcal/mol
DOCKED: USER    (4) Unbound System's Energy  [=(2)] =   -1.43 kcal/mol
DOCKED: USER    
DOCKED: USER    
DOCKED: USER    NEWDPF move heme_Fe_opt.pdbqt
DOCKED: USER    NEWDPF about -0.174000 -0.001000 -0.047000
DOCKED: USER    NEWDPF tran0 -8.626971 7.432309 -12.750275
DOCKED: USER    NEWDPF quaternion0 -0.405519 -0.499956 0.152865 0.749820
DOCKED: USER    NEWDPF axisangle0 -0.612899 -0.755630 0.231040 82.850340
DOCKED: USER    NEWDPF quat0 -0.612899 -0.755630 0.231040 82.850340
DOCKED: USER    NEWDPF dihe0 -102.61 -172.51 -180.00 58.30 112.24 122.69 -42.70 -11.79 -180.00 10.09 
DOCKED: USER  keepresnum = 1 
DOCKED: USER  
DOCKED: REMARK  10 active torsions:
DOCKED: REMARK  status: ('A' for Active; 'I' for Inactive)
DOCKED: REMARK    1  A    between atoms: C_6  and  C_10 
DOCKED: REMARK    2  A    between atoms: C_10  and  C_11 
DOCKED: REMARK    3  A    between atoms: C_11  and  C_12 
DOCKED: REMARK    4  A    between atoms: C_12  and  O_14 
DOCKED: REMARK    5  A    between atoms: C_17  and  C_20 
DOCKED: REMARK    6  A    between atoms: C_24  and  C_27 
DOCKED: REMARK    7  A    between atoms: C_31  and  C_34 
DOCKED: REMARK    8  A    between atoms: C_34  and  C_35 
DOCKED: REMARK    9  A    between atoms: C_35  and  C_36 
DOCKED: REMARK   10  A    between atoms: C_36  and  O_38 
DOCKED: USER                              x       y       z     vdW  Elec       q    Type
DOCKED: USER                           _______ _______ _______ _____ _____    ______ ____
DOCKED: ROOT
DOCKED: ATOM      1  C   UNL d   1      -9.230   6.641 -10.955 -0.13 +0.01    +0.064 C 
DOCKED: ATOM      2  C   UNL d   1      -9.806   5.357 -15.693 -0.24 +0.01    +0.064 A 
DOCKED: ATOM      3  C   UNL d   1      -6.310   8.429 -16.879 -0.15 -0.01    +0.064 C 
DOCKED: ATOM      4  C   UNL d   1      -5.808   9.764 -12.313 -0.26 -0.01    +0.064 C 
DOCKED: ATOM      5  C   UNL d   1      -9.773   6.056 -12.189 -0.14 +0.01    +0.066 A 
DOCKED: ATOM      6  C   UNL d   1     -10.866   5.207 -12.246 -0.14 -0.01    -0.021 A 
DOCKED: ATOM      7  C   UNL d   1     -11.023   4.848 -13.562 -0.18 -0.01    -0.025 A 
DOCKED: ATOM      8  C   UNL d   1     -10.019   5.492 -14.258 -0.20 +0.01    +0.066 A 
DOCKED: ATOM      9  C   UNL d   1     -12.091   3.953 -14.111 -0.19 +0.03    +0.051 C 
DOCKED: ATOM     10  C   UNL d   1      -8.881   6.011 -16.397 -0.24 +0.00    +0.066 A 
DOCKED: ATOM     11  C   UNL d   1      -8.626   5.775 -17.750 -0.22 +0.00    -0.021 A 
DOCKED: ATOM     12  C   UNL d   1      -7.610   6.636 -18.113 -0.14 -0.00    +0.000 A 
DOCKED: ATOM     13  C   UNL d   1      -7.289   7.356 -16.948 -0.17 -0.01    +0.070 A 
DOCKED: ATOM     14  C   UNL d   1      -9.272   4.730 -18.638 -0.19 +0.01    +0.052 C 
DOCKED: ATOM     15  C   UNL d   1      -5.960   9.088 -15.750 -0.11 -0.01    +0.066 A 
DOCKED: ATOM     16  C   UNL d   1      -5.094  10.174 -15.743 -0.09 +0.01    -0.021 A 
DOCKED: ATOM     17  C   UNL d   1      -4.945  10.559 -14.427 -0.21 -0.00    +0.000 A 
DOCKED: ATOM     18  C   UNL d   1      -5.722   9.694 -13.660 -0.17 -0.01    +0.070 A 
DOCKED: ATOM     19  C   UNL d   1      -4.411  10.812 -16.923 -0.08 -0.02    +0.052 C 
DOCKED: ATOM     20  C   UNL d   1      -6.662   8.911 -11.479 -0.20 -0.00    +0.066 A 
DOCKED: ATOM     21  C   UNL d   1      -6.612   8.836 -10.079 -0.28 +0.00    -0.025 A 
DOCKED: ATOM     22  C   UNL d   1      -7.604   7.950  -9.713 -0.20 -0.00    -0.021 A 
DOCKED: ATOM     23  C   UNL d   1      -8.213   7.517 -10.897 -0.12 +0.01    +0.066 A 
DOCKED: ATOM     24  C   UNL d   1      -5.681   9.552  -9.129 -0.47 -0.01    +0.051 C 
DOCKED: ATOM     25  N   UNL d   1      -9.266   6.234 -13.421 -0.07 -0.03    -0.248 N 
DOCKED: ATOM     26  N   UNL d   1      -8.057   6.969 -15.900 -0.14 +0.01    -0.248 N 
DOCKED: ATOM     27  N   UNL d   1      -6.381   8.818 -14.476 -0.07 +0.03    -0.248 N 
DOCKED: ATOM     28  N   UNL d   1      -7.605   8.072 -11.973 -0.06 -0.01    -0.248 N 
DOCKED: ATOM     29 FE   UNL d   1      -7.830   7.522 -13.936 -0.04 -0.00    +0.000 Fe
DOCKED: ENDROOT
DOCKED: BRANCH   6  30
DOCKED: ATOM     30  C   UNL d   1     -11.733   4.775 -11.113 -0.11 +0.02    +0.052 C 
DOCKED: BRANCH  30  31
DOCKED: ATOM     31  C   UNL d   1     -11.202   3.490 -10.487 -0.07 +0.05    +0.115 C 
DOCKED: BRANCH  31  32
DOCKED: ATOM     32  C   UNL d   1     -11.267   3.570  -8.987 -0.11 +0.14    +0.139 C 
DOCKED: ATOM     33  O   UNL d   1     -12.037   2.858  -8.358 -0.34 -0.95    -0.650 OA
DOCKED: BRANCH  32  34
DOCKED: ATOM     34  O   UNL d   1     -10.475   4.428  -8.322 -0.08 -1.11    -0.776 OA
DOCKED: ATOM     35  H   UNL d   1     -10.709   5.366  -8.306 +0.03 +0.20    +0.167 HD
DOCKED: ENDBRANCH  32  34
DOCKED: ENDBRANCH  31  32
DOCKED: ENDBRANCH  30  31
DOCKED: ENDBRANCH   6  30
DOCKED: BRANCH  22  36
DOCKED: ATOM     36  C   UNL d   1      -7.915   7.509  -8.307 -0.21 +0.01    +0.052 C 
DOCKED: BRANCH  36  37
DOCKED: ATOM     37  C   UNL d   1      -9.214   8.151  -7.842 -0.18 +0.04    +0.115 C 
DOCKED: BRANCH  37  38
DOCKED: ATOM     38  C   UNL d   1      -9.712   7.507  -6.580 -0.07 +0.10    +0.139 C 
DOCKED: ATOM     39  O   UNL d   1      -9.904   8.172  -5.572 -0.56 -0.45    -0.650 OA
DOCKED: BRANCH  38  40
DOCKED: ATOM     40  O   UNL d   1      -9.947   6.183  -6.549 -0.42 -1.14    -0.776 OA
DOCKED: ATOM     41  H   UNL d   1      -9.692   5.643  -7.310 +0.04 +0.24    +0.167 HD
DOCKED: ENDBRANCH  38  40
DOCKED: ENDBRANCH  37  38
DOCKED: ENDBRANCH  36  37
DOCKED: ENDBRANCH  22  36
DOCKED: BRANCH  12  42
DOCKED: ATOM     42  C   UNL d   1      -7.006   6.721 -19.478 -0.17 -0.00    +0.004 C 
DOCKED: ATOM     43  C   UNL d   1      -5.677   6.728 -19.644 -0.19 -0.00    +0.012 C 
DOCKED: ENDBRANCH  12  42
DOCKED: BRANCH  17  44
DOCKED: ATOM     44  C   UNL d   1      -4.128  11.692 -13.937 -0.46 -0.00    +0.004 C 
DOCKED: ATOM     45  C   UNL d   1      -4.707  12.771 -13.398 -0.42 -0.00    +0.012 C 
DOCKED: ENDBRANCH  17  44
DOCKED: TORSDOF 10
DOCKED: TER
DOCKED: ENDMDL
________________________________________________________________________________


	BEGINNING GENETIC ALGORITHM DOCKING 71 of 100
Run: 71 Seed: 918665982 1431357945 [ Run 71 of 100 GA/GALS ]
Beginning LAMARCKIAN GENETIC ALGORITHM (LGA), with a maximum of 25000000 energy evaluations.

Final-Value: -11.918


	FINAL GENETIC ALGORITHM DOCKED STATE
	_______________________________________________


Detailed state:  trans -8.501 5.900 -14.488 quatxyzw 0.623365 0.442476 -0.094253 0.637767 center -0.174 -0.001 -0.047 ntor 10 136.3842 -43.8101 174.9487 47.5909 87.0951 -179.6608 -6.8709 65.6955 -173.6481 155.7184
State:	 -8.501   5.900 -14.488   0.809  0.574 -0.122 100.749    136.38  -43.81  174.95   47.59   87.10 -179.66   -6.87   65.70 -173.65  155.72

DOCKED: MODEL       71
DOCKED: USER    Run = 71
DOCKED: USER    DPF = D:/Protein_go_brrr/autodock/final/mut_K82N/heme_Fe/dock.dpf
DOCKED: USER  
DOCKED: USER    Estimated Free Energy of Binding    =   -6.82 kcal/mol  [=(1)+(2)+(3)-(4)]
DOCKED: USER    Estimated Inhibition Constant, Ki   =   10.05 uM (micromolar)  [Temperature = 298.15 K]
DOCKED: USER    
DOCKED: USER    (1) Final Intermolecular Energy     =   -9.80 kcal/mol
DOCKED: USER        vdW + Hbond + desolv Energy     =   -7.76 kcal/mol
DOCKED: USER        Electrostatic Energy            =   -2.04 kcal/mol
DOCKED: USER    (2) Final Total Internal Energy     =   -2.12 kcal/mol
DOCKED: USER    (3) Torsional Free Energy           =   +2.98 kcal/mol
DOCKED: USER    (4) Unbound System's Energy  [=(2)] =   -2.12 kcal/mol
DOCKED: USER    
DOCKED: USER    
DOCKED: USER    NEWDPF move heme_Fe_opt.pdbqt
DOCKED: USER    NEWDPF about -0.174000 -0.001000 -0.047000
DOCKED: USER    NEWDPF tran0 -8.500501 5.899855 -14.487907
DOCKED: USER    NEWDPF quaternion0 0.623365 0.442476 -0.094253 0.637767
DOCKED: USER    NEWDPF axisangle0 0.809324 0.574473 -0.122371 100.748986
DOCKED: USER    NEWDPF quat0 0.809324 0.574473 -0.122371 100.748986
DOCKED: USER    NEWDPF dihe0 136.38 -43.81 174.95 47.59 87.10 -179.66 -6.87 65.70 -173.65 155.72 
DOCKED: USER  keepresnum = 1 
DOCKED: USER  
DOCKED: REMARK  10 active torsions:
DOCKED: REMARK  status: ('A' for Active; 'I' for Inactive)
DOCKED: REMARK    1  A    between atoms: C_6  and  C_10 
DOCKED: REMARK    2  A    between atoms: C_10  and  C_11 
DOCKED: REMARK    3  A    between atoms: C_11  and  C_12 
DOCKED: REMARK    4  A    between atoms: C_12  and  O_14 
DOCKED: REMARK    5  A    between atoms: C_17  and  C_20 
DOCKED: REMARK    6  A    between atoms: C_24  and  C_27 
DOCKED: REMARK    7  A    between atoms: C_31  and  C_34 
DOCKED: REMARK    8  A    between atoms: C_34  and  C_35 
DOCKED: REMARK    9  A    between atoms: C_35  and  C_36 
DOCKED: REMARK   10  A    between atoms: C_36  and  O_38 
DOCKED: USER                              x       y       z     vdW  Elec       q    Type
DOCKED: USER                           _______ _______ _______ _____ _____    ______ ____
DOCKED: ROOT
DOCKED: ATOM      1  C   UNL d   1     -10.059   4.935 -15.411 -0.27 +0.02    +0.064 C 
DOCKED: ATOM      2  C   UNL d   1      -9.204   6.569 -10.825 -0.12 +0.01    +0.064 A 
DOCKED: ATOM      3  C   UNL d   1      -5.543   9.181 -12.512 -0.24 -0.01    +0.064 C 
DOCKED: ATOM      4  C   UNL d   1      -6.287   7.530 -16.940 -0.22 -0.02    +0.064 C 
DOCKED: ATOM      5  C   UNL d   1     -10.105   5.088 -13.950 -0.22 +0.02    +0.066 A 
DOCKED: ATOM      6  C   UNL d   1     -10.963   4.398 -13.110 -0.18 -0.01    -0.021 A 
DOCKED: ATOM      7  C   UNL d   1     -10.728   4.855 -11.837 -0.16 -0.01    -0.025 A 
DOCKED: ATOM      8  C   UNL d   1      -9.734   5.808 -11.950 -0.16 +0.01    +0.066 A 
DOCKED: ATOM      9  C   UNL d   1     -11.410   4.384 -10.589 -0.14 +0.02    +0.051 C 
DOCKED: ATOM     10  C   UNL d   1      -8.206   7.452 -10.898 -0.12 +0.01    +0.066 A 
DOCKED: ATOM     11  C   UNL d   1      -7.798   8.249  -9.826 -0.18 -0.00    -0.021 A 
DOCKED: ATOM     12  C   UNL d   1      -6.754   9.024 -10.291 -0.28 -0.00    +0.000 A 
DOCKED: ATOM     13  C   UNL d   1      -6.583   8.661 -11.638 -0.19 -0.00    +0.070 A 
DOCKED: ATOM     14  C   UNL d   1      -8.417   8.319  -8.444 -0.23 +0.01    +0.052 C 
DOCKED: ATOM     15  C   UNL d   1      -5.407   8.874 -13.824 -0.21 -0.01    +0.066 A 
DOCKED: ATOM     16  C   UNL d   1      -4.342   9.313 -14.599 -0.26 +0.01    -0.021 A 
DOCKED: ATOM     17  C   UNL d   1      -4.556   8.841 -15.878 -0.20 -0.00    +0.000 A 
DOCKED: ATOM     18  C   UNL d   1      -5.752   8.127 -15.853 -0.20 -0.01    +0.070 A 
DOCKED: ATOM     19  C   UNL d   1      -3.179  10.165 -14.164 -0.38 -0.02    +0.052 C 
DOCKED: ATOM     20  C   UNL d   1      -7.510   6.720 -16.939 -0.16 -0.01    +0.066 A 
DOCKED: ATOM     21  C   UNL d   1      -8.182   6.266 -18.083 -0.18 +0.00    -0.025 A 
DOCKED: ATOM     22  C   UNL d   1      -9.247   5.518 -17.624 -0.22 -0.00    -0.021 A 
DOCKED: ATOM     23  C   UNL d   1      -9.187   5.550 -16.226 -0.24 +0.01    +0.066 A 
DOCKED: ATOM     24  C   UNL d   1      -7.851   6.520 -19.535 -0.15 -0.01    +0.051 C 
DOCKED: ATOM     25  N   UNL d   1      -9.350   5.940 -13.235 -0.08 -0.03    -0.248 N 
DOCKED: ATOM     26  N   UNL d   1      -7.474   7.709 -12.011 +0.08 -0.01    -0.248 N 
DOCKED: ATOM     27  N   UNL d   1      -6.253   8.109 -14.582 +0.04 +0.03    -0.248 N 
DOCKED: ATOM     28  N   UNL d   1      -8.152   6.322 -15.814 -0.14 +0.01    -0.248 N 
DOCKED: ATOM     29 FE   UNL d   1      -7.812   7.016 -13.914 -0.03 +0.00    +0.000 Fe
DOCKED: ENDROOT
DOCKED: BRANCH   6  30
DOCKED: ATOM     30  C   UNL d   1     -11.943   3.342 -13.492 -0.16 +0.03    +0.052 C 
DOCKED: BRANCH  30  31
DOCKED: ATOM     31  C   UNL d   1     -13.254   3.965 -13.961 -0.10 +0.06    +0.115 C 
DOCKED: BRANCH  31  32
DOCKED: ATOM     32  C   UNL d   1     -14.176   2.907 -14.500 -0.09 +0.11    +0.139 C 
DOCKED: ATOM     33  O   UNL d   1     -14.927   2.296 -13.753 +0.01 -0.36    -0.650 OA
DOCKED: BRANCH  32  34
DOCKED: ATOM     34  O   UNL d   1     -14.182   2.622 -15.813 -0.27 -1.24    -0.776 OA
DOCKED: ATOM     35  H   UNL d   1     -14.164   3.349 -16.451 +0.00 +0.19    +0.167 HD
DOCKED: ENDBRANCH  32  34
DOCKED: ENDBRANCH  31  32
DOCKED: ENDBRANCH  30  31
DOCKED: ENDBRANCH   6  30
DOCKED: BRANCH  22  36
DOCKED: ATOM     36  C   UNL d   1     -10.289   4.852 -18.483 -0.19 +0.01    +0.052 C 
DOCKED: BRANCH  36  37
DOCKED: ATOM     37  C   UNL d   1     -11.605   5.608 -18.372 -0.08 +0.03    +0.115 C 
DOCKED: BRANCH  37  38
DOCKED: ATOM     38  C   UNL d   1     -12.663   4.757 -17.729 -0.10 +0.07    +0.139 C 
DOCKED: ATOM     39  O   UNL d   1     -13.793   5.189 -17.557 +0.00 -0.24    -0.650 OA
DOCKED: BRANCH  38  40
DOCKED: ATOM     40  O   UNL d   1     -12.369   3.506 -17.333 -0.30 -1.04    -0.776 OA
DOCKED: ATOM     41  H   UNL d   1     -12.680   3.202 -16.469 +0.02 +0.33    +0.167 HD
DOCKED: ENDBRANCH  38  40
DOCKED: ENDBRANCH  37  38
DOCKED: ENDBRANCH  36  37
DOCKED: ENDBRANCH  22  36
DOCKED: BRANCH  12  42
DOCKED: ATOM     42  C   UNL d   1      -6.013  10.038  -9.480 -0.50 -0.00    +0.004 C 
DOCKED: ATOM     43  C   UNL d   1      -5.693  11.233  -9.995 -0.51 -0.00    +0.012 C 
DOCKED: ENDBRANCH  12  42
DOCKED: BRANCH  17  44
DOCKED: ATOM     44  C   UNL d   1      -3.664   9.043 -17.042 -0.18 -0.00    +0.004 C 
DOCKED: ATOM     45  C   UNL d   1      -2.844   8.070 -17.453 -0.29 -0.00    +0.012 C 
DOCKED: ENDBRANCH  17  44
DOCKED: TORSDOF 10
DOCKED: TER
DOCKED: ENDMDL
________________________________________________________________________________


	BEGINNING GENETIC ALGORITHM DOCKING 72 of 100
Run: 72 Seed: 1227159602 170964403 [ Run 72 of 100 GA/GALS ]
Beginning LAMARCKIAN GENETIC ALGORITHM (LGA), with a maximum of 25000000 energy evaluations.

Final-Value: -11.110


	FINAL GENETIC ALGORITHM DOCKED STATE
	_______________________________________________


Detailed state:  trans -8.497 10.663 -11.377 quatxyzw 0.888596 0.114986 -0.358324 -0.262260 center -0.174 -0.001 -0.047 ntor 10 -177.4562 165.6351 92.6836 75.6712 70.5165 -171.5648 -114.1911 71.9342 -17.3070 -14.8531
State:	 -8.497  10.663 -11.377   0.921  0.119 -0.371 -149.592   -177.46  165.64   92.68   75.67   70.52 -171.56 -114.19   71.93  -17.31  -14.85

DOCKED: MODEL       72
DOCKED: USER    Run = 72
DOCKED: USER    DPF = D:/Protein_go_brrr/autodock/final/mut_K82N/heme_Fe/dock.dpf
DOCKED: USER  
DOCKED: USER    Estimated Free Energy of Binding    =   -7.48 kcal/mol  [=(1)+(2)+(3)-(4)]
DOCKED: USER    Estimated Inhibition Constant, Ki   =    3.30 uM (micromolar)  [Temperature = 298.15 K]
DOCKED: USER    
DOCKED: USER    (1) Final Intermolecular Energy     =  -10.46 kcal/mol
DOCKED: USER        vdW + Hbond + desolv Energy     =   -7.59 kcal/mol
DOCKED: USER        Electrostatic Energy            =   -2.87 kcal/mol
DOCKED: USER    (2) Final Total Internal Energy     =   -0.65 kcal/mol
DOCKED: USER    (3) Torsional Free Energy           =   +2.98 kcal/mol
DOCKED: USER    (4) Unbound System's Energy  [=(2)] =   -0.65 kcal/mol
DOCKED: USER    
DOCKED: USER    
DOCKED: USER    NEWDPF move heme_Fe_opt.pdbqt
DOCKED: USER    NEWDPF about -0.174000 -0.001000 -0.047000
DOCKED: USER    NEWDPF tran0 -8.496937 10.663360 -11.377418
DOCKED: USER    NEWDPF quaternion0 0.888596 0.114986 -0.358324 -0.262260
DOCKED: USER    NEWDPF axisangle0 0.920827 0.119157 -0.371321 -149.591605
DOCKED: USER    NEWDPF quat0 0.920827 0.119157 -0.371321 -149.591605
DOCKED: USER    NEWDPF dihe0 -177.46 165.64 92.68 75.67 70.52 -171.56 -114.19 71.93 -17.31 -14.85 
DOCKED: USER  keepresnum = 1 
DOCKED: USER  
DOCKED: REMARK  10 active torsions:
DOCKED: REMARK  status: ('A' for Active; 'I' for Inactive)
DOCKED: REMARK    1  A    between atoms: C_6  and  C_10 
DOCKED: REMARK    2  A    between atoms: C_10  and  C_11 
DOCKED: REMARK    3  A    between atoms: C_11  and  C_12 
DOCKED: REMARK    4  A    between atoms: C_12  and  O_14 
DOCKED: REMARK    5  A    between atoms: C_17  and  C_20 
DOCKED: REMARK    6  A    between atoms: C_24  and  C_27 
DOCKED: REMARK    7  A    between atoms: C_31  and  C_34 
DOCKED: REMARK    8  A    between atoms: C_34  and  C_35 
DOCKED: REMARK    9  A    between atoms: C_35  and  C_36 
DOCKED: REMARK   10  A    between atoms: C_36  and  O_38 
DOCKED: USER                              x       y       z     vdW  Elec       q    Type
DOCKED: USER                           _______ _______ _______ _____ _____    ______ ____
DOCKED: ROOT
DOCKED: ATOM      1  C   UNL d   1     -10.247  10.388 -10.341 -0.09 +0.01    +0.064 C 
DOCKED: ATOM      2  C   UNL d   1      -8.822  13.334 -14.045 -0.04 +0.01    +0.064 A 
DOCKED: ATOM      3  C   UNL d   1      -4.940  10.573 -14.656 -0.19 -0.02    +0.064 C 
DOCKED: ATOM      4  C   UNL d   1      -6.247   7.770 -11.007 -0.24 -0.00    +0.064 C 
DOCKED: ATOM      5  C   UNL d   1     -10.163  11.522 -11.273 -0.06 +0.02    +0.066 A 
DOCKED: ATOM      6  C   UNL d   1     -11.052  12.583 -11.308 -0.08 -0.01    -0.021 A 
DOCKED: ATOM      7  C   UNL d   1     -10.658  13.399 -12.340 -0.04 -0.01    -0.025 A 
DOCKED: ATOM      8  C   UNL d   1      -9.541  12.804 -12.894 +0.16 +0.02    +0.066 A 
DOCKED: ATOM      9  C   UNL d   1     -11.310  14.684 -12.748 -0.07 +0.01    +0.051 C 
DOCKED: ATOM     10  C   UNL d   1      -7.709  12.811 -14.564 -0.10 -0.00    +0.066 A 
DOCKED: ATOM     11  C   UNL d   1      -7.108  13.276 -15.736 -0.07 +0.00    -0.021 A 
DOCKED: ATOM     12  C   UNL d   1      -5.995  12.485 -15.943 -0.09 -0.00    +0.000 A 
DOCKED: ATOM     13  C   UNL d   1      -5.980  11.564 -14.881 -0.10 -0.01    +0.070 A 
DOCKED: ATOM     14  C   UNL d   1      -7.606  14.375 -16.652 -0.04 -0.01    +0.052 C 
DOCKED: ATOM     15  C   UNL d   1      -4.948   9.651 -13.665 -0.23 -0.01    +0.066 A 
DOCKED: ATOM     16  C   UNL d   1      -3.888   8.786 -13.424 -0.33 +0.01    -0.021 A 
DOCKED: ATOM     17  C   UNL d   1      -4.264   7.975 -12.374 -0.33 -0.00    +0.000 A 
DOCKED: ATOM     18  C   UNL d   1      -5.549   8.361 -12.001 -0.20 -0.01    +0.070 A 
DOCKED: ATOM     19  C   UNL d   1      -2.581   8.707 -14.167 -0.45 -0.01    +0.052 C 
DOCKED: ATOM     20  C   UNL d   1      -7.575   8.189 -10.546 -0.15 +0.00    +0.066 A 
DOCKED: ATOM     21  C   UNL d   1      -8.390   7.469  -9.660 -0.14 -0.00    -0.025 A 
DOCKED: ATOM     22  C   UNL d   1      -9.519   8.240  -9.475 -0.08 -0.00    -0.021 A 
DOCKED: ATOM     23  C   UNL d   1      -9.353   9.390 -10.255 -0.08 +0.01    +0.066 A 
DOCKED: ATOM     24  C   UNL d   1      -8.130   6.125  -9.020 -0.23 +0.02    +0.051 C 
DOCKED: ATOM     25  N   UNL d   1      -9.237  11.667 -12.237 -0.04 -0.07    -0.248 N 
DOCKED: ATOM     26  N   UNL d   1      -7.030  11.757 -14.045 -0.07 +0.02    -0.248 N 
DOCKED: ATOM     27  N   UNL d   1      -5.953   9.420 -12.765 -0.13 +0.04    -0.248 N 
DOCKED: ATOM     28  N   UNL d   1      -8.186   9.333 -10.941 -0.06 -0.02    -0.248 N 
DOCKED: ATOM     29 FE   UNL d   1      -7.607  10.543 -12.492 -0.03 +0.00    +0.000 Fe
DOCKED: ENDROOT
DOCKED: BRANCH   6  30
DOCKED: ATOM     30  C   UNL d   1     -12.206  12.824 -10.396 -0.06 +0.01    +0.052 C 
DOCKED: BRANCH  30  31
DOCKED: ATOM     31  C   UNL d   1     -11.723  13.242  -9.012 -0.13 +0.05    +0.115 C 
DOCKED: BRANCH  31  32
DOCKED: ATOM     32  C   UNL d   1     -11.038  14.579  -9.075 -0.24 +0.11    +0.139 C 
DOCKED: ATOM     33  O   UNL d   1     -11.681  15.599  -9.282 -0.17 -0.66    -0.650 OA
DOCKED: BRANCH  32  34
DOCKED: ATOM     34  O   UNL d   1      -9.709  14.665  -8.904 -0.38 -0.68    -0.776 OA
DOCKED: ATOM     35  H   UNL d   1      -9.198  13.853  -8.777 -0.42 +0.06    +0.167 HD
DOCKED: ENDBRANCH  32  34
DOCKED: ENDBRANCH  31  32
DOCKED: ENDBRANCH  30  31
DOCKED: ENDBRANCH   6  30
DOCKED: BRANCH  22  36
DOCKED: ATOM     36  C   UNL d   1     -10.711   7.866  -8.633 -0.07 +0.02    +0.052 C 
DOCKED: BRANCH  36  37
DOCKED: ATOM     37  C   UNL d   1     -10.428   8.187  -7.172 -0.15 +0.06    +0.115 C 
DOCKED: BRANCH  37  38
DOCKED: ATOM     38  C   UNL d   1     -10.238   6.931  -6.371 -0.18 +0.15    +0.139 C 
DOCKED: ATOM     39  O   UNL d   1     -10.153   6.972  -5.153 -0.47 -0.67    -0.650 OA
DOCKED: BRANCH  38  40
DOCKED: ATOM     40  O   UNL d   1     -10.157   5.742  -6.996 -0.35 -1.48    -0.776 OA
DOCKED: ATOM     41  H   UNL d   1     -10.431   5.678  -7.922 +0.03 +0.21    +0.167 HD
DOCKED: ENDBRANCH  38  40
DOCKED: ENDBRANCH  37  38
DOCKED: ENDBRANCH  36  37
DOCKED: ENDBRANCH  22  36
DOCKED: BRANCH  12  42
DOCKED: ATOM     42  C   UNL d   1      -5.052  12.620 -17.096 -0.09 -0.00    +0.004 C 
DOCKED: ATOM     43  C   UNL d   1      -3.731  12.475 -16.926 -0.15 -0.01    +0.012 C 
DOCKED: ENDBRANCH  12  42
DOCKED: BRANCH  17  44
DOCKED: ATOM     44  C   UNL d   1      -3.439   6.913 -11.755 -0.57 -0.00    +0.004 C 
DOCKED: ATOM     45  C   UNL d   1      -3.271   6.862 -10.430 -0.57 -0.00    +0.012 C 
DOCKED: ENDBRANCH  17  44
DOCKED: TORSDOF 10
DOCKED: TER
DOCKED: ENDMDL
________________________________________________________________________________


	BEGINNING GENETIC ALGORITHM DOCKING 73 of 100
Run: 73 Seed: 786622557 908361775 [ Run 73 of 100 GA/GALS ]
Beginning LAMARCKIAN GENETIC ALGORITHM (LGA), with a maximum of 25000000 energy evaluations.

Final-Value: -10.513


	FINAL GENETIC ALGORITHM DOCKED STATE
	_______________________________________________


Detailed state:  trans 11.045 3.569 13.775 quatxyzw -0.120400 0.571960 0.188266 -0.789254 center -0.174 -0.001 -0.047 ntor 10 11.5616 127.2782 54.8852 -0.7874 165.2832 -27.4777 -63.1278 10.1362 176.6261 147.2779
State:	 11.045   3.569  13.775  -0.196  0.931  0.307 -75.768     11.56  127.28   54.89   -0.79  165.28  -27.48  -63.13   10.14  176.63  147.28

DOCKED: MODEL       73
DOCKED: USER    Run = 73
DOCKED: USER    DPF = D:/Protein_go_brrr/autodock/final/mut_K82N/heme_Fe/dock.dpf
DOCKED: USER  
DOCKED: USER    Estimated Free Energy of Binding    =   -5.41 kcal/mol  [=(1)+(2)+(3)-(4)]
DOCKED: USER    Estimated Inhibition Constant, Ki   =  108.61 uM (micromolar)  [Temperature = 298.15 K]
DOCKED: USER    
DOCKED: USER    (1) Final Intermolecular Energy     =   -8.39 kcal/mol
DOCKED: USER        vdW + Hbond + desolv Energy     =   -7.93 kcal/mol
DOCKED: USER        Electrostatic Energy            =   -0.46 kcal/mol
DOCKED: USER    (2) Final Total Internal Energy     =   -2.12 kcal/mol
DOCKED: USER    (3) Torsional Free Energy           =   +2.98 kcal/mol
DOCKED: USER    (4) Unbound System's Energy  [=(2)] =   -2.12 kcal/mol
DOCKED: USER    
DOCKED: USER    
DOCKED: USER    NEWDPF move heme_Fe_opt.pdbqt
DOCKED: USER    NEWDPF about -0.174000 -0.001000 -0.047000
DOCKED: USER    NEWDPF tran0 11.045183 3.569021 13.775461
DOCKED: USER    NEWDPF quaternion0 -0.120400 0.571960 0.188266 -0.789254
DOCKED: USER    NEWDPF axisangle0 -0.196069 0.931429 0.306589 -75.768372
DOCKED: USER    NEWDPF quat0 -0.196069 0.931429 0.306589 -75.768372
DOCKED: USER    NEWDPF dihe0 11.56 127.28 54.89 -0.79 165.28 -27.48 -63.13 10.14 176.63 147.28 
DOCKED: USER  keepresnum = 1 
DOCKED: USER  
DOCKED: REMARK  10 active torsions:
DOCKED: REMARK  status: ('A' for Active; 'I' for Inactive)
DOCKED: REMARK    1  A    between atoms: C_6  and  C_10 
DOCKED: REMARK    2  A    between atoms: C_10  and  C_11 
DOCKED: REMARK    3  A    between atoms: C_11  and  C_12 
DOCKED: REMARK    4  A    between atoms: C_12  and  O_14 
DOCKED: REMARK    5  A    between atoms: C_17  and  C_20 
DOCKED: REMARK    6  A    between atoms: C_24  and  C_27 
DOCKED: REMARK    7  A    between atoms: C_31  and  C_34 
DOCKED: REMARK    8  A    between atoms: C_34  and  C_35 
DOCKED: REMARK    9  A    between atoms: C_35  and  C_36 
DOCKED: REMARK   10  A    between atoms: C_36  and  O_38 
DOCKED: USER                              x       y       z     vdW  Elec       q    Type
DOCKED: USER                           _______ _______ _______ _____ _____    ______ ____
DOCKED: ROOT
DOCKED: ATOM      1  C   UNL d   1      10.983   3.416  15.821 -0.28 -0.01    +0.064 C 
DOCKED: ATOM      2  C   UNL d   1      13.266   0.926  12.212 -0.17 -0.01    +0.064 A 
DOCKED: ATOM      3  C   UNL d   1      12.268   4.525   9.193 -0.18 -0.00    +0.064 C 
DOCKED: ATOM      4  C   UNL d   1       9.962   6.904  12.644 -0.26 +0.00    +0.064 C 
DOCKED: ATOM      5  C   UNL d   1      11.645   2.344  15.065 -0.25 -0.01    +0.066 A 
DOCKED: ATOM      6  C   UNL d   1      11.984   1.104  15.582 -0.29 +0.00    -0.021 A 
DOCKED: ATOM      7  C   UNL d   1      12.621   0.415  14.580 -0.26 +0.01    -0.025 A 
DOCKED: ATOM      8  C   UNL d   1      12.647   1.261  13.489 -0.19 -0.01    +0.066 A 
DOCKED: ATOM      9  C   UNL d   1      13.154  -0.982  14.671 -0.38 -0.01    +0.051 C 
DOCKED: ATOM     10  C   UNL d   1      13.254   1.701  11.126 -0.16 -0.01    +0.066 A 
DOCKED: ATOM     11  C   UNL d   1      13.954   1.403   9.955 -0.13 +0.00    -0.021 A 
DOCKED: ATOM     12  C   UNL d   1      13.696   2.435   9.073 -0.13 -0.00    +0.000 A 
DOCKED: ATOM     13  C   UNL d   1      12.851   3.321   9.763 -0.13 -0.00    +0.070 A 
DOCKED: ATOM     14  C   UNL d   1      14.879   0.228   9.710 -0.04 -0.00    +0.052 C 
DOCKED: ATOM     15  C   UNL d   1      11.496   5.409   9.868 -0.20 -0.00    +0.066 A 
DOCKED: ATOM     16  C   UNL d   1      10.877   6.494   9.262 -0.23 -0.00    -0.021 A 
DOCKED: ATOM     17  C   UNL d   1      10.214   7.184  10.256 -0.29 +0.00    +0.000 A 
DOCKED: ATOM     18  C   UNL d   1      10.448   6.503  11.449 -0.27 -0.00    +0.070 A 
DOCKED: ATOM     19  C   UNL d   1      10.925   6.885   7.809 -0.07 +0.01    +0.052 C 
DOCKED: ATOM     20  C   UNL d   1      10.137   6.180  13.909 -0.24 -0.01    +0.066 A 
DOCKED: ATOM     21  C   UNL d   1       9.814   6.680  15.179 -0.28 +0.00    -0.025 A 
DOCKED: ATOM     22  C   UNL d   1      10.101   5.665  16.068 -0.24 +0.00    -0.021 A 
DOCKED: ATOM     23  C   UNL d   1      10.591   4.594  15.311 -0.23 -0.01    +0.066 A 
DOCKED: ATOM     24  C   UNL d   1       9.268   8.040  15.547 -0.26 -0.00    +0.051 C 
DOCKED: ATOM     25  N   UNL d   1      12.044   2.430  13.784 -0.10 +0.03    -0.248 N 
DOCKED: ATOM     26  N   UNL d   1      12.588   2.879  11.018 -0.08 +0.02    -0.248 N 
DOCKED: ATOM     27  N   UNL d   1      11.200   5.388  11.205 -0.14 +0.01    -0.248 N 
DOCKED: ATOM     28  N   UNL d   1      10.652   4.931  13.999 -0.17 +0.04    -0.248 N 
DOCKED: ATOM     29 FE   UNL d   1      11.619   3.907  12.508 -0.05 -0.00    +0.000 Fe
DOCKED: ENDROOT
DOCKED: BRANCH   6  30
DOCKED: ATOM     30  C   UNL d   1      11.699   0.590  16.952 -0.34 -0.01    +0.052 C 
DOCKED: BRANCH  30  31
DOCKED: ATOM     31  C   UNL d   1      12.881   0.844  17.881 -0.21 -0.00    +0.115 C 
DOCKED: BRANCH  31  32
DOCKED: ATOM     32  C   UNL d   1      12.484   1.770  18.997 -0.22 +0.01    +0.139 C 
DOCKED: ATOM     33  O   UNL d   1      13.189   1.889  19.989 -0.03 -0.14    -0.650 OA
DOCKED: BRANCH  32  34
DOCKED: ATOM     34  O   UNL d   1      11.344   2.477  18.914 +0.02 -0.09    -0.776 OA
DOCKED: ATOM     35  H   UNL d   1      11.185   3.187  19.551 +0.03 +0.04    +0.167 HD
DOCKED: ENDBRANCH  32  34
DOCKED: ENDBRANCH  31  32
DOCKED: ENDBRANCH  30  31
DOCKED: ENDBRANCH   6  30
DOCKED: BRANCH  22  36
DOCKED: ATOM     36  C   UNL d   1       9.958   5.740  17.565 -0.13 +0.00    +0.052 C 
DOCKED: BRANCH  36  37
DOCKED: ATOM     37  C   UNL d   1      11.326   5.610  18.219 -0.11 +0.01    +0.115 C 
DOCKED: BRANCH  37  38
DOCKED: ATOM     38  C   UNL d   1      11.199   5.455  19.708 -0.14 +0.03    +0.139 C 
DOCKED: ATOM     39  O   UNL d   1      10.240   5.921  20.306 -0.01 -0.15    -0.650 OA
DOCKED: BRANCH  38  40
DOCKED: ATOM     40  O   UNL d   1      12.149   4.800  20.398 -0.00 -0.24    -0.776 OA
DOCKED: ATOM     41  H   UNL d   1      12.404   3.910  20.118 +0.03 +0.05    +0.167 HD
DOCKED: ENDBRANCH  38  40
DOCKED: ENDBRANCH  37  38
DOCKED: ENDBRANCH  36  37
DOCKED: ENDBRANCH  22  36
DOCKED: BRANCH  12  42
DOCKED: ATOM     42  C   UNL d   1      14.252   2.537   7.689 -0.11 +0.00    +0.004 C 
DOCKED: ATOM     43  C   UNL d   1      13.500   2.243   6.620 -0.16 +0.00    +0.012 C 
DOCKED: ENDBRANCH  12  42
DOCKED: BRANCH  17  44
DOCKED: ATOM     44  C   UNL d   1       9.393   8.402  10.073 -0.36 +0.00    +0.004 C 
DOCKED: ATOM     45  C   UNL d   1       8.402   8.432   9.176 -0.46 +0.00    +0.012 C 
DOCKED: ENDBRANCH  17  44
DOCKED: TORSDOF 10
DOCKED: TER
DOCKED: ENDMDL
________________________________________________________________________________


	BEGINNING GENETIC ALGORITHM DOCKING 74 of 100
Run: 74 Seed: 672439058 1299645951 [ Run 74 of 100 GA/GALS ]
Beginning LAMARCKIAN GENETIC ALGORITHM (LGA), with a maximum of 25000000 energy evaluations.

Final-Value: -10.822


	FINAL GENETIC ALGORITHM DOCKED STATE
	_______________________________________________


Detailed state:  trans 4.187 6.189 19.208 quatxyzw -0.025778 -0.938870 0.274877 0.205671 center -0.174 -0.001 -0.047 ntor 10 -136.4365 163.3957 162.4308 -158.8922 -55.8905 124.7041 -35.5548 -82.0439 -1.1058 151.1748
State:	  4.187   6.189  19.208  -0.026 -0.959  0.281 156.262   -136.44  163.40  162.43 -158.89  -55.89  124.70  -35.55  -82.04   -1.11  151.17

DOCKED: MODEL       74
DOCKED: USER    Run = 74
DOCKED: USER    DPF = D:/Protein_go_brrr/autodock/final/mut_K82N/heme_Fe/dock.dpf
DOCKED: USER  
DOCKED: USER    Estimated Free Energy of Binding    =   -7.16 kcal/mol  [=(1)+(2)+(3)-(4)]
DOCKED: USER    Estimated Inhibition Constant, Ki   =    5.60 uM (micromolar)  [Temperature = 298.15 K]
DOCKED: USER    
DOCKED: USER    (1) Final Intermolecular Energy     =  -10.15 kcal/mol
DOCKED: USER        vdW + Hbond + desolv Energy     =   -9.22 kcal/mol
DOCKED: USER        Electrostatic Energy            =   -0.93 kcal/mol
DOCKED: USER    (2) Final Total Internal Energy     =   -0.67 kcal/mol
DOCKED: USER    (3) Torsional Free Energy           =   +2.98 kcal/mol
DOCKED: USER    (4) Unbound System's Energy  [=(2)] =   -0.67 kcal/mol
DOCKED: USER    
DOCKED: USER    
DOCKED: USER    NEWDPF move heme_Fe_opt.pdbqt
DOCKED: USER    NEWDPF about -0.174000 -0.001000 -0.047000
DOCKED: USER    NEWDPF tran0 4.186562 6.188953 19.208229
DOCKED: USER    NEWDPF quaternion0 -0.025778 -0.938870 0.274877 0.205671
DOCKED: USER    NEWDPF axisangle0 -0.026341 -0.959381 0.280882 156.262416
DOCKED: USER    NEWDPF quat0 -0.026341 -0.959381 0.280882 156.262416
DOCKED: USER    NEWDPF dihe0 -136.44 163.40 162.43 -158.89 -55.89 124.70 -35.55 -82.04 -1.11 151.17 
DOCKED: USER  keepresnum = 1 
DOCKED: USER  
DOCKED: REMARK  10 active torsions:
DOCKED: REMARK  status: ('A' for Active; 'I' for Inactive)
DOCKED: REMARK    1  A    between atoms: C_6  and  C_10 
DOCKED: REMARK    2  A    between atoms: C_10  and  C_11 
DOCKED: REMARK    3  A    between atoms: C_11  and  C_12 
DOCKED: REMARK    4  A    between atoms: C_12  and  O_14 
DOCKED: REMARK    5  A    between atoms: C_17  and  C_20 
DOCKED: REMARK    6  A    between atoms: C_24  and  C_27 
DOCKED: REMARK    7  A    between atoms: C_31  and  C_34 
DOCKED: REMARK    8  A    between atoms: C_34  and  C_35 
DOCKED: REMARK    9  A    between atoms: C_35  and  C_36 
DOCKED: REMARK   10  A    between atoms: C_36  and  O_38 
DOCKED: USER                              x       y       z     vdW  Elec       q    Type
DOCKED: USER                           _______ _______ _______ _____ _____    ______ ____
DOCKED: ROOT
DOCKED: ATOM      1  C   UNL d   1       6.186   5.987  19.625 -0.25 -0.01    +0.064 C 
DOCKED: ATOM      2  C   UNL d   1       2.238   3.035  19.992 -0.26 -0.05    +0.064 A 
DOCKED: ATOM      3  C   UNL d   1      -0.203   6.065  17.177 -0.26 -0.02    +0.064 C 
DOCKED: ATOM      4  C   UNL d   1       3.572   8.989  16.894 -0.27 -0.02    +0.064 C 
DOCKED: ATOM      5  C   UNL d   1       5.275   4.917  20.057 -0.26 -0.01    +0.066 A 
DOCKED: ATOM      6  C   UNL d   1       5.600   3.922  20.964 -0.30 +0.00    -0.021 A 
DOCKED: ATOM      7  C   UNL d   1       4.504   3.100  21.062 -0.31 +0.01    -0.025 A 
DOCKED: ATOM      8  C   UNL d   1       3.552   3.627  20.211 -0.29 -0.03    +0.066 A 
DOCKED: ATOM      9  C   UNL d   1       4.382   1.893  21.941 -0.17 -0.03    +0.051 C 
DOCKED: ATOM     10  C   UNL d   1       1.281   3.554  19.221 -0.28 -0.04    +0.066 A 
DOCKED: ATOM     11  C   UNL d   1       0.076   2.905  18.939 -0.28 +0.01    -0.021 A 
DOCKED: ATOM     12  C   UNL d   1      -0.639   3.751  18.116 -0.26 -0.00    +0.000 A 
DOCKED: ATOM     13  C   UNL d   1       0.178   4.879  17.928 -0.23 -0.03    +0.070 A 
DOCKED: ATOM     14  C   UNL d   1      -0.345   1.517  19.378 -0.36 -0.02    +0.052 C 
DOCKED: ATOM     15  C   UNL d   1       0.599   7.131  16.950 -0.22 -0.03    +0.066 A 
DOCKED: ATOM     16  C   UNL d   1       0.165   8.286  16.313 -0.22 +0.01    -0.021 A 
DOCKED: ATOM     17  C   UNL d   1       1.253   9.130  16.227 -0.23 -0.00    +0.000 A 
DOCKED: ATOM     18  C   UNL d   1       2.329   8.466  16.812 -0.24 -0.03    +0.070 A 
DOCKED: ATOM     19  C   UNL d   1      -1.213   8.578  15.781 -0.22 -0.05    +0.052 C 
DOCKED: ATOM     20  C   UNL d   1       4.714   8.347  17.556 -0.21 -0.03    +0.066 A 
DOCKED: ATOM     21  C   UNL d   1       6.045   8.780  17.477 -0.18 +0.01    -0.025 A 
DOCKED: ATOM     22  C   UNL d   1       6.770   7.917  18.273 -0.17 +0.00    -0.021 A 
DOCKED: ATOM     23  C   UNL d   1       5.859   6.993  18.798 -0.21 -0.02    +0.066 A 
DOCKED: ATOM     24  C   UNL d   1       6.615   9.939  16.693 -0.17 -0.01    +0.051 C 
DOCKED: ATOM     25  N   UNL d   1       4.021   4.738  19.608 -0.20 +0.10    -0.248 N 
DOCKED: ATOM     26  N   UNL d   1       1.353   4.756  18.594 -0.02 +0.13    -0.248 N 
DOCKED: ATOM     27  N   UNL d   1       1.918   7.256  17.296 +0.02 +0.13    -0.248 N 
DOCKED: ATOM     28  N   UNL d   1       4.613   7.233  18.322 -0.16 +0.10    -0.248 N 
DOCKED: ATOM     29 FE   UNL d   1       2.983   5.996  18.457 -0.06 -0.00    +0.000 Fe
DOCKED: ENDROOT
DOCKED: BRANCH   6  30
DOCKED: ATOM     30  C   UNL d   1       6.877   3.768  21.716 -0.29 +0.01    +0.052 C 
DOCKED: BRANCH  30  31
DOCKED: ATOM     31  C   UNL d   1       6.828   4.545  23.028 -0.14 +0.03    +0.115 C 
DOCKED: BRANCH  31  32
DOCKED: ATOM     32  C   UNL d   1       7.574   3.806  24.104 -0.06 +0.09    +0.139 C 
DOCKED: ATOM     33  O   UNL d   1       7.280   2.653  24.388 -0.04 -0.34    -0.650 OA
DOCKED: BRANCH  32  34
DOCKED: ATOM     34  O   UNL d   1       8.575   4.409  24.767 -0.19 -0.98    -0.776 OA
DOCKED: ATOM     35  H   UNL d   1       8.458   5.323  25.064 +0.01 +0.14    +0.167 HD
DOCKED: ENDBRANCH  32  34
DOCKED: ENDBRANCH  31  32
DOCKED: ENDBRANCH  30  31
DOCKED: ENDBRANCH   6  30
DOCKED: BRANCH  22  36
DOCKED: ATOM     36  C   UNL d   1       8.262   7.952  18.475 -0.12 -0.00    +0.052 C 
DOCKED: BRANCH  36  37
DOCKED: ATOM     37  C   UNL d   1       8.896   6.727  17.833 -0.18 -0.00    +0.115 C 
DOCKED: BRANCH  37  38
DOCKED: ATOM     38  C   UNL d   1       9.423   7.049  16.463 -0.22 -0.01    +0.139 C 
DOCKED: ATOM     39  O   UNL d   1      10.592   6.833  16.176 +0.03 +0.03    -0.650 OA
DOCKED: BRANCH  38  40
DOCKED: ATOM     40  O   UNL d   1       8.607   7.584  15.538 -0.07 +0.15    -0.776 OA
DOCKED: ATOM     41  H   UNL d   1       7.650   7.531  15.669 -0.54 -0.09    +0.167 HD
DOCKED: ENDBRANCH  38  40
DOCKED: ENDBRANCH  37  38
DOCKED: ENDBRANCH  36  37
DOCKED: ENDBRANCH  22  36
DOCKED: BRANCH  12  42
DOCKED: ATOM     42  C   UNL d   1      -1.994   3.456  17.555 -0.32 -0.00    +0.004 C 
DOCKED: ATOM     43  C   UNL d   1      -2.372   3.953  16.370 -0.36 -0.00    +0.012 C 
DOCKED: ENDBRANCH  12  42
DOCKED: BRANCH  17  44
DOCKED: ATOM     44  C   UNL d   1       1.257  10.490  15.642 -0.19 -0.00    +0.004 C 
DOCKED: ATOM     45  C   UNL d   1       1.804  10.718  14.444 -0.30 -0.01    +0.012 C 
DOCKED: ENDBRANCH  17  44
DOCKED: TORSDOF 10
DOCKED: TER
DOCKED: ENDMDL
________________________________________________________________________________


	BEGINNING GENETIC ALGORITHM DOCKING 75 of 100
Run: 75 Seed: 745632835 2031806188 [ Run 75 of 100 GA/GALS ]
Beginning LAMARCKIAN GENETIC ALGORITHM (LGA), with a maximum of 25000000 energy evaluations.

Final-Value: -11.883


	FINAL GENETIC ALGORITHM DOCKED STATE
	_______________________________________________


Detailed state:  trans -8.543 5.914 -14.155 quatxyzw -0.627975 -0.443754 0.134891 -0.624927 center -0.174 -0.001 -0.047 ntor 10 -164.3422 -2.4488 164.8186 51.0017 15.8840 134.6774 -23.1142 59.9969 -148.6700 -179.9262
State:	 -8.543   5.914 -14.155  -0.804 -0.568  0.173 -102.646   -164.34   -2.45  164.82   51.00   15.88  134.68  -23.11   60.00 -148.67 -179.93

DOCKED: MODEL       75
DOCKED: USER    Run = 75
DOCKED: USER    DPF = D:/Protein_go_brrr/autodock/final/mut_K82N/heme_Fe/dock.dpf
DOCKED: USER  
DOCKED: USER    Estimated Free Energy of Binding    =   -7.26 kcal/mol  [=(1)+(2)+(3)-(4)]
DOCKED: USER    Estimated Inhibition Constant, Ki   =    4.79 uM (micromolar)  [Temperature = 298.15 K]
DOCKED: USER    
DOCKED: USER    (1) Final Intermolecular Energy     =  -10.24 kcal/mol
DOCKED: USER        vdW + Hbond + desolv Energy     =   -7.90 kcal/mol
DOCKED: USER        Electrostatic Energy            =   -2.34 kcal/mol
DOCKED: USER    (2) Final Total Internal Energy     =   -1.64 kcal/mol
DOCKED: USER    (3) Torsional Free Energy           =   +2.98 kcal/mol
DOCKED: USER    (4) Unbound System's Energy  [=(2)] =   -1.64 kcal/mol
DOCKED: USER    
DOCKED: USER    
DOCKED: USER    NEWDPF move heme_Fe_opt.pdbqt
DOCKED: USER    NEWDPF about -0.174000 -0.001000 -0.047000
DOCKED: USER    NEWDPF tran0 -8.542585 5.914274 -14.155173
DOCKED: USER    NEWDPF quaternion0 -0.627975 -0.443754 0.134891 -0.624927
DOCKED: USER    NEWDPF axisangle0 -0.804392 -0.568418 0.172786 -102.646337
DOCKED: USER    NEWDPF quat0 -0.804392 -0.568418 0.172786 -102.646337
DOCKED: USER    NEWDPF dihe0 -164.34 -2.45 164.82 51.00 15.88 134.68 -23.11 60.00 -148.67 -179.93 
DOCKED: USER  keepresnum = 1 
DOCKED: USER  
DOCKED: REMARK  10 active torsions:
DOCKED: REMARK  status: ('A' for Active; 'I' for Inactive)
DOCKED: REMARK    1  A    between atoms: C_6  and  C_10 
DOCKED: REMARK    2  A    between atoms: C_10  and  C_11 
DOCKED: REMARK    3  A    between atoms: C_11  and  C_12 
DOCKED: REMARK    4  A    between atoms: C_12  and  O_14 
DOCKED: REMARK    5  A    between atoms: C_17  and  C_20 
DOCKED: REMARK    6  A    between atoms: C_24  and  C_27 
DOCKED: REMARK    7  A    between atoms: C_31  and  C_34 
DOCKED: REMARK    8  A    between atoms: C_34  and  C_35 
DOCKED: REMARK    9  A    between atoms: C_35  and  C_36 
DOCKED: REMARK   10  A    between atoms: C_36  and  O_38 
DOCKED: USER                              x       y       z     vdW  Elec       q    Type
DOCKED: USER                           _______ _______ _______ _____ _____    ______ ____
DOCKED: ROOT
DOCKED: ATOM      1  C   UNL d   1     -10.079   4.820 -14.962 -0.29 +0.02    +0.064 C 
DOCKED: ATOM      2  C   UNL d   1      -9.151   6.760 -10.512 -0.11 +0.01    +0.064 A 
DOCKED: ATOM      3  C   UNL d   1      -5.695   9.451 -12.483 -0.26 -0.01    +0.064 C 
DOCKED: ATOM      4  C   UNL d   1      -6.506   7.509 -16.779 -0.22 -0.01    +0.064 C 
DOCKED: ATOM      5  C   UNL d   1     -10.082   5.055 -13.512 -0.21 +0.02    +0.066 A 
DOCKED: ATOM      6  C   UNL d   1     -10.873   4.373 -12.601 -0.15 -0.01    -0.021 A 
DOCKED: ATOM      7  C   UNL d   1     -10.617   4.915 -11.366 -0.16 -0.01    -0.025 A 
DOCKED: ATOM      8  C   UNL d   1      -9.679   5.908 -11.570 -0.15 +0.01    +0.066 A 
DOCKED: ATOM      9  C   UNL d   1     -11.229   4.483 -10.069 -0.14 +0.03    +0.051 C 
DOCKED: ATOM     10  C   UNL d   1      -8.204   7.687 -10.672 -0.12 +0.01    +0.066 A 
DOCKED: ATOM     11  C   UNL d   1      -7.801   8.565  -9.664 -0.19 -0.00    -0.021 A 
DOCKED: ATOM     12  C   UNL d   1      -6.816   9.363 -10.212 -0.30 -0.00    +0.000 A 
DOCKED: ATOM     13  C   UNL d   1      -6.674   8.931 -11.542 -0.19 -0.00    +0.070 A 
DOCKED: ATOM     14  C   UNL d   1      -8.373   8.684  -8.266 -0.26 +0.01    +0.052 C 
DOCKED: ATOM     15  C   UNL d   1      -5.589   9.075 -13.779 -0.19 -0.01    +0.066 A 
DOCKED: ATOM     16  C   UNL d   1      -4.576   9.521 -14.619 -0.23 +0.00    -0.021 A 
DOCKED: ATOM     17  C   UNL d   1      -4.810   8.965 -15.859 -0.18 -0.00    +0.000 A 
DOCKED: ATOM     18  C   UNL d   1      -5.965   8.194 -15.748 -0.18 -0.01    +0.070 A 
DOCKED: ATOM     19  C   UNL d   1      -3.446  10.455 -14.277 -0.38 -0.02    +0.052 C 
DOCKED: ATOM     20  C   UNL d   1      -7.684   6.638 -16.685 -0.20 -0.01    +0.066 A 
DOCKED: ATOM     21  C   UNL d   1      -8.371   6.085 -17.775 -0.21 +0.00    -0.025 A 
DOCKED: ATOM     22  C   UNL d   1      -9.378   5.312 -17.234 -0.22 -0.00    -0.021 A 
DOCKED: ATOM     23  C   UNL d   1      -9.270   5.429 -15.843 -0.26 +0.01    +0.066 A 
DOCKED: ATOM     24  C   UNL d   1      -8.105   6.270 -19.251 -0.17 -0.01    +0.051 C 
DOCKED: ATOM     25  N   UNL d   1      -9.349   5.985 -12.875 -0.09 -0.04    -0.248 N 
DOCKED: ATOM     26  N   UNL d   1      -7.526   7.915 -11.826 -0.05 -0.01    -0.248 N 
DOCKED: ATOM     27  N   UNL d   1      -6.420   8.226 -14.460 +0.04 +0.02    -0.248 N 
DOCKED: ATOM     28  N   UNL d   1      -8.263   6.275 -15.515 -0.09 -0.00    -0.248 N 
DOCKED: ATOM     29 FE   UNL d   1      -7.894   7.096 -13.672 -0.04 +0.00    +0.000 Fe
DOCKED: ENDROOT
DOCKED: BRANCH   6  30
DOCKED: ATOM     30  C   UNL d   1     -11.808   3.248 -12.885 -0.01 +0.02    +0.052 C 
DOCKED: BRANCH  30  31
DOCKED: ATOM     31  C   UNL d   1     -12.884   3.677 -13.877 -0.13 +0.07    +0.115 C 
DOCKED: BRANCH  31  32
DOCKED: ATOM     32  C   UNL d   1     -13.457   2.479 -14.582 -0.01 +0.18    +0.139 C 
DOCKED: ATOM     33  O   UNL d   1     -13.275   1.351 -14.144 -0.35 -0.96    -0.650 OA
DOCKED: BRANCH  32  34
DOCKED: ATOM     34  O   UNL d   1     -14.177   2.637 -15.706 -0.27 -1.18    -0.776 OA
DOCKED: ATOM     35  H   UNL d   1     -14.132   3.481 -16.176 +0.01 +0.17    +0.167 HD
DOCKED: ENDBRANCH  32  34
DOCKED: ENDBRANCH  31  32
DOCKED: ENDBRANCH  30  31
DOCKED: ENDBRANCH   6  30
DOCKED: BRANCH  22  36
DOCKED: ATOM     36  C   UNL d   1     -10.413   4.545 -18.013 -0.12 +0.02    +0.052 C 
DOCKED: BRANCH  36  37
DOCKED: ATOM     37  C   UNL d   1     -11.550   5.475 -18.409 -0.09 +0.03    +0.115 C 
DOCKED: BRANCH  37  38
DOCKED: ATOM     38  C   UNL d   1     -12.860   4.993 -17.853 -0.08 +0.06    +0.139 C 
DOCKED: ATOM     39  O   UNL d   1     -13.634   5.770 -17.313 +0.01 -0.18    -0.650 OA
DOCKED: BRANCH  38  40
DOCKED: ATOM     40  O   UNL d   1     -13.189   3.692 -17.943 -0.30 -0.74    -0.776 OA
DOCKED: ATOM     41  H   UNL d   1     -14.017   3.388 -17.546 +0.00 +0.18    +0.167 HD
DOCKED: ENDBRANCH  38  40
DOCKED: ENDBRANCH  37  38
DOCKED: ENDBRANCH  36  37
DOCKED: ENDBRANCH  22  36
DOCKED: BRANCH  12  42
DOCKED: ATOM     42  C   UNL d   1      -6.102  10.459  -9.488 -0.49 -0.00    +0.004 C 
DOCKED: ATOM     43  C   UNL d   1      -5.686  11.556 -10.136 -0.47 -0.00    +0.012 C 
DOCKED: ENDBRANCH  12  42
DOCKED: BRANCH  17  44
DOCKED: ATOM     44  C   UNL d   1      -3.972   9.143 -17.066 -0.16 -0.00    +0.004 C 
DOCKED: ATOM     45  C   UNL d   1      -3.166   8.165 -17.491 -0.26 -0.00    +0.012 C 
DOCKED: ENDBRANCH  17  44
DOCKED: TORSDOF 10
DOCKED: TER
DOCKED: ENDMDL
________________________________________________________________________________


	BEGINNING GENETIC ALGORITHM DOCKING 76 of 100
Run: 76 Seed: 702539269 2018228890 [ Run 76 of 100 GA/GALS ]
Beginning LAMARCKIAN GENETIC ALGORITHM (LGA), with a maximum of 25000000 energy evaluations.

Final-Value: -11.157


	FINAL GENETIC ALGORITHM DOCKED STATE
	_______________________________________________


Detailed state:  trans -4.881 21.766 4.448 quatxyzw 0.629434 -0.111785 -0.476112 0.603850 center -0.174 -0.001 -0.047 ntor 10 -91.9258 -102.9907 80.6133 -7.5313 99.6165 79.7228 110.8575 -133.9350 19.2979 -16.8163
State:	 -4.881  21.766   4.448   0.790 -0.140 -0.597 105.708    -91.93 -102.99   80.61   -7.53   99.62   79.72  110.86 -133.94   19.30  -16.82

DOCKED: MODEL       76
DOCKED: USER    Run = 76
DOCKED: USER    DPF = D:/Protein_go_brrr/autodock/final/mut_K82N/heme_Fe/dock.dpf
DOCKED: USER  
DOCKED: USER    Estimated Free Energy of Binding    =   -7.39 kcal/mol  [=(1)+(2)+(3)-(4)]
DOCKED: USER    Estimated Inhibition Constant, Ki   =    3.85 uM (micromolar)  [Temperature = 298.15 K]
DOCKED: USER    
DOCKED: USER    (1) Final Intermolecular Energy     =  -10.37 kcal/mol
DOCKED: USER        vdW + Hbond + desolv Energy     =   -7.21 kcal/mol
DOCKED: USER        Electrostatic Energy            =   -3.16 kcal/mol
DOCKED: USER    (2) Final Total Internal Energy     =   -0.79 kcal/mol
DOCKED: USER    (3) Torsional Free Energy           =   +2.98 kcal/mol
DOCKED: USER    (4) Unbound System's Energy  [=(2)] =   -0.79 kcal/mol
DOCKED: USER    
DOCKED: USER    
DOCKED: USER    NEWDPF move heme_Fe_opt.pdbqt
DOCKED: USER    NEWDPF about -0.174000 -0.001000 -0.047000
DOCKED: USER    NEWDPF tran0 -4.880867 21.765772 4.447611
DOCKED: USER    NEWDPF quaternion0 0.629434 -0.111785 -0.476112 0.603850
DOCKED: USER    NEWDPF axisangle0 0.789657 -0.140240 -0.597306 105.707774
DOCKED: USER    NEWDPF quat0 0.789657 -0.140240 -0.597306 105.707774
DOCKED: USER    NEWDPF dihe0 -91.93 -102.99 80.61 -7.53 99.62 79.72 110.86 -133.94 19.30 -16.82 
DOCKED: USER  keepresnum = 1 
DOCKED: USER  
DOCKED: REMARK  10 active torsions:
DOCKED: REMARK  status: ('A' for Active; 'I' for Inactive)
DOCKED: REMARK    1  A    between atoms: C_6  and  C_10 
DOCKED: REMARK    2  A    between atoms: C_10  and  C_11 
DOCKED: REMARK    3  A    between atoms: C_11  and  C_12 
DOCKED: REMARK    4  A    between atoms: C_12  and  O_14 
DOCKED: REMARK    5  A    between atoms: C_17  and  C_20 
DOCKED: REMARK    6  A    between atoms: C_24  and  C_27 
DOCKED: REMARK    7  A    between atoms: C_31  and  C_34 
DOCKED: REMARK    8  A    between atoms: C_34  and  C_35 
DOCKED: REMARK    9  A    between atoms: C_35  and  C_36 
DOCKED: REMARK   10  A    between atoms: C_36  and  O_38 
DOCKED: USER                              x       y       z     vdW  Elec       q    Type
DOCKED: USER                           _______ _______ _______ _____ _____    ______ ____
DOCKED: ROOT
DOCKED: ATOM      1  C   UNL d   1      -6.119  21.381   6.038 -0.11 +0.01    +0.064 C 
DOCKED: ATOM      2  C   UNL d   1      -1.744  23.616   5.494 -0.09 -0.01    +0.064 A 
DOCKED: ATOM      3  C   UNL d   1      -2.505  23.800   0.756 -0.21 -0.02    +0.064 C 
DOCKED: ATOM      4  C   UNL d   1      -6.694  21.543   1.248 -0.23 -0.00    +0.064 C 
DOCKED: ATOM      5  C   UNL d   1      -4.780  21.918   6.316 -0.07 +0.01    +0.066 A 
DOCKED: ATOM      6  C   UNL d   1      -4.173  21.925   7.561 -0.03 -0.00    -0.021 A 
DOCKED: ATOM      7  C   UNL d   1      -2.960  22.549   7.410 -0.03 +0.00    -0.025 A 
DOCKED: ATOM      8  C   UNL d   1      -2.872  22.899   6.076 -0.06 -0.00    +0.066 A 
DOCKED: ATOM      9  C   UNL d   1      -1.942  22.774   8.486 -0.01 -0.00    +0.051 C 
DOCKED: ATOM     10  C   UNL d   1      -1.609  23.915   4.201 -0.15 -0.02    +0.066 A 
DOCKED: ATOM     11  C   UNL d   1      -0.573  24.702   3.692 -0.16 +0.01    -0.021 A 
DOCKED: ATOM     12  C   UNL d   1      -0.779  24.784   2.330 -0.22 -0.00    +0.000 A 
DOCKED: ATOM     13  C   UNL d   1      -1.946  24.042   2.076 -0.20 -0.02    +0.070 A 
DOCKED: ATOM     14  C   UNL d   1       0.521  25.399   4.475 -0.11 -0.03    +0.052 C 
DOCKED: ATOM     15  C   UNL d   1      -3.656  23.130   0.512 -0.21 -0.02    +0.066 A 
DOCKED: ATOM     16  C   UNL d   1      -4.104  22.834  -0.769 -0.27 +0.01    -0.021 A 
DOCKED: ATOM     17  C   UNL d   1      -5.314  22.186  -0.630 -0.26 -0.00    +0.000 A 
DOCKED: ATOM     18  C   UNL d   1      -5.578  22.106   0.736 -0.23 -0.01    +0.070 A 
DOCKED: ATOM     19  C   UNL d   1      -3.436  23.167  -2.076 -0.28 -0.03    +0.052 C 
DOCKED: ATOM     20  C   UNL d   1      -6.977  21.387   2.680 -0.16 -0.00    +0.066 A 
DOCKED: ATOM     21  C   UNL d   1      -8.207  20.991   3.224 -0.19 -0.00    -0.025 A 
DOCKED: ATOM     22  C   UNL d   1      -8.017  20.939   4.589 -0.13 -0.00    -0.021 A 
DOCKED: ATOM     23  C   UNL d   1      -6.687  21.309   4.824 -0.12 +0.01    +0.066 A 
DOCKED: ATOM     24  C   UNL d   1      -9.500  20.681   2.506 -0.13 +0.01    +0.051 C 
DOCKED: ATOM     25  N   UNL d   1      -3.977  22.505   5.411 -0.05 -0.01    -0.248 N 
DOCKED: ATOM     26  N   UNL d   1      -2.457  23.520   3.218 -0.13 +0.05    -0.248 N 
DOCKED: ATOM     27  N   UNL d   1      -4.539  22.647   1.440 -0.13 +0.03    -0.248 N 
DOCKED: ATOM     28  N   UNL d   1      -6.071  21.624   3.659 -0.09 +0.00    -0.248 N 
DOCKED: ATOM     29 FE   UNL d   1      -4.265  22.572   3.437 -0.04 -0.00    +0.000 Fe
DOCKED: ENDROOT
DOCKED: BRANCH   6  30
DOCKED: ATOM     30  C   UNL d   1      -4.708  21.350   8.828 -0.01 +0.01    +0.052 C 
DOCKED: BRANCH  30  31
DOCKED: ATOM     31  C   UNL d   1      -3.933  20.097   9.222 -0.03 +0.03    +0.115 C 
DOCKED: BRANCH  31  32
DOCKED: ATOM     32  C   UNL d   1      -4.217  18.978   8.260 -0.02 +0.13    +0.139 C 
DOCKED: ATOM     33  O   UNL d   1      -3.433  18.715   7.358 -0.54 -0.81    -0.650 OA
DOCKED: BRANCH  32  34
DOCKED: ATOM     34  O   UNL d   1      -5.342  18.252   8.382 +0.18 -1.13    -0.776 OA
DOCKED: ATOM     35  H   UNL d   1      -6.147  18.555   7.938 +0.02 +0.24    +0.167 HD
DOCKED: ENDBRANCH  32  34
DOCKED: ENDBRANCH  31  32
DOCKED: ENDBRANCH  30  31
DOCKED: ENDBRANCH   6  30
DOCKED: BRANCH  22  36
DOCKED: ATOM     36  C   UNL d   1      -9.069  20.601   5.612 -0.06 +0.01    +0.052 C 
DOCKED: BRANCH  36  37
DOCKED: ATOM     37  C   UNL d   1      -9.247  19.091   5.686 -0.11 +0.04    +0.115 C 
DOCKED: BRANCH  37  38
DOCKED: ATOM     38  C   UNL d   1      -7.916  18.394   5.722 -0.16 +0.13    +0.139 C 
DOCKED: ATOM     39  O   UNL d   1      -7.277  18.321   6.761 -0.07 -1.01    -0.650 OA
DOCKED: BRANCH  38  40
DOCKED: ATOM     40  O   UNL d   1      -7.416  17.844   4.601 -0.54 -0.80    -0.776 OA
DOCKED: ATOM     41  H   UNL d   1      -7.020  18.420   3.932 -0.44 +0.06    +0.167 HD
DOCKED: ENDBRANCH  38  40
DOCKED: ENDBRANCH  37  38
DOCKED: ENDBRANCH  36  37
DOCKED: ENDBRANCH  22  36
DOCKED: BRANCH  12  42
DOCKED: ATOM     42  C   UNL d   1       0.090  25.542   1.377 -0.25 -0.00    +0.004 C 
DOCKED: ATOM     43  C   UNL d   1       0.577  24.958   0.274 -0.30 -0.01    +0.012 C 
DOCKED: ENDBRANCH  12  42
DOCKED: BRANCH  17  44
DOCKED: ATOM     44  C   UNL d   1      -6.153  21.659  -1.730 -0.33 -0.00    +0.004 C 
DOCKED: ATOM     45  C   UNL d   1      -5.611  20.943  -2.721 -0.44 -0.00    +0.012 C 
DOCKED: ENDBRANCH  17  44
DOCKED: TORSDOF 10
DOCKED: TER
DOCKED: ENDMDL
________________________________________________________________________________


	BEGINNING GENETIC ALGORITHM DOCKING 77 of 100
Run: 77 Seed: 634449216 305772135 [ Run 77 of 100 GA/GALS ]
Beginning LAMARCKIAN GENETIC ALGORITHM (LGA), with a maximum of 25000000 energy evaluations.

Final-Value: -12.256


	FINAL GENETIC ALGORITHM DOCKED STATE
	_______________________________________________


Detailed state:  trans -8.414 6.006 -14.383 quatxyzw -0.623338 -0.454126 0.118596 -0.625423 center -0.174 -0.001 -0.047 ntor 10 -179.7669 1.1001 165.5447 47.6350 30.2515 134.4548 -13.3877 70.7163 -159.5997 162.7935
State:	 -8.414   6.006 -14.383  -0.799 -0.582  0.152 -102.573   -179.77    1.10  165.54   47.64   30.25  134.45  -13.39   70.72 -159.60  162.79

DOCKED: MODEL       77
DOCKED: USER    Run = 77
DOCKED: USER    DPF = D:/Protein_go_brrr/autodock/final/mut_K82N/heme_Fe/dock.dpf
DOCKED: USER  
DOCKED: USER    Estimated Free Energy of Binding    =   -7.16 kcal/mol  [=(1)+(2)+(3)-(4)]
DOCKED: USER    Estimated Inhibition Constant, Ki   =    5.62 uM (micromolar)  [Temperature = 298.15 K]
DOCKED: USER    
DOCKED: USER    (1) Final Intermolecular Energy     =  -10.15 kcal/mol
DOCKED: USER        vdW + Hbond + desolv Energy     =   -7.99 kcal/mol
DOCKED: USER        Electrostatic Energy            =   -2.16 kcal/mol
DOCKED: USER    (2) Final Total Internal Energy     =   -2.11 kcal/mol
DOCKED: USER    (3) Torsional Free Energy           =   +2.98 kcal/mol
DOCKED: USER    (4) Unbound System's Energy  [=(2)] =   -2.11 kcal/mol
DOCKED: USER    
DOCKED: USER    
DOCKED: USER    NEWDPF move heme_Fe_opt.pdbqt
DOCKED: USER    NEWDPF about -0.174000 -0.001000 -0.047000
DOCKED: USER    NEWDPF tran0 -8.414499 6.006260 -14.383491
DOCKED: USER    NEWDPF quaternion0 -0.623338 -0.454126 0.118596 -0.625423
DOCKED: USER    NEWDPF axisangle0 -0.798858 -0.582000 0.151990 -102.573493
DOCKED: USER    NEWDPF quat0 -0.798858 -0.582000 0.151990 -102.573493
DOCKED: USER    NEWDPF dihe0 -179.77 1.10 165.54 47.64 30.25 134.45 -13.39 70.72 -159.60 162.79 
DOCKED: USER  keepresnum = 1 
DOCKED: USER  
DOCKED: REMARK  10 active torsions:
DOCKED: REMARK  status: ('A' for Active; 'I' for Inactive)
DOCKED: REMARK    1  A    between atoms: C_6  and  C_10 
DOCKED: REMARK    2  A    between atoms: C_10  and  C_11 
DOCKED: REMARK    3  A    between atoms: C_11  and  C_12 
DOCKED: REMARK    4  A    between atoms: C_12  and  O_14 
DOCKED: REMARK    5  A    between atoms: C_17  and  C_20 
DOCKED: REMARK    6  A    between atoms: C_24  and  C_27 
DOCKED: REMARK    7  A    between atoms: C_31  and  C_34 
DOCKED: REMARK    8  A    between atoms: C_34  and  C_35 
DOCKED: REMARK    9  A    between atoms: C_35  and  C_36 
DOCKED: REMARK   10  A    between atoms: C_36  and  O_38 
DOCKED: USER                              x       y       z     vdW  Elec       q    Type
DOCKED: USER                           _______ _______ _______ _____ _____    ______ ____
DOCKED: ROOT
DOCKED: ATOM      1  C   UNL d   1      -9.928   4.937 -15.264 -0.29 +0.02    +0.064 C 
DOCKED: ATOM      2  C   UNL d   1      -9.136   6.768 -10.742 -0.11 +0.01    +0.064 A 
DOCKED: ATOM      3  C   UNL d   1      -5.611   9.492 -12.538 -0.24 -0.01    +0.064 C 
DOCKED: ATOM      4  C   UNL d   1      -6.291   7.655 -16.903 -0.21 -0.01    +0.064 C 
DOCKED: ATOM      5  C   UNL d   1      -9.977   5.138 -13.810 -0.22 +0.01    +0.066 A 
DOCKED: ATOM      6  C   UNL d   1     -10.797   4.437 -12.941 -0.17 -0.01    -0.021 A 
DOCKED: ATOM      7  C   UNL d   1     -10.579   4.949 -11.686 -0.16 -0.01    -0.025 A 
DOCKED: ATOM      8  C   UNL d   1      -9.632   5.944 -11.837 -0.15 +0.01    +0.066 A 
DOCKED: ATOM      9  C   UNL d   1     -11.233   4.489 -10.419 -0.14 +0.02    +0.051 C 
DOCKED: ATOM     10  C   UNL d   1      -8.182   7.694 -10.851 -0.12 +0.01    +0.066 A 
DOCKED: ATOM     11  C   UNL d   1      -7.808   8.547  -9.809 -0.18 -0.00    -0.021 A 
DOCKED: ATOM     12  C   UNL d   1      -6.804   9.354 -10.307 -0.29 -0.00    +0.000 A 
DOCKED: ATOM     13  C   UNL d   1      -6.621   8.953 -11.642 -0.19 -0.00    +0.070 A 
DOCKED: ATOM     14  C   UNL d   1      -8.424   8.636  -8.428 -0.24 +0.01    +0.052 C 
DOCKED: ATOM     15  C   UNL d   1      -5.465   9.146 -13.839 -0.19 -0.01    +0.066 A 
DOCKED: ATOM     16  C   UNL d   1      -4.425   9.608 -14.635 -0.24 +0.01    -0.021 A 
DOCKED: ATOM     17  C   UNL d   1      -4.621   9.083 -15.895 -0.17 -0.00    +0.000 A 
DOCKED: ATOM     18  C   UNL d   1      -5.781   8.314 -15.840 -0.18 -0.01    +0.070 A 
DOCKED: ATOM     19  C   UNL d   1      -3.303  10.529 -14.236 -0.38 -0.02    +0.052 C 
DOCKED: ATOM     20  C   UNL d   1      -7.474   6.787 -16.867 -0.17 -0.01    +0.066 A 
DOCKED: ATOM     21  C   UNL d   1      -8.128   6.262 -17.991 -0.17 +0.00    -0.025 A 
DOCKED: ATOM     22  C   UNL d   1      -9.153   5.480 -17.501 -0.22 -0.00    -0.021 A 
DOCKED: ATOM     23  C   UNL d   1      -9.089   5.564 -16.104 -0.25 +0.01    +0.066 A 
DOCKED: ATOM     24  C   UNL d   1      -7.814   6.481 -19.453 -0.16 -0.01    +0.051 C 
DOCKED: ATOM     25  N   UNL d   1      -9.261   6.050 -13.128 -0.07 -0.03    -0.248 N 
DOCKED: ATOM     26  N   UNL d   1      -7.467   7.948 -11.976 -0.04 -0.01    -0.248 N 
DOCKED: ATOM     27  N   UNL d   1      -6.276   8.316 -14.566 -0.03 +0.03    -0.248 N 
DOCKED: ATOM     28  N   UNL d   1      -8.091   6.398 -15.725 -0.11 +0.01    -0.248 N 
DOCKED: ATOM     29 FE   UNL d   1      -7.778   7.173 -13.853 -0.04 +0.00    +0.000 Fe
DOCKED: ENDROOT
DOCKED: BRANCH   6  30
DOCKED: ATOM     30  C   UNL d   1     -11.727   3.323 -13.281 -0.00 +0.03    +0.052 C 
DOCKED: BRANCH  30  31
DOCKED: ATOM     31  C   UNL d   1     -12.920   3.838 -14.079 -0.13 +0.07    +0.115 C 
DOCKED: BRANCH  31  32
DOCKED: ATOM     32  C   UNL d   1     -13.676   2.693 -14.693 -0.05 +0.16    +0.139 C 
DOCKED: ATOM     33  O   UNL d   1     -13.704   1.600 -14.146 -0.21 -0.79    -0.650 OA
DOCKED: BRANCH  32  34
DOCKED: ATOM     34  O   UNL d   1     -14.331   2.863 -15.854 -0.32 -1.01    -0.776 OA
DOCKED: ATOM     35  H   UNL d   1     -14.305   3.728 -16.286 +0.01 +0.14    +0.167 HD
DOCKED: ENDBRANCH  32  34
DOCKED: ENDBRANCH  31  32
DOCKED: ENDBRANCH  30  31
DOCKED: ENDBRANCH   6  30
DOCKED: BRANCH  22  36
DOCKED: ATOM     36  C   UNL d   1     -10.166   4.736 -18.330 -0.19 +0.01    +0.052 C 
DOCKED: BRANCH  36  37
DOCKED: ATOM     37  C   UNL d   1     -11.466   5.524 -18.381 -0.09 +0.03    +0.115 C 
DOCKED: BRANCH  37  38
DOCKED: ATOM     38  C   UNL d   1     -12.546   4.833 -17.597 -0.10 +0.07    +0.139 C 
DOCKED: ATOM     39  O   UNL d   1     -13.261   5.460 -16.830 +0.01 -0.23    -0.650 OA
DOCKED: BRANCH  38  40
DOCKED: ATOM     40  O   UNL d   1     -12.732   3.508 -17.734 -0.39 -0.93    -0.776 OA
DOCKED: ATOM     41  H   UNL d   1     -13.439   3.078 -17.233 +0.00 +0.31    +0.167 HD
DOCKED: ENDBRANCH  38  40
DOCKED: ENDBRANCH  37  38
DOCKED: ENDBRANCH  36  37
DOCKED: ENDBRANCH  22  36
DOCKED: BRANCH  12  42
DOCKED: ATOM     42  C   UNL d   1      -6.110  10.431  -9.535 -0.50 -0.00    +0.004 C 
DOCKED: ATOM     43  C   UNL d   1      -5.683  11.547 -10.140 -0.48 -0.00    +0.012 C 
DOCKED: ENDBRANCH  12  42
DOCKED: BRANCH  17  44
DOCKED: ATOM     44  C   UNL d   1      -3.744   9.286 -17.071 -0.15 -0.00    +0.004 C 
DOCKED: ATOM     45  C   UNL d   1      -2.880   8.340 -17.453 -0.25 -0.00    +0.012 C 
DOCKED: ENDBRANCH  17  44
DOCKED: TORSDOF 10
DOCKED: TER
DOCKED: ENDMDL
________________________________________________________________________________


	BEGINNING GENETIC ALGORITHM DOCKING 78 of 100
Run: 78 Seed: 1944424400 7458080 [ Run 78 of 100 GA/GALS ]
Beginning LAMARCKIAN GENETIC ALGORITHM (LGA), with a maximum of 25000000 energy evaluations.

Final-Value: -11.548


	FINAL GENETIC ALGORITHM DOCKED STATE
	_______________________________________________


Detailed state:  trans -8.714 7.255 -12.741 quatxyzw 0.386583 0.542613 -0.115001 -0.736817 center -0.174 -0.001 -0.047 ntor 10 -90.6039 95.1997 -140.7546 -144.3066 -90.2041 -111.0875 36.8883 -58.4032 -39.7931 -27.0869
State:	 -8.714   7.255 -12.741   0.572  0.803 -0.170 -85.078    -90.60   95.20 -140.75 -144.31  -90.20 -111.09   36.89  -58.40  -39.79  -27.09

DOCKED: MODEL       78
DOCKED: USER    Run = 78
DOCKED: USER    DPF = D:/Protein_go_brrr/autodock/final/mut_K82N/heme_Fe/dock.dpf
DOCKED: USER  
DOCKED: USER    Estimated Free Energy of Binding    =   -6.64 kcal/mol  [=(1)+(2)+(3)-(4)]
DOCKED: USER    Estimated Inhibition Constant, Ki   =   13.55 uM (micromolar)  [Temperature = 298.15 K]
DOCKED: USER    
DOCKED: USER    (1) Final Intermolecular Energy     =   -9.62 kcal/mol
DOCKED: USER        vdW + Hbond + desolv Energy     =   -7.22 kcal/mol
DOCKED: USER        Electrostatic Energy            =   -2.40 kcal/mol
DOCKED: USER    (2) Final Total Internal Energy     =   -1.92 kcal/mol
DOCKED: USER    (3) Torsional Free Energy           =   +2.98 kcal/mol
DOCKED: USER    (4) Unbound System's Energy  [=(2)] =   -1.92 kcal/mol
DOCKED: USER    
DOCKED: USER    
DOCKED: USER    NEWDPF move heme_Fe_opt.pdbqt
DOCKED: USER    NEWDPF about -0.174000 -0.001000 -0.047000
DOCKED: USER    NEWDPF tran0 -8.713757 7.255039 -12.741210
DOCKED: USER    NEWDPF quaternion0 0.386583 0.542613 -0.115001 -0.736817
DOCKED: USER    NEWDPF axisangle0 0.571790 0.802573 -0.170097 -85.078117
DOCKED: USER    NEWDPF quat0 0.571790 0.802573 -0.170097 -85.078117
DOCKED: USER    NEWDPF dihe0 -90.60 95.20 -140.75 -144.31 -90.20 -111.09 36.89 -58.40 -39.79 -27.09 
DOCKED: USER  keepresnum = 1 
DOCKED: USER  
DOCKED: REMARK  10 active torsions:
DOCKED: REMARK  status: ('A' for Active; 'I' for Inactive)
DOCKED: REMARK    1  A    between atoms: C_6  and  C_10 
DOCKED: REMARK    2  A    between atoms: C_10  and  C_11 
DOCKED: REMARK    3  A    between atoms: C_11  and  C_12 
DOCKED: REMARK    4  A    between atoms: C_12  and  O_14 
DOCKED: REMARK    5  A    between atoms: C_17  and  C_20 
DOCKED: REMARK    6  A    between atoms: C_24  and  C_27 
DOCKED: REMARK    7  A    between atoms: C_31  and  C_34 
DOCKED: REMARK    8  A    between atoms: C_34  and  C_35 
DOCKED: REMARK    9  A    between atoms: C_35  and  C_36 
DOCKED: REMARK   10  A    between atoms: C_36  and  O_38 
DOCKED: USER                              x       y       z     vdW  Elec       q    Type
DOCKED: USER                           _______ _______ _______ _____ _____    ______ ____
DOCKED: ROOT
DOCKED: ATOM      1  C   UNL d   1      -9.132   6.350 -10.948 -0.15 +0.01    +0.064 C 
DOCKED: ATOM      2  C   UNL d   1      -9.824   5.155 -15.693 -0.24 +0.02    +0.064 A 
DOCKED: ATOM      3  C   UNL d   1      -6.739   8.618 -16.943 -0.11 -0.01    +0.064 C 
DOCKED: ATOM      4  C   UNL d   1      -6.136   9.860 -12.363 -0.26 -0.01    +0.064 C 
DOCKED: ATOM      5  C   UNL d   1      -9.677   5.748 -12.172 -0.16 +0.01    +0.066 A 
DOCKED: ATOM      6  C   UNL d   1     -10.676   4.789 -12.205 -0.17 -0.01    -0.021 A 
DOCKED: ATOM      7  C   UNL d   1     -10.865   4.455 -13.523 -0.19 -0.01    -0.025 A 
DOCKED: ATOM      8  C   UNL d   1      -9.973   5.224 -14.245 -0.23 +0.01    +0.066 A 
DOCKED: ATOM      9  C   UNL d   1     -11.861   3.467 -14.050 -0.20 +0.03    +0.051 C 
DOCKED: ATOM     10  C   UNL d   1      -9.012   5.926 -16.419 -0.24 +0.00    +0.066 A 
DOCKED: ATOM     11  C   UNL d   1      -8.807   5.759 -17.791 -0.23 -0.00    -0.021 A 
DOCKED: ATOM     12  C   UNL d   1      -7.908   6.735 -18.173 -0.18 -0.00    +0.000 A 
DOCKED: ATOM     13  C   UNL d   1      -7.603   7.449 -17.001 -0.16 -0.01    +0.070 A 
DOCKED: ATOM     14  C   UNL d   1      -9.386   4.679 -18.682 -0.19 +0.01    +0.052 C 
DOCKED: ATOM     15  C   UNL d   1      -6.401   9.277 -15.810 -0.08 -0.01    +0.066 A 
DOCKED: ATOM     16  C   UNL d   1      -5.655  10.448 -15.808 -0.07 +0.00    -0.021 A 
DOCKED: ATOM     17  C   UNL d   1      -5.477  10.807 -14.487 -0.16 -0.00    +0.000 A 
DOCKED: ATOM     18  C   UNL d   1      -6.116   9.841 -13.714 -0.14 -0.01    +0.070 A 
DOCKED: ATOM     19  C   UNL d   1      -5.107  11.191 -16.997 -0.06 -0.02    +0.052 C 
DOCKED: ATOM     20  C   UNL d   1      -6.850   8.896 -11.518 -0.18 -0.00    +0.066 A 
DOCKED: ATOM     21  C   UNL d   1      -6.718   8.785 -10.126 -0.27 +0.00    -0.025 A 
DOCKED: ATOM     22  C   UNL d   1      -7.590   7.787  -9.743 -0.20 -0.00    -0.021 A 
DOCKED: ATOM     23  C   UNL d   1      -8.212   7.327 -10.909 -0.12 +0.01    +0.066 A 
DOCKED: ATOM     24  C   UNL d   1      -5.817   9.568  -9.199 -0.48 -0.01    +0.051 C 
DOCKED: ATOM     25  N   UNL d   1      -9.258   6.016 -13.421 -0.07 -0.03    -0.248 N 
DOCKED: ATOM     26  N   UNL d   1      -8.268   6.951 -15.931 -0.13 +0.01    -0.248 N 
DOCKED: ATOM     27  N   UNL d   1      -6.722   8.924 -14.527 -0.06 +0.02    -0.248 N 
DOCKED: ATOM     28  N   UNL d   1      -7.724   7.977 -11.994 -0.06 -0.01    -0.248 N 
DOCKED: ATOM     29 FE   UNL d   1      -7.995   7.465 -13.961 -0.04 +0.00    +0.000 Fe
DOCKED: ENDROOT
DOCKED: BRANCH   6  30
DOCKED: ATOM     30  C   UNL d   1     -11.430   4.232 -11.046 -0.14 +0.02    +0.052 C 
DOCKED: BRANCH  30  31
DOCKED: ATOM     31  C   UNL d   1     -11.963   5.353 -10.160 -0.06 +0.05    +0.115 C 
DOCKED: BRANCH  31  32
DOCKED: ATOM     32  C   UNL d   1     -11.894   4.956  -8.711 -0.06 +0.15    +0.139 C 
DOCKED: ATOM     33  O   UNL d   1     -12.834   4.388  -8.175 +0.02 -0.89    -0.650 OA
DOCKED: BRANCH  32  34
DOCKED: ATOM     34  O   UNL d   1     -10.792   5.225  -7.991 -0.07 -1.24    -0.776 OA
DOCKED: ATOM     35  H   UNL d   1     -10.730   6.071  -7.525 +0.03 +0.23    +0.167 HD
DOCKED: ENDBRANCH  32  34
DOCKED: ENDBRANCH  31  32
DOCKED: ENDBRANCH  30  31
DOCKED: ENDBRANCH   6  30
DOCKED: BRANCH  22  36
DOCKED: ATOM     36  C   UNL d   1      -7.776   7.273  -8.339 -0.18 +0.01    +0.052 C 
DOCKED: BRANCH  36  37
DOCKED: ATOM     37  C   UNL d   1      -8.464   8.333  -7.491 -0.17 +0.03    +0.115 C 
DOCKED: BRANCH  37  38
DOCKED: ATOM     38  C   UNL d   1      -9.759   7.818  -6.932 -0.17 +0.08    +0.139 C 
DOCKED: ATOM     39  O   UNL d   1     -10.829   8.264  -7.320 +0.03 -0.31    -0.650 OA
DOCKED: BRANCH  38  40
DOCKED: ATOM     40  O   UNL d   1      -9.750   6.858  -5.990 -0.34 -0.81    -0.776 OA
DOCKED: ATOM     41  H   UNL d   1      -9.699   5.932  -6.264 +0.03 +0.27    +0.167 HD
DOCKED: ENDBRANCH  38  40
DOCKED: ENDBRANCH  37  38
DOCKED: ENDBRANCH  36  37
DOCKED: ENDBRANCH  22  36
DOCKED: BRANCH  12  42
DOCKED: ATOM     42  C   UNL d   1      -7.390   6.925 -19.563 -0.15 -0.00    +0.004 C 
DOCKED: ATOM     43  C   UNL d   1      -6.250   6.345 -19.959 -0.21 -0.00    +0.012 C 
DOCKED: ENDBRANCH  12  42
DOCKED: BRANCH  17  44
DOCKED: ATOM     44  C   UNL d   1      -4.759  12.006 -13.999 -0.42 -0.00    +0.004 C 
DOCKED: ATOM     45  C   UNL d   1      -3.450  11.959 -13.733 -0.52 -0.01    +0.012 C 
DOCKED: ENDBRANCH  17  44
DOCKED: TORSDOF 10
DOCKED: TER
DOCKED: ENDMDL
________________________________________________________________________________


	BEGINNING GENETIC ALGORITHM DOCKING 79 of 100
Run: 79 Seed: 409555725 512812355 [ Run 79 of 100 GA/GALS ]
Beginning LAMARCKIAN GENETIC ALGORITHM (LGA), with a maximum of 25000000 energy evaluations.

Final-Value: -12.522


	FINAL GENETIC ALGORITHM DOCKED STATE
	_______________________________________________


Detailed state:  trans -8.731 7.122 -12.736 quatxyzw 0.438364 0.493946 -0.158665 -0.733949 center -0.174 -0.001 -0.047 ntor 10 -89.6488 -87.1991 179.6721 49.8353 96.7273 91.3585 -63.8889 -34.9133 179.8862 10.9132
State:	 -8.731   7.122 -12.736   0.645  0.727 -0.234 -85.563    -89.65  -87.20  179.67   49.84   96.73   91.36  -63.89  -34.91  179.89   10.91

DOCKED: MODEL       79
DOCKED: USER    Run = 79
DOCKED: USER    DPF = D:/Protein_go_brrr/autodock/final/mut_K82N/heme_Fe/dock.dpf
DOCKED: USER  
DOCKED: USER    Estimated Free Energy of Binding    =   -7.52 kcal/mol  [=(1)+(2)+(3)-(4)]
DOCKED: USER    Estimated Inhibition Constant, Ki   =    3.06 uM (micromolar)  [Temperature = 298.15 K]
DOCKED: USER    
DOCKED: USER    (1) Final Intermolecular Energy     =  -10.51 kcal/mol
DOCKED: USER        vdW + Hbond + desolv Energy     =   -7.65 kcal/mol
DOCKED: USER        Electrostatic Energy            =   -2.85 kcal/mol
DOCKED: USER    (2) Final Total Internal Energy     =   -2.02 kcal/mol
DOCKED: USER    (3) Torsional Free Energy           =   +2.98 kcal/mol
DOCKED: USER    (4) Unbound System's Energy  [=(2)] =   -2.02 kcal/mol
DOCKED: USER    
DOCKED: USER    
DOCKED: USER    NEWDPF move heme_Fe_opt.pdbqt
DOCKED: USER    NEWDPF about -0.174000 -0.001000 -0.047000
DOCKED: USER    NEWDPF tran0 -8.731046 7.122443 -12.735550
DOCKED: USER    NEWDPF quaternion0 0.438364 0.493946 -0.158665 -0.733949
DOCKED: USER    NEWDPF axisangle0 0.645407 0.727241 -0.233603 -85.563082
DOCKED: USER    NEWDPF quat0 0.645407 0.727241 -0.233603 -85.563082
DOCKED: USER    NEWDPF dihe0 -89.65 -87.20 179.67 49.84 96.73 91.36 -63.89 -34.91 179.89 10.91 
DOCKED: USER  keepresnum = 1 
DOCKED: USER  
DOCKED: REMARK  10 active torsions:
DOCKED: REMARK  status: ('A' for Active; 'I' for Inactive)
DOCKED: REMARK    1  A    between atoms: C_6  and  C_10 
DOCKED: REMARK    2  A    between atoms: C_10  and  C_11 
DOCKED: REMARK    3  A    between atoms: C_11  and  C_12 
DOCKED: REMARK    4  A    between atoms: C_12  and  O_14 
DOCKED: REMARK    5  A    between atoms: C_17  and  C_20 
DOCKED: REMARK    6  A    between atoms: C_24  and  C_27 
DOCKED: REMARK    7  A    between atoms: C_31  and  C_34 
DOCKED: REMARK    8  A    between atoms: C_34  and  C_35 
DOCKED: REMARK    9  A    between atoms: C_35  and  C_36 
DOCKED: REMARK   10  A    between atoms: C_36  and  O_38 
DOCKED: USER                              x       y       z     vdW  Elec       q    Type
DOCKED: USER                           _______ _______ _______ _____ _____    ______ ____
DOCKED: ROOT
DOCKED: ATOM      1  C   UNL d   1      -9.373   6.267 -10.984 -0.15 +0.01    +0.064 C 
DOCKED: ATOM      2  C   UNL d   1     -10.015   5.273 -15.783 -0.23 +0.02    +0.064 A 
DOCKED: ATOM      3  C   UNL d   1      -6.366   8.222 -16.811 -0.17 -0.01    +0.064 C 
DOCKED: ATOM      4  C   UNL d   1      -5.796   9.279 -12.180 -0.25 -0.01    +0.064 C 
DOCKED: ATOM      5  C   UNL d   1      -9.946   5.778 -12.246 -0.15 +0.01    +0.066 A 
DOCKED: ATOM      6  C   UNL d   1     -11.082   4.991 -12.347 -0.14 -0.01    -0.021 A 
DOCKED: ATOM      7  C   UNL d   1     -11.257   4.712 -13.679 -0.17 -0.01    -0.025 A 
DOCKED: ATOM      8  C   UNL d   1     -10.221   5.341 -14.342 -0.20 +0.01    +0.066 A 
DOCKED: ATOM      9  C   UNL d   1     -12.369   3.904 -14.273 -0.17 +0.03    +0.051 C 
DOCKED: ATOM     10  C   UNL d   1      -9.058   5.917 -16.454 -0.24 +0.00    +0.066 A 
DOCKED: ATOM     11  C   UNL d   1      -8.816   5.742 -17.818 -0.23 -0.00    -0.021 A 
DOCKED: ATOM     12  C   UNL d   1      -7.757   6.569 -18.136 -0.14 -0.00    +0.000 A 
DOCKED: ATOM     13  C   UNL d   1      -7.399   7.206 -16.935 -0.18 -0.01    +0.070 A 
DOCKED: ATOM     14  C   UNL d   1      -9.514   4.782 -18.760 -0.21 +0.01    +0.052 C 
DOCKED: ATOM     15  C   UNL d   1      -5.983   8.801 -15.649 -0.13 -0.01    +0.066 A 
DOCKED: ATOM     16  C   UNL d   1      -5.062   9.839 -15.585 -0.11 +0.00    -0.021 A 
DOCKED: ATOM     17  C   UNL d   1      -4.894  10.143 -14.250 -0.22 -0.00    +0.000 A 
DOCKED: ATOM     18  C   UNL d   1      -5.714   9.279 -13.529 -0.18 -0.01    +0.070 A 
DOCKED: ATOM     19  C   UNL d   1      -4.348  10.504 -16.731 -0.09 -0.02    +0.052 C 
DOCKED: ATOM     20  C   UNL d   1      -6.693   8.427 -11.391 -0.19 -0.00    +0.066 A 
DOCKED: ATOM     21  C   UNL d   1      -6.647   8.273  -9.998 -0.27 -0.00    -0.025 A 
DOCKED: ATOM     22  C   UNL d   1      -7.683   7.421  -9.678 -0.20 -0.00    -0.021 A 
DOCKED: ATOM     23  C   UNL d   1      -8.313   7.084 -10.882 -0.12 +0.01    +0.066 A 
DOCKED: ATOM     24  C   UNL d   1      -5.680   8.888  -9.013 -0.47 -0.00    +0.051 C 
DOCKED: ATOM     25  N   UNL d   1      -9.431   5.997 -13.468 -0.09 -0.03    -0.248 N 
DOCKED: ATOM     26  N   UNL d   1      -8.186   6.803 -15.908 -0.15 +0.01    -0.248 N 
DOCKED: ATOM     27  N   UNL d   1      -6.417   8.483 -14.390 -0.07 +0.02    -0.248 N 
DOCKED: ATOM     28  N   UNL d   1      -7.677   7.666 -11.928 +0.01 -0.01    -0.248 N 
DOCKED: ATOM     29 FE   UNL d   1      -7.930   7.235 -13.917 -0.04 +0.00    +0.000 Fe
DOCKED: ENDROOT
DOCKED: BRANCH   6  30
DOCKED: ATOM     30  C   UNL d   1     -11.969   4.542 -11.236 -0.10 +0.02    +0.052 C 
DOCKED: BRANCH  30  31
DOCKED: ATOM     31  C   UNL d   1     -11.506   3.198 -10.684 -0.08 +0.05    +0.115 C 
DOCKED: BRANCH  31  32
DOCKED: ATOM     32  C   UNL d   1     -11.072   3.339  -9.252 -0.12 +0.12    +0.139 C 
DOCKED: ATOM     33  O   UNL d   1     -11.841   3.072  -8.339 -0.23 -1.03    -0.650 OA
DOCKED: BRANCH  32  34
DOCKED: ATOM     34  O   UNL d   1      -9.830   3.761  -8.961 +0.03 -0.62    -0.776 OA
DOCKED: ATOM     35  H   UNL d   1      -9.670   4.709  -8.851 +0.05 +0.13    +0.167 HD
DOCKED: ENDBRANCH  32  34
DOCKED: ENDBRANCH  31  32
DOCKED: ENDBRANCH  30  31
DOCKED: ENDBRANCH   6  30
DOCKED: BRANCH  22  36
DOCKED: ATOM     36  C   UNL d   1      -8.015   6.920  -8.297 -0.12 +0.01    +0.052 C 
DOCKED: BRANCH  36  37
DOCKED: ATOM     37  C   UNL d   1      -9.291   7.587  -7.802 -0.17 +0.05    +0.115 C 
DOCKED: BRANCH  37  38
DOCKED: ATOM     38  C   UNL d   1     -10.111   6.636  -6.977 -0.18 +0.15    +0.139 C 
DOCKED: ATOM     39  O   UNL d   1      -9.966   6.575  -5.765 -0.41 -0.82    -0.650 OA
DOCKED: BRANCH  38  40
DOCKED: ATOM     40  O   UNL d   1     -11.013   5.836  -7.573 -0.07 -1.24    -0.776 OA
DOCKED: ATOM     41  H   UNL d   1     -10.746   4.947  -7.846 +0.03 +0.33    +0.167 HD
DOCKED: ENDBRANCH  38  40
DOCKED: ENDBRANCH  37  38
DOCKED: ENDBRANCH  36  37
DOCKED: ENDBRANCH  22  36
DOCKED: BRANCH  12  42
DOCKED: ATOM     42  C   UNL d   1      -7.149   6.697 -19.497 -0.17 -0.00    +0.004 C 
DOCKED: ATOM     43  C   UNL d   1      -5.821   6.652 -19.665 -0.19 -0.00    +0.012 C 
DOCKED: ENDBRANCH  12  42
DOCKED: BRANCH  17  44
DOCKED: ATOM     44  C   UNL d   1      -4.020  11.205 -13.702 -0.45 -0.00    +0.004 C 
DOCKED: ATOM     45  C   UNL d   1      -4.537  12.355 -13.256 -0.51 -0.00    +0.012 C 
DOCKED: ENDBRANCH  17  44
DOCKED: TORSDOF 10
DOCKED: TER
DOCKED: ENDMDL
________________________________________________________________________________


	BEGINNING GENETIC ALGORITHM DOCKING 80 of 100
Run: 80 Seed: 1282651891 1142376600 [ Run 80 of 100 GA/GALS ]
Beginning LAMARCKIAN GENETIC ALGORITHM (LGA), with a maximum of 25000000 energy evaluations.

Final-Value: -11.576


	FINAL GENETIC ALGORITHM DOCKED STATE
	_______________________________________________


Detailed state:  trans -8.413 6.095 -14.530 quatxyzw -0.639316 -0.443071 0.087219 -0.622379 center -0.174 -0.001 -0.047 ntor 10 68.0358 71.5455 178.8126 48.1821 95.6619 -65.8947 -43.2647 46.6751 -162.9444 -180.0000
State:	 -8.413   6.095 -14.530  -0.817 -0.566  0.111 -103.020     68.04   71.55  178.81   48.18   95.66  -65.89  -43.26   46.68 -162.94 -180.00

DOCKED: MODEL       80
DOCKED: USER    Run = 80
DOCKED: USER    DPF = D:/Protein_go_brrr/autodock/final/mut_K82N/heme_Fe/dock.dpf
DOCKED: USER  
DOCKED: USER    Estimated Free Energy of Binding    =   -6.58 kcal/mol  [=(1)+(2)+(3)-(4)]
DOCKED: USER    Estimated Inhibition Constant, Ki   =   15.03 uM (micromolar)  [Temperature = 298.15 K]
DOCKED: USER    
DOCKED: USER    (1) Final Intermolecular Energy     =   -9.56 kcal/mol
DOCKED: USER        vdW + Hbond + desolv Energy     =   -7.72 kcal/mol
DOCKED: USER        Electrostatic Energy            =   -1.84 kcal/mol
DOCKED: USER    (2) Final Total Internal Energy     =   -2.01 kcal/mol
DOCKED: USER    (3) Torsional Free Energy           =   +2.98 kcal/mol
DOCKED: USER    (4) Unbound System's Energy  [=(2)] =   -2.01 kcal/mol
DOCKED: USER    
DOCKED: USER    
DOCKED: USER    NEWDPF move heme_Fe_opt.pdbqt
DOCKED: USER    NEWDPF about -0.174000 -0.001000 -0.047000
DOCKED: USER    NEWDPF tran0 -8.412936 6.094920 -14.530244
DOCKED: USER    NEWDPF quaternion0 -0.639316 -0.443071 0.087219 -0.622379
DOCKED: USER    NEWDPF axisangle0 -0.816792 -0.566068 0.111431 -103.019833
DOCKED: USER    NEWDPF quat0 -0.816792 -0.566068 0.111431 -103.019833
DOCKED: USER    NEWDPF dihe0 68.04 71.55 178.81 48.18 95.66 -65.89 -43.26 46.68 -162.94 -180.00 
DOCKED: USER  keepresnum = 1 
DOCKED: USER  
DOCKED: REMARK  10 active torsions:
DOCKED: REMARK  status: ('A' for Active; 'I' for Inactive)
DOCKED: REMARK    1  A    between atoms: C_6  and  C_10 
DOCKED: REMARK    2  A    between atoms: C_10  and  C_11 
DOCKED: REMARK    3  A    between atoms: C_11  and  C_12 
DOCKED: REMARK    4  A    between atoms: C_12  and  O_14 
DOCKED: REMARK    5  A    between atoms: C_17  and  C_20 
DOCKED: REMARK    6  A    between atoms: C_24  and  C_27 
DOCKED: REMARK    7  A    between atoms: C_31  and  C_34 
DOCKED: REMARK    8  A    between atoms: C_34  and  C_35 
DOCKED: REMARK    9  A    between atoms: C_35  and  C_36 
DOCKED: REMARK   10  A    between atoms: C_36  and  O_38 
DOCKED: USER                              x       y       z     vdW  Elec       q    Type
DOCKED: USER                           _______ _______ _______ _____ _____    ______ ____
DOCKED: ROOT
DOCKED: ATOM      1  C   UNL d   1      -9.966   5.130 -15.462 -0.27 +0.02    +0.064 C 
DOCKED: ATOM      2  C   UNL d   1      -9.197   6.900 -10.912 -0.10 +0.01    +0.064 A 
DOCKED: ATOM      3  C   UNL d   1      -5.443   9.383 -12.586 -0.21 -0.01    +0.064 C 
DOCKED: ATOM      4  C   UNL d   1      -6.105   7.600 -16.976 -0.21 -0.02    +0.064 C 
DOCKED: ATOM      5  C   UNL d   1     -10.047   5.332 -14.009 -0.21 +0.01    +0.066 A 
DOCKED: ATOM      6  C   UNL d   1     -10.940   4.687 -13.169 -0.18 -0.01    -0.021 A 
DOCKED: ATOM      7  C   UNL d   1     -10.728   5.182 -11.906 -0.15 -0.01    -0.025 A 
DOCKED: ATOM      8  C   UNL d   1      -9.713   6.111 -12.024 -0.14 +0.01    +0.066 A 
DOCKED: ATOM      9  C   UNL d   1     -11.452   4.766 -10.662 -0.12 +0.02    +0.051 C 
DOCKED: ATOM     10  C   UNL d   1      -8.181   7.760 -10.986 -0.12 +0.01    +0.066 A 
DOCKED: ATOM     11  C   UNL d   1      -7.784   8.585  -9.931 -0.18 -0.00    -0.021 A 
DOCKED: ATOM     12  C   UNL d   1      -6.713   9.324 -10.394 -0.30 -0.00    +0.000 A 
DOCKED: ATOM     13  C   UNL d   1      -6.515   8.913 -11.723 -0.20 -0.01    +0.070 A 
DOCKED: ATOM     14  C   UNL d   1      -8.437   8.713  -8.570 -0.23 +0.01    +0.052 C 
DOCKED: ATOM     15  C   UNL d   1      -5.279   9.030 -13.883 -0.21 -0.01    +0.066 A 
DOCKED: ATOM     16  C   UNL d   1      -4.185   9.423 -14.644 -0.26 +0.01    -0.021 A 
DOCKED: ATOM     17  C   UNL d   1      -4.376   8.913 -15.911 -0.20 -0.00    +0.000 A 
DOCKED: ATOM     18  C   UNL d   1      -5.586   8.223 -15.895 -0.19 -0.01    +0.070 A 
DOCKED: ATOM     19  C   UNL d   1      -3.018  10.266 -14.207 -0.38 -0.02    +0.052 C 
DOCKED: ATOM     20  C   UNL d   1      -7.344   6.813 -16.980 -0.09 -0.01    +0.066 A 
DOCKED: ATOM     21  C   UNL d   1      -7.995   6.334 -18.126 -0.17 +0.00    -0.025 A 
DOCKED: ATOM     22  C   UNL d   1      -9.085   5.622 -17.671 -0.22 -0.00    -0.021 A 
DOCKED: ATOM     23  C   UNL d   1      -9.061   5.700 -16.273 -0.25 +0.01    +0.066 A 
DOCKED: ATOM     24  C   UNL d   1      -7.621   6.534 -19.576 -0.15 -0.01    +0.051 C 
DOCKED: ATOM     25  N   UNL d   1      -9.294   6.193 -13.302 -0.07 -0.03    -0.248 N 
DOCKED: ATOM     26  N   UNL d   1      -7.415   7.966 -12.088 -0.03 -0.00    -0.248 N 
DOCKED: ATOM     27  N   UNL d   1      -6.121   8.257 -14.637 -0.03 +0.03    -0.248 N 
DOCKED: ATOM     28  N   UNL d   1      -8.021   6.465 -15.860 -0.15 +0.01    -0.248 N 
DOCKED: ATOM     29 FE   UNL d   1      -7.717   7.216 -13.976 -0.04 +0.00    +0.000 Fe
DOCKED: ENDROOT
DOCKED: BRANCH   6  30
DOCKED: ATOM     30  C   UNL d   1     -11.930   3.638 -13.542 -0.18 +0.03    +0.052 C 
DOCKED: BRANCH  30  31
DOCKED: ATOM     31  C   UNL d   1     -13.102   4.247 -14.305 -0.10 +0.06    +0.115 C 
DOCKED: BRANCH  31  32
DOCKED: ATOM     32  C   UNL d   1     -13.470   3.384 -15.480 +0.01 +0.16    +0.139 C 
DOCKED: ATOM     33  O   UNL d   1     -14.367   2.557 -15.389 -0.19 -0.83    -0.650 OA
DOCKED: BRANCH  32  34
DOCKED: ATOM     34  O   UNL d   1     -12.813   3.514 -16.645 -0.48 -1.14    -0.776 OA
DOCKED: ATOM     35  H   UNL d   1     -13.283   3.870 -17.411 +0.01 +0.16    +0.167 HD
DOCKED: ENDBRANCH  32  34
DOCKED: ENDBRANCH  31  32
DOCKED: ENDBRANCH  30  31
DOCKED: ENDBRANCH   6  30
DOCKED: BRANCH  22  36
DOCKED: ATOM     36  C   UNL d   1     -10.118   4.948 -18.534 -0.20 +0.01    +0.052 C 
DOCKED: BRANCH  36  37
DOCKED: ATOM     37  C   UNL d   1     -11.161   5.964 -18.975 -0.06 +0.02    +0.115 C 
DOCKED: BRANCH  37  38
DOCKED: ATOM     38  C   UNL d   1     -12.551   5.418 -18.807 -0.05 +0.04    +0.139 C 
DOCKED: ATOM     39  O   UNL d   1     -12.936   4.471 -19.477 -0.00 -0.22    -0.650 OA
DOCKED: BRANCH  38  40
DOCKED: ATOM     40  O   UNL d   1     -13.388   5.976 -17.914 +0.02 -0.18    -0.776 OA
DOCKED: ATOM     41  H   UNL d   1     -13.606   5.489 -17.107 +0.01 +0.05    +0.167 HD
DOCKED: ENDBRANCH  38  40
DOCKED: ENDBRANCH  37  38
DOCKED: ENDBRANCH  36  37
DOCKED: ENDBRANCH  22  36
DOCKED: BRANCH  12  42
DOCKED: ATOM     42  C   UNL d   1      -5.974  10.351  -9.597 -0.51 -0.00    +0.004 C 
DOCKED: ATOM     43  C   UNL d   1      -5.685  11.550 -10.118 -0.48 -0.00    +0.012 C 
DOCKED: ENDBRANCH  12  42
DOCKED: BRANCH  17  44
DOCKED: ATOM     44  C   UNL d   1      -3.451   9.058 -17.058 -0.18 -0.00    +0.004 C 
DOCKED: ATOM     45  C   UNL d   1      -2.648   8.053 -17.422 -0.29 -0.00    +0.012 C 
DOCKED: ENDBRANCH  17  44
DOCKED: TORSDOF 10
DOCKED: TER
DOCKED: ENDMDL
________________________________________________________________________________


	BEGINNING GENETIC ALGORITHM DOCKING 81 of 100
Run: 81 Seed: 713298336 398149617 [ Run 81 of 100 GA/GALS ]
Beginning LAMARCKIAN GENETIC ALGORITHM (LGA), with a maximum of 25000000 energy evaluations.

Final-Value: -14.767


	FINAL GENETIC ALGORITHM DOCKED STATE
	_______________________________________________


Detailed state:  trans -5.770 4.214 -7.285 quatxyzw 0.910433 -0.214290 0.104785 -0.337952 center -0.174 -0.001 -0.047 ntor 10 -46.4664 156.9540 30.1787 -116.0051 100.3433 -10.4571 70.0223 27.6165 -7.0059 57.3381
State:	 -5.770   4.214  -7.285   0.967 -0.228  0.111 -140.496    -46.47  156.95   30.18 -116.01  100.34  -10.46   70.02   27.62   -7.01   57.34

DOCKED: MODEL       81
DOCKED: USER    Run = 81
DOCKED: USER    DPF = D:/Protein_go_brrr/autodock/final/mut_K82N/heme_Fe/dock.dpf
DOCKED: USER  
DOCKED: USER    Estimated Free Energy of Binding    =  -10.07 kcal/mol  [=(1)+(2)+(3)-(4)]
DOCKED: USER    Estimated Inhibition Constant, Ki   =   41.83 nM (nanomolar)  [Temperature = 298.15 K]
DOCKED: USER    
DOCKED: USER    (1) Final Intermolecular Energy     =  -13.05 kcal/mol
DOCKED: USER        vdW + Hbond + desolv Energy     =  -11.49 kcal/mol
DOCKED: USER        Electrostatic Energy            =   -1.56 kcal/mol
DOCKED: USER    (2) Final Total Internal Energy     =   -1.72 kcal/mol
DOCKED: USER    (3) Torsional Free Energy           =   +2.98 kcal/mol
DOCKED: USER    (4) Unbound System's Energy  [=(2)] =   -1.72 kcal/mol
DOCKED: USER    
DOCKED: USER    
DOCKED: USER    NEWDPF move heme_Fe_opt.pdbqt
DOCKED: USER    NEWDPF about -0.174000 -0.001000 -0.047000
DOCKED: USER    NEWDPF tran0 -5.770177 4.214196 -7.284848
DOCKED: USER    NEWDPF quaternion0 0.910433 -0.214290 0.104785 -0.337952
DOCKED: USER    NEWDPF axisangle0 0.967349 -0.227686 0.111335 -140.495753
DOCKED: USER    NEWDPF quat0 0.967349 -0.227686 0.111335 -140.495753
DOCKED: USER    NEWDPF dihe0 -46.47 156.95 30.18 -116.01 100.34 -10.46 70.02 27.62 -7.01 57.34 
DOCKED: USER  keepresnum = 1 
DOCKED: USER  
DOCKED: REMARK  10 active torsions:
DOCKED: REMARK  status: ('A' for Active; 'I' for Inactive)
DOCKED: REMARK    1  A    between atoms: C_6  and  C_10 
DOCKED: REMARK    2  A    between atoms: C_10  and  C_11 
DOCKED: REMARK    3  A    between atoms: C_11  and  C_12 
DOCKED: REMARK    4  A    between atoms: C_12  and  O_14 
DOCKED: REMARK    5  A    between atoms: C_17  and  C_20 
DOCKED: REMARK    6  A    between atoms: C_24  and  C_27 
DOCKED: REMARK    7  A    between atoms: C_31  and  C_34 
DOCKED: REMARK    8  A    between atoms: C_34  and  C_35 
DOCKED: REMARK    9  A    between atoms: C_35  and  C_36 
DOCKED: REMARK   10  A    between atoms: C_36  and  O_38 
DOCKED: USER                              x       y       z     vdW  Elec       q    Type
DOCKED: USER                           _______ _______ _______ _____ _____    ______ ____
DOCKED: ROOT
DOCKED: ATOM      1  C   UNL d   1      -7.474   4.536  -8.382 -0.32 +0.02    +0.064 C 
DOCKED: ATOM      2  C   UNL d   1      -2.714   5.758  -8.908 -0.47 +0.00    +0.064 A 
DOCKED: ATOM      3  C   UNL d   1      -1.585   2.535  -5.530 -0.44 +0.00    +0.064 C 
DOCKED: ATOM      4  C   UNL d   1      -6.197   1.413  -4.930 -0.45 +0.01    +0.064 C 
DOCKED: ATOM      5  C   UNL d   1      -6.247   5.238  -8.784 -0.25 +0.01    +0.066 A 
DOCKED: ATOM      6  C   UNL d   1      -6.201   6.309  -9.661 -0.20 -0.00    -0.021 A 
DOCKED: ATOM      7  C   UNL d   1      -4.878   6.645  -9.809 -0.39 +0.00    -0.025 A 
DOCKED: ATOM      8  C   UNL d   1      -4.167   5.766  -9.016 -0.42 +0.00    +0.066 A 
DOCKED: ATOM      9  C   UNL d   1      -4.340   7.761 -10.651 -0.08 -0.01    +0.051 C 
DOCKED: ATOM     10  C   UNL d   1      -2.008   4.958  -8.107 -0.43 +0.00    +0.066 A 
DOCKED: ATOM     11  C   UNL d   1      -0.612   4.895  -8.110 -0.49 -0.00    -0.021 A 
DOCKED: ATOM     12  C   UNL d   1      -0.262   3.960  -7.156 -0.49 +0.00    +0.000 A 
DOCKED: ATOM     13  C   UNL d   1      -1.474   3.491  -6.621 -0.39 +0.00    +0.070 A 
DOCKED: ATOM     14  C   UNL d   1       0.340   5.638  -9.025 -0.46 +0.00    +0.052 C 
DOCKED: ATOM     15  C   UNL d   1      -2.750   2.042  -5.046 -0.38 +0.00    +0.066 A 
DOCKED: ATOM     16  C   UNL d   1      -2.818   1.207  -3.938 -0.34 -0.00    -0.021 A 
DOCKED: ATOM     17  C   UNL d   1      -4.147   0.880  -3.765 -0.39 +0.00    +0.000 A 
DOCKED: ATOM     18  C   UNL d   1      -4.859   1.520  -4.777 -0.37 +0.01    +0.070 A 
DOCKED: ATOM     19  C   UNL d   1      -1.678   0.715  -3.088 -0.27 -0.00    +0.052 C 
DOCKED: ATOM     20  C   UNL d   1      -6.987   2.120  -5.945 -0.35 +0.02    +0.066 A 
DOCKED: ATOM     21  C   UNL d   1      -8.334   1.868  -6.243 -0.26 -0.02    -0.025 A 
DOCKED: ATOM     22  C   UNL d   1      -8.681   2.778  -7.220 -0.30 -0.02    -0.021 A 
DOCKED: ATOM     23  C   UNL d   1      -7.537   3.541  -7.483 -0.33 +0.03    +0.066 A 
DOCKED: ATOM     24  C   UNL d   1      -9.253   0.826  -5.648 +0.42 +0.03    +0.051 C 
DOCKED: ATOM     25  N   UNL d   1      -5.004   4.917  -8.386 -0.26 -0.04    -0.248 N 
DOCKED: ATOM     26  N   UNL d   1      -2.539   4.092  -7.206 -0.23 -0.04    -0.248 N 
DOCKED: ATOM     27  N   UNL d   1      -4.007   2.270  -5.539 -0.23 -0.03    -0.248 N 
DOCKED: ATOM     28  N   UNL d   1      -6.495   3.105  -6.734 -0.23 -0.08    -0.248 N 
DOCKED: ATOM     29 FE   UNL d   1      -4.518   3.597  -6.969 -0.09 +0.00    +0.000 Fe
DOCKED: ENDROOT
DOCKED: BRANCH   6  30
DOCKED: ATOM     30  C   UNL d   1      -7.354   6.994 -10.310 -0.21 +0.01    +0.052 C 
DOCKED: BRANCH  30  31
DOCKED: ATOM     31  C   UNL d   1      -7.976   8.018  -9.365 -0.18 +0.02    +0.115 C 
DOCKED: BRANCH  31  32
DOCKED: ATOM     32  C   UNL d   1      -9.330   7.555  -8.906 -0.11 +0.04    +0.139 C 
DOCKED: ATOM     33  O   UNL d   1      -9.473   7.040  -7.805 -0.02 -0.37    -0.650 OA
DOCKED: BRANCH  32  34
DOCKED: ATOM     34  O   UNL d   1     -10.401   7.704  -9.704 +0.06 -0.22    -0.776 OA
DOCKED: ATOM     35  H   UNL d   1     -11.007   6.958  -9.820 +0.02 +0.06    +0.167 HD
DOCKED: ENDBRANCH  32  34
DOCKED: ENDBRANCH  31  32
DOCKED: ENDBRANCH  30  31
DOCKED: ENDBRANCH   6  30
DOCKED: BRANCH  22  36
DOCKED: ATOM     36  C   UNL d   1     -10.023   2.874  -7.896 +0.14 +0.07    +0.052 C 
DOCKED: BRANCH  36  37
DOCKED: ATOM     37  C   UNL d   1     -10.242   4.291  -8.404 -0.01 +0.15    +0.115 C 
DOCKED: BRANCH  37  38
DOCKED: ATOM     38  C   UNL d   1     -11.707   4.616  -8.479 +0.16 +0.19    +0.139 C 
DOCKED: ATOM     39  O   UNL d   1     -12.550   3.741  -8.342 -0.12 -0.92    -0.650 OA
DOCKED: BRANCH  38  40
DOCKED: ATOM     40  O   UNL d   1     -12.104   5.881  -8.704 +0.02 -0.61    -0.776 OA
DOCKED: ATOM     41  H   UNL d   1     -11.505   6.608  -8.482 +0.03 +0.12    +0.167 HD
DOCKED: ENDBRANCH  38  40
DOCKED: ENDBRANCH  37  38
DOCKED: ENDBRANCH  36  37
DOCKED: ENDBRANCH  22  36
DOCKED: BRANCH  12  42
DOCKED: ATOM     42  C   UNL d   1       1.140   3.560  -6.824 -0.65 +0.00    +0.004 C 
DOCKED: ATOM     43  C   UNL d   1       1.916   4.338  -6.058 -0.66 -0.00    +0.012 C 
DOCKED: ENDBRANCH  12  42
DOCKED: BRANCH  17  44
DOCKED: ATOM     44  C   UNL d   1      -4.701   0.026  -2.690 -0.48 -0.00    +0.004 C 
DOCKED: ATOM     45  C   UNL d   1      -4.340  -1.256  -2.579 -0.60 -0.00    +0.012 C 
DOCKED: ENDBRANCH  17  44
DOCKED: TORSDOF 10
DOCKED: TER
DOCKED: ENDMDL
________________________________________________________________________________


	BEGINNING GENETIC ALGORITHM DOCKING 82 of 100
Run: 82 Seed: 305177963 1926276098 [ Run 82 of 100 GA/GALS ]
Beginning LAMARCKIAN GENETIC ALGORITHM (LGA), with a maximum of 25000000 energy evaluations.

Final-Value: -9.632


	FINAL GENETIC ALGORITHM DOCKED STATE
	_______________________________________________


Detailed state:  trans 13.342 -4.062 4.987 quatxyzw -0.251219 0.738883 -0.326521 -0.533221 center -0.174 -0.001 -0.047 ntor 10 18.8987 -95.4128 97.6501 4.0446 -106.2187 85.8703 -65.3648 -35.2417 -160.0504 -6.7859
State:	 13.342  -4.062   4.987  -0.297  0.873 -0.386 -115.553     18.90  -95.41   97.65    4.04 -106.22   85.87  -65.36  -35.24 -160.05   -6.79

DOCKED: MODEL       82
DOCKED: USER    Run = 82
DOCKED: USER    DPF = D:/Protein_go_brrr/autodock/final/mut_K82N/heme_Fe/dock.dpf
DOCKED: USER  
DOCKED: USER    Estimated Free Energy of Binding    =   -4.61 kcal/mol  [=(1)+(2)+(3)-(4)]
DOCKED: USER    Estimated Inhibition Constant, Ki   =  419.11 uM (micromolar)  [Temperature = 298.15 K]
DOCKED: USER    
DOCKED: USER    (1) Final Intermolecular Energy     =   -7.59 kcal/mol
DOCKED: USER        vdW + Hbond + desolv Energy     =   -7.53 kcal/mol
DOCKED: USER        Electrostatic Energy            =   -0.06 kcal/mol
DOCKED: USER    (2) Final Total Internal Energy     =   -2.04 kcal/mol
DOCKED: USER    (3) Torsional Free Energy           =   +2.98 kcal/mol
DOCKED: USER    (4) Unbound System's Energy  [=(2)] =   -2.04 kcal/mol
DOCKED: USER    
DOCKED: USER    
DOCKED: USER    NEWDPF move heme_Fe_opt.pdbqt
DOCKED: USER    NEWDPF about -0.174000 -0.001000 -0.047000
DOCKED: USER    NEWDPF tran0 13.341639 -4.062371 4.986840
DOCKED: USER    NEWDPF quaternion0 -0.251219 0.738883 -0.326521 -0.533221
DOCKED: USER    NEWDPF axisangle0 -0.296958 0.873409 -0.385970 -115.553298
DOCKED: USER    NEWDPF quat0 -0.296958 0.873409 -0.385970 -115.553298
DOCKED: USER    NEWDPF dihe0 18.90 -95.41 97.65 4.04 -106.22 85.87 -65.36 -35.24 -160.05 -6.79 
DOCKED: USER  keepresnum = 1 
DOCKED: USER  
DOCKED: REMARK  10 active torsions:
DOCKED: REMARK  status: ('A' for Active; 'I' for Inactive)
DOCKED: REMARK    1  A    between atoms: C_6  and  C_10 
DOCKED: REMARK    2  A    between atoms: C_10  and  C_11 
DOCKED: REMARK    3  A    between atoms: C_11  and  C_12 
DOCKED: REMARK    4  A    between atoms: C_12  and  O_14 
DOCKED: REMARK    5  A    between atoms: C_17  and  C_20 
DOCKED: REMARK    6  A    between atoms: C_24  and  C_27 
DOCKED: REMARK    7  A    between atoms: C_31  and  C_34 
DOCKED: REMARK    8  A    between atoms: C_34  and  C_35 
DOCKED: REMARK    9  A    between atoms: C_35  and  C_36 
DOCKED: REMARK   10  A    between atoms: C_36  and  O_38 
DOCKED: USER                              x       y       z     vdW  Elec       q    Type
DOCKED: USER                           _______ _______ _______ _____ _____    ______ ____
DOCKED: ROOT
DOCKED: ATOM      1  C   UNL d   1      14.454  -2.790   6.151 -0.18 +0.01    +0.064 C 
DOCKED: ATOM      2  C   UNL d   1      13.231  -7.572   6.410 -0.08 +0.01    +0.064 A 
DOCKED: ATOM      3  C   UNL d   1      11.847  -7.396   1.814 -0.26 +0.00    +0.064 C 
DOCKED: ATOM      4  C   UNL d   1      12.925  -2.742   1.573 -0.20 -0.00    +0.064 C 
DOCKED: ATOM      5  C   UNL d   1      14.160  -4.131   6.675 -0.23 +0.01    +0.066 A 
DOCKED: ATOM      6  C   UNL d   1      14.325  -4.519   7.994 -0.28 -0.00    -0.021 A 
DOCKED: ATOM      7  C   UNL d   1      13.989  -5.848   8.065 -0.32 -0.00    -0.025 A 
DOCKED: ATOM      8  C   UNL d   1      13.631  -6.221   6.783 -0.26 +0.01    +0.066 A 
DOCKED: ATOM      9  C   UNL d   1      13.995  -6.696   9.299 -0.23 -0.00    +0.051 C 
DOCKED: ATOM     10  C   UNL d   1      12.827  -7.945   5.195 -0.25 +0.01    +0.066 A 
DOCKED: ATOM     11  C   UNL d   1      12.560  -9.270   4.839 -0.27 -0.00    -0.021 A 
DOCKED: ATOM     12  C   UNL d   1      12.175  -9.248   3.514 -0.26 +0.00    +0.000 A 
DOCKED: ATOM     13  C   UNL d   1      12.236  -7.899   3.123 -0.21 +0.00    +0.070 A 
DOCKED: ATOM     14  C   UNL d   1      12.730 -10.505   5.701 -0.25 +0.01    +0.052 C 
DOCKED: ATOM     15  C   UNL d   1      11.953  -6.106   1.417 -0.22 -0.00    +0.066 A 
DOCKED: ATOM     16  C   UNL d   1      11.478  -5.648   0.194 -0.23 +0.00    -0.021 A 
DOCKED: ATOM     17  C   UNL d   1      11.791  -4.307   0.121 -0.24 -0.00    +0.000 A 
DOCKED: ATOM     18  C   UNL d   1      12.454  -3.978   1.301 -0.14 -0.01    +0.070 A 
DOCKED: ATOM     19  C   UNL d   1      10.781  -6.444  -0.877 -0.14 +0.00    +0.052 C 
DOCKED: ATOM     20  C   UNL d   1      13.573  -2.344   2.829 -0.07 +0.00    +0.066 A 
DOCKED: ATOM     21  C   UNL d   1      14.241  -1.131   3.047 -0.11 -0.00    -0.025 A 
DOCKED: ATOM     22  C   UNL d   1      14.657  -1.161   4.362 -0.11 -0.00    -0.021 A 
DOCKED: ATOM     23  C   UNL d   1      14.235  -2.387   4.890 -0.15 +0.01    +0.066 A 
DOCKED: ATOM     24  C   UNL d   1      14.483   0.000   2.076 -0.08 +0.00    +0.051 C 
DOCKED: ATOM     25  N   UNL d   1      13.727  -5.172   5.942 -0.16 -0.03    -0.248 N 
DOCKED: ATOM     26  N   UNL d   1      12.641  -7.106   4.144 -0.13 -0.03    -0.248 N 
DOCKED: ATOM     27  N   UNL d   1      12.515  -5.073   2.117 -0.13 +0.00    -0.248 N 
DOCKED: ATOM     28  N   UNL d   1      13.613  -3.124   3.937 -0.05 -0.02    -0.248 N 
DOCKED: ATOM     29 FE   UNL d   1      13.127  -5.113   4.039 -0.06 +0.00    +0.000 Fe
DOCKED: ENDROOT
DOCKED: BRANCH   6  30
DOCKED: ATOM     30  C   UNL d   1      14.759  -3.666   9.137 -0.19 -0.00    +0.052 C 
DOCKED: BRANCH  30  31
DOCKED: ATOM     31  C   UNL d   1      16.235  -3.304   9.011 -0.11 -0.00    +0.115 C 
DOCKED: BRANCH  31  32
DOCKED: ATOM     32  C   UNL d   1      16.398  -1.824   8.804 -0.09 -0.00    +0.139 C 
DOCKED: ATOM     33  O   UNL d   1      16.706  -1.378   7.708 +0.00 -0.00    -0.650 OA
DOCKED: BRANCH  32  34
DOCKED: ATOM     34  O   UNL d   1      16.205  -0.975   9.828 -0.01 +0.04    -0.776 OA
DOCKED: ATOM     35  H   UNL d   1      16.040  -0.040   9.638 +0.01 -0.01    +0.167 HD
DOCKED: ENDBRANCH  32  34
DOCKED: ENDBRANCH  31  32
DOCKED: ENDBRANCH  30  31
DOCKED: ENDBRANCH   6  30
DOCKED: BRANCH  22  36
DOCKED: ATOM     36  C   UNL d   1      15.458  -0.091   5.056 -0.06 +0.00    +0.052 C 
DOCKED: BRANCH  36  37
DOCKED: ATOM     37  C   UNL d   1      14.519   0.918   5.699 -0.09 +0.01    +0.115 C 
DOCKED: BRANCH  37  38
DOCKED: ATOM     38  C   UNL d   1      15.074   1.415   7.004 -0.06 +0.01    +0.139 C 
DOCKED: ATOM     39  O   UNL d   1      15.856   2.354   7.034 +0.02 -0.00    -0.650 OA
DOCKED: BRANCH  38  40
DOCKED: ATOM     40  O   UNL d   1      14.713   0.822   8.156 -0.55 -0.10    -0.776 OA
DOCKED: ATOM     41  H   UNL d   1      15.185   0.028   8.444 +0.01 +0.02    +0.167 HD
DOCKED: ENDBRANCH  38  40
DOCKED: ENDBRANCH  37  38
DOCKED: ENDBRANCH  36  37
DOCKED: ENDBRANCH  22  36
DOCKED: BRANCH  12  42
DOCKED: ATOM     42  C   UNL d   1      11.804 -10.454   2.710 -0.22 +0.00    +0.004 C 
DOCKED: ATOM     43  C   UNL d   1      10.854 -10.388   1.768 -0.23 +0.00    +0.012 C 
DOCKED: ENDBRANCH  12  42
DOCKED: BRANCH  17  44
DOCKED: ATOM     44  C   UNL d   1      11.460  -3.394  -0.997 -0.33 +0.00    +0.004 C 
DOCKED: ATOM     45  C   UNL d   1      10.191  -3.213  -1.379 -0.35 +0.00    +0.012 C 
DOCKED: ENDBRANCH  17  44
DOCKED: TORSDOF 10
DOCKED: TER
DOCKED: ENDMDL
________________________________________________________________________________


	BEGINNING GENETIC ALGORITHM DOCKING 83 of 100
Run: 83 Seed: 1230358643 802546497 [ Run 83 of 100 GA/GALS ]
Beginning LAMARCKIAN GENETIC ALGORITHM (LGA), with a maximum of 25000000 energy evaluations.

Final-Value: -10.886


	FINAL GENETIC ALGORITHM DOCKED STATE
	_______________________________________________


Detailed state:  trans -8.761 11.473 -10.951 quatxyzw -0.737428 -0.328364 0.506978 0.302241 center -0.174 -0.001 -0.047 ntor 10 -35.2595 -155.0777 70.4992 -161.1019 93.2025 -115.4845 162.7816 -15.7626 10.1288 158.3892
State:	 -8.761  11.473 -10.951  -0.774 -0.344  0.532 144.815    -35.26 -155.08   70.50 -161.10   93.20 -115.48  162.78  -15.76   10.13  158.39

DOCKED: MODEL       83
DOCKED: USER    Run = 83
DOCKED: USER    DPF = D:/Protein_go_brrr/autodock/final/mut_K82N/heme_Fe/dock.dpf
DOCKED: USER  
DOCKED: USER    Estimated Free Energy of Binding    =   -7.29 kcal/mol  [=(1)+(2)+(3)-(4)]
DOCKED: USER    Estimated Inhibition Constant, Ki   =    4.50 uM (micromolar)  [Temperature = 298.15 K]
DOCKED: USER    
DOCKED: USER    (1) Final Intermolecular Energy     =  -10.28 kcal/mol
DOCKED: USER        vdW + Hbond + desolv Energy     =   -7.32 kcal/mol
DOCKED: USER        Electrostatic Energy            =   -2.96 kcal/mol
DOCKED: USER    (2) Final Total Internal Energy     =   -0.61 kcal/mol
DOCKED: USER    (3) Torsional Free Energy           =   +2.98 kcal/mol
DOCKED: USER    (4) Unbound System's Energy  [=(2)] =   -0.61 kcal/mol
DOCKED: USER    
DOCKED: USER    
DOCKED: USER    NEWDPF move heme_Fe_opt.pdbqt
DOCKED: USER    NEWDPF about -0.174000 -0.001000 -0.047000
DOCKED: USER    NEWDPF tran0 -8.760759 11.473384 -10.950999
DOCKED: USER    NEWDPF quaternion0 -0.737428 -0.328364 0.506978 0.302241
DOCKED: USER    NEWDPF axisangle0 -0.773609 -0.344475 0.531852 144.815443
DOCKED: USER    NEWDPF quat0 -0.773609 -0.344475 0.531852 144.815443
DOCKED: USER    NEWDPF dihe0 -35.26 -155.08 70.50 -161.10 93.20 -115.48 162.78 -15.76 10.13 158.39 
DOCKED: USER  keepresnum = 1 
DOCKED: USER  
DOCKED: REMARK  10 active torsions:
DOCKED: REMARK  status: ('A' for Active; 'I' for Inactive)
DOCKED: REMARK    1  A    between atoms: C_6  and  C_10 
DOCKED: REMARK    2  A    between atoms: C_10  and  C_11 
DOCKED: REMARK    3  A    between atoms: C_11  and  C_12 
DOCKED: REMARK    4  A    between atoms: C_12  and  O_14 
DOCKED: REMARK    5  A    between atoms: C_17  and  C_20 
DOCKED: REMARK    6  A    between atoms: C_24  and  C_27 
DOCKED: REMARK    7  A    between atoms: C_31  and  C_34 
DOCKED: REMARK    8  A    between atoms: C_34  and  C_35 
DOCKED: REMARK    9  A    between atoms: C_35  and  C_36 
DOCKED: REMARK   10  A    between atoms: C_36  and  O_38 
DOCKED: USER                              x       y       z     vdW  Elec       q    Type
DOCKED: USER                           _______ _______ _______ _____ _____    ______ ____
DOCKED: ROOT
DOCKED: ATOM      1  C   UNL d   1      -9.635  10.742  -9.245 -0.18 +0.02    +0.064 C 
DOCKED: ATOM      2  C   UNL d   1     -11.171  13.543 -13.016 -0.05 +0.01    +0.064 A 
DOCKED: ATOM      3  C   UNL d   1      -7.277  12.217 -15.496 -0.06 -0.01    +0.064 C 
DOCKED: ATOM      4  C   UNL d   1      -5.720   9.583 -11.819 -0.20 -0.01    +0.064 C 
DOCKED: ATOM      5  C   UNL d   1     -10.386  11.720 -10.045 -0.07 +0.02    +0.066 A 
DOCKED: ATOM      6  C   UNL d   1     -11.509  12.403  -9.608 -0.10 -0.01    -0.021 A 
DOCKED: ATOM      7  C   UNL d   1     -11.937  13.178 -10.658 -0.07 -0.01    -0.025 A 
DOCKED: ATOM      8  C   UNL d   1     -11.057  12.938 -11.695 -0.07 +0.02    +0.066 A 
DOCKED: ATOM      9  C   UNL d   1     -13.112  14.107 -10.647 -0.03 +0.01    +0.051 C 
DOCKED: ATOM     10  C   UNL d   1     -10.304  13.373 -14.016 -0.05 +0.01    +0.066 A 
DOCKED: ATOM     11  C   UNL d   1     -10.500  13.874 -15.305 -0.02 -0.00    -0.021 A 
DOCKED: ATOM     12  C   UNL d   1      -9.399  13.491 -16.045 -0.02 -0.00    +0.000 A 
DOCKED: ATOM     13  C   UNL d   1      -8.584  12.761 -15.162 -0.04 -0.00    +0.070 A 
DOCKED: ATOM     14  C   UNL d   1     -11.710  14.623 -15.826 -0.01 +0.00    +0.052 C 
DOCKED: ATOM     15  C   UNL d   1      -6.513  11.469 -14.666 -0.09 -0.01    +0.066 A 
DOCKED: ATOM     16  C   UNL d   1      -5.228  11.052 -14.988 -0.14 +0.01    -0.021 A 
DOCKED: ATOM     17  C   UNL d   1      -4.778  10.289 -13.930 -0.26 -0.00    +0.000 A 
DOCKED: ATOM     18  C   UNL d   1      -5.803  10.256 -12.987 -0.21 -0.01    +0.070 A 
DOCKED: ATOM     19  C   UNL d   1      -4.460  11.336 -16.251 -0.13 -0.02    +0.052 C 
DOCKED: ATOM     20  C   UNL d   1      -6.753   9.576 -10.776 -0.25 -0.00    +0.066 A 
DOCKED: ATOM     21  C   UNL d   1      -6.769   8.730  -9.658 -0.29 -0.00    -0.025 A 
DOCKED: ATOM     22  C   UNL d   1      -7.887   9.087  -8.932 -0.25 -0.00    -0.021 A 
DOCKED: ATOM     23  C   UNL d   1      -8.509  10.125  -9.635 -0.18 +0.01    +0.066 A 
DOCKED: ATOM     24  C   UNL d   1      -5.792   7.640  -9.286 -0.41 -0.00    +0.051 C 
DOCKED: ATOM     25  N   UNL d   1     -10.110  12.057 -11.316 -0.01 -0.09    -0.248 N 
DOCKED: ATOM     26  N   UNL d   1      -9.139  12.681 -13.928 -0.05 -0.02    -0.248 N 
DOCKED: ATOM     27  N   UNL d   1      -6.853  11.017 -13.419 -0.09 +0.02    -0.248 N 
DOCKED: ATOM     28  N   UNL d   1      -7.837  10.389 -10.782 -0.12 -0.03    -0.248 N 
DOCKED: ATOM     29 FE   UNL d   1      -8.487  11.534 -12.355 -0.04 +0.00    +0.000 Fe
DOCKED: ENDROOT
DOCKED: BRANCH   6  30
DOCKED: ATOM     30  C   UNL d   1     -12.133  12.342  -8.256 -0.08 +0.02    +0.052 C 
DOCKED: BRANCH  30  31
DOCKED: ATOM     31  C   UNL d   1     -11.707  13.536  -7.409 -0.18 +0.06    +0.115 C 
DOCKED: BRANCH  31  32
DOCKED: ATOM     32  C   UNL d   1     -10.489  14.191  -7.998 -0.27 +0.12    +0.139 C 
DOCKED: ATOM     33  O   UNL d   1     -10.600  15.128  -8.776 -0.50 -0.92    -0.650 OA
DOCKED: BRANCH  32  34
DOCKED: ATOM     34  O   UNL d   1      -9.262  13.749  -7.674 -0.11 -0.44    -0.776 OA
DOCKED: ATOM     35  H   UNL d   1      -8.566  13.762  -8.346 -0.45 +0.04    +0.167 HD
DOCKED: ENDBRANCH  32  34
DOCKED: ENDBRANCH  31  32
DOCKED: ENDBRANCH  30  31
DOCKED: ENDBRANCH   6  30
DOCKED: BRANCH  22  36
DOCKED: ATOM     36  C   UNL d   1      -8.355   8.431  -7.659 -0.24 +0.01    +0.052 C 
DOCKED: BRANCH  36  37
DOCKED: ATOM     37  C   UNL d   1      -9.555   7.543  -7.951 -0.15 +0.05    +0.115 C 
DOCKED: BRANCH  37  38
DOCKED: ATOM     38  C   UNL d   1      -9.799   6.579  -6.825 -0.15 +0.14    +0.139 C 
DOCKED: ATOM     39  O   UNL d   1      -9.686   5.374  -6.997 -0.41 -1.23    -0.650 OA
DOCKED: BRANCH  38  40
DOCKED: ATOM     40  O   UNL d   1     -10.149   7.040  -5.611 -0.45 -0.80    -0.776 OA
DOCKED: ATOM     41  H   UNL d   1     -10.583   7.902  -5.542 +0.05 +0.11    +0.167 HD
DOCKED: ENDBRANCH  38  40
DOCKED: ENDBRANCH  37  38
DOCKED: ENDBRANCH  36  37
DOCKED: ENDBRANCH  22  36
DOCKED: BRANCH  12  42
DOCKED: ATOM     42  C   UNL d   1      -9.188  13.803 -17.492 -0.01 -0.00    +0.004 C 
DOCKED: ATOM     43  C   UNL d   1      -8.145  14.541 -17.893 -0.01 -0.00    +0.012 C 
DOCKED: ENDBRANCH  12  42
DOCKED: BRANCH  17  44
DOCKED: ATOM     44  C   UNL d   1      -3.446   9.651 -13.820 -0.35 -0.00    +0.004 C 
DOCKED: ATOM     45  C   UNL d   1      -3.309   8.327 -13.947 -0.51 -0.00    +0.012 C 
DOCKED: ENDBRANCH  17  44
DOCKED: TORSDOF 10
DOCKED: TER
DOCKED: ENDMDL
________________________________________________________________________________


	BEGINNING GENETIC ALGORITHM DOCKING 84 of 100
Run: 84 Seed: 2103302742 840702398 [ Run 84 of 100 GA/GALS ]
Beginning LAMARCKIAN GENETIC ALGORITHM (LGA), with a maximum of 25000000 energy evaluations.

Final-Value: -10.559


	FINAL GENETIC ALGORITHM DOCKED STATE
	_______________________________________________


Detailed state:  trans 11.058 3.732 13.721 quatxyzw -0.117493 0.579887 0.187523 -0.784067 center -0.174 -0.001 -0.047 ntor 10 68.5314 58.2951 52.8282 4.3953 -157.0722 6.1691 -48.8624 52.6028 158.5496 140.9995
State:	 11.058   3.732  13.721  -0.189  0.934  0.302 -76.731     68.53   58.30   52.83    4.40 -157.07    6.17  -48.86   52.60  158.55  141.00

DOCKED: MODEL       84
DOCKED: USER    Run = 84
DOCKED: USER    DPF = D:/Protein_go_brrr/autodock/final/mut_K82N/heme_Fe/dock.dpf
DOCKED: USER  
DOCKED: USER    Estimated Free Energy of Binding    =   -5.05 kcal/mol  [=(1)+(2)+(3)-(4)]
DOCKED: USER    Estimated Inhibition Constant, Ki   =  197.39 uM (micromolar)  [Temperature = 298.15 K]
DOCKED: USER    
DOCKED: USER    (1) Final Intermolecular Energy     =   -8.04 kcal/mol
DOCKED: USER        vdW + Hbond + desolv Energy     =   -7.56 kcal/mol
DOCKED: USER        Electrostatic Energy            =   -0.48 kcal/mol
DOCKED: USER    (2) Final Total Internal Energy     =   -2.52 kcal/mol
DOCKED: USER    (3) Torsional Free Energy           =   +2.98 kcal/mol
DOCKED: USER    (4) Unbound System's Energy  [=(2)] =   -2.52 kcal/mol
DOCKED: USER    
DOCKED: USER    
DOCKED: USER    NEWDPF move heme_Fe_opt.pdbqt
DOCKED: USER    NEWDPF about -0.174000 -0.001000 -0.047000
DOCKED: USER    NEWDPF tran0 11.057812 3.731870 13.720723
DOCKED: USER    NEWDPF quaternion0 -0.117493 0.579887 0.187523 -0.784067
DOCKED: USER    NEWDPF axisangle0 -0.189299 0.934283 0.302128 -76.731058
DOCKED: USER    NEWDPF quat0 -0.189299 0.934283 0.302128 -76.731058
DOCKED: USER    NEWDPF dihe0 68.53 58.30 52.83 4.40 -157.07 6.17 -48.86 52.60 158.55 141.00 
DOCKED: USER  keepresnum = 1 
DOCKED: USER  
DOCKED: REMARK  10 active torsions:
DOCKED: REMARK  status: ('A' for Active; 'I' for Inactive)
DOCKED: REMARK    1  A    between atoms: C_6  and  C_10 
DOCKED: REMARK    2  A    between atoms: C_10  and  C_11 
DOCKED: REMARK    3  A    between atoms: C_11  and  C_12 
DOCKED: REMARK    4  A    between atoms: C_12  and  O_14 
DOCKED: REMARK    5  A    between atoms: C_17  and  C_20 
DOCKED: REMARK    6  A    between atoms: C_24  and  C_27 
DOCKED: REMARK    7  A    between atoms: C_31  and  C_34 
DOCKED: REMARK    8  A    between atoms: C_34  and  C_35 
DOCKED: REMARK    9  A    between atoms: C_35  and  C_36 
DOCKED: REMARK   10  A    between atoms: C_36  and  O_38 
DOCKED: USER                              x       y       z     vdW  Elec       q    Type
DOCKED: USER                           _______ _______ _______ _____ _____    ______ ____
DOCKED: ROOT
DOCKED: ATOM      1  C   UNL d   1      11.034   3.580  15.767 -0.27 -0.01    +0.064 C 
DOCKED: ATOM      2  C   UNL d   1      13.236   1.079  12.116 -0.17 -0.01    +0.064 A 
DOCKED: ATOM      3  C   UNL d   1      12.196   4.681   9.115 -0.19 -0.00    +0.064 C 
DOCKED: ATOM      4  C   UNL d   1       9.968   7.071  12.609 -0.26 +0.00    +0.064 C 
DOCKED: ATOM      5  C   UNL d   1      11.677   2.505  14.999 -0.24 -0.01    +0.066 A 
DOCKED: ATOM      6  C   UNL d   1      12.020   1.264  15.510 -0.28 +0.00    -0.021 A 
DOCKED: ATOM      7  C   UNL d   1      12.635   0.571  14.497 -0.25 +0.01    -0.025 A 
DOCKED: ATOM      8  C   UNL d   1      12.643   1.417  13.404 -0.18 -0.01    +0.066 A 
DOCKED: ATOM      9  C   UNL d   1      13.163  -0.828  14.578 -0.37 -0.01    +0.051 C 
DOCKED: ATOM     10  C   UNL d   1      13.207   1.853  11.030 -0.16 -0.01    +0.066 A 
DOCKED: ATOM     11  C   UNL d   1      13.882   1.552   9.845 -0.13 +0.00    -0.021 A 
DOCKED: ATOM     12  C   UNL d   1      13.612   2.584   8.969 -0.13 -0.00    +0.000 A 
DOCKED: ATOM     13  C   UNL d   1      12.784   3.474   9.674 -0.13 -0.00    +0.070 A 
DOCKED: ATOM     14  C   UNL d   1      14.797   0.372   9.583 +0.00 -0.00    +0.052 C 
DOCKED: ATOM     15  C   UNL d   1      11.441   5.568   9.805 -0.20 -0.00    +0.066 A 
DOCKED: ATOM     16  C   UNL d   1      10.815   6.656   9.210 -0.23 -0.00    -0.021 A 
DOCKED: ATOM     17  C   UNL d   1      10.175   7.349  10.216 -0.29 +0.00    +0.000 A 
DOCKED: ATOM     18  C   UNL d   1      10.429   6.668  11.404 -0.26 -0.00    +0.070 A 
DOCKED: ATOM     19  C   UNL d   1      10.837   7.046   7.756 -0.11 +0.01    +0.052 C 
DOCKED: ATOM     20  C   UNL d   1      10.164   6.347  13.871 -0.25 -0.01    +0.066 A 
DOCKED: ATOM     21  C   UNL d   1       9.868   6.849  15.146 -0.28 +0.00    -0.025 A 
DOCKED: ATOM     22  C   UNL d   1      10.167   5.833  16.030 -0.24 +0.00    -0.021 A 
DOCKED: ATOM     23  C   UNL d   1      10.638   4.759  15.264 -0.23 -0.01    +0.066 A 
DOCKED: ATOM     24  C   UNL d   1       9.336   8.212  15.524 -0.24 -0.00    +0.051 C 
DOCKED: ATOM     25  N   UNL d   1      12.051   2.589  13.710 -0.10 +0.03    -0.248 N 
DOCKED: ATOM     26  N   UNL d   1      12.544   3.034  10.934 -0.08 +0.01    -0.248 N 
DOCKED: ATOM     27  N   UNL d   1      11.171   5.549  11.147 -0.14 +0.01    -0.248 N 
DOCKED: ATOM     28  N   UNL d   1      10.675   5.095  13.951 -0.17 +0.03    -0.248 N 
DOCKED: ATOM     29 FE   UNL d   1      11.609   4.066  12.443 -0.05 -0.00    +0.000 Fe
DOCKED: ENDROOT
DOCKED: BRANCH   6  30
DOCKED: ATOM     30  C   UNL d   1      11.760   0.752  16.885 -0.36 -0.01    +0.052 C 
DOCKED: BRANCH  30  31
DOCKED: ATOM     31  C   UNL d   1      13.064   0.586  17.657 -0.20 -0.00    +0.115 C 
DOCKED: BRANCH  31  32
DOCKED: ATOM     32  C   UNL d   1      12.957   1.222  19.015 -0.19 +0.01    +0.139 C 
DOCKED: ATOM     33  O   UNL d   1      13.960   1.572  19.620 +0.02 -0.09    -0.650 OA
DOCKED: BRANCH  32  34
DOCKED: ATOM     34  O   UNL d   1      11.752   1.411  19.578 +0.15 -0.16    -0.776 OA
DOCKED: ATOM     35  H   UNL d   1      11.421   2.313  19.687 +0.04 +0.04    +0.167 HD
DOCKED: ENDBRANCH  32  34
DOCKED: ENDBRANCH  31  32
DOCKED: ENDBRANCH  30  31
DOCKED: ENDBRANCH   6  30
DOCKED: BRANCH  22  36
DOCKED: ATOM     36  C   UNL d   1      10.054   5.909  17.530 -0.15 +0.00    +0.052 C 
DOCKED: BRANCH  36  37
DOCKED: ATOM     37  C   UNL d   1      11.407   5.619  18.163 -0.11 +0.01    +0.115 C 
DOCKED: BRANCH  37  38
DOCKED: ATOM     38  C   UNL d   1      11.292   4.550  19.211 -0.19 +0.03    +0.139 C 
DOCKED: ATOM     39  O   UNL d   1      10.240   3.954  19.385 +0.07 -0.19    -0.650 OA
DOCKED: BRANCH  38  40
DOCKED: ATOM     40  O   UNL d   1      12.357   4.241  19.974 -0.00 -0.20    -0.776 OA
DOCKED: ATOM     41  H   UNL d   1      12.687   3.332  19.974 +0.03 +0.04    +0.167 HD
DOCKED: ENDBRANCH  38  40
DOCKED: ENDBRANCH  37  38
DOCKED: ENDBRANCH  36  37
DOCKED: ENDBRANCH  22  36
DOCKED: BRANCH  12  42
DOCKED: ATOM     42  C   UNL d   1      14.142   2.683   7.574 -0.11 +0.00    +0.004 C 
DOCKED: ATOM     43  C   UNL d   1      13.381   2.352   6.522 -0.17 +0.00    +0.012 C 
DOCKED: ENDBRANCH  12  42
DOCKED: BRANCH  17  44
DOCKED: ATOM     44  C   UNL d   1       9.356   8.570  10.048 -0.36 +0.00    +0.004 C 
DOCKED: ATOM     45  C   UNL d   1       8.285   8.573   9.247 -0.41 +0.00    +0.012 C 
DOCKED: ENDBRANCH  17  44
DOCKED: TORSDOF 10
DOCKED: TER
DOCKED: ENDMDL
________________________________________________________________________________


	BEGINNING GENETIC ALGORITHM DOCKING 85 of 100
Run: 85 Seed: 165179944 997369130 [ Run 85 of 100 GA/GALS ]
Beginning LAMARCKIAN GENETIC ALGORITHM (LGA), with a maximum of 25000000 energy evaluations.

Final-Value: -11.061


	FINAL GENETIC ALGORITHM DOCKED STATE
	_______________________________________________


Detailed state:  trans 4.808 5.554 19.046 quatxyzw -0.117431 0.289464 0.931176 -0.187970 center -0.174 -0.001 -0.047 ntor 10 -97.0310 113.7707 108.1134 55.3599 -12.9737 -101.6054 -65.7422 42.4810 -139.5990 -164.4124
State:	  4.808   5.554  19.046  -0.120  0.295  0.948 -158.331    -97.03  113.77  108.11   55.36  -12.97 -101.61  -65.74   42.48 -139.60 -164.41

DOCKED: MODEL       85
DOCKED: USER    Run = 85
DOCKED: USER    DPF = D:/Protein_go_brrr/autodock/final/mut_K82N/heme_Fe/dock.dpf
DOCKED: USER  
DOCKED: USER    Estimated Free Energy of Binding    =   -6.45 kcal/mol  [=(1)+(2)+(3)-(4)]
DOCKED: USER    Estimated Inhibition Constant, Ki   =   18.65 uM (micromolar)  [Temperature = 298.15 K]
DOCKED: USER    
DOCKED: USER    (1) Final Intermolecular Energy     =   -9.43 kcal/mol
DOCKED: USER        vdW + Hbond + desolv Energy     =   -7.80 kcal/mol
DOCKED: USER        Electrostatic Energy            =   -1.63 kcal/mol
DOCKED: USER    (2) Final Total Internal Energy     =   -1.63 kcal/mol
DOCKED: USER    (3) Torsional Free Energy           =   +2.98 kcal/mol
DOCKED: USER    (4) Unbound System's Energy  [=(2)] =   -1.63 kcal/mol
DOCKED: USER    
DOCKED: USER    
DOCKED: USER    NEWDPF move heme_Fe_opt.pdbqt
DOCKED: USER    NEWDPF about -0.174000 -0.001000 -0.047000
DOCKED: USER    NEWDPF tran0 4.808397 5.554152 19.046313
DOCKED: USER    NEWDPF quaternion0 -0.117431 0.289464 0.931176 -0.187970
DOCKED: USER    NEWDPF axisangle0 -0.119562 0.294717 0.948075 -158.331353
DOCKED: USER    NEWDPF quat0 -0.119562 0.294717 0.948075 -158.331353
DOCKED: USER    NEWDPF dihe0 -97.03 113.77 108.11 55.36 -12.97 -101.61 -65.74 42.48 -139.60 -164.41 
DOCKED: USER  keepresnum = 1 
DOCKED: USER  
DOCKED: REMARK  10 active torsions:
DOCKED: REMARK  status: ('A' for Active; 'I' for Inactive)
DOCKED: REMARK    1  A    between atoms: C_6  and  C_10 
DOCKED: REMARK    2  A    between atoms: C_10  and  C_11 
DOCKED: REMARK    3  A    between atoms: C_11  and  C_12 
DOCKED: REMARK    4  A    between atoms: C_12  and  O_14 
DOCKED: REMARK    5  A    between atoms: C_17  and  C_20 
DOCKED: REMARK    6  A    between atoms: C_24  and  C_27 
DOCKED: REMARK    7  A    between atoms: C_31  and  C_34 
DOCKED: REMARK    8  A    between atoms: C_34  and  C_35 
DOCKED: REMARK    9  A    between atoms: C_35  and  C_36 
DOCKED: REMARK   10  A    between atoms: C_36  and  O_38 
DOCKED: USER                              x       y       z     vdW  Elec       q    Type
DOCKED: USER                           _______ _______ _______ _____ _____    ______ ____
DOCKED: ROOT
DOCKED: ATOM      1  C   UNL d   1       6.561   5.351  20.094 -0.26 +0.00    +0.064 C 
DOCKED: ATOM      2  C   UNL d   1       4.679   8.800  17.096 -0.23 -0.03    +0.064 A 
DOCKED: ATOM      3  C   UNL d   1       0.362   6.747  17.556 -0.20 -0.03    +0.064 C 
DOCKED: ATOM      4  C   UNL d   1       2.183   3.337  20.375 -0.25 -0.04    +0.064 C 
DOCKED: ATOM      5  C   UNL d   1       6.448   6.463  19.141 -0.21 -0.01    +0.066 A 
DOCKED: ATOM      6  C   UNL d   1       7.512   7.219  18.678 -0.16 +0.00    -0.021 A 
DOCKED: ATOM      7  C   UNL d   1       6.988   8.180  17.849 -0.17 +0.01    -0.025 A 
DOCKED: ATOM      8  C   UNL d   1       5.623   7.972  17.837 -0.17 -0.02    +0.066 A 
DOCKED: ATOM      9  C   UNL d   1       7.765   9.219  17.101 -0.19 -0.01    +0.051 C 
DOCKED: ATOM     10  C   UNL d   1       3.364   8.587  17.021 -0.24 -0.03    +0.066 A 
DOCKED: ATOM     11  C   UNL d   1       2.471   9.463  16.399 -0.22 +0.01    -0.021 A 
DOCKED: ATOM     12  C   UNL d   1       1.217   8.902  16.533 -0.22 -0.00    +0.000 A 
DOCKED: ATOM     13  C   UNL d   1       1.411   7.705  17.244 -0.19 -0.03    +0.070 A 
DOCKED: ATOM     14  C   UNL d   1       2.788  10.804  15.768 -0.18 -0.02    +0.052 C 
DOCKED: ATOM     15  C   UNL d   1       0.534   5.619  18.285 -0.15 -0.03    +0.066 A 
DOCKED: ATOM     16  C   UNL d   1      -0.471   4.679  18.478 -0.18 +0.01    -0.021 A 
DOCKED: ATOM     17  C   UNL d   1       0.051   3.697  19.293 -0.21 -0.00    +0.000 A 
DOCKED: ATOM     18  C   UNL d   1       1.363   4.063  19.583 -0.21 -0.03    +0.070 A 
DOCKED: ATOM     19  C   UNL d   1      -1.875   4.713  17.938 -0.17 -0.01    +0.052 C 
DOCKED: ATOM     20  C   UNL d   1       3.588   3.659  20.653 -0.24 -0.03    +0.066 A 
DOCKED: ATOM     21  C   UNL d   1       4.385   3.034  21.622 -0.24 +0.01    -0.025 A 
DOCKED: ATOM     22  C   UNL d   1       5.633   3.615  21.516 -0.28 +0.00    -0.021 A 
DOCKED: ATOM     23  C   UNL d   1       5.545   4.570  20.496 -0.26 -0.01    +0.066 A 
DOCKED: ATOM     24  C   UNL d   1       4.003   1.951  22.603 -0.16 -0.03    +0.051 C 
DOCKED: ATOM     25  N   UNL d   1       5.298   6.921  18.616 -0.17 +0.08    -0.248 N 
DOCKED: ATOM     26  N   UNL d   1       2.718   7.517  17.550 -0.07 +0.12    -0.248 N 
DOCKED: ATOM     27  N   UNL d   1       1.675   5.222  18.929 -0.05 +0.13    -0.248 N 
DOCKED: ATOM     28  N   UNL d   1       4.284   4.624  20.004 -0.19 +0.08    -0.248 N 
DOCKED: ATOM     29 FE   UNL d   1       3.500   6.069  18.778 -0.06 -0.00    +0.000 Fe
DOCKED: ENDROOT
DOCKED: BRANCH   6  30
DOCKED: ATOM     30  C   UNL d   1       8.957   7.028  18.990 -0.12 +0.00    +0.052 C 
DOCKED: BRANCH  30  31
DOCKED: ATOM     31  C   UNL d   1       9.175   6.916  20.495 -0.08 +0.02    +0.115 C 
DOCKED: BRANCH  31  32
DOCKED: ATOM     32  C   UNL d   1       9.667   5.541  20.854 -0.18 +0.05    +0.139 C 
DOCKED: ATOM     33  O   UNL d   1       9.615   4.629  20.042 -0.11 -0.23    -0.650 OA
DOCKED: BRANCH  32  34
DOCKED: ATOM     34  O   UNL d   1      10.169   5.302  22.078 +0.04 -0.50    -0.776 OA
DOCKED: ATOM     35  H   UNL d   1       9.561   5.115  22.807 +0.02 +0.14    +0.167 HD
DOCKED: ENDBRANCH  32  34
DOCKED: ENDBRANCH  31  32
DOCKED: ENDBRANCH  30  31
DOCKED: ENDBRANCH   6  30
DOCKED: BRANCH  22  36
DOCKED: ATOM     36  C   UNL d   1       6.825   3.302  22.380 -0.26 +0.01    +0.052 C 
DOCKED: BRANCH  36  37
DOCKED: ATOM     37  C   UNL d   1       6.563   3.768  23.805 -0.13 +0.03    +0.115 C 
DOCKED: BRANCH  37  38
DOCKED: ATOM     38  C   UNL d   1       7.784   4.418  24.392 -0.11 +0.09    +0.139 C 
DOCKED: ATOM     39  O   UNL d   1       8.501   3.812  25.174 -0.29 -0.98    -0.650 OA
DOCKED: BRANCH  38  40
DOCKED: ATOM     40  O   UNL d   1       8.095   5.684  24.060 -0.01 -0.39    -0.776 OA
DOCKED: ATOM     41  H   UNL d   1       8.357   5.881  23.150 +0.02 +0.07    +0.167 HD
DOCKED: ENDBRANCH  38  40
DOCKED: ENDBRANCH  37  38
DOCKED: ENDBRANCH  36  37
DOCKED: ENDBRANCH  22  36
DOCKED: BRANCH  12  42
DOCKED: ATOM     42  C   UNL d   1      -0.051   9.508  16.020 -0.21 -0.00    +0.004 C 
DOCKED: ATOM     43  C   UNL d   1      -1.119   8.746  15.753 -0.22 -0.01    +0.012 C 
DOCKED: ENDBRANCH  12  42
DOCKED: BRANCH  17  44
DOCKED: ATOM     44  C   UNL d   1      -0.653   2.477  19.748 -0.26 -0.00    +0.004 C 
DOCKED: ATOM     45  C   UNL d   1      -0.312   1.273  19.276 -0.36 -0.01    +0.012 C 
DOCKED: ENDBRANCH  17  44
DOCKED: TORSDOF 10
DOCKED: TER
DOCKED: ENDMDL
________________________________________________________________________________


	BEGINNING GENETIC ALGORITHM DOCKING 86 of 100
Run: 86 Seed: 1562341636 1276800956 [ Run 86 of 100 GA/GALS ]
Beginning LAMARCKIAN GENETIC ALGORITHM (LGA), with a maximum of 25000000 energy evaluations.

Final-Value: -10.127


	FINAL GENETIC ALGORITHM DOCKED STATE
	_______________________________________________


Detailed state:  trans 11.849 2.627 18.288 quatxyzw 0.009965 -0.745820 -0.101919 0.658230 center -0.174 -0.001 -0.047 ntor 10 154.0656 77.2406 -173.2272 45.6836 44.5577 -77.3392 -50.5205 12.8744 -136.0595 180.0000
State:	 11.849   2.627  18.288   0.013 -0.991 -0.135 97.670    154.07   77.24 -173.23   45.68   44.56  -77.34  -50.52   12.87 -136.06  180.00

DOCKED: MODEL       86
DOCKED: USER    Run = 86
DOCKED: USER    DPF = D:/Protein_go_brrr/autodock/final/mut_K82N/heme_Fe/dock.dpf
DOCKED: USER  
DOCKED: USER    Estimated Free Energy of Binding    =   -5.53 kcal/mol  [=(1)+(2)+(3)-(4)]
DOCKED: USER    Estimated Inhibition Constant, Ki   =   88.05 uM (micromolar)  [Temperature = 298.15 K]
DOCKED: USER    
DOCKED: USER    (1) Final Intermolecular Energy     =   -8.52 kcal/mol
DOCKED: USER        vdW + Hbond + desolv Energy     =   -7.40 kcal/mol
DOCKED: USER        Electrostatic Energy            =   -1.12 kcal/mol
DOCKED: USER    (2) Final Total Internal Energy     =   -1.61 kcal/mol
DOCKED: USER    (3) Torsional Free Energy           =   +2.98 kcal/mol
DOCKED: USER    (4) Unbound System's Energy  [=(2)] =   -1.61 kcal/mol
DOCKED: USER    
DOCKED: USER    
DOCKED: USER    NEWDPF move heme_Fe_opt.pdbqt
DOCKED: USER    NEWDPF about -0.174000 -0.001000 -0.047000
DOCKED: USER    NEWDPF tran0 11.848894 2.626660 18.288113
DOCKED: USER    NEWDPF quaternion0 0.009965 -0.745820 -0.101919 0.658230
DOCKED: USER    NEWDPF axisangle0 0.013236 -0.990705 -0.135383 97.669996
DOCKED: USER    NEWDPF quat0 0.013236 -0.990705 -0.135383 97.669996
DOCKED: USER    NEWDPF dihe0 154.07 77.24 -173.23 45.68 44.56 -77.34 -50.52 12.87 -136.06 180.00 
DOCKED: USER  keepresnum = 1 
DOCKED: USER  
DOCKED: REMARK  10 active torsions:
DOCKED: REMARK  status: ('A' for Active; 'I' for Inactive)
DOCKED: REMARK    1  A    between atoms: C_6  and  C_10 
DOCKED: REMARK    2  A    between atoms: C_10  and  C_11 
DOCKED: REMARK    3  A    between atoms: C_11  and  C_12 
DOCKED: REMARK    4  A    between atoms: C_12  and  O_14 
DOCKED: REMARK    5  A    between atoms: C_17  and  C_20 
DOCKED: REMARK    6  A    between atoms: C_24  and  C_27 
DOCKED: REMARK    7  A    between atoms: C_31  and  C_34 
DOCKED: REMARK    8  A    between atoms: C_34  and  C_35 
DOCKED: REMARK    9  A    between atoms: C_35  and  C_36 
DOCKED: REMARK   10  A    between atoms: C_36  and  O_38 
DOCKED: USER                              x       y       z     vdW  Elec       q    Type
DOCKED: USER                           _______ _______ _______ _____ _____    ______ ____
DOCKED: ROOT
DOCKED: ATOM      1  C   UNL d   1      12.643   2.420  20.169 -0.09 +0.02    +0.064 C 
DOCKED: ATOM      2  C   UNL d   1      12.462  -0.431  16.136 -0.31 -0.01    +0.064 A 
DOCKED: ATOM      3  C   UNL d   1      11.158   3.409  13.563 -0.22 -0.01    +0.064 C 
DOCKED: ATOM      4  C   UNL d   1      11.225   6.165  17.473 -0.10 +0.00    +0.064 C 
DOCKED: ATOM      5  C   UNL d   1      12.632   1.244  19.288 -0.22 +0.01    +0.066 A 
DOCKED: ATOM      6  C   UNL d   1      12.850  -0.058  19.705 -0.22 -0.00    -0.021 A 
DOCKED: ATOM      7  C   UNL d   1      12.804  -0.849  18.584 -0.28 -0.00    -0.025 A 
DOCKED: ATOM      8  C   UNL d   1      12.558   0.002  17.524 -0.29 -0.00    +0.066 A 
DOCKED: ATOM      9  C   UNL d   1      12.967  -2.338  18.546 -0.32 +0.00    +0.051 C 
DOCKED: ATOM     10  C   UNL d   1      12.169   0.360  15.103 -0.26 -0.02    +0.066 A 
DOCKED: ATOM     11  C   UNL d   1      12.197  -0.061  13.771 -0.33 +0.01    -0.021 A 
DOCKED: ATOM     12  C   UNL d   1      11.841   1.033  13.008 -0.34 -0.00    +0.000 A 
DOCKED: ATOM     13  C   UNL d   1      11.620   2.078  13.922 -0.26 -0.01    +0.070 A 
DOCKED: ATOM     14  C   UNL d   1      12.610  -1.422  13.246 -0.45 -0.02    +0.052 C 
DOCKED: ATOM     15  C   UNL d   1      10.994   4.434  14.433 -0.22 -0.01    +0.066 A 
DOCKED: ATOM     16  C   UNL d   1      10.456   5.661  14.068 -0.26 +0.00    -0.021 A 
DOCKED: ATOM     17  C   UNL d   1      10.478   6.459  15.193 -0.22 -0.00    +0.000 A 
DOCKED: ATOM     18  C   UNL d   1      11.033   5.699  16.220 -0.14 -0.00    +0.070 A 
DOCKED: ATOM     19  C   UNL d   1       9.964   6.079  12.708 -0.19 -0.00    +0.052 C 
DOCKED: ATOM     20  C   UNL d   1      11.749   5.376  18.594 -0.10 +0.01    +0.066 A 
DOCKED: ATOM     21  C   UNL d   1      12.140   5.894  19.837 -0.08 -0.00    -0.025 A 
DOCKED: ATOM     22  C   UNL d   1      12.528   4.808  20.594 -0.12 -0.01    -0.021 A 
DOCKED: ATOM     23  C   UNL d   1      12.367   3.677  19.786 -0.16 +0.02    +0.066 A 
DOCKED: ATOM     24  C   UNL d   1      12.154   7.334  20.296 -0.03 +0.01    +0.051 C 
DOCKED: ATOM     25  N   UNL d   1      12.444   1.274  17.957 -0.16 +0.01    -0.248 N 
DOCKED: ATOM     26  N   UNL d   1      11.828   1.671  15.198 -0.17 +0.05    -0.248 N 
DOCKED: ATOM     27  N   UNL d   1      11.310   4.440  15.766 -0.12 +0.02    -0.248 N 
DOCKED: ATOM     28  N   UNL d   1      11.934   4.034  18.552 -0.13 -0.03    -0.248 N 
DOCKED: ATOM     29 FE   UNL d   1      11.881   2.854  16.875 -0.05 -0.00    +0.000 Fe
DOCKED: ENDROOT
DOCKED: BRANCH   6  30
DOCKED: ATOM     30  C   UNL d   1      13.071  -0.533  21.101 -0.19 +0.01    +0.052 C 
DOCKED: BRANCH  30  31
DOCKED: ATOM     31  C   UNL d   1      14.093   0.345  21.815 -0.11 +0.03    +0.115 C 
DOCKED: BRANCH  31  32
DOCKED: ATOM     32  C   UNL d   1      13.560   0.795  23.147 -0.11 +0.08    +0.139 C 
DOCKED: ATOM     33  O   UNL d   1      12.994   0.007  23.890 -0.05 -0.36    -0.650 OA
DOCKED: BRANCH  32  34
DOCKED: ATOM     34  O   UNL d   1      13.703   2.074  23.533 +0.11 -0.68    -0.776 OA
DOCKED: ATOM     35  H   UNL d   1      14.435   2.595  23.173 +0.01 +0.10    +0.167 HD
DOCKED: ENDBRANCH  32  34
DOCKED: ENDBRANCH  31  32
DOCKED: ENDBRANCH  30  31
DOCKED: ENDBRANCH   6  30
DOCKED: BRANCH  22  36
DOCKED: ATOM     36  C   UNL d   1      13.070   4.863  21.998 -0.02 +0.03    +0.052 C 
DOCKED: BRANCH  36  37
DOCKED: ATOM     37  C   UNL d   1      14.559   5.174  21.962 -0.05 +0.03    +0.115 C 
DOCKED: BRANCH  37  38
DOCKED: ATOM     38  C   UNL d   1      15.189   4.951  23.307 -0.04 +0.05    +0.139 C 
DOCKED: ATOM     39  O   UNL d   1      15.052   5.767  24.206 -0.00 -0.25    -0.650 OA
DOCKED: BRANCH  38  40
DOCKED: ATOM     40  O   UNL d   1      15.918   3.843  23.531 +0.01 -0.23    -0.776 OA
DOCKED: ATOM     41  H   UNL d   1      15.528   3.118  24.040 +0.01 +0.07    +0.167 HD
DOCKED: ENDBRANCH  38  40
DOCKED: ENDBRANCH  37  38
DOCKED: ENDBRANCH  36  37
DOCKED: ENDBRANCH  22  36
DOCKED: BRANCH  12  42
DOCKED: ATOM     42  C   UNL d   1      11.749   1.041  11.515 -0.34 -0.00    +0.004 C 
DOCKED: ATOM     43  C   UNL d   1      12.426   1.940  10.788 -0.26 -0.00    +0.012 C 
DOCKED: ENDBRANCH  12  42
DOCKED: BRANCH  17  44
DOCKED: ATOM     44  C   UNL d   1       9.980   7.850  15.285 -0.24 -0.00    +0.004 C 
DOCKED: ATOM     45  C   UNL d   1       8.776   8.114  15.802 -0.29 -0.00    +0.012 C 
DOCKED: ENDBRANCH  17  44
DOCKED: TORSDOF 10
DOCKED: TER
DOCKED: ENDMDL
________________________________________________________________________________


	BEGINNING GENETIC ALGORITHM DOCKING 87 of 100
Run: 87 Seed: 1693703715 1343904698 [ Run 87 of 100 GA/GALS ]
Beginning LAMARCKIAN GENETIC ALGORITHM (LGA), with a maximum of 25000000 energy evaluations.

Final-Value: -10.663


	FINAL GENETIC ALGORITHM DOCKED STATE
	_______________________________________________


Detailed state:  trans -8.852 11.411 -10.868 quatxyzw -0.760413 -0.316448 0.497112 0.272969 center -0.174 -0.001 -0.047 ntor 10 -29.5575 166.5913 65.5080 -165.3477 91.7288 -43.3857 -179.3688 -14.7893 -0.9501 146.9364
State:	 -8.852  11.411 -10.868  -0.790 -0.329  0.517 148.318    -29.56  166.59   65.51 -165.35   91.73  -43.39 -179.37  -14.79   -0.95  146.94

DOCKED: MODEL       87
DOCKED: USER    Run = 87
DOCKED: USER    DPF = D:/Protein_go_brrr/autodock/final/mut_K82N/heme_Fe/dock.dpf
DOCKED: USER  
DOCKED: USER    Estimated Free Energy of Binding    =   -7.08 kcal/mol  [=(1)+(2)+(3)-(4)]
DOCKED: USER    Estimated Inhibition Constant, Ki   =    6.45 uM (micromolar)  [Temperature = 298.15 K]
DOCKED: USER    
DOCKED: USER    (1) Final Intermolecular Energy     =  -10.06 kcal/mol
DOCKED: USER        vdW + Hbond + desolv Energy     =   -6.89 kcal/mol
DOCKED: USER        Electrostatic Energy            =   -3.18 kcal/mol
DOCKED: USER    (2) Final Total Internal Energy     =   -0.60 kcal/mol
DOCKED: USER    (3) Torsional Free Energy           =   +2.98 kcal/mol
DOCKED: USER    (4) Unbound System's Energy  [=(2)] =   -0.60 kcal/mol
DOCKED: USER    
DOCKED: USER    
DOCKED: USER    NEWDPF move heme_Fe_opt.pdbqt
DOCKED: USER    NEWDPF about -0.174000 -0.001000 -0.047000
DOCKED: USER    NEWDPF tran0 -8.851576 11.410808 -10.868473
DOCKED: USER    NEWDPF quaternion0 -0.760413 -0.316448 0.497112 0.272969
DOCKED: USER    NEWDPF axisangle0 -0.790432 -0.328941 0.516736 148.317968
DOCKED: USER    NEWDPF quat0 -0.790432 -0.328941 0.516736 148.317968
DOCKED: USER    NEWDPF dihe0 -29.56 166.59 65.51 -165.35 91.73 -43.39 -179.37 -14.79 -0.95 146.94 
DOCKED: USER  keepresnum = 1 
DOCKED: USER  
DOCKED: REMARK  10 active torsions:
DOCKED: REMARK  status: ('A' for Active; 'I' for Inactive)
DOCKED: REMARK    1  A    between atoms: C_6  and  C_10 
DOCKED: REMARK    2  A    between atoms: C_10  and  C_11 
DOCKED: REMARK    3  A    between atoms: C_11  and  C_12 
DOCKED: REMARK    4  A    between atoms: C_12  and  O_14 
DOCKED: REMARK    5  A    between atoms: C_17  and  C_20 
DOCKED: REMARK    6  A    between atoms: C_24  and  C_27 
DOCKED: REMARK    7  A    between atoms: C_31  and  C_34 
DOCKED: REMARK    8  A    between atoms: C_34  and  C_35 
DOCKED: REMARK    9  A    between atoms: C_35  and  C_36 
DOCKED: REMARK   10  A    between atoms: C_36  and  O_38 
DOCKED: USER                              x       y       z     vdW  Elec       q    Type
DOCKED: USER                           _______ _______ _______ _____ _____    ______ ____
DOCKED: ROOT
DOCKED: ATOM      1  C   UNL d   1      -9.811  10.645  -9.224 -0.16 +0.02    +0.064 C 
DOCKED: ATOM      2  C   UNL d   1     -11.085  13.717 -12.881 -0.06 +0.01    +0.064 A 
DOCKED: ATOM      3  C   UNL d   1      -7.206  12.298 -15.331 -0.07 -0.01    +0.064 C 
DOCKED: ATOM      4  C   UNL d   1      -5.898   9.397 -11.759 -0.23 -0.01    +0.064 C 
DOCKED: ATOM      5  C   UNL d   1     -10.485  11.703  -9.990 -0.09 +0.02    +0.066 A 
DOCKED: ATOM      6  C   UNL d   1     -11.579  12.427  -9.546 -0.10 -0.01    -0.021 A 
DOCKED: ATOM      7  C   UNL d   1     -11.935  13.277 -10.564 -0.08 -0.01    -0.025 A 
DOCKED: ATOM      8  C   UNL d   1     -11.042  13.039 -11.591 -0.07 +0.02    +0.066 A 
DOCKED: ATOM      9  C   UNL d   1     -13.056  14.269 -10.534 -0.04 +0.01    +0.051 C 
DOCKED: ATOM     10  C   UNL d   1     -10.203  13.548 -13.867 -0.06 +0.01    +0.066 A 
DOCKED: ATOM     11  C   UNL d   1     -10.335  14.125 -15.133 -0.03 -0.00    -0.021 A 
DOCKED: ATOM     12  C   UNL d   1      -9.237  13.717 -15.864 -0.03 -0.00    +0.000 A 
DOCKED: ATOM     13  C   UNL d   1      -8.489  12.898 -15.001 -0.06 -0.00    +0.070 A 
DOCKED: ATOM     14  C   UNL d   1     -11.486  14.967 -15.643 -0.01 +0.00    +0.052 C 
DOCKED: ATOM     15  C   UNL d   1      -6.507  11.467 -14.523 -0.10 -0.01    +0.066 A 
DOCKED: ATOM     16  C   UNL d   1      -5.239  10.994 -14.835 -0.15 +0.01    -0.021 A 
DOCKED: ATOM     17  C   UNL d   1      -4.861  10.154 -13.807 -0.26 -0.00    +0.000 A 
DOCKED: ATOM     18  C   UNL d   1      -5.911  10.131 -12.893 -0.21 -0.01    +0.070 A 
DOCKED: ATOM     19  C   UNL d   1      -4.422  11.297 -16.062 -0.14 -0.02    +0.052 C 
DOCKED: ATOM     20  C   UNL d   1      -6.958   9.395 -10.744 -0.23 -0.00    +0.066 A 
DOCKED: ATOM     21  C   UNL d   1      -7.052   8.497  -9.672 -0.25 -0.00    -0.025 A 
DOCKED: ATOM     22  C   UNL d   1      -8.167   8.879  -8.955 -0.21 -0.00    -0.021 A 
DOCKED: ATOM     23  C   UNL d   1      -8.711   9.986  -9.619 -0.16 +0.01    +0.066 A 
DOCKED: ATOM     24  C   UNL d   1      -6.147   7.334  -9.334 -0.36 +0.00    +0.051 C 
DOCKED: ATOM     25  N   UNL d   1     -10.155  12.088 -11.236 -0.04 -0.09    -0.248 N 
DOCKED: ATOM     26  N   UNL d   1      -9.081  12.788 -13.786 -0.06 -0.03    -0.248 N 
DOCKED: ATOM     27  N   UNL d   1      -6.905  10.972 -13.310 -0.09 +0.01    -0.248 N 
DOCKED: ATOM     28  N   UNL d   1      -7.995  10.268 -10.734 -0.11 -0.03    -0.248 N 
DOCKED: ATOM     29 FE   UNL d   1      -8.536  11.527 -12.260 -0.04 +0.00    +0.000 Fe
DOCKED: ENDROOT
DOCKED: BRANCH   6  30
DOCKED: ATOM     30  C   UNL d   1     -12.243  12.332  -8.215 -0.07 +0.02    +0.052 C 
DOCKED: BRANCH  30  31
DOCKED: ATOM     31  C   UNL d   1     -11.583  13.275  -7.215 -0.19 +0.06    +0.115 C 
DOCKED: BRANCH  31  32
DOCKED: ATOM     32  C   UNL d   1     -10.465  14.038  -7.869 -0.28 +0.11    +0.139 C 
DOCKED: ATOM     33  O   UNL d   1     -10.672  15.128  -8.384 -0.28 -1.08    -0.650 OA
DOCKED: BRANCH  32  34
DOCKED: ATOM     34  O   UNL d   1      -9.223  13.527  -7.893 -0.07 -0.36    -0.776 OA
DOCKED: ATOM     35  H   UNL d   1      -8.636  13.754  -8.628 -0.47 +0.02    +0.167 HD
DOCKED: ENDBRANCH  32  34
DOCKED: ENDBRANCH  31  32
DOCKED: ENDBRANCH  30  31
DOCKED: ENDBRANCH   6  30
DOCKED: BRANCH  22  36
DOCKED: ATOM     36  C   UNL d   1      -8.705   8.187  -7.731 -0.22 +0.02    +0.052 C 
DOCKED: BRANCH  36  37
DOCKED: ATOM     37  C   UNL d   1     -10.087   7.623  -8.026 -0.12 +0.05    +0.115 C 
DOCKED: BRANCH  37  38
DOCKED: ATOM     38  C   UNL d   1     -10.493   6.619  -6.984 -0.14 +0.16    +0.139 C 
DOCKED: ATOM     39  O   UNL d   1      -9.700   5.781  -6.580 -0.53 -1.11    -0.650 OA
DOCKED: BRANCH  38  40
DOCKED: ATOM     40  O   UNL d   1     -11.743   6.635  -6.488 -0.14 -1.07    -0.776 OA
DOCKED: ATOM     41  H   UNL d   1     -12.305   7.405  -6.653 +0.02 +0.13    +0.167 HD
DOCKED: ENDBRANCH  38  40
DOCKED: ENDBRANCH  37  38
DOCKED: ENDBRANCH  36  37
DOCKED: ENDBRANCH  22  36
DOCKED: BRANCH  12  42
DOCKED: ATOM     42  C   UNL d   1      -8.970  14.090 -17.288 -0.01 -0.00    +0.004 C 
DOCKED: ATOM     43  C   UNL d   1      -7.931  14.870 -17.613 -0.02 -0.00    +0.012 C 
DOCKED: ENDBRANCH  12  42
DOCKED: BRANCH  17  44
DOCKED: ATOM     44  C   UNL d   1      -3.571   9.437 -13.698 -0.37 -0.00    +0.004 C 
DOCKED: ATOM     45  C   UNL d   1      -3.516   8.105 -13.807 -0.52 -0.00    +0.012 C 
DOCKED: ENDBRANCH  17  44
DOCKED: TORSDOF 10
DOCKED: TER
DOCKED: ENDMDL
________________________________________________________________________________


	BEGINNING GENETIC ALGORITHM DOCKING 88 of 100
Run: 88 Seed: 205629126 1272773414 [ Run 88 of 100 GA/GALS ]
Beginning LAMARCKIAN GENETIC ALGORITHM (LGA), with a maximum of 25000000 energy evaluations.

Final-Value: -11.842


	FINAL GENETIC ALGORITHM DOCKED STATE
	_______________________________________________


Detailed state:  trans -9.863 2.238 -8.127 quatxyzw 0.234436 0.431438 0.440196 0.751750 center -0.174 -0.001 -0.047 ntor 10 117.2464 137.3170 -156.0585 3.8579 -166.1130 91.6542 -56.6515 -162.1225 -29.1586 164.8863
State:	 -9.863   2.238  -8.127   0.356  0.654  0.668 82.516    117.25  137.32 -156.06    3.86 -166.11   91.65  -56.65 -162.12  -29.16  164.89

DOCKED: MODEL       88
DOCKED: USER    Run = 88
DOCKED: USER    DPF = D:/Protein_go_brrr/autodock/final/mut_K82N/heme_Fe/dock.dpf
DOCKED: USER  
DOCKED: USER    Estimated Free Energy of Binding    =   -8.27 kcal/mol  [=(1)+(2)+(3)-(4)]
DOCKED: USER    Estimated Inhibition Constant, Ki   =  862.82 nM (nanomolar)  [Temperature = 298.15 K]
DOCKED: USER    
DOCKED: USER    (1) Final Intermolecular Energy     =  -11.26 kcal/mol
DOCKED: USER        vdW + Hbond + desolv Energy     =   -8.72 kcal/mol
DOCKED: USER        Electrostatic Energy            =   -2.54 kcal/mol
DOCKED: USER    (2) Final Total Internal Energy     =   -0.59 kcal/mol
DOCKED: USER    (3) Torsional Free Energy           =   +2.98 kcal/mol
DOCKED: USER    (4) Unbound System's Energy  [=(2)] =   -0.59 kcal/mol
DOCKED: USER    
DOCKED: USER    
DOCKED: USER    NEWDPF move heme_Fe_opt.pdbqt
DOCKED: USER    NEWDPF about -0.174000 -0.001000 -0.047000
DOCKED: USER    NEWDPF tran0 -9.863261 2.237997 -8.126608
DOCKED: USER    NEWDPF quaternion0 0.234436 0.431438 0.440196 0.751750
DOCKED: USER    NEWDPF axisangle0 0.355503 0.654241 0.667522 82.515535
DOCKED: USER    NEWDPF quat0 0.355503 0.654241 0.667522 82.515535
DOCKED: USER    NEWDPF dihe0 117.25 137.32 -156.06 3.86 -166.11 91.65 -56.65 -162.12 -29.16 164.89 
DOCKED: USER  keepresnum = 1 
DOCKED: USER  
DOCKED: REMARK  10 active torsions:
DOCKED: REMARK  status: ('A' for Active; 'I' for Inactive)
DOCKED: REMARK    1  A    between atoms: C_6  and  C_10 
DOCKED: REMARK    2  A    between atoms: C_10  and  C_11 
DOCKED: REMARK    3  A    between atoms: C_11  and  C_12 
DOCKED: REMARK    4  A    between atoms: C_12  and  O_14 
DOCKED: REMARK    5  A    between atoms: C_17  and  C_20 
DOCKED: REMARK    6  A    between atoms: C_24  and  C_27 
DOCKED: REMARK    7  A    between atoms: C_31  and  C_34 
DOCKED: REMARK    8  A    between atoms: C_34  and  C_35 
DOCKED: REMARK    9  A    between atoms: C_35  and  C_36 
DOCKED: REMARK   10  A    between atoms: C_36  and  O_38 
DOCKED: USER                              x       y       z     vdW  Elec       q    Type
DOCKED: USER                           _______ _______ _______ _____ _____    ______ ____
DOCKED: ROOT
DOCKED: ATOM      1  C   UNL d   1     -10.625   3.508  -9.547 -0.06 +0.04    +0.064 C 
DOCKED: ATOM      2  C   UNL d   1     -12.536   0.017  -6.615 -0.13 +0.03    +0.064 A 
DOCKED: ATOM      3  C   UNL d   1      -8.512   0.113  -3.995 -0.27 +0.01    +0.064 C 
DOCKED: ATOM      4  C   UNL d   1      -6.602   3.416  -6.881 -0.32 +0.02    +0.064 C 
DOCKED: ATOM      5  C   UNL d   1     -11.503   2.457  -9.014 -0.10 +0.06    +0.066 A 
DOCKED: ATOM      6  C   UNL d   1     -12.705   2.067  -9.582 -0.11 -0.01    -0.021 A 
DOCKED: ATOM      7  C   UNL d   1     -13.236   1.100  -8.765 -0.09 -0.01    -0.025 A 
DOCKED: ATOM      8  C   UNL d   1     -12.337   0.936  -7.729 -0.13 +0.05    +0.066 A 
DOCKED: ATOM      9  C   UNL d   1     -14.524   0.368  -8.986 -0.04 +0.01    +0.051 C 
DOCKED: ATOM     10  C   UNL d   1     -11.658  -0.202  -5.634 -0.17 +0.03    +0.066 A 
DOCKED: ATOM     11  C   UNL d   1     -11.925  -1.002  -4.521 -0.15 -0.00    -0.021 A 
DOCKED: ATOM     12  C   UNL d   1     -10.786  -0.978  -3.741 -0.24 +0.00    +0.000 A 
DOCKED: ATOM     13  C   UNL d   1      -9.877  -0.148  -4.422 -0.20 +0.02    +0.070 A 
DOCKED: ATOM     14  C   UNL d   1     -13.225  -1.701  -4.182 -0.06 +0.00    +0.052 C 
DOCKED: ATOM     15  C   UNL d   1      -7.651   0.951  -4.619 -0.33 +0.02    +0.066 A 
DOCKED: ATOM     16  C   UNL d   1      -6.323   1.097  -4.238 -0.46 -0.00    -0.021 A 
DOCKED: ATOM     17  C   UNL d   1      -5.771   2.051  -5.067 -0.43 +0.00    +0.000 A 
DOCKED: ATOM     18  C   UNL d   1      -6.778   2.470  -5.933 -0.36 +0.02    +0.070 A 
DOCKED: ATOM     19  C   UNL d   1      -5.605   0.386  -3.122 -0.39 +0.00    +0.052 C 
DOCKED: ATOM     20  C   UNL d   1      -7.621   3.837  -7.850 -0.31 +0.03    +0.066 A 
DOCKED: ATOM     21  C   UNL d   1      -7.520   4.947  -8.701 -0.27 -0.01    -0.025 A 
DOCKED: ATOM     22  C   UNL d   1      -8.671   4.947  -9.460 -0.23 -0.01    -0.021 A 
DOCKED: ATOM     23  C   UNL d   1      -9.429   3.847  -9.041 -0.10 +0.04    +0.066 A 
DOCKED: ATOM     24  C   UNL d   1      -6.405   5.962  -8.798 -0.30 +0.01    +0.051 C 
DOCKED: ATOM     25  N   UNL d   1     -11.279   1.756  -7.888 -0.07 -0.31    -0.248 N 
DOCKED: ATOM     26  N   UNL d   1     -10.412   0.332  -5.571 -0.10 -0.15    -0.248 N 
DOCKED: ATOM     27  N   UNL d   1      -7.922   1.762  -5.688 -0.23 -0.12    -0.248 N 
DOCKED: ATOM     28  N   UNL d   1      -8.803   3.199  -8.028 -0.18 -0.19    -0.248 N 
DOCKED: ATOM     29 FE   UNL d   1      -9.606   1.767  -6.800 -0.07 +0.00    +0.000 Fe
DOCKED: ENDROOT
DOCKED: BRANCH   6  30
DOCKED: ATOM     30  C   UNL d   1     -13.309   2.571 -10.847 -0.08 +0.02    +0.052 C 
DOCKED: BRANCH  30  31
DOCKED: ATOM     31  C   UNL d   1     -12.386   2.303 -12.031 -0.13 +0.05    +0.115 C 
DOCKED: BRANCH  31  32
DOCKED: ATOM     32  C   UNL d   1     -13.100   1.500 -13.083 -0.15 +0.10    +0.139 C 
DOCKED: ATOM     33  O   UNL d   1     -12.476   0.967 -13.990 -0.52 -1.02    -0.650 OA
DOCKED: BRANCH  32  34
DOCKED: ATOM     34  O   UNL d   1     -14.436   1.360 -13.035 +0.02 -0.42    -0.776 OA
DOCKED: ATOM     35  H   UNL d   1     -14.834   0.908 -12.278 +0.02 +0.06    +0.167 HD
DOCKED: ENDBRANCH  32  34
DOCKED: ENDBRANCH  31  32
DOCKED: ENDBRANCH  30  31
DOCKED: ENDBRANCH   6  30
DOCKED: BRANCH  22  36
DOCKED: ATOM     36  C   UNL d   1      -9.042   5.976 -10.495 -0.18 +0.01    +0.052 C 
DOCKED: BRANCH  36  37
DOCKED: ATOM     37  C   UNL d   1      -9.995   6.995  -9.887 -0.07 +0.04    +0.115 C 
DOCKED: BRANCH  37  38
DOCKED: ATOM     38  C   UNL d   1      -9.961   6.935  -8.386 -0.12 +0.08    +0.139 C 
DOCKED: ATOM     39  O   UNL d   1      -9.197   7.645  -7.749 -0.01 -0.27    -0.650 OA
DOCKED: BRANCH  38  40
DOCKED: ATOM     40  O   UNL d   1     -10.777   6.091  -7.730 -0.15 -0.96    -0.776 OA
DOCKED: ATOM     41  H   UNL d   1     -11.698   6.010  -8.014 +0.02 +0.19    +0.167 HD
DOCKED: ENDBRANCH  38  40
DOCKED: ENDBRANCH  37  38
DOCKED: ENDBRANCH  36  37
DOCKED: ENDBRANCH  22  36
DOCKED: BRANCH  12  42
DOCKED: ATOM     42  C   UNL d   1     -10.625  -1.693  -2.438 -0.31 -0.00    +0.004 C 
DOCKED: ATOM     43  C   UNL d   1     -10.597  -1.019  -1.280 -0.36 -0.00    +0.012 C 
DOCKED: ENDBRANCH  12  42
DOCKED: BRANCH  17  44
DOCKED: ATOM     44  C   UNL d   1      -4.366   2.518  -5.044 -0.31 +0.00    +0.004 C 
DOCKED: ATOM     45  C   UNL d   1      -3.356   1.657  -5.207 -0.47 +0.00    +0.012 C 
DOCKED: ENDBRANCH  17  44
DOCKED: TORSDOF 10
DOCKED: TER
DOCKED: ENDMDL
________________________________________________________________________________


	BEGINNING GENETIC ALGORITHM DOCKING 89 of 100
Run: 89 Seed: 2068000574 362301734 [ Run 89 of 100 GA/GALS ]
Beginning LAMARCKIAN GENETIC ALGORITHM (LGA), with a maximum of 25000000 energy evaluations.

Final-Value: -10.251


	FINAL GENETIC ALGORITHM DOCKED STATE
	_______________________________________________


Detailed state:  trans 11.904 2.543 18.333 quatxyzw -0.011522 0.749069 0.100410 -0.654737 center -0.174 -0.001 -0.047 ntor 10 -177.3844 108.5666 -173.8067 43.1388 164.5820 -64.3699 52.3490 32.3914 24.1076 124.5888
State:	 11.904   2.543  18.333  -0.015  0.991  0.133 -98.201   -177.38  108.57 -173.81   43.14  164.58  -64.37   52.35   32.39   24.11  124.59

DOCKED: MODEL       89
DOCKED: USER    Run = 89
DOCKED: USER    DPF = D:/Protein_go_brrr/autodock/final/mut_K82N/heme_Fe/dock.dpf
DOCKED: USER  
DOCKED: USER    Estimated Free Energy of Binding    =   -5.86 kcal/mol  [=(1)+(2)+(3)-(4)]
DOCKED: USER    Estimated Inhibition Constant, Ki   =   50.84 uM (micromolar)  [Temperature = 298.15 K]
DOCKED: USER    
DOCKED: USER    (1) Final Intermolecular Energy     =   -8.84 kcal/mol
DOCKED: USER        vdW + Hbond + desolv Energy     =   -7.69 kcal/mol
DOCKED: USER        Electrostatic Energy            =   -1.15 kcal/mol
DOCKED: USER    (2) Final Total Internal Energy     =   -1.41 kcal/mol
DOCKED: USER    (3) Torsional Free Energy           =   +2.98 kcal/mol
DOCKED: USER    (4) Unbound System's Energy  [=(2)] =   -1.41 kcal/mol
DOCKED: USER    
DOCKED: USER    
DOCKED: USER    NEWDPF move heme_Fe_opt.pdbqt
DOCKED: USER    NEWDPF about -0.174000 -0.001000 -0.047000
DOCKED: USER    NEWDPF tran0 11.904037 2.543432 18.332992
DOCKED: USER    NEWDPF quaternion0 -0.011522 0.749069 0.100410 -0.654737
DOCKED: USER    NEWDPF axisangle0 -0.015243 0.991020 0.132843 -98.200573
DOCKED: USER    NEWDPF quat0 -0.015243 0.991020 0.132843 -98.200573
DOCKED: USER    NEWDPF dihe0 -177.38 108.57 -173.81 43.14 164.58 -64.37 52.35 32.39 24.11 124.59 
DOCKED: USER  keepresnum = 1 
DOCKED: USER  
DOCKED: REMARK  10 active torsions:
DOCKED: REMARK  status: ('A' for Active; 'I' for Inactive)
DOCKED: REMARK    1  A    between atoms: C_6  and  C_10 
DOCKED: REMARK    2  A    between atoms: C_10  and  C_11 
DOCKED: REMARK    3  A    between atoms: C_11  and  C_12 
DOCKED: REMARK    4  A    between atoms: C_12  and  O_14 
DOCKED: REMARK    5  A    between atoms: C_17  and  C_20 
DOCKED: REMARK    6  A    between atoms: C_24  and  C_27 
DOCKED: REMARK    7  A    between atoms: C_31  and  C_34 
DOCKED: REMARK    8  A    between atoms: C_34  and  C_35 
DOCKED: REMARK    9  A    between atoms: C_35  and  C_36 
DOCKED: REMARK   10  A    between atoms: C_36  and  O_38 
DOCKED: USER                              x       y       z     vdW  Elec       q    Type
DOCKED: USER                           _______ _______ _______ _____ _____    ______ ____
DOCKED: ROOT
DOCKED: ATOM      1  C   UNL d   1      12.715   2.347  20.208 -0.09 +0.02    +0.064 C 
DOCKED: ATOM      2  C   UNL d   1      12.500  -0.525  16.191 -0.32 -0.01    +0.064 A 
DOCKED: ATOM      3  C   UNL d   1      11.169   3.302  13.611 -0.23 -0.01    +0.064 C 
DOCKED: ATOM      4  C   UNL d   1      11.269   6.077  17.506 -0.10 +0.00    +0.064 C 
DOCKED: ATOM      5  C   UNL d   1      12.697   1.167  19.333 -0.21 +0.01    +0.066 A 
DOCKED: ATOM      6  C   UNL d   1      12.921  -0.133  19.754 -0.21 -0.00    -0.021 A 
DOCKED: ATOM      7  C   UNL d   1      12.865  -0.930  18.638 -0.28 -0.00    -0.025 A 
DOCKED: ATOM      8  C   UNL d   1      12.608  -0.084  17.576 -0.29 -0.00    +0.066 A 
DOCKED: ATOM      9  C   UNL d   1      13.030  -2.418  18.606 -0.31 +0.00    +0.051 C 
DOCKED: ATOM     10  C   UNL d   1      12.197   0.261  15.156 -0.25 -0.02    +0.066 A 
DOCKED: ATOM     11  C   UNL d   1      12.213  -0.167  13.827 -0.29 +0.01    -0.021 A 
DOCKED: ATOM     12  C   UNL d   1      11.849   0.923  13.061 -0.35 -0.00    +0.000 A 
DOCKED: ATOM     13  C   UNL d   1      11.636   1.972  13.972 -0.26 -0.01    +0.070 A 
DOCKED: ATOM     14  C   UNL d   1      12.623  -1.529  13.305 -0.45 -0.02    +0.052 C 
DOCKED: ATOM     15  C   UNL d   1      11.012   4.330  14.477 -0.22 -0.01    +0.066 A 
DOCKED: ATOM     16  C   UNL d   1      10.470   5.555  14.110 -0.25 +0.00    -0.021 A 
DOCKED: ATOM     17  C   UNL d   1      10.501   6.358  15.231 -0.22 -0.00    +0.000 A 
DOCKED: ATOM     18  C   UNL d   1      11.066   5.604  16.257 -0.14 -0.00    +0.070 A 
DOCKED: ATOM     19  C   UNL d   1       9.965   5.966  12.753 -0.16 -0.00    +0.052 C 
DOCKED: ATOM     20  C   UNL d   1      11.805   5.294  18.626 -0.10 +0.01    +0.066 A 
DOCKED: ATOM     21  C   UNL d   1      12.206   5.819  19.863 -0.08 -0.00    -0.025 A 
DOCKED: ATOM     22  C   UNL d   1      12.602   4.737  20.622 -0.12 -0.01    -0.021 A 
DOCKED: ATOM     23  C   UNL d   1      12.434   3.602  19.820 -0.16 +0.02    +0.066 A 
DOCKED: ATOM     24  C   UNL d   1      12.223   7.261  20.315 -0.03 +0.01    +0.051 C 
DOCKED: ATOM     25  N   UNL d   1      12.497   1.190  18.003 -0.16 +0.00    -0.248 N 
DOCKED: ATOM     26  N   UNL d   1      11.856   1.572  15.248 -0.17 +0.05    -0.248 N 
DOCKED: ATOM     27  N   UNL d   1      11.341   4.343  15.806 -0.12 +0.02    -0.248 N 
DOCKED: ATOM     28  N   UNL d   1      11.990   3.952  18.589 -0.13 -0.03    -0.248 N 
DOCKED: ATOM     29 FE   UNL d   1      11.923   2.764  16.919 -0.05 -0.00    +0.000 Fe
DOCKED: ENDROOT
DOCKED: BRANCH   6  30
DOCKED: ATOM     30  C   UNL d   1      13.155  -0.601  21.150 -0.18 +0.01    +0.052 C 
DOCKED: BRANCH  30  31
DOCKED: ATOM     31  C   UNL d   1      11.999  -1.471  21.630 -0.21 +0.02    +0.115 C 
DOCKED: BRANCH  31  32
DOCKED: ATOM     32  C   UNL d   1      11.471  -0.967  22.944 -0.13 +0.05    +0.139 C 
DOCKED: ATOM     33  O   UNL d   1      10.383  -1.337  23.362 -0.05 -0.19    -0.650 OA
DOCKED: BRANCH  32  34
DOCKED: ATOM     34  O   UNL d   1      12.195  -0.102  23.675 -0.01 -0.47    -0.776 OA
DOCKED: ATOM     35  H   UNL d   1      13.038   0.218  23.324 +0.01 +0.09    +0.167 HD
DOCKED: ENDBRANCH  32  34
DOCKED: ENDBRANCH  31  32
DOCKED: ENDBRANCH  30  31
DOCKED: ENDBRANCH   6  30
DOCKED: BRANCH  22  36
DOCKED: ATOM     36  C   UNL d   1      13.157   4.800  22.020 -0.02 +0.03    +0.052 C 
DOCKED: BRANCH  36  37
DOCKED: ATOM     37  C   UNL d   1      14.324   3.833  22.153 -0.08 +0.05    +0.115 C 
DOCKED: BRANCH  37  38
DOCKED: ATOM     38  C   UNL d   1      14.413   3.285  23.549 -0.05 +0.09    +0.139 C 
DOCKED: ATOM     39  O   UNL d   1      14.656   4.020  24.495 -0.04 -0.47    -0.650 OA
DOCKED: BRANCH  38  40
DOCKED: ATOM     40  O   UNL d   1      14.229   1.970  23.767 -0.02 -0.53    -0.776 OA
DOCKED: ATOM     41  H   UNL d   1      13.339   1.600  23.684 +0.00 +0.16    +0.167 HD
DOCKED: ENDBRANCH  38  40
DOCKED: ENDBRANCH  37  38
DOCKED: ENDBRANCH  36  37
DOCKED: ENDBRANCH  22  36
DOCKED: BRANCH  12  42
DOCKED: ATOM     42  C   UNL d   1      11.744   0.924  11.569 -0.35 -0.00    +0.004 C 
DOCKED: ATOM     43  C   UNL d   1      12.405   1.827  10.832 -0.27 -0.00    +0.012 C 
DOCKED: ENDBRANCH  12  42
DOCKED: BRANCH  17  44
DOCKED: ATOM     44  C   UNL d   1      10.003   7.750  15.321 -0.25 -0.00    +0.004 C 
DOCKED: ATOM     45  C   UNL d   1       8.783   8.011  15.801 -0.30 -0.00    +0.012 C 
DOCKED: ENDBRANCH  17  44
DOCKED: TORSDOF 10
DOCKED: TER
DOCKED: ENDMDL
________________________________________________________________________________


	BEGINNING GENETIC ALGORITHM DOCKING 90 of 100
Run: 90 Seed: 1596150129 574414862 [ Run 90 of 100 GA/GALS ]
Beginning LAMARCKIAN GENETIC ALGORITHM (LGA), with a maximum of 25000000 energy evaluations.

Final-Value: -12.650


	FINAL GENETIC ALGORITHM DOCKED STATE
	_______________________________________________


Detailed state:  trans -8.731 7.238 -12.823 quatxyzw -0.428053 -0.489281 0.189380 0.735874 center -0.174 -0.001 -0.047 ntor 10 105.4228 -72.3429 -104.5413 63.9521 137.7156 170.9556 -26.5891 43.2425 -172.4574 143.9713
State:	 -8.731   7.238 -12.823  -0.632 -0.723  0.280 85.238    105.42  -72.34 -104.54   63.95  137.72  170.96  -26.59   43.24 -172.46  143.97

DOCKED: MODEL       90
DOCKED: USER    Run = 90
DOCKED: USER    DPF = D:/Protein_go_brrr/autodock/final/mut_K82N/heme_Fe/dock.dpf
DOCKED: USER  
DOCKED: USER    Estimated Free Energy of Binding    =   -7.90 kcal/mol  [=(1)+(2)+(3)-(4)]
DOCKED: USER    Estimated Inhibition Constant, Ki   =    1.62 uM (micromolar)  [Temperature = 298.15 K]
DOCKED: USER    
DOCKED: USER    (1) Final Intermolecular Energy     =  -10.88 kcal/mol
DOCKED: USER        vdW + Hbond + desolv Energy     =   -7.78 kcal/mol
DOCKED: USER        Electrostatic Energy            =   -3.10 kcal/mol
DOCKED: USER    (2) Final Total Internal Energy     =   -1.77 kcal/mol
DOCKED: USER    (3) Torsional Free Energy           =   +2.98 kcal/mol
DOCKED: USER    (4) Unbound System's Energy  [=(2)] =   -1.77 kcal/mol
DOCKED: USER    
DOCKED: USER    
DOCKED: USER    NEWDPF move heme_Fe_opt.pdbqt
DOCKED: USER    NEWDPF about -0.174000 -0.001000 -0.047000
DOCKED: USER    NEWDPF tran0 -8.730887 7.237868 -12.822615
DOCKED: USER    NEWDPF quaternion0 -0.428053 -0.489281 0.189380 0.735874
DOCKED: USER    NEWDPF axisangle0 -0.632168 -0.722592 0.279685 85.237818
DOCKED: USER    NEWDPF quat0 -0.632168 -0.722592 0.279685 85.237818
DOCKED: USER    NEWDPF dihe0 105.42 -72.34 -104.54 63.95 137.72 170.96 -26.59 43.24 -172.46 143.97 
DOCKED: USER  keepresnum = 1 
DOCKED: USER  
DOCKED: REMARK  10 active torsions:
DOCKED: REMARK  status: ('A' for Active; 'I' for Inactive)
DOCKED: REMARK    1  A    between atoms: C_6  and  C_10 
DOCKED: REMARK    2  A    between atoms: C_10  and  C_11 
DOCKED: REMARK    3  A    between atoms: C_11  and  C_12 
DOCKED: REMARK    4  A    between atoms: C_12  and  O_14 
DOCKED: REMARK    5  A    between atoms: C_17  and  C_20 
DOCKED: REMARK    6  A    between atoms: C_24  and  C_27 
DOCKED: REMARK    7  A    between atoms: C_31  and  C_34 
DOCKED: REMARK    8  A    between atoms: C_34  and  C_35 
DOCKED: REMARK    9  A    between atoms: C_35  and  C_36 
DOCKED: REMARK   10  A    between atoms: C_36  and  O_38 
DOCKED: USER                              x       y       z     vdW  Elec       q    Type
DOCKED: USER                           _______ _______ _______ _____ _____    ______ ____
DOCKED: ROOT
DOCKED: ATOM      1  C   UNL d   1      -9.366   6.493 -11.019 -0.14 +0.01    +0.064 C 
DOCKED: ATOM      2  C   UNL d   1     -10.152   5.295 -15.749 -0.22 +0.02    +0.064 A 
DOCKED: ATOM      3  C   UNL d   1      -6.418   8.047 -16.995 -0.18 -0.01    +0.064 C 
DOCKED: ATOM      4  C   UNL d   1      -5.705   9.303 -12.434 -0.26 -0.01    +0.064 C 
DOCKED: ATOM      5  C   UNL d   1      -9.985   5.967 -12.243 -0.14 +0.01    +0.066 A 
DOCKED: ATOM      6  C   UNL d   1     -11.151   5.221 -12.281 -0.12 -0.01    -0.021 A 
DOCKED: ATOM      7  C   UNL d   1     -11.367   4.885 -13.595 -0.15 -0.01    -0.025 A 
DOCKED: ATOM      8  C   UNL d   1     -10.323   5.441 -14.309 -0.19 +0.01    +0.066 A 
DOCKED: ATOM      9  C   UNL d   1     -12.522   4.093 -14.126 -0.15 +0.03    +0.051 C 
DOCKED: ATOM     10  C   UNL d   1      -9.186   5.868 -16.470 -0.24 +0.01    +0.066 A 
DOCKED: ATOM     11  C   UNL d   1      -8.982   5.618 -17.829 -0.22 -0.00    -0.021 A 
DOCKED: ATOM     12  C   UNL d   1      -7.900   6.387 -18.209 -0.16 -0.00    +0.000 A 
DOCKED: ATOM     13  C   UNL d   1      -7.491   7.067 -17.048 -0.19 -0.01    +0.070 A 
DOCKED: ATOM     14  C   UNL d   1      -9.736   4.642 -18.708 -0.20 +0.01    +0.052 C 
DOCKED: ATOM     15  C   UNL d   1      -5.987   8.666 -15.870 -0.14 -0.01    +0.066 A 
DOCKED: ATOM     16  C   UNL d   1      -5.027   9.669 -15.877 -0.11 +0.00    -0.021 A 
DOCKED: ATOM     17  C   UNL d   1      -4.817  10.030 -14.562 -0.20 -0.00    +0.000 A 
DOCKED: ATOM     18  C   UNL d   1      -5.653   9.234 -13.782 -0.18 -0.01    +0.070 A 
DOCKED: ATOM     19  C   UNL d   1      -4.314  10.250 -17.068 -0.08 -0.02    +0.052 C 
DOCKED: ATOM     20  C   UNL d   1      -6.616   8.525 -11.586 -0.19 -0.00    +0.066 A 
DOCKED: ATOM     21  C   UNL d   1      -6.544   8.437 -10.188 -0.27 +0.00    -0.025 A 
DOCKED: ATOM     22  C   UNL d   1      -7.604   7.642  -9.805 -0.20 -0.00    -0.021 A 
DOCKED: ATOM     23  C   UNL d   1      -8.274   7.273 -10.978 -0.12 +0.01    +0.066 A 
DOCKED: ATOM     24  C   UNL d   1      -5.533   9.061  -9.254 -0.44 -0.01    +0.051 C 
DOCKED: ATOM     25  N   UNL d   1      -9.489   6.106 -13.485 -0.09 -0.03    -0.248 N 
DOCKED: ATOM     26  N   UNL d   1      -8.270   6.745 -15.986 -0.15 +0.01    -0.248 N 
DOCKED: ATOM     27  N   UNL d   1      -6.405   8.426 -14.588 -0.08 +0.03    -0.248 N 
DOCKED: ATOM     28  N   UNL d   1      -7.640   7.778 -12.064 +0.03 -0.01    -0.248 N 
DOCKED: ATOM     29 FE   UNL d   1      -7.953   7.262 -14.024 -0.04 +0.00    +0.000 Fe
DOCKED: ENDROOT
DOCKED: BRANCH   6  30
DOCKED: ATOM     30  C   UNL d   1     -12.030   4.861 -11.132 -0.08 +0.02    +0.052 C 
DOCKED: BRANCH  30  31
DOCKED: ATOM     31  C   UNL d   1     -11.495   3.630 -10.408 -0.13 +0.06    +0.115 C 
DOCKED: BRANCH  31  32
DOCKED: ATOM     32  C   UNL d   1     -11.930   3.636  -8.969 -0.09 +0.15    +0.139 C 
DOCKED: ATOM     33  O   UNL d   1     -12.322   2.609  -8.432 -0.41 -0.81    -0.650 OA
DOCKED: BRANCH  32  34
DOCKED: ATOM     34  O   UNL d   1     -11.893   4.775  -8.257 +0.13 -1.17    -0.776 OA
DOCKED: ATOM     35  H   UNL d   1     -11.037   5.112  -7.957 +0.02 +0.29    +0.167 HD
DOCKED: ENDBRANCH  32  34
DOCKED: ENDBRANCH  31  32
DOCKED: ENDBRANCH  30  31
DOCKED: ENDBRANCH   6  30
DOCKED: BRANCH  22  36
DOCKED: ATOM     36  C   UNL d   1      -7.924   7.222  -8.395 -0.20 +0.01    +0.052 C 
DOCKED: BRANCH  36  37
DOCKED: ATOM     37  C   UNL d   1      -7.867   5.706  -8.285 -0.08 +0.04    +0.115 C 
DOCKED: BRANCH  37  38
DOCKED: ATOM     38  C   UNL d   1      -9.013   5.181  -7.466 -0.09 +0.15    +0.139 C 
DOCKED: ATOM     39  O   UNL d   1      -9.236   3.982  -7.400 -0.28 -0.97    -0.650 OA
DOCKED: BRANCH  38  40
DOCKED: ATOM     40  O   UNL d   1      -9.807   6.037  -6.798 -0.45 -1.12    -0.776 OA
DOCKED: ATOM     41  H   UNL d   1     -10.705   6.194  -7.122 +0.03 +0.25    +0.167 HD
DOCKED: ENDBRANCH  38  40
DOCKED: ENDBRANCH  37  38
DOCKED: ENDBRANCH  36  37
DOCKED: ENDBRANCH  22  36
DOCKED: BRANCH  12  42
DOCKED: ATOM     42  C   UNL d   1      -7.318   6.426 -19.586 -0.18 -0.00    +0.004 C 
DOCKED: ATOM     43  C   UNL d   1      -6.890   5.307 -20.185 -0.24 -0.00    +0.012 C 
DOCKED: ENDBRANCH  12  42
DOCKED: BRANCH  17  44
DOCKED: ATOM     44  C   UNL d   1      -3.892  11.083 -14.084 -0.42 -0.00    +0.004 C 
DOCKED: ATOM     45  C   UNL d   1      -4.352  12.153 -13.429 -0.51 -0.00    +0.012 C 
DOCKED: ENDBRANCH  17  44
DOCKED: TORSDOF 10
DOCKED: TER
DOCKED: ENDMDL
________________________________________________________________________________


	BEGINNING GENETIC ALGORITHM DOCKING 91 of 100
Run: 91 Seed: 1247136407 675720011 [ Run 91 of 100 GA/GALS ]
Beginning LAMARCKIAN GENETIC ALGORITHM (LGA), with a maximum of 25000000 energy evaluations.

Final-Value: -11.235


	FINAL GENETIC ALGORITHM DOCKED STATE
	_______________________________________________


Detailed state:  trans -13.323 0.286 -6.947 quatxyzw 0.714823 0.022262 0.571972 0.401722 center -0.174 -0.001 -0.047 ntor 10 156.1469 174.5870 -115.9864 20.9332 92.8968 -36.8003 -176.9468 33.7007 -178.6441 -24.5218
State:	-13.323   0.286  -6.947   0.781  0.024  0.625 132.628    156.15  174.59 -115.99   20.93   92.90  -36.80 -176.95   33.70 -178.64  -24.52

DOCKED: MODEL       91
DOCKED: USER    Run = 91
DOCKED: USER    DPF = D:/Protein_go_brrr/autodock/final/mut_K82N/heme_Fe/dock.dpf
DOCKED: USER  
DOCKED: USER    Estimated Free Energy of Binding    =   -7.66 kcal/mol  [=(1)+(2)+(3)-(4)]
DOCKED: USER    Estimated Inhibition Constant, Ki   =    2.44 uM (micromolar)  [Temperature = 298.15 K]
DOCKED: USER    
DOCKED: USER    (1) Final Intermolecular Energy     =  -10.64 kcal/mol
DOCKED: USER        vdW + Hbond + desolv Energy     =   -6.74 kcal/mol
DOCKED: USER        Electrostatic Energy            =   -3.90 kcal/mol
DOCKED: USER    (2) Final Total Internal Energy     =   -0.59 kcal/mol
DOCKED: USER    (3) Torsional Free Energy           =   +2.98 kcal/mol
DOCKED: USER    (4) Unbound System's Energy  [=(2)] =   -0.59 kcal/mol
DOCKED: USER    
DOCKED: USER    
DOCKED: USER    NEWDPF move heme_Fe_opt.pdbqt
DOCKED: USER    NEWDPF about -0.174000 -0.001000 -0.047000
DOCKED: USER    NEWDPF tran0 -13.322800 0.285660 -6.947259
DOCKED: USER    NEWDPF quaternion0 0.714823 0.022262 0.571972 0.401722
DOCKED: USER    NEWDPF axisangle0 0.780578 0.024310 0.624586 132.628302
DOCKED: USER    NEWDPF quat0 0.780578 0.024310 0.624586 132.628302
DOCKED: USER    NEWDPF dihe0 156.15 174.59 -115.99 20.93 92.90 -36.80 -176.95 33.70 -178.64 -24.52 
DOCKED: USER  keepresnum = 1 
DOCKED: USER  
DOCKED: REMARK  10 active torsions:
DOCKED: REMARK  status: ('A' for Active; 'I' for Inactive)
DOCKED: REMARK    1  A    between atoms: C_6  and  C_10 
DOCKED: REMARK    2  A    between atoms: C_10  and  C_11 
DOCKED: REMARK    3  A    between atoms: C_11  and  C_12 
DOCKED: REMARK    4  A    between atoms: C_12  and  O_14 
DOCKED: REMARK    5  A    between atoms: C_17  and  C_20 
DOCKED: REMARK    6  A    between atoms: C_24  and  C_27 
DOCKED: REMARK    7  A    between atoms: C_31  and  C_34 
DOCKED: REMARK    8  A    between atoms: C_34  and  C_35 
DOCKED: REMARK    9  A    between atoms: C_35  and  C_36 
DOCKED: REMARK   10  A    between atoms: C_36  and  O_38 
DOCKED: USER                              x       y       z     vdW  Elec       q    Type
DOCKED: USER                           _______ _______ _______ _____ _____    ______ ____
DOCKED: ROOT
DOCKED: ATOM      1  C   UNL d   1     -13.609   1.492  -8.582 -0.08 +0.04    +0.064 C 
DOCKED: ATOM      2  C   UNL d   1     -14.139   2.062  -3.701 -0.08 +0.04    +0.064 A 
DOCKED: ATOM      3  C   UNL d   1     -11.564  -1.935  -3.025 -0.18 -0.01    +0.064 C 
DOCKED: ATOM      4  C   UNL d   1     -11.128  -2.563  -7.747 -0.27 +0.01    +0.064 C 
DOCKED: ATOM      5  C   UNL d   1     -14.068   1.977  -7.274 -0.06 +0.05    +0.066 A 
DOCKED: ATOM      6  C   UNL d   1     -14.926   3.048  -7.084 -0.05 -0.01    -0.021 A 
DOCKED: ATOM      7  C   UNL d   1     -15.069   3.208  -5.728 -0.07 -0.02    -0.025 A 
DOCKED: ATOM      8  C   UNL d   1     -14.293   2.227  -5.141 -0.06 +0.05    +0.066 A 
DOCKED: ATOM      9  C   UNL d   1     -15.921   4.235  -5.045 -0.04 +0.02    +0.051 C 
DOCKED: ATOM     10  C   UNL d   1     -13.443   1.090  -3.110 -0.09 +0.02    +0.066 A 
DOCKED: ATOM     11  C   UNL d   1     -13.220   1.024  -1.733 -0.12 -0.00    -0.021 A 
DOCKED: ATOM     12  C   UNL d   1     -12.465  -0.111  -1.513 -0.16 -0.00    +0.000 A 
DOCKED: ATOM     13  C   UNL d   1     -12.258  -0.680  -2.782 -0.12 +0.00    +0.070 A 
DOCKED: ATOM     14  C   UNL d   1     -13.646   2.031  -0.684 -0.13 +0.01    +0.052 C 
DOCKED: ATOM     15  C   UNL d   1     -11.317  -2.461  -4.247 -0.15 -0.01    +0.066 A 
DOCKED: ATOM     16  C   UNL d   1     -10.739  -3.710  -4.434 -0.20 +0.00    -0.021 A 
DOCKED: ATOM     17  C   UNL d   1     -10.610  -3.892  -5.795 -0.20 -0.00    +0.000 A 
DOCKED: ATOM     18  C   UNL d   1     -11.108  -2.745  -6.408 -0.15 +0.01    +0.070 A 
DOCKED: ATOM     19  C   UNL d   1     -10.302  -4.686  -3.375 -0.32 -0.02    +0.052 C 
DOCKED: ATOM     20  C   UNL d   1     -11.701  -1.397  -8.430 -0.23 +0.01    +0.066 A 
DOCKED: ATOM     21  C   UNL d   1     -11.551  -1.102  -9.793 -0.28 -0.01    -0.025 A 
DOCKED: ATOM     22  C   UNL d   1     -12.276   0.050 -10.011 -0.16 -0.01    -0.021 A 
DOCKED: ATOM     23  C   UNL d   1     -12.832   0.415  -8.779 -0.11 +0.03    +0.066 A 
DOCKED: ATOM     24  C   UNL d   1     -10.765  -1.857 -10.840 -0.25 +0.00    +0.051 C 
DOCKED: ATOM     25  N   UNL d   1     -13.693   1.474  -6.085 -0.07 -0.22    -0.248 N 
DOCKED: ATOM     26  N   UNL d   1     -12.846   0.056  -3.756 -0.07 -0.07    -0.248 N 
DOCKED: ATOM     27  N   UNL d   1     -11.584  -1.883  -5.460 -0.10 -0.03    -0.248 N 
DOCKED: ATOM     28  N   UNL d   1     -12.441  -0.447  -7.809 -0.08 -0.09    -0.248 N 
DOCKED: ATOM     29 FE   UNL d   1     -12.643  -0.197  -5.784 -0.02 +0.00    +0.000 Fe
DOCKED: ENDROOT
DOCKED: BRANCH   6  30
DOCKED: ATOM     30  C   UNL d   1     -15.593   3.866  -8.135 -0.02 +0.02    +0.052 C 
DOCKED: BRANCH  30  31
DOCKED: ATOM     31  C   UNL d   1     -14.717   5.048  -8.538 -0.02 +0.06    +0.115 C 
DOCKED: BRANCH  31  32
DOCKED: ATOM     32  C   UNL d   1     -13.402   5.000  -7.810 +0.02 +0.16    +0.139 C 
DOCKED: ATOM     33  O   UNL d   1     -12.431   4.452  -8.313 +0.02 -0.91    -0.650 OA
DOCKED: BRANCH  32  34
DOCKED: ATOM     34  O   UNL d   1     -13.283   5.561  -6.595 -0.25 -1.37    -0.776 OA
DOCKED: ATOM     35  H   UNL d   1     -13.892   6.269  -6.343 +0.01 +0.15    +0.167 HD
DOCKED: ENDBRANCH  32  34
DOCKED: ENDBRANCH  31  32
DOCKED: ENDBRANCH  30  31
DOCKED: ENDBRANCH   6  30
DOCKED: BRANCH  22  36
DOCKED: ATOM     36  C   UNL d   1     -12.387   0.785 -11.321 -0.17 +0.02    +0.052 C 
DOCKED: BRANCH  36  37
DOCKED: ATOM     37  C   UNL d   1     -13.265  -0.006 -12.280 -0.14 +0.05    +0.115 C 
DOCKED: BRANCH  37  38
DOCKED: ATOM     38  C   UNL d   1     -12.810   0.176 -13.701 -0.08 +0.16    +0.139 C 
DOCKED: ATOM     39  O   UNL d   1     -12.387   1.254 -14.089 -0.45 -1.05    -0.650 OA
DOCKED: BRANCH  38  40
DOCKED: ATOM     40  O   UNL d   1     -12.870  -0.856 -14.562 -0.24 -1.09    -0.776 OA
DOCKED: ATOM     41  H   UNL d   1     -13.129  -1.728 -14.233 +0.04 +0.11    +0.167 HD
DOCKED: ENDBRANCH  38  40
DOCKED: ENDBRANCH  37  38
DOCKED: ENDBRANCH  36  37
DOCKED: ENDBRANCH  22  36
DOCKED: BRANCH  12  42
DOCKED: ATOM     42  C   UNL d   1     -11.981  -0.571  -0.175 -0.27 -0.00    +0.004 C 
DOCKED: ATOM     43  C   UNL d   1     -11.054   0.122   0.499 -0.36 -0.00    +0.012 C 
DOCKED: ENDBRANCH  12  42
DOCKED: BRANCH  17  44
DOCKED: ATOM     44  C   UNL d   1     -10.063  -5.093  -6.465 -0.48 -0.00    +0.004 C 
DOCKED: ATOM     45  C   UNL d   1     -10.780  -6.219  -6.544 -0.44 -0.00    +0.012 C 
DOCKED: ENDBRANCH  17  44
DOCKED: TORSDOF 10
DOCKED: TER
DOCKED: ENDMDL
________________________________________________________________________________


	BEGINNING GENETIC ALGORITHM DOCKING 92 of 100
Run: 92 Seed: 1208337086 785107148 [ Run 92 of 100 GA/GALS ]
Beginning LAMARCKIAN GENETIC ALGORITHM (LGA), with a maximum of 25000000 energy evaluations.

Final-Value: -11.296


	FINAL GENETIC ALGORITHM DOCKED STATE
	_______________________________________________


Detailed state:  trans -11.262 5.516 -9.082 quatxyzw -0.728857 -0.471510 0.049744 -0.493934 center -0.174 -0.001 -0.047 ntor 10 -143.5928 -135.3830 -139.9275 6.5911 -107.3540 -115.8259 -145.4659 -28.2556 -29.1084 -163.4990
State:	-11.262   5.516  -9.082  -0.838 -0.542  0.057 -120.801   -143.59 -135.38 -139.93    6.59 -107.35 -115.83 -145.47  -28.26  -29.11 -163.50

DOCKED: MODEL       92
DOCKED: USER    Run = 92
DOCKED: USER    DPF = D:/Protein_go_brrr/autodock/final/mut_K82N/heme_Fe/dock.dpf
DOCKED: USER  
DOCKED: USER    Estimated Free Energy of Binding    =   -7.65 kcal/mol  [=(1)+(2)+(3)-(4)]
DOCKED: USER    Estimated Inhibition Constant, Ki   =    2.46 uM (micromolar)  [Temperature = 298.15 K]
DOCKED: USER    
DOCKED: USER    (1) Final Intermolecular Energy     =  -10.64 kcal/mol
DOCKED: USER        vdW + Hbond + desolv Energy     =   -7.25 kcal/mol
DOCKED: USER        Electrostatic Energy            =   -3.38 kcal/mol
DOCKED: USER    (2) Final Total Internal Energy     =   -0.66 kcal/mol
DOCKED: USER    (3) Torsional Free Energy           =   +2.98 kcal/mol
DOCKED: USER    (4) Unbound System's Energy  [=(2)] =   -0.66 kcal/mol
DOCKED: USER    
DOCKED: USER    
DOCKED: USER    NEWDPF move heme_Fe_opt.pdbqt
DOCKED: USER    NEWDPF about -0.174000 -0.001000 -0.047000
DOCKED: USER    NEWDPF tran0 -11.262271 5.516189 -9.081670
DOCKED: USER    NEWDPF quaternion0 -0.728857 -0.471510 0.049744 -0.493934
DOCKED: USER    NEWDPF axisangle0 -0.838249 -0.542278 0.057210 -120.801042
DOCKED: USER    NEWDPF quat0 -0.838249 -0.542278 0.057210 -120.801042
DOCKED: USER    NEWDPF dihe0 -143.59 -135.38 -139.93 6.59 -107.35 -115.83 -145.47 -28.26 -29.11 -163.50 
DOCKED: USER  keepresnum = 1 
DOCKED: USER  
DOCKED: REMARK  10 active torsions:
DOCKED: REMARK  status: ('A' for Active; 'I' for Inactive)
DOCKED: REMARK    1  A    between atoms: C_6  and  C_10 
DOCKED: REMARK    2  A    between atoms: C_10  and  C_11 
DOCKED: REMARK    3  A    between atoms: C_11  and  C_12 
DOCKED: REMARK    4  A    between atoms: C_12  and  O_14 
DOCKED: REMARK    5  A    between atoms: C_17  and  C_20 
DOCKED: REMARK    6  A    between atoms: C_24  and  C_27 
DOCKED: REMARK    7  A    between atoms: C_31  and  C_34 
DOCKED: REMARK    8  A    between atoms: C_34  and  C_35 
DOCKED: REMARK    9  A    between atoms: C_35  and  C_36 
DOCKED: REMARK   10  A    between atoms: C_36  and  O_38 
DOCKED: USER                              x       y       z     vdW  Elec       q    Type
DOCKED: USER                           _______ _______ _______ _____ _____    ______ ____
DOCKED: ROOT
DOCKED: ATOM      1  C   UNL d   1     -12.677   4.419 -10.085 -0.07 +0.03    +0.064 C 
DOCKED: ATOM      2  C   UNL d   1     -12.684   7.202  -6.001 -0.09 +0.06    +0.064 A 
DOCKED: ATOM      3  C   UNL d   1      -8.458   9.052  -7.336 -0.27 +0.01    +0.064 C 
DOCKED: ATOM      4  C   UNL d   1      -8.380   6.290 -11.242 -0.06 +0.01    +0.064 C 
DOCKED: ATOM      5  C   UNL d   1     -13.031   4.970  -8.770 -0.06 +0.05    +0.066 A 
DOCKED: ATOM      6  C   UNL d   1     -14.130   4.584  -8.021 -0.05 -0.02    -0.021 A 
DOCKED: ATOM      7  C   UNL d   1     -14.134   5.360  -6.888 -0.04 -0.03    -0.025 A 
DOCKED: ATOM      8  C   UNL d   1     -13.035   6.191  -6.990 +0.00 +0.08    +0.066 A 
DOCKED: ATOM      9  C   UNL d   1     -15.128   5.286  -5.771 -0.06 +0.03    +0.051 C 
DOCKED: ATOM     10  C   UNL d   1     -11.599   7.977  -6.046 -0.13 +0.04    +0.066 A 
DOCKED: ATOM     11  C   UNL d   1     -11.350   9.015  -5.145 -0.16 -0.01    -0.021 A 
DOCKED: ATOM     12  C   UNL d   1     -10.145   9.576  -5.519 -0.29 +0.00    +0.000 A 
DOCKED: ATOM     13  C   UNL d   1      -9.721   8.848  -6.644 -0.20 +0.03    +0.070 A 
DOCKED: ATOM     14  C   UNL d   1     -12.250   9.495  -4.024 -0.14 +0.01    +0.052 C 
DOCKED: ATOM     15  C   UNL d   1      -8.068   8.389  -8.451 -0.22 +0.01    +0.066 A 
DOCKED: ATOM     16  C   UNL d   1      -6.812   8.542  -9.024 -0.33 -0.00    -0.021 A 
DOCKED: ATOM     17  C   UNL d   1      -6.789   7.749 -10.153 -0.25 +0.00    +0.000 A 
DOCKED: ATOM     18  C   UNL d   1      -8.035   7.133 -10.244 -0.15 +0.01    +0.070 A 
DOCKED: ATOM     19  C   UNL d   1      -5.685   9.417  -8.547 -0.30 -0.00    +0.052 C 
DOCKED: ATOM     20  C   UNL d   1      -9.659   5.577 -11.338 -0.16 +0.02    +0.066 A 
DOCKED: ATOM     21  C   UNL d   1     -10.106   4.863 -12.458 -0.21 -0.01    -0.025 A 
DOCKED: ATOM     22  C   UNL d   1     -11.327   4.327 -12.102 -0.14 -0.01    -0.021 A 
DOCKED: ATOM     23  C   UNL d   1     -11.578   4.739 -10.787 -0.10 +0.03    +0.066 A 
DOCKED: ATOM     24  C   UNL d   1      -9.431   4.690 -13.798 -0.21 +0.01    +0.051 C 
DOCKED: ATOM     25  N   UNL d   1     -12.360   5.944  -8.131 -0.05 -0.25    -0.248 N 
DOCKED: ATOM     26  N   UNL d   1     -10.611   7.880  -6.971 -0.10 -0.15    -0.248 N 
DOCKED: ATOM     27  N   UNL d   1      -8.807   7.492  -9.175 -0.07 -0.06    -0.248 N 
DOCKED: ATOM     28  N   UNL d   1     -10.578   5.538 -10.342 -0.05 -0.10    -0.248 N 
DOCKED: ATOM     29 FE   UNL d   1     -10.593   6.709  -8.658 -0.02 +0.00    +0.000 Fe
DOCKED: ENDROOT
DOCKED: BRANCH   6  30
DOCKED: ATOM     30  C   UNL d   1     -15.117   3.517  -8.352 -0.03 +0.02    +0.052 C 
DOCKED: BRANCH  30  31
DOCKED: ATOM     31  C   UNL d   1     -14.427   2.163  -8.479 -0.04 +0.06    +0.115 C 
DOCKED: BRANCH  31  32
DOCKED: ATOM     32  C   UNL d   1     -13.286   2.060  -7.505 +0.07 +0.16    +0.139 C 
DOCKED: ATOM     33  O   UNL d   1     -12.128   2.109  -7.894 -0.55 -0.99    -0.650 OA
DOCKED: BRANCH  32  34
DOCKED: ATOM     34  O   UNL d   1     -13.531   1.913  -6.192 -0.14 -0.97    -0.776 OA
DOCKED: ATOM     35  H   UNL d   1     -14.284   1.373  -5.913 +0.01 +0.10    +0.167 HD
DOCKED: ENDBRANCH  32  34
DOCKED: ENDBRANCH  31  32
DOCKED: ENDBRANCH  30  31
DOCKED: ENDBRANCH   6  30
DOCKED: BRANCH  22  36
DOCKED: ATOM     36  C   UNL d   1     -12.222   3.507 -12.993 -0.16 +0.02    +0.052 C 
DOCKED: BRANCH  36  37
DOCKED: ATOM     37  C   UNL d   1     -12.744   4.372 -14.131 -0.11 +0.05    +0.115 C 
DOCKED: BRANCH  37  38
DOCKED: ATOM     38  C   UNL d   1     -13.014   3.545 -15.356 -0.09 +0.15    +0.139 C 
DOCKED: ATOM     39  O   UNL d   1     -12.377   3.725 -16.384 -0.33 -0.79    -0.650 OA
DOCKED: BRANCH  38  40
DOCKED: ATOM     40  O   UNL d   1     -13.967   2.597 -15.330 -0.18 -1.15    -0.776 OA
DOCKED: ATOM     41  H   UNL d   1     -14.822   2.801 -14.925 +0.01 +0.13    +0.167 HD
DOCKED: ENDBRANCH  38  40
DOCKED: ENDBRANCH  37  38
DOCKED: ENDBRANCH  36  37
DOCKED: ENDBRANCH  22  36
DOCKED: BRANCH  12  42
DOCKED: ATOM     42  C   UNL d   1      -9.490  10.733  -4.835 -0.50 +0.00    +0.004 C 
DOCKED: ATOM     43  C   UNL d   1      -9.710  11.990  -5.243 -0.45 +0.00    +0.012 C 
DOCKED: ENDBRANCH  12  42
DOCKED: BRANCH  17  44
DOCKED: ATOM     44  C   UNL d   1      -5.642   7.575 -11.073 -0.30 -0.00    +0.004 C 
DOCKED: ATOM     45  C   UNL d   1      -4.480   7.080 -10.633 -0.49 -0.00    +0.012 C 
DOCKED: ENDBRANCH  17  44
DOCKED: TORSDOF 10
DOCKED: TER
DOCKED: ENDMDL
________________________________________________________________________________


	BEGINNING GENETIC ALGORITHM DOCKING 93 of 100
Run: 93 Seed: 181003904 1370855714 [ Run 93 of 100 GA/GALS ]
Beginning LAMARCKIAN GENETIC ALGORITHM (LGA), with a maximum of 25000000 energy evaluations.

Final-Value: -12.084


	FINAL GENETIC ALGORITHM DOCKED STATE
	_______________________________________________


Detailed state:  trans -8.330 6.767 -12.353 quatxyzw -0.715446 0.021961 0.534320 -0.449618 center -0.174 -0.001 -0.047 ntor 10 -141.5241 140.3032 15.0120 -170.2344 -4.2363 115.5495 -5.7061 -13.3201 -141.0843 37.2671
State:	 -8.330   6.767 -12.353  -0.801  0.025  0.598 -126.562   -141.52  140.30   15.01 -170.23   -4.24  115.55   -5.71  -13.32 -141.08   37.27

DOCKED: MODEL       93
DOCKED: USER    Run = 93
DOCKED: USER    DPF = D:/Protein_go_brrr/autodock/final/mut_K82N/heme_Fe/dock.dpf
DOCKED: USER  
DOCKED: USER    Estimated Free Energy of Binding    =   -7.76 kcal/mol  [=(1)+(2)+(3)-(4)]
DOCKED: USER    Estimated Inhibition Constant, Ki   =    2.06 uM (micromolar)  [Temperature = 298.15 K]
DOCKED: USER    
DOCKED: USER    (1) Final Intermolecular Energy     =  -10.74 kcal/mol
DOCKED: USER        vdW + Hbond + desolv Energy     =   -7.77 kcal/mol
DOCKED: USER        Electrostatic Energy            =   -2.97 kcal/mol
DOCKED: USER    (2) Final Total Internal Energy     =   -1.34 kcal/mol
DOCKED: USER    (3) Torsional Free Energy           =   +2.98 kcal/mol
DOCKED: USER    (4) Unbound System's Energy  [=(2)] =   -1.34 kcal/mol
DOCKED: USER    
DOCKED: USER    
DOCKED: USER    NEWDPF move heme_Fe_opt.pdbqt
DOCKED: USER    NEWDPF about -0.174000 -0.001000 -0.047000
DOCKED: USER    NEWDPF tran0 -8.330139 6.766827 -12.353306
DOCKED: USER    NEWDPF quaternion0 -0.715446 0.021961 0.534320 -0.449618
DOCKED: USER    NEWDPF axisangle0 -0.800974 0.024587 0.598194 -126.561608
DOCKED: USER    NEWDPF quat0 -0.800974 0.024587 0.598194 -126.561608
DOCKED: USER    NEWDPF dihe0 -141.52 140.30 15.01 -170.23 -4.24 115.55 -5.71 -13.32 -141.08 37.27 
DOCKED: USER  keepresnum = 1 
DOCKED: USER  
DOCKED: REMARK  10 active torsions:
DOCKED: REMARK  status: ('A' for Active; 'I' for Inactive)
DOCKED: REMARK    1  A    between atoms: C_6  and  C_10 
DOCKED: REMARK    2  A    between atoms: C_10  and  C_11 
DOCKED: REMARK    3  A    between atoms: C_11  and  C_12 
DOCKED: REMARK    4  A    between atoms: C_12  and  O_14 
DOCKED: REMARK    5  A    between atoms: C_17  and  C_20 
DOCKED: REMARK    6  A    between atoms: C_24  and  C_27 
DOCKED: REMARK    7  A    between atoms: C_31  and  C_34 
DOCKED: REMARK    8  A    between atoms: C_34  and  C_35 
DOCKED: REMARK    9  A    between atoms: C_35  and  C_36 
DOCKED: REMARK   10  A    between atoms: C_36  and  O_38 
DOCKED: USER                              x       y       z     vdW  Elec       q    Type
DOCKED: USER                           _______ _______ _______ _____ _____    ______ ____
DOCKED: ROOT
DOCKED: ATOM      1  C   UNL d   1      -9.544   6.267 -10.776 -0.14 +0.02    +0.064 C 
DOCKED: ATOM      2  C   UNL d   1      -6.134   9.755 -11.575 -0.25 -0.01    +0.064 A 
DOCKED: ATOM      3  C   UNL d   1      -6.359   8.801 -16.276 -0.13 -0.01    +0.064 C 
DOCKED: ATOM      4  C   UNL d   1      -9.582   5.349 -15.515 -0.29 +0.01    +0.064 C 
DOCKED: ATOM      5  C   UNL d   1      -8.502   7.280 -10.556 -0.12 +0.01    +0.066 A 
DOCKED: ATOM      6  C   UNL d   1      -8.081   7.724  -9.313 -0.18 -0.00    -0.021 A 
DOCKED: ATOM      7  C   UNL d   1      -7.137   8.695  -9.536 -0.26 -0.00    -0.025 A 
DOCKED: ATOM      8  C   UNL d   1      -7.018   8.807 -10.908 -0.19 -0.00    +0.066 A 
DOCKED: ATOM      9  C   UNL d   1      -6.385   9.453  -8.485 -0.33 -0.00    +0.051 C 
DOCKED: ATOM     10  C   UNL d   1      -5.958   9.843 -12.894 -0.20 -0.01    +0.066 A 
DOCKED: ATOM     11  C   UNL d   1      -5.192  10.837 -13.508 -0.27 +0.00    -0.021 A 
DOCKED: ATOM     12  C   UNL d   1      -5.255  10.595 -14.866 -0.14 -0.00    +0.000 A 
DOCKED: ATOM     13  C   UNL d   1      -6.070   9.458 -15.012 -0.10 -0.01    +0.070 A 
DOCKED: ATOM     14  C   UNL d   1      -4.492  12.003 -12.840 -0.47 -0.01    +0.052 C 
DOCKED: ATOM     15  C   UNL d   1      -7.184   7.738 -16.427 -0.17 -0.01    +0.066 A 
DOCKED: ATOM     16  C   UNL d   1      -7.356   7.077 -17.637 -0.16 +0.00    -0.021 A 
DOCKED: ATOM     17  C   UNL d   1      -8.288   6.083 -17.420 -0.21 -0.00    +0.000 A 
DOCKED: ATOM     18  C   UNL d   1      -8.667   6.164 -16.082 -0.24 +0.00    +0.070 A 
DOCKED: ATOM     19  C   UNL d   1      -6.691   7.381 -18.952 -0.14 -0.01    +0.052 C 
DOCKED: ATOM     20  C   UNL d   1      -9.960   5.365 -14.097 -0.21 +0.01    +0.066 A 
DOCKED: ATOM     21  C   UNL d   1     -11.042   4.669 -13.539 -0.18 -0.01    -0.025 A 
DOCKED: ATOM     22  C   UNL d   1     -11.005   4.934 -12.186 -0.15 -0.01    -0.021 A 
DOCKED: ATOM     23  C   UNL d   1      -9.911   5.783 -11.973 -0.15 +0.01    +0.066 A 
DOCKED: ATOM     24  C   UNL d   1     -12.065   3.801 -14.235 -0.20 +0.03    +0.051 C 
DOCKED: ATOM     25  N   UNL d   1      -7.843   7.937 -11.525 -0.07 -0.01    -0.248 N 
DOCKED: ATOM     26  N   UNL d   1      -6.506   9.005 -13.810 -0.08 +0.02    -0.248 N 
DOCKED: ATOM     27  N   UNL d   1      -7.957   7.153 -15.460 -0.09 +0.01    -0.248 N 
DOCKED: ATOM     28  N   UNL d   1      -9.305   6.077 -13.149 -0.07 -0.03    -0.248 N 
DOCKED: ATOM     29 FE   UNL d   1      -7.906   7.540 -13.481 -0.04 +0.00    +0.000 Fe
DOCKED: ENDROOT
DOCKED: BRANCH   6  30
DOCKED: ATOM     30  C   UNL d   1      -8.536   7.237  -7.980 -0.14 +0.02    +0.052 C 
DOCKED: BRANCH  30  31
DOCKED: ATOM     31  C   UNL d   1     -10.058   7.256  -7.888 -0.14 +0.07    +0.115 C 
DOCKED: BRANCH  31  32
DOCKED: ATOM     32  C   UNL d   1     -10.515   6.636  -6.597 -0.12 +0.17    +0.139 C 
DOCKED: ATOM     33  O   UNL d   1      -9.709   6.132  -5.828 -0.43 -0.95    -0.650 OA
DOCKED: BRANCH  32  34
DOCKED: ATOM     34  O   UNL d   1     -11.820   6.630  -6.276 -0.16 -1.11    -0.776 OA
DOCKED: ATOM     35  H   UNL d   1     -12.474   6.478  -6.973 +0.01 +0.20    +0.167 HD
DOCKED: ENDBRANCH  32  34
DOCKED: ENDBRANCH  31  32
DOCKED: ENDBRANCH  30  31
DOCKED: ENDBRANCH   6  30
DOCKED: BRANCH  22  36
DOCKED: ATOM     36  C   UNL d   1     -11.995   4.440 -11.164 -0.11 +0.02    +0.052 C 
DOCKED: BRANCH  36  37
DOCKED: ATOM     37  C   UNL d   1     -11.253   3.911  -9.945 -0.14 +0.07    +0.115 C 
DOCKED: BRANCH  37  38
DOCKED: ATOM     38  C   UNL d   1     -12.188   3.730  -8.783 -0.07 +0.16    +0.139 C 
DOCKED: ATOM     39  O   UNL d   1     -12.409   2.619  -8.325 -0.46 -0.85    -0.650 OA
DOCKED: BRANCH  38  40
DOCKED: ATOM     40  O   UNL d   1     -12.795   4.799  -8.238 +0.02 -0.95    -0.776 OA
DOCKED: ATOM     41  H   UNL d   1     -12.295   5.620  -8.131 +0.01 +0.19    +0.167 HD
DOCKED: ENDBRANCH  38  40
DOCKED: ENDBRANCH  37  38
DOCKED: ENDBRANCH  36  37
DOCKED: ENDBRANCH  22  36
DOCKED: BRANCH  12  42
DOCKED: ATOM     42  C   UNL d   1      -4.585  11.423 -15.916 -0.16 -0.00    +0.004 C 
DOCKED: ATOM     43  C   UNL d   1      -3.251  11.532 -15.961 -0.26 -0.01    +0.012 C 
DOCKED: ENDBRANCH  12  42
DOCKED: BRANCH  17  44
DOCKED: ATOM     44  C   UNL d   1      -8.770   5.107 -18.423 -0.21 +0.00    +0.004 C 
DOCKED: ATOM     45  C   UNL d   1     -10.051   5.092 -18.804 -0.19 +0.00    +0.012 C 
DOCKED: ENDBRANCH  17  44
DOCKED: TORSDOF 10
DOCKED: TER
DOCKED: ENDMDL
________________________________________________________________________________


	BEGINNING GENETIC ALGORITHM DOCKING 94 of 100
Run: 94 Seed: 2017416499 419579861 [ Run 94 of 100 GA/GALS ]
Beginning LAMARCKIAN GENETIC ALGORITHM (LGA), with a maximum of 25000000 energy evaluations.

Final-Value: -11.264


	FINAL GENETIC ALGORITHM DOCKED STATE
	_______________________________________________


Detailed state:  trans -12.527 0.521 -6.606 quatxyzw -0.440700 0.607182 0.106588 0.652497 center -0.174 -0.001 -0.047 ntor 10 -174.8663 118.3068 59.4010 22.7302 93.1854 152.3420 36.3369 128.4148 148.5934 23.3421
State:	-12.527   0.521  -6.606  -0.582  0.801  0.141 98.540   -174.87  118.31   59.40   22.73   93.19  152.34   36.34  128.41  148.59   23.34

DOCKED: MODEL       94
DOCKED: USER    Run = 94
DOCKED: USER    DPF = D:/Protein_go_brrr/autodock/final/mut_K82N/heme_Fe/dock.dpf
DOCKED: USER  
DOCKED: USER    Estimated Free Energy of Binding    =   -7.65 kcal/mol  [=(1)+(2)+(3)-(4)]
DOCKED: USER    Estimated Inhibition Constant, Ki   =    2.46 uM (micromolar)  [Temperature = 298.15 K]
DOCKED: USER    
DOCKED: USER    (1) Final Intermolecular Energy     =  -10.63 kcal/mol
DOCKED: USER        vdW + Hbond + desolv Energy     =   -7.42 kcal/mol
DOCKED: USER        Electrostatic Energy            =   -3.21 kcal/mol
DOCKED: USER    (2) Final Total Internal Energy     =   -0.63 kcal/mol
DOCKED: USER    (3) Torsional Free Energy           =   +2.98 kcal/mol
DOCKED: USER    (4) Unbound System's Energy  [=(2)] =   -0.63 kcal/mol
DOCKED: USER    
DOCKED: USER    
DOCKED: USER    NEWDPF move heme_Fe_opt.pdbqt
DOCKED: USER    NEWDPF about -0.174000 -0.001000 -0.047000
DOCKED: USER    NEWDPF tran0 -12.527132 0.521094 -6.606283
DOCKED: USER    NEWDPF quaternion0 -0.440700 0.607182 0.106588 0.652497
DOCKED: USER    NEWDPF axisangle0 -0.581559 0.801252 0.140656 98.539706
DOCKED: USER    NEWDPF quat0 -0.581559 0.801252 0.140656 98.539706
DOCKED: USER    NEWDPF dihe0 -174.87 118.31 59.40 22.73 93.19 152.34 36.34 128.41 148.59 23.34 
DOCKED: USER  keepresnum = 1 
DOCKED: USER  
DOCKED: REMARK  10 active torsions:
DOCKED: REMARK  status: ('A' for Active; 'I' for Inactive)
DOCKED: REMARK    1  A    between atoms: C_6  and  C_10 
DOCKED: REMARK    2  A    between atoms: C_10  and  C_11 
DOCKED: REMARK    3  A    between atoms: C_11  and  C_12 
DOCKED: REMARK    4  A    between atoms: C_12  and  O_14 
DOCKED: REMARK    5  A    between atoms: C_17  and  C_20 
DOCKED: REMARK    6  A    between atoms: C_24  and  C_27 
DOCKED: REMARK    7  A    between atoms: C_31  and  C_34 
DOCKED: REMARK    8  A    between atoms: C_34  and  C_35 
DOCKED: REMARK    9  A    between atoms: C_35  and  C_36 
DOCKED: REMARK   10  A    between atoms: C_36  and  O_38 
DOCKED: USER                              x       y       z     vdW  Elec       q    Type
DOCKED: USER                           _______ _______ _______ _____ _____    ______ ____
DOCKED: ROOT
DOCKED: ATOM      1  C   UNL d   1     -13.451   1.585  -8.098 -0.09 +0.05    +0.064 C 
DOCKED: ATOM      2  C   UNL d   1     -11.085  -2.749  -7.866 -0.27 +0.01    +0.064 A 
DOCKED: ATOM      3  C   UNL d   1     -11.438  -2.606  -3.078 -0.19 -0.02    +0.064 C 
DOCKED: ATOM      4  C   UNL d   1     -13.635   1.639  -3.275 -0.07 +0.03    +0.064 C 
DOCKED: ATOM      5  C   UNL d   1     -12.678   0.392  -8.473 -0.12 +0.03    +0.066 A 
DOCKED: ATOM      6  C   UNL d   1     -12.283   0.079  -9.763 -0.16 -0.01    -0.021 A 
DOCKED: ATOM      7  C   UNL d   1     -11.630  -1.127  -9.698 -0.28 -0.01    -0.025 A 
DOCKED: ATOM      8  C   UNL d   1     -11.651  -1.503  -8.369 -0.23 +0.01    +0.066 A 
DOCKED: ATOM      9  C   UNL d   1     -11.008  -1.857 -10.849 -0.29 +0.01    +0.051 C 
DOCKED: ATOM     10  C   UNL d   1     -11.041  -3.109  -6.582 -0.18 +0.00    +0.066 A 
DOCKED: ATOM     11  C   UNL d   1     -10.597  -4.358  -6.143 -0.29 +0.00    -0.021 A 
DOCKED: ATOM     12  C   UNL d   1     -10.705  -4.349  -4.766 -0.24 -0.00    +0.000 A 
DOCKED: ATOM     13  C   UNL d   1     -11.222  -3.084  -4.435 -0.16 -0.01    +0.070 A 
DOCKED: ATOM     14  C   UNL d   1     -10.157  -5.530  -6.997 -0.43 +0.00    +0.052 C 
DOCKED: ATOM     15  C   UNL d   1     -11.984  -1.410  -2.755 -0.12 -0.01    +0.066 A 
DOCKED: ATOM     16  C   UNL d   1     -12.082  -0.949  -1.449 -0.17 +0.01    -0.021 A 
DOCKED: ATOM     17  C   UNL d   1     -12.719   0.274  -1.503 -0.15 +0.00    +0.000 A 
DOCKED: ATOM     18  C   UNL d   1     -12.998   0.528  -2.843 -0.11 +0.02    +0.070 A 
DOCKED: ATOM     19  C   UNL d   1     -11.620  -1.639  -0.194 -0.27 -0.04    +0.052 C 
DOCKED: ATOM     20  C   UNL d   1     -13.892   1.969  -4.682 +0.04 +0.06    +0.066 A 
DOCKED: ATOM     21  C   UNL d   1     -14.720   3.007  -5.132 -0.08 -0.02    -0.025 A 
DOCKED: ATOM     22  C   UNL d   1     -14.642   2.982  -6.509 -0.07 -0.02    -0.021 A 
DOCKED: ATOM     23  C   UNL d   1     -13.780   1.931  -6.844 -0.03 +0.07    +0.066 A 
DOCKED: ATOM     24  C   UNL d   1     -15.547   3.975  -4.318 -0.06 +0.02    +0.051 C 
DOCKED: ATOM     25  N   UNL d   1     -12.281  -0.572  -7.625 -0.09 -0.08    -0.248 N 
DOCKED: ATOM     26  N   UNL d   1     -11.436  -2.332  -5.542 -0.10 -0.01    -0.248 N 
DOCKED: ATOM     27  N   UNL d   1     -12.508  -0.485  -3.618 -0.06 -0.04    -0.248 N 
DOCKED: ATOM     28  N   UNL d   1     -13.361   1.289  -5.726 -0.07 -0.23    -0.248 N 
DOCKED: ATOM     29 FE   UNL d   1     -12.399  -0.520  -5.633 -0.03 +0.00    +0.000 Fe
DOCKED: ENDROOT
DOCKED: BRANCH   6  30
DOCKED: ATOM     30  C   UNL d   1     -12.496   0.892 -10.994 -0.15 +0.02    +0.052 C 
DOCKED: BRANCH  30  31
DOCKED: ATOM     31  C   UNL d   1     -13.272   0.098 -12.039 -0.13 +0.05    +0.115 C 
DOCKED: BRANCH  31  32
DOCKED: ATOM     32  C   UNL d   1     -12.776   0.421 -13.421 -0.14 +0.13    +0.139 C 
DOCKED: ATOM     33  O   UNL d   1     -11.906  -0.259 -13.946 -0.52 -0.75    -0.650 OA
DOCKED: BRANCH  32  34
DOCKED: ATOM     34  O   UNL d   1     -13.287   1.466 -14.094 -0.30 -1.07    -0.776 OA
DOCKED: ATOM     35  H   UNL d   1     -13.920   2.047 -13.649 +0.02 +0.13    +0.167 HD
DOCKED: ENDBRANCH  32  34
DOCKED: ENDBRANCH  31  32
DOCKED: ENDBRANCH  30  31
DOCKED: ENDBRANCH   6  30
DOCKED: BRANCH  22  36
DOCKED: ATOM     36  C   UNL d   1     -15.395   3.886  -7.450 -0.04 +0.03    +0.052 C 
DOCKED: BRANCH  36  37
DOCKED: ATOM     37  C   UNL d   1     -14.410   4.675  -8.301 -0.04 +0.07    +0.115 C 
DOCKED: BRANCH  37  38
DOCKED: ATOM     38  C   UNL d   1     -13.395   5.374  -7.442 +0.05 +0.17    +0.139 C 
DOCKED: ATOM     39  O   UNL d   1     -12.278   5.623  -7.872 +0.00 -0.86    -0.650 OA
DOCKED: BRANCH  38  40
DOCKED: ATOM     40  O   UNL d   1     -13.711   5.729  -6.184 -0.49 -1.04    -0.776 OA
DOCKED: ATOM     41  H   UNL d   1     -14.430   6.360  -6.040 +0.01 +0.11    +0.167 HD
DOCKED: ENDBRANCH  38  40
DOCKED: ENDBRANCH  37  38
DOCKED: ENDBRANCH  36  37
DOCKED: ENDBRANCH  22  36
DOCKED: BRANCH  12  42
DOCKED: ATOM     42  C   UNL d   1     -10.347  -5.493  -3.872 -0.34 -0.00    +0.004 C 
DOCKED: ATOM     43  C   UNL d   1      -9.246  -5.453  -3.110 -0.52 -0.01    +0.012 C 
DOCKED: ENDBRANCH  12  42
DOCKED: BRANCH  17  44
DOCKED: ATOM     44  C   UNL d   1     -13.021   1.151  -0.349 -0.17 +0.00    +0.004 C 
DOCKED: ATOM     45  C   UNL d   1     -12.061   1.886   0.222 -0.31 +0.00    +0.012 C 
DOCKED: ENDBRANCH  17  44
DOCKED: TORSDOF 10
DOCKED: TER
DOCKED: ENDMDL
________________________________________________________________________________


	BEGINNING GENETIC ALGORITHM DOCKING 95 of 100
Run: 95 Seed: 650978435 275081507 [ Run 95 of 100 GA/GALS ]
Beginning LAMARCKIAN GENETIC ALGORITHM (LGA), with a maximum of 25000000 energy evaluations.

Final-Value: -11.001


	FINAL GENETIC ALGORITHM DOCKED STATE
	_______________________________________________


Detailed state:  trans -8.435 6.478 -13.622 quatxyzw 0.709182 0.210780 -0.392574 0.546369 center -0.174 -0.001 -0.047 ntor 10 -101.6336 132.5810 81.7666 15.3616 -143.4693 29.6695 57.6032 -71.4036 167.2955 180.0000
State:	 -8.435   6.478 -13.622   0.847  0.252 -0.469 113.764   -101.63  132.58   81.77   15.36 -143.47   29.67   57.60  -71.40  167.30  180.00

DOCKED: MODEL       95
DOCKED: USER    Run = 95
DOCKED: USER    DPF = D:/Protein_go_brrr/autodock/final/mut_K82N/heme_Fe/dock.dpf
DOCKED: USER  
DOCKED: USER    Estimated Free Energy of Binding    =   -7.33 kcal/mol  [=(1)+(2)+(3)-(4)]
DOCKED: USER    Estimated Inhibition Constant, Ki   =    4.21 uM (micromolar)  [Temperature = 298.15 K]
DOCKED: USER    
DOCKED: USER    (1) Final Intermolecular Energy     =  -10.32 kcal/mol
DOCKED: USER        vdW + Hbond + desolv Energy     =   -7.04 kcal/mol
DOCKED: USER        Electrostatic Energy            =   -3.27 kcal/mol
DOCKED: USER    (2) Final Total Internal Energy     =   -0.68 kcal/mol
DOCKED: USER    (3) Torsional Free Energy           =   +2.98 kcal/mol
DOCKED: USER    (4) Unbound System's Energy  [=(2)] =   -0.68 kcal/mol
DOCKED: USER    
DOCKED: USER    
DOCKED: USER    NEWDPF move heme_Fe_opt.pdbqt
DOCKED: USER    NEWDPF about -0.174000 -0.001000 -0.047000
DOCKED: USER    NEWDPF tran0 -8.434759 6.478109 -13.622382
DOCKED: USER    NEWDPF quaternion0 0.709182 0.210780 -0.392574 0.546369
DOCKED: USER    NEWDPF axisangle0 0.846739 0.251664 -0.468719 113.763518
DOCKED: USER    NEWDPF quat0 0.846739 0.251664 -0.468719 113.763518
DOCKED: USER    NEWDPF dihe0 -101.63 132.58 81.77 15.36 -143.47 29.67 57.60 -71.40 167.30 180.00 
DOCKED: USER  keepresnum = 1 
DOCKED: USER  
DOCKED: REMARK  10 active torsions:
DOCKED: REMARK  status: ('A' for Active; 'I' for Inactive)
DOCKED: REMARK    1  A    between atoms: C_6  and  C_10 
DOCKED: REMARK    2  A    between atoms: C_10  and  C_11 
DOCKED: REMARK    3  A    between atoms: C_11  and  C_12 
DOCKED: REMARK    4  A    between atoms: C_12  and  O_14 
DOCKED: REMARK    5  A    between atoms: C_17  and  C_20 
DOCKED: REMARK    6  A    between atoms: C_24  and  C_27 
DOCKED: REMARK    7  A    between atoms: C_31  and  C_34 
DOCKED: REMARK    8  A    between atoms: C_34  and  C_35 
DOCKED: REMARK    9  A    between atoms: C_35  and  C_36 
DOCKED: REMARK   10  A    between atoms: C_36  and  O_38 
DOCKED: USER                              x       y       z     vdW  Elec       q    Type
DOCKED: USER                           _______ _______ _______ _____ _____    ______ ____
DOCKED: ROOT
DOCKED: ATOM      1  C   UNL d   1     -10.040   5.379 -12.971 -0.21 +0.01    +0.064 C 
DOCKED: ATOM      2  C   UNL d   1      -7.253   8.963 -11.018 -0.17 +0.00    +0.064 A 
DOCKED: ATOM      3  C   UNL d   1      -5.536   9.921 -15.400 -0.11 -0.01    +0.064 C 
DOCKED: ATOM      4  C   UNL d   1      -8.146   6.387 -17.294 -0.22 -0.01    +0.064 C 
DOCKED: ATOM      5  C   UNL d   1      -9.352   6.244 -12.002 -0.12 +0.01    +0.066 A 
DOCKED: ATOM      6  C   UNL d   1      -9.511   6.174 -10.628 -0.13 -0.01    -0.021 A 
DOCKED: ATOM      7  C   UNL d   1      -8.740   7.172 -10.086 -0.13 -0.00    -0.025 A 
DOCKED: ATOM      8  C   UNL d   1      -8.139   7.814 -11.152 -0.11 +0.01    +0.066 A 
DOCKED: ATOM      9  C   UNL d   1      -8.580   7.472  -8.627 -0.19 +0.01    +0.051 C 
DOCKED: ATOM     10  C   UNL d   1      -6.616   9.564 -12.024 -0.20 -0.01    +0.066 A 
DOCKED: ATOM     11  C   UNL d   1      -5.866  10.733 -11.878 -0.30 +0.00    -0.021 A 
DOCKED: ATOM     12  C   UNL d   1      -5.373  11.040 -13.131 -0.32 -0.00    +0.000 A 
DOCKED: ATOM     13  C   UNL d   1      -5.861  10.036 -13.986 -0.14 -0.01    +0.070 A 
DOCKED: ATOM     14  C   UNL d   1      -5.683  11.557 -10.620 -0.44 -0.01    +0.052 C 
DOCKED: ATOM     15  C   UNL d   1      -6.044   8.987 -16.238 -0.10 -0.01    +0.066 A 
DOCKED: ATOM     16  C   UNL d   1      -5.633   8.849 -17.558 -0.10 +0.00    -0.021 A 
DOCKED: ATOM     17  C   UNL d   1      -6.387   7.832 -18.107 -0.14 -0.00    +0.000 A 
DOCKED: ATOM     18  C   UNL d   1      -7.245   7.377 -17.109 -0.17 -0.01    +0.070 A 
DOCKED: ATOM     19  C   UNL d   1      -4.590   9.656 -18.284 -0.06 -0.01    +0.052 C 
DOCKED: ATOM     20  C   UNL d   1      -9.022   5.840 -16.251 -0.25 +0.01    +0.066 A 
DOCKED: ATOM     21  C   UNL d   1     -10.092   4.962 -16.471 -0.19 -0.01    -0.025 A 
DOCKED: ATOM     22  C   UNL d   1     -10.609   4.677 -15.224 -0.22 -0.01    -0.021 A 
DOCKED: ATOM     23  C   UNL d   1      -9.843   5.395 -14.298 -0.22 +0.01    +0.066 A 
DOCKED: ATOM     24  C   UNL d   1     -10.611   4.416 -17.781 -0.06 +0.02    +0.051 C 
DOCKED: ATOM     25  N   UNL d   1      -8.506   7.240 -12.316 +0.00 -0.02    -0.248 N 
DOCKED: ATOM     26  N   UNL d   1      -6.626   9.142 -13.314 -0.08 +0.02    -0.248 N 
DOCKED: ATOM     27  N   UNL d   1      -7.004   8.056 -15.947 -0.10 +0.03    -0.248 N 
DOCKED: ATOM     28  N   UNL d   1      -8.904   6.137 -14.934 -0.10 -0.02    -0.248 N 
DOCKED: ATOM     29 FE   UNL d   1      -7.765   7.639 -14.126 -0.04 -0.00    +0.000 Fe
DOCKED: ENDROOT
DOCKED: BRANCH   6  30
DOCKED: ATOM     30  C   UNL d   1     -10.336   5.196  -9.864 -0.15 +0.03    +0.052 C 
DOCKED: BRANCH  30  31
DOCKED: ATOM     31  C   UNL d   1     -11.632   5.840  -9.384 -0.07 +0.07    +0.115 C 
DOCKED: BRANCH  31  32
DOCKED: ATOM     32  C   UNL d   1     -11.744   5.746  -7.887 +0.05 +0.19    +0.139 C 
DOCKED: ATOM     33  O   UNL d   1     -12.829   5.560  -7.354 -0.06 -1.01    -0.650 OA
DOCKED: BRANCH  32  34
DOCKED: ATOM     34  O   UNL d   1     -10.648   5.865  -7.120 -0.04 -1.49    -0.776 OA
DOCKED: ATOM     35  H   UNL d   1     -10.288   6.747  -6.948 +0.03 +0.17    +0.167 HD
DOCKED: ENDBRANCH  32  34
DOCKED: ENDBRANCH  31  32
DOCKED: ENDBRANCH  30  31
DOCKED: ENDBRANCH   6  30
DOCKED: BRANCH  22  36
DOCKED: ATOM     36  C   UNL d   1     -11.804   3.804 -14.946 -0.15 +0.04    +0.052 C 
DOCKED: BRANCH  36  37
DOCKED: ATOM     37  C   UNL d   1     -13.082   4.611 -15.122 -0.10 +0.06    +0.115 C 
DOCKED: BRANCH  37  38
DOCKED: ATOM     38  C   UNL d   1     -13.811   4.202 -16.370 -0.08 +0.10    +0.139 C 
DOCKED: ATOM     39  O   UNL d   1     -13.725   3.061 -16.799 -0.52 -1.18    -0.650 OA
DOCKED: BRANCH  38  40
DOCKED: ATOM     40  O   UNL d   1     -14.565   5.098 -17.031 +0.01 -0.27    -0.776 OA
DOCKED: ATOM     41  H   UNL d   1     -15.190   5.644 -16.534 +0.01 +0.04    +0.167 HD
DOCKED: ENDBRANCH  38  40
DOCKED: ENDBRANCH  37  38
DOCKED: ENDBRANCH  36  37
DOCKED: ENDBRANCH  22  36
DOCKED: BRANCH  12  42
DOCKED: ATOM     42  C   UNL d   1      -4.519  12.226 -13.448 -0.51 -0.00    +0.004 C 
DOCKED: ATOM     43  C   UNL d   1      -3.374  12.087 -14.129 -0.47 -0.01    +0.012 C 
DOCKED: ENDBRANCH  12  42
DOCKED: BRANCH  17  44
DOCKED: ATOM     44  C   UNL d   1      -6.278   7.317 -19.491 -0.16 -0.00    +0.004 C 
DOCKED: ATOM     45  C   UNL d   1      -5.200   6.631 -19.884 -0.23 -0.00    +0.012 C 
DOCKED: ENDBRANCH  17  44
DOCKED: TORSDOF 10
DOCKED: TER
DOCKED: ENDMDL
________________________________________________________________________________


	BEGINNING GENETIC ALGORITHM DOCKING 96 of 100
Run: 96 Seed: 521910037 1156203646 [ Run 96 of 100 GA/GALS ]
Beginning LAMARCKIAN GENETIC ALGORITHM (LGA), with a maximum of 25000000 energy evaluations.

Final-Value: -10.636


	FINAL GENETIC ALGORITHM DOCKED STATE
	_______________________________________________


Detailed state:  trans -9.736 4.101 -9.813 quatxyzw 0.296123 0.228180 0.000994 0.927494 center -0.174 -0.001 -0.047 ntor 10 125.5560 134.3815 3.5940 25.4658 -76.3233 94.8563 173.4715 177.8948 -179.1012 174.4165
State:	 -9.736   4.101  -9.813   0.792  0.610  0.003 43.905    125.56  134.38    3.59   25.47  -76.32   94.86  173.47  177.89 -179.10  174.42

DOCKED: MODEL       96
DOCKED: USER    Run = 96
DOCKED: USER    DPF = D:/Protein_go_brrr/autodock/final/mut_K82N/heme_Fe/dock.dpf
DOCKED: USER  
DOCKED: USER    Estimated Free Energy of Binding    =   -6.22 kcal/mol  [=(1)+(2)+(3)-(4)]
DOCKED: USER    Estimated Inhibition Constant, Ki   =   27.49 uM (micromolar)  [Temperature = 298.15 K]
DOCKED: USER    
DOCKED: USER    (1) Final Intermolecular Energy     =   -9.21 kcal/mol
DOCKED: USER        vdW + Hbond + desolv Energy     =   -6.89 kcal/mol
DOCKED: USER        Electrostatic Energy            =   -2.32 kcal/mol
DOCKED: USER    (2) Final Total Internal Energy     =   -1.43 kcal/mol
DOCKED: USER    (3) Torsional Free Energy           =   +2.98 kcal/mol
DOCKED: USER    (4) Unbound System's Energy  [=(2)] =   -1.43 kcal/mol
DOCKED: USER    
DOCKED: USER    
DOCKED: USER    NEWDPF move heme_Fe_opt.pdbqt
DOCKED: USER    NEWDPF about -0.174000 -0.001000 -0.047000
DOCKED: USER    NEWDPF tran0 -9.736165 4.100992 -9.812672
DOCKED: USER    NEWDPF quaternion0 0.296123 0.228180 0.000994 0.927494
DOCKED: USER    NEWDPF axisangle0 0.792113 0.610369 0.002658 43.905153
DOCKED: USER    NEWDPF quat0 0.792113 0.610369 0.002658 43.905153
DOCKED: USER    NEWDPF dihe0 125.56 134.38 3.59 25.47 -76.32 94.86 173.47 177.89 -179.10 174.42 
DOCKED: USER  keepresnum = 1 
DOCKED: USER  
DOCKED: REMARK  10 active torsions:
DOCKED: REMARK  status: ('A' for Active; 'I' for Inactive)
DOCKED: REMARK    1  A    between atoms: C_6  and  C_10 
DOCKED: REMARK    2  A    between atoms: C_10  and  C_11 
DOCKED: REMARK    3  A    between atoms: C_11  and  C_12 
DOCKED: REMARK    4  A    between atoms: C_12  and  O_14 
DOCKED: REMARK    5  A    between atoms: C_17  and  C_20 
DOCKED: REMARK    6  A    between atoms: C_24  and  C_27 
DOCKED: REMARK    7  A    between atoms: C_31  and  C_34 
DOCKED: REMARK    8  A    between atoms: C_34  and  C_35 
DOCKED: REMARK    9  A    between atoms: C_35  and  C_36 
DOCKED: REMARK   10  A    between atoms: C_36  and  O_38 
DOCKED: USER                              x       y       z     vdW  Elec       q    Type
DOCKED: USER                           _______ _______ _______ _____ _____    ______ ____
DOCKED: ROOT
DOCKED: ATOM      1  C   UNL d   1     -11.744   4.081 -10.237 -0.13 +0.03    +0.064 C 
DOCKED: ATOM      2  C   UNL d   1      -8.846   1.719  -7.004 -0.15 +0.04    +0.064 A 
DOCKED: ATOM      3  C   UNL d   1      -5.370   4.913  -7.891 -0.18 +0.01    +0.064 C 
DOCKED: ATOM      4  C   UNL d   1      -8.121   7.151 -11.102 -0.13 +0.01    +0.064 C 
DOCKED: ATOM      5  C   UNL d   1     -11.221   3.071  -9.306 -0.09 +0.05    +0.066 A 
DOCKED: ATOM      6  C   UNL d   1     -11.905   1.934  -8.907 -0.15 -0.02    -0.021 A 
DOCKED: ATOM      7  C   UNL d   1     -11.101   1.281  -8.006 -0.17 -0.02    -0.025 A 
DOCKED: ATOM      8  C   UNL d   1      -9.956   2.044  -7.891 -0.07 +0.07    +0.066 A 
DOCKED: ATOM      9  C   UNL d   1     -11.416  -0.012  -7.317 -0.21 +0.03    +0.051 C 
DOCKED: ATOM     10  C   UNL d   1      -7.706   2.407  -6.915 -0.33 +0.03    +0.066 A 
DOCKED: ATOM     11  C   UNL d   1      -6.709   2.137  -5.975 -0.37 -0.01    -0.021 A 
DOCKED: ATOM     12  C   UNL d   1      -5.703   3.056  -6.199 -0.31 +0.00    +0.000 A 
DOCKED: ATOM     13  C   UNL d   1      -6.146   3.851  -7.270 -0.12 +0.02    +0.070 A 
DOCKED: ATOM     14  C   UNL d   1      -6.743   1.100  -4.871 -0.44 +0.01    +0.052 C 
DOCKED: ATOM     15  C   UNL d   1      -5.813   5.715  -8.888 -0.27 +0.01    +0.066 A 
DOCKED: ATOM     16  C   UNL d   1      -5.007   6.652  -9.523 -0.40 +0.00    -0.021 A 
DOCKED: ATOM     17  C   UNL d   1      -5.799   7.301 -10.447 -0.30 -0.00    +0.000 A 
DOCKED: ATOM     18  C   UNL d   1      -7.073   6.747 -10.351 -0.15 +0.01    +0.070 A 
DOCKED: ATOM     19  C   UNL d   1      -3.555   6.945  -9.256 -0.52 -0.00    +0.052 C 
DOCKED: ATOM     20  C   UNL d   1      -9.460   6.550 -11.073 -0.11 +0.01    +0.066 A 
DOCKED: ATOM     21  C   UNL d   1     -10.600   7.082 -11.692 -0.05 -0.00    -0.025 A 
DOCKED: ATOM     22  C   UNL d   1     -11.618   6.184 -11.443 -0.04 -0.01    -0.021 A 
DOCKED: ATOM     23  C   UNL d   1     -11.063   5.149 -10.681 -0.10 +0.03    +0.066 A 
DOCKED: ATOM     24  C   UNL d   1     -10.736   8.367 -12.475 -0.03 +0.01    +0.051 C 
DOCKED: ATOM     25  N   UNL d   1     -10.028   3.127  -8.690 -0.05 -0.23    -0.248 N 
DOCKED: ATOM     26  N   UNL d   1      -7.371   3.462  -7.701 -0.24 -0.10    -0.248 N 
DOCKED: ATOM     27  N   UNL d   1      -7.072   5.742  -9.424 -0.14 -0.04    -0.248 N 
DOCKED: ATOM     28  N   UNL d   1      -9.757   5.401 -10.420 -0.10 -0.08    -0.248 N 
DOCKED: ATOM     29 FE   UNL d   1      -8.564   4.433  -9.062 -0.05 +0.00    +0.000 Fe
DOCKED: ENDROOT
DOCKED: BRANCH   6  30
DOCKED: ATOM     30  C   UNL d   1     -13.246   1.479  -9.372 -0.10 +0.02    +0.052 C 
DOCKED: BRANCH  30  31
DOCKED: ATOM     31  C   UNL d   1     -14.348   2.056  -8.491 -0.05 +0.06    +0.115 C 
DOCKED: BRANCH  31  32
DOCKED: ATOM     32  C   UNL d   1     -13.756   2.786  -7.318 +0.09 +0.17    +0.139 C 
DOCKED: ATOM     33  O   UNL d   1     -13.299   2.170  -6.366 -0.12 -1.07    -0.650 OA
DOCKED: BRANCH  32  34
DOCKED: ATOM     34  O   UNL d   1     -13.724   4.130  -7.306 -0.00 -1.10    -0.776 OA
DOCKED: ATOM     35  H   UNL d   1     -13.312   4.596  -8.047 +0.01 +0.20    +0.167 HD
DOCKED: ENDBRANCH  32  34
DOCKED: ENDBRANCH  31  32
DOCKED: ENDBRANCH  30  31
DOCKED: ENDBRANCH   6  30
DOCKED: BRANCH  22  36
DOCKED: ATOM     36  C   UNL d   1     -13.053   6.340 -11.873 -0.02 +0.01    +0.052 C 
DOCKED: BRANCH  36  37
DOCKED: ATOM     37  C   UNL d   1     -13.828   7.103 -10.809 +0.00 +0.03    +0.115 C 
DOCKED: BRANCH  37  38
DOCKED: ATOM     38  C   UNL d   1     -12.957   7.409  -9.624 -0.00 +0.04    +0.139 C 
DOCKED: ATOM     39  O   UNL d   1     -12.378   8.482  -9.534 +0.02 -0.17    -0.650 OA
DOCKED: BRANCH  38  40
DOCKED: ATOM     40  O   UNL d   1     -12.805   6.495  -8.649 +0.02 -0.46    -0.776 OA
DOCKED: ATOM     41  H   UNL d   1     -13.586   6.039  -8.306 +0.01 +0.11    +0.167 HD
DOCKED: ENDBRANCH  38  40
DOCKED: ENDBRANCH  37  38
DOCKED: ENDBRANCH  36  37
DOCKED: ENDBRANCH  22  36
DOCKED: BRANCH  12  42
DOCKED: ATOM     42  C   UNL d   1      -4.434   3.145  -5.412 -0.32 +0.00    +0.004 C 
DOCKED: ATOM     43  C   UNL d   1      -3.668   2.064  -5.215 -0.46 +0.00    +0.012 C 
DOCKED: ENDBRANCH  12  42
DOCKED: BRANCH  17  44
DOCKED: ATOM     44  C   UNL d   1      -5.360   8.367 -11.375 -0.28 -0.00    +0.004 C 
DOCKED: ATOM     45  C   UNL d   1      -4.697   8.068 -12.497 -0.31 -0.00    +0.012 C 
DOCKED: ENDBRANCH  17  44
DOCKED: TORSDOF 10
DOCKED: TER
DOCKED: ENDMDL
________________________________________________________________________________


	BEGINNING GENETIC ALGORITHM DOCKING 97 of 100
Run: 97 Seed: 903494191 1980440774 [ Run 97 of 100 GA/GALS ]
Beginning LAMARCKIAN GENETIC ALGORITHM (LGA), with a maximum of 25000000 energy evaluations.

Final-Value: -9.172


	FINAL GENETIC ALGORITHM DOCKED STATE
	_______________________________________________


Detailed state:  trans 7.438 16.656 -9.909 quatxyzw -0.335759 0.838725 0.300130 -0.306150 center -0.174 -0.001 -0.047 ntor 10 75.7516 167.4167 -178.5564 11.0766 101.7231 66.4053 116.5990 -140.8593 -162.1622 -35.6467
State:	  7.438  16.656  -9.909  -0.353  0.881  0.315 -144.345     75.75  167.42 -178.56   11.08  101.72   66.41  116.60 -140.86 -162.16  -35.65

DOCKED: MODEL       97
DOCKED: USER    Run = 97
DOCKED: USER    DPF = D:/Protein_go_brrr/autodock/final/mut_K82N/heme_Fe/dock.dpf
DOCKED: USER  
DOCKED: USER    Estimated Free Energy of Binding    =   -5.39 kcal/mol  [=(1)+(2)+(3)-(4)]
DOCKED: USER    Estimated Inhibition Constant, Ki   =  111.87 uM (micromolar)  [Temperature = 298.15 K]
DOCKED: USER    
DOCKED: USER    (1) Final Intermolecular Energy     =   -8.37 kcal/mol
DOCKED: USER        vdW + Hbond + desolv Energy     =   -8.55 kcal/mol
DOCKED: USER        Electrostatic Energy            =   +0.18 kcal/mol
DOCKED: USER    (2) Final Total Internal Energy     =   -0.80 kcal/mol
DOCKED: USER    (3) Torsional Free Energy           =   +2.98 kcal/mol
DOCKED: USER    (4) Unbound System's Energy  [=(2)] =   -0.80 kcal/mol
DOCKED: USER    
DOCKED: USER    
DOCKED: USER    NEWDPF move heme_Fe_opt.pdbqt
DOCKED: USER    NEWDPF about -0.174000 -0.001000 -0.047000
DOCKED: USER    NEWDPF tran0 7.438184 16.656303 -9.908870
DOCKED: USER    NEWDPF quaternion0 -0.335759 0.838725 0.300130 -0.306150
DOCKED: USER    NEWDPF axisangle0 -0.352694 0.881029 0.315269 -144.345302
DOCKED: USER    NEWDPF quat0 -0.352694 0.881029 0.315269 -144.345302
DOCKED: USER    NEWDPF dihe0 75.75 167.42 -178.56 11.08 101.72 66.41 116.60 -140.86 -162.16 -35.65 
DOCKED: USER  keepresnum = 1 
DOCKED: USER  
DOCKED: REMARK  10 active torsions:
DOCKED: REMARK  status: ('A' for Active; 'I' for Inactive)
DOCKED: REMARK    1  A    between atoms: C_6  and  C_10 
DOCKED: REMARK    2  A    between atoms: C_10  and  C_11 
DOCKED: REMARK    3  A    between atoms: C_11  and  C_12 
DOCKED: REMARK    4  A    between atoms: C_12  and  O_14 
DOCKED: REMARK    5  A    between atoms: C_17  and  C_20 
DOCKED: REMARK    6  A    between atoms: C_24  and  C_27 
DOCKED: REMARK    7  A    between atoms: C_31  and  C_34 
DOCKED: REMARK    8  A    between atoms: C_34  and  C_35 
DOCKED: REMARK    9  A    between atoms: C_35  and  C_36 
DOCKED: REMARK   10  A    between atoms: C_36  and  O_38 
DOCKED: USER                              x       y       z     vdW  Elec       q    Type
DOCKED: USER                           _______ _______ _______ _____ _____    ______ ____
DOCKED: ROOT
DOCKED: ATOM      1  C   UNL d   1       8.811  17.750  -8.846 -0.13 -0.00    +0.064 C 
DOCKED: ATOM      2  C   UNL d   1       9.090  14.251 -12.326 -0.19 +0.01    +0.064 A 
DOCKED: ATOM      3  C   UNL d   1       4.436  14.938 -13.293 -0.20 -0.01    +0.064 C 
DOCKED: ATOM      4  C   UNL d   1       4.119  18.253  -9.859 -0.03 -0.03    +0.064 C 
DOCKED: ATOM      5  C   UNL d   1       9.301  16.643  -9.679 -0.16 -0.00    +0.066 A 
DOCKED: ATOM      6  C   UNL d   1      10.569  16.091  -9.595 -0.14 -0.00    -0.021 A 
DOCKED: ATOM      7  C   UNL d   1      10.647  15.122 -10.564 -0.25 -0.00    -0.025 A 
DOCKED: ATOM      8  C   UNL d   1       9.422  15.119 -11.203 -0.24 +0.00    +0.066 A 
DOCKED: ATOM      9  C   UNL d   1      11.828  14.242 -10.840 -0.21 +0.00    +0.051 C 
DOCKED: ATOM     10  C   UNL d   1       7.899  14.187 -12.922 -0.19 +0.01    +0.066 A 
DOCKED: ATOM     11  C   UNL d   1       7.645  13.429 -14.067 -0.21 -0.00    -0.021 A 
DOCKED: ATOM     12  C   UNL d   1       6.313  13.624 -14.377 -0.24 +0.00    +0.000 A 
DOCKED: ATOM     13  C   UNL d   1       5.821  14.505 -13.398 -0.25 +0.00    +0.070 A 
DOCKED: ATOM     14  C   UNL d   1       8.639  12.614 -14.869 -0.16 +0.01    +0.052 C 
DOCKED: ATOM     15  C   UNL d   1       3.969  15.827 -12.385 -0.27 -0.01    +0.066 A 
DOCKED: ATOM     16  C   UNL d   1       2.622  16.138 -12.252 -0.32 +0.01    -0.021 A 
DOCKED: ATOM     17  C   UNL d   1       2.528  17.097 -11.265 -0.30 -0.00    +0.000 A 
DOCKED: ATOM     18  C   UNL d   1       3.823  17.351 -10.820 -0.22 -0.02    +0.070 A 
DOCKED: ATOM     19  C   UNL d   1       1.468  15.577 -13.039 -0.18 -0.03    +0.052 C 
DOCKED: ATOM     20  C   UNL d   1       5.462  18.503  -9.322 -0.16 -0.02    +0.066 A 
DOCKED: ATOM     21  C   UNL d   1       5.812  19.566  -8.477 -0.21 +0.01    -0.025 A 
DOCKED: ATOM     22  C   UNL d   1       7.150  19.396  -8.191 -0.16 +0.00    -0.021 A 
DOCKED: ATOM     23  C   UNL d   1       7.564  18.246  -8.874 -0.17 -0.01    +0.066 A 
DOCKED: ATOM     24  C   UNL d   1       4.941  20.689  -7.964 -0.23 -0.01    +0.051 C 
DOCKED: ATOM     25  N   UNL d   1       8.602  16.038 -10.655 -0.18 +0.01    -0.248 N 
DOCKED: ATOM     26  N   UNL d   1       6.789  14.856 -12.517 -0.17 +0.00    -0.248 N 
DOCKED: ATOM     27  N   UNL d   1       4.705  16.539 -11.477 -0.16 +0.05    -0.248 N 
DOCKED: ATOM     28  N   UNL d   1       6.541  17.731  -9.598 -0.16 +0.05    -0.248 N 
DOCKED: ATOM     29 FE   UNL d   1       6.663  16.295 -11.057 -0.05 -0.00    +0.000 Fe
DOCKED: ENDROOT
DOCKED: BRANCH   6  30
DOCKED: ATOM     30  C   UNL d   1      11.647  16.451  -8.630 -0.06 -0.00    +0.052 C 
DOCKED: BRANCH  30  31
DOCKED: ATOM     31  C   UNL d   1      12.252  17.807  -8.977 -0.06 -0.01    +0.115 C 
DOCKED: BRANCH  31  32
DOCKED: ATOM     32  C   UNL d   1      12.917  17.757 -10.325 -0.02 -0.01    +0.139 C 
DOCKED: ATOM     33  O   UNL d   1      12.362  18.221 -11.311 +0.01 +0.04    -0.650 OA
DOCKED: BRANCH  32  34
DOCKED: ATOM     34  O   UNL d   1      14.132  17.198 -10.458 +0.01 +0.04    -0.776 OA
DOCKED: ATOM     35  H   UNL d   1      14.903  17.772 -10.563 +0.00 -0.01    +0.167 HD
DOCKED: ENDBRANCH  32  34
DOCKED: ENDBRANCH  31  32
DOCKED: ENDBRANCH  30  31
DOCKED: ENDBRANCH   6  30
DOCKED: BRANCH  22  36
DOCKED: ATOM     36  C   UNL d   1       7.993  20.315  -7.348 -0.12 -0.01    +0.052 C 
DOCKED: BRANCH  36  37
DOCKED: ATOM     37  C   UNL d   1       7.436  20.370  -5.933 -0.19 -0.03    +0.115 C 
DOCKED: BRANCH  37  38
DOCKED: ATOM     38  C   UNL d   1       6.946  19.019  -5.495 -0.33 -0.03    +0.139 C 
DOCKED: ATOM     39  O   UNL d   1       7.726  18.093  -5.333 -0.01 +0.11    -0.650 OA
DOCKED: BRANCH  38  40
DOCKED: ATOM     40  O   UNL d   1       5.633  18.819  -5.279 -0.49 +0.19    -0.776 OA
DOCKED: ATOM     41  H   UNL d   1       5.044  19.584  -5.225 -0.51 -0.10    +0.167 HD
DOCKED: ENDBRANCH  38  40
DOCKED: ENDBRANCH  37  38
DOCKED: ENDBRANCH  36  37
DOCKED: ENDBRANCH  22  36
DOCKED: BRANCH  12  42
DOCKED: ATOM     42  C   UNL d   1       5.606  13.008 -15.542 -0.17 +0.00    +0.004 C 
DOCKED: ATOM     43  C   UNL d   1       4.862  13.754 -16.369 -0.14 -0.00    +0.012 C 
DOCKED: ENDBRANCH  12  42
DOCKED: BRANCH  17  44
DOCKED: ATOM     44  C   UNL d   1       1.279  17.714 -10.765 -0.36 -0.00    +0.004 C 
DOCKED: ATOM     45  C   UNL d   1       0.360  16.981 -10.129 -0.57 -0.00    +0.012 C 
DOCKED: ENDBRANCH  17  44
DOCKED: TORSDOF 10
DOCKED: TER
DOCKED: ENDMDL
________________________________________________________________________________


	BEGINNING GENETIC ALGORITHM DOCKING 98 of 100
Run: 98 Seed: 397880524 874160359 [ Run 98 of 100 GA/GALS ]
Beginning LAMARCKIAN GENETIC ALGORITHM (LGA), with a maximum of 25000000 energy evaluations.

Final-Value: -11.855


	FINAL GENETIC ALGORITHM DOCKED STATE
	_______________________________________________


Detailed state:  trans -8.853 7.242 -12.840 quatxyzw 0.392760 0.521667 -0.111570 -0.749103 center -0.174 -0.001 -0.047 ntor 10 -151.9491 110.5189 -132.0164 -137.9128 81.2636 164.9756 -36.5873 -27.9354 -152.4578 -26.7568
State:	 -8.853   7.242 -12.840   0.593  0.787 -0.168 -82.975   -151.95  110.52 -132.02 -137.91   81.26  164.98  -36.59  -27.94 -152.46  -26.76

DOCKED: MODEL       98
DOCKED: USER    Run = 98
DOCKED: USER    DPF = D:/Protein_go_brrr/autodock/final/mut_K82N/heme_Fe/dock.dpf
DOCKED: USER  
DOCKED: USER    Estimated Free Energy of Binding    =   -7.66 kcal/mol  [=(1)+(2)+(3)-(4)]
DOCKED: USER    Estimated Inhibition Constant, Ki   =    2.44 uM (micromolar)  [Temperature = 298.15 K]
DOCKED: USER    
DOCKED: USER    (1) Final Intermolecular Energy     =  -10.64 kcal/mol
DOCKED: USER        vdW + Hbond + desolv Energy     =   -7.75 kcal/mol
DOCKED: USER        Electrostatic Energy            =   -2.89 kcal/mol
DOCKED: USER    (2) Final Total Internal Energy     =   -1.22 kcal/mol
DOCKED: USER    (3) Torsional Free Energy           =   +2.98 kcal/mol
DOCKED: USER    (4) Unbound System's Energy  [=(2)] =   -1.22 kcal/mol
DOCKED: USER    
DOCKED: USER    
DOCKED: USER    NEWDPF move heme_Fe_opt.pdbqt
DOCKED: USER    NEWDPF about -0.174000 -0.001000 -0.047000
DOCKED: USER    NEWDPF tran0 -8.852687 7.241509 -12.839611
DOCKED: USER    NEWDPF quaternion0 0.392760 0.521667 -0.111570 -0.749103
DOCKED: USER    NEWDPF axisangle0 0.592887 0.787477 -0.168419 -82.974557
DOCKED: USER    NEWDPF quat0 0.592887 0.787477 -0.168419 -82.974557
DOCKED: USER    NEWDPF dihe0 -151.95 110.52 -132.02 -137.91 81.26 164.98 -36.59 -27.94 -152.46 -26.76 
DOCKED: USER  keepresnum = 1 
DOCKED: USER  
DOCKED: REMARK  10 active torsions:
DOCKED: REMARK  status: ('A' for Active; 'I' for Inactive)
DOCKED: REMARK    1  A    between atoms: C_6  and  C_10 
DOCKED: REMARK    2  A    between atoms: C_10  and  C_11 
DOCKED: REMARK    3  A    between atoms: C_11  and  C_12 
DOCKED: REMARK    4  A    between atoms: C_12  and  O_14 
DOCKED: REMARK    5  A    between atoms: C_17  and  C_20 
DOCKED: REMARK    6  A    between atoms: C_24  and  C_27 
DOCKED: REMARK    7  A    between atoms: C_31  and  C_34 
DOCKED: REMARK    8  A    between atoms: C_34  and  C_35 
DOCKED: REMARK    9  A    between atoms: C_35  and  C_36 
DOCKED: REMARK   10  A    between atoms: C_36  and  O_38 
DOCKED: USER                              x       y       z     vdW  Elec       q    Type
DOCKED: USER                           _______ _______ _______ _____ _____    ______ ____
DOCKED: ROOT
DOCKED: ATOM      1  C   UNL d   1      -9.371   6.347 -11.067 -0.15 +0.01    +0.064 C 
DOCKED: ATOM      2  C   UNL d   1      -9.851   5.153 -15.840 -0.23 +0.02    +0.064 A 
DOCKED: ATOM      3  C   UNL d   1      -6.658   8.567 -16.943 -0.12 -0.01    +0.064 C 
DOCKED: ATOM      4  C   UNL d   1      -6.258   9.809 -12.340 -0.25 -0.01    +0.064 C 
DOCKED: ATOM      5  C   UNL d   1      -9.865   5.750 -12.316 -0.16 +0.01    +0.066 A 
DOCKED: ATOM      6  C   UNL d   1     -10.876   4.806 -12.396 -0.16 -0.01    -0.021 A 
DOCKED: ATOM      7  C   UNL d   1     -11.006   4.473 -13.721 -0.20 -0.01    -0.025 A 
DOCKED: ATOM      8  C   UNL d   1     -10.068   5.227 -14.400 -0.22 +0.02    +0.066 A 
DOCKED: ATOM      9  C   UNL d   1     -11.989   3.499 -14.294 -0.21 +0.04    +0.051 C 
DOCKED: ATOM     10  C   UNL d   1      -8.993   5.910 -16.527 -0.24 +0.00    +0.066 A 
DOCKED: ATOM     11  C   UNL d   1      -8.725   5.737 -17.886 -0.22 +0.00    -0.021 A 
DOCKED: ATOM     12  C   UNL d   1      -7.794   6.699 -18.226 -0.17 -0.00    +0.000 A 
DOCKED: ATOM     13  C   UNL d   1      -7.534   7.411 -17.041 -0.16 -0.01    +0.070 A 
DOCKED: ATOM     14  C   UNL d   1      -9.276   4.664 -18.803 -0.19 +0.01    +0.052 C 
DOCKED: ATOM     15  C   UNL d   1      -6.364   9.223 -15.795 -0.09 -0.01    +0.066 A 
DOCKED: ATOM     16  C   UNL d   1      -5.602  10.383 -15.758 -0.07 +0.00    -0.021 A 
DOCKED: ATOM     17  C   UNL d   1      -5.482  10.741 -14.432 -0.17 -0.00    +0.000 A 
DOCKED: ATOM     18  C   UNL d   1      -6.173   9.787 -13.688 -0.14 -0.01    +0.070 A 
DOCKED: ATOM     19  C   UNL d   1      -4.986  11.115 -16.921 -0.06 -0.02    +0.052 C 
DOCKED: ATOM     20  C   UNL d   1      -7.026   8.857 -11.529 -0.17 -0.00    +0.066 A 
DOCKED: ATOM     21  C   UNL d   1      -6.962   8.746 -10.133 -0.24 -0.00    -0.025 A 
DOCKED: ATOM     22  C   UNL d   1      -7.867   7.762  -9.791 -0.18 -0.00    -0.021 A 
DOCKED: ATOM     23  C   UNL d   1      -8.439   7.309 -10.985 -0.12 +0.01    +0.066 A 
DOCKED: ATOM     24  C   UNL d   1      -6.096   9.517  -9.164 -0.46 -0.00    +0.051 C 
DOCKED: ATOM     25  N   UNL d   1      -9.382   6.010 -13.544 -0.08 -0.03    -0.248 N 
DOCKED: ATOM     26  N   UNL d   1      -8.259   6.924 -16.003 -0.14 +0.01    -0.248 N 
DOCKED: ATOM     27  N   UNL d   1      -6.752   8.877 -14.529 -0.06 +0.02    -0.248 N 
DOCKED: ATOM     28  N   UNL d   1      -7.890   7.949 -12.046 -0.06 -0.01    -0.248 N 
DOCKED: ATOM     29 FE   UNL d   1      -8.073   7.438 -14.024 -0.04 +0.00    +0.000 Fe
DOCKED: ENDROOT
DOCKED: BRANCH   6  30
DOCKED: ATOM     30  C   UNL d   1     -11.693   4.263 -11.274 -0.13 +0.02    +0.052 C 
DOCKED: BRANCH  30  31
DOCKED: ATOM     31  C   UNL d   1     -10.815   3.509 -10.282 +0.05 +0.06    +0.115 C 
DOCKED: BRANCH  31  32
DOCKED: ATOM     32  C   UNL d   1     -11.301   3.728  -8.876 -0.09 +0.16    +0.139 C 
DOCKED: ATOM     33  O   UNL d   1     -12.240   3.082  -8.433 -0.28 -0.91    -0.650 OA
DOCKED: BRANCH  32  34
DOCKED: ATOM     34  O   UNL d   1     -10.704   4.641  -8.091 +0.13 -1.37    -0.776 OA
DOCKED: ATOM     35  H   UNL d   1     -10.277   5.406  -8.501 +0.03 +0.16    +0.167 HD
DOCKED: ENDBRANCH  32  34
DOCKED: ENDBRANCH  31  32
DOCKED: ENDBRANCH  30  31
DOCKED: ENDBRANCH   6  30
DOCKED: BRANCH  22  36
DOCKED: ATOM     36  C   UNL d   1      -8.128   7.254  -8.397 -0.20 +0.01    +0.052 C 
DOCKED: BRANCH  36  37
DOCKED: ATOM     37  C   UNL d   1      -8.847   8.323  -7.588 -0.21 +0.04    +0.115 C 
DOCKED: BRANCH  37  38
DOCKED: ATOM     38  C   UNL d   1      -9.715   7.703  -6.529 -0.05 +0.09    +0.139 C 
DOCKED: ATOM     39  O   UNL d   1     -10.155   8.377  -5.609 -0.59 -0.38    -0.650 OA
DOCKED: BRANCH  38  40
DOCKED: ATOM     40  O   UNL d   1     -10.012   6.393  -6.586 -0.36 -1.03    -0.776 OA
DOCKED: ATOM     41  H   UNL d   1     -10.602   6.075  -7.283 +0.03 +0.25    +0.167 HD
DOCKED: ENDBRANCH  38  40
DOCKED: ENDBRANCH  37  38
DOCKED: ENDBRANCH  36  37
DOCKED: ENDBRANCH  22  36
DOCKED: BRANCH  12  42
DOCKED: ATOM     42  C   UNL d   1      -7.207   6.879 -19.589 -0.16 -0.00    +0.004 C 
DOCKED: ATOM     43  C   UNL d   1      -6.157   6.150 -19.989 -0.21 -0.00    +0.012 C 
DOCKED: ENDBRANCH  12  42
DOCKED: BRANCH  17  44
DOCKED: ATOM     44  C   UNL d   1      -4.771  11.930 -13.910 -0.42 -0.00    +0.004 C 
DOCKED: ATOM     45  C   UNL d   1      -3.451  11.902 -13.701 -0.51 -0.00    +0.012 C 
DOCKED: ENDBRANCH  17  44
DOCKED: TORSDOF 10
DOCKED: TER
DOCKED: ENDMDL
________________________________________________________________________________


	BEGINNING GENETIC ALGORITHM DOCKING 99 of 100
Run: 99 Seed: 281316289 2121731374 [ Run 99 of 100 GA/GALS ]
Beginning LAMARCKIAN GENETIC ALGORITHM (LGA), with a maximum of 25000000 energy evaluations.

Final-Value: -12.148


	FINAL GENETIC ALGORITHM DOCKED STATE
	_______________________________________________


Detailed state:  trans -8.237 6.546 -12.702 quatxyzw -0.639728 -0.007134 0.621177 -0.452588 center -0.174 -0.001 -0.047 ntor 10 60.1353 79.6854 17.9918 18.7508 172.9761 -26.5228 -52.7350 37.3639 175.8324 154.3060
State:	 -8.237   6.546 -12.702  -0.717 -0.008  0.697 -126.180     60.14   79.69   17.99   18.75  172.98  -26.52  -52.74   37.36  175.83  154.31

DOCKED: MODEL       99
DOCKED: USER    Run = 99
DOCKED: USER    DPF = D:/Protein_go_brrr/autodock/final/mut_K82N/heme_Fe/dock.dpf
DOCKED: USER  
DOCKED: USER    Estimated Free Energy of Binding    =   -6.85 kcal/mol  [=(1)+(2)+(3)-(4)]
DOCKED: USER    Estimated Inhibition Constant, Ki   =    9.53 uM (micromolar)  [Temperature = 298.15 K]
DOCKED: USER    
DOCKED: USER    (1) Final Intermolecular Energy     =   -9.83 kcal/mol
DOCKED: USER        vdW + Hbond + desolv Energy     =   -6.68 kcal/mol
DOCKED: USER        Electrostatic Energy            =   -3.15 kcal/mol
DOCKED: USER    (2) Final Total Internal Energy     =   -2.32 kcal/mol
DOCKED: USER    (3) Torsional Free Energy           =   +2.98 kcal/mol
DOCKED: USER    (4) Unbound System's Energy  [=(2)] =   -2.32 kcal/mol
DOCKED: USER    
DOCKED: USER    
DOCKED: USER    NEWDPF move heme_Fe_opt.pdbqt
DOCKED: USER    NEWDPF about -0.174000 -0.001000 -0.047000
DOCKED: USER    NEWDPF tran0 -8.237319 6.546440 -12.701577
DOCKED: USER    NEWDPF quaternion0 -0.639728 -0.007134 0.621177 -0.452588
DOCKED: USER    NEWDPF axisangle0 -0.717410 -0.008000 0.696606 -126.180279
DOCKED: USER    NEWDPF quat0 -0.717410 -0.008000 0.696606 -126.180279
DOCKED: USER    NEWDPF dihe0 60.14 79.69 17.99 18.75 172.98 -26.52 -52.74 37.36 175.83 154.31 
DOCKED: USER  keepresnum = 1 
DOCKED: USER  
DOCKED: REMARK  10 active torsions:
DOCKED: REMARK  status: ('A' for Active; 'I' for Inactive)
DOCKED: REMARK    1  A    between atoms: C_6  and  C_10 
DOCKED: REMARK    2  A    between atoms: C_10  and  C_11 
DOCKED: REMARK    3  A    between atoms: C_11  and  C_12 
DOCKED: REMARK    4  A    between atoms: C_12  and  O_14 
DOCKED: REMARK    5  A    between atoms: C_17  and  C_20 
DOCKED: REMARK    6  A    between atoms: C_24  and  C_27 
DOCKED: REMARK    7  A    between atoms: C_31  and  C_34 
DOCKED: REMARK    8  A    between atoms: C_34  and  C_35 
DOCKED: REMARK    9  A    between atoms: C_35  and  C_36 
DOCKED: REMARK   10  A    between atoms: C_36  and  O_38 
DOCKED: USER                              x       y       z     vdW  Elec       q    Type
DOCKED: USER                           _______ _______ _______ _____ _____    ______ ____
DOCKED: ROOT
DOCKED: ATOM      1  C   UNL d   1      -9.083   5.753 -11.009 -0.19 +0.01    +0.064 C 
DOCKED: ATOM      2  C   UNL d   1      -6.255   9.691 -11.968 -0.23 -0.01    +0.064 A 
DOCKED: ATOM      3  C   UNL d   1      -7.240   9.174 -16.640 -0.07 -0.01    +0.064 C 
DOCKED: ATOM      4  C   UNL d   1      -9.896   5.298 -15.745 -0.27 +0.01    +0.064 C 
DOCKED: ATOM      5  C   UNL d   1      -8.128   6.859 -10.854 -0.12 +0.01    +0.066 A 
DOCKED: ATOM      6  C   UNL d   1      -7.534   7.229  -9.659 -0.21 -0.00    -0.021 A 
DOCKED: ATOM      7  C   UNL d   1      -6.752   8.326  -9.925 -0.27 -0.00    -0.025 A 
DOCKED: ATOM      8  C   UNL d   1      -6.899   8.582 -11.275 -0.18 -0.00    +0.066 A 
DOCKED: ATOM      9  C   UNL d   1      -5.901   9.065  -8.938 -0.46 -0.00    +0.051 C 
DOCKED: ATOM     10  C   UNL d   1      -6.334   9.927 -13.279 -0.16 -0.01    +0.066 A 
DOCKED: ATOM     11  C   UNL d   1      -5.801  11.062 -13.895 -0.20 +0.00    -0.021 A 
DOCKED: ATOM     12  C   UNL d   1      -6.086  10.945 -15.241 -0.08 -0.00    +0.000 A 
DOCKED: ATOM     13  C   UNL d   1      -6.793   9.737 -15.376 -0.06 -0.01    +0.070 A 
DOCKED: ATOM     14  C   UNL d   1      -5.113  12.234 -13.226 -0.46 -0.01    +0.052 C 
DOCKED: ATOM     15  C   UNL d   1      -7.965   8.039 -16.770 -0.11 -0.01    +0.066 A 
DOCKED: ATOM     16  C   UNL d   1      -8.288   7.481 -18.001 -0.11 +0.00    -0.021 A 
DOCKED: ATOM     17  C   UNL d   1      -9.057   6.365 -17.745 -0.18 +0.00    +0.000 A 
DOCKED: ATOM     18  C   UNL d   1      -9.189   6.270 -16.362 -0.20 +0.00    +0.070 A 
DOCKED: ATOM     19  C   UNL d   1      -7.911   7.989 -19.366 -0.07 -0.01    +0.052 C 
DOCKED: ATOM     20  C   UNL d   1     -10.007   5.130 -14.291 -0.23 +0.02    +0.066 A 
DOCKED: ATOM     21  C   UNL d   1     -10.890   4.257 -13.641 -0.15 -0.01    -0.025 A 
DOCKED: ATOM     22  C   UNL d   1     -10.633   4.394 -12.293 -0.16 -0.01    -0.021 A 
DOCKED: ATOM     23  C   UNL d   1      -9.612   5.345 -12.173 -0.18 +0.01    +0.066 A 
DOCKED: ATOM     24  C   UNL d   1     -11.929   3.342 -14.247 -0.19 +0.04    +0.051 C 
DOCKED: ATOM     25  N   UNL d   1      -7.729   7.683 -11.839 -0.02 -0.01    -0.248 N 
DOCKED: ATOM     26  N   UNL d   1      -6.952   9.121 -14.179 -0.06 +0.02    -0.248 N 
DOCKED: ATOM     27  N   UNL d   1      -8.483   7.273 -15.760 -0.10 +0.00    -0.248 N 
DOCKED: ATOM     28  N   UNL d   1      -9.265   5.823 -13.393 -0.07 -0.03    -0.248 N 
DOCKED: ATOM     29 FE   UNL d   1      -8.110   7.471 -13.787 -0.04 +0.00    +0.000 Fe
DOCKED: ENDROOT
DOCKED: BRANCH   6  30
DOCKED: ATOM     30  C   UNL d   1      -7.684   6.564  -8.333 -0.05 +0.01    +0.052 C 
DOCKED: BRANCH  30  31
DOCKED: ATOM     31  C   UNL d   1      -8.773   7.241  -7.509 +0.02 +0.05    +0.115 C 
DOCKED: BRANCH  31  32
DOCKED: ATOM     32  C   UNL d   1      -9.772   6.228  -7.023 -0.11 +0.16    +0.139 C 
DOCKED: ATOM     33  O   UNL d   1     -10.652   6.547  -6.237 -0.21 -0.95    -0.650 OA
DOCKED: BRANCH  32  34
DOCKED: ATOM     34  O   UNL d   1      -9.704   4.955  -7.450 -0.40 -1.38    -0.776 OA
DOCKED: ATOM     35  H   UNL d   1     -10.458   4.579  -7.926 +0.03 +0.32    +0.167 HD
DOCKED: ENDBRANCH  32  34
DOCKED: ENDBRANCH  31  32
DOCKED: ENDBRANCH  30  31
DOCKED: ENDBRANCH   6  30
DOCKED: BRANCH  22  36
DOCKED: ATOM     36  C   UNL d   1     -11.362   3.686 -11.181 -0.13 +0.02    +0.052 C 
DOCKED: BRANCH  36  37
DOCKED: ATOM     37  C   UNL d   1     -12.239   4.676 -10.430 -0.07 +0.05    +0.115 C 
DOCKED: BRANCH  37  38
DOCKED: ATOM     38  C   UNL d   1     -12.264   4.366  -8.960 -0.08 +0.13    +0.139 C 
DOCKED: ATOM     39  O   UNL d   1     -12.073   3.228  -8.557 -0.20 -0.88    -0.650 OA
DOCKED: BRANCH  38  40
DOCKED: ATOM     40  O   UNL d   1     -12.502   5.347  -8.071 +0.02 -0.98    -0.776 OA
DOCKED: ATOM     41  H   UNL d   1     -11.758   5.744  -7.597 +0.01 +0.27    +0.167 HD
DOCKED: ENDBRANCH  38  40
DOCKED: ENDBRANCH  37  38
DOCKED: ENDBRANCH  36  37
DOCKED: ENDBRANCH  22  36
DOCKED: BRANCH  12  42
DOCKED: ATOM     42  C   UNL d   1      -5.710  11.947 -16.286 -0.08 -0.00    +0.004 C 
DOCKED: ATOM     43  C   UNL d   1      -4.426  12.178 -16.588 -0.14 -0.01    +0.012 C 
DOCKED: ENDBRANCH  12  42
DOCKED: BRANCH  17  44
DOCKED: ATOM     44  C   UNL d   1      -9.611   5.438 -18.758 -0.20 +0.00    +0.004 C 
DOCKED: ATOM     45  C   UNL d   1      -8.817   4.586 -19.414 -0.25 +0.00    +0.012 C 
DOCKED: ENDBRANCH  17  44
DOCKED: TORSDOF 10
DOCKED: TER
DOCKED: ENDMDL
________________________________________________________________________________


	BEGINNING GENETIC ALGORITHM DOCKING 100 of 100
Run: 100 Seed: 347354748 1341324680 [ Run 100 of 100 GA/GALS ]
Beginning LAMARCKIAN GENETIC ALGORITHM (LGA), with a maximum of 25000000 energy evaluations.

Final-Value: -11.590


	FINAL GENETIC ALGORITHM DOCKED STATE
	_______________________________________________


Detailed state:  trans 4.357 5.554 18.671 quatxyzw 0.130602 -0.259956 -0.952750 0.087366 center -0.174 -0.001 -0.047 ntor 10 -53.2603 166.4886 92.2151 -154.7708 -15.4799 -86.1667 -60.8262 -1.6500 -166.5126 156.7353
State:	  4.357   5.554  18.671   0.131 -0.261 -0.956 169.976    -53.26  166.49   92.22 -154.77  -15.48  -86.17  -60.83   -1.65 -166.51  156.74

DOCKED: MODEL      100
DOCKED: USER    Run = 100
DOCKED: USER    DPF = D:/Protein_go_brrr/autodock/final/mut_K82N/heme_Fe/dock.dpf
DOCKED: USER  
DOCKED: USER    Estimated Free Energy of Binding    =   -6.35 kcal/mol  [=(1)+(2)+(3)-(4)]
DOCKED: USER    Estimated Inhibition Constant, Ki   =   22.07 uM (micromolar)  [Temperature = 298.15 K]
DOCKED: USER    
DOCKED: USER    (1) Final Intermolecular Energy     =   -9.34 kcal/mol
DOCKED: USER        vdW + Hbond + desolv Energy     =   -8.12 kcal/mol
DOCKED: USER        Electrostatic Energy            =   -1.21 kcal/mol
DOCKED: USER    (2) Final Total Internal Energy     =   -2.25 kcal/mol
DOCKED: USER    (3) Torsional Free Energy           =   +2.98 kcal/mol
DOCKED: USER    (4) Unbound System's Energy  [=(2)] =   -2.25 kcal/mol
DOCKED: USER    
DOCKED: USER    
DOCKED: USER    NEWDPF move heme_Fe_opt.pdbqt
DOCKED: USER    NEWDPF about -0.174000 -0.001000 -0.047000
DOCKED: USER    NEWDPF tran0 4.356948 5.553705 18.670730
DOCKED: USER    NEWDPF quaternion0 0.130602 -0.259956 -0.952750 0.087366
DOCKED: USER    NEWDPF axisangle0 0.131103 -0.260954 -0.956407 169.975845
DOCKED: USER    NEWDPF quat0 0.131103 -0.260954 -0.956407 169.975845
DOCKED: USER    NEWDPF dihe0 -53.26 166.49 92.22 -154.77 -15.48 -86.17 -60.83 -1.65 -166.51 156.74 
DOCKED: USER  keepresnum = 1 
DOCKED: USER  
DOCKED: REMARK  10 active torsions:
DOCKED: REMARK  status: ('A' for Active; 'I' for Inactive)
DOCKED: REMARK    1  A    between atoms: C_6  and  C_10 
DOCKED: REMARK    2  A    between atoms: C_10  and  C_11 
DOCKED: REMARK    3  A    between atoms: C_11  and  C_12 
DOCKED: REMARK    4  A    between atoms: C_12  and  O_14 
DOCKED: REMARK    5  A    between atoms: C_17  and  C_20 
DOCKED: REMARK    6  A    between atoms: C_24  and  C_27 
DOCKED: REMARK    7  A    between atoms: C_31  and  C_34 
DOCKED: REMARK    8  A    between atoms: C_34  and  C_35 
DOCKED: REMARK    9  A    between atoms: C_35  and  C_36 
DOCKED: REMARK   10  A    between atoms: C_36  and  O_38 
DOCKED: USER                              x       y       z     vdW  Elec       q    Type
DOCKED: USER                           _______ _______ _______ _____ _____    ______ ____
DOCKED: ROOT
DOCKED: ATOM      1  C   UNL d   1       6.146   5.684  19.668 -0.27 -0.01    +0.064 C 
DOCKED: ATOM      2  C   UNL d   1       3.493   8.769  16.861 -0.25 -0.03    +0.064 A 
DOCKED: ATOM      3  C   UNL d   1      -0.285   5.841  17.336 -0.25 -0.02    +0.064 C 
DOCKED: ATOM      4  C   UNL d   1       2.294   2.790  19.967 -0.16 -0.06    +0.064 C 
DOCKED: ATOM      5  C   UNL d   1       5.773   6.782  18.764 -0.23 -0.02    +0.066 A 
DOCKED: ATOM      6  C   UNL d   1       6.642   7.760  18.309 -0.18 +0.00    -0.021 A 
DOCKED: ATOM      7  C   UNL d   1       5.903   8.618  17.533 -0.18 +0.01    -0.025 A 
DOCKED: ATOM      8  C   UNL d   1       4.611   8.130  17.544 -0.21 -0.03    +0.066 A 
DOCKED: ATOM      9  C   UNL d   1       6.422   9.824  16.810 -0.19 -0.01    +0.051 C 
DOCKED: ATOM     10  C   UNL d   1       2.250   8.288  16.808 -0.24 -0.03    +0.066 A 
DOCKED: ATOM     11  C   UNL d   1       1.175   8.979  16.244 -0.23 +0.01    -0.021 A 
DOCKED: ATOM     12  C   UNL d   1       0.070   8.163  16.383 -0.22 -0.00    +0.000 A 
DOCKED: ATOM     13  C   UNL d   1       0.531   7.008  17.039 -0.21 -0.03    +0.070 A 
DOCKED: ATOM     14  C   UNL d   1       1.185  10.378  15.662 -0.19 -0.03    +0.052 C 
DOCKED: ATOM     15  C   UNL d   1       0.141   4.749  18.014 -0.24 -0.03    +0.066 A 
DOCKED: ATOM     16  C   UNL d   1      -0.640   3.614  18.190 -0.25 +0.01    -0.021 A 
DOCKED: ATOM     17  C   UNL d   1       0.101   2.734  18.952 -0.29 -0.00    +0.000 A 
DOCKED: ATOM     18  C   UNL d   1       1.317   3.356  19.226 -0.29 -0.04    +0.070 A 
DOCKED: ATOM     19  C   UNL d   1      -2.037   3.373  17.685 -0.30 -0.02    +0.052 C 
DOCKED: ATOM     20  C   UNL d   1       3.609   3.389  20.225 -0.30 -0.04    +0.066 A 
DOCKED: ATOM     21  C   UNL d   1       4.550   2.911  21.149 -0.32 +0.01    -0.025 A 
DOCKED: ATOM     22  C   UNL d   1       5.645   3.743  21.038 -0.31 +0.00    -0.021 A 
DOCKED: ATOM     23  C   UNL d   1       5.328   4.695  20.061 -0.27 -0.01    +0.066 A 
DOCKED: ATOM     24  C   UNL d   1       4.432   1.737  22.093 -0.19 -0.03    +0.051 C 
DOCKED: ATOM     25  N   UNL d   1       4.537   7.007  18.286 -0.16 +0.10    -0.248 N 
DOCKED: ATOM     26  N   UNL d   1       1.857   7.088  17.306 +0.08 +0.13    -0.248 N 
DOCKED: ATOM     27  N   UNL d   1       1.360   4.577  18.613 -0.06 +0.13    -0.248 N 
DOCKED: ATOM     28  N   UNL d   1       4.068   4.501  19.601 -0.21 +0.10    -0.248 N 
DOCKED: ATOM     29 FE   UNL d   1       2.962   5.792  18.455 -0.06 -0.00    +0.000 Fe
DOCKED: ENDROOT
DOCKED: BRANCH   6  30
DOCKED: ATOM     30  C   UNL d   1       8.104   7.865  18.579 -0.12 -0.00    +0.052 C 
DOCKED: BRANCH  30  31
DOCKED: ATOM     31  C   UNL d   1       8.357   8.403  19.983 -0.03 -0.00    +0.115 C 
DOCKED: BRANCH  31  32
DOCKED: ATOM     32  C   UNL d   1       9.123   7.401  20.801 -0.04 +0.02    +0.139 C 
DOCKED: ATOM     33  O   UNL d   1       9.211   6.236  20.437 +0.00 -0.12    -0.650 OA
DOCKED: BRANCH  32  34
DOCKED: ATOM     34  O   UNL d   1       9.720   7.778  21.944 +0.03 -0.14    -0.776 OA
DOCKED: ATOM     35  H   UNL d   1       9.532   7.287  22.756 +0.02 +0.05    +0.167 HD
DOCKED: ENDBRANCH  32  34
DOCKED: ENDBRANCH  31  32
DOCKED: ENDBRANCH  30  31
DOCKED: ENDBRANCH   6  30
DOCKED: BRANCH  22  36
DOCKED: ATOM     36  C   UNL d   1       6.903   3.656  21.860 -0.28 +0.01    +0.052 C 
DOCKED: BRANCH  36  37
DOCKED: ATOM     37  C   UNL d   1       6.931   4.786  22.878 -0.14 +0.03    +0.115 C 
DOCKED: BRANCH  37  38
DOCKED: ATOM     38  C   UNL d   1       8.147   4.692  23.755 -0.07 +0.10    +0.139 C 
DOCKED: ATOM     39  O   UNL d   1       8.138   4.000  24.763 -0.22 -0.66    -0.650 OA
DOCKED: BRANCH  38  40
DOCKED: ATOM     40  O   UNL d   1       9.259   5.376  23.436 +0.06 -0.65    -0.776 OA
DOCKED: ATOM     41  H   UNL d   1       9.338   5.759  22.551 +0.02 +0.09    +0.167 HD
DOCKED: ENDBRANCH  38  40
DOCKED: ENDBRANCH  37  38
DOCKED: ENDBRANCH  36  37
DOCKED: ENDBRANCH  22  36
DOCKED: BRANCH  12  42
DOCKED: ATOM     42  C   UNL d   1      -1.312   8.508  15.926 -0.23 -0.00    +0.004 C 
DOCKED: ATOM     43  C   UNL d   1      -2.099   7.586  15.356 -0.27 -0.01    +0.012 C 
DOCKED: ENDBRANCH  12  42
DOCKED: BRANCH  17  44
DOCKED: ATOM     44  C   UNL d   1      -0.319   1.378  19.372 -0.39 -0.00    +0.004 C 
DOCKED: ATOM     45  C   UNL d   1      -0.775   1.155  20.609 -0.28 -0.00    +0.012 C 
DOCKED: ENDBRANCH  17  44
DOCKED: TORSDOF 10
DOCKED: TER
DOCKED: ENDMDL
________________________________________________________________________________

DPF> analysis                             # perform a ranked cluster analysis


		CLUSTER ANALYSIS OF CONFORMATIONS
		_________________________________

Number of conformations = 100

RMSD cluster analysis will be performed using the ligand atoms only (45 / 45 total atoms).

Outputting structurally similar clusters, ranked in order of increasing energy.


________________________________________________________________________________

Number of distinct conformational clusters found = 31,  out of 100 runs,
Using an rmsd-tolerance of 2.0 A


	CLUSTERING HISTOGRAM
	____________________

________________________________________________________________________________
     |           |     |           |     |                                    
Clus | Lowest    | Run | Mean      | Num | Histogram                          
-ter | Binding   |     | Binding   | in  |                                    
Rank | Energy    |     | Energy    | Clus|    5    10   15   20   25   30   35
_____|___________|_____|___________|_____|____:____|____:____|____:____|____:___
   1 |    -12.21 |  39 |    -11.54 |   5 |#####
   2 |    -11.67 |  29 |    -11.67 |   1 |#
   3 |     -8.27 |  88 |     -7.67 |   4 |####
   4 |     -8.11 |  70 |     -7.39 |  21 |#####################
   5 |     -8.02 |  32 |     -7.44 |  11 |###########
   6 |     -7.80 |  37 |     -7.29 |   2 |##
   7 |     -7.66 |  91 |     -7.55 |   5 |#####
   8 |     -7.65 |  92 |     -7.60 |   2 |##
   9 |     -7.48 |  72 |     -6.88 |   7 |#######
  10 |     -7.41 |  49 |     -6.38 |   7 |#######
  11 |     -7.39 |  76 |     -7.39 |   1 |#
  12 |     -7.16 |  61 |     -6.70 |   3 |###
  13 |     -7.07 |  67 |     -6.84 |   2 |##
  14 |     -6.62 |  30 |     -6.62 |   1 |#
  15 |     -6.24 |  23 |     -5.88 |   3 |###
  16 |     -6.20 |  12 |     -6.12 |   3 |###
  17 |     -6.10 |  11 |     -6.10 |   1 |#
  18 |     -6.01 |  66 |     -6.01 |   1 |#
  19 |     -5.90 |  50 |     -5.90 |   1 |#
  20 |     -5.78 |  57 |     -5.78 |   1 |#
  21 |     -5.78 |  13 |     -5.78 |   1 |#
  22 |     -5.73 |  10 |     -5.73 |   1 |#
  23 |     -5.49 |  47 |     -5.28 |   6 |######
  24 |     -5.39 |  97 |     -5.39 |   1 |#
  25 |     -5.39 |  46 |     -5.39 |   1 |#
  26 |     -5.18 |  28 |     -5.02 |   3 |###
  27 |     -4.85 |  54 |     -4.85 |   1 |#
  28 |     -4.76 |   4 |     -4.76 |   1 |#
  29 |     -4.61 |  82 |     -4.61 |   1 |#
  30 |     -4.36 |   6 |     -4.36 |   1 |#
  31 |     -3.86 |  59 |     -3.86 |   1 |#
_____|___________|_____|___________|_____|______________________________________


Number of multi-member conformational clusters found = 15, out of 100 runs.

	RMSD TABLE
	__________

_____________________________________________________________________
     |      |      |           |         |                 |
Rank | Sub- | Run  | Binding   | Cluster | Reference       | Grep
     | Rank |      | Energy    | RMSD    | RMSD            | Pattern
_____|______|______|___________|_________|_________________|___________
   1      1     39      -12.21      0.00      7.85           RANKING
   1      2     16      -12.00      1.09      7.92           RANKING
   1      3     48      -11.87      0.77      7.91           RANKING
   1      4     33      -11.54      1.19      8.00           RANKING
   1      5     81      -10.07      1.46      8.76           RANKING
   2      1     29      -11.67      0.00      8.37           RANKING
   3      1     88       -8.27      0.00     10.83           RANKING
   3      2     68       -7.98      0.94     11.32           RANKING
   3      3     44       -7.60      1.48     11.42           RANKING
   3      4     62       -6.85      1.17     10.26           RANKING
   4      1     70       -8.11      0.00     15.31           RANKING
   4      2     69       -7.99      0.80     15.35           RANKING
   4      3     90       -7.90      0.75     15.34           RANKING
   4      4     38       -7.86      0.71     15.17           RANKING
   4      5     21       -7.83      0.64     15.24           RANKING
   4      6     42       -7.80      1.05     15.01           RANKING
   4      7     93       -7.76      1.06     15.07           RANKING
   4      8     15       -7.66      1.14     15.02           RANKING
   4      9     98       -7.66      0.43     15.42           RANKING
   4     10     22       -7.56      0.87     15.08           RANKING
   4     11     79       -7.52      0.55     15.27           RANKING
   4     12     14       -7.48      0.70     15.28           RANKING
   4     13     51       -7.40      0.79     15.41           RANKING
   4     14     60       -7.28      0.57     15.35           RANKING
   4     15     18       -7.09      0.90     15.16           RANKING
   4     16      5       -7.08      1.01     15.25           RANKING
   4     17      2       -6.98      1.13     15.55           RANKING
   4     18     64       -6.96      1.17     15.10           RANKING
   4     19     99       -6.85      1.08     15.37           RANKING
   4     20     78       -6.64      0.69     15.39           RANKING
   4     21     58       -5.68      1.49     15.29           RANKING
   5      1     32       -8.02      0.00     16.49           RANKING
   5      2     25       -7.99      1.51     16.38           RANKING
   5      3     45       -7.87      1.67     16.49           RANKING
   5      4     43       -7.73      1.63     16.09           RANKING
   5      5      1       -7.67      1.69     16.19           RANKING
   5      6      8       -7.41      1.63     16.37           RANKING
   5      7     95       -7.33      1.61     16.28           RANKING
   5      8     75       -7.26      1.67     16.47           RANKING
   5      9     77       -7.16      1.62     16.54           RANKING
   5     10     71       -6.82      1.66     16.55           RANKING
   5     11     80       -6.58      1.88     16.80           RANKING
   6      1     37       -7.80      0.00     14.45           RANKING
   6      2     40       -6.78      1.45     14.35           RANKING
   7      1     91       -7.66      0.00     11.90           RANKING
   7      2     94       -7.65      1.03     11.68           RANKING
   7      3     34       -7.58      0.65     11.83           RANKING
   7      4     53       -7.56      0.79     11.90           RANKING
   7      5     27       -7.32      1.46     10.86           RANKING
   8      1     92       -7.65      0.00     13.33           RANKING
   8      2     52       -7.55      0.98     13.29           RANKING
   9      1     72       -7.48      0.00     15.57           RANKING
   9      2     83       -7.29      1.55     16.16           RANKING
   9      3     87       -7.08      1.50     16.14           RANKING
   9      4     55       -6.96      1.23     15.15           RANKING
   9      5     65       -6.49      1.89     13.78           RANKING
   9      6      7       -6.45      1.88     15.26           RANKING
   9      7     20       -6.41      1.88     15.08           RANKING
  10      1     49       -7.41      0.00     20.01           RANKING
  10      2     74       -7.16      0.52     19.96           RANKING
  10      3     85       -6.45      1.47     20.83           RANKING
  10      4     24       -6.39      1.38     20.45           RANKING
  10      5    100       -6.35      1.37     20.53           RANKING
  10      6     19       -5.88      1.65     20.07           RANKING
  10      7     56       -5.00      1.69     20.10           RANKING
  11      1     76       -7.39      0.00     19.24           RANKING
  12      1     61       -7.16      0.00     11.81           RANKING
  12      2     63       -6.72      1.69     13.05           RANKING
  12      3     96       -6.22      1.72     11.72           RANKING
  13      1     67       -7.07      0.00     18.14           RANKING
  13      2      9       -6.60      0.91     18.06           RANKING
  14      1     30       -6.62      0.00     13.83           RANKING
  15      1     23       -6.24      0.00     20.95           RANKING
  15      2     89       -5.86      1.00     21.13           RANKING
  15      3     86       -5.53      0.89     21.37           RANKING
  16      1     12       -6.20      0.00     12.88           RANKING
  16      2     17       -6.10      1.76     12.62           RANKING
  16      3     36       -6.05      0.95     12.61           RANKING
  17      1     11       -6.10      0.00     11.05           RANKING
  18      1     66       -6.01      0.00     20.98           RANKING
  19      1     50       -5.90      0.00     15.19           RANKING
  20      1     57       -5.78      0.00     24.92           RANKING
  21      1     13       -5.78      0.00     13.09           RANKING
  22      1     10       -5.73      0.00     17.15           RANKING
  23      1     47       -5.49      0.00     17.49           RANKING
  23      2     73       -5.41      0.40     17.49           RANKING
  23      3     31       -5.29      0.31     17.49           RANKING
  23      4     35       -5.29      0.57     17.64           RANKING
  23      5      3       -5.14      0.50     17.48           RANKING
  23      6     84       -5.05      0.38     17.47           RANKING
  24      1     97       -5.39      0.00     18.14           RANKING
  25      1     46       -5.39      0.00     11.43           RANKING
  26      1     28       -5.18      0.00     13.19           RANKING
  26      2     41       -5.02      0.67     13.20           RANKING
  26      3     26       -4.85      1.00     13.64           RANKING
  27      1     54       -4.85      0.00     13.89           RANKING
  28      1      4       -4.76      0.00     17.31           RANKING
  29      1     82       -4.61      0.00     13.05           RANKING
  30      1      6       -4.36      0.00     19.39           RANKING
  31      1     59       -3.86      0.00     15.91           RANKING
_______________________________________________________________________



	INFORMATION ENTROPY ANALYSIS FOR THIS CLUSTERING
	________________________________________________


Information entropy for this clustering = 0.64  (rmstol = 2.00 Angstrom)

_______________________________________________________________________


	STATISTICAL MECHANICAL ANALYSIS
	_______________________________


Partition function, Q =   101.18            at Temperature, T = 298.15 K
Free energy,        A ~ -2735.44 kcal/mol   at Temperature, T = 298.15 K
Internal energy,    U =    -6.97 kcal/mol   at Temperature, T = 298.15 K
Entropy,            S =     9.15 kcal/mol/K at Temperature, T = 298.15 K

_______________________________________________________________________


	LOWEST ENERGY DOCKED CONFORMATION from EACH CLUSTER
	___________________________________________________



Keeping original residue number (specified in the input PDBQ file) for outputting.

MODEL       39
USER    Run = 39
USER    Cluster Rank = 1
USER    Number of conformations in this cluster = 5
USER  
USER    RMSD from reference structure       = 7.855 A
USER  
USER    Estimated Free Energy of Binding    =  -12.21 kcal/mol  [=(1)+(2)+(3)-(4)]
USER    Estimated Inhibition Constant, Ki   =    1.12 nM (nanomolar)  [Temperature = 298.15 K]
USER    
USER    (1) Final Intermolecular Energy     =  -15.19 kcal/mol
USER        vdW + Hbond + desolv Energy     =  -12.56 kcal/mol
USER        Electrostatic Energy            =   -2.64 kcal/mol
USER    (2) Final Total Internal Energy     =   -1.37 kcal/mol
USER    (3) Torsional Free Energy           =   +2.98 kcal/mol
USER    (4) Unbound System's Energy  [=(2)] =   -1.37 kcal/mol
USER    
USER    
USER  
USER    DPF = D:/Protein_go_brrr/autodock/final/mut_K82N/heme_Fe/dock.dpf
USER    NEWDPF move	heme_Fe_opt.pdbqt
USER    NEWDPF about	-0.174000 -0.001000 -0.047000
USER    NEWDPF tran0	-5.057456 3.188106 -6.954985
USER    NEWDPF axisangle0	-0.834977 -0.368518 -0.408665 -47.934230
USER    NEWDPF quaternion0	-0.339178 -0.149697 -0.166005 -0.913779
USER    NEWDPF dihe0	-154.23 -143.04 65.33 -113.94 -130.61 -28.11 -2.53 -69.80 -8.88 48.34 
USER  
USER                              x       y       z    vdW   Elec        q     RMS 
ATOM      1  C   UNL d   1      -6.950   3.902  -7.301 -0.21 +0.02    +0.064     7.855
ATOM      2  C   UNL d   1      -4.978   0.658  -4.135 -0.42 +0.00    +0.064     7.855
ATOM      3  C   UNL d   1      -0.618   2.355  -5.220 -0.38 +0.00    +0.064     7.855
ATOM      4  C   UNL d   1      -2.497   5.430  -8.367 -0.49 +0.00    +0.064     7.855
ATOM      5  C   UNL d   1      -6.793   2.775  -6.371 -0.34 +0.02    +0.066     7.855
ATOM      6  C   UNL d   1      -7.827   1.969  -5.923 -0.34 -0.01    -0.021     7.855
ATOM      7  C   UNL d   1      -7.279   1.071  -5.041 -0.30 -0.01    -0.025     7.855
ATOM      8  C   UNL d   1      -5.930   1.363  -4.985 -0.38 +0.01    +0.066     7.855
ATOM      9  C   UNL d   1      -8.014  -0.013  -4.314 +0.00 +0.01    +0.051     7.855
ATOM     10  C   UNL d   1      -3.663   0.882  -4.105 -0.37 +0.00    +0.066     7.855
ATOM     11  C   UNL d   1      -2.794   0.270  -3.198 -0.33 +0.00    -0.021     7.855
ATOM     12  C   UNL d   1      -1.532   0.756  -3.479 -0.37 -0.00    +0.000     7.855
ATOM     13  C   UNL d   1      -1.700   1.653  -4.548 -0.37 +0.00    +0.070     7.855
ATOM     14  C   UNL d   1      -3.157  -0.678  -2.074 -0.57 -0.00    +0.052     7.855
ATOM     15  C   UNL d   1      -0.779   3.259  -6.215 -0.39 +0.00    +0.066     7.855
ATOM     16  C   UNL d   1       0.285   3.832  -6.899 -0.50 -0.00    -0.021     7.855
ATOM     17  C   UNL d   1      -0.255   4.722  -7.805 -0.51 +0.00    +0.000     7.855
ATOM     18  C   UNL d   1      -1.638   4.673  -7.649 -0.42 +0.00    +0.070     7.855
ATOM     19  C   UNL d   1       1.754   3.575  -6.694 -0.46 +0.00    +0.052     7.855
ATOM     20  C   UNL d   1      -3.960   5.361  -8.273 -0.41 +0.01    +0.066     7.855
ATOM     21  C   UNL d   1      -4.853   6.270  -8.859 -0.41 -0.00    -0.025     7.855
ATOM     22  C   UNL d   1      -6.116   5.808  -8.553 -0.15 -0.00    -0.021     7.855
ATOM     23  C   UNL d   1      -5.946   4.645  -7.792 +0.17 +0.02    +0.066     7.855
ATOM     24  C   UNL d   1      -4.543   7.512  -9.661 -0.49 -0.01    +0.051     7.855
ATOM     25  N   UNL d   1      -5.636   2.394  -5.802 -0.22 -0.05    -0.248     7.855
ATOM     26  N   UNL d   1      -3.000   1.737  -4.924 -0.25 -0.01    -0.248     7.855
ATOM     27  N   UNL d   1      -1.964   3.742  -6.703 -0.25 -0.02    -0.248     7.855
ATOM     28  N   UNL d   1      -4.628   4.403  -7.587 -0.10 -0.08    -0.248     7.855
ATOM     29 FE   UNL d   1      -3.813   3.071  -6.257 -0.09 +0.00    +0.000     7.855
ATOM     30  C   UNL d   1      -9.260   2.034  -6.327 +0.29 +0.06    +0.052     7.855
ATOM     31  C   UNL d   1      -9.477   1.334  -7.664 +0.21 +0.08    +0.115     7.855
ATOM     32  C   UNL d   1     -10.933   1.349  -8.036 -0.12 +0.12    +0.139     7.855
ATOM     33  O   UNL d   1     -11.497   0.323  -8.390 -0.02 -0.31    -0.650     7.855
ATOM     34  O   UNL d   1     -11.631   2.497  -7.984 -0.14 -1.42    -0.776     7.855
ATOM     35  H   UNL d   1     -11.160   3.337  -8.079 +0.03 +0.34    +0.167     7.855
ATOM     36  C   UNL d   1      -7.412   6.476  -8.931 -0.25 +0.01    +0.052     7.855
ATOM     37  C   UNL d   1      -8.470   5.420  -9.217 -0.21 +0.04    +0.115     7.855
ATOM     38  C   UNL d   1      -9.515   5.398  -8.138 -0.16 +0.13    +0.139     7.855
ATOM     39  O   UNL d   1      -9.243   5.737  -6.996 -0.60 -0.77    -0.650     7.855
ATOM     40  O   UNL d   1     -10.767   4.998  -8.425 -0.08 -0.98    -0.776     7.855
ATOM     41  H   UNL d   1     -10.897   4.278  -9.057 +0.03 +0.16    +0.167     7.855
ATOM     42  C   UNL d   1      -0.286   0.378  -2.744 -0.32 -0.00    +0.004     7.855
ATOM     43  C   UNL d   1       0.686  -0.320  -3.346 -0.63 -0.00    +0.012     7.855
ATOM     44  C   UNL d   1       0.503   5.550  -8.770 -0.59 +0.00    +0.004     7.855
ATOM     45  C   UNL d   1       1.409   6.438  -8.348 -0.65 +0.00    +0.012     7.855
TER
ENDMDL
MODEL       29
USER    Run = 29
USER    Cluster Rank = 2
USER    Number of conformations in this cluster = 1
USER  
USER    RMSD from reference structure       = 8.366 A
USER  
USER    Estimated Free Energy of Binding    =  -11.67 kcal/mol  [=(1)+(2)+(3)-(4)]
USER    Estimated Inhibition Constant, Ki   =    2.77 nM (nanomolar)  [Temperature = 298.15 K]
USER    
USER    (1) Final Intermolecular Energy     =  -14.66 kcal/mol
USER        vdW + Hbond + desolv Energy     =  -13.25 kcal/mol
USER        Electrostatic Energy            =   -1.40 kcal/mol
USER    (2) Final Total Internal Energy     =   +0.19 kcal/mol
USER    (3) Torsional Free Energy           =   +2.98 kcal/mol
USER    (4) Unbound System's Energy  [=(2)] =   +0.19 kcal/mol
USER    
USER    
USER  
USER    DPF = D:/Protein_go_brrr/autodock/final/mut_K82N/heme_Fe/dock.dpf
USER    NEWDPF move	heme_Fe_opt.pdbqt
USER    NEWDPF about	-0.174000 -0.001000 -0.047000
USER    NEWDPF tran0	-4.882617 3.409239 -7.262854
USER    NEWDPF axisangle0	0.745087 0.411948 0.524543 55.769807
USER    NEWDPF quaternion0	0.348475 0.192667 0.245327 0.883889
USER    NEWDPF dihe0	-86.73 135.31 85.90 -151.89 -115.17 98.64 48.30 -33.34 -79.57 -160.19 
USER  
USER                              x       y       z    vdW   Elec        q     RMS 
ATOM      1  C   UNL d   1      -6.602   4.343  -7.882 -0.24 +0.02    +0.064     8.366
ATOM      2  C   UNL d   1      -5.516   0.994  -4.412 -0.41 +0.01    +0.064     8.366
ATOM      3  C   UNL d   1      -0.866   2.087  -4.911 -0.33 +0.00    +0.064     8.366
ATOM      4  C   UNL d   1      -1.885   5.257  -8.346 -0.51 +0.00    +0.064     8.366
ATOM      5  C   UNL d   1      -6.720   3.240  -6.919 -0.30 +0.02    +0.066     8.366
ATOM      6  C   UNL d   1      -7.901   2.588  -6.604 -0.36 -0.01    -0.021     8.366
ATOM      7  C   UNL d   1      -7.599   1.660  -5.638 -0.33 -0.01    -0.025     8.366
ATOM      8  C   UNL d   1      -6.244   1.782  -5.400 -0.37 +0.01    +0.066     8.366
ATOM      9  C   UNL d   1      -8.561   0.705  -5.000 +0.20 +0.02    +0.051     8.366
ATOM     10  C   UNL d   1      -4.200   1.051  -4.203 -0.36 +0.00    +0.066     8.366
ATOM     11  C   UNL d   1      -3.548   0.369  -3.173 -0.33 +0.00    -0.021     8.366
ATOM     12  C   UNL d   1      -2.208   0.681  -3.285 -0.23 -0.00    +0.000     8.366
ATOM     13  C   UNL d   1      -2.111   1.552  -4.383 -0.36 +0.00    +0.070     8.366
ATOM     14  C   UNL d   1      -4.181  -0.484  -2.093 -0.46 -0.01    +0.052     8.366
ATOM     15  C   UNL d   1      -0.772   2.967  -5.936 -0.37 +0.00    +0.066     8.366
ATOM     16  C   UNL d   1       0.441   3.377  -6.475 -0.48 -0.00    -0.021     8.366
ATOM     17  C   UNL d   1       0.149   4.294  -7.464 -0.51 +0.00    +0.000     8.366
ATOM     18  C   UNL d   1      -1.237   4.425  -7.501 -0.42 +0.00    +0.070     8.366
ATOM     19  C   UNL d   1       1.822   2.944  -6.063 -0.08 -0.00    +0.052     8.366
ATOM     20  C   UNL d   1      -3.344   5.377  -8.456 -0.43 +0.01    +0.066     8.366
ATOM     21  C   UNL d   1      -4.023   6.369  -9.177 -0.48 +0.00    -0.025     8.366
ATOM     22  C   UNL d   1      -5.365   6.082  -9.042 -0.35 -0.00    -0.021     8.366
ATOM     23  C   UNL d   1      -5.452   4.935  -8.243 -0.26 +0.01    +0.066     8.366
ATOM     24  C   UNL d   1      -3.449   7.532  -9.952 -0.40 -0.01    +0.051     8.366
ATOM     25  N   UNL d   1      -5.710   2.737  -6.187 -0.20 -0.06    -0.248     8.366
ATOM     26  N   UNL d   1      -3.326   1.786  -4.938 -0.25 -0.01    -0.248     8.366
ATOM     27  N   UNL d   1      -1.806   3.578  -6.592 -0.25 -0.02    -0.248     8.366
ATOM     28  N   UNL d   1      -4.218   4.536  -7.851 -0.04 -0.07    -0.248     8.366
ATOM     29 FE   UNL d   1      -3.771   3.162  -6.396 -0.09 +0.00    +0.000     8.366
ATOM     30  C   UNL d   1      -9.245   2.817  -7.205 -0.03 +0.06    +0.052     8.366
ATOM     31  C   UNL d   1      -9.145   3.732  -8.421 -0.23 +0.09    +0.115     8.366
ATOM     32  C   UNL d   1     -10.170   4.828  -8.341 -0.07 +0.17    +0.139     8.366
ATOM     33  O   UNL d   1     -11.073   4.899  -9.164 -0.01 -0.53    -0.650     8.366
ATOM     34  O   UNL d   1     -10.103   5.745  -7.360 -0.41 -1.21    -0.776     8.366
ATOM     35  H   UNL d   1      -9.635   6.575  -7.525 +0.04 +0.13    +0.167     8.366
ATOM     36  C   UNL d   1      -6.500   6.893  -9.609 -0.30 +0.00    +0.052     8.366
ATOM     37  C   UNL d   1      -6.500   8.281  -8.985 -0.34 +0.00    +0.115     8.366
ATOM     38  C   UNL d   1      -6.957   9.316  -9.974 -0.27 +0.00    +0.139     8.366
ATOM     39  O   UNL d   1      -8.111   9.720  -9.969 +0.03 -0.08    -0.650     8.366
ATOM     40  O   UNL d   1      -6.093   9.806 -10.881 +0.08 +0.12    -0.776     8.366
ATOM     41  H   UNL d   1      -5.204  10.060 -10.594 -0.48 -0.08    +0.167     8.366
ATOM     42  C   UNL d   1      -1.133   0.176  -2.376 -0.43 -0.00    +0.004     8.366
ATOM     43  C   UNL d   1       0.016  -0.306  -2.868 -0.57 -0.00    +0.012     8.366
ATOM     44  C   UNL d   1       1.132   4.984  -8.330 -0.54 +0.00    +0.004     8.366
ATOM     45  C   UNL d   1       1.543   6.224  -8.046 -0.71 +0.00    +0.012     8.366
TER
ENDMDL
MODEL       88
USER    Run = 88
USER    Cluster Rank = 3
USER    Number of conformations in this cluster = 4
USER  
USER    RMSD from reference structure       = 10.833 A
USER  
USER    Estimated Free Energy of Binding    =   -8.27 kcal/mol  [=(1)+(2)+(3)-(4)]
USER    Estimated Inhibition Constant, Ki   =  862.82 nM (nanomolar)  [Temperature = 298.15 K]
USER    
USER    (1) Final Intermolecular Energy     =  -11.26 kcal/mol
USER        vdW + Hbond + desolv Energy     =   -8.72 kcal/mol
USER        Electrostatic Energy            =   -2.54 kcal/mol
USER    (2) Final Total Internal Energy     =   -0.59 kcal/mol
USER    (3) Torsional Free Energy           =   +2.98 kcal/mol
USER    (4) Unbound System's Energy  [=(2)] =   -0.59 kcal/mol
USER    
USER    
USER  
USER    DPF = D:/Protein_go_brrr/autodock/final/mut_K82N/heme_Fe/dock.dpf
USER    NEWDPF move	heme_Fe_opt.pdbqt
USER    NEWDPF about	-0.174000 -0.001000 -0.047000
USER    NEWDPF tran0	-9.863261 2.237997 -8.126608
USER    NEWDPF axisangle0	0.355503 0.654241 0.667522 82.515535
USER    NEWDPF quaternion0	0.234436 0.431438 0.440196 0.751750
USER    NEWDPF dihe0	117.25 137.32 -156.06 3.86 -166.11 91.65 -56.65 -162.12 -29.16 164.89 
USER  
USER                              x       y       z    vdW   Elec        q     RMS 
ATOM      1  C   UNL d   1     -10.625   3.508  -9.547 -0.06 +0.04    +0.064    10.833
ATOM      2  C   UNL d   1     -12.536   0.017  -6.615 -0.13 +0.03    +0.064    10.833
ATOM      3  C   UNL d   1      -8.512   0.113  -3.995 -0.27 +0.01    +0.064    10.833
ATOM      4  C   UNL d   1      -6.602   3.416  -6.881 -0.32 +0.02    +0.064    10.833
ATOM      5  C   UNL d   1     -11.503   2.457  -9.014 -0.10 +0.06    +0.066    10.833
ATOM      6  C   UNL d   1     -12.705   2.067  -9.582 -0.11 -0.01    -0.021    10.833
ATOM      7  C   UNL d   1     -13.236   1.100  -8.765 -0.09 -0.01    -0.025    10.833
ATOM      8  C   UNL d   1     -12.337   0.936  -7.729 -0.13 +0.05    +0.066    10.833
ATOM      9  C   UNL d   1     -14.524   0.368  -8.986 -0.04 +0.01    +0.051    10.833
ATOM     10  C   UNL d   1     -11.658  -0.202  -5.634 -0.17 +0.03    +0.066    10.833
ATOM     11  C   UNL d   1     -11.925  -1.002  -4.521 -0.15 -0.00    -0.021    10.833
ATOM     12  C   UNL d   1     -10.786  -0.978  -3.741 -0.24 +0.00    +0.000    10.833
ATOM     13  C   UNL d   1      -9.877  -0.148  -4.422 -0.20 +0.02    +0.070    10.833
ATOM     14  C   UNL d   1     -13.225  -1.701  -4.182 -0.06 +0.00    +0.052    10.833
ATOM     15  C   UNL d   1      -7.651   0.951  -4.619 -0.33 +0.02    +0.066    10.833
ATOM     16  C   UNL d   1      -6.323   1.097  -4.238 -0.46 -0.00    -0.021    10.833
ATOM     17  C   UNL d   1      -5.771   2.051  -5.067 -0.43 +0.00    +0.000    10.833
ATOM     18  C   UNL d   1      -6.778   2.470  -5.933 -0.36 +0.02    +0.070    10.833
ATOM     19  C   UNL d   1      -5.605   0.386  -3.122 -0.39 +0.00    +0.052    10.833
ATOM     20  C   UNL d   1      -7.621   3.837  -7.850 -0.31 +0.03    +0.066    10.833
ATOM     21  C   UNL d   1      -7.520   4.947  -8.701 -0.27 -0.01    -0.025    10.833
ATOM     22  C   UNL d   1      -8.671   4.947  -9.460 -0.23 -0.01    -0.021    10.833
ATOM     23  C   UNL d   1      -9.429   3.847  -9.041 -0.10 +0.04    +0.066    10.833
ATOM     24  C   UNL d   1      -6.405   5.962  -8.798 -0.30 +0.01    +0.051    10.833
ATOM     25  N   UNL d   1     -11.279   1.756  -7.888 -0.07 -0.31    -0.248    10.833
ATOM     26  N   UNL d   1     -10.412   0.332  -5.571 -0.10 -0.15    -0.248    10.833
ATOM     27  N   UNL d   1      -7.922   1.762  -5.688 -0.23 -0.12    -0.248    10.833
ATOM     28  N   UNL d   1      -8.803   3.199  -8.028 -0.18 -0.19    -0.248    10.833
ATOM     29 FE   UNL d   1      -9.606   1.767  -6.800 -0.07 +0.00    +0.000    10.833
ATOM     30  C   UNL d   1     -13.309   2.571 -10.847 -0.08 +0.02    +0.052    10.833
ATOM     31  C   UNL d   1     -12.386   2.303 -12.031 -0.13 +0.05    +0.115    10.833
ATOM     32  C   UNL d   1     -13.100   1.500 -13.083 -0.15 +0.10    +0.139    10.833
ATOM     33  O   UNL d   1     -12.476   0.967 -13.990 -0.52 -1.02    -0.650    10.833
ATOM     34  O   UNL d   1     -14.436   1.360 -13.035 +0.02 -0.42    -0.776    10.833
ATOM     35  H   UNL d   1     -14.834   0.908 -12.278 +0.02 +0.06    +0.167    10.833
ATOM     36  C   UNL d   1      -9.042   5.976 -10.495 -0.18 +0.01    +0.052    10.833
ATOM     37  C   UNL d   1      -9.995   6.995  -9.887 -0.07 +0.04    +0.115    10.833
ATOM     38  C   UNL d   1      -9.961   6.935  -8.386 -0.12 +0.08    +0.139    10.833
ATOM     39  O   UNL d   1      -9.197   7.645  -7.749 -0.01 -0.27    -0.650    10.833
ATOM     40  O   UNL d   1     -10.777   6.091  -7.730 -0.15 -0.96    -0.776    10.833
ATOM     41  H   UNL d   1     -11.698   6.010  -8.014 +0.02 +0.19    +0.167    10.833
ATOM     42  C   UNL d   1     -10.625  -1.693  -2.438 -0.31 -0.00    +0.004    10.833
ATOM     43  C   UNL d   1     -10.597  -1.019  -1.280 -0.36 -0.00    +0.012    10.833
ATOM     44  C   UNL d   1      -4.366   2.518  -5.044 -0.31 +0.00    +0.004    10.833
ATOM     45  C   UNL d   1      -3.356   1.657  -5.207 -0.47 +0.00    +0.012    10.833
TER
ENDMDL
MODEL       70
USER    Run = 70
USER    Cluster Rank = 4
USER    Number of conformations in this cluster = 21
USER  
USER    RMSD from reference structure       = 15.313 A
USER  
USER    Estimated Free Energy of Binding    =   -8.11 kcal/mol  [=(1)+(2)+(3)-(4)]
USER    Estimated Inhibition Constant, Ki   =    1.14 uM (micromolar)  [Temperature = 298.15 K]
USER    
USER    (1) Final Intermolecular Energy     =  -11.09 kcal/mol
USER        vdW + Hbond + desolv Energy     =   -8.24 kcal/mol
USER        Electrostatic Energy            =   -2.85 kcal/mol
USER    (2) Final Total Internal Energy     =   -1.43 kcal/mol
USER    (3) Torsional Free Energy           =   +2.98 kcal/mol
USER    (4) Unbound System's Energy  [=(2)] =   -1.43 kcal/mol
USER    
USER    
USER  
USER    DPF = D:/Protein_go_brrr/autodock/final/mut_K82N/heme_Fe/dock.dpf
USER    NEWDPF move	heme_Fe_opt.pdbqt
USER    NEWDPF about	-0.174000 -0.001000 -0.047000
USER    NEWDPF tran0	-8.626971 7.432309 -12.750275
USER    NEWDPF axisangle0	-0.612899 -0.755630 0.231040 82.850340
USER    NEWDPF quaternion0	-0.405519 -0.499956 0.152865 0.749820
USER    NEWDPF dihe0	-102.61 -172.51 -180.00 58.30 112.24 122.69 -42.70 -11.79 -180.00 10.09 
USER  
USER                              x       y       z    vdW   Elec        q     RMS 
ATOM      1  C   UNL d   1      -9.230   6.641 -10.955 -0.13 +0.01    +0.064    15.313
ATOM      2  C   UNL d   1      -9.806   5.357 -15.693 -0.24 +0.01    +0.064    15.313
ATOM      3  C   UNL d   1      -6.310   8.429 -16.879 -0.15 -0.01    +0.064    15.313
ATOM      4  C   UNL d   1      -5.808   9.764 -12.313 -0.26 -0.01    +0.064    15.313
ATOM      5  C   UNL d   1      -9.773   6.056 -12.189 -0.14 +0.01    +0.066    15.313
ATOM      6  C   UNL d   1     -10.866   5.207 -12.246 -0.14 -0.01    -0.021    15.313
ATOM      7  C   UNL d   1     -11.023   4.848 -13.562 -0.18 -0.01    -0.025    15.313
ATOM      8  C   UNL d   1     -10.019   5.492 -14.258 -0.20 +0.01    +0.066    15.313
ATOM      9  C   UNL d   1     -12.091   3.953 -14.111 -0.19 +0.03    +0.051    15.313
ATOM     10  C   UNL d   1      -8.881   6.011 -16.397 -0.24 +0.00    +0.066    15.313
ATOM     11  C   UNL d   1      -8.626   5.775 -17.750 -0.22 +0.00    -0.021    15.313
ATOM     12  C   UNL d   1      -7.610   6.636 -18.113 -0.14 -0.00    +0.000    15.313
ATOM     13  C   UNL d   1      -7.289   7.356 -16.948 -0.17 -0.01    +0.070    15.313
ATOM     14  C   UNL d   1      -9.272   4.730 -18.638 -0.19 +0.01    +0.052    15.313
ATOM     15  C   UNL d   1      -5.960   9.088 -15.750 -0.11 -0.01    +0.066    15.313
ATOM     16  C   UNL d   1      -5.094  10.174 -15.743 -0.09 +0.01    -0.021    15.313
ATOM     17  C   UNL d   1      -4.945  10.559 -14.427 -0.21 -0.00    +0.000    15.313
ATOM     18  C   UNL d   1      -5.722   9.694 -13.660 -0.17 -0.01    +0.070    15.313
ATOM     19  C   UNL d   1      -4.411  10.812 -16.923 -0.08 -0.02    +0.052    15.313
ATOM     20  C   UNL d   1      -6.662   8.911 -11.479 -0.20 -0.00    +0.066    15.313
ATOM     21  C   UNL d   1      -6.612   8.836 -10.079 -0.28 +0.00    -0.025    15.313
ATOM     22  C   UNL d   1      -7.604   7.950  -9.713 -0.20 -0.00    -0.021    15.313
ATOM     23  C   UNL d   1      -8.213   7.517 -10.897 -0.12 +0.01    +0.066    15.313
ATOM     24  C   UNL d   1      -5.681   9.552  -9.129 -0.47 -0.01    +0.051    15.313
ATOM     25  N   UNL d   1      -9.266   6.234 -13.421 -0.07 -0.03    -0.248    15.313
ATOM     26  N   UNL d   1      -8.057   6.969 -15.900 -0.14 +0.01    -0.248    15.313
ATOM     27  N   UNL d   1      -6.381   8.818 -14.476 -0.07 +0.03    -0.248    15.313
ATOM     28  N   UNL d   1      -7.605   8.072 -11.973 -0.06 -0.01    -0.248    15.313
ATOM     29 FE   UNL d   1      -7.830   7.522 -13.936 -0.04 -0.00    +0.000    15.313
ATOM     30  C   UNL d   1     -11.733   4.775 -11.113 -0.11 +0.02    +0.052    15.313
ATOM     31  C   UNL d   1     -11.202   3.490 -10.487 -0.07 +0.05    +0.115    15.313
ATOM     32  C   UNL d   1     -11.267   3.570  -8.987 -0.11 +0.14    +0.139    15.313
ATOM     33  O   UNL d   1     -12.037   2.858  -8.358 -0.34 -0.95    -0.650    15.313
ATOM     34  O   UNL d   1     -10.475   4.428  -8.322 -0.08 -1.11    -0.776    15.313
ATOM     35  H   UNL d   1     -10.709   5.366  -8.306 +0.03 +0.20    +0.167    15.313
ATOM     36  C   UNL d   1      -7.915   7.509  -8.307 -0.21 +0.01    +0.052    15.313
ATOM     37  C   UNL d   1      -9.214   8.151  -7.842 -0.18 +0.04    +0.115    15.313
ATOM     38  C   UNL d   1      -9.712   7.507  -6.580 -0.07 +0.10    +0.139    15.313
ATOM     39  O   UNL d   1      -9.904   8.172  -5.572 -0.56 -0.45    -0.650    15.313
ATOM     40  O   UNL d   1      -9.947   6.183  -6.549 -0.42 -1.14    -0.776    15.313
ATOM     41  H   UNL d   1      -9.692   5.643  -7.310 +0.04 +0.24    +0.167    15.313
ATOM     42  C   UNL d   1      -7.006   6.721 -19.478 -0.17 -0.00    +0.004    15.313
ATOM     43  C   UNL d   1      -5.677   6.728 -19.644 -0.19 -0.00    +0.012    15.313
ATOM     44  C   UNL d   1      -4.128  11.692 -13.937 -0.46 -0.00    +0.004    15.313
ATOM     45  C   UNL d   1      -4.707  12.771 -13.398 -0.42 -0.00    +0.012    15.313
TER
ENDMDL
MODEL       32
USER    Run = 32
USER    Cluster Rank = 5
USER    Number of conformations in this cluster = 11
USER  
USER    RMSD from reference structure       = 16.490 A
USER  
USER    Estimated Free Energy of Binding    =   -8.02 kcal/mol  [=(1)+(2)+(3)-(4)]
USER    Estimated Inhibition Constant, Ki   =    1.33 uM (micromolar)  [Temperature = 298.15 K]
USER    
USER    (1) Final Intermolecular Energy     =  -11.00 kcal/mol
USER        vdW + Hbond + desolv Energy     =   -7.37 kcal/mol
USER        Electrostatic Energy            =   -3.63 kcal/mol
USER    (2) Final Total Internal Energy     =   -0.59 kcal/mol
USER    (3) Torsional Free Energy           =   +2.98 kcal/mol
USER    (4) Unbound System's Energy  [=(2)] =   -0.59 kcal/mol
USER    
USER    
USER  
USER    DPF = D:/Protein_go_brrr/autodock/final/mut_K82N/heme_Fe/dock.dpf
USER    NEWDPF move	heme_Fe_opt.pdbqt
USER    NEWDPF about	-0.174000 -0.001000 -0.047000
USER    NEWDPF tran0	-8.803467 7.493261 -14.150659
USER    NEWDPF axisangle0	0.785920 0.607594 -0.114713 -75.502960
USER    NEWDPF quaternion0	0.481170 0.371992 -0.070231 -0.790674
USER    NEWDPF dihe0	125.57 180.00 -163.06 72.43 170.94 111.81 80.54 3.71 180.00 177.93 
USER  
USER                              x       y       z    vdW   Elec        q     RMS 
ATOM      1  C   UNL d   1      -9.967   6.540 -12.755 -0.13 +0.01    +0.064    16.490
ATOM      2  C   UNL d   1      -9.023   5.847 -17.557 -0.21 +0.00    +0.064    16.490
ATOM      3  C   UNL d   1      -5.263   8.811 -17.174 -0.13 -0.01    +0.064    16.490
ATOM      4  C   UNL d   1      -6.222   9.578 -12.550 -0.23 -0.01    +0.064    16.490
ATOM      5  C   UNL d   1     -10.100   6.136 -14.161 -0.14 +0.01    +0.066    16.490
ATOM      6  C   UNL d   1     -11.136   5.369 -14.669 -0.16 -0.01    -0.021    16.490
ATOM      7  C   UNL d   1     -10.870   5.174 -16.002 -0.18 -0.01    -0.025    16.490
ATOM      8  C   UNL d   1      -9.682   5.830 -16.257 -0.21 +0.01    +0.066    16.490
ATOM      9  C   UNL d   1     -11.726   4.416 -16.971 -0.12 +0.03    +0.051    16.490
ATOM     10  C   UNL d   1      -7.907   6.520 -17.843 -0.16 -0.01    +0.066    16.490
ATOM     11  C   UNL d   1      -7.237   6.425 -19.065 -0.09 +0.00    -0.021    16.490
ATOM     12  C   UNL d   1      -6.139   7.257 -18.974 -0.14 -0.00    +0.000    16.490
ATOM     13  C   UNL d   1      -6.192   7.816 -17.686 -0.14 -0.02    +0.070    16.490
ATOM     14  C   UNL d   1      -7.587   5.531 -20.238 -0.20 -0.01    +0.052    16.490
ATOM     15  C   UNL d   1      -5.279   9.314 -15.917 -0.11 -0.01    +0.066    16.490
ATOM     16  C   UNL d   1      -4.437  10.336 -15.497 -0.14 +0.01    -0.021    16.490
ATOM     17  C   UNL d   1      -4.709  10.556 -14.163 -0.26 -0.00    +0.000    16.490
ATOM     18  C   UNL d   1      -5.711   9.659 -13.798 -0.17 -0.01    +0.070    16.490
ATOM     19  C   UNL d   1      -3.398  11.061 -16.309 -0.18 -0.03    +0.052    16.490
ATOM     20  C   UNL d   1      -7.318   8.690 -12.145 -0.13 -0.00    +0.066    16.490
ATOM     21  C   UNL d   1      -7.721   8.452 -10.823 -0.15 -0.00    -0.025    16.490
ATOM     22  C   UNL d   1      -8.797   7.593 -10.906 -0.10 -0.00    -0.021    16.490
ATOM     23  C   UNL d   1      -9.004   7.338 -12.267 -0.08 +0.01    +0.066    16.490
ATOM     24  C   UNL d   1      -7.128   8.995  -9.544 -0.30 +0.00    +0.051    16.490
ATOM     25  N   UNL d   1      -9.220   6.422 -15.137 -0.12 -0.02    -0.248    16.490
ATOM     26  N   UNL d   1      -7.264   7.360 -16.993 -0.13 +0.04    -0.248    16.490
ATOM     27  N   UNL d   1      -6.092   8.925 -14.886 -0.07 +0.03    -0.248    16.490
ATOM     28  N   UNL d   1      -8.070   7.974 -13.015 -0.03 -0.01    -0.248    16.490
ATOM     29 FE   UNL d   1      -7.666   7.668 -15.002 -0.04 -0.00    +0.000    16.490
ATOM     30  C   UNL d   1     -12.329   4.864 -13.933 -0.11 +0.02    +0.052    16.490
ATOM     31  C   UNL d   1     -12.056   3.485 -13.342 -0.15 +0.06    +0.115    16.490
ATOM     32  C   UNL d   1     -12.644   2.413 -14.217 -0.07 +0.16    +0.139    16.490
ATOM     33  O   UNL d   1     -12.394   1.233 -14.010 -0.47 -1.00    -0.650    16.490
ATOM     34  O   UNL d   1     -13.452   2.743 -15.238 -0.14 -1.24    -0.776    16.490
ATOM     35  H   UNL d   1     -14.229   3.292 -15.063 +0.01 +0.14    +0.167    16.490
ATOM     36  C   UNL d   1      -9.552   7.014  -9.738 -0.10 +0.02    +0.052    16.490
ATOM     37  C   UNL d   1      -8.844   5.763  -9.240 -0.18 +0.05    +0.115    16.490
ATOM     38  C   UNL d   1      -9.611   5.121  -8.118 -0.12 +0.15    +0.139    16.490
ATOM     39  O   UNL d   1     -10.155   4.037  -8.273 -0.11 -0.91    -0.650    16.490
ATOM     40  O   UNL d   1      -9.707   5.742  -6.929 -0.52 -1.22    -0.776    16.490
ATOM     41  H   UNL d   1      -9.274   6.599  -6.810 +0.04 +0.14    +0.167    16.490
ATOM     42  C   UNL d   1      -5.127   7.461 -20.057 -0.16 -0.00    +0.004    16.490
ATOM     43  C   UNL d   1      -3.853   7.082 -19.889 -0.19 -0.00    +0.012    16.490
ATOM     44  C   UNL d   1      -4.068  11.573 -13.299 -0.44 -0.00    +0.004    16.490
ATOM     45  C   UNL d   1      -4.805  12.450 -12.611 -0.42 -0.00    +0.012    16.490
TER
ENDMDL
MODEL       37
USER    Run = 37
USER    Cluster Rank = 6
USER    Number of conformations in this cluster = 2
USER  
USER    RMSD from reference structure       = 14.445 A
USER  
USER    Estimated Free Energy of Binding    =   -7.80 kcal/mol  [=(1)+(2)+(3)-(4)]
USER    Estimated Inhibition Constant, Ki   =    1.92 uM (micromolar)  [Temperature = 298.15 K]
USER    
USER    (1) Final Intermolecular Energy     =  -10.78 kcal/mol
USER        vdW + Hbond + desolv Energy     =   -9.20 kcal/mol
USER        Electrostatic Energy            =   -1.58 kcal/mol
USER    (2) Final Total Internal Energy     =   -0.49 kcal/mol
USER    (3) Torsional Free Energy           =   +2.98 kcal/mol
USER    (4) Unbound System's Energy  [=(2)] =   -0.49 kcal/mol
USER    
USER    
USER  
USER    DPF = D:/Protein_go_brrr/autodock/final/mut_K82N/heme_Fe/dock.dpf
USER    NEWDPF move	heme_Fe_opt.pdbqt
USER    NEWDPF about	-0.174000 -0.001000 -0.047000
USER    NEWDPF tran0	-6.477258 8.432449 -11.649777
USER    NEWDPF axisangle0	0.638362 0.492983 -0.591152 -132.299703
USER    NEWDPF quaternion0	0.583850 0.450886 -0.540671 -0.404346
USER    NEWDPF dihe0	-160.52 9.13 -173.84 16.99 -133.77 -82.78 -21.58 -41.90 171.33 -155.20 
USER  
USER                              x       y       z    vdW   Elec        q     RMS 
ATOM      1  C   UNL d   1      -6.693   7.761  -9.723 -0.29 +0.00    +0.064    14.445
ATOM      2  C   UNL d   1      -9.814   9.159 -13.292 -0.03 +0.00    +0.064    14.445
ATOM      3  C   UNL d   1      -6.226   8.822 -16.466 -0.13 -0.01    +0.064    14.445
ATOM      4  C   UNL d   1      -3.164   7.569 -13.010 -0.52 -0.01    +0.064    14.445
ATOM      5  C   UNL d   1      -7.885   8.266 -10.419 -0.14 +0.01    +0.066    14.445
ATOM      6  C   UNL d   1      -9.082   8.592  -9.803 -0.10 -0.00    -0.021    14.445
ATOM      7  C   UNL d   1      -9.949   8.977 -10.795 -0.04 -0.00    -0.025    14.445
ATOM      8  C   UNL d   1      -9.247   8.871 -11.980 -0.06 +0.01    +0.066    14.445
ATOM      9  C   UNL d   1     -11.362   9.436 -10.604 -0.02 +0.01    +0.051    14.445
ATOM     10  C   UNL d   1      -9.143   9.120 -14.444 -0.04 +0.00    +0.066    14.445
ATOM     11  C   UNL d   1      -9.741   9.289 -15.695 -0.03 -0.00    -0.021    14.445
ATOM     12  C   UNL d   1      -8.730   9.179 -16.629 -0.04 -0.00    +0.000    14.445
ATOM     13  C   UNL d   1      -7.557   8.939 -15.892 -0.07 -0.01    +0.070    14.445
ATOM     14  C   UNL d   1     -11.215   9.477 -15.992 -0.01 +0.00    +0.052    14.445
ATOM     15  C   UNL d   1      -5.102   8.539 -15.767 -0.19 -0.01    +0.066    14.445
ATOM     16  C   UNL d   1      -3.835   8.534 -16.336 -0.23 +0.01    -0.021    14.445
ATOM     17  C   UNL d   1      -2.950   8.169 -15.342 -0.37 -0.00    +0.000    14.445
ATOM     18  C   UNL d   1      -3.701   7.956 -14.188 -0.40 -0.02    +0.070    14.445
ATOM     19  C   UNL d   1      -3.469   8.835 -17.765 -0.14 -0.01    +0.052    14.445
ATOM     20  C   UNL d   1      -3.913   7.395 -11.760 -0.36 -0.01    +0.066    14.445
ATOM     21  C   UNL d   1      -3.412   6.806 -10.591 -0.51 +0.00    -0.025    14.445
ATOM     22  C   UNL d   1      -4.430   6.883  -9.663 -0.46 +0.00    -0.021    14.445
ATOM     23  C   UNL d   1      -5.509   7.506 -10.302 -0.32 -0.00    +0.066    14.445
ATOM     24  C   UNL d   1      -2.050   6.197 -10.350 -0.17 +0.00    +0.051    14.445
ATOM     25  N   UNL d   1      -7.988   8.448 -11.747 -0.06 -0.01    -0.248    14.445
ATOM     26  N   UNL d   1      -7.810   8.894 -14.561 -0.05 +0.01    -0.248    14.445
ATOM     27  N   UNL d   1      -5.018   8.225 -14.437 -0.14 +0.04    -0.248    14.445
ATOM     28  N   UNL d   1      -5.203   7.775 -11.594 -0.17 +0.04    -0.248    14.445
ATOM     29 FE   UNL d   1      -6.504   8.334 -13.078 -0.05 -0.00    +0.000    14.445
ATOM     30  C   UNL d   1      -9.382   8.561  -8.343 -0.16 +0.01    +0.052    14.445
ATOM     31  C   UNL d   1     -10.133   7.287  -7.973 -0.14 +0.06    +0.115    14.445
ATOM     32  C   UNL d   1      -9.980   6.993  -6.507 -0.14 +0.13    +0.139    14.445
ATOM     33  O   UNL d   1      -9.706   5.865  -6.122 -0.43 -1.13    -0.650    14.445
ATOM     34  O   UNL d   1     -10.145   7.973  -5.602 -0.55 -0.54    -0.776    14.445
ATOM     35  H   UNL d   1     -10.628   8.771  -5.857 +0.06 +0.08    +0.167    14.445
ATOM     36  C   UNL d   1      -4.383   6.342  -8.258 -0.41 +0.00    +0.052    14.445
ATOM     37  C   UNL d   1      -4.099   4.848  -8.293 -0.34 +0.02    +0.115    14.445
ATOM     38  C   UNL d   1      -3.098   4.465  -7.239 -0.26 +0.03    +0.139    14.445
ATOM     39  O   UNL d   1      -1.899   4.594  -7.439 -0.04 -0.05    -0.650    14.445
ATOM     40  O   UNL d   1      -3.520   3.972  -6.061 -0.91 -0.25    -0.776    14.445
ATOM     41  H   UNL d   1      -2.880   3.851  -5.346 +0.10 +0.03    +0.167    14.445
ATOM     42  C   UNL d   1      -8.916   9.284 -18.109 -0.03 -0.00    +0.004    14.445
ATOM     43  C   UNL d   1      -8.484   8.317 -18.929 -0.05 -0.00    +0.012    14.445
ATOM     44  C   UNL d   1      -1.481   8.053 -15.482 -0.34 -0.00    +0.004    14.445
ATOM     45  C   UNL d   1      -0.719   9.142 -15.626 -0.42 -0.00    +0.012    14.445
TER
ENDMDL
MODEL       91
USER    Run = 91
USER    Cluster Rank = 7
USER    Number of conformations in this cluster = 5
USER  
USER    RMSD from reference structure       = 11.903 A
USER  
USER    Estimated Free Energy of Binding    =   -7.66 kcal/mol  [=(1)+(2)+(3)-(4)]
USER    Estimated Inhibition Constant, Ki   =    2.44 uM (micromolar)  [Temperature = 298.15 K]
USER    
USER    (1) Final Intermolecular Energy     =  -10.64 kcal/mol
USER        vdW + Hbond + desolv Energy     =   -6.74 kcal/mol
USER        Electrostatic Energy            =   -3.90 kcal/mol
USER    (2) Final Total Internal Energy     =   -0.59 kcal/mol
USER    (3) Torsional Free Energy           =   +2.98 kcal/mol
USER    (4) Unbound System's Energy  [=(2)] =   -0.59 kcal/mol
USER    
USER    
USER  
USER    DPF = D:/Protein_go_brrr/autodock/final/mut_K82N/heme_Fe/dock.dpf
USER    NEWDPF move	heme_Fe_opt.pdbqt
USER    NEWDPF about	-0.174000 -0.001000 -0.047000
USER    NEWDPF tran0	-13.322800 0.285660 -6.947259
USER    NEWDPF axisangle0	0.780578 0.024310 0.624586 132.628302
USER    NEWDPF quaternion0	0.714823 0.022262 0.571972 0.401722
USER    NEWDPF dihe0	156.15 174.59 -115.99 20.93 92.90 -36.80 -176.95 33.70 -178.64 -24.52 
USER  
USER                              x       y       z    vdW   Elec        q     RMS 
ATOM      1  C   UNL d   1     -13.609   1.492  -8.582 -0.08 +0.04    +0.064    11.903
ATOM      2  C   UNL d   1     -14.139   2.062  -3.701 -0.08 +0.04    +0.064    11.903
ATOM      3  C   UNL d   1     -11.564  -1.935  -3.025 -0.18 -0.01    +0.064    11.903
ATOM      4  C   UNL d   1     -11.128  -2.563  -7.747 -0.27 +0.01    +0.064    11.903
ATOM      5  C   UNL d   1     -14.068   1.977  -7.274 -0.06 +0.05    +0.066    11.903
ATOM      6  C   UNL d   1     -14.926   3.048  -7.084 -0.05 -0.01    -0.021    11.903
ATOM      7  C   UNL d   1     -15.069   3.208  -5.728 -0.07 -0.02    -0.025    11.903
ATOM      8  C   UNL d   1     -14.293   2.227  -5.141 -0.06 +0.05    +0.066    11.903
ATOM      9  C   UNL d   1     -15.921   4.235  -5.045 -0.04 +0.02    +0.051    11.903
ATOM     10  C   UNL d   1     -13.443   1.090  -3.110 -0.09 +0.02    +0.066    11.903
ATOM     11  C   UNL d   1     -13.220   1.024  -1.733 -0.12 -0.00    -0.021    11.903
ATOM     12  C   UNL d   1     -12.465  -0.111  -1.513 -0.16 -0.00    +0.000    11.903
ATOM     13  C   UNL d   1     -12.258  -0.680  -2.782 -0.12 +0.00    +0.070    11.903
ATOM     14  C   UNL d   1     -13.646   2.031  -0.684 -0.13 +0.01    +0.052    11.903
ATOM     15  C   UNL d   1     -11.317  -2.461  -4.247 -0.15 -0.01    +0.066    11.903
ATOM     16  C   UNL d   1     -10.739  -3.710  -4.434 -0.20 +0.00    -0.021    11.903
ATOM     17  C   UNL d   1     -10.610  -3.892  -5.795 -0.20 -0.00    +0.000    11.903
ATOM     18  C   UNL d   1     -11.108  -2.745  -6.408 -0.15 +0.01    +0.070    11.903
ATOM     19  C   UNL d   1     -10.302  -4.686  -3.375 -0.32 -0.02    +0.052    11.903
ATOM     20  C   UNL d   1     -11.701  -1.397  -8.430 -0.23 +0.01    +0.066    11.903
ATOM     21  C   UNL d   1     -11.551  -1.102  -9.793 -0.28 -0.01    -0.025    11.903
ATOM     22  C   UNL d   1     -12.276   0.050 -10.011 -0.16 -0.01    -0.021    11.903
ATOM     23  C   UNL d   1     -12.832   0.415  -8.779 -0.11 +0.03    +0.066    11.903
ATOM     24  C   UNL d   1     -10.765  -1.857 -10.840 -0.25 +0.00    +0.051    11.903
ATOM     25  N   UNL d   1     -13.693   1.474  -6.085 -0.07 -0.22    -0.248    11.903
ATOM     26  N   UNL d   1     -12.846   0.056  -3.756 -0.07 -0.07    -0.248    11.903
ATOM     27  N   UNL d   1     -11.584  -1.883  -5.460 -0.10 -0.03    -0.248    11.903
ATOM     28  N   UNL d   1     -12.441  -0.447  -7.809 -0.08 -0.09    -0.248    11.903
ATOM     29 FE   UNL d   1     -12.643  -0.197  -5.784 -0.02 +0.00    +0.000    11.903
ATOM     30  C   UNL d   1     -15.593   3.866  -8.135 -0.02 +0.02    +0.052    11.903
ATOM     31  C   UNL d   1     -14.717   5.048  -8.538 -0.02 +0.06    +0.115    11.903
ATOM     32  C   UNL d   1     -13.402   5.000  -7.810 +0.02 +0.16    +0.139    11.903
ATOM     33  O   UNL d   1     -12.431   4.452  -8.313 +0.02 -0.91    -0.650    11.903
ATOM     34  O   UNL d   1     -13.283   5.561  -6.595 -0.25 -1.37    -0.776    11.903
ATOM     35  H   UNL d   1     -13.892   6.269  -6.343 +0.01 +0.15    +0.167    11.903
ATOM     36  C   UNL d   1     -12.387   0.785 -11.321 -0.17 +0.02    +0.052    11.903
ATOM     37  C   UNL d   1     -13.265  -0.006 -12.280 -0.14 +0.05    +0.115    11.903
ATOM     38  C   UNL d   1     -12.810   0.176 -13.701 -0.08 +0.16    +0.139    11.903
ATOM     39  O   UNL d   1     -12.387   1.254 -14.089 -0.45 -1.05    -0.650    11.903
ATOM     40  O   UNL d   1     -12.870  -0.856 -14.562 -0.24 -1.09    -0.776    11.903
ATOM     41  H   UNL d   1     -13.129  -1.728 -14.233 +0.04 +0.11    +0.167    11.903
ATOM     42  C   UNL d   1     -11.981  -0.571  -0.175 -0.27 -0.00    +0.004    11.903
ATOM     43  C   UNL d   1     -11.054   0.122   0.499 -0.36 -0.00    +0.012    11.903
ATOM     44  C   UNL d   1     -10.063  -5.093  -6.465 -0.48 -0.00    +0.004    11.903
ATOM     45  C   UNL d   1     -10.780  -6.219  -6.544 -0.44 -0.00    +0.012    11.903
TER
ENDMDL
MODEL       92
USER    Run = 92
USER    Cluster Rank = 8
USER    Number of conformations in this cluster = 2
USER  
USER    RMSD from reference structure       = 13.330 A
USER  
USER    Estimated Free Energy of Binding    =   -7.65 kcal/mol  [=(1)+(2)+(3)-(4)]
USER    Estimated Inhibition Constant, Ki   =    2.46 uM (micromolar)  [Temperature = 298.15 K]
USER    
USER    (1) Final Intermolecular Energy     =  -10.64 kcal/mol
USER        vdW + Hbond + desolv Energy     =   -7.25 kcal/mol
USER        Electrostatic Energy            =   -3.38 kcal/mol
USER    (2) Final Total Internal Energy     =   -0.66 kcal/mol
USER    (3) Torsional Free Energy           =   +2.98 kcal/mol
USER    (4) Unbound System's Energy  [=(2)] =   -0.66 kcal/mol
USER    
USER    
USER  
USER    DPF = D:/Protein_go_brrr/autodock/final/mut_K82N/heme_Fe/dock.dpf
USER    NEWDPF move	heme_Fe_opt.pdbqt
USER    NEWDPF about	-0.174000 -0.001000 -0.047000
USER    NEWDPF tran0	-11.262271 5.516189 -9.081670
USER    NEWDPF axisangle0	-0.838249 -0.542278 0.057210 -120.801042
USER    NEWDPF quaternion0	-0.728857 -0.471510 0.049744 -0.493934
USER    NEWDPF dihe0	-143.59 -135.38 -139.93 6.59 -107.35 -115.83 -145.47 -28.26 -29.11 -163.50 
USER  
USER                              x       y       z    vdW   Elec        q     RMS 
ATOM      1  C   UNL d   1     -12.677   4.419 -10.085 -0.07 +0.03    +0.064    13.330
ATOM      2  C   UNL d   1     -12.684   7.202  -6.001 -0.09 +0.06    +0.064    13.330
ATOM      3  C   UNL d   1      -8.458   9.052  -7.336 -0.27 +0.01    +0.064    13.330
ATOM      4  C   UNL d   1      -8.380   6.290 -11.242 -0.06 +0.01    +0.064    13.330
ATOM      5  C   UNL d   1     -13.031   4.970  -8.770 -0.06 +0.05    +0.066    13.330
ATOM      6  C   UNL d   1     -14.130   4.584  -8.021 -0.05 -0.02    -0.021    13.330
ATOM      7  C   UNL d   1     -14.134   5.360  -6.888 -0.04 -0.03    -0.025    13.330
ATOM      8  C   UNL d   1     -13.035   6.191  -6.990 +0.00 +0.08    +0.066    13.330
ATOM      9  C   UNL d   1     -15.128   5.286  -5.771 -0.06 +0.03    +0.051    13.330
ATOM     10  C   UNL d   1     -11.599   7.977  -6.046 -0.13 +0.04    +0.066    13.330
ATOM     11  C   UNL d   1     -11.350   9.015  -5.145 -0.16 -0.01    -0.021    13.330
ATOM     12  C   UNL d   1     -10.145   9.576  -5.519 -0.29 +0.00    +0.000    13.330
ATOM     13  C   UNL d   1      -9.721   8.848  -6.644 -0.20 +0.03    +0.070    13.330
ATOM     14  C   UNL d   1     -12.250   9.495  -4.024 -0.14 +0.01    +0.052    13.330
ATOM     15  C   UNL d   1      -8.068   8.389  -8.451 -0.22 +0.01    +0.066    13.330
ATOM     16  C   UNL d   1      -6.812   8.542  -9.024 -0.33 -0.00    -0.021    13.330
ATOM     17  C   UNL d   1      -6.789   7.749 -10.153 -0.25 +0.00    +0.000    13.330
ATOM     18  C   UNL d   1      -8.035   7.133 -10.244 -0.15 +0.01    +0.070    13.330
ATOM     19  C   UNL d   1      -5.685   9.417  -8.547 -0.30 -0.00    +0.052    13.330
ATOM     20  C   UNL d   1      -9.659   5.577 -11.338 -0.16 +0.02    +0.066    13.330
ATOM     21  C   UNL d   1     -10.106   4.863 -12.458 -0.21 -0.01    -0.025    13.330
ATOM     22  C   UNL d   1     -11.327   4.327 -12.102 -0.14 -0.01    -0.021    13.330
ATOM     23  C   UNL d   1     -11.578   4.739 -10.787 -0.10 +0.03    +0.066    13.330
ATOM     24  C   UNL d   1      -9.431   4.690 -13.798 -0.21 +0.01    +0.051    13.330
ATOM     25  N   UNL d   1     -12.360   5.944  -8.131 -0.05 -0.25    -0.248    13.330
ATOM     26  N   UNL d   1     -10.611   7.880  -6.971 -0.10 -0.15    -0.248    13.330
ATOM     27  N   UNL d   1      -8.807   7.492  -9.175 -0.07 -0.06    -0.248    13.330
ATOM     28  N   UNL d   1     -10.578   5.538 -10.342 -0.05 -0.10    -0.248    13.330
ATOM     29 FE   UNL d   1     -10.593   6.709  -8.658 -0.02 +0.00    +0.000    13.330
ATOM     30  C   UNL d   1     -15.117   3.517  -8.352 -0.03 +0.02    +0.052    13.330
ATOM     31  C   UNL d   1     -14.427   2.163  -8.479 -0.04 +0.06    +0.115    13.330
ATOM     32  C   UNL d   1     -13.286   2.060  -7.505 +0.07 +0.16    +0.139    13.330
ATOM     33  O   UNL d   1     -12.128   2.109  -7.894 -0.55 -0.99    -0.650    13.330
ATOM     34  O   UNL d   1     -13.531   1.913  -6.192 -0.14 -0.97    -0.776    13.330
ATOM     35  H   UNL d   1     -14.284   1.373  -5.913 +0.01 +0.10    +0.167    13.330
ATOM     36  C   UNL d   1     -12.222   3.507 -12.993 -0.16 +0.02    +0.052    13.330
ATOM     37  C   UNL d   1     -12.744   4.372 -14.131 -0.11 +0.05    +0.115    13.330
ATOM     38  C   UNL d   1     -13.014   3.545 -15.356 -0.09 +0.15    +0.139    13.330
ATOM     39  O   UNL d   1     -12.377   3.725 -16.384 -0.33 -0.79    -0.650    13.330
ATOM     40  O   UNL d   1     -13.967   2.597 -15.330 -0.18 -1.15    -0.776    13.330
ATOM     41  H   UNL d   1     -14.822   2.801 -14.925 +0.01 +0.13    +0.167    13.330
ATOM     42  C   UNL d   1      -9.490  10.733  -4.835 -0.50 +0.00    +0.004    13.330
ATOM     43  C   UNL d   1      -9.710  11.990  -5.243 -0.45 +0.00    +0.012    13.330
ATOM     44  C   UNL d   1      -5.642   7.575 -11.073 -0.30 -0.00    +0.004    13.330
ATOM     45  C   UNL d   1      -4.480   7.080 -10.633 -0.49 -0.00    +0.012    13.330
TER
ENDMDL
MODEL       72
USER    Run = 72
USER    Cluster Rank = 9
USER    Number of conformations in this cluster = 7
USER  
USER    RMSD from reference structure       = 15.570 A
USER  
USER    Estimated Free Energy of Binding    =   -7.48 kcal/mol  [=(1)+(2)+(3)-(4)]
USER    Estimated Inhibition Constant, Ki   =    3.30 uM (micromolar)  [Temperature = 298.15 K]
USER    
USER    (1) Final Intermolecular Energy     =  -10.46 kcal/mol
USER        vdW + Hbond + desolv Energy     =   -7.59 kcal/mol
USER        Electrostatic Energy            =   -2.87 kcal/mol
USER    (2) Final Total Internal Energy     =   -0.65 kcal/mol
USER    (3) Torsional Free Energy           =   +2.98 kcal/mol
USER    (4) Unbound System's Energy  [=(2)] =   -0.65 kcal/mol
USER    
USER    
USER  
USER    DPF = D:/Protein_go_brrr/autodock/final/mut_K82N/heme_Fe/dock.dpf
USER    NEWDPF move	heme_Fe_opt.pdbqt
USER    NEWDPF about	-0.174000 -0.001000 -0.047000
USER    NEWDPF tran0	-8.496937 10.663360 -11.377418
USER    NEWDPF axisangle0	0.920827 0.119157 -0.371321 -149.591605
USER    NEWDPF quaternion0	0.888596 0.114986 -0.358324 -0.262260
USER    NEWDPF dihe0	-177.46 165.64 92.68 75.67 70.52 -171.56 -114.19 71.93 -17.31 -14.85 
USER  
USER                              x       y       z    vdW   Elec        q     RMS 
ATOM      1  C   UNL d   1     -10.247  10.388 -10.341 -0.09 +0.01    +0.064    15.570
ATOM      2  C   UNL d   1      -8.822  13.334 -14.045 -0.04 +0.01    +0.064    15.570
ATOM      3  C   UNL d   1      -4.940  10.573 -14.656 -0.19 -0.02    +0.064    15.570
ATOM      4  C   UNL d   1      -6.247   7.770 -11.007 -0.24 -0.00    +0.064    15.570
ATOM      5  C   UNL d   1     -10.163  11.522 -11.273 -0.06 +0.02    +0.066    15.570
ATOM      6  C   UNL d   1     -11.052  12.583 -11.308 -0.08 -0.01    -0.021    15.570
ATOM      7  C   UNL d   1     -10.658  13.399 -12.340 -0.04 -0.01    -0.025    15.570
ATOM      8  C   UNL d   1      -9.541  12.804 -12.894 +0.16 +0.02    +0.066    15.570
ATOM      9  C   UNL d   1     -11.310  14.684 -12.748 -0.07 +0.01    +0.051    15.570
ATOM     10  C   UNL d   1      -7.709  12.811 -14.564 -0.10 -0.00    +0.066    15.570
ATOM     11  C   UNL d   1      -7.108  13.276 -15.736 -0.07 +0.00    -0.021    15.570
ATOM     12  C   UNL d   1      -5.995  12.485 -15.943 -0.09 -0.00    +0.000    15.570
ATOM     13  C   UNL d   1      -5.980  11.564 -14.881 -0.10 -0.01    +0.070    15.570
ATOM     14  C   UNL d   1      -7.606  14.375 -16.652 -0.04 -0.01    +0.052    15.570
ATOM     15  C   UNL d   1      -4.948   9.651 -13.665 -0.23 -0.01    +0.066    15.570
ATOM     16  C   UNL d   1      -3.888   8.786 -13.424 -0.33 +0.01    -0.021    15.570
ATOM     17  C   UNL d   1      -4.264   7.975 -12.374 -0.33 -0.00    +0.000    15.570
ATOM     18  C   UNL d   1      -5.549   8.361 -12.001 -0.20 -0.01    +0.070    15.570
ATOM     19  C   UNL d   1      -2.581   8.707 -14.167 -0.45 -0.01    +0.052    15.570
ATOM     20  C   UNL d   1      -7.575   8.189 -10.546 -0.15 +0.00    +0.066    15.570
ATOM     21  C   UNL d   1      -8.390   7.469  -9.660 -0.14 -0.00    -0.025    15.570
ATOM     22  C   UNL d   1      -9.519   8.240  -9.475 -0.08 -0.00    -0.021    15.570
ATOM     23  C   UNL d   1      -9.353   9.390 -10.255 -0.08 +0.01    +0.066    15.570
ATOM     24  C   UNL d   1      -8.130   6.125  -9.020 -0.23 +0.02    +0.051    15.570
ATOM     25  N   UNL d   1      -9.237  11.667 -12.237 -0.04 -0.07    -0.248    15.570
ATOM     26  N   UNL d   1      -7.030  11.757 -14.045 -0.07 +0.02    -0.248    15.570
ATOM     27  N   UNL d   1      -5.953   9.420 -12.765 -0.13 +0.04    -0.248    15.570
ATOM     28  N   UNL d   1      -8.186   9.333 -10.941 -0.06 -0.02    -0.248    15.570
ATOM     29 FE   UNL d   1      -7.607  10.543 -12.492 -0.03 +0.00    +0.000    15.570
ATOM     30  C   UNL d   1     -12.206  12.824 -10.396 -0.06 +0.01    +0.052    15.570
ATOM     31  C   UNL d   1     -11.723  13.242  -9.012 -0.13 +0.05    +0.115    15.570
ATOM     32  C   UNL d   1     -11.038  14.579  -9.075 -0.24 +0.11    +0.139    15.570
ATOM     33  O   UNL d   1     -11.681  15.599  -9.282 -0.17 -0.66    -0.650    15.570
ATOM     34  O   UNL d   1      -9.709  14.665  -8.904 -0.38 -0.68    -0.776    15.570
ATOM     35  H   UNL d   1      -9.198  13.853  -8.777 -0.42 +0.06    +0.167    15.570
ATOM     36  C   UNL d   1     -10.711   7.866  -8.633 -0.07 +0.02    +0.052    15.570
ATOM     37  C   UNL d   1     -10.428   8.187  -7.172 -0.15 +0.06    +0.115    15.570
ATOM     38  C   UNL d   1     -10.238   6.931  -6.371 -0.18 +0.15    +0.139    15.570
ATOM     39  O   UNL d   1     -10.153   6.972  -5.153 -0.47 -0.67    -0.650    15.570
ATOM     40  O   UNL d   1     -10.157   5.742  -6.996 -0.35 -1.48    -0.776    15.570
ATOM     41  H   UNL d   1     -10.431   5.678  -7.922 +0.03 +0.21    +0.167    15.570
ATOM     42  C   UNL d   1      -5.052  12.620 -17.096 -0.09 -0.00    +0.004    15.570
ATOM     43  C   UNL d   1      -3.731  12.475 -16.926 -0.15 -0.01    +0.012    15.570
ATOM     44  C   UNL d   1      -3.439   6.913 -11.755 -0.57 -0.00    +0.004    15.570
ATOM     45  C   UNL d   1      -3.271   6.862 -10.430 -0.57 -0.00    +0.012    15.570
TER
ENDMDL
MODEL       49
USER    Run = 49
USER    Cluster Rank = 10
USER    Number of conformations in this cluster = 7
USER  
USER    RMSD from reference structure       = 20.008 A
USER  
USER    Estimated Free Energy of Binding    =   -7.41 kcal/mol  [=(1)+(2)+(3)-(4)]
USER    Estimated Inhibition Constant, Ki   =    3.68 uM (micromolar)  [Temperature = 298.15 K]
USER    
USER    (1) Final Intermolecular Energy     =  -10.40 kcal/mol
USER        vdW + Hbond + desolv Energy     =   -9.30 kcal/mol
USER        Electrostatic Energy            =   -1.10 kcal/mol
USER    (2) Final Total Internal Energy     =   -0.64 kcal/mol
USER    (3) Torsional Free Energy           =   +2.98 kcal/mol
USER    (4) Unbound System's Energy  [=(2)] =   -0.64 kcal/mol
USER    
USER    
USER  
USER    DPF = D:/Protein_go_brrr/autodock/final/mut_K82N/heme_Fe/dock.dpf
USER    NEWDPF move	heme_Fe_opt.pdbqt
USER    NEWDPF about	-0.174000 -0.001000 -0.047000
USER    NEWDPF tran0	4.183171 6.199526 19.256314
USER    NEWDPF axisangle0	0.025199 0.957251 -0.288159 -156.214717
USER    NEWDPF quaternion0	0.024658 0.936704 -0.281974 -0.206079
USER    NEWDPF dihe0	123.25 -148.92 170.47 -158.66 42.99 80.37 19.75 -82.52 20.80 173.90 
USER  
USER                              x       y       z    vdW   Elec        q     RMS 
ATOM      1  C   UNL d   1       6.182   6.002  19.677 -0.24 -0.01    +0.064    20.008
ATOM      2  C   UNL d   1       2.232   3.059  20.086 -0.26 -0.05    +0.064    20.008
ATOM      3  C   UNL d   1      -0.205   6.048  17.224 -0.25 -0.02    +0.064    20.008
ATOM      4  C   UNL d   1       3.572   8.965  16.900 -0.27 -0.02    +0.064    20.008
ATOM      5  C   UNL d   1       5.271   4.940  20.125 -0.25 -0.01    +0.066    20.008
ATOM      6  C   UNL d   1       5.593   3.958  21.047 -0.29 +0.00    -0.021    20.008
ATOM      7  C   UNL d   1       4.497   3.139  21.157 -0.29 +0.01    -0.025    20.008
ATOM      8  C   UNL d   1       3.546   3.653  20.297 -0.28 -0.03    +0.066    20.008
ATOM      9  C   UNL d   1       4.374   1.945  22.053 -0.21 -0.03    +0.051    20.008
ATOM     10  C   UNL d   1       1.276   3.567  19.306 -0.27 -0.04    +0.066    20.008
ATOM     11  C   UNL d   1       0.071   2.915  19.034 -0.27 +0.01    -0.021    20.008
ATOM     12  C   UNL d   1      -0.643   3.749  18.197 -0.26 -0.00    +0.000    20.008
ATOM     13  C   UNL d   1       0.175   4.874  17.993 -0.22 -0.03    +0.070    20.008
ATOM     14  C   UNL d   1      -0.352   1.534  19.493 -0.35 -0.03    +0.052    20.008
ATOM     15  C   UNL d   1       0.598   7.110  16.982 -0.22 -0.03    +0.066    20.008
ATOM     16  C   UNL d   1       0.165   8.256  16.327 -0.22 +0.01    -0.021    20.008
ATOM     17  C   UNL d   1       1.254   9.097  16.229 -0.23 -0.00    +0.000    20.008
ATOM     18  C   UNL d   1       2.329   8.442  16.825 -0.24 -0.03    +0.070    20.008
ATOM     19  C   UNL d   1      -1.212   8.541  15.790 -0.22 -0.05    +0.052    20.008
ATOM     20  C   UNL d   1       4.713   8.332  17.573 -0.21 -0.03    +0.066    20.008
ATOM     21  C   UNL d   1       6.045   8.763  17.488 -0.18 +0.01    -0.025    20.008
ATOM     22  C   UNL d   1       6.769   7.912  18.297 -0.16 +0.00    -0.021    20.008
ATOM     23  C   UNL d   1       5.857   6.996  18.836 -0.21 -0.02    +0.066    20.008
ATOM     24  C   UNL d   1       6.616   9.910  16.687 -0.17 -0.01    +0.051    20.008
ATOM     25  N   UNL d   1       4.016   4.755  19.678 -0.19 +0.09    -0.248    20.008
ATOM     26  N   UNL d   1       1.349   4.759  18.662 -0.04 +0.13    -0.248    20.008
ATOM     27  N   UNL d   1       1.917   7.239  17.326 +0.02 +0.13    -0.248    20.008
ATOM     28  N   UNL d   1       4.611   7.230  18.355 -0.16 +0.09    -0.248    20.008
ATOM     29 FE   UNL d   1       2.980   5.996  18.507 -0.06 -0.00    +0.000    20.008
ATOM     30  C   UNL d   1       6.870   3.815  21.802 -0.29 +0.01    +0.052    20.008
ATOM     31  C   UNL d   1       6.661   4.125  23.281 -0.15 +0.03    +0.115    20.008
ATOM     32  C   UNL d   1       7.972   4.453  23.940 -0.06 +0.10    +0.139    20.008
ATOM     33  O   UNL d   1       8.786   5.177  23.383 -0.01 -0.48    -0.650    20.008
ATOM     34  O   UNL d   1       8.262   3.951  25.152 -0.35 -0.93    -0.776    20.008
ATOM     35  H   UNL d   1       7.658   4.124  25.888 +0.01 +0.12    +0.167    20.008
ATOM     36  C   UNL d   1       8.261   7.948  18.500 -0.12 -0.00    +0.052    20.008
ATOM     37  C   UNL d   1       8.943   7.082  17.451 -0.19 -0.01    +0.115    20.008
ATOM     38  C   UNL d   1       9.418   7.912  16.292 -0.19 -0.01    +0.139    20.008
ATOM     39  O   UNL d   1      10.461   8.544  16.363 +0.03 +0.02    -0.650    20.008
ATOM     40  O   UNL d   1       8.690   7.966  15.163 -0.15 +0.08    -0.776    20.008
ATOM     41  H   UNL d   1       7.728   7.881  15.219 -0.52 -0.07    +0.167    20.008
ATOM     42  C   UNL d   1      -1.998   3.447  17.640 -0.32 -0.00    +0.004    20.008
ATOM     43  C   UNL d   1      -2.319   3.788  16.385 -0.29 -0.00    +0.012    20.008
ATOM     44  C   UNL d   1       1.259  10.449  15.624 -0.20 -0.00    +0.004    20.008
ATOM     45  C   UNL d   1       1.803  10.658  14.421 -0.30 -0.01    +0.012    20.008
TER
ENDMDL
MODEL       76
USER    Run = 76
USER    Cluster Rank = 11
USER    Number of conformations in this cluster = 1
USER  
USER    RMSD from reference structure       = 19.239 A
USER  
USER    Estimated Free Energy of Binding    =   -7.39 kcal/mol  [=(1)+(2)+(3)-(4)]
USER    Estimated Inhibition Constant, Ki   =    3.85 uM (micromolar)  [Temperature = 298.15 K]
USER    
USER    (1) Final Intermolecular Energy     =  -10.37 kcal/mol
USER        vdW + Hbond + desolv Energy     =   -7.21 kcal/mol
USER        Electrostatic Energy            =   -3.16 kcal/mol
USER    (2) Final Total Internal Energy     =   -0.79 kcal/mol
USER    (3) Torsional Free Energy           =   +2.98 kcal/mol
USER    (4) Unbound System's Energy  [=(2)] =   -0.79 kcal/mol
USER    
USER    
USER  
USER    DPF = D:/Protein_go_brrr/autodock/final/mut_K82N/heme_Fe/dock.dpf
USER    NEWDPF move	heme_Fe_opt.pdbqt
USER    NEWDPF about	-0.174000 -0.001000 -0.047000
USER    NEWDPF tran0	-4.880867 21.765772 4.447611
USER    NEWDPF axisangle0	0.789657 -0.140240 -0.597306 105.707774
USER    NEWDPF quaternion0	0.629434 -0.111785 -0.476112 0.603850
USER    NEWDPF dihe0	-91.93 -102.99 80.61 -7.53 99.62 79.72 110.86 -133.94 19.30 -16.82 
USER  
USER                              x       y       z    vdW   Elec        q     RMS 
ATOM      1  C   UNL d   1      -6.119  21.381   6.038 -0.11 +0.01    +0.064    19.239
ATOM      2  C   UNL d   1      -1.744  23.616   5.494 -0.09 -0.01    +0.064    19.239
ATOM      3  C   UNL d   1      -2.505  23.800   0.756 -0.21 -0.02    +0.064    19.239
ATOM      4  C   UNL d   1      -6.694  21.543   1.248 -0.23 -0.00    +0.064    19.239
ATOM      5  C   UNL d   1      -4.780  21.918   6.316 -0.07 +0.01    +0.066    19.239
ATOM      6  C   UNL d   1      -4.173  21.925   7.561 -0.03 -0.00    -0.021    19.239
ATOM      7  C   UNL d   1      -2.960  22.549   7.410 -0.03 +0.00    -0.025    19.239
ATOM      8  C   UNL d   1      -2.872  22.899   6.076 -0.06 -0.00    +0.066    19.239
ATOM      9  C   UNL d   1      -1.942  22.774   8.486 -0.01 -0.00    +0.051    19.239
ATOM     10  C   UNL d   1      -1.609  23.915   4.201 -0.15 -0.02    +0.066    19.239
ATOM     11  C   UNL d   1      -0.573  24.702   3.692 -0.16 +0.01    -0.021    19.239
ATOM     12  C   UNL d   1      -0.779  24.784   2.330 -0.22 -0.00    +0.000    19.239
ATOM     13  C   UNL d   1      -1.946  24.042   2.076 -0.20 -0.02    +0.070    19.239
ATOM     14  C   UNL d   1       0.521  25.399   4.475 -0.11 -0.03    +0.052    19.239
ATOM     15  C   UNL d   1      -3.656  23.130   0.512 -0.21 -0.02    +0.066    19.239
ATOM     16  C   UNL d   1      -4.104  22.834  -0.769 -0.27 +0.01    -0.021    19.239
ATOM     17  C   UNL d   1      -5.314  22.186  -0.630 -0.26 -0.00    +0.000    19.239
ATOM     18  C   UNL d   1      -5.578  22.106   0.736 -0.23 -0.01    +0.070    19.239
ATOM     19  C   UNL d   1      -3.436  23.167  -2.076 -0.28 -0.03    +0.052    19.239
ATOM     20  C   UNL d   1      -6.977  21.387   2.680 -0.16 -0.00    +0.066    19.239
ATOM     21  C   UNL d   1      -8.207  20.991   3.224 -0.19 -0.00    -0.025    19.239
ATOM     22  C   UNL d   1      -8.017  20.939   4.589 -0.13 -0.00    -0.021    19.239
ATOM     23  C   UNL d   1      -6.687  21.309   4.824 -0.12 +0.01    +0.066    19.239
ATOM     24  C   UNL d   1      -9.500  20.681   2.506 -0.13 +0.01    +0.051    19.239
ATOM     25  N   UNL d   1      -3.977  22.505   5.411 -0.05 -0.01    -0.248    19.239
ATOM     26  N   UNL d   1      -2.457  23.520   3.218 -0.13 +0.05    -0.248    19.239
ATOM     27  N   UNL d   1      -4.539  22.647   1.440 -0.13 +0.03    -0.248    19.239
ATOM     28  N   UNL d   1      -6.071  21.624   3.659 -0.09 +0.00    -0.248    19.239
ATOM     29 FE   UNL d   1      -4.265  22.572   3.437 -0.04 -0.00    +0.000    19.239
ATOM     30  C   UNL d   1      -4.708  21.350   8.828 -0.01 +0.01    +0.052    19.239
ATOM     31  C   UNL d   1      -3.933  20.097   9.222 -0.03 +0.03    +0.115    19.239
ATOM     32  C   UNL d   1      -4.217  18.978   8.260 -0.02 +0.13    +0.139    19.239
ATOM     33  O   UNL d   1      -3.433  18.715   7.358 -0.54 -0.81    -0.650    19.239
ATOM     34  O   UNL d   1      -5.342  18.252   8.382 +0.18 -1.13    -0.776    19.239
ATOM     35  H   UNL d   1      -6.147  18.555   7.938 +0.02 +0.24    +0.167    19.239
ATOM     36  C   UNL d   1      -9.069  20.601   5.612 -0.06 +0.01    +0.052    19.239
ATOM     37  C   UNL d   1      -9.247  19.091   5.686 -0.11 +0.04    +0.115    19.239
ATOM     38  C   UNL d   1      -7.916  18.394   5.722 -0.16 +0.13    +0.139    19.239
ATOM     39  O   UNL d   1      -7.277  18.321   6.761 -0.07 -1.01    -0.650    19.239
ATOM     40  O   UNL d   1      -7.416  17.844   4.601 -0.54 -0.80    -0.776    19.239
ATOM     41  H   UNL d   1      -7.020  18.420   3.932 -0.44 +0.06    +0.167    19.239
ATOM     42  C   UNL d   1       0.090  25.542   1.377 -0.25 -0.00    +0.004    19.239
ATOM     43  C   UNL d   1       0.577  24.958   0.274 -0.30 -0.01    +0.012    19.239
ATOM     44  C   UNL d   1      -6.153  21.659  -1.730 -0.33 -0.00    +0.004    19.239
ATOM     45  C   UNL d   1      -5.611  20.943  -2.721 -0.44 -0.00    +0.012    19.239
TER
ENDMDL
MODEL       61
USER    Run = 61
USER    Cluster Rank = 12
USER    Number of conformations in this cluster = 3
USER  
USER    RMSD from reference structure       = 11.809 A
USER  
USER    Estimated Free Energy of Binding    =   -7.16 kcal/mol  [=(1)+(2)+(3)-(4)]
USER    Estimated Inhibition Constant, Ki   =    5.66 uM (micromolar)  [Temperature = 298.15 K]
USER    
USER    (1) Final Intermolecular Energy     =  -10.14 kcal/mol
USER        vdW + Hbond + desolv Energy     =   -7.75 kcal/mol
USER        Electrostatic Energy            =   -2.39 kcal/mol
USER    (2) Final Total Internal Energy     =   -0.66 kcal/mol
USER    (3) Torsional Free Energy           =   +2.98 kcal/mol
USER    (4) Unbound System's Energy  [=(2)] =   -0.66 kcal/mol
USER    
USER    
USER  
USER    DPF = D:/Protein_go_brrr/autodock/final/mut_K82N/heme_Fe/dock.dpf
USER    NEWDPF move	heme_Fe_opt.pdbqt
USER    NEWDPF about	-0.174000 -0.001000 -0.047000
USER    NEWDPF tran0	-9.793149 4.292440 -9.026221
USER    NEWDPF axisangle0	-0.990254 -0.039694 -0.133499 140.829213
USER    NEWDPF quaternion0	-0.932961 -0.037397 -0.125775 0.335211
USER    NEWDPF dihe0	165.92 138.31 -173.96 54.48 3.21 55.01 -99.98 -146.63 159.36 -32.18 
USER  
USER                              x       y       z    vdW   Elec        q     RMS 
ATOM      1  C   UNL d   1     -11.567   3.705  -9.875 -0.14 +0.04    +0.064    11.809
ATOM      2  C   UNL d   1      -8.043   6.956 -11.076 -0.08 +0.01    +0.064    11.809
ATOM      3  C   UNL d   1      -5.133   4.882  -7.867 -0.23 +0.01    +0.064    11.809
ATOM      4  C   UNL d   1      -8.564   1.793  -6.614 -0.22 +0.04    +0.064    11.809
ATOM      5  C   UNL d   1     -10.873   4.865 -10.451 -0.12 +0.03    +0.066    11.809
ATOM      6  C   UNL d   1     -11.442   5.769 -11.333 -0.07 -0.01    -0.021    11.809
ATOM      7  C   UNL d   1     -10.461   6.669 -11.669 -0.07 -0.00    -0.025    11.809
ATOM      8  C   UNL d   1      -9.330   6.280 -10.978 -0.13 +0.01    +0.066    11.809
ATOM      9  C   UNL d   1     -10.617   7.842 -12.587 -0.05 +0.01    +0.051    11.809
ATOM     10  C   UNL d   1      -6.952   6.636 -10.376 -0.12 +0.01    +0.066    11.809
ATOM     11  C   UNL d   1      -5.703   7.228 -10.576 -0.28 +0.00    -0.021    11.809
ATOM     12  C   UNL d   1      -4.842   6.636  -9.674 -0.42 -0.00    +0.000    11.809
ATOM     13  C   UNL d   1      -5.617   5.697  -8.969 -0.25 +0.01    +0.070    11.809
ATOM     14  C   UNL d   1      -5.331   8.260 -11.621 -0.26 -0.01    +0.052    11.809
ATOM     15  C   UNL d   1      -5.860   3.941  -7.220 -0.06 +0.02    +0.066    11.809
ATOM     16  C   UNL d   1      -5.393   3.254  -6.107 -0.23 -0.01    -0.021    11.809
ATOM     17  C   UNL d   1      -6.380   2.360  -5.746 -0.40 +0.00    +0.000    11.809
ATOM     18  C   UNL d   1      -7.426   2.520  -6.652 -0.34 +0.03    +0.070    11.809
ATOM     19  C   UNL d   1      -4.062   3.411  -5.422 -0.24 +0.01    +0.052    11.809
ATOM     20  C   UNL d   1      -9.711   1.977  -7.512 -0.14 +0.07    +0.066    11.809
ATOM     21  C   UNL d   1     -10.806   1.107  -7.615 -0.18 -0.02    -0.025    11.809
ATOM     22  C   UNL d   1     -11.655   1.678  -8.541 -0.15 -0.02    -0.021    11.809
ATOM     23  C   UNL d   1     -11.045   2.863  -8.968 -0.05 +0.06    +0.066    11.809
ATOM     24  C   UNL d   1     -11.048  -0.196  -6.889 -0.11 +0.02    +0.051    11.809
ATOM     25  N   UNL d   1      -9.587   5.188 -10.230 -0.11 -0.09    -0.248    11.809
ATOM     26  N   UNL d   1      -6.901   5.691  -9.403 -0.12 -0.04    -0.248    11.809
ATOM     27  N   UNL d   1      -7.126   3.522  -7.532 -0.24 -0.09    -0.248    11.809
ATOM     28  N   UNL d   1      -9.839   3.017  -8.370 -0.10 -0.25    -0.248    11.809
ATOM     29 FE   UNL d   1      -8.370   4.353  -8.886 -0.05 +0.00    +0.000    11.809
ATOM     30  C   UNL d   1     -12.851   5.790 -11.818 -0.03 +0.01    +0.052    11.809
ATOM     31  C   UNL d   1     -12.918   5.438 -13.300 -0.04 +0.03    +0.115    11.809
ATOM     32  C   UNL d   1     -12.832   3.949 -13.491 -0.11 +0.06    +0.139    11.809
ATOM     33  O   UNL d   1     -12.782   3.198 -12.526 -0.00 -0.29    -0.650    11.809
ATOM     34  O   UNL d   1     -12.810   3.427 -14.729 -0.07 -0.71    -0.776    11.809
ATOM     35  H   UNL d   1     -13.054   3.988 -15.479 +0.02 +0.14    +0.167    11.809
ATOM     36  C   UNL d   1     -12.956   1.090  -9.021 -0.12 +0.03    +0.052    11.809
ATOM     37  C   UNL d   1     -13.946   1.023  -7.868 -0.07 +0.06    +0.115    11.809
ATOM     38  C   UNL d   1     -13.736   2.162  -6.911 +0.01 +0.16    +0.139    11.809
ATOM     39  O   UNL d   1     -13.751   3.319  -7.304 -0.13 -0.89    -0.650    11.809
ATOM     40  O   UNL d   1     -13.526   1.913  -5.607 +0.01 -0.93    -0.776    11.809
ATOM     41  H   UNL d   1     -14.054   1.231  -5.167 +0.01 +0.10    +0.167    11.809
ATOM     42  C   UNL d   1      -3.388   6.958  -9.540 -0.58 -0.00    +0.004    11.809
ATOM     43  C   UNL d   1      -2.459   5.994  -9.606 -0.59 +0.00    +0.012    11.809
ATOM     44  C   UNL d   1      -6.334   1.427  -4.597 -0.52 +0.00    +0.004    11.809
ATOM     45  C   UNL d   1      -7.095   1.633  -3.517 -0.56 +0.00    +0.012    11.809
TER
ENDMDL
MODEL       67
USER    Run = 67
USER    Cluster Rank = 13
USER    Number of conformations in this cluster = 2
USER  
USER    RMSD from reference structure       = 18.145 A
USER  
USER    Estimated Free Energy of Binding    =   -7.07 kcal/mol  [=(1)+(2)+(3)-(4)]
USER    Estimated Inhibition Constant, Ki   =    6.59 uM (micromolar)  [Temperature = 298.15 K]
USER    
USER    (1) Final Intermolecular Energy     =  -10.05 kcal/mol
USER        vdW + Hbond + desolv Energy     =  -10.11 kcal/mol
USER        Electrostatic Energy            =   +0.06 kcal/mol
USER    (2) Final Total Internal Energy     =   -0.50 kcal/mol
USER    (3) Torsional Free Energy           =   +2.98 kcal/mol
USER    (4) Unbound System's Energy  [=(2)] =   -0.50 kcal/mol
USER    
USER    
USER  
USER    DPF = D:/Protein_go_brrr/autodock/final/mut_K82N/heme_Fe/dock.dpf
USER    NEWDPF move	heme_Fe_opt.pdbqt
USER    NEWDPF about	-0.174000 -0.001000 -0.047000
USER    NEWDPF tran0	0.596320 5.755551 18.261819
USER    NEWDPF axisangle0	0.992638 0.070927 0.098175 -149.840173
USER    NEWDPF quaternion0	0.958456 0.068484 0.094794 -0.260166
USER    NEWDPF dihe0	20.20 -148.97 -166.33 -111.07 -78.13 121.00 -121.44 24.67 178.80 -23.44 
USER  
USER                              x       y       z    vdW   Elec        q     RMS 
ATOM      1  C   UNL d   1      -1.220   5.190  17.492 -0.21 -0.02    +0.064    18.145
ATOM      2  C   UNL d   1       2.018   8.787  16.488 -0.24 -0.03    +0.064    18.145
ATOM      3  C   UNL d   1       5.312   6.454  19.090 -0.27 -0.02    +0.064    18.145
ATOM      4  C   UNL d   1       2.164   3.015  20.160 -0.24 -0.05    +0.064    18.145
ATOM      5  C   UNL d   1      -0.639   6.461  17.037 -0.19 -0.02    +0.066    18.145
ATOM      6  C   UNL d   1      -1.330   7.446  16.351 -0.20 +0.01    -0.021    18.145
ATOM      7  C   UNL d   1      -0.430   8.443  16.069 -0.19 +0.02    -0.025    18.145
ATOM      8  C   UNL d   1       0.778   8.028  16.595 -0.22 -0.03    +0.066    18.145
ATOM      9  C   UNL d   1      -0.727   9.724  15.353 -0.12 -0.06    +0.051    18.145
ATOM     10  C   UNL d   1       3.183   8.437  17.035 -0.24 -0.03    +0.066    18.145
ATOM     11  C   UNL d   1       4.379   9.126  16.819 -0.26 +0.01    -0.021    18.145
ATOM     12  C   UNL d   1       5.348   8.463  17.545 -0.21 -0.00    +0.000    18.145
ATOM     13  C   UNL d   1       4.688   7.388  18.166 -0.21 -0.03    +0.070    18.145
ATOM     14  C   UNL d   1       4.601  10.318  15.911 -0.13 -0.02    +0.052    18.145
ATOM     15  C   UNL d   1       4.694   5.387  19.649 -0.25 -0.02    +0.066    18.145
ATOM     16  C   UNL d   1       5.296   4.576  20.603 -0.26 +0.00    -0.021    18.145
ATOM     17  C   UNL d   1       4.391   3.581  20.911 -0.29 -0.00    +0.000    18.145
ATOM     18  C   UNL d   1       3.258   3.807  20.133 -0.27 -0.04    +0.070    18.145
ATOM     19  C   UNL d   1       6.677   4.713  21.186 -0.27 +0.01    +0.052    18.145
ATOM     20  C   UNL d   1       0.931   3.255  19.402 -0.26 -0.04    +0.066    18.145
ATOM     21  C   UNL d   1      -0.127   2.345  19.265 -0.28 +0.01    -0.025    18.145
ATOM     22  C   UNL d   1      -1.086   2.990  18.512 -0.25 +0.01    -0.021    18.145
ATOM     23  C   UNL d   1      -0.576   4.260  18.214 -0.21 -0.02    +0.066    18.145
ATOM     24  C   UNL d   1      -0.237   0.939  19.807 -0.17 -0.03    +0.051    18.145
ATOM     25  N   UNL d   1       0.646   6.826  17.192 -0.15 +0.11    -0.248    18.145
ATOM     26  N   UNL d   1       3.371   7.367  17.849 +0.03 +0.12    -0.248    18.145
ATOM     27  N   UNL d   1       3.426   4.941  19.389 -0.15 +0.12    -0.248    18.145
ATOM     28  N   UNL d   1       0.673   4.399  18.722 -0.15 +0.11    -0.248    18.145
ATOM     29 FE   UNL d   1       2.022   5.881  18.286 -0.06 -0.00    +0.000    18.145
ATOM     30  C   UNL d   1      -2.779   7.451  15.999 -0.22 -0.04    +0.052    18.145
ATOM     31  C   UNL d   1      -3.000   6.848  14.616 -0.15 -0.11    +0.115    18.145
ATOM     32  C   UNL d   1      -2.480   5.438  14.567 -0.45 -0.05    +0.139    18.145
ATOM     33  O   UNL d   1      -1.282   5.220  14.452 -0.31 +0.17    -0.650    18.145
ATOM     34  O   UNL d   1      -3.331   4.402  14.650 -0.33 +0.11    -0.776    18.145
ATOM     35  H   UNL d   1      -2.990   3.535  14.912 -0.46 -0.07    +0.167    18.145
ATOM     36  C   UNL d   1      -2.396   2.400  18.063 -0.29 -0.01    +0.052    18.145
ATOM     37  C   UNL d   1      -3.350   2.308  19.245 -0.19 -0.02    +0.115    18.145
ATOM     38  C   UNL d   1      -4.391   1.249  19.017 -0.17 -0.01    +0.139    18.145
ATOM     39  O   UNL d   1      -4.506   0.309  19.789 -0.04 -0.03    -0.650    18.145
ATOM     40  O   UNL d   1      -5.207   1.329  17.951 +0.02 +0.13    -0.776    18.145
ATOM     41  H   UNL d   1      -4.882   1.745  17.140 -0.46 -0.07    +0.167    18.145
ATOM     42  C   UNL d   1       6.792   8.850  17.600 -0.20 -0.00    +0.004    18.145
ATOM     43  C   UNL d   1       7.746   8.016  17.167 -0.25 -0.00    +0.012    18.145
ATOM     44  C   UNL d   1       4.589   2.498  21.900 -0.30 -0.00    +0.004    18.145
ATOM     45  C   UNL d   1       5.626   1.660  21.799 -0.39 -0.00    +0.012    18.145
TER
ENDMDL
MODEL       30
USER    Run = 30
USER    Cluster Rank = 14
USER    Number of conformations in this cluster = 1
USER  
USER    RMSD from reference structure       = 13.827 A
USER  
USER    Estimated Free Energy of Binding    =   -6.62 kcal/mol  [=(1)+(2)+(3)-(4)]
USER    Estimated Inhibition Constant, Ki   =   13.99 uM (micromolar)  [Temperature = 298.15 K]
USER    
USER    (1) Final Intermolecular Energy     =   -9.61 kcal/mol
USER        vdW + Hbond + desolv Energy     =   -6.90 kcal/mol
USER        Electrostatic Energy            =   -2.71 kcal/mol
USER    (2) Final Total Internal Energy     =   -0.96 kcal/mol
USER    (3) Torsional Free Energy           =   +2.98 kcal/mol
USER    (4) Unbound System's Energy  [=(2)] =   -0.96 kcal/mol
USER    
USER    
USER  
USER    DPF = D:/Protein_go_brrr/autodock/final/mut_K82N/heme_Fe/dock.dpf
USER    NEWDPF move	heme_Fe_opt.pdbqt
USER    NEWDPF about	-0.174000 -0.001000 -0.047000
USER    NEWDPF tran0	9.231606 -15.041186 -1.318767
USER    NEWDPF axisangle0	-0.159305 0.986459 -0.038998 56.543455
USER    NEWDPF quaternion0	-0.075455 0.467240 -0.018471 0.880711
USER    NEWDPF dihe0	132.43 -144.92 -168.53 -104.93 119.88 -156.08 -58.45 7.50 -174.27 -173.96 
USER  
USER                              x       y       z    vdW   Elec        q     RMS 
ATOM      1  C   UNL d   1       7.687 -15.104  -2.668 -0.16 +0.01    +0.064    13.827
ATOM      2  C   UNL d   1      10.243 -18.499  -0.144 -0.09 +0.00    +0.064    13.827
ATOM      3  C   UNL d   1      11.942 -15.012   2.689 -0.09 +0.02    +0.064    13.827
ATOM      4  C   UNL d   1       9.559 -11.698   0.195 -0.22 +0.01    +0.064    13.827
ATOM      5  C   UNL d   1       8.314 -16.373  -2.272 -0.11 +0.01    +0.066    13.827
ATOM      6  C   UNL d   1       8.148 -17.578  -2.935 -0.11 -0.00    -0.021    13.827
ATOM      7  C   UNL d   1       8.855 -18.521  -2.231 -0.05 -0.00    -0.025    13.827
ATOM      8  C   UNL d   1       9.427 -17.854  -1.165 -0.04 +0.01    +0.066    13.827
ATOM      9  C   UNL d   1       8.983 -19.971  -2.581 -0.10 +0.00    +0.051    13.827
ATOM     10  C   UNL d   1      10.854 -17.869   0.862 -0.07 +0.01    +0.066    13.827
ATOM     11  C   UNL d   1      11.534 -18.528   1.889 -0.04 -0.00    -0.021    13.827
ATOM     12  C   UNL d   1      12.019 -17.545   2.729 -0.03 +0.00    +0.000    13.827
ATOM     13  C   UNL d   1      11.598 -16.326   2.169 -0.05 +0.01    +0.070    13.827
ATOM     14  C   UNL d   1      11.657 -20.024   2.098 -0.02 +0.00    +0.052    13.827
ATOM     15  C   UNL d   1      11.497 -13.837   2.185 -0.11 +0.02    +0.066    13.827
ATOM     16  C   UNL d   1      11.927 -12.601   2.648 -0.12 -0.01    -0.021    13.827
ATOM     17  C   UNL d   1      11.239 -11.643   1.932 -0.16 +0.00    +0.000    13.827
ATOM     18  C   UNL d   1      10.399 -12.320   1.050 -0.15 +0.01    +0.070    13.827
ATOM     19  C   UNL d   1      12.928 -12.326   3.738 -0.11 +0.01    +0.052    13.827
ATOM     20  C   UNL d   1       8.707 -12.375  -0.790 -0.15 +0.01    +0.066    13.827
ATOM     21  C   UNL d   1       7.691 -11.764  -1.539 -0.26 -0.00    -0.025    13.827
ATOM     22  C   UNL d   1       7.180 -12.750  -2.357 -0.22 -0.00    -0.021    13.827
ATOM     23  C   UNL d   1       7.895 -13.919  -2.072 -0.14 +0.01    +0.066    13.827
ATOM     24  C   UNL d   1       7.217 -10.330  -1.491 -0.28 +0.00    +0.051    13.827
ATOM     25  N   UNL d   1       9.104 -16.545  -1.198 -0.09 -0.03    -0.248    13.827
ATOM     26  N   UNL d   1      10.881 -16.524   1.036 -0.04 -0.03    -0.248    13.827
ATOM     27  N   UNL d   1      10.589 -13.668   1.174 -0.07 -0.05    -0.248    13.827
ATOM     28  N   UNL d   1       8.795 -13.695  -1.084 -0.05 -0.04    -0.248    13.827
ATOM     29 FE   UNL d   1       9.837 -15.107  -0.024 -0.03 +0.00    +0.000    13.827
ATOM     30  C   UNL d   1       7.374 -17.820  -4.185 -0.12 +0.01    +0.052    13.827
ATOM     31  C   UNL d   1       5.899 -18.051  -3.872 -0.19 +0.05    +0.115    13.827
ATOM     32  C   UNL d   1       5.045 -17.040  -4.583 -0.14 +0.14    +0.139    13.827
ATOM     33  O   UNL d   1       4.197 -17.396  -5.390 -0.33 -0.71    -0.650    13.827
ATOM     34  O   UNL d   1       5.206 -15.728  -4.338 -0.40 -1.00    -0.776    13.827
ATOM     35  H   UNL d   1       5.255 -15.425  -3.421 -0.53 +0.14    +0.167    13.827
ATOM     36  C   UNL d   1       6.035 -12.586  -3.322 -0.32 +0.02    +0.052    13.827
ATOM     37  C   UNL d   1       4.718 -12.583  -2.559 -0.31 +0.07    +0.115    13.827
ATOM     38  C   UNL d   1       3.549 -12.584  -3.504 -0.14 +0.18    +0.139    13.827
ATOM     39  O   UNL d   1       2.459 -12.157  -3.150 -0.56 -0.68    -0.650    13.827
ATOM     40  O   UNL d   1       3.695 -13.062  -4.752 -0.15 -1.15    -0.776    13.827
ATOM     41  H   UNL d   1       4.289 -13.811  -4.902 +0.05 +0.26    +0.167    13.827
ATOM     42  C   UNL d   1      12.806 -17.796   3.975 -0.02 +0.00    +0.004    13.827
ATOM     43  C   UNL d   1      12.367 -17.368   5.166 -0.06 +0.00    +0.012    13.827
ATOM     44  C   UNL d   1      11.389 -10.177   2.069 -0.25 +0.00    +0.004    13.827
ATOM     45  C   UNL d   1      11.317  -9.590   3.268 -0.28 +0.00    +0.012    13.827
TER
ENDMDL
MODEL       23
USER    Run = 23
USER    Cluster Rank = 15
USER    Number of conformations in this cluster = 3
USER  
USER    RMSD from reference structure       = 20.949 A
USER  
USER    Estimated Free Energy of Binding    =   -6.24 kcal/mol  [=(1)+(2)+(3)-(4)]
USER    Estimated Inhibition Constant, Ki   =   26.62 uM (micromolar)  [Temperature = 298.15 K]
USER    
USER    (1) Final Intermolecular Energy     =   -9.22 kcal/mol
USER        vdW + Hbond + desolv Energy     =   -7.82 kcal/mol
USER        Electrostatic Energy            =   -1.40 kcal/mol
USER    (2) Final Total Internal Energy     =   -1.54 kcal/mol
USER    (3) Torsional Free Energy           =   +2.98 kcal/mol
USER    (4) Unbound System's Energy  [=(2)] =   -1.54 kcal/mol
USER    
USER    
USER  
USER    DPF = D:/Protein_go_brrr/autodock/final/mut_K82N/heme_Fe/dock.dpf
USER    NEWDPF move	heme_Fe_opt.pdbqt
USER    NEWDPF about	-0.174000 -0.001000 -0.047000
USER    NEWDPF tran0	12.310951 2.767502 17.811186
USER    NEWDPF axisangle0	-0.624148 -0.110506 0.773452 -179.572468
USER    NEWDPF quaternion0	-0.624144 -0.110505 0.773446 -0.003731
USER    NEWDPF dihe0	-180.00 175.04 85.13 46.18 -83.75 20.49 -11.33 -21.40 -28.23 32.99 
USER  
USER                              x       y       z    vdW   Elec        q     RMS 
ATOM      1  C   UNL d   1      12.227   2.452  19.837 -0.03 +0.02    +0.064    20.949
ATOM      2  C   UNL d   1      11.168   6.253  16.860 -0.09 -0.00    +0.064    20.949
ATOM      3  C   UNL d   1      11.286   3.257  13.108 -0.12 -0.01    +0.064    20.949
ATOM      4  C   UNL d   1      12.415  -0.415  15.958 -0.33 -0.01    +0.064    20.949
ATOM      5  C   UNL d   1      12.000   3.815  19.337 -0.19 +0.01    +0.066    20.949
ATOM      6  C   UNL d   1      12.013   4.957  20.121 -0.14 -0.01    -0.021    20.949
ATOM      7  C   UNL d   1      11.715   6.012  19.294 -0.08 -0.00    -0.025    20.949
ATOM      8  C   UNL d   1      11.532   5.472  18.036 -0.10 +0.00    +0.066    20.949
ATOM      9  C   UNL d   1      11.632   7.452  19.696 -0.03 +0.00    +0.051    20.949
ATOM     10  C   UNL d   1      11.042   5.766  15.624 -0.15 -0.00    +0.066    20.949
ATOM     11  C   UNL d   1      10.581   6.516  14.539 -0.22 +0.00    -0.021    20.949
ATOM     12  C   UNL d   1      10.589   5.670  13.448 -0.26 -0.00    +0.000    20.949
ATOM     13  C   UNL d   1      11.052   4.433  13.930 -0.21 -0.01    +0.070    20.949
ATOM     14  C   UNL d   1      10.090   7.949  14.555 -0.23 +0.00    +0.052    20.949
ATOM     15  C   UNL d   1      11.682   2.050  13.575 -0.25 -0.01    +0.066    20.949
ATOM     16  C   UNL d   1      11.990   0.979  12.746 -0.32 +0.00    -0.021    20.949
ATOM     17  C   UNL d   1      12.313  -0.083  13.566 -0.36 -0.00    +0.000    20.949
ATOM     18  C   UNL d   1      12.189   0.366  14.879 -0.26 -0.02    +0.070    20.949
ATOM     19  C   UNL d   1      11.960   0.944  11.242 -0.24 -0.01    +0.052    20.949
ATOM     20  C   UNL d   1      12.354   0.038  17.353 -0.32 -0.01    +0.066    20.949
ATOM     21  C   UNL d   1      12.387  -0.798  18.478 -0.35 +0.00    -0.025    20.949
ATOM     22  C   UNL d   1      12.346   0.041  19.573 -0.24 -0.00    -0.021    20.949
ATOM     23  C   UNL d   1      12.282   1.348  19.075 -0.21 +0.01    +0.066    20.949
ATOM     24  C   UNL d   1      12.451  -2.307  18.532 -0.37 +0.00    +0.051    20.949
ATOM     25  N   UNL d   1      11.716   4.137  18.063 -0.12 -0.02    -0.248    20.949
ATOM     26  N   UNL d   1      11.320   4.489  15.258 -0.12 +0.02    -0.248    20.949
ATOM     27  N   UNL d   1      11.844   1.688  14.886 -0.16 +0.05    -0.248    20.949
ATOM     28  N   UNL d   1      12.243   1.337  17.721 -0.17 +0.01    -0.248    20.949
ATOM     29 FE   UNL d   1      11.781   2.911  16.489 -0.05 -0.00    +0.000    20.949
ATOM     30  C   UNL d   1      12.313   5.047  21.578 -0.02 +0.03    +0.052    20.949
ATOM     31  C   UNL d   1      13.728   4.560  21.869 -0.08 +0.05    +0.115    20.949
ATOM     32  C   UNL d   1      14.124   4.905  23.278 -0.06 +0.08    +0.139    20.949
ATOM     33  O   UNL d   1      14.570   6.011  23.548 -0.00 -0.25    -0.650    20.949
ATOM     34  O   UNL d   1      13.990   3.995  24.258 -0.02 -0.81    -0.776    20.949
ATOM     35  H   UNL d   1      13.637   3.121  24.042 +0.01 +0.21    +0.167    20.949
ATOM     36  C   UNL d   1      12.318  -0.394  21.014 -0.19 +0.01    +0.052    20.949
ATOM     37  C   UNL d   1      13.380   0.361  21.799 -0.14 +0.04    +0.115    20.949
ATOM     38  C   UNL d   1      13.055   0.381  23.266 -0.10 +0.08    +0.139    20.949
ATOM     39  O   UNL d   1      12.289  -0.441  23.747 -0.05 -0.33    -0.650    20.949
ATOM     40  O   UNL d   1      13.606   1.313  24.063 -0.02 -0.64    -0.776    20.949
ATOM     41  H   UNL d   1      14.267   1.916  23.695 +0.01 +0.11    +0.167    20.949
ATOM     42  C   UNL d   1      10.160   6.050  12.067 -0.31 -0.00    +0.004    20.949
ATOM     43  C   UNL d   1      10.911   5.739  11.002 -0.31 -0.00    +0.012    20.949
ATOM     44  C   UNL d   1      12.732  -1.431  13.122 -0.48 -0.00    +0.004    20.949
ATOM     45  C   UNL d   1      14.023  -1.779  13.113 -0.35 -0.00    +0.012    20.949
TER
ENDMDL
MODEL       12
USER    Run = 12
USER    Cluster Rank = 16
USER    Number of conformations in this cluster = 3
USER  
USER    RMSD from reference structure       = 12.876 A
USER  
USER    Estimated Free Energy of Binding    =   -6.20 kcal/mol  [=(1)+(2)+(3)-(4)]
USER    Estimated Inhibition Constant, Ki   =   28.40 uM (micromolar)  [Temperature = 298.15 K]
USER    
USER    (1) Final Intermolecular Energy     =   -9.19 kcal/mol
USER        vdW + Hbond + desolv Energy     =   -7.58 kcal/mol
USER        Electrostatic Energy            =   -1.61 kcal/mol
USER    (2) Final Total Internal Energy     =   -1.52 kcal/mol
USER    (3) Torsional Free Energy           =   +2.98 kcal/mol
USER    (4) Unbound System's Energy  [=(2)] =   -1.52 kcal/mol
USER    
USER    
USER  
USER    DPF = D:/Protein_go_brrr/autodock/final/mut_K82N/heme_Fe/dock.dpf
USER    NEWDPF move	heme_Fe_opt.pdbqt
USER    NEWDPF about	-0.174000 -0.001000 -0.047000
USER    NEWDPF tran0	11.925501 -11.901033 2.209584
USER    NEWDPF axisangle0	-0.353858 -0.604114 0.714024 -86.009107
USER    NEWDPF quaternion0	-0.241351 -0.412040 0.487005 -0.731299
USER    NEWDPF dihe0	-179.58 101.48 178.14 -100.11 -39.79 130.31 126.48 140.99 -146.83 -164.46 
USER  
USER                              x       y       z    vdW   Elec        q     RMS 
ATOM      1  C   UNL d   1      11.141 -13.756   1.815 -0.14 +0.02    +0.064    12.876
ATOM      2  C   UNL d   1      13.691 -11.779   5.560 -0.09 +0.01    +0.064    12.876
ATOM      3  C   UNL d   1      12.728  -7.408   3.818 -0.22 +0.01    +0.064    12.876
ATOM      4  C   UNL d   1      10.346  -9.304   0.127 -0.25 +0.00    +0.064    12.876
ATOM      5  C   UNL d   1      12.019 -13.608   2.985 -0.08 +0.02    +0.066    12.876
ATOM      6  C   UNL d   1      12.590 -14.659   3.683 -0.08 -0.01    -0.021    12.876
ATOM      7  C   UNL d   1      13.295 -14.110   4.725 -0.07 -0.01    -0.025    12.876
ATOM      8  C   UNL d   1      13.127 -12.742   4.623 -0.08 +0.02    +0.066    12.876
ATOM      9  C   UNL d   1      14.096 -14.862   5.743 -0.04 +0.01    +0.051    12.876
ATOM     10  C   UNL d   1      13.592 -10.453   5.452 -0.12 +0.01    +0.066    12.876
ATOM     11  C   UNL d   1      14.044  -9.560   6.427 -0.12 -0.00    -0.021    12.876
ATOM     12  C   UNL d   1      13.763  -8.293   5.956 -0.18 +0.00    +0.000    12.876
ATOM     13  C   UNL d   1      13.140  -8.481   4.709 -0.19 +0.01    +0.070    12.876
ATOM     14  C   UNL d   1      14.652  -9.899   7.772 -0.08 +0.00    +0.052    12.876
ATOM     15  C   UNL d   1      12.082  -7.583   2.641 -0.20 +0.00    +0.066    12.876
ATOM     16  C   UNL d   1      11.794  -6.539   1.771 -0.23 -0.00    -0.021    12.876
ATOM     17  C   UNL d   1      11.104  -7.083   0.707 -0.27 -0.00    +0.000    12.876
ATOM     18  C   UNL d   1      10.983  -8.448   0.956 -0.24 +0.00    +0.070    12.876
ATOM     19  C   UNL d   1      12.132  -5.082   1.942 -0.12 -0.00    +0.052    12.876
ATOM     20  C   UNL d   1      10.252 -10.755   0.326 -0.18 +0.01    +0.066    12.876
ATOM     21  C   UNL d   1       9.432 -11.622  -0.411 -0.17 -0.00    -0.025    12.876
ATOM     22  C   UNL d   1       9.684 -12.887   0.078 -0.14 -0.00    -0.021    12.876
ATOM     23  C   UNL d   1      10.638 -12.743   1.093 -0.13 +0.01    +0.066    12.876
ATOM     24  C   UNL d   1       8.457 -11.287  -1.515 -0.24 +0.01    +0.051    12.876
ATOM     25  N   UNL d   1      12.358 -12.440   3.557 -0.06 -0.09    -0.248    12.876
ATOM     26  N   UNL d   1      13.027  -9.798   4.406 -0.10 -0.03    -0.248    12.876
ATOM     27  N   UNL d   1      11.621  -8.764   2.123 -0.16 -0.01    -0.248    12.876
ATOM     28  N   UNL d   1      10.947 -11.435   1.270 -0.10 -0.04    -0.248    12.876
ATOM     29 FE   UNL d   1      11.986 -10.616   2.836 -0.04 +0.00    +0.000    12.876
ATOM     30  C   UNL d   1      12.490 -16.112   3.366 -0.06 +0.01    +0.052    12.876
ATOM     31  C   UNL d   1      11.033 -16.558   3.328 -0.12 +0.03    +0.115    12.876
ATOM     32  C   UNL d   1      10.333 -16.176   4.603 -0.09 +0.11    +0.139    12.876
ATOM     33  O   UNL d   1      10.900 -16.280   5.681 +0.03 -0.63    -0.650    12.876
ATOM     34  O   UNL d   1       9.071 -15.714   4.567 +0.02 -0.81    -0.776    12.876
ATOM     35  H   UNL d   1       8.623 -15.639   3.713 -0.52 +0.05    +0.167    12.876
ATOM     36  C   UNL d   1       9.009 -14.155  -0.373 -0.17 +0.01    +0.052    12.876
ATOM     37  C   UNL d   1       7.542 -14.128   0.033 -0.35 +0.03    +0.115    12.876
ATOM     38  C   UNL d   1       7.373 -13.537   1.404 -0.44 +0.05    +0.139    12.876
ATOM     39  O   UNL d   1       6.556 -12.651   1.607 -0.06 -0.19    -0.650    12.876
ATOM     40  O   UNL d   1       8.130 -13.981   2.424 -0.05 -0.24    -0.776    12.876
ATOM     41  H   UNL d   1       7.895 -14.815   2.855 -0.48 +0.02    +0.167    12.876
ATOM     42  C   UNL d   1      14.067  -7.023   6.683 -0.23 +0.00    +0.004    12.876
ATOM     43  C   UNL d   1      13.153  -6.047   6.778 -0.37 +0.00    +0.012    12.876
ATOM     44  C   UNL d   1      10.611  -6.348  -0.479 -0.18 -0.00    +0.004    12.876
ATOM     45  C   UNL d   1       9.964  -5.186  -0.345 -0.37 -0.00    +0.012    12.876
TER
ENDMDL
MODEL       11
USER    Run = 11
USER    Cluster Rank = 17
USER    Number of conformations in this cluster = 1
USER  
USER    RMSD from reference structure       = 11.053 A
USER  
USER    Estimated Free Energy of Binding    =   -6.10 kcal/mol  [=(1)+(2)+(3)-(4)]
USER    Estimated Inhibition Constant, Ki   =   33.54 uM (micromolar)  [Temperature = 298.15 K]
USER    
USER    (1) Final Intermolecular Energy     =   -9.09 kcal/mol
USER        vdW + Hbond + desolv Energy     =   -5.96 kcal/mol
USER        Electrostatic Energy            =   -3.13 kcal/mol
USER    (2) Final Total Internal Energy     =   -1.79 kcal/mol
USER    (3) Torsional Free Energy           =   +2.98 kcal/mol
USER    (4) Unbound System's Energy  [=(2)] =   -1.79 kcal/mol
USER    
USER    
USER  
USER    DPF = D:/Protein_go_brrr/autodock/final/mut_K82N/heme_Fe/dock.dpf
USER    NEWDPF move	heme_Fe_opt.pdbqt
USER    NEWDPF about	-0.174000 -0.001000 -0.047000
USER    NEWDPF tran0	-14.057062 2.061616 -4.399170
USER    NEWDPF axisangle0	0.833532 0.057799 0.549439 153.886171
USER    NEWDPF quaternion0	0.811982 0.056305 0.535234 0.225919
USER    NEWDPF dihe0	-19.86 -122.23 140.61 -139.29 -87.15 76.07 -122.85 153.99 171.55 -179.29 
USER  
USER                              x       y       z    vdW   Elec        q     RMS 
ATOM      1  C   UNL d   1     -14.461   2.639  -6.326 -0.06 +0.06    +0.064    11.053
ATOM      2  C   UNL d   1     -14.197   4.972  -1.976 -0.12 +0.02    +0.064    11.053
ATOM      3  C   UNL d   1     -11.965   1.138  -0.135 -0.29 -0.00    +0.064    11.053
ATOM      4  C   UNL d   1     -12.305  -1.178  -4.307 -0.12 +0.01    +0.064    11.053
ATOM      5  C   UNL d   1     -14.668   3.619  -5.250 -0.07 +0.06    +0.066    11.053
ATOM      6  C   UNL d   1     -15.376   4.802  -5.384 -0.06 -0.01    -0.021    11.053
ATOM      7  C   UNL d   1     -15.299   5.451  -4.177 -0.06 -0.01    -0.025    11.053
ATOM      8  C   UNL d   1     -14.546   4.638  -3.351 -0.10 +0.04    +0.066    11.053
ATOM      9  C   UNL d   1     -15.931   6.767  -3.839 -0.02 +0.01    +0.051    11.053
ATOM     10  C   UNL d   1     -13.522   4.180  -1.142 -0.14 +0.02    +0.066    11.053
ATOM     11  C   UNL d   1     -13.103   4.574   0.132 -0.21 -0.00    -0.021    11.053
ATOM     12  C   UNL d   1     -12.442   3.491   0.677 -0.27 +0.00    +0.000    11.053
ATOM     13  C   UNL d   1     -12.485   2.486  -0.304 -0.17 +0.01    +0.070    11.053
ATOM     14  C   UNL d   1     -13.264   5.938   0.771 -0.23 +0.01    +0.052    11.053
ATOM     15  C   UNL d   1     -11.958   0.183  -1.095 -0.21 -0.00    +0.066    11.053
ATOM     16  C   UNL d   1     -11.543  -1.122  -0.863 -0.26 +0.01    -0.021    11.053
ATOM     17  C   UNL d   1     -11.637  -1.791  -2.066 -0.20 -0.00    +0.000    11.053
ATOM     18  C   UNL d   1     -12.104  -0.875  -3.006 -0.12 +0.00    +0.070    11.053
ATOM     19  C   UNL d   1     -11.053  -1.714   0.431 -0.12 -0.05    +0.052    11.053
ATOM     20  C   UNL d   1     -12.852  -0.258  -5.311 -0.10 +0.02    +0.066    11.053
ATOM     21  C   UNL d   1     -12.879  -0.490  -6.693 -0.11 -0.01    -0.025    11.053
ATOM     22  C   UNL d   1     -13.509   0.605  -7.248 -0.09 -0.01    -0.021    11.053
ATOM     23  C   UNL d   1     -13.835   1.460  -6.189 -0.07 +0.05    +0.066    11.053
ATOM     24  C   UNL d   1     -12.338  -1.674  -7.462 -0.18 +0.01    +0.051    11.053
ATOM     25  N   UNL d   1     -14.173   3.519  -4.005 -0.08 -0.22    -0.248    11.053
ATOM     26  N   UNL d   1     -13.135   2.908  -1.416 -0.10 -0.09    -0.248    11.053
ATOM     27  N   UNL d   1     -12.343   0.327  -2.401 -0.10 -0.04    -0.248    11.053
ATOM     28  N   UNL d   1     -13.392   0.949  -5.014 -0.07 -0.17    -0.248    11.053
ATOM     29 FE   UNL d   1     -13.263   1.927  -3.216 -0.03 +0.00    +0.000    11.053
ATOM     30  C   UNL d   1     -16.107   5.285  -6.590 -0.02 +0.02    +0.052    11.053
ATOM     31  C   UNL d   1     -15.267   6.296  -7.363 -0.01 +0.05    +0.115    11.053
ATOM     32  C   UNL d   1     -13.946   5.693  -7.753 -0.05 +0.11    +0.139    11.053
ATOM     33  O   UNL d   1     -12.990   5.739  -6.991 -0.21 -1.03    -0.650    11.053
ATOM     34  O   UNL d   1     -13.804   5.096  -8.949 +0.02 -0.45    -0.776    11.053
ATOM     35  H   UNL d   1     -12.914   4.975  -9.310 +0.02 +0.11    +0.167    11.053
ATOM     36  C   UNL d   1     -13.739   0.836  -8.718 -0.07 +0.02    +0.052    11.053
ATOM     37  C   UNL d   1     -12.483   1.416  -9.350 -0.13 +0.06    +0.115    11.053
ATOM     38  C   UNL d   1     -11.671   2.174  -8.337 -0.03 +0.17    +0.139    11.053
ATOM     39  O   UNL d   1     -10.997   1.582  -7.507 -0.29 -0.85    -0.650    11.053
ATOM     40  O   UNL d   1     -11.686   3.519  -8.336 -0.01 -1.30    -0.776    11.053
ATOM     41  H   UNL d   1     -12.531   3.980  -8.240 +0.01 +0.26    +0.167    11.053
ATOM     42  C   UNL d   1     -11.812   3.468   2.034 -0.41 +0.00    +0.004    11.053
ATOM     43  C   UNL d   1     -11.047   2.439   2.421 -0.47 -0.00    +0.012    11.053
ATOM     44  C   UNL d   1     -11.321  -3.219  -2.296 -0.21 -0.00    +0.004    11.053
ATOM     45  C   UNL d   1     -10.068  -3.609  -2.555 -0.36 -0.01    +0.012    11.053
TER
ENDMDL
MODEL       66
USER    Run = 66
USER    Cluster Rank = 18
USER    Number of conformations in this cluster = 1
USER  
USER    RMSD from reference structure       = 20.985 A
USER  
USER    Estimated Free Energy of Binding    =   -6.01 kcal/mol  [=(1)+(2)+(3)-(4)]
USER    Estimated Inhibition Constant, Ki   =   39.33 uM (micromolar)  [Temperature = 298.15 K]
USER    
USER    (1) Final Intermolecular Energy     =   -8.99 kcal/mol
USER        vdW + Hbond + desolv Energy     =   -8.08 kcal/mol
USER        Electrostatic Energy            =   -0.92 kcal/mol
USER    (2) Final Total Internal Energy     =   -0.66 kcal/mol
USER    (3) Torsional Free Energy           =   +2.98 kcal/mol
USER    (4) Unbound System's Energy  [=(2)] =   -0.66 kcal/mol
USER    
USER    
USER  
USER    DPF = D:/Protein_go_brrr/autodock/final/mut_K82N/heme_Fe/dock.dpf
USER    NEWDPF move	heme_Fe_opt.pdbqt
USER    NEWDPF about	-0.174000 -0.001000 -0.047000
USER    NEWDPF tran0	7.719568 -6.993812 20.078738
USER    NEWDPF axisangle0	0.896638 -0.441222 -0.036917 129.400591
USER    NEWDPF quaternion0	0.810637 -0.398902 -0.033376 0.427353
USER    NEWDPF dihe0	-162.20 162.89 -150.73 -118.63 -86.71 143.53 105.83 55.88 177.41 -21.78 
USER  
USER                              x       y       z    vdW   Elec        q     RMS 
ATOM      1  C   UNL d   1       6.566  -5.368  20.564 -0.24 -0.00    +0.064    20.985
ATOM      2  C   UNL d   1      11.237  -6.713  21.459 -0.07 +0.00    +0.064    20.985
ATOM      3  C   UNL d   1      10.856 -10.060  18.037 -0.13 +0.01    +0.064    20.985
ATOM      4  C   UNL d   1       6.301  -8.845  17.227 -0.14 -0.00    +0.064    20.985
ATOM      5  C   UNL d   1       7.889  -5.491  21.191 -0.14 -0.00    +0.066    20.985
ATOM      6  C   UNL d   1       8.315  -4.763  22.289 -0.14 +0.00    -0.021    20.985
ATOM      7  C   UNL d   1       9.614  -5.134  22.535 -0.09 -0.00    -0.025    20.985
ATOM      8  C   UNL d   1       9.931  -6.077  21.576 -0.07 +0.00    +0.066    20.985
ATOM      9  C   UNL d   1      10.484  -4.621  23.641 -0.05 +0.00    +0.051    20.985
ATOM     10  C   UNL d   1      11.551  -7.666  20.581 -0.10 +0.00    +0.066    20.985
ATOM     11  C   UNL d   1      12.842  -8.174  20.417 -0.08 -0.00    -0.021    20.985
ATOM     12  C   UNL d   1      12.763  -9.130  19.424 -0.12 +0.00    +0.000    20.985
ATOM     13  C   UNL d   1      11.415  -9.149  19.023 -0.17 +0.01    +0.070    20.985
ATOM     14  C   UNL d   1      14.104  -7.723  21.125 -0.04 +0.00    +0.052    20.985
ATOM     15  C   UNL d   1       9.571 -10.048  17.610 -0.20 +0.01    +0.066    20.985
ATOM     16  C   UNL d   1       9.052 -10.999  16.741 -0.17 -0.00    -0.021    20.985
ATOM     17  C   UNL d   1       7.739 -10.648  16.503 -0.26 -0.00    +0.000    20.985
ATOM     18  C   UNL d   1       7.489  -9.487  17.231 -0.24 +0.00    +0.070    20.985
ATOM     19  C   UNL d   1       9.766 -12.177  16.135 -0.14 -0.00    +0.052    20.985
ATOM     20  C   UNL d   1       5.983  -7.657  18.028 -0.16 -0.00    +0.066    20.985
ATOM     21  C   UNL d   1       4.833  -6.868  17.885 -0.23 +0.00    -0.025    20.985
ATOM     22  C   UNL d   1       4.923  -5.890  18.854 -0.26 +0.00    -0.021    20.985
ATOM     23  C   UNL d   1       6.121  -6.116  19.543 -0.22 -0.01    +0.066    20.985
ATOM     24  C   UNL d   1       3.705  -7.015  16.890 -0.41 -0.00    +0.051    20.985
ATOM     25  N   UNL d   1       8.876  -6.299  20.766 -0.02 -0.01    -0.248    20.985
ATOM     26  N   UNL d   1      10.678  -8.251  19.721 -0.11 -0.03    -0.248    20.985
ATOM     27  N   UNL d   1       8.602  -9.142  17.946 -0.17 -0.03    -0.248    20.985
ATOM     28  N   UNL d   1       6.785  -7.168  19.004 -0.14 +0.01    -0.248    20.985
ATOM     29 FE   UNL d   1       8.730  -7.710  19.362 -0.04 +0.00    +0.000    20.985
ATOM     30  C   UNL d   1       7.523  -3.778  23.080 -0.15 -0.00    +0.052    20.985
ATOM     31  C   UNL d   1       7.740  -2.363  22.554 -0.25 -0.00    +0.115    20.985
ATOM     32  C   UNL d   1       9.098  -1.856  22.953 -0.15 +0.01    +0.139    20.985
ATOM     33  O   UNL d   1       9.264  -1.304  24.032 -0.04 -0.18    -0.650    20.985
ATOM     34  O   UNL d   1      10.144  -2.004  22.124 +0.02 -0.02    -0.776    20.985
ATOM     35  H   UNL d   1       9.979  -2.194  21.189 -0.42 -0.06    +0.167    20.985
ATOM     36  C   UNL d   1       3.936  -4.774  19.073 -0.34 -0.01    +0.052    20.985
ATOM     37  C   UNL d   1       2.686  -5.319  19.748 -0.24 +0.00    +0.115    20.985
ATOM     38  C   UNL d   1       1.455  -4.986  18.953 -0.30 +0.06    +0.139    20.985
ATOM     39  O   UNL d   1       0.527  -5.778  18.876 -0.06 -0.29    -0.650    20.985
ATOM     40  O   UNL d   1       1.369  -3.807  18.312 -0.35 -0.31    -0.776    20.985
ATOM     41  H   UNL d   1       1.967  -3.090  18.564 -0.38 -0.09    +0.167    20.985
ATOM     42  C   UNL d   1      13.917  -9.930  18.911 -0.11 +0.00    +0.004    20.985
ATOM     43  C   UNL d   1      14.496  -9.633  17.740 -0.13 +0.00    +0.012    20.985
ATOM     44  C   UNL d   1       6.780 -11.388  15.651 -0.34 -0.00    +0.004    20.985
ATOM     45  C   UNL d   1       6.980 -11.500  14.334 -0.48 -0.00    +0.012    20.985
TER
ENDMDL
MODEL       50
USER    Run = 50
USER    Cluster Rank = 19
USER    Number of conformations in this cluster = 1
USER  
USER    RMSD from reference structure       = 15.194 A
USER  
USER    Estimated Free Energy of Binding    =   -5.90 kcal/mol  [=(1)+(2)+(3)-(4)]
USER    Estimated Inhibition Constant, Ki   =   47.52 uM (micromolar)  [Temperature = 298.15 K]
USER    
USER    (1) Final Intermolecular Energy     =   -8.88 kcal/mol
USER        vdW + Hbond + desolv Energy     =   -6.51 kcal/mol
USER        Electrostatic Energy            =   -2.38 kcal/mol
USER    (2) Final Total Internal Energy     =   -2.14 kcal/mol
USER    (3) Torsional Free Energy           =   +2.98 kcal/mol
USER    (4) Unbound System's Energy  [=(2)] =   -2.14 kcal/mol
USER    
USER    
USER  
USER    DPF = D:/Protein_go_brrr/autodock/final/mut_K82N/heme_Fe/dock.dpf
USER    NEWDPF move	heme_Fe_opt.pdbqt
USER    NEWDPF about	-0.174000 -0.001000 -0.047000
USER    NEWDPF tran0	-10.364953 12.099189 -7.443297
USER    NEWDPF axisangle0	0.464710 0.552114 -0.692254 160.907696
USER    NEWDPF quaternion0	0.458275 0.544468 -0.682668 0.165842
USER    NEWDPF dihe0	12.64 -149.23 65.40 8.55 -89.97 -129.06 -93.97 28.34 177.79 -167.07 
USER  
USER                              x       y       z    vdW   Elec        q     RMS 
ATOM      1  C   UNL d   1      -9.770  10.368  -6.516 -0.26 +0.02    +0.064    15.194
ATOM      2  C   UNL d   1     -12.437  14.303  -5.161 -0.12 +0.03    +0.064    15.194
ATOM      3  C   UNL d   1     -12.832  15.540  -9.785 -0.09 +0.03    +0.064    15.194
ATOM      4  C   UNL d   1     -10.165  11.796 -11.110 -0.03 +0.02    +0.064    15.194
ATOM      5  C   UNL d   1     -10.413  11.407  -5.699 -0.25 +0.02    +0.066    15.194
ATOM      6  C   UNL d   1     -10.403  11.444  -4.315 -0.38 -0.01    -0.021    15.194
ATOM      7  C   UNL d   1     -11.147  12.535  -3.939 -0.29 -0.01    -0.025    15.194
ATOM      8  C   UNL d   1     -11.583  13.123  -5.111 -0.19 +0.03    +0.066    15.194
ATOM      9  C   UNL d   1     -11.402  12.989  -2.535 -0.33 +0.01    +0.051    15.194
ATOM     10  C   UNL d   1     -12.825  14.923  -6.277 -0.04 +0.04    +0.066    15.194
ATOM     11  C   UNL d   1     -13.735  15.983  -6.299 -0.09 -0.01    -0.021    15.194
ATOM     12  C   UNL d   1     -13.879  16.347  -7.623 -0.08 +0.00    +0.000    15.194
ATOM     13  C   UNL d   1     -13.047  15.477  -8.348 -0.09 +0.05    +0.070    15.194
ATOM     14  C   UNL d   1     -14.484  16.574  -5.122 -0.06 +0.02    +0.052    15.194
ATOM     15  C   UNL d   1     -12.073  14.672 -10.495 -0.10 +0.03    +0.066    15.194
ATOM     16  C   UNL d   1     -11.813  14.826 -11.851 -0.07 -0.01    -0.021    15.194
ATOM     17  C   UNL d   1     -11.046  13.745 -12.236 -0.08 +0.00    +0.000    15.194
ATOM     18  C   UNL d   1     -10.860  12.954 -11.104 -0.05 +0.02    +0.070    15.194
ATOM     19  C   UNL d   1     -12.286  15.930 -12.758 -0.03 +0.01    +0.052    15.194
ATOM     20  C   UNL d   1      -9.896  10.970  -9.927 -0.10 +0.02    +0.066    15.194
ATOM     21  C   UNL d   1      -9.354   9.677  -9.948 -0.11 -0.00    -0.025    15.194
ATOM     22  C   UNL d   1      -9.239   9.294  -8.628 -0.16 -0.00    -0.021    15.194
ATOM     23  C   UNL d   1      -9.718  10.360  -7.857 -0.17 +0.02    +0.066    15.194
ATOM     24  C   UNL d   1      -8.967   8.836 -11.142 -0.09 +0.01    +0.051    15.194
ATOM     25  N   UNL d   1     -11.127  12.440  -6.180 -0.13 -0.09    -0.248    15.194
ATOM     26  N   UNL d   1     -12.411  14.603  -7.530 -0.10 -0.18    -0.248    15.194
ATOM     27  N   UNL d   1     -11.454  13.546 -10.025 -0.09 -0.10    -0.248    15.194
ATOM     28  N   UNL d   1     -10.159  11.362  -8.656 -0.11 -0.07    -0.248    15.194
ATOM     29 FE   UNL d   1     -11.285  12.982  -8.095 -0.03 +0.00    +0.000    15.194
ATOM     30  C   UNL d   1      -9.705  10.504  -3.393 -0.53 +0.01    +0.052    15.194
ATOM     31  C   UNL d   1     -10.635   9.372  -2.969 -0.37 +0.03    +0.115    15.194
ATOM     32  C   UNL d   1     -10.599   8.257  -3.978 -0.34 +0.07    +0.139    15.194
ATOM     33  O   UNL d   1     -11.376   8.246  -4.922 -0.01 -0.35    -0.650    15.194
ATOM     34  O   UNL d   1      -9.710   7.258  -3.848 -0.18 -0.52    -0.776    15.194
ATOM     35  H   UNL d   1      -9.572   6.653  -4.590 +0.05 +0.16    +0.167    15.194
ATOM     36  C   UNL d   1      -8.741   7.959  -8.139 -0.21 +0.02    +0.052    15.194
ATOM     37  C   UNL d   1      -9.762   6.880  -8.467 -0.13 +0.06    +0.115    15.194
ATOM     38  C   UNL d   1      -9.678   5.743  -7.487 -0.06 +0.17    +0.139    15.194
ATOM     39  O   UNL d   1      -9.587   4.588  -7.876 -0.37 -0.89    -0.650    15.194
ATOM     40  O   UNL d   1      -9.706   5.993  -6.166 -0.42 -1.24    -0.776    15.194
ATOM     41  H   UNL d   1     -10.199   6.760  -5.843 +0.03 +0.20    +0.167    15.194
ATOM     42  C   UNL d   1     -14.772  17.440  -8.118 -0.04 +0.00    +0.004    15.194
ATOM     43  C   UNL d   1     -14.263  18.550  -8.667 -0.04 +0.00    +0.012    15.194
ATOM     44  C   UNL d   1     -10.510  13.496 -13.593 -0.07 +0.00    +0.004    15.194
ATOM     45  C   UNL d   1      -9.643  14.346 -14.153 -0.08 +0.00    +0.012    15.194
TER
ENDMDL
MODEL       57
USER    Run = 57
USER    Cluster Rank = 20
USER    Number of conformations in this cluster = 1
USER  
USER    RMSD from reference structure       = 24.919 A
USER  
USER    Estimated Free Energy of Binding    =   -5.78 kcal/mol  [=(1)+(2)+(3)-(4)]
USER    Estimated Inhibition Constant, Ki   =   57.58 uM (micromolar)  [Temperature = 298.15 K]
USER    
USER    (1) Final Intermolecular Energy     =   -8.77 kcal/mol
USER        vdW + Hbond + desolv Energy     =   -5.75 kcal/mol
USER        Electrostatic Energy            =   -3.01 kcal/mol
USER    (2) Final Total Internal Energy     =   -2.10 kcal/mol
USER    (3) Torsional Free Energy           =   +2.98 kcal/mol
USER    (4) Unbound System's Energy  [=(2)] =   -2.10 kcal/mol
USER    
USER    
USER  
USER    DPF = D:/Protein_go_brrr/autodock/final/mut_K82N/heme_Fe/dock.dpf
USER    NEWDPF move	heme_Fe_opt.pdbqt
USER    NEWDPF about	-0.174000 -0.001000 -0.047000
USER    NEWDPF tran0	13.533421 2.421454 22.432472
USER    NEWDPF axisangle0	0.006513 0.999960 -0.006078 -109.165525
USER    NEWDPF quaternion0	0.005308 0.814921 -0.004953 -0.579526
USER    NEWDPF dihe0	8.16 95.84 -135.56 39.25 121.57 -86.01 99.25 -147.80 1.17 -23.70 
USER  
USER                              x       y       z    vdW   Elec        q     RMS 
ATOM      1  C   UNL d   1      14.685   2.349  24.129 -0.09 +0.04    +0.064    24.919
ATOM      2  C   UNL d   1      13.255  -0.962  20.750 -0.15 +0.01    +0.064    24.919
ATOM      3  C   UNL d   1      11.936   2.649  17.871 -0.23 +0.00    +0.064    24.919
ATOM      4  C   UNL d   1      13.215   5.868  21.170 -0.07 +0.02    +0.064    24.919
ATOM      5  C   UNL d   1      14.328   1.081  23.479 -0.09 +0.03    +0.066    24.919
ATOM      6  C   UNL d   1      14.460  -0.170  24.059 -0.06 -0.01    -0.021    24.919
ATOM      7  C   UNL d   1      14.066  -1.089  23.118 -0.06 -0.01    -0.025    24.919
ATOM      8  C   UNL d   1      13.708  -0.363  21.999 -0.11 +0.02    +0.066    24.919
ATOM      9  C   UNL d   1      14.021  -2.575  23.301 -0.03 +0.01    +0.051    24.919
ATOM     10  C   UNL d   1      12.850  -0.283  19.675 -0.21 +0.01    +0.066    24.919
ATOM     11  C   UNL d   1      12.531  -0.883  18.454 -0.34 +0.00    -0.021    24.919
ATOM     12  C   UNL d   1      12.163   0.139  17.602 -0.37 -0.00    +0.000    24.919
ATOM     13  C   UNL d   1      12.286   1.321  18.352 -0.24 +0.00    +0.070    24.919
ATOM     14  C   UNL d   1      12.637  -2.351  18.096 -0.34 +0.00    +0.052    24.919
ATOM     15  C   UNL d   1      12.101   3.796  18.571 -0.17 +0.01    +0.066    24.919
ATOM     16  C   UNL d   1      11.662   5.032  18.115 -0.13 -0.00    -0.021    24.919
ATOM     17  C   UNL d   1      12.033   5.963  19.064 -0.07 +0.00    +0.000    24.919
ATOM     18  C   UNL d   1      12.695   5.271  20.075 -0.08 +0.01    +0.070    24.919
ATOM     19  C   UNL d   1      10.943   5.334  16.828 -0.18 +0.00    +0.052    24.919
ATOM     20  C   UNL d   1      13.864   5.166  22.284 -0.07 +0.03    +0.066    24.919
ATOM     21  C   UNL d   1      14.581   5.779  23.321 -0.05 -0.01    -0.025    24.919
ATOM     22  C   UNL d   1      14.980   4.759  24.159 -0.06 -0.01    -0.021    24.919
ATOM     23  C   UNL d   1      14.499   3.569  23.601 -0.06 +0.04    +0.066    24.919
ATOM     24  C   UNL d   1      14.884   7.247  23.519 -0.01 +0.01    +0.051    24.919
ATOM     25  N   UNL d   1      13.859   0.957  22.225 -0.09 -0.10    -0.248    24.919
ATOM     26  N   UNL d   1      12.713   1.066  19.613 -0.15 -0.04    -0.248    24.919
ATOM     27  N   UNL d   1      12.699   3.934  19.795 -0.10 -0.06    -0.248    24.919
ATOM     28  N   UNL d   1      13.858   3.819  22.433 -0.04 -0.15    -0.248    24.919
ATOM     29 FE   UNL d   1      13.285   2.444  21.023 -0.03 +0.00    +0.000    24.919
ATOM     30  C   UNL d   1      14.916  -0.478  25.444 -0.02 +0.01    +0.052    24.919
ATOM     31  C   UNL d   1      13.733  -0.528  26.404 -0.04 +0.04    +0.115    24.919
ATOM     32  C   UNL d   1      13.332   0.861  26.817 -0.07 +0.11    +0.139    24.919
ATOM     33  O   UNL d   1      12.199   1.272  26.606 -0.53 -1.14    -0.650    24.919
ATOM     34  O   UNL d   1      14.219   1.668  27.424 -0.00 -0.43    -0.776    24.919
ATOM     35  H   UNL d   1      13.915   2.510  27.789 +0.01 +0.11    +0.167    24.919
ATOM     36  C   UNL d   1      15.818   4.918  25.400 -0.02 +0.02    +0.052    24.919
ATOM     37  C   UNL d   1      14.982   5.543  26.508 -0.03 +0.05    +0.115    24.919
ATOM     38  C   UNL d   1      13.540   5.141  26.386 +0.09 +0.16    +0.139    24.919
ATOM     39  O   UNL d   1      12.774   5.769  25.670 -0.54 -0.91    -0.650    24.919
ATOM     40  O   UNL d   1      13.078   4.081  27.073 -0.14 -1.20    -0.776    24.919
ATOM     41  H   UNL d   1      13.186   3.196  26.699 -0.00 +0.30    +0.167    24.919
ATOM     42  C   UNL d   1      11.750  -0.043  16.176 -0.34 -0.00    +0.004    24.919
ATOM     43  C   UNL d   1      12.658  -0.056  15.191 -0.35 -0.00    +0.012    24.919
ATOM     44  C   UNL d   1      11.754   7.416  19.015 -0.04 +0.00    +0.004    24.919
ATOM     45  C   UNL d   1      10.664   7.924  19.600 -0.04 +0.00    +0.012    24.919
TER
ENDMDL
MODEL       13
USER    Run = 13
USER    Cluster Rank = 21
USER    Number of conformations in this cluster = 1
USER  
USER    RMSD from reference structure       = 13.092 A
USER  
USER    Estimated Free Energy of Binding    =   -5.78 kcal/mol  [=(1)+(2)+(3)-(4)]
USER    Estimated Inhibition Constant, Ki   =   57.58 uM (micromolar)  [Temperature = 298.15 K]
USER    
USER    (1) Final Intermolecular Energy     =   -8.77 kcal/mol
USER        vdW + Hbond + desolv Energy     =   -7.67 kcal/mol
USER        Electrostatic Energy            =   -1.10 kcal/mol
USER    (2) Final Total Internal Energy     =   -0.72 kcal/mol
USER    (3) Torsional Free Energy           =   +2.98 kcal/mol
USER    (4) Unbound System's Energy  [=(2)] =   -0.72 kcal/mol
USER    
USER    
USER  
USER    DPF = D:/Protein_go_brrr/autodock/final/mut_K82N/heme_Fe/dock.dpf
USER    NEWDPF move	heme_Fe_opt.pdbqt
USER    NEWDPF about	-0.174000 -0.001000 -0.047000
USER    NEWDPF tran0	9.751990 -13.145003 1.926885
USER    NEWDPF axisangle0	0.894337 0.342835 0.287448 -158.830353
USER    NEWDPF quaternion0	0.879119 0.337002 0.282556 -0.183691
USER    NEWDPF dihe0	-165.22 -77.94 90.32 44.24 74.80 -41.22 52.58 96.55 172.68 172.64 
USER  
USER                              x       y       z    vdW   Elec        q     RMS 
ATOM      1  C   UNL d   1       8.839 -14.553   0.747 -0.29 +0.01    +0.064    13.092
ATOM      2  C   UNL d   1       9.333  -9.639   0.552 -0.20 +0.00    +0.064    13.092
ATOM      3  C   UNL d   1      12.811  -9.927   3.851 -0.18 +0.01    +0.064    13.092
ATOM      4  C   UNL d   1      12.277 -14.673   4.132 -0.08 +0.03    +0.064    13.092
ATOM      5  C   UNL d   1       8.598 -13.135   0.447 -0.24 +0.01    +0.066    13.092
ATOM      6  C   UNL d   1       7.592 -12.661  -0.380 -0.33 -0.00    -0.021    13.092
ATOM      7  C   UNL d   1       7.732 -11.297  -0.436 -0.37 -0.00    -0.025    13.092
ATOM      8  C   UNL d   1       8.819 -10.990   0.359 -0.26 +0.01    +0.066    13.092
ATOM      9  C   UNL d   1       6.856 -10.350  -1.198 -0.30 +0.00    +0.051    13.092
ATOM     10  C   UNL d   1      10.343  -9.309   1.358 -0.27 +0.00    +0.066    13.092
ATOM     11  C   UNL d   1      10.886  -8.024   1.434 -0.31 +0.00    -0.021    13.092
ATOM     12  C   UNL d   1      11.902  -8.085   2.366 -0.26 +0.00    +0.000    13.092
ATOM     13  C   UNL d   1      11.932  -9.418   2.810 -0.22 +0.01    +0.070    13.092
ATOM     14  C   UNL d   1      10.501  -6.814   0.608 -0.32 -0.00    +0.052    13.092
ATOM     15  C   UNL d   1      12.880 -11.221   4.244 -0.12 +0.01    +0.066    13.092
ATOM     16  C   UNL d   1      13.660 -11.649   5.311 -0.10 -0.00    -0.021    13.092
ATOM     17  C   UNL d   1      13.510 -13.018   5.391 -0.09 +0.00    +0.000    13.092
ATOM     18  C   UNL d   1      12.643 -13.394   4.368 +0.02 +0.03    +0.070    13.092
ATOM     19  C   UNL d   1      14.533 -10.810   6.204 -0.08 +0.00    +0.052    13.092
ATOM     20  C   UNL d   1      11.320 -15.099   3.104 -0.12 +0.03    +0.066    13.092
ATOM     21  C   UNL d   1      11.084 -16.426   2.718 -0.11 -0.01    -0.025    13.092
ATOM     22  C   UNL d   1      10.091 -16.369   1.761 -0.17 -0.00    -0.021    13.092
ATOM     23  C   UNL d   1       9.767 -15.017   1.598 -0.21 +0.02    +0.066    13.092
ATOM     24  C   UNL d   1      11.754 -17.686   3.213 -0.05 +0.01    +0.051    13.092
ATOM     25  N   UNL d   1       9.337 -12.109   0.903 -0.15 -0.05    -0.248    13.092
ATOM     26  N   UNL d   1      10.988 -10.167   2.189 -0.14 -0.03    -0.248    13.092
ATOM     27  N   UNL d   1      12.221 -12.285   3.689 -0.05 -0.09    -0.248    13.092
ATOM     28  N   UNL d   1      10.552 -14.244   2.387 -0.12 -0.09    -0.248    13.092
ATOM     29 FE   UNL d   1      10.771 -12.207   2.289 -0.05 +0.00    +0.000    13.092
ATOM     30  C   UNL d   1       6.537 -13.460  -1.065 -0.36 +0.01    +0.052    13.092
ATOM     31  C   UNL d   1       6.925 -13.739  -2.513 -0.20 +0.03    +0.115    13.092
ATOM     32  C   UNL d   1       5.821 -13.321  -3.444 -0.21 +0.07    +0.139    13.092
ATOM     33  O   UNL d   1       5.619 -12.138  -3.681 -0.49 -0.35    -0.650    13.092
ATOM     34  O   UNL d   1       5.041 -14.248  -4.025 +0.09 -0.85    -0.776    13.092
ATOM     35  H   UNL d   1       5.052 -15.153  -3.682 -0.48 +0.19    +0.167    13.092
ATOM     36  C   UNL d   1       9.523 -17.546   1.012 -0.14 +0.01    +0.052    13.092
ATOM     37  C   UNL d   1      10.319 -17.775  -0.264 -0.09 +0.01    +0.115    13.092
ATOM     38  C   UNL d   1       9.822 -16.893  -1.374 -0.08 +0.01    +0.139    13.092
ATOM     39  O   UNL d   1       8.625 -16.713  -1.542 +0.01 -0.09    -0.650    13.092
ATOM     40  O   UNL d   1      10.700 -16.293  -2.199 +0.03 -0.05    -0.776    13.092
ATOM     41  H   UNL d   1      10.846 -16.665  -3.080 +0.01 +0.01    +0.167    13.092
ATOM     42  C   UNL d   1      12.770  -6.933   2.762 -0.21 +0.00    +0.004    13.092
ATOM     43  C   UNL d   1      13.095  -6.724   4.045 -0.22 +0.00    +0.012    13.092
ATOM     44  C   UNL d   1      14.139 -13.906   6.395 -0.07 +0.00    +0.004    13.092
ATOM     45  C   UNL d   1      13.462 -14.305   7.477 -0.09 +0.00    +0.012    13.092
TER
ENDMDL
MODEL       10
USER    Run = 10
USER    Cluster Rank = 22
USER    Number of conformations in this cluster = 1
USER  
USER    RMSD from reference structure       = 17.154 A
USER  
USER    Estimated Free Energy of Binding    =   -5.73 kcal/mol  [=(1)+(2)+(3)-(4)]
USER    Estimated Inhibition Constant, Ki   =   62.74 uM (micromolar)  [Temperature = 298.15 K]
USER    
USER    (1) Final Intermolecular Energy     =   -8.72 kcal/mol
USER        vdW + Hbond + desolv Energy     =   -6.19 kcal/mol
USER        Electrostatic Energy            =   -2.53 kcal/mol
USER    (2) Final Total Internal Energy     =   -1.94 kcal/mol
USER    (3) Torsional Free Energy           =   +2.98 kcal/mol
USER    (4) Unbound System's Energy  [=(2)] =   -1.94 kcal/mol
USER    
USER    
USER  
USER    DPF = D:/Protein_go_brrr/autodock/final/mut_K82N/heme_Fe/dock.dpf
USER    NEWDPF move	heme_Fe_opt.pdbqt
USER    NEWDPF about	-0.174000 -0.001000 -0.047000
USER    NEWDPF tran0	-13.362943 14.887324 -6.456583
USER    NEWDPF axisangle0	0.805197 0.003757 0.592996 135.736884
USER    NEWDPF quaternion0	0.745871 0.003480 0.549305 0.376735
USER    NEWDPF dihe0	31.02 -108.91 23.64 -159.79 -90.93 72.24 -122.00 147.64 178.24 -171.15 
USER  
USER                              x       y       z    vdW   Elec        q     RMS 
ATOM      1  C   UNL d   1     -13.739  16.040  -8.112 -0.08 +0.04    +0.064    17.154
ATOM      2  C   UNL d   1     -13.842  16.819  -3.232 -0.08 +0.02    +0.064    17.154
ATOM      3  C   UNL d   1     -11.369  12.751  -2.600 -0.32 +0.02    +0.064    17.154
ATOM      4  C   UNL d   1     -11.348  11.924  -7.312 -0.14 +0.02    +0.064    17.154
ATOM      5  C   UNL d   1     -14.070  16.594  -6.792 -0.07 +0.04    +0.066    17.154
ATOM      6  C   UNL d   1     -14.869  17.705  -6.578 -0.04 -0.01    -0.021    17.154
ATOM      7  C   UNL d   1     -14.894  17.923  -5.222 -0.03 -0.01    -0.025    17.154
ATOM      8  C   UNL d   1     -14.109  16.935  -4.661 -0.07 +0.02    +0.066    17.154
ATOM      9  C   UNL d   1     -15.647  19.008  -4.517 -0.01 +0.01    +0.051    17.154
ATOM     10  C   UNL d   1     -13.136  15.843  -2.659 -0.14 +0.02    +0.066    17.154
ATOM     11  C   UNL d   1     -12.802  15.822  -1.303 -0.20 -0.00    -0.021    17.154
ATOM     12  C   UNL d   1     -12.074  14.667  -1.098 -0.31 +0.00    +0.000    17.154
ATOM     13  C   UNL d   1     -11.994  14.041  -2.354 -0.26 +0.02    +0.070    17.154
ATOM     14  C   UNL d   1     -13.103  16.885  -0.266 -0.16 +0.01    +0.052    17.154
ATOM     15  C   UNL d   1     -11.244  12.169  -3.816 -0.27 +0.02    +0.066    17.154
ATOM     16  C   UNL d   1     -10.730  10.891  -3.996 -0.34 -0.01    -0.021    17.154
ATOM     17  C   UNL d   1     -10.720  10.651  -5.355 -0.24 +0.00    +0.000    17.154
ATOM     18  C   UNL d   1     -11.225  11.793  -5.973 -0.17 +0.02    +0.070    17.154
ATOM     19  C   UNL d   1     -10.243   9.939  -2.936 -0.38 +0.01    +0.052    17.154
ATOM     20  C   UNL d   1     -11.932  13.085  -7.994 -0.12 +0.03    +0.066    17.154
ATOM     21  C   UNL d   1     -11.884  13.320  -9.376 -0.11 -0.01    -0.025    17.154
ATOM     22  C   UNL d   1     -12.583  14.492  -9.583 -0.09 -0.01    -0.021    17.154
ATOM     23  C   UNL d   1     -13.021  14.926  -8.326 -0.09 +0.04    +0.066    17.154
ATOM     24  C   UNL d   1     -11.216  12.495 -10.451 -0.11 +0.02    +0.051    17.154
ATOM     25  N   UNL d   1     -13.616  16.122  -5.617 -0.06 -0.14    -0.248    17.154
ATOM     26  N   UNL d   1     -12.634  14.762  -3.308 -0.12 -0.08    -0.248    17.154
ATOM     27  N   UNL d   1     -11.588  12.709  -5.026 -0.13 -0.09    -0.248    17.154
ATOM     28  N   UNL d   1     -12.583  14.087  -7.356 -0.08 -0.13    -0.248    17.154
ATOM     29 FE   UNL d   1     -12.607  14.423  -5.333 -0.04 +0.00    +0.000    17.154
ATOM     30  C   UNL d   1     -15.590  18.508  -7.605 -0.01 +0.01    +0.052    17.154
ATOM     31  C   UNL d   1     -14.736  19.682  -8.071 -0.01 +0.03    +0.115    17.154
ATOM     32  C   UNL d   1     -13.429  19.193  -8.630 -0.05 +0.08    +0.139    17.154
ATOM     33  O   UNL d   1     -12.449  19.072  -7.909 -0.57 -0.82    -0.650    17.154
ATOM     34  O   UNL d   1     -13.326  18.884  -9.933 +0.01 -0.32    -0.776    17.154
ATOM     35  H   UNL d   1     -12.710  18.189 -10.204 +0.02 +0.09    +0.167    17.154
ATOM     36  C   UNL d   1     -12.774  15.179 -10.909 -0.05 +0.02    +0.052    17.154
ATOM     37  C   UNL d   1     -11.476  15.853 -11.330 -0.12 +0.05    +0.115    17.154
ATOM     38  C   UNL d   1     -10.715  16.350 -10.134 -0.07 +0.13    +0.139    17.154
ATOM     39  O   UNL d   1     -10.153  15.568  -9.381 -0.23 -0.87    -0.650    17.154
ATOM     40  O   UNL d   1     -10.649  17.669  -9.881 +0.07 -0.99    -0.776    17.154
ATOM     41  H   UNL d   1     -11.442  18.130  -9.574 +0.02 +0.22    +0.167    17.154
ATOM     42  C   UNL d   1     -11.499  14.239   0.214 -0.13 +0.00    +0.004    17.154
ATOM     43  C   UNL d   1     -12.289  13.802   1.204 -0.25 +0.00    +0.012    17.154
ATOM     44  C   UNL d   1     -10.275   9.404  -6.017 -0.26 +0.00    +0.004    17.154
ATOM     45  C   UNL d   1      -9.109   9.353  -6.668 -0.31 +0.00    +0.012    17.154
TER
ENDMDL
MODEL       47
USER    Run = 47
USER    Cluster Rank = 23
USER    Number of conformations in this cluster = 6
USER  
USER    RMSD from reference structure       = 17.494 A
USER  
USER    Estimated Free Energy of Binding    =   -5.49 kcal/mol  [=(1)+(2)+(3)-(4)]
USER    Estimated Inhibition Constant, Ki   =   94.78 uM (micromolar)  [Temperature = 298.15 K]
USER    
USER    (1) Final Intermolecular Energy     =   -8.47 kcal/mol
USER        vdW + Hbond + desolv Energy     =   -7.97 kcal/mol
USER        Electrostatic Energy            =   -0.50 kcal/mol
USER    (2) Final Total Internal Energy     =   -2.45 kcal/mol
USER    (3) Torsional Free Energy           =   +2.98 kcal/mol
USER    (4) Unbound System's Energy  [=(2)] =   -2.45 kcal/mol
USER    
USER    
USER  
USER    DPF = D:/Protein_go_brrr/autodock/final/mut_K82N/heme_Fe/dock.dpf
USER    NEWDPF move	heme_Fe_opt.pdbqt
USER    NEWDPF about	-0.174000 -0.001000 -0.047000
USER    NEWDPF tran0	11.059399 3.572362 13.761366
USER    NEWDPF axisangle0	-0.201436 0.931462 0.302989 -76.255486
USER    NEWDPF quaternion0	-0.124370 0.575100 0.187071 -0.786636
USER    NEWDPF dihe0	62.58 106.31 56.72 -2.71 -109.40 6.52 -81.14 35.43 165.65 143.15 
USER  
USER                              x       y       z    vdW   Elec        q     RMS 
ATOM      1  C   UNL d   1      11.010   3.438  15.808 -0.28 -0.01    +0.064    17.494
ATOM      2  C   UNL d   1      13.278   0.922  12.210 -0.17 -0.01    +0.064    17.494
ATOM      3  C   UNL d   1      12.251   4.489   9.162 -0.18 -0.00    +0.064    17.494
ATOM      4  C   UNL d   1       9.960   6.893  12.605 -0.26 +0.00    +0.064    17.494
ATOM      5  C   UNL d   1      11.671   2.361  15.058 -0.25 -0.01    +0.066    17.494
ATOM      6  C   UNL d   1      12.016   1.128  15.585 -0.29 +0.00    -0.021    17.494
ATOM      7  C   UNL d   1      12.650   0.431  14.586 -0.26 +0.01    -0.025    17.494
ATOM      8  C   UNL d   1      12.666   1.267  13.487 -0.19 -0.01    +0.066    17.494
ATOM      9  C   UNL d   1      13.187  -0.964  14.687 -0.38 -0.01    +0.051    17.494
ATOM     10  C   UNL d   1      13.257   1.686  11.117 -0.16 -0.01    +0.066    17.494
ATOM     11  C   UNL d   1      13.951   1.379   9.943 -0.13 +0.00    -0.021    17.494
ATOM     12  C   UNL d   1      13.685   2.401   9.054 -0.13 -0.00    +0.000    17.494
ATOM     13  C   UNL d   1      12.841   3.292   9.741 -0.13 -0.00    +0.070    17.494
ATOM     14  C   UNL d   1      14.877   0.204   9.704 -0.03 -0.00    +0.052    17.494
ATOM     15  C   UNL d   1      11.481   5.376   9.834 -0.20 -0.00    +0.066    17.494
ATOM     16  C   UNL d   1      10.855   6.454   9.221 -0.23 -0.00    -0.021    17.494
ATOM     17  C   UNL d   1      10.196   7.151  10.213 -0.30 +0.00    +0.000    17.494
ATOM     18  C   UNL d   1      10.440   6.483  11.411 -0.27 -0.00    +0.070    17.494
ATOM     19  C   UNL d   1      10.893   6.832   7.765 -0.03 +0.01    +0.052    17.494
ATOM     20  C   UNL d   1      10.144   6.182  13.876 -0.24 -0.01    +0.066    17.494
ATOM     21  C   UNL d   1       9.828   6.693  15.143 -0.28 +0.00    -0.025    17.494
ATOM     22  C   UNL d   1      10.123   5.687  16.040 -0.24 +0.00    -0.021    17.494
ATOM     23  C   UNL d   1      10.611   4.610  15.289 -0.23 -0.01    +0.066    17.494
ATOM     24  C   UNL d   1       9.280   8.055  15.501 -0.26 -0.00    +0.051    17.494
ATOM     25  N   UNL d   1      12.061   2.437  13.774 -0.10 +0.03    -0.248    17.494
ATOM     26  N   UNL d   1      12.588   2.861  11.001 -0.08 +0.02    -0.248    17.494
ATOM     27  N   UNL d   1      11.193   5.367  11.173 -0.14 +0.01    -0.248    17.494
ATOM     28  N   UNL d   1      10.664   4.935  13.975 -0.17 +0.04    -0.248    17.494
ATOM     29 FE   UNL d   1      11.625   3.900  12.488 -0.05 -0.00    +0.000    17.494
ATOM     30  C   UNL d   1      11.741   0.626  16.962 -0.37 -0.01    +0.052    17.494
ATOM     31  C   UNL d   1      13.010   0.642  17.806 -0.20 -0.00    +0.115    17.494
ATOM     32  C   UNL d   1      13.044   1.865  18.681 -0.16 +0.01    +0.139    17.494
ATOM     33  O   UNL d   1      13.837   2.769  18.459 +0.03 -0.05    -0.650    17.494
ATOM     34  O   UNL d   1      12.199   1.974  19.720 -0.00 -0.17    -0.776    17.494
ATOM     35  H   UNL d   1      11.551   2.693  19.725 +0.03 +0.04    +0.167    17.494
ATOM     36  C   UNL d   1       9.989   5.776  17.537 -0.14 +0.00    +0.052    17.494
ATOM     37  C   UNL d   1      11.346   5.554  18.188 -0.11 +0.01    +0.115    17.494
ATOM     38  C   UNL d   1      11.205   4.826  19.495 -0.19 +0.03    +0.139    17.494
ATOM     39  O   UNL d   1      10.121   4.388  19.852 -0.08 -0.21    -0.650    17.494
ATOM     40  O   UNL d   1      12.278   4.653  20.287 -0.00 -0.23    -0.776    17.494
ATOM     41  H   UNL d   1      12.949   4.004  20.034 +0.03 +0.04    +0.167    17.494
ATOM     42  C   UNL d   1      14.232   2.492   7.665 -0.11 +0.00    +0.004    17.494
ATOM     43  C   UNL d   1      13.464   2.221   6.602 -0.17 +0.00    +0.012    17.494
ATOM     44  C   UNL d   1       9.370   8.365  10.024 -0.36 +0.00    +0.004    17.494
ATOM     45  C   UNL d   1       8.399   8.396   9.106 -0.48 +0.00    +0.012    17.494
TER
ENDMDL
MODEL       97
USER    Run = 97
USER    Cluster Rank = 24
USER    Number of conformations in this cluster = 1
USER  
USER    RMSD from reference structure       = 18.142 A
USER  
USER    Estimated Free Energy of Binding    =   -5.39 kcal/mol  [=(1)+(2)+(3)-(4)]
USER    Estimated Inhibition Constant, Ki   =  111.87 uM (micromolar)  [Temperature = 298.15 K]
USER    
USER    (1) Final Intermolecular Energy     =   -8.37 kcal/mol
USER        vdW + Hbond + desolv Energy     =   -8.55 kcal/mol
USER        Electrostatic Energy            =   +0.18 kcal/mol
USER    (2) Final Total Internal Energy     =   -0.80 kcal/mol
USER    (3) Torsional Free Energy           =   +2.98 kcal/mol
USER    (4) Unbound System's Energy  [=(2)] =   -0.80 kcal/mol
USER    
USER    
USER  
USER    DPF = D:/Protein_go_brrr/autodock/final/mut_K82N/heme_Fe/dock.dpf
USER    NEWDPF move	heme_Fe_opt.pdbqt
USER    NEWDPF about	-0.174000 -0.001000 -0.047000
USER    NEWDPF tran0	7.438184 16.656303 -9.908870
USER    NEWDPF axisangle0	-0.352694 0.881029 0.315269 -144.345302
USER    NEWDPF quaternion0	-0.335759 0.838725 0.300130 -0.306150
USER    NEWDPF dihe0	75.75 167.42 -178.56 11.08 101.72 66.41 116.60 -140.86 -162.16 -35.65 
USER  
USER                              x       y       z    vdW   Elec        q     RMS 
ATOM      1  C   UNL d   1       8.811  17.750  -8.846 -0.13 -0.00    +0.064    18.142
ATOM      2  C   UNL d   1       9.090  14.251 -12.326 -0.19 +0.01    +0.064    18.142
ATOM      3  C   UNL d   1       4.436  14.938 -13.293 -0.20 -0.01    +0.064    18.142
ATOM      4  C   UNL d   1       4.119  18.253  -9.859 -0.03 -0.03    +0.064    18.142
ATOM      5  C   UNL d   1       9.301  16.643  -9.679 -0.16 -0.00    +0.066    18.142
ATOM      6  C   UNL d   1      10.569  16.091  -9.595 -0.14 -0.00    -0.021    18.142
ATOM      7  C   UNL d   1      10.647  15.122 -10.564 -0.25 -0.00    -0.025    18.142
ATOM      8  C   UNL d   1       9.422  15.119 -11.203 -0.24 +0.00    +0.066    18.142
ATOM      9  C   UNL d   1      11.828  14.242 -10.840 -0.21 +0.00    +0.051    18.142
ATOM     10  C   UNL d   1       7.899  14.187 -12.922 -0.19 +0.01    +0.066    18.142
ATOM     11  C   UNL d   1       7.645  13.429 -14.067 -0.21 -0.00    -0.021    18.142
ATOM     12  C   UNL d   1       6.313  13.624 -14.377 -0.24 +0.00    +0.000    18.142
ATOM     13  C   UNL d   1       5.821  14.505 -13.398 -0.25 +0.00    +0.070    18.142
ATOM     14  C   UNL d   1       8.639  12.614 -14.869 -0.16 +0.01    +0.052    18.142
ATOM     15  C   UNL d   1       3.969  15.827 -12.385 -0.27 -0.01    +0.066    18.142
ATOM     16  C   UNL d   1       2.622  16.138 -12.252 -0.32 +0.01    -0.021    18.142
ATOM     17  C   UNL d   1       2.528  17.097 -11.265 -0.30 -0.00    +0.000    18.142
ATOM     18  C   UNL d   1       3.823  17.351 -10.820 -0.22 -0.02    +0.070    18.142
ATOM     19  C   UNL d   1       1.468  15.577 -13.039 -0.18 -0.03    +0.052    18.142
ATOM     20  C   UNL d   1       5.462  18.503  -9.322 -0.16 -0.02    +0.066    18.142
ATOM     21  C   UNL d   1       5.812  19.566  -8.477 -0.21 +0.01    -0.025    18.142
ATOM     22  C   UNL d   1       7.150  19.396  -8.191 -0.16 +0.00    -0.021    18.142
ATOM     23  C   UNL d   1       7.564  18.246  -8.874 -0.17 -0.01    +0.066    18.142
ATOM     24  C   UNL d   1       4.941  20.689  -7.964 -0.23 -0.01    +0.051    18.142
ATOM     25  N   UNL d   1       8.602  16.038 -10.655 -0.18 +0.01    -0.248    18.142
ATOM     26  N   UNL d   1       6.789  14.856 -12.517 -0.17 +0.00    -0.248    18.142
ATOM     27  N   UNL d   1       4.705  16.539 -11.477 -0.16 +0.05    -0.248    18.142
ATOM     28  N   UNL d   1       6.541  17.731  -9.598 -0.16 +0.05    -0.248    18.142
ATOM     29 FE   UNL d   1       6.663  16.295 -11.057 -0.05 -0.00    +0.000    18.142
ATOM     30  C   UNL d   1      11.647  16.451  -8.630 -0.06 -0.00    +0.052    18.142
ATOM     31  C   UNL d   1      12.252  17.807  -8.977 -0.06 -0.01    +0.115    18.142
ATOM     32  C   UNL d   1      12.917  17.757 -10.325 -0.02 -0.01    +0.139    18.142
ATOM     33  O   UNL d   1      12.362  18.221 -11.311 +0.01 +0.04    -0.650    18.142
ATOM     34  O   UNL d   1      14.132  17.198 -10.458 +0.01 +0.04    -0.776    18.142
ATOM     35  H   UNL d   1      14.903  17.772 -10.563 +0.00 -0.01    +0.167    18.142
ATOM     36  C   UNL d   1       7.993  20.315  -7.348 -0.12 -0.01    +0.052    18.142
ATOM     37  C   UNL d   1       7.436  20.370  -5.933 -0.19 -0.03    +0.115    18.142
ATOM     38  C   UNL d   1       6.946  19.019  -5.495 -0.33 -0.03    +0.139    18.142
ATOM     39  O   UNL d   1       7.726  18.093  -5.333 -0.01 +0.11    -0.650    18.142
ATOM     40  O   UNL d   1       5.633  18.819  -5.279 -0.49 +0.19    -0.776    18.142
ATOM     41  H   UNL d   1       5.044  19.584  -5.225 -0.51 -0.10    +0.167    18.142
ATOM     42  C   UNL d   1       5.606  13.008 -15.542 -0.17 +0.00    +0.004    18.142
ATOM     43  C   UNL d   1       4.862  13.754 -16.369 -0.14 -0.00    +0.012    18.142
ATOM     44  C   UNL d   1       1.279  17.714 -10.765 -0.36 -0.00    +0.004    18.142
ATOM     45  C   UNL d   1       0.360  16.981 -10.129 -0.57 -0.00    +0.012    18.142
TER
ENDMDL
MODEL       46
USER    Run = 46
USER    Cluster Rank = 25
USER    Number of conformations in this cluster = 1
USER  
USER    RMSD from reference structure       = 11.431 A
USER  
USER    Estimated Free Energy of Binding    =   -5.39 kcal/mol  [=(1)+(2)+(3)-(4)]
USER    Estimated Inhibition Constant, Ki   =  112.91 uM (micromolar)  [Temperature = 298.15 K]
USER    
USER    (1) Final Intermolecular Energy     =   -8.37 kcal/mol
USER        vdW + Hbond + desolv Energy     =   -7.00 kcal/mol
USER        Electrostatic Energy            =   -1.37 kcal/mol
USER    (2) Final Total Internal Energy     =   -1.51 kcal/mol
USER    (3) Torsional Free Energy           =   +2.98 kcal/mol
USER    (4) Unbound System's Energy  [=(2)] =   -1.51 kcal/mol
USER    
USER    
USER  
USER    DPF = D:/Protein_go_brrr/autodock/final/mut_K82N/heme_Fe/dock.dpf
USER    NEWDPF move	heme_Fe_opt.pdbqt
USER    NEWDPF about	-0.174000 -0.001000 -0.047000
USER    NEWDPF tran0	10.049562 -11.229545 -3.258849
USER    NEWDPF axisangle0	0.610879 0.485124 -0.625685 110.953566
USER    NEWDPF quaternion0	0.503301 0.399692 -0.515499 0.566740
USER    NEWDPF dihe0	44.90 -66.68 -140.73 -153.76 -113.40 -128.06 -104.82 33.78 149.68 -180.00 
USER  
USER                              x       y       z    vdW   Elec        q     RMS 
ATOM      1  C   UNL d   1       9.248 -13.098  -2.978 -0.06 +0.01    +0.064    11.431
ATOM      2  C   UNL d   1      10.586  -9.398   0.015 -0.18 +0.00    +0.064    11.431
ATOM      3  C   UNL d   1      10.746  -6.471  -3.789 -0.15 +0.00    +0.064    11.431
ATOM      4  C   UNL d   1       9.554 -10.061  -6.718 -0.07 +0.00    +0.064    11.431
ATOM      5  C   UNL d   1       9.691 -12.348  -1.794 -0.05 +0.01    +0.066    11.431
ATOM      6  C   UNL d   1       9.876 -12.895  -0.535 -0.09 -0.00    -0.021    11.431
ATOM      7  C   UNL d   1      10.244 -11.866   0.296 -0.15 -0.00    -0.025    11.431
ATOM      8  C   UNL d   1      10.270 -10.729  -0.489 -0.13 +0.01    +0.066    11.431
ATOM      9  C   UNL d   1      10.569 -11.982   1.754 -0.11 +0.01    +0.051    11.431
ATOM     10  C   UNL d   1      10.673  -8.296  -0.731 -0.05 +0.00    +0.066    11.431
ATOM     11  C   UNL d   1      10.865  -7.017  -0.203 -0.20 +0.00    -0.021    11.431
ATOM     12  C   UNL d   1      10.898  -6.152  -1.279 -0.16 +0.00    +0.000    11.431
ATOM     13  C   UNL d   1      10.714  -6.955  -2.418 -0.06 +0.00    +0.070    11.431
ATOM     14  C   UNL d   1      10.944  -6.628   1.259 -0.32 -0.00    +0.052    11.431
ATOM     15  C   UNL d   1      10.518  -7.231  -4.886 -0.12 -0.00    +0.066    11.431
ATOM     16  C   UNL d   1      10.655  -6.753  -6.183 -0.10 +0.00    -0.021    11.431
ATOM     17  C   UNL d   1      10.309  -7.785  -7.029 -0.10 -0.00    +0.000    11.431
ATOM     18  C   UNL d   1       9.964  -8.871  -6.227 -0.10 -0.00    +0.070    11.431
ATOM     19  C   UNL d   1      11.071  -5.371  -6.612 -0.11 -0.00    +0.052    11.431
ATOM     20  C   UNL d   1       9.242 -11.244  -5.907 +0.01 +0.01    +0.066    11.431
ATOM     21  C   UNL d   1       8.630 -12.412  -6.381 -0.07 -0.00    -0.025    11.431
ATOM     22  C   UNL d   1       8.564 -13.269  -5.301 -0.05 -0.00    -0.021    11.431
ATOM     23  C   UNL d   1       9.130 -12.591  -4.215 -0.05 +0.01    +0.066    11.431
ATOM     24  C   UNL d   1       8.125 -12.715  -7.773 -0.06 +0.00    +0.051    11.431
ATOM     25  N   UNL d   1       9.942 -11.027  -1.762 -0.04 -0.02    -0.248    11.431
ATOM     26  N   UNL d   1      10.569  -8.261  -2.084 -0.04 -0.01    -0.248    11.431
ATOM     27  N   UNL d   1      10.134  -8.545  -4.910 -0.09 -0.00    -0.248    11.431
ATOM     28  N   UNL d   1       9.501 -11.339  -4.580 -0.05 -0.03    -0.248    11.431
ATOM     29 FE   UNL d   1      10.035  -9.800  -3.334 -0.03 +0.00    +0.000    11.431
ATOM     30  C   UNL d   1       9.733 -14.326  -0.144 -0.12 +0.01    +0.052    11.431
ATOM     31  C   UNL d   1       8.680 -14.484   0.947 -0.31 +0.03    +0.115    11.431
ATOM     32  C   UNL d   1       7.299 -14.348   0.369 -0.20 +0.05    +0.139    11.431
ATOM     33  O   UNL d   1       6.586 -13.401   0.673 -0.44 -0.25    -0.650    11.431
ATOM     34  O   UNL d   1       6.833 -15.270  -0.490 -0.41 -0.25    -0.776    11.431
ATOM     35  H   UNL d   1       6.376 -14.977  -1.291 -0.50 +0.02    +0.167    11.431
ATOM     36  C   UNL d   1       7.946 -14.642  -5.305 -0.03 +0.01    +0.052    11.431
ATOM     37  C   UNL d   1       6.442 -14.529  -5.109 -0.11 +0.05    +0.115    11.431
ATOM     38  C   UNL d   1       5.908 -15.705  -4.341 -0.15 +0.10    +0.139    11.431
ATOM     39  O   UNL d   1       4.965 -16.355  -4.768 -0.55 -0.88    -0.650    11.431
ATOM     40  O   UNL d   1       6.468 -16.050  -3.168 +0.01 -0.25    -0.776    11.431
ATOM     41  H   UNL d   1       5.953 -15.952  -2.355 -0.50 +0.01    +0.167    11.431
ATOM     42  C   UNL d   1      11.075  -4.670  -1.181 -0.29 +0.00    +0.004    11.431
ATOM     43  C   UNL d   1      10.016  -3.852  -1.122 -0.45 +0.00    +0.012    11.431
ATOM     44  C   UNL d   1      10.327  -7.743  -8.509 -0.07 -0.00    +0.004    11.431
ATOM     45  C   UNL d   1       9.200  -7.550  -9.202 -0.10 -0.00    +0.012    11.431
TER
ENDMDL
MODEL       28
USER    Run = 28
USER    Cluster Rank = 26
USER    Number of conformations in this cluster = 3
USER  
USER    RMSD from reference structure       = 13.186 A
USER  
USER    Estimated Free Energy of Binding    =   -5.18 kcal/mol  [=(1)+(2)+(3)-(4)]
USER    Estimated Inhibition Constant, Ki   =  160.56 uM (micromolar)  [Temperature = 298.15 K]
USER    
USER    (1) Final Intermolecular Energy     =   -8.16 kcal/mol
USER        vdW + Hbond + desolv Energy     =   -6.82 kcal/mol
USER        Electrostatic Energy            =   -1.34 kcal/mol
USER    (2) Final Total Internal Energy     =   -1.99 kcal/mol
USER    (3) Torsional Free Energy           =   +2.98 kcal/mol
USER    (4) Unbound System's Energy  [=(2)] =   -1.99 kcal/mol
USER    
USER    
USER  
USER    DPF = D:/Protein_go_brrr/autodock/final/mut_K82N/heme_Fe/dock.dpf
USER    NEWDPF move	heme_Fe_opt.pdbqt
USER    NEWDPF about	-0.174000 -0.001000 -0.047000
USER    NEWDPF tran0	13.114339 10.922781 1.293881
USER    NEWDPF axisangle0	0.790735 0.033224 -0.611256 -172.439330
USER    NEWDPF quaternion0	0.789015 0.033152 -0.609926 -0.065931
USER    NEWDPF dihe0	-39.80 95.65 -137.43 -136.12 56.00 -99.16 -80.98 52.01 165.28 -170.87 
USER  
USER                              x       y       z    vdW   Elec        q     RMS 
ATOM      1  C   UNL d   1      12.094  10.960   3.074 -0.11 +0.00    +0.064    13.186
ATOM      2  C   UNL d   1      12.765  14.174  -0.621 -0.21 -0.01    +0.064    13.186
ATOM      3  C   UNL d   1      14.384  10.578  -3.363 -0.26 -0.01    +0.064    13.186
ATOM      4  C   UNL d   1      13.841   7.470   0.233 -0.17 +0.00    +0.064    13.186
ATOM      5  C   UNL d   1      12.212  12.213   2.315 -0.08 +0.00    +0.066    13.186
ATOM      6  C   UNL d   1      11.941  13.473   2.823 -0.11 -0.00    -0.021    13.186
ATOM      7  C   UNL d   1      12.124  14.365   1.795 -0.14 +0.00    -0.025    13.186
ATOM      8  C   UNL d   1      12.500  13.614   0.699 -0.19 -0.00    +0.066    13.186
ATOM      9  C   UNL d   1      11.963  15.852   1.877 -0.10 -0.00    +0.051    13.186
ATOM     10  C   UNL d   1      13.185  13.480  -1.680 -0.22 -0.01    +0.066    13.186
ATOM     11  C   UNL d   1      13.321  14.024  -2.959 -0.21 +0.00    -0.021    13.186
ATOM     12  C   UNL d   1      13.770  13.003  -3.772 -0.21 -0.00    +0.000    13.186
ATOM     13  C   UNL d   1      13.879  11.875  -2.940 -0.16 -0.02    +0.070    13.186
ATOM     14  C   UNL d   1      12.973  15.432  -3.400 -0.18 -0.01    +0.052    13.186
ATOM     15  C   UNL d   1      14.442   9.476  -2.579 -0.22 -0.00    +0.066    13.186
ATOM     16  C   UNL d   1      15.023   8.283  -2.990 -0.18 +0.00    -0.021    13.186
ATOM     17  C   UNL d   1      14.864   7.384  -1.955 -0.17 +0.00    +0.000    13.186
ATOM     18  C   UNL d   1      14.185   8.050  -0.938 -0.18 +0.00    +0.070    13.186
ATOM     19  C   UNL d   1      15.680   7.989  -4.311 -0.13 -0.00    +0.052    13.186
ATOM     20  C   UNL d   1      13.181   8.156   1.350 -0.16 -0.00    +0.066    13.186
ATOM     21  C   UNL d   1      12.641   7.528   2.482 -0.15 +0.00    -0.025    13.186
ATOM     22  C   UNL d   1      12.160   8.542   3.284 -0.14 -0.00    -0.021    13.186
ATOM     23  C   UNL d   1      12.418   9.742   2.611 -0.12 +0.00    +0.066    13.186
ATOM     24  C   UNL d   1      12.573   6.052   2.798 -0.16 -0.00    +0.051    13.186
ATOM     25  N   UNL d   1      12.562  12.306   1.021 -0.09 +0.00    -0.248    13.186
ATOM     26  N   UNL d   1      13.514  12.163  -1.667 -0.17 +0.04    -0.248    13.186
ATOM     27  N   UNL d   1      13.963   9.348  -1.302 -0.16 +0.01    -0.248    13.186
ATOM     28  N   UNL d   1      13.000   9.498   1.412 -0.01 +0.00    -0.248    13.186
ATOM     29 FE   UNL d   1      13.257  10.828  -0.127 -0.05 -0.00    +0.000    13.186
ATOM     30  C   UNL d   1      11.548  13.817   4.219 -0.07 +0.00    +0.052    13.186
ATOM     31  C   UNL d   1      10.065  14.161   4.294 -0.12 +0.01    +0.115    13.186
ATOM     32  C   UNL d   1       9.275  12.980   4.784 -0.18 +0.05    +0.139    13.186
ATOM     33  O   UNL d   1       9.548  12.446   5.850 +0.07 -0.40    -0.650    13.186
ATOM     34  O   UNL d   1       8.257  12.498   4.051 -0.01 -0.32    -0.776    13.186
ATOM     35  H   UNL d   1       8.133  11.540   3.991 +0.06 +0.10    +0.167    13.186
ATOM     36  C   UNL d   1      11.449   8.361   4.599 -0.16 +0.01    +0.052    13.186
ATOM     37  C   UNL d   1      10.038   7.849   4.353 -0.25 +0.02    +0.115    13.186
ATOM     38  C   UNL d   1       9.026   8.691   5.078 -0.29 +0.07    +0.139    13.186
ATOM     39  O   UNL d   1       8.561   8.327   6.148 -0.08 -0.40    -0.650    13.186
ATOM     40  O   UNL d   1       8.620   9.858   4.547 -0.51 -0.62    -0.776    13.186
ATOM     41  H   UNL d   1       9.148  10.654   4.703 +0.06 +0.13    +0.167    13.186
ATOM     42  C   UNL d   1      14.045  13.133  -5.237 -0.24 -0.00    +0.004    13.186
ATOM     43  C   UNL d   1      13.083  12.907  -6.141 -0.33 -0.00    +0.012    13.186
ATOM     44  C   UNL d   1      15.350   5.985  -1.934 -0.13 +0.00    +0.004    13.186
ATOM     45  C   UNL d   1      14.648   5.008  -2.518 -0.15 +0.00    +0.012    13.186
TER
ENDMDL
MODEL       54
USER    Run = 54
USER    Cluster Rank = 27
USER    Number of conformations in this cluster = 1
USER  
USER    RMSD from reference structure       = 13.891 A
USER  
USER    Estimated Free Energy of Binding    =   -4.85 kcal/mol  [=(1)+(2)+(3)-(4)]
USER    Estimated Inhibition Constant, Ki   =  278.60 uM (micromolar)  [Temperature = 298.15 K]
USER    
USER    (1) Final Intermolecular Energy     =   -7.83 kcal/mol
USER        vdW + Hbond + desolv Energy     =   -7.35 kcal/mol
USER        Electrostatic Energy            =   -0.48 kcal/mol
USER    (2) Final Total Internal Energy     =   -2.23 kcal/mol
USER    (3) Torsional Free Energy           =   +2.98 kcal/mol
USER    (4) Unbound System's Energy  [=(2)] =   -2.23 kcal/mol
USER    
USER    
USER  
USER    DPF = D:/Protein_go_brrr/autodock/final/mut_K82N/heme_Fe/dock.dpf
USER    NEWDPF move	heme_Fe_opt.pdbqt
USER    NEWDPF about	-0.174000 -0.001000 -0.047000
USER    NEWDPF tran0	-6.783981 -12.511974 7.547726
USER    NEWDPF axisangle0	-0.064153 0.195986 -0.978506 118.561120
USER    NEWDPF quaternion0	-0.055151 0.168485 -0.841201 0.510835
USER    NEWDPF dihe0	-61.82 -154.91 57.60 50.64 135.70 138.89 70.02 94.94 -40.45 -178.91 
USER  
USER                              x       y       z    vdW   Elec        q     RMS 
ATOM      1  C   UNL d   1      -5.839 -14.334   7.535 -0.21 -0.01    +0.064    13.891
ATOM      2  C   UNL d   1      -4.628  -9.796   9.076 -0.35 -0.02    +0.064    13.891
ATOM      3  C   UNL d   1      -9.252  -8.532   8.766 -0.13 -0.01    +0.064    13.891
ATOM      4  C   UNL d   1     -10.430 -12.886   7.173 -0.14 -0.01    +0.064    13.891
ATOM      5  C   UNL d   1      -5.058 -13.150   7.917 -0.26 -0.01    +0.066    13.891
ATOM      6  C   UNL d   1      -3.676 -13.107   7.999 -0.35 +0.00    -0.021    13.891
ATOM      7  C   UNL d   1      -3.340 -11.848   8.430 -0.37 +0.01    -0.025    13.891
ATOM      8  C   UNL d   1      -4.532 -11.169   8.596 -0.27 -0.02    +0.066    13.891
ATOM      9  C   UNL d   1      -1.952 -11.330   8.649 -0.53 -0.01    +0.051    13.891
ATOM     10  C   UNL d   1      -5.761  -9.100   9.190 -0.36 -0.01    +0.066    13.891
ATOM     11  C   UNL d   1      -5.833  -7.827   9.760 -0.40 +0.00    -0.021    13.891
ATOM     12  C   UNL d   1      -7.159  -7.447   9.698 -0.26 -0.00    +0.000    13.891
ATOM     13  C   UNL d   1      -7.835  -8.522   9.095 -0.18 -0.01    +0.070    13.891
ATOM     14  C   UNL d   1      -4.706  -7.039  10.396 -0.30 -0.00    +0.052    13.891
ATOM     15  C   UNL d   1      -9.916  -9.584   8.232 -0.08 -0.01    +0.066    13.891
ATOM     16  C   UNL d   1     -11.247  -9.520   7.841 -0.07 +0.00    -0.021    13.891
ATOM     17  C   UNL d   1     -11.590 -10.776   7.384 -0.08 -0.00    +0.000    13.891
ATOM     18  C   UNL d   1     -10.459 -11.579   7.512 -0.08 -0.01    +0.070    13.891
ATOM     19  C   UNL d   1     -12.171  -8.334   7.915 -0.04 -0.01    +0.052    13.891
ATOM     20  C   UNL d   1      -9.242 -13.746   7.236 -0.12 -0.01    +0.066    13.891
ATOM     21  C   UNL d   1      -9.242 -15.139   7.081 -0.08 +0.00    -0.025    13.891
ATOM     22  C   UNL d   1      -7.922 -15.529   7.175 -0.08 +0.00    -0.021    13.891
ATOM     23  C   UNL d   1      -7.173 -14.366   7.389 -0.13 -0.02    +0.066    13.891
ATOM     24  C   UNL d   1     -10.416 -16.064   6.859 -0.04 -0.01    +0.051    13.891
ATOM     25  N   UNL d   1      -5.575 -11.961   8.274 -0.20 +0.06    -0.248    13.891
ATOM     26  N   UNL d   1      -6.984  -9.533   8.792 -0.18 +0.04    -0.248    13.891
ATOM     27  N   UNL d   1      -9.417 -10.836   7.992 -0.02 +0.03    -0.248    13.891
ATOM     28  N   UNL d   1      -7.989 -13.286   7.470 -0.11 +0.06    -0.248    13.891
ATOM     29 FE   UNL d   1      -7.488 -11.411   8.131 -0.05 -0.00    +0.000    13.891
ATOM     30  C   UNL d   1      -2.718 -14.199   7.663 -0.35 +0.01    +0.052    13.891
ATOM     31  C   UNL d   1      -3.042 -14.802   6.301 -0.39 +0.02    +0.115    13.891
ATOM     32  C   UNL d   1      -3.587 -16.194   6.457 -0.21 +0.04    +0.139    13.891
ATOM     33  O   UNL d   1      -4.564 -16.557   5.818 -0.05 +0.27    -0.650    13.891
ATOM     34  O   UNL d   1      -3.002 -17.056   7.306 -0.28 -0.89    -0.776    13.891
ATOM     35  H   UNL d   1      -3.512 -17.400   8.052 +0.03 +0.08    +0.167    13.891
ATOM     36  C   UNL d   1      -7.417 -16.947   7.111 -0.04 -0.01    +0.052    13.891
ATOM     37  C   UNL d   1      -7.571 -17.608   8.473 -0.00 -0.01    +0.115    13.891
ATOM     38  C   UNL d   1      -6.386 -17.317   9.350 -0.00 -0.01    +0.139    13.891
ATOM     39  O   UNL d   1      -6.534 -17.057  10.535 +0.02 +0.02    -0.650    13.891
ATOM     40  O   UNL d   1      -5.145 -17.339   8.831 +0.05 -0.03    -0.776    13.891
ATOM     41  H   UNL d   1      -5.029 -17.180   7.884 +0.04 +0.00    +0.167    13.891
ATOM     42  C   UNL d   1      -7.703  -6.150  10.208 -0.26 -0.00    +0.004    13.891
ATOM     43  C   UNL d   1      -8.055  -5.171   9.364 -0.27 -0.00    +0.012    13.891
ATOM     44  C   UNL d   1     -12.908 -11.176   6.841 -0.06 -0.00    +0.004    13.891
ATOM     45  C   UNL d   1     -13.085 -11.347   5.527 -0.10 -0.00    +0.012    13.891
TER
ENDMDL
MODEL        4
USER    Run = 4
USER    Cluster Rank = 28
USER    Number of conformations in this cluster = 1
USER  
USER    RMSD from reference structure       = 17.307 A
USER  
USER    Estimated Free Energy of Binding    =   -4.76 kcal/mol  [=(1)+(2)+(3)-(4)]
USER    Estimated Inhibition Constant, Ki   =  324.90 uM (micromolar)  [Temperature = 298.15 K]
USER    
USER    (1) Final Intermolecular Energy     =   -7.74 kcal/mol
USER        vdW + Hbond + desolv Energy     =   -8.13 kcal/mol
USER        Electrostatic Energy            =   +0.38 kcal/mol
USER    (2) Final Total Internal Energy     =   -2.32 kcal/mol
USER    (3) Torsional Free Energy           =   +2.98 kcal/mol
USER    (4) Unbound System's Energy  [=(2)] =   -2.32 kcal/mol
USER    
USER    
USER  
USER    DPF = D:/Protein_go_brrr/autodock/final/mut_K82N/heme_Fe/dock.dpf
USER    NEWDPF move	heme_Fe_opt.pdbqt
USER    NEWDPF about	-0.174000 -0.001000 -0.047000
USER    NEWDPF tran0	9.568074 17.650662 -8.378609
USER    NEWDPF axisangle0	0.379010 0.271222 -0.884755 -116.757483
USER    NEWDPF quaternion0	0.322739 0.230954 -0.753397 -0.524302
USER    NEWDPF dihe0	-159.72 -1.31 90.80 -152.30 -72.36 -79.58 146.73 107.15 -161.60 -179.27 
USER  
USER                              x       y       z    vdW   Elec        q     RMS 
ATOM      1  C   UNL d   1       9.862  18.575  -6.571 -0.12 -0.01    +0.064    17.307
ATOM      2  C   UNL d   1       5.903  17.510  -9.332 -0.24 -0.02    +0.064    17.307
ATOM      3  C   UNL d   1       8.602  14.489 -11.912 -0.18 +0.00    +0.064    17.307
ATOM      4  C   UNL d   1      12.470  15.585  -9.319 -0.14 -0.00    +0.064    17.307
ATOM      5  C   UNL d   1       8.517  18.619  -7.161 -0.12 -0.01    +0.066    17.307
ATOM      6  C   UNL d   1       7.499  19.462  -6.749 -0.21 +0.00    -0.021    17.307
ATOM      7  C   UNL d   1       6.399  19.163  -7.514 -0.27 +0.01    -0.025    17.307
ATOM      8  C   UNL d   1       6.789  18.147  -8.365 -0.24 -0.01    +0.066    17.307
ATOM      9  C   UNL d   1       5.061  19.833  -7.437 -0.33 -0.02    +0.051    17.307
ATOM     10  C   UNL d   1       6.269  16.569 -10.204 -0.29 -0.01    +0.066    17.307
ATOM     11  C   UNL d   1       5.373  15.896 -11.039 -0.37 +0.00    -0.021    17.307
ATOM     12  C   UNL d   1       6.125  15.007 -11.781 -0.36 -0.00    +0.000    17.307
ATOM     13  C   UNL d   1       7.452  15.179 -11.351 -0.23 -0.00    +0.070    17.307
ATOM     14  C   UNL d   1       3.866  16.044 -11.079 -0.35 -0.01    +0.052    17.307
ATOM     15  C   UNL d   1       9.875  14.613 -11.466 -0.23 +0.00    +0.066    17.307
ATOM     16  C   UNL d   1      10.960  14.014 -12.093 -0.17 -0.00    -0.021    17.307
ATOM     17  C   UNL d   1      12.076  14.326 -11.345 -0.14 +0.00    +0.000    17.307
ATOM     18  C   UNL d   1      11.644  15.106 -10.275 -0.17 +0.00    +0.070    17.307
ATOM     19  C   UNL d   1      10.948  13.160 -13.332 -0.13 +0.00    +0.052    17.307
ATOM     20  C   UNL d   1      12.061  16.460  -8.213 -0.06 -0.00    +0.066    17.307
ATOM     21  C   UNL d   1      12.859  16.798  -7.111 -0.09 +0.00    -0.025    17.307
ATOM     22  C   UNL d   1      12.100  17.661  -6.347 -0.09 +0.00    -0.021    17.307
ATOM     23  C   UNL d   1      10.874  17.809  -7.007 -0.07 -0.00    +0.066    17.307
ATOM     24  C   UNL d   1      14.260  16.336  -6.783 -0.06 -0.00    +0.051    17.307
ATOM     25  N   UNL d   1       8.080  17.825  -8.155 -0.06 +0.02    -0.248    17.307
ATOM     26  N   UNL d   1       7.539  16.125 -10.383 -0.20 +0.03    -0.248    17.307
ATOM     27  N   UNL d   1      10.298  15.320 -10.373 -0.18 -0.01    -0.248    17.307
ATOM     28  N   UNL d   1      10.840  17.039  -8.121 +0.06 +0.00    -0.248    17.307
ATOM     29 FE   UNL d   1       9.191  16.581  -9.252 -0.06 -0.00    +0.000    17.307
ATOM     30  C   UNL d   1       7.571  20.515  -5.696 -0.19 -0.02    +0.052    17.307
ATOM     31  C   UNL d   1       7.636  19.887  -4.308 -0.28 -0.03    +0.115    17.307
ATOM     32  C   UNL d   1       6.846  18.609  -4.271 -0.42 -0.03    +0.139    17.307
ATOM     33  O   UNL d   1       5.623  18.631  -4.291 -0.58 +0.16    -0.650    17.307
ATOM     34  O   UNL d   1       7.480  17.425  -4.216 +0.01 +0.16    -0.776    17.307
ATOM     35  H   UNL d   1       8.396  17.397  -3.907 +0.06 -0.04    +0.167    17.307
ATOM     36  C   UNL d   1      12.515  18.269  -5.033 -0.06 -0.00    +0.052    17.307
ATOM     37  C   UNL d   1      12.265  17.276  -3.907 -0.10 -0.01    +0.115    17.307
ATOM     38  C   UNL d   1      10.798  17.160  -3.607 -0.20 -0.03    +0.139    17.307
ATOM     39  O   UNL d   1      10.230  18.001  -2.927 +0.02 +0.11    -0.650    17.307
ATOM     40  O   UNL d   1      10.095  16.118  -4.088 +0.10 +0.23    -0.776    17.307
ATOM     41  H   UNL d   1       9.156  16.043  -3.868 -0.47 -0.08    +0.167    17.307
ATOM     42  C   UNL d   1       5.573  14.066 -12.805 -0.44 +0.00    +0.004    17.307
ATOM     43  C   UNL d   1       6.207  13.862 -13.966 -0.30 +0.00    +0.012    17.307
ATOM     44  C   UNL d   1      13.468  13.921 -11.646 -0.08 -0.00    +0.004    17.307
ATOM     45  C   UNL d   1      14.022  12.868 -11.036 -0.11 -0.00    +0.012    17.307
TER
ENDMDL
MODEL       82
USER    Run = 82
USER    Cluster Rank = 29
USER    Number of conformations in this cluster = 1
USER  
USER    RMSD from reference structure       = 13.049 A
USER  
USER    Estimated Free Energy of Binding    =   -4.61 kcal/mol  [=(1)+(2)+(3)-(4)]
USER    Estimated Inhibition Constant, Ki   =  419.11 uM (micromolar)  [Temperature = 298.15 K]
USER    
USER    (1) Final Intermolecular Energy     =   -7.59 kcal/mol
USER        vdW + Hbond + desolv Energy     =   -7.53 kcal/mol
USER        Electrostatic Energy            =   -0.06 kcal/mol
USER    (2) Final Total Internal Energy     =   -2.04 kcal/mol
USER    (3) Torsional Free Energy           =   +2.98 kcal/mol
USER    (4) Unbound System's Energy  [=(2)] =   -2.04 kcal/mol
USER    
USER    
USER  
USER    DPF = D:/Protein_go_brrr/autodock/final/mut_K82N/heme_Fe/dock.dpf
USER    NEWDPF move	heme_Fe_opt.pdbqt
USER    NEWDPF about	-0.174000 -0.001000 -0.047000
USER    NEWDPF tran0	13.341639 -4.062371 4.986840
USER    NEWDPF axisangle0	-0.296958 0.873409 -0.385970 -115.553298
USER    NEWDPF quaternion0	-0.251219 0.738883 -0.326521 -0.533221
USER    NEWDPF dihe0	18.90 -95.41 97.65 4.04 -106.22 85.87 -65.36 -35.24 -160.05 -6.79 
USER  
USER                              x       y       z    vdW   Elec        q     RMS 
ATOM      1  C   UNL d   1      14.454  -2.790   6.151 -0.18 +0.01    +0.064    13.049
ATOM      2  C   UNL d   1      13.231  -7.572   6.410 -0.08 +0.01    +0.064    13.049
ATOM      3  C   UNL d   1      11.847  -7.396   1.814 -0.26 +0.00    +0.064    13.049
ATOM      4  C   UNL d   1      12.925  -2.742   1.573 -0.20 -0.00    +0.064    13.049
ATOM      5  C   UNL d   1      14.160  -4.131   6.675 -0.23 +0.01    +0.066    13.049
ATOM      6  C   UNL d   1      14.325  -4.519   7.994 -0.28 -0.00    -0.021    13.049
ATOM      7  C   UNL d   1      13.989  -5.848   8.065 -0.32 -0.00    -0.025    13.049
ATOM      8  C   UNL d   1      13.631  -6.221   6.783 -0.26 +0.01    +0.066    13.049
ATOM      9  C   UNL d   1      13.995  -6.696   9.299 -0.23 -0.00    +0.051    13.049
ATOM     10  C   UNL d   1      12.827  -7.945   5.195 -0.25 +0.01    +0.066    13.049
ATOM     11  C   UNL d   1      12.560  -9.270   4.839 -0.27 -0.00    -0.021    13.049
ATOM     12  C   UNL d   1      12.175  -9.248   3.514 -0.26 +0.00    +0.000    13.049
ATOM     13  C   UNL d   1      12.236  -7.899   3.123 -0.21 +0.00    +0.070    13.049
ATOM     14  C   UNL d   1      12.730 -10.505   5.701 -0.25 +0.01    +0.052    13.049
ATOM     15  C   UNL d   1      11.953  -6.106   1.417 -0.22 -0.00    +0.066    13.049
ATOM     16  C   UNL d   1      11.478  -5.648   0.194 -0.23 +0.00    -0.021    13.049
ATOM     17  C   UNL d   1      11.791  -4.307   0.121 -0.24 -0.00    +0.000    13.049
ATOM     18  C   UNL d   1      12.454  -3.978   1.301 -0.14 -0.01    +0.070    13.049
ATOM     19  C   UNL d   1      10.781  -6.444  -0.877 -0.14 +0.00    +0.052    13.049
ATOM     20  C   UNL d   1      13.573  -2.344   2.829 -0.07 +0.00    +0.066    13.049
ATOM     21  C   UNL d   1      14.241  -1.131   3.047 -0.11 -0.00    -0.025    13.049
ATOM     22  C   UNL d   1      14.657  -1.161   4.362 -0.11 -0.00    -0.021    13.049
ATOM     23  C   UNL d   1      14.235  -2.387   4.890 -0.15 +0.01    +0.066    13.049
ATOM     24  C   UNL d   1      14.483   0.000   2.076 -0.08 +0.00    +0.051    13.049
ATOM     25  N   UNL d   1      13.727  -5.172   5.942 -0.16 -0.03    -0.248    13.049
ATOM     26  N   UNL d   1      12.641  -7.106   4.144 -0.13 -0.03    -0.248    13.049
ATOM     27  N   UNL d   1      12.515  -5.073   2.117 -0.13 +0.00    -0.248    13.049
ATOM     28  N   UNL d   1      13.613  -3.124   3.937 -0.05 -0.02    -0.248    13.049
ATOM     29 FE   UNL d   1      13.127  -5.113   4.039 -0.06 +0.00    +0.000    13.049
ATOM     30  C   UNL d   1      14.759  -3.666   9.137 -0.19 -0.00    +0.052    13.049
ATOM     31  C   UNL d   1      16.235  -3.304   9.011 -0.11 -0.00    +0.115    13.049
ATOM     32  C   UNL d   1      16.398  -1.824   8.804 -0.09 -0.00    +0.139    13.049
ATOM     33  O   UNL d   1      16.706  -1.378   7.708 +0.00 -0.00    -0.650    13.049
ATOM     34  O   UNL d   1      16.205  -0.975   9.828 -0.01 +0.04    -0.776    13.049
ATOM     35  H   UNL d   1      16.040  -0.040   9.638 +0.01 -0.01    +0.167    13.049
ATOM     36  C   UNL d   1      15.458  -0.091   5.056 -0.06 +0.00    +0.052    13.049
ATOM     37  C   UNL d   1      14.519   0.918   5.699 -0.09 +0.01    +0.115    13.049
ATOM     38  C   UNL d   1      15.074   1.415   7.004 -0.06 +0.01    +0.139    13.049
ATOM     39  O   UNL d   1      15.856   2.354   7.034 +0.02 -0.00    -0.650    13.049
ATOM     40  O   UNL d   1      14.713   0.822   8.156 -0.55 -0.10    -0.776    13.049
ATOM     41  H   UNL d   1      15.185   0.028   8.444 +0.01 +0.02    +0.167    13.049
ATOM     42  C   UNL d   1      11.804 -10.454   2.710 -0.22 +0.00    +0.004    13.049
ATOM     43  C   UNL d   1      10.854 -10.388   1.768 -0.23 +0.00    +0.012    13.049
ATOM     44  C   UNL d   1      11.460  -3.394  -0.997 -0.33 +0.00    +0.004    13.049
ATOM     45  C   UNL d   1      10.191  -3.213  -1.379 -0.35 +0.00    +0.012    13.049
TER
ENDMDL
MODEL        6
USER    Run = 6
USER    Cluster Rank = 30
USER    Number of conformations in this cluster = 1
USER  
USER    RMSD from reference structure       = 19.386 A
USER  
USER    Estimated Free Energy of Binding    =   -4.36 kcal/mol  [=(1)+(2)+(3)-(4)]
USER    Estimated Inhibition Constant, Ki   =  637.12 uM (micromolar)  [Temperature = 298.15 K]
USER    
USER    (1) Final Intermolecular Energy     =   -7.34 kcal/mol
USER        vdW + Hbond + desolv Energy     =   -6.95 kcal/mol
USER        Electrostatic Energy            =   -0.39 kcal/mol
USER    (2) Final Total Internal Energy     =   -2.34 kcal/mol
USER    (3) Torsional Free Energy           =   +2.98 kcal/mol
USER    (4) Unbound System's Energy  [=(2)] =   -2.34 kcal/mol
USER    
USER    
USER  
USER    DPF = D:/Protein_go_brrr/autodock/final/mut_K82N/heme_Fe/dock.dpf
USER    NEWDPF move	heme_Fe_opt.pdbqt
USER    NEWDPF about	-0.174000 -0.001000 -0.047000
USER    NEWDPF tran0	12.464276 2.439746 16.203328
USER    NEWDPF axisangle0	0.731345 0.156050 -0.663915 -161.349701
USER    NEWDPF quaternion0	0.721680 0.153988 -0.655141 -0.162037
USER    NEWDPF dihe0	33.32 -167.14 -178.63 -116.57 -69.58 -51.47 102.18 129.36 0.55 23.46 
USER  
USER                              x       y       z    vdW   Elec        q     RMS 
ATOM      1  C   UNL d   1      11.776   2.241  18.126 -0.24 +0.00    +0.064    19.386
ATOM      2  C   UNL d   1      10.848   5.355  14.401 -0.21 -0.01    +0.064    19.386
ATOM      3  C   UNL d   1      13.025   2.303  11.399 -0.16 -0.01    +0.064    19.386
ATOM      4  C   UNL d   1      14.026  -0.675  15.007 -0.25 -0.00    +0.064    19.386
ATOM      5  C   UNL d   1      11.386   3.440  17.370 -0.15 +0.00    +0.066    19.386
ATOM      6  C   UNL d   1      10.830   4.580  17.926 -0.12 -0.00    -0.021    19.386
ATOM      7  C   UNL d   1      10.569   5.442  16.891 -0.16 -0.00    -0.025    19.386
ATOM      8  C   UNL d   1      10.977   4.795  15.741 -0.20 -0.01    +0.066    19.386
ATOM      9  C   UNL d   1       9.980   6.814  17.012 -0.17 -0.00    +0.051    19.386
ATOM     10  C   UNL d   1      11.286   4.776  13.281 -0.19 -0.01    +0.066    19.386
ATOM     11  C   UNL d   1      11.046   5.284  12.002 -0.23 +0.00    -0.021    19.386
ATOM     12  C   UNL d   1      11.649   4.412  11.117 -0.15 -0.00    +0.000    19.386
ATOM     13  C   UNL d   1      12.225   3.404  11.910 -0.12 -0.00    +0.070    19.386
ATOM     14  C   UNL d   1      10.223   6.502  11.636 -0.33 -0.00    +0.052    19.386
ATOM     15  C   UNL d   1      13.538   1.301  12.153 -0.14 -0.01    +0.066    19.386
ATOM     16  C   UNL d   1      14.381   0.323  11.642 -0.11 +0.00    -0.021    19.386
ATOM     17  C   UNL d   1      14.668  -0.540  12.680 -0.20 -0.00    +0.000    19.386
ATOM     18  C   UNL d   1      13.989  -0.068  13.801 -0.18 -0.01    +0.070    19.386
ATOM     19  C   UNL d   1      14.878   0.186  10.228 -0.09 -0.01    +0.052    19.386
ATOM     20  C   UNL d   1      13.374  -0.174  16.223 -0.21 -0.01    +0.066    19.386
ATOM     21  C   UNL d   1      13.237  -0.889  17.421 -0.27 +0.00    -0.025    19.386
ATOM     22  C   UNL d   1      12.604  -0.034  18.300 -0.29 +0.00    -0.021    19.386
ATOM     23  C   UNL d   1      12.376   1.159  17.606 -0.24 -0.00    +0.066    19.386
ATOM     24  C   UNL d   1      13.670  -2.303  17.732 -0.13 +0.00    +0.051    19.386
ATOM     25  N   UNL d   1      11.483   3.581  16.037 -0.13 +0.02    -0.248    19.386
ATOM     26  N   UNL d   1      11.996   3.621  13.229 -0.09 +0.02    -0.248    19.386
ATOM     27  N   UNL d   1      13.329   1.088  13.489 -0.07 +0.04    -0.248    19.386
ATOM     28  N   UNL d   1      12.808   1.052  16.325 -0.11 +0.03    -0.248    19.386
ATOM     29 FE   UNL d   1      12.403   2.335  14.777 -0.04 -0.00    +0.000    19.386
ATOM     30  C   UNL d   1      10.578   4.847  19.371 -0.23 +0.01    +0.052    19.386
ATOM     31  C   UNL d   1      11.788   5.514  20.017 -0.11 +0.03    +0.115    19.386
ATOM     32  C   UNL d   1      12.860   4.498  20.297 -0.11 +0.04    +0.139    19.386
ATOM     33  O   UNL d   1      12.706   3.652  21.166 -0.02 -0.32    -0.650    19.386
ATOM     34  O   UNL d   1      14.004   4.512  19.591 +0.03 -0.11    -0.776    19.386
ATOM     35  H   UNL d   1      14.448   3.674  19.400 +0.02 +0.02    +0.167    19.386
ATOM     36  C   UNL d   1      12.199  -0.367  19.712 -0.28 +0.00    +0.052    19.386
ATOM     37  C   UNL d   1      12.884   0.586  20.681 -0.15 +0.03    +0.115    19.386
ATOM     38  C   UNL d   1      14.366   0.632  20.433 -0.08 +0.02    +0.139    19.386
ATOM     39  O   UNL d   1      15.022  -0.398  20.375 +0.03 -0.06    -0.650    19.386
ATOM     40  O   UNL d   1      14.984   1.816  20.276 +0.03 -0.11    -0.776    19.386
ATOM     41  H   UNL d   1      14.510   2.627  20.505 +0.02 +0.03    +0.167    19.386
ATOM     42  C   UNL d   1      11.636   4.559   9.629 -0.27 -0.00    +0.004    19.386
ATOM     43  C   UNL d   1      11.302   3.531   8.838 -0.35 -0.00    +0.012    19.386
ATOM     44  C   UNL d   1      15.551  -1.726  12.609 -0.23 -0.00    +0.004    19.386
ATOM     45  C   UNL d   1      15.253  -2.754  11.809 -0.27 -0.00    +0.012    19.386
TER
ENDMDL
MODEL       59
USER    Run = 59
USER    Cluster Rank = 31
USER    Number of conformations in this cluster = 1
USER  
USER    RMSD from reference structure       = 15.910 A
USER  
USER    Estimated Free Energy of Binding    =   -3.86 kcal/mol  [=(1)+(2)+(3)-(4)]
USER    Estimated Inhibition Constant, Ki   =    1.49 mM (millimolar)  [Temperature = 298.15 K]
USER    
USER    (1) Final Intermolecular Energy     =   -6.84 kcal/mol
USER        vdW + Hbond + desolv Energy     =   -6.77 kcal/mol
USER        Electrostatic Energy            =   -0.07 kcal/mol
USER    (2) Final Total Internal Energy     =   -2.64 kcal/mol
USER    (3) Torsional Free Energy           =   +2.98 kcal/mol
USER    (4) Unbound System's Energy  [=(2)] =   -2.64 kcal/mol
USER    
USER    
USER  
USER    DPF = D:/Protein_go_brrr/autodock/final/mut_K82N/heme_Fe/dock.dpf
USER    NEWDPF move	heme_Fe_opt.pdbqt
USER    NEWDPF about	-0.174000 -0.001000 -0.047000
USER    NEWDPF tran0	13.768228 9.481755 -10.162947
USER    NEWDPF axisangle0	-0.249344 0.442923 0.861189 118.797445
USER    NEWDPF quaternion0	-0.214618 0.381237 0.741252 0.509061
USER    NEWDPF dihe0	67.40 35.65 -117.92 -148.30 -79.67 -79.59 -114.97 85.51 152.70 173.58 
USER  
USER                              x       y       z    vdW   Elec        q     RMS 
ATOM      1  C   UNL d   1      14.129  11.497 -10.019 -0.16 -0.00    +0.064    15.910
ATOM      2  C   UNL d   1      10.878   8.711 -12.489 -0.21 +0.00    +0.064    15.910
ATOM      3  C   UNL d   1      12.021   4.997  -9.667 -0.29 -0.02    +0.064    15.910
ATOM      4  C   UNL d   1      15.249   7.646  -7.332 -0.15 -0.00    +0.064    15.910
ATOM      5  C   UNL d   1      13.169  11.034 -11.031 -0.18 -0.00    +0.066    15.910
ATOM      6  C   UNL d   1      12.696  11.803 -12.082 -0.17 -0.00    -0.021    15.910
ATOM      7  C   UNL d   1      11.790  11.030 -12.765 -0.18 -0.00    -0.025    15.910
ATOM      8  C   UNL d   1      11.745   9.817 -12.104 -0.22 +0.00    +0.066    15.910
ATOM      9  C   UNL d   1      11.032  11.435 -13.992 -0.13 +0.01    +0.051    15.910
ATOM     10  C   UNL d   1      10.858   7.512 -11.905 -0.22 -0.01    +0.066    15.910
ATOM     11  C   UNL d   1       9.936   6.511 -12.222 -0.26 +0.00    -0.021    15.910
ATOM     12  C   UNL d   1      10.234   5.435 -11.410 -0.31 -0.00    +0.000    15.910
ATOM     13  C   UNL d   1      11.327   5.842 -10.625 -0.24 -0.02    +0.070    15.910
ATOM     14  C   UNL d   1       8.784   6.599 -13.202 -0.32 +0.01    +0.052    15.910
ATOM     15  C   UNL d   1      13.041   5.400  -8.873 -0.20 -0.01    +0.066    15.910
ATOM     16  C   UNL d   1      13.743   4.536  -8.042 -0.18 +0.00    -0.021    15.910
ATOM     17  C   UNL d   1      14.672   5.299  -7.365 -0.13 -0.00    +0.000    15.910
ATOM     18  C   UNL d   1      14.512   6.613  -7.796 -0.15 -0.01    +0.070    15.910
ATOM     19  C   UNL d   1      13.535   3.055  -7.871 -0.18 -0.03    +0.052    15.910
ATOM     20  C   UNL d   1      15.150   9.032  -7.807 -0.11 -0.00    +0.066    15.910
ATOM     21  C   UNL d   1      15.759  10.140  -7.202 -0.11 +0.00    -0.025    15.910
ATOM     22  C   UNL d   1      15.437  11.225  -7.991 -0.12 +0.00    -0.021    15.910
ATOM     23  C   UNL d   1      14.644  10.739  -9.038 -0.07 -0.00    +0.066    15.910
ATOM     24  C   UNL d   1      16.597  10.188  -5.946 -0.07 -0.00    +0.051    15.910
ATOM     25  N   UNL d   1      12.592   9.820 -11.055 -0.18 +0.00    -0.248    15.910
ATOM     26  N   UNL d   1      11.702   7.111 -10.920 -0.18 +0.04    -0.248    15.910
ATOM     27  N   UNL d   1      13.539   6.670  -8.755 -0.13 +0.03    -0.248    15.910
ATOM     28  N   UNL d   1      14.435   9.408  -8.895 -0.09 +0.01    -0.248    15.910
ATOM     29 FE   UNL d   1      13.070   8.259  -9.906 -0.07 -0.00    +0.000    15.910
ATOM     30  C   UNL d   1      13.098  13.194 -12.434 -0.08 -0.00    +0.052    15.910
ATOM     31  C   UNL d   1      11.906  14.141 -12.340 -0.09 +0.00    +0.115    15.910
ATOM     32  C   UNL d   1      11.426  14.244 -10.919 -0.22 +0.00    +0.139    15.910
ATOM     33  O   UNL d   1      10.717  13.373 -10.436 -0.11 -0.08    -0.650    15.910
ATOM     34  O   UNL d   1      11.775  15.300 -10.165 +0.04 -0.00    -0.776    15.910
ATOM     35  H   UNL d   1      12.363  15.164  -9.409 +0.04 -0.00    +0.167    15.910
ATOM     36  C   UNL d   1      15.830  12.654  -7.725 -0.07 -0.00    +0.052    15.910
ATOM     37  C   UNL d   1      14.770  13.327  -6.866 -0.12 -0.01    +0.115    15.910
ATOM     38  C   UNL d   1      13.784  14.077  -7.716 -0.15 -0.00    +0.139    15.910
ATOM     39  O   UNL d   1      14.055  15.182  -8.161 +0.02 +0.03    -0.650    15.910
ATOM     40  O   UNL d   1      12.585  13.533  -7.992 +0.02 -0.01    -0.776    15.910
ATOM     41  H   UNL d   1      12.185  13.691  -8.858 +0.05 +0.01    +0.167    15.910
ATOM     42  C   UNL d   1       9.491   4.137 -11.402 -0.39 -0.00    +0.004    15.910
ATOM     43  C   UNL d   1       8.243   4.060 -10.921 -0.52 -0.01    +0.012    15.910
ATOM     44  C   UNL d   1      15.663   4.799  -6.385 -0.07 -0.00    +0.004    15.910
ATOM     45  C   UNL d   1      15.399   4.818  -5.075 -0.10 +0.00    +0.012    15.910
TER
ENDMDL


AVSFLD: # AVS field file
AVSFLD: #
AVSFLD: # Created by AutoDock
AVSFLD: #
AVSFLD: ndim=2           # number of dimensions in the field
AVSFLD: nspace=1         # number of physical coordinates
AVSFLD: veclen=7         # vector size
AVSFLD: dim1=45          # atoms
AVSFLD: dim2=31          # conformations
AVSFLD: data=Real       # data type (byte,integer,Real,double)
AVSFLD: field=uniform    # field coordinate layout
AVSFLD: label= x y z vdW Elec q RMS
AVSFLD: variable 1 file = D:/Protein_go_brrr/autodock/final/mut_K82N/heme_Fe/dock.dlg.pdb filetype = ascii offset = 5 stride = 12
AVSFLD: variable 2 file = D:/Protein_go_brrr/autodock/final/mut_K82N/heme_Fe/dock.dlg.pdb filetype = ascii offset = 6 stride = 12
AVSFLD: variable 3 file = D:/Protein_go_brrr/autodock/final/mut_K82N/heme_Fe/dock.dlg.pdb filetype = ascii offset = 7 stride = 12
AVSFLD: variable 4 file = D:/Protein_go_brrr/autodock/final/mut_K82N/heme_Fe/dock.dlg.pdb filetype = ascii offset = 8 stride = 12
AVSFLD: variable 5 file = D:/Protein_go_brrr/autodock/final/mut_K82N/heme_Fe/dock.dlg.pdb filetype = ascii offset = 9 stride = 12
AVSFLD: variable 6 file = D:/Protein_go_brrr/autodock/final/mut_K82N/heme_Fe/dock.dlg.pdb filetype = ascii offset = 10 stride = 12
AVSFLD: variable 7 file = D:/Protein_go_brrr/autodock/final/mut_K82N/heme_Fe/dock.dlg.pdb filetype = ascii offset = 11 stride = 12
AVSFLD: # end of file

>>> Closing the docking parameter file (DPF)...
This docking finished at:			9:36 32" a.m., 10/04/2025


________________________________________________________________________________

D:/autodockScripts/autodock4.exe: Successful Completion on "ACER"

Real= 18h 05m 11.54s,  CPU= 1m 02.50s,  System= 1m 38.16s
________________________________________________________________________________

