          AutoDock 4.2 Release 4.2.6   
         (C) 1989-2012 The Scripps Research Institute
        AutoDock comes with ABSOLUTELY NO WARRANTY.
        AutoDock is free software, and you are welcome
        to redistribute it under certain conditions;
        for details type 'autodock4 -C'

                     main.cc  $Revision: 1.213 $

                   Compiled on Jul 18 2014 at 15:34:58


This file was created at:			2:02 49" a.m., 09/26/2025
                   on host:		"ACER"
Current Working Directory = "D:\Protein_go_brrr\autodock\final\1A3N\IHP"

      ________________________________________________________________

                   SETTING UP DEFAULT PARAMETER LIBRARY
      ________________________________________________________________


Random number generator was seeded with values 53436, 1758844969.
Docking parameter file (DPF) used for this docking:		D:/Protein_go_brrr/autodock/final/1A3N/IHP/dock.dpf
DPF> autodock_parameter_version 4.2       # used by autodock to validate parameter set

	Autodock parameter version 4.2.
DPF> outlev 1                             # diagnostic output level

Output Level = 1  ADT-COMPATIBLE OUTPUT DURING DOCKING.
DPF> intelec                              # calculate internal electrostatics

Electrostatic energies will be calculated for all non-bonds between moving atoms.
DPF> seed pid time                        # seeds for random generator

Random number generator was seeded with values 53436, 1758844969.
DPF> ligand_types P C HD OA               # atoms types in ligand

DPF> fld opt_1A3N_fin.maps.fld            # grid_data_file

Opening Grid Map Dimensions file:		opt_1A3N_fin.maps.fld
Grid Point Spacing =				0.564 Angstroms

Even Number of User-specified Grid Points =	126 x-points
						126 y-points
						126 z-points

Coordinates of Central Grid Point of Maps =	(14.481, 2.083, 13.105)
Macromolecule file used to create Grid Maps =	opt_1A3N_fin.pdbqt
Grid Parameter file used to create Grid Maps =	D:/Protein_go_brrr/autodock/final/1A3N/IHP/grid.gpf
Minimum coordinates in grid = (-21.051, -33.449, -22.427)
Maximum coordinates in grid = (50.013, 37.615, 48.637)

DPF> map opt_1A3N_fin.P.map               # atom-specific affinity map

DPF> map opt_1A3N_fin.C.map               # atom-specific affinity map

DPF> map opt_1A3N_fin.HD.map              # atom-specific affinity map

DPF> map opt_1A3N_fin.OA.map              # atom-specific affinity map

DPF> elecmap opt_1A3N_fin.e.map           # electrostatics map

DPF> desolvmap opt_1A3N_fin.d.map         # desolvation map

DPF> move IHP_ideal_opt.pdbqt             # small molecule

1,4-interactions will be _ignored_ in the non-bonded internal energy calculation.

Ligand PDBQT file = "IHP_ideal_opt.pdbqt"

INPUT LIGAND PDBQT FILE:
________________________

INPUT-LIGAND-PDBQT: REMARK  24 active torsions:
INPUT-LIGAND-PDBQT: REMARK  status: ('A' for Active; 'I' for Inactive)
INPUT-LIGAND-PDBQT: REMARK    1  A    between atoms: C_1  and  O_7 
INPUT-LIGAND-PDBQT: REMARK    2  A    between atoms: C_2  and  O_12 
INPUT-LIGAND-PDBQT: REMARK    3  A    between atoms: C_3  and  O_17 
INPUT-LIGAND-PDBQT: REMARK    4  A    between atoms: C_4  and  O_22 
INPUT-LIGAND-PDBQT: REMARK    5  A    between atoms: C_5  and  O_27 
INPUT-LIGAND-PDBQT: REMARK    6  A    between atoms: C_6  and  O_32 
INPUT-LIGAND-PDBQT: REMARK    7  A    between atoms: O_7  and  P_8 
INPUT-LIGAND-PDBQT: REMARK    8  A    between atoms: P_8  and  O_10 
INPUT-LIGAND-PDBQT: REMARK    9  A    between atoms: P_8  and  O_11 
INPUT-LIGAND-PDBQT: REMARK   10  A    between atoms: O_12  and  P_13 
INPUT-LIGAND-PDBQT: REMARK   11  A    between atoms: P_13  and  O_15 
INPUT-LIGAND-PDBQT: REMARK   12  A    between atoms: P_13  and  O_16 
INPUT-LIGAND-PDBQT: REMARK   13  A    between atoms: O_17  and  P_18 
INPUT-LIGAND-PDBQT: REMARK   14  A    between atoms: P_18  and  O_20 
INPUT-LIGAND-PDBQT: REMARK   15  A    between atoms: P_18  and  O_21 
INPUT-LIGAND-PDBQT: REMARK   16  A    between atoms: O_22  and  P_23 
INPUT-LIGAND-PDBQT: REMARK   17  A    between atoms: P_23  and  O_25 
INPUT-LIGAND-PDBQT: REMARK   18  A    between atoms: P_23  and  O_26 
INPUT-LIGAND-PDBQT: REMARK   19  A    between atoms: O_27  and  P_28 
INPUT-LIGAND-PDBQT: REMARK   20  A    between atoms: P_28  and  O_30 
INPUT-LIGAND-PDBQT: REMARK   21  A    between atoms: P_28  and  O_31 
INPUT-LIGAND-PDBQT: REMARK   22  A    between atoms: O_32  and  P_33 
INPUT-LIGAND-PDBQT: REMARK   23  A    between atoms: P_33  and  O_35 
INPUT-LIGAND-PDBQT: REMARK   24  A    between atoms: P_33  and  O_36 
INPUT-LIGAND-PDBQT: ROOT
INPUT-LIGAND-PDBQT: ATOM      1  C   UNL d   1       1.288  -0.806   0.726  0.00  0.00     0.194 C 
INPUT-LIGAND-PDBQT: ATOM      2  C   UNL d   1       0.040  -1.610   0.357  0.00  0.00     0.194 C 
INPUT-LIGAND-PDBQT: ATOM      3  C   UNL d   1      -1.244  -0.840   0.673  0.00  0.00     0.194 C 
INPUT-LIGAND-PDBQT: ATOM      4  C   UNL d   1      -1.265   0.565   0.076  0.00  0.00     0.194 C 
INPUT-LIGAND-PDBQT: ATOM      5  C   UNL d   1       0.009   1.363   0.322  0.00  0.00     0.194 C 
INPUT-LIGAND-PDBQT: ATOM      6  C   UNL d   1       1.294   0.573   0.065  0.00  0.00     0.194 C 
INPUT-LIGAND-PDBQT: ENDROOT
INPUT-LIGAND-PDBQT: BRANCH   1   7
INPUT-LIGAND-PDBQT: ATOM      7  O   UNL d   1       2.433  -1.514   0.245  0.00  0.00    -0.278 OA
INPUT-LIGAND-PDBQT: BRANCH   7   8
INPUT-LIGAND-PDBQT: ATOM      8  P   UNL d   1       3.563  -1.932   1.294  0.00  0.00     0.473 P 
INPUT-LIGAND-PDBQT: ATOM      9  O   UNL d   1       3.071  -2.662   2.494  0.00  0.00    -0.228 OA
INPUT-LIGAND-PDBQT: BRANCH   8  10
INPUT-LIGAND-PDBQT: ATOM     10  O   UNL d   1       4.602  -2.777   0.427  0.00  0.00    -0.303 OA
INPUT-LIGAND-PDBQT: ATOM     11  H   UNL d   1       5.122  -3.357   1.014  0.00  0.00     0.222 HD
INPUT-LIGAND-PDBQT: ENDBRANCH   8  10
INPUT-LIGAND-PDBQT: BRANCH   8  12
INPUT-LIGAND-PDBQT: ATOM     12  O   UNL d   1       4.376  -0.597   1.579  0.00  0.00    -0.303 OA
INPUT-LIGAND-PDBQT: ATOM     13  H   UNL d   1       4.592  -0.095   0.761  0.00  0.00     0.222 HD
INPUT-LIGAND-PDBQT: ENDBRANCH   8  12
INPUT-LIGAND-PDBQT: ENDBRANCH   7   8
INPUT-LIGAND-PDBQT: ENDBRANCH   1   7
INPUT-LIGAND-PDBQT: BRANCH   2  14
INPUT-LIGAND-PDBQT: ATOM     14  O   UNL d   1       0.067  -1.896  -1.047  0.00  0.00    -0.278 OA
INPUT-LIGAND-PDBQT: BRANCH  14  15
INPUT-LIGAND-PDBQT: ATOM     15  P   UNL d   1      -0.217  -3.413  -1.474  0.00  0.00     0.473 P 
INPUT-LIGAND-PDBQT: ATOM     16  O   UNL d   1      -1.497  -4.019  -0.990  0.00  0.00    -0.228 OA
INPUT-LIGAND-PDBQT: BRANCH  15  17
INPUT-LIGAND-PDBQT: ATOM     17  O   UNL d   1      -0.104  -3.396  -3.063  0.00  0.00    -0.303 OA
INPUT-LIGAND-PDBQT: ATOM     18  H   UNL d   1      -0.983  -3.299  -3.477  0.00  0.00     0.222 HD
INPUT-LIGAND-PDBQT: ENDBRANCH  15  17
INPUT-LIGAND-PDBQT: BRANCH  15  19
INPUT-LIGAND-PDBQT: ATOM     19  O   UNL d   1       1.108  -4.194  -1.068  0.00  0.00    -0.303 OA
INPUT-LIGAND-PDBQT: ATOM     20  H   UNL d   1       1.891  -3.839  -1.528  0.00  0.00     0.222 HD
INPUT-LIGAND-PDBQT: ENDBRANCH  15  19
INPUT-LIGAND-PDBQT: ENDBRANCH  14  15
INPUT-LIGAND-PDBQT: ENDBRANCH   2  14
INPUT-LIGAND-PDBQT: BRANCH   6  21
INPUT-LIGAND-PDBQT: ATOM     21  O   UNL d   1       2.359   1.315   0.655  0.00  0.00    -0.278 OA
INPUT-LIGAND-PDBQT: BRANCH  21  22
INPUT-LIGAND-PDBQT: ATOM     22  P   UNL d   1       3.322   2.189  -0.269  0.00  0.00     0.473 P 
INPUT-LIGAND-PDBQT: ATOM     23  O   UNL d   1       2.760   2.769  -1.523  0.00  0.00    -0.228 OA
INPUT-LIGAND-PDBQT: BRANCH  22  24
INPUT-LIGAND-PDBQT: ATOM     24  O   UNL d   1       3.885   3.258   0.767  0.00  0.00    -0.303 OA
INPUT-LIGAND-PDBQT: ATOM     25  H   UNL d   1       3.131   3.831   1.059  0.00  0.00     0.222 HD
INPUT-LIGAND-PDBQT: ENDBRANCH  22  24
INPUT-LIGAND-PDBQT: BRANCH  22  26
INPUT-LIGAND-PDBQT: ATOM     26  O   UNL d   1       4.578   1.209  -0.449  0.00  0.00    -0.303 OA
INPUT-LIGAND-PDBQT: ATOM     27  H   UNL d   1       5.288   1.681  -0.930  0.00  0.00     0.222 HD
INPUT-LIGAND-PDBQT: ENDBRANCH  22  26
INPUT-LIGAND-PDBQT: ENDBRANCH  21  22
INPUT-LIGAND-PDBQT: ENDBRANCH   6  21
INPUT-LIGAND-PDBQT: BRANCH   3  28
INPUT-LIGAND-PDBQT: ATOM     28  O   UNL d   1      -2.321  -1.530   0.052  0.00  0.00    -0.278 OA
INPUT-LIGAND-PDBQT: BRANCH  28  29
INPUT-LIGAND-PDBQT: ATOM     29  P   UNL d   1      -3.402  -2.296   0.936  0.00  0.00     0.473 P 
INPUT-LIGAND-PDBQT: ATOM     30  O   UNL d   1      -2.932  -2.753   2.269  0.00  0.00    -0.228 OA
INPUT-LIGAND-PDBQT: BRANCH  29  31
INPUT-LIGAND-PDBQT: ATOM     31  O   UNL d   1      -4.591  -1.225   0.913  0.00  0.00    -0.303 OA
INPUT-LIGAND-PDBQT: ATOM     32  H   UNL d   1      -4.772  -0.977  -0.023  0.00  0.00     0.222 HD
INPUT-LIGAND-PDBQT: ENDBRANCH  29  31
INPUT-LIGAND-PDBQT: BRANCH  29  33
INPUT-LIGAND-PDBQT: ATOM     33  O   UNL d   1      -3.920  -3.418  -0.068  0.00  0.00    -0.303 OA
INPUT-LIGAND-PDBQT: ATOM     34  H   UNL d   1      -3.155  -3.980  -0.344  0.00  0.00     0.222 HD
INPUT-LIGAND-PDBQT: ENDBRANCH  29  33
INPUT-LIGAND-PDBQT: ENDBRANCH  28  29
INPUT-LIGAND-PDBQT: ENDBRANCH   3  28
INPUT-LIGAND-PDBQT: BRANCH   5  35
INPUT-LIGAND-PDBQT: ATOM     35  O   UNL d   1      -0.019   2.436  -0.617  0.00  0.00    -0.278 OA
INPUT-LIGAND-PDBQT: BRANCH  35  36
INPUT-LIGAND-PDBQT: ATOM     36  P   UNL d   1       0.242   3.934  -0.135  0.00  0.00     0.473 P 
INPUT-LIGAND-PDBQT: ATOM     37  O   UNL d   1       1.386   4.117   0.811  0.00  0.00    -0.228 OA
INPUT-LIGAND-PDBQT: BRANCH  36  38
INPUT-LIGAND-PDBQT: ATOM     38  O   UNL d   1       0.411   4.698  -1.522  0.00  0.00    -0.303 OA
INPUT-LIGAND-PDBQT: ATOM     39  H   UNL d   1       1.257   4.425  -1.938  0.00  0.00     0.222 HD
INPUT-LIGAND-PDBQT: ENDBRANCH  36  38
INPUT-LIGAND-PDBQT: BRANCH  36  40
INPUT-LIGAND-PDBQT: ATOM     40  O   UNL d   1      -1.196   4.382   0.376  0.00  0.00    -0.303 OA
INPUT-LIGAND-PDBQT: ATOM     41  H   UNL d   1      -1.909   4.073  -0.226  0.00  0.00     0.222 HD
INPUT-LIGAND-PDBQT: ENDBRANCH  36  40
INPUT-LIGAND-PDBQT: ENDBRANCH  35  36
INPUT-LIGAND-PDBQT: ENDBRANCH   5  35
INPUT-LIGAND-PDBQT: BRANCH   4  42
INPUT-LIGAND-PDBQT: ATOM     42  O   UNL d   1      -2.334   1.271   0.715  0.00  0.00    -0.278 OA
INPUT-LIGAND-PDBQT: BRANCH  42  43
INPUT-LIGAND-PDBQT: ATOM     43  P   UNL d   1      -3.625   1.654  -0.140  0.00  0.00     0.473 P 
INPUT-LIGAND-PDBQT: ATOM     44  O   UNL d   1      -4.208   0.598  -1.014  0.00  0.00    -0.228 OA
INPUT-LIGAND-PDBQT: BRANCH  43  45
INPUT-LIGAND-PDBQT: ATOM     45  O   UNL d   1      -4.625   2.208   0.967  0.00  0.00    -0.303 OA
INPUT-LIGAND-PDBQT: ATOM     46  H   UNL d   1      -4.983   1.485   1.520  0.00  0.00     0.222 HD
INPUT-LIGAND-PDBQT: ENDBRANCH  43  45
INPUT-LIGAND-PDBQT: BRANCH  43  47
INPUT-LIGAND-PDBQT: ATOM     47  O   UNL d   1      -3.184   3.003  -0.885  0.00  0.00    -0.303 OA
INPUT-LIGAND-PDBQT: ATOM     48  H   UNL d   1      -3.918   3.311  -1.456  0.00  0.00     0.222 HD
INPUT-LIGAND-PDBQT: ENDBRANCH  43  47
INPUT-LIGAND-PDBQT: ENDBRANCH  42  43
INPUT-LIGAND-PDBQT: ENDBRANCH   4  42
INPUT-LIGAND-PDBQT: TORSDOF 24
________________________________________________________________________________

Total charge on ligand                               =	-0.006 e
REMARK  24 active torsions:
REMARK  status: ('A' for Active; 'I' for Inactive)
REMARK    1  A    between atoms: C_1  and  O_7 
REMARK    2  A    between atoms: C_2  and  O_12 
REMARK    3  A    between atoms: C_3  and  O_17 
REMARK    4  A    between atoms: C_4  and  O_22 
REMARK    5  A    between atoms: C_5  and  O_27 
REMARK    6  A    between atoms: C_6  and  O_32 
REMARK    7  A    between atoms: O_7  and  P_8 
REMARK    8  A    between atoms: P_8  and  O_10 
REMARK    9  A    between atoms: P_8  and  O_11 
REMARK   10  A    between atoms: O_12  and  P_13 
REMARK   11  A    between atoms: P_13  and  O_15 
REMARK   12  A    between atoms: P_13  and  O_16 
REMARK   13  A    between atoms: O_17  and  P_18 
REMARK   14  A    between atoms: P_18  and  O_20 
REMARK   15  A    between atoms: P_18  and  O_21 
REMARK   16  A    between atoms: O_22  and  P_23 
REMARK   17  A    between atoms: P_23  and  O_25 
REMARK   18  A    between atoms: P_23  and  O_26 
REMARK   19  A    between atoms: O_27  and  P_28 
REMARK   20  A    between atoms: P_28  and  O_30 
REMARK   21  A    between atoms: P_28  and  O_31 
REMARK   22  A    between atoms: O_32  and  P_33 
REMARK   23  A    between atoms: P_33  and  O_35 
REMARK   24  A    between atoms: P_33  and  O_36 


Number of Rotatable Bonds in Small Molecule =	24 torsions
Number of atoms in ligand:  48

Number of non-hydrogen atoms in ligand:  36

Number of vibrational degrees of freedom of ligand:  138


Number of torsional degrees of freedom = 24
Estimated loss of torsional free energy upon binding = +7.1592 kcal/mol


DPF> about 0.035 0.082 -0.065            # small molecule center

Small molecule center of rotation =	(+0.035, +0.082, -0.065)

DPF> tran0 random                         # initial coordinates/A or random

Initial translation =			(-7.882, 3.931, -1.793) Angstroms
DPF> quaternion0 random                   # initial orientation

Each run will begin with a new, random initial orientation.
Initial quaternion,  (x,y,z,w) =	( -0.265, -0.907, -0.303, -0.126 ),
DPF> dihe0 random                         # initial dihedrals (relative) or random

DPF> torsdof 24                            # torsional degrees of freedom

Number of torsional degrees of freedom = 24
Free energy coefficient for torsional degrees of freedom = 0.2983, the factory default value.

Estimated loss of torsional free energy upon binding = +7.1592 kcal/mol

DPF> rmstol 2.0                           # cluster_tolerance/A

Maximum RMS tolerance for conformational cluster analysis = 2.00 Angstroms
DPF> extnrg 1000.0                        # external grid energy

External grid energy (beyond grid map walls) = 1000.00

DPF> e0max 0.0 10000                      # max initial energy; max number of retries

Using user-specified maximum number of retries for simanneal initialization, 10000 retries.
If the simanneal initial energy is greater than e0max, 0.000,
then a new, random initial state will be created.

DPF> ga_pop_size 150                      # number of individuals in population

A population of 150 individuals will be used
DPF> ga_num_evals 25000000                # maximum number of energy evaluations

There will be at most 25000000 function evaluations used.
DPF> ga_num_generations 27000             # maximum number of generations

The GA will run for at most 27000 generations.
DPF> ga_elitism 1                         # number of top individuals to survive to next generation

The 1 best will be preserved each GA generation.
DPF> ga_mutation_rate 0.02                # rate of gene mutation

The mutation rate is 0.020000.
DPF> ga_crossover_rate 0.8                # rate of crossover

The crossover rate is 0.800000.
DPF> ga_window_size 10                    # 

The GA's selection window is 10 generations.
DPF> ga_cauchy_alpha 0.0                  # Alpha parameter of Cauchy distribution

The alpha parameter (for the Cauchy distribution) is being set to 0.000000.
DPF> ga_cauchy_beta 1.0                   # Beta parameter Cauchy distribution

The beta parameter (for the Cauchy distribution) is being set to 1.000000.
DPF> set_ga                               # set the above parameters for GA or LGA

DPF> sw_max_its 300                       # iterations of Solis & Wets local search

Solis & Wets algorithms will perform at most 300 iterations.
DPF> sw_max_succ 4                        # consecutive successes before changing rho

Solis & Wets algorithms expand rho every 4 in a row successes.
DPF> sw_max_fail 4                        # consecutive failures before changing rho

Solis & Wets algorithms contract rho every 4 in a row failures.
DPF> sw_rho 1.0                           # size of local search space to sample

rho is set to 1.000000.
DPF> sw_lb_rho 0.01                       # lower bound on rho

rho will never get smaller than 0.010000.
DPF> ls_search_freq 0.06                  # probability of performing local search on individual

Local search will be performed with frequency 0.060000.
DPF> set_psw1                             # set the above pseudo-Solis & Wets parameters

Creating a new Local Search object using the pseudo-Solis-Wets algorithm (pSW1) with the current settings.

DPF> unbound_model bound                  # state of unbound ligand

DPF> ga_run 100                           # do this many hybrid GA-LS runs

centering ligand on specified point: 0.035 0.082 -0.065
Furthest true ligand atom from "about" center is 6.234 Angstroms (maxrad).
Number of requested GA dockings = 100 runs
Unbound model to be used is 'same as bound' [AutoDock 4.2 default].

	BEGINNING GENETIC ALGORITHM DOCKING 1 of 100
Run: 1 Seed: 895016400 1638030233 [ Run 1 of 100 GA/GALS ]
Beginning LAMARCKIAN GENETIC ALGORITHM (LGA), with a maximum of 25000000 energy evaluations.

Final-Value: -17.740


	FINAL GENETIC ALGORITHM DOCKED STATE
	_______________________________________________


Detailed state:  trans -7.841 -20.152 15.706 quatxyzw -0.685045 0.490153 -0.026783 0.538282 center 0.035 0.082 -0.065 ntor 24 -173.8427 67.2768 54.8546 77.8615 96.4916 116.3477 61.1302 4.6513 86.1963 74.3325 56.0853 110.2447 -61.8830 151.7287 -147.9779 -177.2845 -142.6158 -144.5944 11.8927 -14.4723 -44.3672 152.0234 141.5460 -55.0689
State:	 -7.841 -20.152  15.706  -0.813  0.582 -0.032 114.867   -173.84   67.28   54.85   77.86   96.49  116.35   61.13    4.65   86.20   74.33   56.09  110.24  -61.88  151.73 -147.98 -177.28 -142.62 -144.59   11.89  -14.47  -44.37  152.02  141.55  -55.07

DOCKED: MODEL        1
DOCKED: USER    Run = 1
DOCKED: USER    DPF = D:/Protein_go_brrr/autodock/final/1A3N/IHP/dock.dpf
DOCKED: USER  
DOCKED: USER    Estimated Free Energy of Binding    =   +2.49 kcal/mol  [=(1)+(2)+(3)-(4)]
DOCKED: USER    
DOCKED: USER    (1) Final Intermolecular Energy     =   -4.67 kcal/mol
DOCKED: USER        vdW + Hbond + desolv Energy     =   -4.36 kcal/mol
DOCKED: USER        Electrostatic Energy            =   -0.31 kcal/mol
DOCKED: USER    (2) Final Total Internal Energy     =  -13.07 kcal/mol
DOCKED: USER    (3) Torsional Free Energy           =   +7.16 kcal/mol
DOCKED: USER    (4) Unbound System's Energy  [=(2)] =  -13.07 kcal/mol
DOCKED: USER    
DOCKED: USER    
DOCKED: USER    NEWDPF move IHP_ideal_opt.pdbqt
DOCKED: USER    NEWDPF about 0.035000 0.082000 -0.065000
DOCKED: USER    NEWDPF tran0 -7.841298 -20.151768 15.706250
DOCKED: USER    NEWDPF quaternion0 -0.685045 0.490153 -0.026783 0.538282
DOCKED: USER    NEWDPF axisangle0 -0.812853 0.581601 -0.031779 114.866540
DOCKED: USER    NEWDPF quat0 -0.812853 0.581601 -0.031779 114.866540
DOCKED: USER    NEWDPF dihe0 -173.84 67.28 54.85 77.86 96.49 116.35 61.13 4.65 86.20 74.33 56.09 110.24 -61.88 151.73 -147.98 -177.28 -142.62 -144.59 11.89 -14.47 -44.37 152.02 141.55 -55.07 
DOCKED: USER  keepresnum = 1 
DOCKED: USER  
DOCKED: REMARK  24 active torsions:
DOCKED: REMARK  status: ('A' for Active; 'I' for Inactive)
DOCKED: REMARK    1  A    between atoms: C_1  and  O_7 
DOCKED: REMARK    2  A    between atoms: C_2  and  O_12 
DOCKED: REMARK    3  A    between atoms: C_3  and  O_17 
DOCKED: REMARK    4  A    between atoms: C_4  and  O_22 
DOCKED: REMARK    5  A    between atoms: C_5  and  O_27 
DOCKED: REMARK    6  A    between atoms: C_6  and  O_32 
DOCKED: REMARK    7  A    between atoms: O_7  and  P_8 
DOCKED: REMARK    8  A    between atoms: P_8  and  O_10 
DOCKED: REMARK    9  A    between atoms: P_8  and  O_11 
DOCKED: REMARK   10  A    between atoms: O_12  and  P_13 
DOCKED: REMARK   11  A    between atoms: P_13  and  O_15 
DOCKED: REMARK   12  A    between atoms: P_13  and  O_16 
DOCKED: REMARK   13  A    between atoms: O_17  and  P_18 
DOCKED: REMARK   14  A    between atoms: P_18  and  O_20 
DOCKED: REMARK   15  A    between atoms: P_18  and  O_21 
DOCKED: REMARK   16  A    between atoms: O_22  and  P_23 
DOCKED: REMARK   17  A    between atoms: P_23  and  O_25 
DOCKED: REMARK   18  A    between atoms: P_23  and  O_26 
DOCKED: REMARK   19  A    between atoms: O_27  and  P_28 
DOCKED: REMARK   20  A    between atoms: P_28  and  O_30 
DOCKED: REMARK   21  A    between atoms: P_28  and  O_31 
DOCKED: REMARK   22  A    between atoms: O_32  and  P_33 
DOCKED: REMARK   23  A    between atoms: P_33  and  O_35 
DOCKED: REMARK   24  A    between atoms: P_33  and  O_36 
DOCKED: USER                              x       y       z     vdW  Elec       q    Type
DOCKED: USER                           _______ _______ _______ _____ _____    ______ ____
DOCKED: ROOT
DOCKED: ATOM      1  C   UNL d   1      -6.959 -21.614  15.450 -0.03 -0.01    +0.194 C 
DOCKED: ATOM      2  C   UNL d   1      -6.861 -20.579  14.329 -0.08 -0.01    +0.194 C 
DOCKED: ATOM      3  C   UNL d   1      -8.220 -19.949  14.019 -0.05 -0.01    +0.194 C 
DOCKED: ATOM      4  C   UNL d   1      -8.922 -19.395  15.257 -0.05 -0.00    +0.194 C 
DOCKED: ATOM      5  C   UNL d   1      -8.942 -20.354  16.440 -0.03 -0.00    +0.194 C 
DOCKED: ATOM      6  C   UNL d   1      -7.597 -21.031  16.712 -0.04 +0.01    +0.194 C 
DOCKED: ENDROOT
DOCKED: BRANCH   1   7
DOCKED: ATOM      7  O   UNL d   1      -5.633 -22.026  15.795 -0.07 +0.06    -0.278 OA
DOCKED: BRANCH   7   8
DOCKED: ATOM      8  P   UNL d   1      -5.180 -23.512  15.426 -0.01 -0.17    +0.473 P 
DOCKED: ATOM      9  O   UNL d   1      -6.274 -24.410  14.966 -0.00 +0.04    -0.228 OA
DOCKED: BRANCH   8  10
DOCKED: ATOM     10  O   UNL d   1      -4.034 -23.308  14.335 -0.03 +0.24    -0.303 OA
DOCKED: ATOM     11  H   UNL d   1      -3.592 -22.452  14.482 -0.45 -0.40    +0.222 HD
DOCKED: ENDBRANCH   8  10
DOCKED: BRANCH   8  12
DOCKED: ATOM     12  O   UNL d   1      -4.354 -24.016  16.686 -0.04 +0.11    -0.303 OA
DOCKED: ATOM     13  H   UNL d   1      -4.568 -23.523  17.510 +0.02 -0.05    +0.222 HD
DOCKED: ENDBRANCH   8  12
DOCKED: ENDBRANCH   7   8
DOCKED: ENDBRANCH   1   7
DOCKED: BRANCH   2  14
DOCKED: ATOM     14  O   UNL d   1      -5.957 -19.541  14.729 -0.16 -0.02    -0.278 OA
DOCKED: BRANCH  14  15
DOCKED: ATOM     15  P   UNL d   1      -4.633 -19.366  13.846 -0.34 +0.01    +0.473 P 
DOCKED: ATOM     16  O   UNL d   1      -3.436 -18.790  14.537 -0.39 -0.07    -0.228 OA
DOCKED: BRANCH  15  17
DOCKED: ATOM     17  O   UNL d   1      -4.364 -20.821  13.257 -0.27 +0.12    -0.303 OA
DOCKED: ATOM     18  H   UNL d   1      -4.528 -21.509  13.930 -0.01 -0.14    +0.222 HD
DOCKED: ENDBRANCH  15  17
DOCKED: BRANCH  15  19
DOCKED: ATOM     19  O   UNL d   1      -5.120 -18.581  12.551 -0.82 -0.03    -0.303 OA
DOCKED: ATOM     20  H   UNL d   1      -5.980 -18.146  12.696 +0.09 -0.01    +0.222 HD
DOCKED: ENDBRANCH  15  19
DOCKED: ENDBRANCH  14  15
DOCKED: ENDBRANCH   2  14
DOCKED: BRANCH   6  21
DOCKED: ATOM     21  O   UNL d   1      -7.854 -22.121  17.593 -0.01 +0.00    -0.278 OA
DOCKED: BRANCH  21  22
DOCKED: ATOM     22  P   UNL d   1      -6.761 -22.538  18.678 +0.00 +0.00    +0.473 P 
DOCKED: ATOM     23  O   UNL d   1      -6.166 -23.903  18.591 -0.00 +0.01    -0.228 OA
DOCKED: BRANCH  22  24
DOCKED: ATOM     24  O   UNL d   1      -5.715 -21.344  18.560 -0.06 -0.05    -0.303 OA
DOCKED: ATOM     25  H   UNL d   1      -6.208 -20.527  18.294 +0.05 +0.06    +0.222 HD
DOCKED: ENDBRANCH  22  24
DOCKED: BRANCH  22  26
DOCKED: ATOM     26  O   UNL d   1      -7.513 -22.185  20.049 -0.01 -0.00    -0.303 OA
DOCKED: ATOM     27  H   UNL d   1      -7.760 -21.238  20.047 +0.04 +0.01    +0.222 HD
DOCKED: ENDBRANCH  22  26
DOCKED: ENDBRANCH  21  22
DOCKED: ENDBRANCH   6  21
DOCKED: BRANCH   3  28
DOCKED: ATOM     28  O   UNL d   1      -7.990 -18.824  13.181 -0.10 +0.03    -0.278 OA
DOCKED: BRANCH  28  29
DOCKED: ATOM     29  P   UNL d   1      -7.914 -17.359  13.803 -0.18 -0.04    +0.473 P 
DOCKED: ATOM     30  O   UNL d   1      -7.166 -16.360  12.998 -0.24 +0.05    -0.228 OA
DOCKED: BRANCH  29  31
DOCKED: ATOM     31  O   UNL d   1      -9.471 -17.078  14.045 -0.13 +0.06    -0.303 OA
DOCKED: ATOM     32  H   UNL d   1      -9.635 -17.035  15.015 -0.01 -0.03    +0.222 HD
DOCKED: ENDBRANCH  29  31
DOCKED: BRANCH  29  33
DOCKED: ATOM     33  O   UNL d   1      -7.377 -17.648  15.273 -0.17 -0.04    -0.303 OA
DOCKED: ATOM     34  H   UNL d   1      -6.469 -18.036  15.213 +0.10 +0.06    +0.222 HD
DOCKED: ENDBRANCH  29  33
DOCKED: ENDBRANCH  28  29
DOCKED: ENDBRANCH   3  28
DOCKED: BRANCH   5  35
DOCKED: ATOM     35  O   UNL d   1      -9.247 -19.554  17.581 -0.04 -0.00    -0.278 OA
DOCKED: BRANCH  35  36
DOCKED: ATOM     36  P   UNL d   1      -8.078 -18.839  18.398 -0.11 +0.06    +0.473 P 
DOCKED: ATOM     37  O   UNL d   1      -7.626 -19.550  19.633 -0.14 -0.02    -0.228 OA
DOCKED: BRANCH  36  38
DOCKED: ATOM     38  O   UNL d   1      -6.952 -18.680  17.284 -0.09 -0.11    -0.303 OA
DOCKED: ATOM     39  H   UNL d   1      -7.356 -18.808  16.398 +0.08 +0.05    +0.222 HD
DOCKED: ENDBRANCH  36  38
DOCKED: BRANCH  36  40
DOCKED: ATOM     40  O   UNL d   1      -8.646 -17.364  18.581 -0.23 -0.02    -0.303 OA
DOCKED: ATOM     41  H   UNL d   1      -9.625 -17.358  18.664 +0.06 -0.02    +0.222 HD
DOCKED: ENDBRANCH  36  40
DOCKED: ENDBRANCH  35  36
DOCKED: ENDBRANCH   5  35
DOCKED: BRANCH   4  42
DOCKED: ATOM     42  O   UNL d   1     -10.284 -19.154  14.888 -0.03 +0.02    -0.278 OA
DOCKED: BRANCH  42  43
DOCKED: ATOM     43  P   UNL d   1     -11.199 -18.269  15.850 -0.06 -0.03    +0.473 P 
DOCKED: ATOM     44  O   UNL d   1     -12.114 -18.987  16.780 -0.03 +0.01    -0.228 OA
DOCKED: BRANCH  43  45
DOCKED: ATOM     45  O   UNL d   1     -10.137 -17.332  16.577 -0.18 +0.01    -0.303 OA
DOCKED: ATOM     46  H   UNL d   1      -9.228 -17.682  16.484 +0.09 +0.00    +0.222 HD
DOCKED: ENDBRANCH  43  45
DOCKED: BRANCH  43  47
DOCKED: ATOM     47  O   UNL d   1     -11.904 -17.241  14.842 -0.07 +0.03    -0.303 OA
DOCKED: ATOM     48  H   UNL d   1     -11.238 -16.600  14.517 -0.16 -0.04    +0.222 HD
DOCKED: ENDBRANCH  43  47
DOCKED: ENDBRANCH  42  43
DOCKED: ENDBRANCH   4  42
DOCKED: TORSDOF 24
DOCKED: TER
DOCKED: ENDMDL
________________________________________________________________________________


	BEGINNING GENETIC ALGORITHM DOCKING 2 of 100
Run: 2 Seed: 397948029 1129593661 [ Run 2 of 100 GA/GALS ]
Beginning LAMARCKIAN GENETIC ALGORITHM (LGA), with a maximum of 25000000 energy evaluations.

Final-Value: -16.485


	FINAL GENETIC ALGORITHM DOCKED STATE
	_______________________________________________


Detailed state:  trans -3.842 -4.434 -13.645 quatxyzw 0.223004 -0.947136 -0.168172 -0.157866 center 0.035 0.082 -0.065 ntor 24 135.3536 75.9444 -15.1980 -29.9574 138.3409 97.1773 140.5999 -25.3291 6.5040 51.7183 102.3996 148.4770 144.9652 180.0000 90.4287 40.4693 -3.9395 120.8152 7.4648 -47.4996 -33.7467 -49.1915 174.0594 -4.0791
State:	 -3.842  -4.434 -13.645   0.226 -0.959 -0.170 -161.834    135.35   75.94  -15.20  -29.96  138.34   97.18  140.60  -25.33    6.50   51.72  102.40  148.48  144.97  180.00   90.43   40.47   -3.94  120.82    7.46  -47.50  -33.75  -49.19  174.06   -4.08

DOCKED: MODEL        2
DOCKED: USER    Run = 2
DOCKED: USER    DPF = D:/Protein_go_brrr/autodock/final/1A3N/IHP/dock.dpf
DOCKED: USER  
DOCKED: USER    Estimated Free Energy of Binding    =   +3.88 kcal/mol  [=(1)+(2)+(3)-(4)]
DOCKED: USER    
DOCKED: USER    (1) Final Intermolecular Energy     =   -3.28 kcal/mol
DOCKED: USER        vdW + Hbond + desolv Energy     =   -3.00 kcal/mol
DOCKED: USER        Electrostatic Energy            =   -0.29 kcal/mol
DOCKED: USER    (2) Final Total Internal Energy     =  -13.20 kcal/mol
DOCKED: USER    (3) Torsional Free Energy           =   +7.16 kcal/mol
DOCKED: USER    (4) Unbound System's Energy  [=(2)] =  -13.20 kcal/mol
DOCKED: USER    
DOCKED: USER    
DOCKED: USER    NEWDPF move IHP_ideal_opt.pdbqt
DOCKED: USER    NEWDPF about 0.035000 0.082000 -0.065000
DOCKED: USER    NEWDPF tran0 -3.842220 -4.433650 -13.645204
DOCKED: USER    NEWDPF quaternion0 0.223004 -0.947136 -0.168172 -0.157866
DOCKED: USER    NEWDPF axisangle0 0.225836 -0.959163 -0.170307 -161.833844
DOCKED: USER    NEWDPF quat0 0.225836 -0.959163 -0.170307 -161.833844
DOCKED: USER    NEWDPF dihe0 135.35 75.94 -15.20 -29.96 138.34 97.18 140.60 -25.33 6.50 51.72 102.40 148.48 144.97 180.00 90.43 40.47 -3.94 120.82 7.46 -47.50 -33.75 -49.19 174.06 -4.08 
DOCKED: USER  keepresnum = 1 
DOCKED: USER  
DOCKED: REMARK  24 active torsions:
DOCKED: REMARK  status: ('A' for Active; 'I' for Inactive)
DOCKED: REMARK    1  A    between atoms: C_1  and  O_7 
DOCKED: REMARK    2  A    between atoms: C_2  and  O_12 
DOCKED: REMARK    3  A    between atoms: C_3  and  O_17 
DOCKED: REMARK    4  A    between atoms: C_4  and  O_22 
DOCKED: REMARK    5  A    between atoms: C_5  and  O_27 
DOCKED: REMARK    6  A    between atoms: C_6  and  O_32 
DOCKED: REMARK    7  A    between atoms: O_7  and  P_8 
DOCKED: REMARK    8  A    between atoms: P_8  and  O_10 
DOCKED: REMARK    9  A    between atoms: P_8  and  O_11 
DOCKED: REMARK   10  A    between atoms: O_12  and  P_13 
DOCKED: REMARK   11  A    between atoms: P_13  and  O_15 
DOCKED: REMARK   12  A    between atoms: P_13  and  O_16 
DOCKED: REMARK   13  A    between atoms: O_17  and  P_18 
DOCKED: REMARK   14  A    between atoms: P_18  and  O_20 
DOCKED: REMARK   15  A    between atoms: P_18  and  O_21 
DOCKED: REMARK   16  A    between atoms: O_22  and  P_23 
DOCKED: REMARK   17  A    between atoms: P_23  and  O_25 
DOCKED: REMARK   18  A    between atoms: P_23  and  O_26 
DOCKED: REMARK   19  A    between atoms: O_27  and  P_28 
DOCKED: REMARK   20  A    between atoms: P_28  and  O_30 
DOCKED: REMARK   21  A    between atoms: P_28  and  O_31 
DOCKED: REMARK   22  A    between atoms: O_32  and  P_33 
DOCKED: REMARK   23  A    between atoms: P_33  and  O_35 
DOCKED: REMARK   24  A    between atoms: P_33  and  O_36 
DOCKED: USER                              x       y       z     vdW  Elec       q    Type
DOCKED: USER                           _______ _______ _______ _____ _____    ______ ____
DOCKED: ROOT
DOCKED: ATOM      1  C   UNL d   1      -4.876  -5.583 -14.417 -0.01 +0.07    +0.194 C 
DOCKED: ATOM      2  C   UNL d   1      -3.379  -5.759 -14.679 -0.00 +0.07    +0.194 C 
DOCKED: ATOM      3  C   UNL d   1      -2.690  -4.420 -14.950 -0.01 +0.09    +0.194 C 
DOCKED: ATOM      4  C   UNL d   1      -2.967  -3.373 -13.875 -0.09 +0.12    +0.194 C 
DOCKED: ATOM      5  C   UNL d   1      -4.438  -3.244 -13.499 -0.10 +0.11    +0.194 C 
DOCKED: ATOM      6  C   UNL d   1      -5.143  -4.586 -13.288 -0.04 +0.10    +0.194 C 
DOCKED: ENDROOT
DOCKED: BRANCH   1   7
DOCKED: ATOM      7  O   UNL d   1      -5.409  -6.844 -14.006 -0.00 -0.09    -0.278 OA
DOCKED: BRANCH   7   8
DOCKED: ATOM      8  P   UNL d   1      -6.480  -7.560 -14.951 +0.00 +0.10    +0.473 P 
DOCKED: ATOM      9  O   UNL d   1      -7.267  -8.645 -14.303 +0.00 -0.05    -0.228 OA
DOCKED: BRANCH   8  10
DOCKED: ATOM     10  O   UNL d   1      -7.385  -6.361 -15.487 +0.00 -0.06    -0.303 OA
DOCKED: ATOM     11  H   UNL d   1      -7.320  -5.604 -14.875 +0.01 +0.06    +0.222 HD
DOCKED: ENDBRANCH   8  10
DOCKED: BRANCH   8  12
DOCKED: ATOM     12  O   UNL d   1      -5.670  -7.973 -16.254 +0.00 -0.05    -0.303 OA
DOCKED: ATOM     13  H   UNL d   1      -4.724  -8.175 -16.072 +0.00 +0.04    +0.222 HD
DOCKED: ENDBRANCH   8  12
DOCKED: ENDBRANCH   7   8
DOCKED: ENDBRANCH   1   7
DOCKED: BRANCH   2  14
DOCKED: ATOM     14  O   UNL d   1      -2.772  -6.362 -13.530 -0.02 -0.15    -0.278 OA
DOCKED: BRANCH  14  15
DOCKED: ATOM     15  P   UNL d   1      -2.848  -7.959 -13.434 -0.01 +0.20    +0.473 P 
DOCKED: ATOM     16  O   UNL d   1      -3.457  -8.529 -12.192 -0.04 -0.12    -0.228 OA
DOCKED: BRANCH  15  17
DOCKED: ATOM     17  O   UNL d   1      -3.625  -8.389 -14.757 +0.00 -0.08    -0.303 OA
DOCKED: ATOM     18  H   UNL d   1      -4.512  -8.737 -14.546 +0.00 +0.05    +0.222 HD
DOCKED: ENDBRANCH  15  17
DOCKED: BRANCH  15  19
DOCKED: ATOM     19  O   UNL d   1      -1.369  -8.446 -13.760 -0.00 -0.10    -0.303 OA
DOCKED: ATOM     20  H   UNL d   1      -1.240  -8.595 -14.715 +0.00 +0.05    +0.222 HD
DOCKED: ENDBRANCH  15  19
DOCKED: ENDBRANCH  14  15
DOCKED: ENDBRANCH   2  14
DOCKED: BRANCH   6  21
DOCKED: ATOM     21  O   UNL d   1      -6.544  -4.319 -13.288 -0.02 -0.11    -0.278 OA
DOCKED: BRANCH  21  22
DOCKED: ATOM     22  P   UNL d   1      -7.480  -5.007 -12.195 -0.01 +0.20    +0.473 P 
DOCKED: ATOM     23  O   UNL d   1      -8.260  -4.124 -11.279 -0.06 -0.11    -0.228 OA
DOCKED: BRANCH  22  24
DOCKED: ATOM     24  O   UNL d   1      -8.362  -5.985 -13.089 -0.00 -0.10    -0.303 OA
DOCKED: ATOM     25  H   UNL d   1      -7.785  -6.735 -13.385 +0.01 +0.07    +0.222 HD
DOCKED: ENDBRANCH  22  24
DOCKED: BRANCH  22  26
DOCKED: ATOM     26  O   UNL d   1      -6.464  -6.027 -11.491 -0.05 -0.17    -0.303 OA
DOCKED: ATOM     27  H   UNL d   1      -6.334  -6.804 -12.072 +0.03 +0.11    +0.222 HD
DOCKED: ENDBRANCH  22  26
DOCKED: ENDBRANCH  21  22
DOCKED: ENDBRANCH   6  21
DOCKED: BRANCH   3  28
DOCKED: ATOM     28  O   UNL d   1      -1.286  -4.645 -14.905 -0.00 -0.11    -0.278 OA
DOCKED: BRANCH  28  29
DOCKED: ATOM     29  P   UNL d   1      -0.598  -5.647 -15.934 +0.02 +0.13    +0.473 P 
DOCKED: ATOM     30  O   UNL d   1      -1.430  -6.036 -17.102 +0.00 -0.05    -0.228 OA
DOCKED: BRANCH  29  31
DOCKED: ATOM     31  O   UNL d   1       0.754  -4.847 -16.240 +0.00 -0.08    -0.303 OA
DOCKED: ATOM     32  H   UNL d   1       1.194  -5.261 -17.018 +0.00 +0.04    +0.222 HD
DOCKED: ENDBRANCH  29  31
DOCKED: BRANCH  29  33
DOCKED: ATOM     33  O   UNL d   1      -0.104  -6.820 -14.978 +0.00 -0.08    -0.303 OA
DOCKED: ATOM     34  H   UNL d   1      -0.750  -6.924 -14.237 +0.01 +0.08    +0.222 HD
DOCKED: ENDBRANCH  29  33
DOCKED: ENDBRANCH  28  29
DOCKED: ENDBRANCH   3  28
DOCKED: BRANCH   5  35
DOCKED: ATOM     35  O   UNL d   1      -4.459  -2.558 -12.248 -0.19 -0.19    -0.278 OA
DOCKED: BRANCH  35  36
DOCKED: ATOM     36  P   UNL d   1      -3.636  -3.126 -11.005 -0.24 +0.50    +0.473 P 
DOCKED: ATOM     37  O   UNL d   1      -2.281  -3.671 -11.324 -0.31 -0.29    -0.228 OA
DOCKED: BRANCH  36  38
DOCKED: ATOM     38  O   UNL d   1      -3.624  -1.872 -10.023 -0.45 -0.20    -0.303 OA
DOCKED: ATOM     39  H   UNL d   1      -3.131  -1.137 -10.447 +0.03 +0.13    +0.222 HD
DOCKED: ENDBRANCH  36  38
DOCKED: BRANCH  36  40
DOCKED: ATOM     40  O   UNL d   1      -4.677  -4.125 -10.337 -0.66 -0.41    -0.303 OA
DOCKED: ATOM     41  H   UNL d   1      -5.463  -4.269 -10.909 +0.10 +0.19    +0.222 HD
DOCKED: ENDBRANCH  36  40
DOCKED: ENDBRANCH  35  36
DOCKED: ENDBRANCH   5  35
DOCKED: BRANCH   4  42
DOCKED: ATOM     42  O   UNL d   1      -2.558  -2.110 -14.410 -0.13 -0.23    -0.278 OA
DOCKED: BRANCH  42  43
DOCKED: ATOM     43  P   UNL d   1      -1.342  -1.339 -13.724 -0.21 +0.39    +0.473 P 
DOCKED: ATOM     44  O   UNL d   1      -0.743  -0.198 -14.471 -0.41 -0.27    -0.228 OA
DOCKED: BRANCH  43  45
DOCKED: ATOM     45  O   UNL d   1      -1.938  -0.944 -12.302 -0.22 -0.22    -0.303 OA
DOCKED: ATOM     46  H   UNL d   1      -2.610  -1.589 -12.004 +0.11 +0.16    +0.222 HD
DOCKED: ENDBRANCH  43  45
DOCKED: BRANCH  43  47
DOCKED: ATOM     47  O   UNL d   1      -0.331  -2.520 -13.336 -0.14 -0.16    -0.303 OA
DOCKED: ATOM     48  H   UNL d   1      -0.844  -3.325 -13.116 +0.07 +0.13    +0.222 HD
DOCKED: ENDBRANCH  43  47
DOCKED: ENDBRANCH  42  43
DOCKED: ENDBRANCH   4  42
DOCKED: TORSDOF 24
DOCKED: TER
DOCKED: ENDMDL
________________________________________________________________________________


	BEGINNING GENETIC ALGORITHM DOCKING 3 of 100
Run: 3 Seed: 623546310 1170805027 [ Run 3 of 100 GA/GALS ]
Beginning LAMARCKIAN GENETIC ALGORITHM (LGA), with a maximum of 25000000 energy evaluations.

Final-Value: -17.526


	FINAL GENETIC ALGORITHM DOCKED STATE
	_______________________________________________


Detailed state:  trans 12.628 -2.551 -10.675 quatxyzw 0.148155 0.792003 0.483125 0.342597 center 0.035 0.082 -0.065 ntor 24 115.3338 66.7172 -137.4806 143.5167 8.4689 -153.5676 -21.1167 -162.5787 105.3027 127.8775 157.6258 -86.5465 173.7470 -21.0310 -38.3099 147.4053 -175.2419 112.7808 22.4491 -32.8816 167.2924 -44.9637 -0.3794 145.3211
State:	 12.628  -2.551 -10.675   0.158  0.843  0.514 139.930    115.33   66.72 -137.48  143.52    8.47 -153.57  -21.12 -162.58  105.30  127.88  157.63  -86.55  173.75  -21.03  -38.31  147.41 -175.24  112.78   22.45  -32.88  167.29  -44.96   -0.38  145.32

DOCKED: MODEL        3
DOCKED: USER    Run = 3
DOCKED: USER    DPF = D:/Protein_go_brrr/autodock/final/1A3N/IHP/dock.dpf
DOCKED: USER  
DOCKED: USER    Estimated Free Energy of Binding    =   +1.82 kcal/mol  [=(1)+(2)+(3)-(4)]
DOCKED: USER    
DOCKED: USER    (1) Final Intermolecular Energy     =   -5.34 kcal/mol
DOCKED: USER        vdW + Hbond + desolv Energy     =   -5.17 kcal/mol
DOCKED: USER        Electrostatic Energy            =   -0.16 kcal/mol
DOCKED: USER    (2) Final Total Internal Energy     =  -12.19 kcal/mol
DOCKED: USER    (3) Torsional Free Energy           =   +7.16 kcal/mol
DOCKED: USER    (4) Unbound System's Energy  [=(2)] =  -12.19 kcal/mol
DOCKED: USER    
DOCKED: USER    
DOCKED: USER    NEWDPF move IHP_ideal_opt.pdbqt
DOCKED: USER    NEWDPF about 0.035000 0.082000 -0.065000
DOCKED: USER    NEWDPF tran0 12.627518 -2.551159 -10.675457
DOCKED: USER    NEWDPF quaternion0 0.148155 0.792003 0.483125 0.342597
DOCKED: USER    NEWDPF axisangle0 0.157698 0.843020 0.514245 139.929633
DOCKED: USER    NEWDPF quat0 0.157698 0.843020 0.514245 139.929633
DOCKED: USER    NEWDPF dihe0 115.33 66.72 -137.48 143.52 8.47 -153.57 -21.12 -162.58 105.30 127.88 157.63 -86.55 173.75 -21.03 -38.31 147.41 -175.24 112.78 22.45 -32.88 167.29 -44.96 -0.38 145.32 
DOCKED: USER  keepresnum = 1 
DOCKED: USER  
DOCKED: REMARK  24 active torsions:
DOCKED: REMARK  status: ('A' for Active; 'I' for Inactive)
DOCKED: REMARK    1  A    between atoms: C_1  and  O_7 
DOCKED: REMARK    2  A    between atoms: C_2  and  O_12 
DOCKED: REMARK    3  A    between atoms: C_3  and  O_17 
DOCKED: REMARK    4  A    between atoms: C_4  and  O_22 
DOCKED: REMARK    5  A    between atoms: C_5  and  O_27 
DOCKED: REMARK    6  A    between atoms: C_6  and  O_32 
DOCKED: REMARK    7  A    between atoms: O_7  and  P_8 
DOCKED: REMARK    8  A    between atoms: P_8  and  O_10 
DOCKED: REMARK    9  A    between atoms: P_8  and  O_11 
DOCKED: REMARK   10  A    between atoms: O_12  and  P_13 
DOCKED: REMARK   11  A    between atoms: P_13  and  O_15 
DOCKED: REMARK   12  A    between atoms: P_13  and  O_16 
DOCKED: REMARK   13  A    between atoms: O_17  and  P_18 
DOCKED: REMARK   14  A    between atoms: P_18  and  O_20 
DOCKED: REMARK   15  A    between atoms: P_18  and  O_21 
DOCKED: REMARK   16  A    between atoms: O_22  and  P_23 
DOCKED: REMARK   17  A    between atoms: P_23  and  O_25 
DOCKED: REMARK   18  A    between atoms: P_23  and  O_26 
DOCKED: REMARK   19  A    between atoms: O_27  and  P_28 
DOCKED: REMARK   20  A    between atoms: P_28  and  O_30 
DOCKED: REMARK   21  A    between atoms: P_28  and  O_31 
DOCKED: REMARK   22  A    between atoms: O_32  and  P_33 
DOCKED: REMARK   23  A    between atoms: P_33  and  O_35 
DOCKED: REMARK   24  A    between atoms: P_33  and  O_36 
DOCKED: USER                              x       y       z     vdW  Elec       q    Type
DOCKED: USER                           _______ _______ _______ _____ _____    ______ ____
DOCKED: ROOT
DOCKED: ATOM      1  C   UNL d   1      10.905  -2.421 -10.642 -0.12 +0.00    +0.194 C 
DOCKED: ATOM      2  C   UNL d   1      11.498  -3.014 -11.921 -0.08 +0.00    +0.194 C 
DOCKED: ATOM      3  C   UNL d   1      12.734  -2.239 -12.385 -0.05 +0.01    +0.194 C 
DOCKED: ATOM      4  C   UNL d   1      13.782  -2.067 -11.289 -0.12 +0.02    +0.194 C 
DOCKED: ATOM      5  C   UNL d   1      13.216  -1.586  -9.959 -0.16 +0.03    +0.194 C 
DOCKED: ATOM      6  C   UNL d   1      11.945  -2.320  -9.525 -0.23 +0.01    +0.194 C 
DOCKED: ENDROOT
DOCKED: BRANCH   1   7
DOCKED: ATOM      7  O   UNL d   1       9.871  -3.294 -10.183 -0.16 +0.02    -0.278 OA
DOCKED: BRANCH   7   8
DOCKED: ATOM      8  P   UNL d   1       8.354  -2.908 -10.502 -0.09 -0.01    +0.473 P 
DOCKED: ATOM      9  O   UNL d   1       7.414  -3.047  -9.357 -0.23 +0.01    -0.228 OA
DOCKED: BRANCH   8  10
DOCKED: ATOM     10  O   UNL d   1       8.444  -1.418 -11.063 -0.07 -0.00    -0.303 OA
DOCKED: ATOM     11  H   UNL d   1       9.070  -0.902 -10.522 +0.10 +0.00    +0.222 HD
DOCKED: ENDBRANCH   8  10
DOCKED: BRANCH   8  12
DOCKED: ATOM     12  O   UNL d   1       7.984  -3.734 -11.808 -0.04 -0.01    -0.303 OA
DOCKED: ATOM     13  H   UNL d   1       8.565  -4.515 -11.948 +0.06 -0.00    +0.222 HD
DOCKED: ENDBRANCH   8  12
DOCKED: ENDBRANCH   7   8
DOCKED: ENDBRANCH   1   7
DOCKED: BRANCH   2  14
DOCKED: ATOM     14  O   UNL d   1      11.878  -4.373 -11.673 -0.13 +0.00    -0.278 OA
DOCKED: BRANCH  14  15
DOCKED: ATOM     15  P   UNL d   1      10.848  -5.502 -12.151 -0.11 -0.04    +0.473 P 
DOCKED: ATOM     16  O   UNL d   1      10.077  -5.223 -13.403 -0.04 -0.00    -0.228 OA
DOCKED: BRANCH  15  17
DOCKED: ATOM     17  O   UNL d   1      11.738  -6.820 -12.255 -0.19 +0.03    -0.303 OA
DOCKED: ATOM     18  H   UNL d   1      11.345  -7.551 -11.740 -0.49 -0.08    +0.222 HD
DOCKED: ENDBRANCH  15  17
DOCKED: BRANCH  15  19
DOCKED: ATOM     19  O   UNL d   1       9.971  -5.811 -10.860 -0.10 +0.08    -0.303 OA
DOCKED: ATOM     20  H   UNL d   1       9.237  -5.176 -10.763 +0.05 -0.02    +0.222 HD
DOCKED: ENDBRANCH  15  19
DOCKED: ENDBRANCH  14  15
DOCKED: ENDBRANCH   2  14
DOCKED: BRANCH   6  21
DOCKED: ATOM     21  O   UNL d   1      11.361  -1.548  -8.478 -0.23 -0.02    -0.278 OA
DOCKED: BRANCH  21  22
DOCKED: ATOM     22  P   UNL d   1      10.811  -0.082  -8.787 -0.19 +0.08    +0.473 P 
DOCKED: ATOM     23  O   UNL d   1      11.093   0.508 -10.127 -0.11 -0.02    -0.228 OA
DOCKED: BRANCH  22  24
DOCKED: ATOM     24  O   UNL d   1       9.266  -0.234  -8.436 -0.26 -0.02    -0.303 OA
DOCKED: ATOM     25  H   UNL d   1       8.893  -0.961  -8.996 +0.12 +0.00    +0.222 HD
DOCKED: ENDBRANCH  22  24
DOCKED: BRANCH  22  26
DOCKED: ATOM     26  O   UNL d   1      11.358   0.743  -7.526 -0.18 -0.20    -0.303 OA
DOCKED: ATOM     27  H   UNL d   1      12.213   0.363  -7.239 +0.15 +0.22    +0.222 HD
DOCKED: ENDBRANCH  22  26
DOCKED: ENDBRANCH  21  22
DOCKED: ENDBRANCH   6  21
DOCKED: BRANCH   3  28
DOCKED: ATOM     28  O   UNL d   1      13.368  -3.011 -13.396 -0.03 -0.01    -0.278 OA
DOCKED: BRANCH  28  29
DOCKED: ATOM     29  P   UNL d   1      12.639  -3.269 -14.788 +0.00 +0.02    +0.473 P 
DOCKED: ATOM     30  O   UNL d   1      13.370  -2.798 -15.992 -0.00 -0.01    -0.228 OA
DOCKED: BRANCH  29  31
DOCKED: ATOM     31  O   UNL d   1      12.366  -4.842 -14.673 -0.01 -0.01    -0.303 OA
DOCKED: ATOM     32  H   UNL d   1      12.243  -5.071 -13.723 +0.04 +0.01    +0.222 HD
DOCKED: ENDBRANCH  29  31
DOCKED: BRANCH  29  33
DOCKED: ATOM     33  O   UNL d   1      11.198  -2.643 -14.531 -0.00 -0.01    -0.303 OA
DOCKED: ATOM     34  H   UNL d   1      10.552  -3.375 -14.378 +0.01 +0.01    +0.222 HD
DOCKED: ENDBRANCH  29  33
DOCKED: ENDBRANCH  28  29
DOCKED: ENDBRANCH   3  28
DOCKED: BRANCH   5  35
DOCKED: ATOM     35  O   UNL d   1      14.219  -1.873  -8.985 -0.22 -0.05    -0.278 OA
DOCKED: BRANCH  35  36
DOCKED: ATOM     36  P   UNL d   1      14.692  -0.744  -7.962 -0.25 +0.18    +0.473 P 
DOCKED: ATOM     37  O   UNL d   1      16.172  -0.564  -7.839 -0.44 -0.06    -0.228 OA
DOCKED: BRANCH  36  38
DOCKED: ATOM     38  O   UNL d   1      13.920   0.537  -8.509 -0.22 -0.19    -0.303 OA
DOCKED: ATOM     39  H   UNL d   1      13.043   0.261  -8.852 +0.12 +0.09    +0.222 HD
DOCKED: ENDBRANCH  36  38
DOCKED: BRANCH  36  40
DOCKED: ATOM     40  O   UNL d   1      13.899  -1.132  -6.638 -0.92 -0.17    -0.303 OA
DOCKED: ATOM     41  H   UNL d   1      14.388  -1.796  -6.103 -0.31 -0.04    +0.222 HD
DOCKED: ENDBRANCH  36  40
DOCKED: ENDBRANCH  35  36
DOCKED: ENDBRANCH   5  35
DOCKED: BRANCH   4  42
DOCKED: ATOM     42  O   UNL d   1      14.697  -1.065 -11.744 -0.08 -0.03    -0.278 OA
DOCKED: BRANCH  42  43
DOCKED: ATOM     43  P   UNL d   1      14.144   0.139 -12.631 +0.01 +0.04    +0.473 P 
DOCKED: ATOM     44  O   UNL d   1      14.957   1.386 -12.681 -0.02 -0.03    -0.228 OA
DOCKED: BRANCH  43  45
DOCKED: ATOM     45  O   UNL d   1      13.917  -0.547 -14.049 -0.01 -0.02    -0.303 OA
DOCKED: ATOM     46  H   UNL d   1      13.047  -0.990 -14.097 +0.02 +0.01    +0.222 HD
DOCKED: ENDBRANCH  43  45
DOCKED: BRANCH  43  47
DOCKED: ATOM     47  O   UNL d   1      12.638   0.315 -12.110 -0.00 -0.03    -0.303 OA
DOCKED: ATOM     48  H   UNL d   1      12.620   0.983 -11.394 +0.05 +0.03    +0.222 HD
DOCKED: ENDBRANCH  43  47
DOCKED: ENDBRANCH  42  43
DOCKED: ENDBRANCH   4  42
DOCKED: TORSDOF 24
DOCKED: TER
DOCKED: ENDMDL
________________________________________________________________________________


	BEGINNING GENETIC ALGORITHM DOCKING 4 of 100
Run: 4 Seed: 230718975 1475584511 [ Run 4 of 100 GA/GALS ]
Beginning LAMARCKIAN GENETIC ALGORITHM (LGA), with a maximum of 25000000 energy evaluations.

Final-Value: -17.033


	FINAL GENETIC ALGORITHM DOCKED STATE
	_______________________________________________


Detailed state:  trans 36.812 -16.952 5.433 quatxyzw 0.447371 -0.502196 0.707765 -0.216165 center 0.035 0.082 -0.065 ntor 24 84.3587 50.5086 148.2095 -6.9352 21.5386 124.9631 -101.5097 11.9201 -6.0471 33.3297 104.2198 -155.8655 151.3098 180.0000 -68.0619 -173.7144 -129.8621 146.7326 52.3206 13.6102 -180.0000 22.7317 151.3485 -12.2903
State:	 36.812 -16.952   5.433   0.458 -0.514  0.725 -155.032     84.36   50.51  148.21   -6.94   21.54  124.96 -101.51   11.92   -6.05   33.33  104.22 -155.87  151.31  180.00  -68.06 -173.71 -129.86  146.73   52.32   13.61 -180.00   22.73  151.35  -12.29

DOCKED: MODEL        4
DOCKED: USER    Run = 4
DOCKED: USER    DPF = D:/Protein_go_brrr/autodock/final/1A3N/IHP/dock.dpf
DOCKED: USER  
DOCKED: USER    Estimated Free Energy of Binding    =   +3.89 kcal/mol  [=(1)+(2)+(3)-(4)]
DOCKED: USER    
DOCKED: USER    (1) Final Intermolecular Energy     =   -3.27 kcal/mol
DOCKED: USER        vdW + Hbond + desolv Energy     =   -3.25 kcal/mol
DOCKED: USER        Electrostatic Energy            =   -0.02 kcal/mol
DOCKED: USER    (2) Final Total Internal Energy     =  -13.76 kcal/mol
DOCKED: USER    (3) Torsional Free Energy           =   +7.16 kcal/mol
DOCKED: USER    (4) Unbound System's Energy  [=(2)] =  -13.76 kcal/mol
DOCKED: USER    
DOCKED: USER    
DOCKED: USER    NEWDPF move IHP_ideal_opt.pdbqt
DOCKED: USER    NEWDPF about 0.035000 0.082000 -0.065000
DOCKED: USER    NEWDPF tran0 36.811678 -16.951654 5.433437
DOCKED: USER    NEWDPF quaternion0 0.447371 -0.502196 0.707765 -0.216165
DOCKED: USER    NEWDPF axisangle0 0.458204 -0.514357 0.724904 -155.032259
DOCKED: USER    NEWDPF quat0 0.458204 -0.514357 0.724904 -155.032259
DOCKED: USER    NEWDPF dihe0 84.36 50.51 148.21 -6.94 21.54 124.96 -101.51 11.92 -6.05 33.33 104.22 -155.87 151.31 180.00 -68.06 -173.71 -129.86 146.73 52.32 13.61 -180.00 22.73 151.35 -12.29 
DOCKED: USER  keepresnum = 1 
DOCKED: USER  
DOCKED: REMARK  24 active torsions:
DOCKED: REMARK  status: ('A' for Active; 'I' for Inactive)
DOCKED: REMARK    1  A    between atoms: C_1  and  O_7 
DOCKED: REMARK    2  A    between atoms: C_2  and  O_12 
DOCKED: REMARK    3  A    between atoms: C_3  and  O_17 
DOCKED: REMARK    4  A    between atoms: C_4  and  O_22 
DOCKED: REMARK    5  A    between atoms: C_5  and  O_27 
DOCKED: REMARK    6  A    between atoms: C_6  and  O_32 
DOCKED: REMARK    7  A    between atoms: O_7  and  P_8 
DOCKED: REMARK    8  A    between atoms: P_8  and  O_10 
DOCKED: REMARK    9  A    between atoms: P_8  and  O_11 
DOCKED: REMARK   10  A    between atoms: O_12  and  P_13 
DOCKED: REMARK   11  A    between atoms: P_13  and  O_15 
DOCKED: REMARK   12  A    between atoms: P_13  and  O_16 
DOCKED: REMARK   13  A    between atoms: O_17  and  P_18 
DOCKED: REMARK   14  A    between atoms: P_18  and  O_20 
DOCKED: REMARK   15  A    between atoms: P_18  and  O_21 
DOCKED: REMARK   16  A    between atoms: O_22  and  P_23 
DOCKED: REMARK   17  A    between atoms: P_23  and  O_25 
DOCKED: REMARK   18  A    between atoms: P_23  and  O_26 
DOCKED: REMARK   19  A    between atoms: O_27  and  P_28 
DOCKED: REMARK   20  A    between atoms: P_28  and  O_30 
DOCKED: REMARK   21  A    between atoms: P_28  and  O_31 
DOCKED: REMARK   22  A    between atoms: O_32  and  P_33 
DOCKED: REMARK   23  A    between atoms: P_33  and  O_35 
DOCKED: REMARK   24  A    between atoms: P_33  and  O_36 
DOCKED: USER                              x       y       z     vdW  Elec       q    Type
DOCKED: USER                           _______ _______ _______ _____ _____    ______ ____
DOCKED: ROOT
DOCKED: ATOM      1  C   UNL d   1      37.177 -17.489   7.034 -0.10 -0.01    +0.194 C 
DOCKED: ATOM      2  C   UNL d   1      38.263 -16.654   6.353 -0.05 -0.01    +0.194 C 
DOCKED: ATOM      3  C   UNL d   1      38.463 -17.065   4.893 -0.02 -0.01    +0.194 C 
DOCKED: ATOM      4  C   UNL d   1      37.164 -17.087   4.091 -0.03 -0.01    +0.194 C 
DOCKED: ATOM      5  C   UNL d   1      36.018 -17.813   4.785 -0.06 -0.01    +0.194 C 
DOCKED: ATOM      6  C   UNL d   1      35.858 -17.447   6.262 -0.13 -0.01    +0.194 C 
DOCKED: ENDROOT
DOCKED: BRANCH   1   7
DOCKED: ATOM      7  O   UNL d   1      36.932 -16.934   8.328 -0.14 +0.01    -0.278 OA
DOCKED: BRANCH   7   8
DOCKED: ATOM      8  P   UNL d   1      38.060 -17.093   9.448 -0.14 -0.03    +0.473 P 
DOCKED: ATOM      9  O   UNL d   1      37.574 -16.994  10.852 -0.32 +0.02    -0.228 OA
DOCKED: BRANCH   8  10
DOCKED: ATOM     10  O   UNL d   1      38.739 -18.498   9.117 -0.08 +0.01    -0.303 OA
DOCKED: ATOM     11  H   UNL d   1      38.137 -19.221   9.372 +0.07 -0.00    +0.222 HD
DOCKED: ENDBRANCH   8  10
DOCKED: BRANCH   8  12
DOCKED: ATOM     12  O   UNL d   1      39.200 -16.066   9.035 -0.09 +0.04    -0.303 OA
DOCKED: ATOM     13  H   UNL d   1      38.955 -15.508   8.263 +0.09 -0.03    +0.222 HD
DOCKED: ENDBRANCH   8  12
DOCKED: ENDBRANCH   7   8
DOCKED: ENDBRANCH   1   7
DOCKED: BRANCH   2  14
DOCKED: ATOM     14  O   UNL d   1      37.881 -15.273   6.391 -0.10 +0.02    -0.278 OA
DOCKED: BRANCH  14  15
DOCKED: ATOM     15  P   UNL d   1      39.064 -14.207   6.563 -0.13 -0.05    +0.473 P 
DOCKED: ATOM     16  O   UNL d   1      38.949 -13.255   7.711 -0.27 +0.07    -0.228 OA
DOCKED: BRANCH  15  17
DOCKED: ATOM     17  O   UNL d   1      40.382 -15.099   6.630 -0.04 +0.02    -0.303 OA
DOCKED: ATOM     18  H   UNL d   1      40.431 -15.712   5.871 +0.03 -0.01    +0.222 HD
DOCKED: ENDBRANCH  15  17
DOCKED: BRANCH  15  19
DOCKED: ATOM     19  O   UNL d   1      39.205 -13.536   5.127 -0.09 +0.01    -0.303 OA
DOCKED: ATOM     20  H   UNL d   1      39.526 -14.173   4.462 +0.05 -0.00    +0.222 HD
DOCKED: ENDBRANCH  15  19
DOCKED: ENDBRANCH  14  15
DOCKED: ENDBRANCH   2  14
DOCKED: BRANCH   6  21
DOCKED: ATOM     21  O   UNL d   1      35.003 -18.432   6.840 -0.17 +0.02    -0.278 OA
DOCKED: BRANCH  21  22
DOCKED: ATOM     22  P   UNL d   1      35.587 -19.871   7.204 -0.16 -0.04    +0.473 P 
DOCKED: ATOM     23  O   UNL d   1      36.584 -20.482   6.277 -0.06 +0.02    -0.228 OA
DOCKED: BRANCH  22  24
DOCKED: ATOM     24  O   UNL d   1      36.109 -19.645   8.690 -0.19 +0.01    -0.303 OA
DOCKED: ATOM     25  H   UNL d   1      36.596 -18.783   8.718 +0.09 -0.00    +0.222 HD
DOCKED: ENDBRANCH  22  24
DOCKED: BRANCH  22  26
DOCKED: ATOM     26  O   UNL d   1      34.245 -20.714   7.448 -0.24 +0.05    -0.303 OA
DOCKED: ATOM     27  H   UNL d   1      33.658 -20.216   8.052 -0.47 -0.11    +0.222 HD
DOCKED: ENDBRANCH  22  26
DOCKED: ENDBRANCH  21  22
DOCKED: ENDBRANCH   6  21
DOCKED: BRANCH   3  28
DOCKED: ATOM     28  O   UNL d   1      39.271 -16.071   4.275 -0.01 +0.01    -0.278 OA
DOCKED: BRANCH  28  29
DOCKED: ATOM     29  P   UNL d   1      40.509 -16.493   3.366 +0.00 -0.01    +0.473 P 
DOCKED: ATOM     30  O   UNL d   1      40.995 -15.452   2.424 -0.00 +0.00    -0.228 OA
DOCKED: BRANCH  29  31
DOCKED: ATOM     31  O   UNL d   1      41.530 -16.984   4.496 +0.00 +0.00    -0.303 OA
DOCKED: ATOM     32  H   UNL d   1      41.586 -16.289   5.193 +0.02 -0.00    +0.222 HD
DOCKED: ENDBRANCH  29  31
DOCKED: BRANCH  29  33
DOCKED: ATOM     33  O   UNL d   1      40.005 -17.862   2.729 +0.00 +0.01    -0.303 OA
DOCKED: ATOM     34  H   UNL d   1      39.293 -17.667   2.072 +0.00 -0.01    +0.222 HD
DOCKED: ENDBRANCH  29  33
DOCKED: ENDBRANCH  28  29
DOCKED: ENDBRANCH   3  28
DOCKED: BRANCH   5  35
DOCKED: ATOM     35  O   UNL d   1      34.831 -17.391   4.117 -0.05 +0.03    -0.278 OA
DOCKED: BRANCH  35  36
DOCKED: ATOM     36  P   UNL d   1      34.193 -15.964   4.434 -0.10 -0.03    +0.473 P 
DOCKED: ATOM     37  O   UNL d   1      33.267 -15.918   5.608 -0.26 +0.02    -0.228 OA
DOCKED: BRANCH  36  38
DOCKED: ATOM     38  O   UNL d   1      35.490 -15.054   4.587 -0.19 -0.01    -0.303 OA
DOCKED: ATOM     39  H   UNL d   1      35.906 -15.231   5.458 +0.09 -0.00    +0.222 HD
DOCKED: ENDBRANCH  36  38
DOCKED: BRANCH  36  40
DOCKED: ATOM     40  O   UNL d   1      33.592 -15.540   3.024 -0.06 +0.01    -0.303 OA
DOCKED: ATOM     41  H   UNL d   1      33.864 -16.160   2.311 +0.05 -0.02    +0.222 HD
DOCKED: ENDBRANCH  36  40
DOCKED: ENDBRANCH  35  36
DOCKED: ENDBRANCH   5  35
DOCKED: BRANCH   4  42
DOCKED: ATOM     42  O   UNL d   1      37.438 -17.796   2.878 -0.01 +0.02    -0.278 OA
DOCKED: BRANCH  42  43
DOCKED: ATOM     43  P   UNL d   1      37.159 -17.073   1.483 +0.00 -0.03    +0.473 P 
DOCKED: ATOM     44  O   UNL d   1      37.179 -17.917   0.256 -0.00 +0.02    -0.228 OA
DOCKED: BRANCH  43  45
DOCKED: ATOM     45  O   UNL d   1      35.773 -16.336   1.743 -0.02 +0.02    -0.303 OA
DOCKED: ATOM     46  H   UNL d   1      35.679 -16.069   2.679 +0.04 -0.01    +0.222 HD
DOCKED: ENDBRANCH  43  45
DOCKED: BRANCH  43  47
DOCKED: ATOM     47  O   UNL d   1      38.189 -15.845   1.495 -0.01 +0.01    -0.303 OA
DOCKED: ATOM     48  H   UNL d   1      38.928 -16.049   2.105 +0.01 -0.01    +0.222 HD
DOCKED: ENDBRANCH  43  47
DOCKED: ENDBRANCH  42  43
DOCKED: ENDBRANCH   4  42
DOCKED: TORSDOF 24
DOCKED: TER
DOCKED: ENDMDL
________________________________________________________________________________


	BEGINNING GENETIC ALGORITHM DOCKING 5 of 100
Run: 5 Seed: 769087581 1812510335 [ Run 5 of 100 GA/GALS ]
Beginning LAMARCKIAN GENETIC ALGORITHM (LGA), with a maximum of 25000000 energy evaluations.

Final-Value: -17.921


	FINAL GENETIC ALGORITHM DOCKED STATE
	_______________________________________________


Detailed state:  trans 34.941 26.541 10.124 quatxyzw 0.582134 -0.306229 0.452607 0.602072 center 0.035 0.082 -0.065 ntor 24 -136.9595 -36.1977 48.6393 58.3356 24.8558 -111.6552 -133.0857 -19.7725 65.3550 75.0085 36.6060 158.7016 43.8527 140.7804 -53.0603 -167.3672 112.8043 171.2235 -143.4855 -20.0677 175.9892 -2.0528 -12.2567 0.1594
State:	 34.941  26.541  10.124   0.729 -0.384  0.567 105.963   -136.96  -36.20   48.64   58.34   24.86 -111.66 -133.09  -19.77   65.35   75.01   36.61  158.70   43.85  140.78  -53.06 -167.37  112.80  171.22 -143.49  -20.07  175.99   -2.05  -12.26    0.16

DOCKED: MODEL        5
DOCKED: USER    Run = 5
DOCKED: USER    DPF = D:/Protein_go_brrr/autodock/final/1A3N/IHP/dock.dpf
DOCKED: USER  
DOCKED: USER    Estimated Free Energy of Binding    =   +2.71 kcal/mol  [=(1)+(2)+(3)-(4)]
DOCKED: USER    
DOCKED: USER    (1) Final Intermolecular Energy     =   -4.45 kcal/mol
DOCKED: USER        vdW + Hbond + desolv Energy     =   -3.85 kcal/mol
DOCKED: USER        Electrostatic Energy            =   -0.60 kcal/mol
DOCKED: USER    (2) Final Total Internal Energy     =  -13.48 kcal/mol
DOCKED: USER    (3) Torsional Free Energy           =   +7.16 kcal/mol
DOCKED: USER    (4) Unbound System's Energy  [=(2)] =  -13.48 kcal/mol
DOCKED: USER    
DOCKED: USER    
DOCKED: USER    NEWDPF move IHP_ideal_opt.pdbqt
DOCKED: USER    NEWDPF about 0.035000 0.082000 -0.065000
DOCKED: USER    NEWDPF tran0 34.941117 26.541065 10.123895
DOCKED: USER    NEWDPF quaternion0 0.582134 -0.306229 0.452607 0.602072
DOCKED: USER    NEWDPF axisangle0 0.729088 -0.383533 0.566863 105.963133
DOCKED: USER    NEWDPF quat0 0.729088 -0.383533 0.566863 105.963133
DOCKED: USER    NEWDPF dihe0 -136.96 -36.20 48.64 58.34 24.86 -111.66 -133.09 -19.77 65.35 75.01 36.61 158.70 43.85 140.78 -53.06 -167.37 112.80 171.22 -143.49 -20.07 175.99 -2.05 -12.26 0.16 
DOCKED: USER  keepresnum = 1 
DOCKED: USER  
DOCKED: REMARK  24 active torsions:
DOCKED: REMARK  status: ('A' for Active; 'I' for Inactive)
DOCKED: REMARK    1  A    between atoms: C_1  and  O_7 
DOCKED: REMARK    2  A    between atoms: C_2  and  O_12 
DOCKED: REMARK    3  A    between atoms: C_3  and  O_17 
DOCKED: REMARK    4  A    between atoms: C_4  and  O_22 
DOCKED: REMARK    5  A    between atoms: C_5  and  O_27 
DOCKED: REMARK    6  A    between atoms: C_6  and  O_32 
DOCKED: REMARK    7  A    between atoms: O_7  and  P_8 
DOCKED: REMARK    8  A    between atoms: P_8  and  O_10 
DOCKED: REMARK    9  A    between atoms: P_8  and  O_11 
DOCKED: REMARK   10  A    between atoms: O_12  and  P_13 
DOCKED: REMARK   11  A    between atoms: P_13  and  O_15 
DOCKED: REMARK   12  A    between atoms: P_13  and  O_16 
DOCKED: REMARK   13  A    between atoms: O_17  and  P_18 
DOCKED: REMARK   14  A    between atoms: P_18  and  O_20 
DOCKED: REMARK   15  A    between atoms: P_18  and  O_21 
DOCKED: REMARK   16  A    between atoms: O_22  and  P_23 
DOCKED: REMARK   17  A    between atoms: P_23  and  O_25 
DOCKED: REMARK   18  A    between atoms: P_23  and  O_26 
DOCKED: REMARK   19  A    between atoms: O_27  and  P_28 
DOCKED: REMARK   20  A    between atoms: P_28  and  O_30 
DOCKED: REMARK   21  A    between atoms: P_28  and  O_31 
DOCKED: REMARK   22  A    between atoms: O_32  and  P_33 
DOCKED: REMARK   23  A    between atoms: P_33  and  O_35 
DOCKED: REMARK   24  A    between atoms: P_33  and  O_36 
DOCKED: USER                              x       y       z     vdW  Elec       q    Type
DOCKED: USER                           _______ _______ _______ _____ _____    ______ ____
DOCKED: ROOT
DOCKED: ATOM      1  C   UNL d   1      35.987  25.824  11.297 -0.04 +0.04    +0.194 C 
DOCKED: ATOM      2  C   UNL d   1      35.002  26.863  11.837 -0.04 -0.01    +0.194 C 
DOCKED: ATOM      3  C   UNL d   1      34.913  28.088  10.923 -0.02 -0.03    +0.194 C 
DOCKED: ATOM      4  C   UNL d   1      34.635  27.731   9.465 -0.02 -0.08    +0.194 C 
DOCKED: ATOM      5  C   UNL d   1      35.519  26.616   8.919 -0.07 -0.00    +0.194 C 
DOCKED: ATOM      6  C   UNL d   1      35.657  25.418   9.860 -0.11 +0.07    +0.194 C 
DOCKED: ENDROOT
DOCKED: BRANCH   1   7
DOCKED: ATOM      7  O   UNL d   1      35.884  24.650  12.106 -0.07 -0.09    -0.278 OA
DOCKED: BRANCH   7   8
DOCKED: ATOM      8  P   UNL d   1      34.903  23.483  11.629 -0.19 +0.26    +0.473 P 
DOCKED: ATOM      9  O   UNL d   1      35.552  22.390  10.855 -0.87 -0.34    -0.228 OA
DOCKED: BRANCH   8  10
DOCKED: ATOM     10  O   UNL d   1      34.219  22.977  12.978 -0.27 -0.14    -0.303 OA
DOCKED: ATOM     11  H   UNL d   1      33.669  23.690  13.353 +0.11 +0.11    +0.222 HD
DOCKED: ENDBRANCH   8  10
DOCKED: BRANCH   8  12
DOCKED: ATOM     12  O   UNL d   1      33.699  24.226  10.905 -0.20 +0.07    -0.303 OA
DOCKED: ATOM     13  H   UNL d   1      33.028  24.576  11.533 -0.30 -0.09    +0.222 HD
DOCKED: ENDBRANCH   8  12
DOCKED: ENDBRANCH   7   8
DOCKED: ENDBRANCH   1   7
DOCKED: BRANCH   2  14
DOCKED: ATOM     14  O   UNL d   1      33.702  26.269  11.932 -0.11 +0.06    -0.278 OA
DOCKED: BRANCH  14  15
DOCKED: ATOM     15  P   UNL d   1      33.128  26.034  13.408 -0.11 +0.08    +0.473 P 
DOCKED: ATOM     16  O   UNL d   1      31.971  25.094  13.538 -0.69 -0.19    -0.228 OA
DOCKED: BRANCH  15  17
DOCKED: ATOM     17  O   UNL d   1      34.399  25.568  14.248 -0.10 -0.07    -0.303 OA
DOCKED: ATOM     18  H   UNL d   1      34.900  24.877  13.773 +0.08 +0.05    +0.222 HD
DOCKED: ENDBRANCH  15  17
DOCKED: BRANCH  15  19
DOCKED: ATOM     19  O   UNL d   1      32.888  27.499  13.979 -0.03 -0.03    -0.303 OA
DOCKED: ATOM     20  H   UNL d   1      33.154  28.184  13.337 +0.03 -0.00    +0.222 HD
DOCKED: ENDBRANCH  15  19
DOCKED: ENDBRANCH  14  15
DOCKED: ENDBRANCH   2  14
DOCKED: BRANCH   6  21
DOCKED: ATOM     21  O   UNL d   1      36.754  24.643   9.382 -0.01 -0.35    -0.278 OA
DOCKED: BRANCH  21  22
DOCKED: ATOM     22  P   UNL d   1      38.246  25.167   9.595 -0.03 +0.27    +0.473 P 
DOCKED: ATOM     23  O   UNL d   1      38.457  26.630   9.800 -0.00 -0.05    -0.228 OA
DOCKED: BRANCH  22  24
DOCKED: ATOM     24  O   UNL d   1      38.747  24.246  10.792 -0.04 -0.14    -0.303 OA
DOCKED: ATOM     25  H   UNL d   1      38.009  24.164  11.448 +0.06 +0.10    +0.222 HD
DOCKED: ENDBRANCH  22  24
DOCKED: BRANCH  22  26
DOCKED: ATOM     26  O   UNL d   1      39.001  24.518   8.339 -0.22 -0.23    -0.303 OA
DOCKED: ATOM     27  H   UNL d   1      38.753  25.005   7.527 +0.02 +0.14    +0.222 HD
DOCKED: ENDBRANCH  22  26
DOCKED: ENDBRANCH  21  22
DOCKED: ENDBRANCH   6  21
DOCKED: BRANCH   3  28
DOCKED: ATOM     28  O   UNL d   1      33.793  28.856  11.344 -0.02 +0.06    -0.278 OA
DOCKED: BRANCH  28  29
DOCKED: ATOM     29  P   UNL d   1      34.006  30.249  12.085 +0.01 -0.03    +0.473 P 
DOCKED: ATOM     30  O   UNL d   1      32.797  31.104  12.203 +0.00 +0.01    -0.228 OA
DOCKED: BRANCH  29  31
DOCKED: ATOM     31  O   UNL d   1      34.672  29.741  13.449 +0.00 +0.00    -0.303 OA
DOCKED: ATOM     32  H   UNL d   1      33.957  29.436  14.053 +0.01 +0.00    +0.222 HD
DOCKED: ENDBRANCH  29  31
DOCKED: BRANCH  29  33
DOCKED: ATOM     33  O   UNL d   1      35.246  30.861  11.295 +0.00 +0.01    -0.303 OA
DOCKED: ATOM     34  H   UNL d   1      35.146  30.657  10.333 +0.01 -0.02    +0.222 HD
DOCKED: ENDBRANCH  29  33
DOCKED: ENDBRANCH  28  29
DOCKED: ENDBRANCH   3  28
DOCKED: BRANCH   5  35
DOCKED: ATOM     35  O   UNL d   1      34.869  26.150   7.738 -0.10 +0.03    -0.278 OA
DOCKED: BRANCH  35  36
DOCKED: ATOM     36  P   UNL d   1      35.595  26.261   6.323 -0.03 +0.07    +0.473 P 
DOCKED: ATOM     37  O   UNL d   1      35.112  25.310   5.274 -0.12 -0.04    -0.228 OA
DOCKED: BRANCH  36  38
DOCKED: ATOM     38  O   UNL d   1      35.377  27.797   5.964 -0.00 +0.02    -0.303 OA
DOCKED: ATOM     39  H   UNL d   1      34.811  28.210   6.651 +0.02 -0.04    +0.222 HD
DOCKED: ENDBRANCH  36  38
DOCKED: BRANCH  36  40
DOCKED: ATOM     40  O   UNL d   1      37.132  26.176   6.721 -0.02 -0.11    -0.303 OA
DOCKED: ATOM     41  H   UNL d   1      37.274  25.593   7.500 +0.03 +0.15    +0.222 HD
DOCKED: ENDBRANCH  36  40
DOCKED: ENDBRANCH  35  36
DOCKED: ENDBRANCH   5  35
DOCKED: BRANCH   4  42
DOCKED: ATOM     42  O   UNL d   1      34.910  28.903   8.691 -0.02 +0.06    -0.278 OA
DOCKED: BRANCH  42  43
DOCKED: ATOM     43  P   UNL d   1      33.696  29.674   8.000 -0.01 -0.14    +0.473 P 
DOCKED: ATOM     44  O   UNL d   1      33.934  30.263   6.653 -0.01 +0.03    -0.228 OA
DOCKED: BRANCH  43  45
DOCKED: ATOM     45  O   UNL d   1      32.528  28.593   8.041 +0.03 +0.30    -0.303 OA
DOCKED: ATOM     46  H   UNL d   1      32.873  27.689   7.896 -0.38 -0.41    +0.222 HD
DOCKED: ENDBRANCH  43  45
DOCKED: BRANCH  43  47
DOCKED: ATOM     47  O   UNL d   1      33.224  30.705   9.133 -0.01 +0.06    -0.303 OA
DOCKED: ATOM     48  H   UNL d   1      33.515  30.377  10.009 +0.01 -0.04    +0.222 HD
DOCKED: ENDBRANCH  43  47
DOCKED: ENDBRANCH  42  43
DOCKED: ENDBRANCH   4  42
DOCKED: TORSDOF 24
DOCKED: TER
DOCKED: ENDMDL
________________________________________________________________________________


	BEGINNING GENETIC ALGORITHM DOCKING 6 of 100
Run: 6 Seed: 1697431058 248434212 [ Run 6 of 100 GA/GALS ]
Beginning LAMARCKIAN GENETIC ALGORITHM (LGA), with a maximum of 25000000 energy evaluations.

Final-Value: -17.688


	FINAL GENETIC ALGORITHM DOCKED STATE
	_______________________________________________


Detailed state:  trans 0.658 14.608 38.294 quatxyzw -0.359582 -0.927368 -0.078605 0.067165 center 0.035 0.082 -0.065 ntor 24 99.3208 88.7554 25.5585 128.2538 93.7790 118.3811 -97.7518 19.2762 72.7781 121.3002 -179.0465 -137.1703 143.6164 -179.7309 -121.9261 19.2870 83.7487 55.8236 -2.9227 -45.6773 -21.2653 170.7759 15.3193 -25.7067
State:	  0.658  14.608  38.294  -0.360 -0.929 -0.079 172.298     99.32   88.76   25.56  128.25   93.78  118.38  -97.75   19.28   72.78  121.30 -179.05 -137.17  143.62 -179.73 -121.93   19.29   83.75   55.82   -2.92  -45.68  -21.27  170.78   15.32  -25.71

DOCKED: MODEL        6
DOCKED: USER    Run = 6
DOCKED: USER    DPF = D:/Protein_go_brrr/autodock/final/1A3N/IHP/dock.dpf
DOCKED: USER  
DOCKED: USER    Estimated Free Energy of Binding    =   +3.48 kcal/mol  [=(1)+(2)+(3)-(4)]
DOCKED: USER    
DOCKED: USER    (1) Final Intermolecular Energy     =   -3.68 kcal/mol
DOCKED: USER        vdW + Hbond + desolv Energy     =   -3.50 kcal/mol
DOCKED: USER        Electrostatic Energy            =   -0.19 kcal/mol
DOCKED: USER    (2) Final Total Internal Energy     =  -14.00 kcal/mol
DOCKED: USER    (3) Torsional Free Energy           =   +7.16 kcal/mol
DOCKED: USER    (4) Unbound System's Energy  [=(2)] =  -14.00 kcal/mol
DOCKED: USER    
DOCKED: USER    
DOCKED: USER    NEWDPF move IHP_ideal_opt.pdbqt
DOCKED: USER    NEWDPF about 0.035000 0.082000 -0.065000
DOCKED: USER    NEWDPF tran0 0.657805 14.608302 38.294062
DOCKED: USER    NEWDPF quaternion0 -0.359582 -0.927368 -0.078605 0.067165
DOCKED: USER    NEWDPF axisangle0 -0.360396 -0.929466 -0.078783 172.297682
DOCKED: USER    NEWDPF quat0 -0.360396 -0.929466 -0.078783 172.297682
DOCKED: USER    NEWDPF dihe0 99.32 88.76 25.56 128.25 93.78 118.38 -97.75 19.28 72.78 121.30 -179.05 -137.17 143.62 -179.73 -121.93 19.29 83.75 55.82 -2.92 -45.68 -21.27 170.78 15.32 -25.71 
DOCKED: USER  keepresnum = 1 
DOCKED: USER  
DOCKED: REMARK  24 active torsions:
DOCKED: REMARK  status: ('A' for Active; 'I' for Inactive)
DOCKED: REMARK    1  A    between atoms: C_1  and  O_7 
DOCKED: REMARK    2  A    between atoms: C_2  and  O_12 
DOCKED: REMARK    3  A    between atoms: C_3  and  O_17 
DOCKED: REMARK    4  A    between atoms: C_4  and  O_22 
DOCKED: REMARK    5  A    between atoms: C_5  and  O_27 
DOCKED: REMARK    6  A    between atoms: C_6  and  O_32 
DOCKED: REMARK    7  A    between atoms: O_7  and  P_8 
DOCKED: REMARK    8  A    between atoms: P_8  and  O_10 
DOCKED: REMARK    9  A    between atoms: P_8  and  O_11 
DOCKED: REMARK   10  A    between atoms: O_12  and  P_13 
DOCKED: REMARK   11  A    between atoms: P_13  and  O_15 
DOCKED: REMARK   12  A    between atoms: P_13  and  O_16 
DOCKED: REMARK   13  A    between atoms: O_17  and  P_18 
DOCKED: REMARK   14  A    between atoms: P_18  and  O_20 
DOCKED: REMARK   15  A    between atoms: P_18  and  O_21 
DOCKED: REMARK   16  A    between atoms: O_22  and  P_23 
DOCKED: REMARK   17  A    between atoms: P_23  and  O_25 
DOCKED: REMARK   18  A    between atoms: P_23  and  O_26 
DOCKED: REMARK   19  A    between atoms: O_27  and  P_28 
DOCKED: REMARK   20  A    between atoms: P_28  and  O_30 
DOCKED: REMARK   21  A    between atoms: P_28  and  O_31 
DOCKED: REMARK   22  A    between atoms: O_32  and  P_33 
DOCKED: REMARK   23  A    between atoms: P_33  and  O_35 
DOCKED: REMARK   24  A    between atoms: P_33  and  O_36 
DOCKED: USER                              x       y       z     vdW  Elec       q    Type
DOCKED: USER                           _______ _______ _______ _____ _____    ______ ____
DOCKED: ROOT
DOCKED: ATOM      1  C   UNL d   1      -0.699  14.887  37.262 -0.10 +0.10    +0.194 C 
DOCKED: ATOM      2  C   UNL d   1      -0.380  13.419  37.552 -0.01 +0.09    +0.194 C 
DOCKED: ATOM      3  C   UNL d   1       1.123  13.142  37.480 -0.22 +0.11    +0.194 C 
DOCKED: ATOM      4  C   UNL d   1       1.952  14.093  38.338 -0.10 +0.14    +0.194 C 
DOCKED: ATOM      5  C   UNL d   1       1.588  15.562  38.166 -0.08 +0.13    +0.194 C 
DOCKED: ATOM      6  C   UNL d   1       0.082  15.832  38.176 -0.06 +0.09    +0.194 C 
DOCKED: ENDROOT
DOCKED: BRANCH   1   7
DOCKED: ATOM      7  O   UNL d   1      -2.090  15.100  37.518 -0.08 -0.14    -0.278 OA
DOCKED: BRANCH   7   8
DOCKED: ATOM      8  P   UNL d   1      -2.987  15.729  36.356 -0.12 +0.44    +0.473 P 
DOCKED: ATOM      9  O   UNL d   1      -4.313  16.246  36.793 -0.67 -0.30    -0.228 OA
DOCKED: BRANCH   8  10
DOCKED: ATOM     10  O   UNL d   1      -2.055  16.853  35.713 -0.17 -0.19    -0.303 OA
DOCKED: ATOM     11  H   UNL d   1      -1.802  17.499  36.399 +0.06 +0.10    +0.222 HD
DOCKED: ENDBRANCH   8  10
DOCKED: BRANCH   8  12
DOCKED: ATOM     12  O   UNL d   1      -3.016  14.626  35.212 -0.23 -0.35    -0.303 OA
DOCKED: ATOM     13  H   UNL d   1      -3.153  13.716  35.558 +0.12 +0.21    +0.222 HD
DOCKED: ENDBRANCH   8  12
DOCKED: ENDBRANCH   7   8
DOCKED: ENDBRANCH   1   7
DOCKED: BRANCH   2  14
DOCKED: ATOM     14  O   UNL d   1      -0.842  13.092  38.869 -0.08 -0.09    -0.278 OA
DOCKED: BRANCH  14  15
DOCKED: ATOM     15  P   UNL d   1      -2.373  12.642  38.999 -0.09 +0.13    +0.473 P 
DOCKED: ATOM     16  O   UNL d   1      -3.223  13.421  39.954 -0.03 -0.06    -0.228 OA
DOCKED: BRANCH  15  17
DOCKED: ATOM     17  O   UNL d   1      -2.920  12.692  37.504 -0.20 -0.12    -0.303 OA
DOCKED: ATOM     18  H   UNL d   1      -2.994  13.613  37.187 +0.09 +0.13    +0.222 HD
DOCKED: ENDBRANCH  15  17
DOCKED: BRANCH  15  19
DOCKED: ATOM     19  O   UNL d   1      -2.305  11.075  39.262 -0.13 -0.06    -0.303 OA
DOCKED: ATOM     20  H   UNL d   1      -1.929  10.873  40.139 +0.06 +0.05    +0.222 HD
DOCKED: ENDBRANCH  15  19
DOCKED: ENDBRANCH  14  15
DOCKED: ENDBRANCH   2  14
DOCKED: BRANCH   6  21
DOCKED: ATOM     21  O   UNL d   1      -0.105  17.152  37.671 -0.04 -0.11    -0.278 OA
DOCKED: BRANCH  21  22
DOCKED: ATOM     22  P   UNL d   1      -0.883  18.233  38.548 +0.01 +0.12    +0.473 P 
DOCKED: ATOM     23  O   UNL d   1      -2.356  18.368  38.356 -0.01 -0.06    -0.228 OA
DOCKED: BRANCH  22  24
DOCKED: ATOM     24  O   UNL d   1      -0.435  17.839  40.023 +0.00 -0.07    -0.303 OA
DOCKED: ATOM     25  H   UNL d   1       0.458  17.413  39.971 +0.01 +0.06    +0.222 HD
DOCKED: ENDBRANCH  22  24
DOCKED: BRANCH  22  26
DOCKED: ATOM     26  O   UNL d   1      -0.016  19.555  38.280 -0.00 -0.06    -0.303 OA
DOCKED: ATOM     27  H   UNL d   1       0.918  19.380  38.516 +0.01 +0.05    +0.222 HD
DOCKED: ENDBRANCH  22  26
DOCKED: ENDBRANCH  21  22
DOCKED: ENDBRANCH   6  21
DOCKED: BRANCH   3  28
DOCKED: ATOM     28  O   UNL d   1       1.346  11.848  38.027 -0.19 -0.12    -0.278 OA
DOCKED: BRANCH  28  29
DOCKED: ATOM     29  P   UNL d   1       1.366  11.635  39.605 -0.06 +0.15    +0.473 P 
DOCKED: ATOM     30  O   UNL d   1       1.294  12.875  40.420 -0.02 -0.07    -0.228 OA
DOCKED: BRANCH  29  31
DOCKED: ATOM     31  O   UNL d   1       0.161  10.593  39.761 -0.18 -0.08    -0.303 OA
DOCKED: ATOM     32  H   UNL d   1      -0.601  10.912  39.225 +0.07 +0.05    +0.222 HD
DOCKED: ENDBRANCH  29  31
DOCKED: BRANCH  29  33
DOCKED: ATOM     33  O   UNL d   1       2.652  10.717  39.802 -0.10 -0.11    -0.303 OA
DOCKED: ATOM     34  H   UNL d   1       3.461  11.283  39.751 +0.07 +0.08    +0.222 HD
DOCKED: ENDBRANCH  29  33
DOCKED: ENDBRANCH  28  29
DOCKED: ENDBRANCH   3  28
DOCKED: BRANCH   5  35
DOCKED: ATOM     35  O   UNL d   1       2.142  16.234  39.295 -0.03 -0.14    -0.278 OA
DOCKED: BRANCH  35  36
DOCKED: ATOM     36  P   UNL d   1       2.702  17.721  39.152 -0.02 +0.21    +0.473 P 
DOCKED: ATOM     37  O   UNL d   1       2.173  18.707  40.144 -0.00 -0.06    -0.228 OA
DOCKED: BRANCH  36  38
DOCKED: ATOM     38  O   UNL d   1       4.275  17.487  39.235 -0.03 -0.17    -0.303 OA
DOCKED: ATOM     39  H   UNL d   1       4.453  16.525  39.304 +0.01 +0.16    +0.222 HD
DOCKED: ENDBRANCH  36  38
DOCKED: BRANCH  36  40
DOCKED: ATOM     40  O   UNL d   1       2.443  18.035  37.614 -0.06 -0.18    -0.303 OA
DOCKED: ATOM     41  H   UNL d   1       1.507  18.283  37.445 +0.03 +0.10    +0.222 HD
DOCKED: ENDBRANCH  36  40
DOCKED: ENDBRANCH  35  36
DOCKED: ENDBRANCH   5  35
DOCKED: BRANCH   4  42
DOCKED: ATOM     42  O   UNL d   1       3.314  13.946  37.923 -0.43 -0.38    -0.278 OA
DOCKED: BRANCH  42  43
DOCKED: ATOM     43  P   UNL d   1       4.456  13.870  39.034 -0.02 +0.42    +0.473 P 
DOCKED: ATOM     44  O   UNL d   1       5.004  12.525  39.365 -0.04 -0.13    -0.228 OA
DOCKED: BRANCH  43  45
DOCKED: ATOM     45  O   UNL d   1       5.541  14.900  38.491 -0.41 -0.42    -0.303 OA
DOCKED: ATOM     46  H   UNL d   1       5.562  15.716  39.030 +0.01 +0.20    +0.222 HD
DOCKED: ENDBRANCH  43  45
DOCKED: BRANCH  43  47
DOCKED: ATOM     47  O   UNL d   1       3.824  14.681  40.264 -0.01 -0.15    -0.303 OA
DOCKED: ATOM     48  H   UNL d   1       2.880  14.439  40.360 +0.02 +0.09    +0.222 HD
DOCKED: ENDBRANCH  43  47
DOCKED: ENDBRANCH  42  43
DOCKED: ENDBRANCH   4  42
DOCKED: TORSDOF 24
DOCKED: TER
DOCKED: ENDMDL
________________________________________________________________________________


	BEGINNING GENETIC ALGORITHM DOCKING 7 of 100
Run: 7 Seed: 661377692 975012452 [ Run 7 of 100 GA/GALS ]
Beginning LAMARCKIAN GENETIC ALGORITHM (LGA), with a maximum of 25000000 energy evaluations.

Final-Value: -19.393


	FINAL GENETIC ALGORITHM DOCKED STATE
	_______________________________________________


Detailed state:  trans 27.734 13.699 33.022 quatxyzw -0.751486 0.164312 0.381683 -0.512434 center 0.035 0.082 -0.065 ntor 24 -79.9487 79.7042 33.3543 168.5010 71.5459 -118.9644 -109.0534 -29.5668 13.1478 60.4763 7.0218 177.2858 -15.6515 -77.2910 128.0865 19.9971 148.2872 147.6981 -1.4759 12.3606 -3.1233 0.6177 -16.1470 -16.0423
State:	 27.734  13.699  33.022  -0.875  0.191  0.444 -118.348    -79.95   79.70   33.35  168.50   71.55 -118.96 -109.05  -29.57   13.15   60.48    7.02  177.29  -15.65  -77.29  128.09   20.00  148.29  147.70   -1.48   12.36   -3.12    0.62  -16.15  -16.04

DOCKED: MODEL        7
DOCKED: USER    Run = 7
DOCKED: USER    DPF = D:/Protein_go_brrr/autodock/final/1A3N/IHP/dock.dpf
DOCKED: USER  
DOCKED: USER    Estimated Free Energy of Binding    =   +2.35 kcal/mol  [=(1)+(2)+(3)-(4)]
DOCKED: USER    
DOCKED: USER    (1) Final Intermolecular Energy     =   -4.81 kcal/mol
DOCKED: USER        vdW + Hbond + desolv Energy     =   -4.78 kcal/mol
DOCKED: USER        Electrostatic Energy            =   -0.03 kcal/mol
DOCKED: USER    (2) Final Total Internal Energy     =  -14.59 kcal/mol
DOCKED: USER    (3) Torsional Free Energy           =   +7.16 kcal/mol
DOCKED: USER    (4) Unbound System's Energy  [=(2)] =  -14.59 kcal/mol
DOCKED: USER    
DOCKED: USER    
DOCKED: USER    NEWDPF move IHP_ideal_opt.pdbqt
DOCKED: USER    NEWDPF about 0.035000 0.082000 -0.065000
DOCKED: USER    NEWDPF tran0 27.733629 13.698760 33.021975
DOCKED: USER    NEWDPF quaternion0 -0.751486 0.164312 0.381683 -0.512434
DOCKED: USER    NEWDPF axisangle0 -0.875117 0.191344 0.444475 -118.347847
DOCKED: USER    NEWDPF quat0 -0.875117 0.191344 0.444475 -118.347847
DOCKED: USER    NEWDPF dihe0 -79.95 79.70 33.35 168.50 71.55 -118.96 -109.05 -29.57 13.15 60.48 7.02 177.29 -15.65 -77.29 128.09 20.00 148.29 147.70 -1.48 12.36 -3.12 0.62 -16.15 -16.04 
DOCKED: USER  keepresnum = 1 
DOCKED: USER  
DOCKED: REMARK  24 active torsions:
DOCKED: REMARK  status: ('A' for Active; 'I' for Inactive)
DOCKED: REMARK    1  A    between atoms: C_1  and  O_7 
DOCKED: REMARK    2  A    between atoms: C_2  and  O_12 
DOCKED: REMARK    3  A    between atoms: C_3  and  O_17 
DOCKED: REMARK    4  A    between atoms: C_4  and  O_22 
DOCKED: REMARK    5  A    between atoms: C_5  and  O_27 
DOCKED: REMARK    6  A    between atoms: C_6  and  O_32 
DOCKED: REMARK    7  A    between atoms: O_7  and  P_8 
DOCKED: REMARK    8  A    between atoms: P_8  and  O_10 
DOCKED: REMARK    9  A    between atoms: P_8  and  O_11 
DOCKED: REMARK   10  A    between atoms: O_12  and  P_13 
DOCKED: REMARK   11  A    between atoms: P_13  and  O_15 
DOCKED: REMARK   12  A    between atoms: P_13  and  O_16 
DOCKED: REMARK   13  A    between atoms: O_17  and  P_18 
DOCKED: REMARK   14  A    between atoms: P_18  and  O_20 
DOCKED: REMARK   15  A    between atoms: P_18  and  O_21 
DOCKED: REMARK   16  A    between atoms: O_22  and  P_23 
DOCKED: REMARK   17  A    between atoms: P_23  and  O_25 
DOCKED: REMARK   18  A    between atoms: P_23  and  O_26 
DOCKED: REMARK   19  A    between atoms: O_27  and  P_28 
DOCKED: REMARK   20  A    between atoms: P_28  and  O_30 
DOCKED: REMARK   21  A    between atoms: P_28  and  O_31 
DOCKED: REMARK   22  A    between atoms: O_32  and  P_33 
DOCKED: REMARK   23  A    between atoms: P_33  and  O_35 
DOCKED: REMARK   24  A    between atoms: P_33  and  O_36 
DOCKED: USER                              x       y       z     vdW  Elec       q    Type
DOCKED: USER                           _______ _______ _______ _____ _____    ______ ____
DOCKED: ROOT
DOCKED: ATOM      1  C   UNL d   1      28.800  14.962  32.520 -0.09 -0.03    +0.194 C 
DOCKED: ATOM      2  C   UNL d   1      28.646  14.789  34.032 -0.05 -0.02    +0.194 C 
DOCKED: ATOM      3  C   UNL d   1      27.186  14.563  34.430 -0.01 -0.02    +0.194 C 
DOCKED: ATOM      4  C   UNL d   1      26.517  13.434  33.649 -0.04 -0.03    +0.194 C 
DOCKED: ATOM      5  C   UNL d   1      26.742  13.503  32.144 -0.07 -0.03    +0.194 C 
DOCKED: ATOM      6  C   UNL d   1      28.192  13.790  31.747 -0.13 -0.04    +0.194 C 
DOCKED: ENDROOT
DOCKED: BRANCH   1   7
DOCKED: ATOM      7  O   UNL d   1      30.196  14.994  32.215 -0.15 +0.04    -0.278 OA
DOCKED: BRANCH   7   8
DOCKED: ATOM      8  P   UNL d   1      30.771  16.256  31.422 -0.04 -0.10    +0.473 P 
DOCKED: ATOM      9  O   UNL d   1      30.141  17.559  31.767 -0.04 +0.03    -0.228 OA
DOCKED: BRANCH   8  10
DOCKED: ATOM     10  O   UNL d   1      32.338  16.218  31.718 -0.07 +0.09    -0.303 OA
DOCKED: ATOM     11  H   UNL d   1      32.829  16.167  30.876 -0.37 -0.11    +0.222 HD
DOCKED: ENDBRANCH   8  10
DOCKED: BRANCH   8  12
DOCKED: ATOM     12  O   UNL d   1      30.712  15.842  29.889 -0.05 +0.10    -0.303 OA
DOCKED: ATOM     13  H   UNL d   1      29.939  15.273  29.672 +0.01 -0.06    +0.222 HD
DOCKED: ENDBRANCH   8  12
DOCKED: ENDBRANCH   7   8
DOCKED: ENDBRANCH   1   7
DOCKED: BRANCH   2  14
DOCKED: ATOM     14  O   UNL d   1      29.415  13.656  34.454 -0.13 +0.05    -0.278 OA
DOCKED: BRANCH  14  15
DOCKED: ATOM     15  P   UNL d   1      30.129  13.768  35.883 -0.09 -0.10    +0.473 P 
DOCKED: ATOM     16  O   UNL d   1      30.363  15.148  36.411 -0.04 +0.04    -0.228 OA
DOCKED: BRANCH  15  17
DOCKED: ATOM     17  O   UNL d   1      29.213  12.886  36.843 -0.04 +0.06    -0.303 OA
DOCKED: ATOM     18  H   UNL d   1      28.310  13.254  36.903 +0.05 -0.04    +0.222 HD
DOCKED: ENDBRANCH  15  17
DOCKED: BRANCH  15  19
DOCKED: ATOM     19  O   UNL d   1      31.425  12.855  35.751 -0.40 +0.14    -0.303 OA
DOCKED: ATOM     20  H   UNL d   1      32.240  13.389  35.719 -0.01 -0.15    +0.222 HD
DOCKED: ENDBRANCH  15  19
DOCKED: ENDBRANCH  14  15
DOCKED: ENDBRANCH   2  14
DOCKED: BRANCH   6  21
DOCKED: ATOM     21  O   UNL d   1      28.176  14.160  30.370 -0.07 +0.05    -0.278 OA
DOCKED: BRANCH  21  22
DOCKED: ATOM     22  P   UNL d   1      28.694  13.129  29.268 -0.14 -0.10    +0.473 P 
DOCKED: ATOM     23  O   UNL d   1      28.231  13.310  27.862 -0.12 +0.03    -0.228 OA
DOCKED: BRANCH  22  24
DOCKED: ATOM     24  O   UNL d   1      30.271  13.206  29.466 -0.23 +0.12    -0.303 OA
DOCKED: ATOM     25  H   UNL d   1      30.456  13.783  30.250 -0.12 -0.10    +0.222 HD
DOCKED: ENDBRANCH  22  24
DOCKED: BRANCH  22  26
DOCKED: ATOM     26  O   UNL d   1      28.343  11.721  29.949 -0.41 +0.10    -0.303 OA
DOCKED: ATOM     27  H   UNL d   1      27.371  11.623  30.002 -0.23 -0.08    +0.222 HD
DOCKED: ENDBRANCH  22  26
DOCKED: ENDBRANCH  21  22
DOCKED: ENDBRANCH   6  21
DOCKED: BRANCH   3  28
DOCKED: ATOM     28  O   UNL d   1      27.173  14.142  35.788 -0.00 +0.04    -0.278 OA
DOCKED: BRANCH  28  29
DOCKED: ATOM     29  P   UNL d   1      26.582  15.094  36.920 +0.01 -0.05    +0.473 P 
DOCKED: ATOM     30  O   UNL d   1      26.195  16.457  36.473 +0.00 +0.02    -0.228 OA
DOCKED: BRANCH  29  31
DOCKED: ATOM     31  O   UNL d   1      25.416  14.159  37.491 -0.00 +0.05    -0.303 OA
DOCKED: ATOM     32  H   UNL d   1      24.809  13.927  36.751 +0.03 -0.05    +0.222 HD
DOCKED: ENDBRANCH  29  31
DOCKED: BRANCH  29  33
DOCKED: ATOM     33  O   UNL d   1      27.697  14.998  38.053 +0.00 +0.03    -0.303 OA
DOCKED: ATOM     34  H   UNL d   1      28.573  14.829  37.628 +0.02 -0.02    +0.222 HD
DOCKED: ENDBRANCH  29  33
DOCKED: ENDBRANCH  28  29
DOCKED: ENDBRANCH   3  28
DOCKED: BRANCH   5  35
DOCKED: ATOM     35  O   UNL d   1      26.420  12.206  31.646 -0.12 +0.05    -0.278 OA
DOCKED: BRANCH  35  36
DOCKED: ATOM     36  P   UNL d   1      25.171  12.006  30.674 -0.16 +0.01    +0.473 P 
DOCKED: ATOM     37  O   UNL d   1      24.749  10.588  30.450 -0.67 -0.08    -0.228 OA
DOCKED: BRANCH  36  38
DOCKED: ATOM     38  O   UNL d   1      24.066  12.916  31.371 -0.22 -0.03    -0.303 OA
DOCKED: ATOM     39  H   UNL d   1      23.941  12.617  32.297 +0.08 +0.03    +0.222 HD
DOCKED: ENDBRANCH  36  38
DOCKED: BRANCH  36  40
DOCKED: ATOM     40  O   UNL d   1      25.601  12.841  29.391 -0.14 +0.03    -0.303 OA
DOCKED: ATOM     41  H   UNL d   1      26.571  13.003  29.370 +0.10 -0.03    +0.222 HD
DOCKED: ENDBRANCH  36  40
DOCKED: ENDBRANCH  35  36
DOCKED: ENDBRANCH   5  35
DOCKED: BRANCH   4  42
DOCKED: ATOM     42  O   UNL d   1      25.108  13.555  33.870 -0.04 +0.04    -0.278 OA
DOCKED: BRANCH  42  43
DOCKED: ATOM     43  P   UNL d   1      24.297  12.284  34.389 -0.07 -0.16    +0.473 P 
DOCKED: ATOM     44  O   UNL d   1      22.810  12.342  34.317 -0.26 +0.06    -0.228 OA
DOCKED: BRANCH  43  45
DOCKED: ATOM     45  O   UNL d   1      24.942  11.093  33.553 -0.34 +0.00    -0.303 OA
DOCKED: ATOM     46  H   UNL d   1      24.750  11.180  32.598 +0.11 +0.07    +0.222 HD
DOCKED: ENDBRANCH  43  45
DOCKED: BRANCH  43  47
DOCKED: ATOM     47  O   UNL d   1      24.910  12.028  35.848 -0.06 +0.21    -0.303 OA
DOCKED: ATOM     48  H   UNL d   1      25.640  12.661  36.006 +0.05 -0.08    +0.222 HD
DOCKED: ENDBRANCH  43  47
DOCKED: ENDBRANCH  42  43
DOCKED: ENDBRANCH   4  42
DOCKED: TORSDOF 24
DOCKED: TER
DOCKED: ENDMDL
________________________________________________________________________________


	BEGINNING GENETIC ALGORITHM DOCKING 8 of 100
Run: 8 Seed: 1957496692 594771045 [ Run 8 of 100 GA/GALS ]
Beginning LAMARCKIAN GENETIC ALGORITHM (LGA), with a maximum of 25000000 energy evaluations.

Final-Value: -17.277


	FINAL GENETIC ALGORITHM DOCKED STATE
	_______________________________________________


Detailed state:  trans 19.352 -23.491 10.599 quatxyzw -0.489118 0.355664 -0.174436 0.777070 center 0.035 0.082 -0.065 ntor 24 112.1869 -173.8353 20.8879 76.2692 -9.7695 -177.4353 -91.1647 -32.5503 92.7561 38.1022 -139.2502 176.9335 -46.8523 -82.3729 -177.6219 -33.0962 108.5727 155.5596 -164.2027 10.4731 172.5793 4.5577 -7.1055 176.1220
State:	 19.352 -23.491  10.599  -0.777  0.565 -0.277 78.014    112.19 -173.84   20.89   76.27   -9.77 -177.44  -91.16  -32.55   92.76   38.10 -139.25  176.93  -46.85  -82.37 -177.62  -33.10  108.57  155.56 -164.20   10.47  172.58    4.56   -7.11  176.12

DOCKED: MODEL        8
DOCKED: USER    Run = 8
DOCKED: USER    DPF = D:/Protein_go_brrr/autodock/final/1A3N/IHP/dock.dpf
DOCKED: USER  
DOCKED: USER    Estimated Free Energy of Binding    =   +2.32 kcal/mol  [=(1)+(2)+(3)-(4)]
DOCKED: USER    
DOCKED: USER    (1) Final Intermolecular Energy     =   -4.84 kcal/mol
DOCKED: USER        vdW + Hbond + desolv Energy     =   -4.36 kcal/mol
DOCKED: USER        Electrostatic Energy            =   -0.48 kcal/mol
DOCKED: USER    (2) Final Total Internal Energy     =  -12.44 kcal/mol
DOCKED: USER    (3) Torsional Free Energy           =   +7.16 kcal/mol
DOCKED: USER    (4) Unbound System's Energy  [=(2)] =  -12.44 kcal/mol
DOCKED: USER    
DOCKED: USER    
DOCKED: USER    NEWDPF move IHP_ideal_opt.pdbqt
DOCKED: USER    NEWDPF about 0.035000 0.082000 -0.065000
DOCKED: USER    NEWDPF tran0 19.351606 -23.491086 10.599273
DOCKED: USER    NEWDPF quaternion0 -0.489118 0.355664 -0.174436 0.777070
DOCKED: USER    NEWDPF axisangle0 -0.777102 0.565072 -0.277141 78.013767
DOCKED: USER    NEWDPF quat0 -0.777102 0.565072 -0.277141 78.013767
DOCKED: USER    NEWDPF dihe0 112.19 -173.84 20.89 76.27 -9.77 -177.44 -91.16 -32.55 92.76 38.10 -139.25 176.93 -46.85 -82.37 -177.62 -33.10 108.57 155.56 -164.20 10.47 172.58 4.56 -7.11 176.12 
DOCKED: USER  keepresnum = 1 
DOCKED: USER  
DOCKED: REMARK  24 active torsions:
DOCKED: REMARK  status: ('A' for Active; 'I' for Inactive)
DOCKED: REMARK    1  A    between atoms: C_1  and  O_7 
DOCKED: REMARK    2  A    between atoms: C_2  and  O_12 
DOCKED: REMARK    3  A    between atoms: C_3  and  O_17 
DOCKED: REMARK    4  A    between atoms: C_4  and  O_22 
DOCKED: REMARK    5  A    between atoms: C_5  and  O_27 
DOCKED: REMARK    6  A    between atoms: C_6  and  O_32 
DOCKED: REMARK    7  A    between atoms: O_7  and  P_8 
DOCKED: REMARK    8  A    between atoms: P_8  and  O_10 
DOCKED: REMARK    9  A    between atoms: P_8  and  O_11 
DOCKED: REMARK   10  A    between atoms: O_12  and  P_13 
DOCKED: REMARK   11  A    between atoms: P_13  and  O_15 
DOCKED: REMARK   12  A    between atoms: P_13  and  O_16 
DOCKED: REMARK   13  A    between atoms: O_17  and  P_18 
DOCKED: REMARK   14  A    between atoms: P_18  and  O_20 
DOCKED: REMARK   15  A    between atoms: P_18  and  O_21 
DOCKED: REMARK   16  A    between atoms: O_22  and  P_23 
DOCKED: REMARK   17  A    between atoms: P_23  and  O_25 
DOCKED: REMARK   18  A    between atoms: P_23  and  O_26 
DOCKED: REMARK   19  A    between atoms: O_27  and  P_28 
DOCKED: REMARK   20  A    between atoms: P_28  and  O_30 
DOCKED: REMARK   21  A    between atoms: P_28  and  O_31 
DOCKED: REMARK   22  A    between atoms: O_32  and  P_33 
DOCKED: REMARK   23  A    between atoms: P_33  and  O_35 
DOCKED: REMARK   24  A    between atoms: P_33  and  O_36 
DOCKED: USER                              x       y       z     vdW  Elec       q    Type
DOCKED: USER                           _______ _______ _______ _____ _____    ______ ____
DOCKED: ROOT
DOCKED: ATOM      1  C   UNL d   1      20.459 -24.696  11.153 -0.08 -0.05    +0.194 C 
DOCKED: ATOM      2  C   UNL d   1      20.241 -24.644   9.640 -0.09 -0.02    +0.194 C 
DOCKED: ATOM      3  C   UNL d   1      18.763 -24.470   9.286 -0.10 -0.01    +0.194 C 
DOCKED: ATOM      4  C   UNL d   1      18.107 -23.293  10.004 -0.11 -0.01    +0.194 C 
DOCKED: ATOM      5  C   UNL d   1      18.393 -23.241  11.499 -0.11 -0.02    +0.194 C 
DOCKED: ATOM      6  C   UNL d   1      19.862 -23.477  11.857 -0.13 -0.05    +0.194 C 
DOCKED: ENDROOT
DOCKED: BRANCH   1   7
DOCKED: ATOM      7  O   UNL d   1      21.866 -24.685  11.402 -0.09 +0.11    -0.278 OA
DOCKED: BRANCH   7   8
DOCKED: ATOM      8  P   UNL d   1      22.665 -23.318  11.184 -0.15 -0.15    +0.473 P 
DOCKED: ATOM      9  O   UNL d   1      21.821 -22.142  10.841 -0.29 +0.04    -0.228 OA
DOCKED: BRANCH   8  10
DOCKED: ATOM     10  O   UNL d   1      23.484 -23.129  12.540 -0.06 +0.09    -0.303 OA
DOCKED: ATOM     11  H   UNL d   1      22.900 -23.302  13.302 -0.47 -0.32    +0.222 HD
DOCKED: ENDBRANCH   8  10
DOCKED: BRANCH   8  12
DOCKED: ATOM     12  O   UNL d   1      23.815 -23.673  10.147 -0.22 +0.08    -0.303 OA
DOCKED: ATOM     13  H   UNL d   1      23.974 -22.960   9.489 -0.42 -0.12    +0.222 HD
DOCKED: ENDBRANCH   8  12
DOCKED: ENDBRANCH   7   8
DOCKED: ENDBRANCH   1   7
DOCKED: BRANCH   2  14
DOCKED: ATOM     14  O   UNL d   1      20.973 -23.536   9.101 -0.17 +0.03    -0.278 OA
DOCKED: BRANCH  14  15
DOCKED: ATOM     15  P   UNL d   1      21.671 -23.764   7.677 -0.15 -0.04    +0.473 P 
DOCKED: ATOM     16  O   UNL d   1      22.042 -25.172   7.329 -0.08 +0.02    -0.228 OA
DOCKED: BRANCH  15  17
DOCKED: ATOM     17  O   UNL d   1      20.650 -23.120   6.638 -0.13 +0.01    -0.303 OA
DOCKED: ATOM     18  H   UNL d   1      19.869 -23.693   6.510 +0.04 -0.01    +0.222 HD
DOCKED: ENDBRANCH  15  17
DOCKED: BRANCH  15  19
DOCKED: ATOM     19  O   UNL d   1      22.864 -22.713   7.647 -0.29 +0.05    -0.303 OA
DOCKED: ATOM     20  H   UNL d   1      23.068 -22.374   8.538 -0.34 -0.11    +0.222 HD
DOCKED: ENDBRANCH  15  19
DOCKED: ENDBRANCH  14  15
DOCKED: ENDBRANCH   2  14
DOCKED: BRANCH   6  21
DOCKED: ATOM     21  O   UNL d   1      19.908 -23.738  13.258 -0.10 +0.19    -0.278 OA
DOCKED: BRANCH  21  22
DOCKED: ATOM     22  P   UNL d   1      19.321 -25.108  13.827 -0.06 -0.25    +0.473 P 
DOCKED: ATOM     23  O   UNL d   1      18.702 -25.100  15.185 -0.14 +0.09    -0.228 OA
DOCKED: BRANCH  22  24
DOCKED: ATOM     24  O   UNL d   1      18.346 -25.558  12.652 -0.01 +0.06    -0.303 OA
DOCKED: ATOM     25  H   UNL d   1      17.529 -24.999  12.699 +0.03 -0.02    +0.222 HD
DOCKED: ENDBRANCH  22  24
DOCKED: BRANCH  22  26
DOCKED: ATOM     26  O   UNL d   1      20.562 -26.103  13.627 -0.10 +0.23    -0.303 OA
DOCKED: ATOM     27  H   UNL d   1      21.347 -25.586  13.354 -0.05 -0.26    +0.222 HD
DOCKED: ENDBRANCH  22  26
DOCKED: ENDBRANCH  21  22
DOCKED: ENDBRANCH   6  21
DOCKED: BRANCH   3  28
DOCKED: ATOM     28  O   UNL d   1      18.688 -24.156   7.901 -0.12 +0.01    -0.278 OA
DOCKED: BRANCH  28  29
DOCKED: ATOM     29  P   UNL d   1      17.985 -25.161   6.885 -0.04 +0.00    +0.473 P 
DOCKED: ATOM     30  O   UNL d   1      18.572 -26.524   6.823 -0.01 +0.00    -0.228 OA
DOCKED: BRANCH  29  31
DOCKED: ATOM     31  O   UNL d   1      16.468 -25.046   7.383 -0.03 -0.01    -0.303 OA
DOCKED: ATOM     32  H   UNL d   1      16.464 -25.000   8.367 +0.02 +0.01    +0.222 HD
DOCKED: ENDBRANCH  29  31
DOCKED: BRANCH  29  33
DOCKED: ATOM     33  O   UNL d   1      17.977 -24.319   5.534 -0.05 -0.01    -0.303 OA
DOCKED: ATOM     34  H   UNL d   1      18.725 -23.673   5.554 +0.03 +0.00    +0.222 HD
DOCKED: ENDBRANCH  29  33
DOCKED: ENDBRANCH  28  29
DOCKED: ENDBRANCH   3  28
DOCKED: BRANCH   5  35
DOCKED: ATOM     35  O   UNL d   1      18.068 -21.914  11.909 -0.12 -0.00    -0.278 OA
DOCKED: BRANCH  35  36
DOCKED: ATOM     36  P   UNL d   1      17.004 -21.669  13.072 -0.03 +0.02    +0.473 P 
DOCKED: ATOM     37  O   UNL d   1      17.176 -20.402  13.847 -0.05 -0.03    -0.228 OA
DOCKED: BRANCH  36  38
DOCKED: ATOM     38  O   UNL d   1      15.626 -21.770  12.280 -0.03 -0.04    -0.303 OA
DOCKED: ATOM     39  H   UNL d   1      15.766 -22.288  11.457 +0.03 +0.02    +0.222 HD
DOCKED: ENDBRANCH  36  38
DOCKED: BRANCH  36  40
DOCKED: ATOM     40  O   UNL d   1      17.075 -23.031  13.891 -0.02 +0.01    -0.303 OA
DOCKED: ATOM     41  H   UNL d   1      17.683 -23.679  13.468 +0.04 -0.03    +0.222 HD
DOCKED: ENDBRANCH  36  40
DOCKED: ENDBRANCH  35  36
DOCKED: ENDBRANCH   5  35
DOCKED: BRANCH   4  42
DOCKED: ATOM     42  O   UNL d   1      16.692 -23.451   9.851 -0.10 +0.00    -0.278 OA
DOCKED: BRANCH  42  43
DOCKED: ATOM     43  P   UNL d   1      15.978 -24.706  10.530 -0.01 +0.01    +0.473 P 
DOCKED: ATOM     44  O   UNL d   1      14.657 -25.123   9.983 -0.01 -0.02    -0.228 OA
DOCKED: BRANCH  43  45
DOCKED: ATOM     45  O   UNL d   1      17.100 -25.831  10.449 -0.01 +0.01    -0.303 OA
DOCKED: ATOM     46  H   UNL d   1      17.048 -26.444  11.210 +0.01 -0.01    +0.222 HD
DOCKED: ENDBRANCH  43  45
DOCKED: BRANCH  43  47
DOCKED: ATOM     47  O   UNL d   1      15.997 -24.338  12.090 -0.01 -0.00    -0.303 OA
DOCKED: ATOM     48  H   UNL d   1      16.486 -23.499  12.218 +0.03 +0.00    +0.222 HD
DOCKED: ENDBRANCH  43  47
DOCKED: ENDBRANCH  42  43
DOCKED: ENDBRANCH   4  42
DOCKED: TORSDOF 24
DOCKED: TER
DOCKED: ENDMDL
________________________________________________________________________________


	BEGINNING GENETIC ALGORITHM DOCKING 9 of 100
Run: 9 Seed: 203315761 2055468170 [ Run 9 of 100 GA/GALS ]
Beginning LAMARCKIAN GENETIC ALGORITHM (LGA), with a maximum of 25000000 energy evaluations.

Final-Value: -19.073


	FINAL GENETIC ALGORITHM DOCKED STATE
	_______________________________________________


Detailed state:  trans -2.101 -4.019 33.123 quatxyzw -0.543220 -0.119967 -0.030783 -0.830405 center 0.035 0.082 -0.065 ntor 24 144.3853 -66.5437 -178.6806 -0.1507 10.3683 143.0017 -5.1210 -90.3351 2.1272 111.0022 105.0341 102.6037 113.7384 179.0924 -179.9763 -75.2040 -56.2111 -147.7971 3.6001 14.7446 -20.8429 18.0965 174.9643 -0.4059
State:	 -2.101  -4.019  33.123  -0.975 -0.215 -0.055 -67.719    144.39  -66.54 -178.68   -0.15   10.37  143.00   -5.12  -90.34    2.13  111.00  105.03  102.60  113.74  179.09 -179.98  -75.20  -56.21 -147.80    3.60   14.74  -20.84   18.10  174.96   -0.41

DOCKED: MODEL        9
DOCKED: USER    Run = 9
DOCKED: USER    DPF = D:/Protein_go_brrr/autodock/final/1A3N/IHP/dock.dpf
DOCKED: USER  
DOCKED: USER    Estimated Free Energy of Binding    =   +2.47 kcal/mol  [=(1)+(2)+(3)-(4)]
DOCKED: USER    
DOCKED: USER    (1) Final Intermolecular Energy     =   -4.69 kcal/mol
DOCKED: USER        vdW + Hbond + desolv Energy     =   -4.48 kcal/mol
DOCKED: USER        Electrostatic Energy            =   -0.20 kcal/mol
DOCKED: USER    (2) Final Total Internal Energy     =  -14.39 kcal/mol
DOCKED: USER    (3) Torsional Free Energy           =   +7.16 kcal/mol
DOCKED: USER    (4) Unbound System's Energy  [=(2)] =  -14.39 kcal/mol
DOCKED: USER    
DOCKED: USER    
DOCKED: USER    NEWDPF move IHP_ideal_opt.pdbqt
DOCKED: USER    NEWDPF about 0.035000 0.082000 -0.065000
DOCKED: USER    NEWDPF tran0 -2.100558 -4.019381 33.122738
DOCKED: USER    NEWDPF quaternion0 -0.543220 -0.119967 -0.030783 -0.830405
DOCKED: USER    NEWDPF axisangle0 -0.974980 -0.215319 -0.055251 -67.719286
DOCKED: USER    NEWDPF quat0 -0.974980 -0.215319 -0.055251 -67.719286
DOCKED: USER    NEWDPF dihe0 144.39 -66.54 -178.68 -0.15 10.37 143.00 -5.12 -90.34 2.13 111.00 105.03 102.60 113.74 179.09 -179.98 -75.20 -56.21 -147.80 3.60 14.74 -20.84 18.10 174.96 -0.41 
DOCKED: USER  keepresnum = 1 
DOCKED: USER  
DOCKED: REMARK  24 active torsions:
DOCKED: REMARK  status: ('A' for Active; 'I' for Inactive)
DOCKED: REMARK    1  A    between atoms: C_1  and  O_7 
DOCKED: REMARK    2  A    between atoms: C_2  and  O_12 
DOCKED: REMARK    3  A    between atoms: C_3  and  O_17 
DOCKED: REMARK    4  A    between atoms: C_4  and  O_22 
DOCKED: REMARK    5  A    between atoms: C_5  and  O_27 
DOCKED: REMARK    6  A    between atoms: C_6  and  O_32 
DOCKED: REMARK    7  A    between atoms: O_7  and  P_8 
DOCKED: REMARK    8  A    between atoms: P_8  and  O_10 
DOCKED: REMARK    9  A    between atoms: P_8  and  O_11 
DOCKED: REMARK   10  A    between atoms: O_12  and  P_13 
DOCKED: REMARK   11  A    between atoms: P_13  and  O_15 
DOCKED: REMARK   12  A    between atoms: P_13  and  O_16 
DOCKED: REMARK   13  A    between atoms: O_17  and  P_18 
DOCKED: REMARK   14  A    between atoms: P_18  and  O_20 
DOCKED: REMARK   15  A    between atoms: P_18  and  O_21 
DOCKED: REMARK   16  A    between atoms: O_22  and  P_23 
DOCKED: REMARK   17  A    between atoms: P_23  and  O_25 
DOCKED: REMARK   18  A    between atoms: P_23  and  O_26 
DOCKED: REMARK   19  A    between atoms: O_27  and  P_28 
DOCKED: REMARK   20  A    between atoms: P_28  and  O_30 
DOCKED: REMARK   21  A    between atoms: P_28  and  O_31 
DOCKED: REMARK   22  A    between atoms: O_32  and  P_33 
DOCKED: REMARK   23  A    between atoms: P_33  and  O_35 
DOCKED: REMARK   24  A    between atoms: P_33  and  O_36 
DOCKED: USER                              x       y       z     vdW  Elec       q    Type
DOCKED: USER                           _______ _______ _______ _____ _____    ______ ____
DOCKED: ROOT
DOCKED: ATOM      1  C   UNL d   1      -1.178  -3.563  34.510 -0.13 -0.01    +0.194 C 
DOCKED: ATOM      2  C   UNL d   1      -2.473  -4.325  34.799 -0.04 -0.01    +0.194 C 
DOCKED: ATOM      3  C   UNL d   1      -3.630  -3.826  33.931 +0.11 +0.01    +0.194 C 
DOCKED: ATOM      4  C   UNL d   1      -3.296  -3.797  32.442 -0.16 +0.00    +0.194 C 
DOCKED: ATOM      5  C   UNL d   1      -1.957  -3.147  32.118 -0.21 -0.00    +0.194 C 
DOCKED: ATOM      6  C   UNL d   1      -0.813  -3.601  33.026 -0.19 +0.01    +0.194 C 
DOCKED: ENDROOT
DOCKED: BRANCH   1   7
DOCKED: ATOM      7  O   UNL d   1      -0.117  -4.199  35.227 -0.08 +0.03    -0.278 OA
DOCKED: BRANCH   7   8
DOCKED: ATOM      8  P   UNL d   1       0.671  -3.349  36.327 -0.15 -0.12    +0.473 P 
DOCKED: ATOM      9  O   UNL d   1       1.514  -4.149  37.257 -0.04 +0.04    -0.228 OA
DOCKED: BRANCH   8  10
DOCKED: ATOM     10  O   UNL d   1       1.508  -2.293  35.473 -0.54 +0.02    -0.303 OA
DOCKED: ATOM     11  H   UNL d   1       1.505  -2.556  34.534 +0.08 +0.01    +0.222 HD
DOCKED: ENDBRANCH   8  10
DOCKED: BRANCH   8  12
DOCKED: ATOM     12  O   UNL d   1      -0.431  -2.429  37.007 -0.25 +0.25    -0.303 OA
DOCKED: ATOM     13  H   UNL d   1      -0.316  -1.474  36.802 -0.37 -0.36    +0.222 HD
DOCKED: ENDBRANCH   8  12
DOCKED: ENDBRANCH   7   8
DOCKED: ENDBRANCH   1   7
DOCKED: BRANCH   2  14
DOCKED: ATOM     14  O   UNL d   1      -2.266  -5.717  34.526 -0.02 +0.01    -0.278 OA
DOCKED: BRANCH  14  15
DOCKED: ATOM     15  P   UNL d   1      -3.055  -6.754  35.456 +0.01 -0.03    +0.473 P 
DOCKED: ATOM     16  O   UNL d   1      -2.233  -7.792  36.154 -0.00 +0.02    -0.228 OA
DOCKED: BRANCH  15  17
DOCKED: ATOM     17  O   UNL d   1      -3.867  -5.828  36.467 -0.01 +0.03    -0.303 OA
DOCKED: ATOM     18  H   UNL d   1      -4.720  -5.550  36.081 +0.03 -0.02    +0.222 HD
DOCKED: ENDBRANCH  15  17
DOCKED: BRANCH  15  19
DOCKED: ATOM     19  O   UNL d   1      -4.220  -7.312  34.528 -0.00 +0.02    -0.303 OA
DOCKED: ATOM     20  H   UNL d   1      -4.809  -6.599  34.221 +0.02 -0.01    +0.222 HD
DOCKED: ENDBRANCH  15  19
DOCKED: ENDBRANCH  14  15
DOCKED: ENDBRANCH   2  14
DOCKED: BRANCH   6  21
DOCKED: ATOM     21  O   UNL d   1       0.257  -2.677  32.835 -0.24 -0.03    -0.278 OA
DOCKED: BRANCH  21  22
DOCKED: ATOM     22  P   UNL d   1       1.688  -3.208  32.373 -0.10 +0.30    +0.473 P 
DOCKED: ATOM     23  O   UNL d   1       2.896  -2.452  32.814 -0.33 -0.13    -0.228 OA
DOCKED: BRANCH  22  24
DOCKED: ATOM     24  O   UNL d   1       1.641  -4.727  32.848 -0.15 -0.17    -0.303 OA
DOCKED: ATOM     25  H   UNL d   1       1.441  -4.740  33.818 +0.06 +0.05    +0.222 HD
DOCKED: ENDBRANCH  22  24
DOCKED: BRANCH  22  26
DOCKED: ATOM     26  O   UNL d   1       1.488  -3.350  30.789 -0.34 -0.35    -0.303 OA
DOCKED: ATOM     27  H   UNL d   1       0.553  -3.574  30.602 +0.11 +0.13    +0.222 HD
DOCKED: ENDBRANCH  22  26
DOCKED: ENDBRANCH  21  22
DOCKED: ENDBRANCH   6  21
DOCKED: BRANCH   3  28
DOCKED: ATOM     28  O   UNL d   1      -4.696  -4.757  34.062 -0.07 +0.01    -0.278 OA
DOCKED: BRANCH  28  29
DOCKED: ATOM     29  P   UNL d   1      -6.162  -4.256  34.432 -0.06 -0.03    +0.473 P 
DOCKED: ATOM     30  O   UNL d   1      -6.561  -4.436  35.851 -0.04 +0.02    -0.228 OA
DOCKED: BRANCH  29  31
DOCKED: ATOM     31  O   UNL d   1      -6.090  -2.754  33.883 -0.35 -0.01    -0.303 OA
DOCKED: ATOM     32  H   UNL d   1      -5.695  -2.768  32.980 +0.06 +0.03    +0.222 HD
DOCKED: ENDBRANCH  29  31
DOCKED: BRANCH  29  33
DOCKED: ATOM     33  O   UNL d   1      -7.053  -4.989  33.335 -0.02 +0.02    -0.303 OA
DOCKED: ATOM     34  H   UNL d   1      -6.522  -5.095  32.508 +0.04 -0.01    +0.222 HD
DOCKED: ENDBRANCH  29  33
DOCKED: ENDBRANCH  28  29
DOCKED: ENDBRANCH   3  28
DOCKED: BRANCH   5  35
DOCKED: ATOM     35  O   UNL d   1      -1.634  -3.565  30.793 -0.12 -0.00    -0.278 OA
DOCKED: BRANCH  35  36
DOCKED: ATOM     36  P   UNL d   1      -1.598  -5.117  30.426 +0.01 +0.02    +0.473 P 
DOCKED: ATOM     37  O   UNL d   1      -1.644  -6.056  31.590 -0.02 -0.00    -0.228 OA
DOCKED: BRANCH  36  38
DOCKED: ATOM     38  O   UNL d   1      -2.835  -5.246  29.432 -0.04 +0.02    -0.303 OA
DOCKED: ATOM     39  H   UNL d   1      -3.666  -5.101  29.932 +0.06 -0.02    +0.222 HD
DOCKED: ENDBRANCH  36  38
DOCKED: BRANCH  36  40
DOCKED: ATOM     40  O   UNL d   1      -0.328  -5.212  29.473 -0.11 -0.06    -0.303 OA
DOCKED: ATOM     41  H   UNL d   1       0.509  -5.065  29.966 +0.08 +0.13    +0.222 HD
DOCKED: ENDBRANCH  36  40
DOCKED: ENDBRANCH  35  36
DOCKED: ENDBRANCH   5  35
DOCKED: BRANCH   4  42
DOCKED: ATOM     42  O   UNL d   1      -4.310  -3.013  31.805 -0.61 -0.01    -0.278 OA
DOCKED: BRANCH  42  43
DOCKED: ATOM     43  P   UNL d   1      -5.345  -3.735  30.828 -0.11 -0.05    +0.473 P 
DOCKED: ATOM     44  O   UNL d   1      -5.121  -3.589  29.363 -0.19 +0.04    -0.228 OA
DOCKED: BRANCH  43  45
DOCKED: ATOM     45  O   UNL d   1      -5.319  -5.240  31.344 -0.03 +0.02    -0.303 OA
DOCKED: ATOM     46  H   UNL d   1      -5.156  -5.285  32.308 +0.04 -0.01    +0.222 HD
DOCKED: ENDBRANCH  43  45
DOCKED: BRANCH  43  47
DOCKED: ATOM     47  O   UNL d   1      -6.768  -3.230  31.365 -0.11 +0.03    -0.303 OA
DOCKED: ATOM     48  H   UNL d   1      -7.008  -3.737  32.168 +0.06 -0.01    +0.222 HD
DOCKED: ENDBRANCH  43  47
DOCKED: ENDBRANCH  42  43
DOCKED: ENDBRANCH   4  42
DOCKED: TORSDOF 24
DOCKED: TER
DOCKED: ENDMDL
________________________________________________________________________________


	BEGINNING GENETIC ALGORITHM DOCKING 10 of 100
Run: 10 Seed: 359752540 380071759 [ Run 10 of 100 GA/GALS ]
Beginning LAMARCKIAN GENETIC ALGORITHM (LGA), with a maximum of 25000000 energy evaluations.

Final-Value: -19.146


	FINAL GENETIC ALGORITHM DOCKED STATE
	_______________________________________________


Detailed state:  trans 2.936 -18.762 15.721 quatxyzw 0.144070 -0.467161 -0.437037 0.754986 center 0.035 0.082 -0.065 ntor 24 94.0297 86.3304 33.6057 8.5400 18.9525 -125.7984 -94.8026 -34.0353 49.7102 69.7064 134.7891 114.8175 7.1597 -180.0000 -48.1309 -170.7021 119.9394 -171.1734 44.4202 -2.9196 -171.2468 0.8684 -14.1038 7.5684
State:	  2.936 -18.762  15.721   0.220 -0.712 -0.666 81.952     94.03   86.33   33.61    8.54   18.95 -125.80  -94.80  -34.04   49.71   69.71  134.79  114.82    7.16 -180.00  -48.13 -170.70  119.94 -171.17   44.42   -2.92 -171.25    0.87  -14.10    7.57

DOCKED: MODEL       10
DOCKED: USER    Run = 10
DOCKED: USER    DPF = D:/Protein_go_brrr/autodock/final/1A3N/IHP/dock.dpf
DOCKED: USER  
DOCKED: USER    Estimated Free Energy of Binding    =   +0.96 kcal/mol  [=(1)+(2)+(3)-(4)]
DOCKED: USER    
DOCKED: USER    (1) Final Intermolecular Energy     =   -6.20 kcal/mol
DOCKED: USER        vdW + Hbond + desolv Energy     =   -5.85 kcal/mol
DOCKED: USER        Electrostatic Energy            =   -0.34 kcal/mol
DOCKED: USER    (2) Final Total Internal Energy     =  -12.95 kcal/mol
DOCKED: USER    (3) Torsional Free Energy           =   +7.16 kcal/mol
DOCKED: USER    (4) Unbound System's Energy  [=(2)] =  -12.95 kcal/mol
DOCKED: USER    
DOCKED: USER    
DOCKED: USER    NEWDPF move IHP_ideal_opt.pdbqt
DOCKED: USER    NEWDPF about 0.035000 0.082000 -0.065000
DOCKED: USER    NEWDPF tran0 2.935915 -18.761778 15.720897
DOCKED: USER    NEWDPF quaternion0 0.144070 -0.467161 -0.437037 0.754986
DOCKED: USER    NEWDPF axisangle0 0.219705 -0.712417 -0.666477 81.951791
DOCKED: USER    NEWDPF quat0 0.219705 -0.712417 -0.666477 81.951791
DOCKED: USER    NEWDPF dihe0 94.03 86.33 33.61 8.54 18.95 -125.80 -94.80 -34.04 49.71 69.71 134.79 114.82 7.16 -180.00 -48.13 -170.70 119.94 -171.17 44.42 -2.92 -171.25 0.87 -14.10 7.57 
DOCKED: USER  keepresnum = 1 
DOCKED: USER  
DOCKED: REMARK  24 active torsions:
DOCKED: REMARK  status: ('A' for Active; 'I' for Inactive)
DOCKED: REMARK    1  A    between atoms: C_1  and  O_7 
DOCKED: REMARK    2  A    between atoms: C_2  and  O_12 
DOCKED: REMARK    3  A    between atoms: C_3  and  O_17 
DOCKED: REMARK    4  A    between atoms: C_4  and  O_22 
DOCKED: REMARK    5  A    between atoms: C_5  and  O_27 
DOCKED: REMARK    6  A    between atoms: C_6  and  O_32 
DOCKED: REMARK    7  A    between atoms: O_7  and  P_8 
DOCKED: REMARK    8  A    between atoms: P_8  and  O_10 
DOCKED: REMARK    9  A    between atoms: P_8  and  O_11 
DOCKED: REMARK   10  A    between atoms: O_12  and  P_13 
DOCKED: REMARK   11  A    between atoms: P_13  and  O_15 
DOCKED: REMARK   12  A    between atoms: P_13  and  O_16 
DOCKED: REMARK   13  A    between atoms: O_17  and  P_18 
DOCKED: REMARK   14  A    between atoms: P_18  and  O_20 
DOCKED: REMARK   15  A    between atoms: P_18  and  O_21 
DOCKED: REMARK   16  A    between atoms: O_22  and  P_23 
DOCKED: REMARK   17  A    between atoms: P_23  and  O_25 
DOCKED: REMARK   18  A    between atoms: P_23  and  O_26 
DOCKED: REMARK   19  A    between atoms: O_27  and  P_28 
DOCKED: REMARK   20  A    between atoms: P_28  and  O_30 
DOCKED: REMARK   21  A    between atoms: P_28  and  O_31 
DOCKED: REMARK   22  A    between atoms: O_32  and  P_33 
DOCKED: REMARK   23  A    between atoms: P_33  and  O_35 
DOCKED: REMARK   24  A    between atoms: P_33  and  O_36 
DOCKED: USER                              x       y       z     vdW  Elec       q    Type
DOCKED: USER                           _______ _______ _______ _____ _____    ______ ____
DOCKED: ROOT
DOCKED: ATOM      1  C   UNL d   1       4.327 -18.120  14.923 -0.13 +0.05    +0.194 C 
DOCKED: ATOM      2  C   UNL d   1       4.526 -19.470  15.614 -0.08 +0.03    +0.194 C 
DOCKED: ATOM      3  C   UNL d   1       3.864 -19.503  16.993 -0.08 +0.02    +0.194 C 
DOCKED: ATOM      4  C   UNL d   1       2.398 -19.078  16.967 -0.20 -0.02    +0.194 C 
DOCKED: ATOM      5  C   UNL d   1       2.138 -17.795  16.189 -0.27 +0.00    +0.194 C 
DOCKED: ATOM      6  C   UNL d   1       2.850 -17.736  14.836 -0.20 +0.01    +0.194 C 
DOCKED: ENDROOT
DOCKED: BRANCH   1   7
DOCKED: ATOM      7  O   UNL d   1       4.819 -18.228  13.585 -0.15 -0.13    -0.278 OA
DOCKED: BRANCH   7   8
DOCKED: ATOM      8  P   UNL d   1       6.397 -18.160  13.348 -0.05 +0.51    +0.473 P 
DOCKED: ATOM      9  O   UNL d   1       7.187 -19.203  14.058 -0.05 -0.17    -0.228 OA
DOCKED: BRANCH   8  10
DOCKED: ATOM     10  O   UNL d   1       6.554 -18.226  11.762 -0.77 -0.57    -0.303 OA
DOCKED: ATOM     11  H   UNL d   1       6.224 -19.084  11.436 +0.09 +0.25    +0.222 HD
DOCKED: ENDBRANCH   8  10
DOCKED: BRANCH   8  12
DOCKED: ATOM     12  O   UNL d   1       6.797 -16.655  13.660 -0.08 -0.44    -0.303 OA
DOCKED: ATOM     13  H   UNL d   1       6.335 -16.288  14.447 +0.06 +0.20    +0.222 HD
DOCKED: ENDBRANCH   8  12
DOCKED: ENDBRANCH   7   8
DOCKED: ENDBRANCH   1   7
DOCKED: BRANCH   2  14
DOCKED: ATOM     14  O   UNL d   1       3.944 -20.500  14.804 -0.07 +0.03    -0.278 OA
DOCKED: BRANCH  14  15
DOCKED: ATOM     15  P   UNL d   1       4.876 -21.758  14.468 -0.03 +0.01    +0.473 P 
DOCKED: ATOM     16  O   UNL d   1       5.064 -22.087  13.020 -0.15 -0.02    -0.228 OA
DOCKED: BRANCH  15  17
DOCKED: ATOM     17  O   UNL d   1       6.248 -21.434  15.211 -0.01 -0.07    -0.303 OA
DOCKED: ATOM     18  H   UNL d   1       6.656 -20.621  14.857 +0.04 +0.08    +0.222 HD
DOCKED: ENDBRANCH  15  17
DOCKED: BRANCH  15  19
DOCKED: ATOM     19  O   UNL d   1       4.295 -22.934  15.368 -0.05 +0.00    -0.303 OA
DOCKED: ATOM     20  H   UNL d   1       4.206 -22.663  16.301 +0.03 -0.00    +0.222 HD
DOCKED: ENDBRANCH  15  19
DOCKED: ENDBRANCH  14  15
DOCKED: ENDBRANCH   2  14
DOCKED: BRANCH   6  21
DOCKED: ATOM     21  O   UNL d   1       2.795 -16.380  14.400 -0.19 -0.03    -0.278 OA
DOCKED: BRANCH  21  22
DOCKED: ATOM     22  P   UNL d   1       3.920 -15.351  14.872 -0.05 +0.15    +0.473 P 
DOCKED: ATOM     23  O   UNL d   1       4.752 -15.710  16.056 -0.08 -0.08    -0.228 OA
DOCKED: BRANCH  22  24
DOCKED: ATOM     24  O   UNL d   1       4.738 -15.123  13.526 -0.10 -0.18    -0.303 OA
DOCKED: ATOM     25  H   UNL d   1       4.919 -16.010  13.121 +0.12 +0.16    +0.222 HD
DOCKED: ENDBRANCH  22  24
DOCKED: BRANCH  22  26
DOCKED: ATOM     26  O   UNL d   1       3.085 -13.987  14.986 -0.15 -0.07    -0.303 OA
DOCKED: ATOM     27  H   UNL d   1       2.368 -14.102  15.643 +0.14 +0.05    +0.222 HD
DOCKED: ENDBRANCH  22  26
DOCKED: ENDBRANCH  21  22
DOCKED: ENDBRANCH   6  21
DOCKED: BRANCH   3  28
DOCKED: ATOM     28  O   UNL d   1       3.857 -20.855  17.433 -0.03 -0.01    -0.278 OA
DOCKED: BRANCH  28  29
DOCKED: ATOM     29  P   UNL d   1       4.766 -21.307  18.660 +0.01 +0.05    +0.473 P 
DOCKED: ATOM     30  O   UNL d   1       4.408 -22.610  19.277 -0.01 -0.01    -0.228 OA
DOCKED: BRANCH  29  31
DOCKED: ATOM     31  O   UNL d   1       6.215 -21.194  17.991 +0.00 -0.06    -0.303 OA
DOCKED: ATOM     32  H   UNL d   1       6.172 -21.575  17.083 +0.02 +0.04    +0.222 HD
DOCKED: ENDBRANCH  29  31
DOCKED: BRANCH  29  33
DOCKED: ATOM     33  O   UNL d   1       4.714 -20.026  19.604 -0.05 -0.05    -0.303 OA
DOCKED: ATOM     34  H   UNL d   1       3.884 -19.523  19.417 +0.05 +0.04    +0.222 HD
DOCKED: ENDBRANCH  29  33
DOCKED: ENDBRANCH  28  29
DOCKED: ENDBRANCH   3  28
DOCKED: BRANCH   5  35
DOCKED: ATOM     35  O   UNL d   1       0.736 -17.779  15.927 -0.33 +0.06    -0.278 OA
DOCKED: BRANCH  35  36
DOCKED: ATOM     36  P   UNL d   1      -0.185 -16.631  16.543 -0.37 +0.22    +0.473 P 
DOCKED: ATOM     37  O   UNL d   1      -1.540 -16.491  15.926 -0.87 -0.21    -0.228 OA
DOCKED: BRANCH  36  38
DOCKED: ATOM     38  O   UNL d   1      -0.205 -17.022  18.086 -0.52 -0.20    -0.303 OA
DOCKED: ATOM     39  H   UNL d   1       0.040 -17.968  18.181 +0.07 +0.11    +0.222 HD
DOCKED: ENDBRANCH  36  38
DOCKED: BRANCH  36  40
DOCKED: ATOM     40  O   UNL d   1       0.771 -15.360  16.483 -0.90 -0.13    -0.303 OA
DOCKED: ATOM     41  H   UNL d   1       1.424 -15.430  15.751 +0.13 +0.04    +0.222 HD
DOCKED: ENDBRANCH  36  40
DOCKED: ENDBRANCH  35  36
DOCKED: ENDBRANCH   5  35
DOCKED: BRANCH   4  42
DOCKED: ATOM     42  O   UNL d   1       2.013 -18.833  18.324 -0.18 -0.02    -0.278 OA
DOCKED: BRANCH  42  43
DOCKED: ATOM     43  P   UNL d   1       1.126 -19.920  19.083 -0.06 -0.01    +0.473 P 
DOCKED: ATOM     44  O   UNL d   1      -0.151 -19.458  19.696 -0.30 -0.07    -0.228 OA
DOCKED: BRANCH  43  45
DOCKED: ATOM     45  O   UNL d   1       0.946 -21.054  17.982 -0.11 +0.15    -0.303 OA
DOCKED: ATOM     46  H   UNL d   1       1.807 -21.438  17.719 +0.05 -0.06    +0.222 HD
DOCKED: ENDBRANCH  43  45
DOCKED: BRANCH  43  47
DOCKED: ATOM     47  O   UNL d   1       2.168 -20.605  20.090 -0.08 -0.02    -0.303 OA
DOCKED: ATOM     48  H   UNL d   1       2.843 -21.092  19.573 +0.04 +0.01    +0.222 HD
DOCKED: ENDBRANCH  43  47
DOCKED: ENDBRANCH  42  43
DOCKED: ENDBRANCH   4  42
DOCKED: TORSDOF 24
DOCKED: TER
DOCKED: ENDMDL
________________________________________________________________________________


	BEGINNING GENETIC ALGORITHM DOCKING 11 of 100
Run: 11 Seed: 368803844 686965879 [ Run 11 of 100 GA/GALS ]
Beginning LAMARCKIAN GENETIC ALGORITHM (LGA), with a maximum of 25000000 energy evaluations.

Final-Value: -15.815


	FINAL GENETIC ALGORITHM DOCKED STATE
	_______________________________________________


Detailed state:  trans 30.385 32.126 7.773 quatxyzw -0.166415 0.061843 -0.242440 -0.953784 center 0.035 0.082 -0.065 ntor 24 129.5107 -0.3558 -166.3564 -31.7548 91.9847 98.7945 -58.3926 2.1458 109.3473 -38.7114 31.6936 -155.5770 22.0519 78.7156 -123.9037 54.7248 -143.5157 136.6618 -1.0556 -44.1895 -12.5062 -46.7223 -0.7415 -7.2158
State:	 30.385  32.126   7.773  -0.554  0.206 -0.807 -34.974    129.51   -0.36 -166.36  -31.75   91.98   98.79  -58.39    2.15  109.35  -38.71   31.69 -155.58   22.05   78.72 -123.90   54.72 -143.52  136.66   -1.06  -44.19  -12.51  -46.72   -0.74   -7.22

DOCKED: MODEL       11
DOCKED: USER    Run = 11
DOCKED: USER    DPF = D:/Protein_go_brrr/autodock/final/1A3N/IHP/dock.dpf
DOCKED: USER  
DOCKED: USER    Estimated Free Energy of Binding    =   +4.95 kcal/mol  [=(1)+(2)+(3)-(4)]
DOCKED: USER    
DOCKED: USER    (1) Final Intermolecular Energy     =   -2.21 kcal/mol
DOCKED: USER        vdW + Hbond + desolv Energy     =   -1.77 kcal/mol
DOCKED: USER        Electrostatic Energy            =   -0.44 kcal/mol
DOCKED: USER    (2) Final Total Internal Energy     =  -13.61 kcal/mol
DOCKED: USER    (3) Torsional Free Energy           =   +7.16 kcal/mol
DOCKED: USER    (4) Unbound System's Energy  [=(2)] =  -13.61 kcal/mol
DOCKED: USER    
DOCKED: USER    
DOCKED: USER    NEWDPF move IHP_ideal_opt.pdbqt
DOCKED: USER    NEWDPF about 0.035000 0.082000 -0.065000
DOCKED: USER    NEWDPF tran0 30.385238 32.125660 7.773047
DOCKED: USER    NEWDPF quaternion0 -0.166415 0.061843 -0.242440 -0.953784
DOCKED: USER    NEWDPF axisangle0 -0.553807 0.205806 -0.806810 -34.974325
DOCKED: USER    NEWDPF quat0 -0.553807 0.205806 -0.806810 -34.974325
DOCKED: USER    NEWDPF dihe0 129.51 -0.36 -166.36 -31.75 91.98 98.79 -58.39 2.15 109.35 -38.71 31.69 -155.58 22.05 78.72 -123.90 54.72 -143.52 136.66 -1.06 -44.19 -12.51 -46.72 -0.74 -7.22 
DOCKED: USER  keepresnum = 1 
DOCKED: USER  
DOCKED: REMARK  24 active torsions:
DOCKED: REMARK  status: ('A' for Active; 'I' for Inactive)
DOCKED: REMARK    1  A    between atoms: C_1  and  O_7 
DOCKED: REMARK    2  A    between atoms: C_2  and  O_12 
DOCKED: REMARK    3  A    between atoms: C_3  and  O_17 
DOCKED: REMARK    4  A    between atoms: C_4  and  O_22 
DOCKED: REMARK    5  A    between atoms: C_5  and  O_27 
DOCKED: REMARK    6  A    between atoms: C_6  and  O_32 
DOCKED: REMARK    7  A    between atoms: O_7  and  P_8 
DOCKED: REMARK    8  A    between atoms: P_8  and  O_10 
DOCKED: REMARK    9  A    between atoms: P_8  and  O_11 
DOCKED: REMARK   10  A    between atoms: O_12  and  P_13 
DOCKED: REMARK   11  A    between atoms: P_13  and  O_15 
DOCKED: REMARK   12  A    between atoms: P_13  and  O_16 
DOCKED: REMARK   13  A    between atoms: O_17  and  P_18 
DOCKED: REMARK   14  A    between atoms: P_18  and  O_20 
DOCKED: REMARK   15  A    between atoms: P_18  and  O_21 
DOCKED: REMARK   16  A    between atoms: O_22  and  P_23 
DOCKED: REMARK   17  A    between atoms: P_23  and  O_25 
DOCKED: REMARK   18  A    between atoms: P_23  and  O_26 
DOCKED: REMARK   19  A    between atoms: O_27  and  P_28 
DOCKED: REMARK   20  A    between atoms: P_28  and  O_30 
DOCKED: REMARK   21  A    between atoms: P_28  and  O_31 
DOCKED: REMARK   22  A    between atoms: O_32  and  P_33 
DOCKED: REMARK   23  A    between atoms: P_33  and  O_35 
DOCKED: REMARK   24  A    between atoms: P_33  and  O_36 
DOCKED: USER                              x       y       z     vdW  Elec       q    Type
DOCKED: USER                           _______ _______ _______ _____ _____    ______ ____
DOCKED: ROOT
DOCKED: ATOM      1  C   UNL d   1      31.246  31.013   8.776 -0.01 -0.04    +0.194 C 
DOCKED: ATOM      2  C   UNL d   1      29.726  30.845   8.756 -0.01 -0.03    +0.194 C 
DOCKED: ATOM      3  C   UNL d   1      29.006  32.193   8.833 -0.00 -0.02    +0.194 C 
DOCKED: ATOM      4  C   UNL d   1      29.489  33.194   7.786 +0.00 -0.01    +0.194 C 
DOCKED: ATOM      5  C   UNL d   1      31.005  33.309   7.692 +0.00 -0.01    +0.194 C 
DOCKED: ATOM      6  C   UNL d   1      31.729  31.961   7.677 -0.00 -0.02    +0.194 C 
DOCKED: ENDROOT
DOCKED: BRANCH   1   7
DOCKED: ATOM      7  O   UNL d   1      31.839  29.736   8.529 -0.05 +0.12    -0.278 OA
DOCKED: BRANCH   7   8
DOCKED: ATOM      8  P   UNL d   1      32.871  29.158   9.602 -0.00 -0.25    +0.473 P 
DOCKED: ATOM      9  O   UNL d   1      32.258  28.665  10.865 -0.07 +0.11    -0.228 OA
DOCKED: BRANCH   8  10
DOCKED: ATOM     10  O   UNL d   1      33.664  28.025   8.806 +0.02 +0.28    -0.303 OA
DOCKED: ATOM     11  H   UNL d   1      33.092  27.657   8.107 -0.49 -0.39    +0.222 HD
DOCKED: ENDBRANCH   8  10
DOCKED: BRANCH   8  12
DOCKED: ATOM     12  O   UNL d   1      33.977  30.287   9.762 -0.00 +0.05    -0.303 OA
DOCKED: ATOM     13  H   UNL d   1      34.284  30.651   8.902 +0.01 -0.03    +0.222 HD
DOCKED: ENDBRANCH   8  12
DOCKED: ENDBRANCH   7   8
DOCKED: ENDBRANCH   1   7
DOCKED: BRANCH   2  14
DOCKED: ATOM     14  O   UNL d   1      29.344  30.192   7.539 -0.02 +0.06    -0.278 OA
DOCKED: BRANCH  14  15
DOCKED: ATOM     15  P   UNL d   1      29.348  28.591   7.554 -0.05 -0.19    +0.473 P 
DOCKED: ATOM     16  O   UNL d   1      28.157  27.910   6.958 -0.21 +0.08    -0.228 OA
DOCKED: BRANCH  15  17
DOCKED: ATOM     17  O   UNL d   1      30.711  28.200   6.827 -0.10 +0.19    -0.303 OA
DOCKED: ATOM     18  H   UNL d   1      31.412  28.001   7.477 -0.54 -0.30    +0.222 HD
DOCKED: ENDBRANCH  15  17
DOCKED: BRANCH  15  19
DOCKED: ATOM     19  O   UNL d   1      29.671  28.209   9.064 -0.07 +0.17    -0.303 OA
DOCKED: ATOM     20  H   UNL d   1      30.629  28.101   9.212 -0.19 -0.27    +0.222 HD
DOCKED: ENDBRANCH  15  19
DOCKED: ENDBRANCH  14  15
DOCKED: ENDBRANCH   2  14
DOCKED: BRANCH   6  21
DOCKED: ATOM     21  O   UNL d   1      33.106  32.230   7.933 +0.00 +0.02    -0.278 OA
DOCKED: BRANCH  21  22
DOCKED: ATOM     22  P   UNL d   1      34.193  31.933   6.804 +0.00 -0.03    +0.473 P 
DOCKED: ATOM     23  O   UNL d   1      34.887  30.613   6.823 -0.00 +0.02    -0.228 OA
DOCKED: BRANCH  22  24
DOCKED: ATOM     24  O   UNL d   1      33.373  32.237   5.474 +0.00 +0.02    -0.303 OA
DOCKED: ATOM     25  H   UNL d   1      32.655  32.883   5.696 +0.00 -0.01    +0.222 HD
DOCKED: ENDBRANCH  22  24
DOCKED: BRANCH  22  26
DOCKED: ATOM     26  O   UNL d   1      35.137  33.225   6.913 +0.00 +0.01    -0.303 OA
DOCKED: ATOM     27  H   UNL d   1      34.683  33.990   6.506 +0.00 -0.01    +0.222 HD
DOCKED: ENDBRANCH  22  26
DOCKED: ENDBRANCH  21  22
DOCKED: ENDBRANCH   6  21
DOCKED: BRANCH   3  28
DOCKED: ATOM     28  O   UNL d   1      27.635  31.964   8.531 -0.00 +0.03    -0.278 OA
DOCKED: BRANCH  28  29
DOCKED: ATOM     29  P   UNL d   1      26.742  31.054   9.485 +0.01 -0.04    +0.473 P 
DOCKED: ATOM     30  O   UNL d   1      27.147  31.034  10.914 -0.00 +0.01    -0.228 OA
DOCKED: BRANCH  29  31
DOCKED: ATOM     31  O   UNL d   1      25.290  31.637   9.149 +0.00 +0.02    -0.303 OA
DOCKED: ATOM     32  H   UNL d   1      25.395  32.424   8.565 +0.00 -0.02    +0.222 HD
DOCKED: ENDBRANCH  29  31
DOCKED: BRANCH  29  33
DOCKED: ATOM     33  O   UNL d   1      26.747  29.659   8.716 -0.02 +0.05    -0.303 OA
DOCKED: ATOM     34  H   UNL d   1      27.678  29.331   8.652 +0.04 -0.04    +0.222 HD
DOCKED: ENDBRANCH  29  33
DOCKED: ENDBRANCH  28  29
DOCKED: ENDBRANCH   3  28
DOCKED: BRANCH   5  35
DOCKED: ATOM     35  O   UNL d   1      31.269  33.940   6.440 +0.00 +0.01    -0.278 OA
DOCKED: BRANCH  35  36
DOCKED: ATOM     36  P   UNL d   1      32.241  35.202   6.364 +0.00 -0.01    +0.473 P 
DOCKED: ATOM     37  O   UNL d   1      31.564  36.535   6.312 +0.00 +0.00    -0.228 OA
DOCKED: BRANCH  36  38
DOCKED: ATOM     38  O   UNL d   1      33.159  34.984   7.646 +0.00 +0.01    -0.303 OA
DOCKED: ATOM     39  H   UNL d   1      33.362  34.028   7.737 +0.00 -0.01    +0.222 HD
DOCKED: ENDBRANCH  36  38
DOCKED: BRANCH  36  40
DOCKED: ATOM     40  O   UNL d   1      33.190  34.827   5.145 +0.00 +0.01    -0.303 OA
DOCKED: ATOM     41  H   UNL d   1      33.902  34.205   5.415 +0.00 -0.01    +0.222 HD
DOCKED: ENDBRANCH  36  40
DOCKED: ENDBRANCH  35  36
DOCKED: ENDBRANCH   5  35
DOCKED: BRANCH   4  42
DOCKED: ATOM     42  O   UNL d   1      28.993  34.478   8.179 +0.00 +0.01    -0.278 OA
DOCKED: BRANCH  42  43
DOCKED: ATOM     43  P   UNL d   1      27.994  35.250   7.205 +0.00 -0.02    +0.473 P 
DOCKED: ATOM     44  O   UNL d   1      27.541  36.606   7.620 +0.00 +0.01    -0.228 OA
DOCKED: BRANCH  43  45
DOCKED: ATOM     45  O   UNL d   1      28.769  35.220   5.815 +0.00 +0.01    -0.303 OA
DOCKED: ATOM     46  H   UNL d   1      29.724  35.392   5.934 +0.00 -0.01    +0.222 HD
DOCKED: ENDBRANCH  43  45
DOCKED: BRANCH  43  47
DOCKED: ATOM     47  O   UNL d   1      26.829  34.179   6.951 +0.00 +0.02    -0.303 OA
DOCKED: ATOM     48  H   UNL d   1      26.813  33.538   7.692 +0.00 -0.01    +0.222 HD
DOCKED: ENDBRANCH  43  47
DOCKED: ENDBRANCH  42  43
DOCKED: ENDBRANCH   4  42
DOCKED: TORSDOF 24
DOCKED: TER
DOCKED: ENDMDL
________________________________________________________________________________


	BEGINNING GENETIC ALGORITHM DOCKING 12 of 100
Run: 12 Seed: 1138293215 1029968050 [ Run 12 of 100 GA/GALS ]
Beginning LAMARCKIAN GENETIC ALGORITHM (LGA), with a maximum of 25000000 energy evaluations.

Final-Value: -18.865


	FINAL GENETIC ALGORITHM DOCKED STATE
	_______________________________________________


Detailed state:  trans 7.497 -5.201 35.820 quatxyzw 0.305410 0.570137 -0.333439 0.685920 center 0.035 0.082 -0.065 ntor 24 -180.0000 1.7903 102.0217 153.0713 -41.9979 122.1203 -5.6473 175.1370 144.0721 -36.6543 62.2252 -64.4208 22.5888 82.0065 60.1608 133.0938 114.7805 27.3052 -130.1429 -16.2957 179.7283 -31.9645 147.9129 -161.5517
State:	  7.497  -5.201  35.820   0.420  0.784 -0.458 93.384   -180.00    1.79  102.02  153.07  -42.00  122.12   -5.65  175.14  144.07  -36.65   62.23  -64.42   22.59   82.01   60.16  133.09  114.78   27.31 -130.14  -16.30  179.73  -31.96  147.91 -161.55

DOCKED: MODEL       12
DOCKED: USER    Run = 12
DOCKED: USER    DPF = D:/Protein_go_brrr/autodock/final/1A3N/IHP/dock.dpf
DOCKED: USER  
DOCKED: USER    Estimated Free Energy of Binding    =   +1.31 kcal/mol  [=(1)+(2)+(3)-(4)]
DOCKED: USER    
DOCKED: USER    (1) Final Intermolecular Energy     =   -5.84 kcal/mol
DOCKED: USER        vdW + Hbond + desolv Energy     =   -5.61 kcal/mol
DOCKED: USER        Electrostatic Energy            =   -0.23 kcal/mol
DOCKED: USER    (2) Final Total Internal Energy     =  -13.02 kcal/mol
DOCKED: USER    (3) Torsional Free Energy           =   +7.16 kcal/mol
DOCKED: USER    (4) Unbound System's Energy  [=(2)] =  -13.02 kcal/mol
DOCKED: USER    
DOCKED: USER    
DOCKED: USER    NEWDPF move IHP_ideal_opt.pdbqt
DOCKED: USER    NEWDPF about 0.035000 0.082000 -0.065000
DOCKED: USER    NEWDPF tran0 7.496781 -5.201001 35.820465
DOCKED: USER    NEWDPF quaternion0 0.305410 0.570137 -0.333439 0.685920
DOCKED: USER    NEWDPF axisangle0 0.419706 0.783504 -0.458224 93.383947
DOCKED: USER    NEWDPF quat0 0.419706 0.783504 -0.458224 93.383947
DOCKED: USER    NEWDPF dihe0 -180.00 1.79 102.02 153.07 -42.00 122.12 -5.65 175.14 144.07 -36.65 62.23 -64.42 22.59 82.01 60.16 133.09 114.78 27.31 -130.14 -16.30 179.73 -31.96 147.91 -161.55 
DOCKED: USER  keepresnum = 1 
DOCKED: USER  
DOCKED: REMARK  24 active torsions:
DOCKED: REMARK  status: ('A' for Active; 'I' for Inactive)
DOCKED: REMARK    1  A    between atoms: C_1  and  O_7 
DOCKED: REMARK    2  A    between atoms: C_2  and  O_12 
DOCKED: REMARK    3  A    between atoms: C_3  and  O_17 
DOCKED: REMARK    4  A    between atoms: C_4  and  O_22 
DOCKED: REMARK    5  A    between atoms: C_5  and  O_27 
DOCKED: REMARK    6  A    between atoms: C_6  and  O_32 
DOCKED: REMARK    7  A    between atoms: O_7  and  P_8 
DOCKED: REMARK    8  A    between atoms: P_8  and  O_10 
DOCKED: REMARK    9  A    between atoms: P_8  and  O_11 
DOCKED: REMARK   10  A    between atoms: O_12  and  P_13 
DOCKED: REMARK   11  A    between atoms: P_13  and  O_15 
DOCKED: REMARK   12  A    between atoms: P_13  and  O_16 
DOCKED: REMARK   13  A    between atoms: O_17  and  P_18 
DOCKED: REMARK   14  A    between atoms: P_18  and  O_20 
DOCKED: REMARK   15  A    between atoms: P_18  and  O_21 
DOCKED: REMARK   16  A    between atoms: O_22  and  P_23 
DOCKED: REMARK   17  A    between atoms: P_23  and  O_25 
DOCKED: REMARK   18  A    between atoms: P_23  and  O_26 
DOCKED: REMARK   19  A    between atoms: O_27  and  P_28 
DOCKED: REMARK   20  A    between atoms: P_28  and  O_30 
DOCKED: REMARK   21  A    between atoms: P_28  and  O_31 
DOCKED: REMARK   22  A    between atoms: O_32  and  P_33 
DOCKED: REMARK   23  A    between atoms: P_33  and  O_35 
DOCKED: REMARK   24  A    between atoms: P_33  and  O_36 
DOCKED: USER                              x       y       z     vdW  Elec       q    Type
DOCKED: USER                           _______ _______ _______ _____ _____    ______ ____
DOCKED: ROOT
DOCKED: ATOM      1  C   UNL d   1       6.974  -4.686  37.384 -0.03 -0.02    +0.194 C 
DOCKED: ATOM      2  C   UNL d   1       7.266  -6.181  37.245 -0.06 -0.03    +0.194 C 
DOCKED: ATOM      3  C   UNL d   1       6.707  -6.748  35.938 -0.09 -0.06    +0.194 C 
DOCKED: ATOM      4  C   UNL d   1       7.139  -5.957  34.705 -0.16 -0.07    +0.194 C 
DOCKED: ATOM      5  C   UNL d   1       6.972  -4.450  34.845 -0.10 -0.04    +0.194 C 
DOCKED: ATOM      6  C   UNL d   1       7.476  -3.891  36.178 -0.11 -0.03    +0.194 C 
DOCKED: ENDROOT
DOCKED: BRANCH   1   7
DOCKED: ATOM      7  O   UNL d   1       7.671  -4.200  38.534 -0.04 +0.02    -0.278 OA
DOCKED: BRANCH   7   8
DOCKED: ATOM      8  P   UNL d   1       8.957  -3.279  38.309 -0.11 -0.03    +0.473 P 
DOCKED: ATOM      9  O   UNL d   1       8.666  -1.887  37.869 -0.25 +0.03    -0.228 OA
DOCKED: BRANCH   8  10
DOCKED: ATOM     10  O   UNL d   1       9.731  -3.349  39.702 -0.10 -0.02    -0.303 OA
DOCKED: ATOM     11  H   UNL d   1       9.465  -4.154  40.184 +0.06 +0.03    +0.222 HD
DOCKED: ENDBRANCH   8  10
DOCKED: BRANCH   8  12
DOCKED: ATOM     12  O   UNL d   1       9.908  -4.123  37.357 +0.09 +0.06    -0.303 OA
DOCKED: ATOM     13  H   UNL d   1       9.968  -5.071  37.613 -0.38 -0.07    +0.222 HD
DOCKED: ENDBRANCH   8  12
DOCKED: ENDBRANCH   7   8
DOCKED: ENDBRANCH   1   7
DOCKED: BRANCH   2  14
DOCKED: ATOM     14  O   UNL d   1       8.685  -6.382  37.259 -0.16 +0.06    -0.278 OA
DOCKED: BRANCH  14  15
DOCKED: ATOM     15  P   UNL d   1       9.277  -7.212  38.494 -0.14 +0.09    +0.473 P 
DOCKED: ATOM     16  O   UNL d   1      10.330  -8.228  38.178 -0.26 -0.09    -0.228 OA
DOCKED: BRANCH  15  17
DOCKED: ATOM     17  O   UNL d   1       9.783  -6.092  39.507 -0.26 -0.13    -0.303 OA
DOCKED: ATOM     18  H   UNL d   1       9.533  -5.200  39.199 +0.05 +0.03    +0.222 HD
DOCKED: ENDBRANCH  15  17
DOCKED: BRANCH  15  19
DOCKED: ATOM     19  O   UNL d   1       7.993  -7.769  39.250 -0.04 -0.06    -0.303 OA
DOCKED: ATOM     20  H   UNL d   1       7.755  -8.664  38.945 +0.04 +0.02    +0.222 HD
DOCKED: ENDBRANCH  15  19
DOCKED: ENDBRANCH  14  15
DOCKED: ENDBRANCH   2  14
DOCKED: BRANCH   6  21
DOCKED: ATOM     21  O   UNL d   1       6.949  -2.572  36.297 -0.13 +0.04    -0.278 OA
DOCKED: BRANCH  21  22
DOCKED: ATOM     22  P   UNL d   1       5.424  -2.363  36.716 -0.09 -0.08    +0.473 P 
DOCKED: ATOM     23  O   UNL d   1       5.102  -2.238  38.167 -0.11 +0.05    -0.228 OA
DOCKED: BRANCH  22  24
DOCKED: ATOM     24  O   UNL d   1       5.012  -1.106  35.830 -0.26 +0.09    -0.303 OA
DOCKED: ATOM     25  H   UNL d   1       4.918  -0.324  36.430 -0.37 -0.15    +0.222 HD
DOCKED: ENDBRANCH  22  24
DOCKED: BRANCH  22  26
DOCKED: ATOM     26  O   UNL d   1       4.705  -3.566  35.937 -0.03 +0.02    -0.303 OA
DOCKED: ATOM     27  H   UNL d   1       4.964  -3.540  34.994 +0.09 +0.00    +0.222 HD
DOCKED: ENDBRANCH  22  26
DOCKED: ENDBRANCH  21  22
DOCKED: ENDBRANCH   6  21
DOCKED: BRANCH   3  28
DOCKED: ATOM     28  O   UNL d   1       7.257  -8.047  35.765 -0.18 +0.16    -0.278 OA
DOCKED: BRANCH  28  29
DOCKED: ATOM     29  P   UNL d   1       6.665  -9.286  36.574 -0.08 -0.19    +0.473 P 
DOCKED: ATOM     30  O   UNL d   1       5.861 -10.247  35.776 -0.10 +0.09    -0.228 OA
DOCKED: BRANCH  29  31
DOCKED: ATOM     31  O   UNL d   1       8.005  -9.844  37.248 -0.12 +0.15    -0.303 OA
DOCKED: ATOM     32  H   UNL d   1       8.506  -9.085  37.627 +0.06 -0.07    +0.222 HD
DOCKED: ENDBRANCH  29  31
DOCKED: BRANCH  29  33
DOCKED: ATOM     33  O   UNL d   1       5.931  -8.569  37.791 -0.01 +0.04    -0.303 OA
DOCKED: ATOM     34  H   UNL d   1       6.267  -8.950  38.639 +0.03 -0.01    +0.222 HD
DOCKED: ENDBRANCH  29  33
DOCKED: ENDBRANCH  28  29
DOCKED: ENDBRANCH   3  28
DOCKED: BRANCH   5  35
DOCKED: ATOM     35  O   UNL d   1       7.777  -3.874  33.818 -0.13 +0.07    -0.278 OA
DOCKED: BRANCH  35  36
DOCKED: ATOM     36  P   UNL d   1       9.348  -3.697  34.031 -0.16 -0.18    +0.473 P 
DOCKED: ATOM     37  O   UNL d   1      10.156  -3.555  32.781 -0.45 +0.10    -0.228 OA
DOCKED: BRANCH  36  38
DOCKED: ATOM     38  O   UNL d   1       9.405  -2.432  34.995 -0.19 +0.08    -0.303 OA
DOCKED: ATOM     39  H   UNL d   1       9.126  -2.702  35.897 +0.13 -0.04    +0.222 HD
DOCKED: ENDBRANCH  36  38
DOCKED: BRANCH  36  40
DOCKED: ATOM     40  O   UNL d   1       9.702  -4.921  34.984 -0.29 +0.15    -0.303 OA
DOCKED: ATOM     41  H   UNL d   1       9.450  -4.741  35.917 +0.06 -0.08    +0.222 HD
DOCKED: ENDBRANCH  36  40
DOCKED: ENDBRANCH  35  36
DOCKED: ENDBRANCH   5  35
DOCKED: BRANCH   4  42
DOCKED: ATOM     42  O   UNL d   1       6.296  -6.377  33.627 -0.18 +0.11    -0.278 OA
DOCKED: BRANCH  42  43
DOCKED: ATOM     43  P   UNL d   1       4.898  -5.639  33.410 -0.12 +0.09    +0.473 P 
DOCKED: ATOM     44  O   UNL d   1       4.930  -4.257  32.855 -0.56 -0.19    -0.228 OA
DOCKED: BRANCH  43  45
DOCKED: ATOM     45  O   UNL d   1       4.090  -6.680  32.518 -0.24 -0.06    -0.303 OA
DOCKED: ATOM     46  H   UNL d   1       4.670  -7.395  32.188 -0.14 -0.11    +0.222 HD
DOCKED: ENDBRANCH  43  45
DOCKED: BRANCH  43  47
DOCKED: ATOM     47  O   UNL d   1       4.175  -5.798  34.832 -0.04 -0.01    -0.303 OA
DOCKED: ATOM     48  H   UNL d   1       4.067  -4.913  35.239 +0.06 +0.01    +0.222 HD
DOCKED: ENDBRANCH  43  47
DOCKED: ENDBRANCH  42  43
DOCKED: ENDBRANCH   4  42
DOCKED: TORSDOF 24
DOCKED: TER
DOCKED: ENDMDL
________________________________________________________________________________


	BEGINNING GENETIC ALGORITHM DOCKING 13 of 100
Run: 13 Seed: 1835534819 1696730059 [ Run 13 of 100 GA/GALS ]
Beginning LAMARCKIAN GENETIC ALGORITHM (LGA), with a maximum of 25000000 energy evaluations.

Final-Value: -16.964


	FINAL GENETIC ALGORITHM DOCKED STATE
	_______________________________________________


Detailed state:  trans 14.623 20.591 35.662 quatxyzw -0.574291 -0.257479 -0.777012 -0.012107 center 0.035 0.082 -0.065 ntor 24 107.5999 96.5936 62.8145 76.3683 120.8947 39.0796 -65.1999 -15.5087 -3.0974 29.6017 -172.6033 145.9949 -60.0590 -75.5478 -131.3251 47.1040 180.0000 180.0000 -158.4416 -8.6777 3.5872 -16.8589 -30.0808 29.0057
State:	 14.623  20.591  35.662  -0.574 -0.257 -0.777 -178.613    107.60   96.59   62.81   76.37  120.89   39.08  -65.20  -15.51   -3.10   29.60 -172.60  145.99  -60.06  -75.55 -131.33   47.10  180.00  180.00 -158.44   -8.68    3.59  -16.86  -30.08   29.01

DOCKED: MODEL       13
DOCKED: USER    Run = 13
DOCKED: USER    DPF = D:/Protein_go_brrr/autodock/final/1A3N/IHP/dock.dpf
DOCKED: USER  
DOCKED: USER    Estimated Free Energy of Binding    =   +4.80 kcal/mol  [=(1)+(2)+(3)-(4)]
DOCKED: USER    
DOCKED: USER    (1) Final Intermolecular Energy     =   -2.36 kcal/mol
DOCKED: USER        vdW + Hbond + desolv Energy     =   -2.30 kcal/mol
DOCKED: USER        Electrostatic Energy            =   -0.06 kcal/mol
DOCKED: USER    (2) Final Total Internal Energy     =  -14.60 kcal/mol
DOCKED: USER    (3) Torsional Free Energy           =   +7.16 kcal/mol
DOCKED: USER    (4) Unbound System's Energy  [=(2)] =  -14.60 kcal/mol
DOCKED: USER    
DOCKED: USER    
DOCKED: USER    NEWDPF move IHP_ideal_opt.pdbqt
DOCKED: USER    NEWDPF about 0.035000 0.082000 -0.065000
DOCKED: USER    NEWDPF tran0 14.622943 20.590512 35.662362
DOCKED: USER    NEWDPF quaternion0 -0.574291 -0.257479 -0.777012 -0.012107
DOCKED: USER    NEWDPF axisangle0 -0.574333 -0.257498 -0.777069 -178.612571
DOCKED: USER    NEWDPF quat0 -0.574333 -0.257498 -0.777069 -178.612571
DOCKED: USER    NEWDPF dihe0 107.60 96.59 62.81 76.37 120.89 39.08 -65.20 -15.51 -3.10 29.60 -172.60 145.99 -60.06 -75.55 -131.33 47.10 180.00 180.00 -158.44 -8.68 3.59 -16.86 -30.08 29.01 
DOCKED: USER  keepresnum = 1 
DOCKED: USER  
DOCKED: REMARK  24 active torsions:
DOCKED: REMARK  status: ('A' for Active; 'I' for Inactive)
DOCKED: REMARK    1  A    between atoms: C_1  and  O_7 
DOCKED: REMARK    2  A    between atoms: C_2  and  O_12 
DOCKED: REMARK    3  A    between atoms: C_3  and  O_17 
DOCKED: REMARK    4  A    between atoms: C_4  and  O_22 
DOCKED: REMARK    5  A    between atoms: C_5  and  O_27 
DOCKED: REMARK    6  A    between atoms: C_6  and  O_32 
DOCKED: REMARK    7  A    between atoms: O_7  and  P_8 
DOCKED: REMARK    8  A    between atoms: P_8  and  O_10 
DOCKED: REMARK    9  A    between atoms: P_8  and  O_11 
DOCKED: REMARK   10  A    between atoms: O_12  and  P_13 
DOCKED: REMARK   11  A    between atoms: P_13  and  O_15 
DOCKED: REMARK   12  A    between atoms: P_13  and  O_16 
DOCKED: REMARK   13  A    between atoms: O_17  and  P_18 
DOCKED: REMARK   14  A    between atoms: P_18  and  O_20 
DOCKED: REMARK   15  A    between atoms: P_18  and  O_21 
DOCKED: REMARK   16  A    between atoms: O_22  and  P_23 
DOCKED: REMARK   17  A    between atoms: P_23  and  O_25 
DOCKED: REMARK   18  A    between atoms: P_23  and  O_26 
DOCKED: REMARK   19  A    between atoms: O_27  and  P_28 
DOCKED: REMARK   20  A    between atoms: P_28  and  O_30 
DOCKED: REMARK   21  A    between atoms: P_28  and  O_31 
DOCKED: REMARK   22  A    between atoms: O_32  and  P_33 
DOCKED: REMARK   23  A    between atoms: P_33  and  O_35 
DOCKED: REMARK   24  A    between atoms: P_33  and  O_36 
DOCKED: USER                              x       y       z     vdW  Elec       q    Type
DOCKED: USER                           _______ _______ _______ _____ _____    ______ ____
DOCKED: ROOT
DOCKED: ATOM      1  C   UNL d   1      14.618  22.035  36.610 -0.01 +0.01    +0.194 C 
DOCKED: ATOM      2  C   UNL d   1      14.463  22.234  35.101 -0.02 +0.01    +0.194 C 
DOCKED: ATOM      3  C   UNL d   1      15.422  21.341  34.310 -0.05 -0.00    +0.194 C 
DOCKED: ATOM      4  C   UNL d   1      15.342  19.870  34.710 -0.08 +0.01    +0.194 C 
DOCKED: ATOM      5  C   UNL d   1      15.378  19.633  36.214 -0.04 +0.02    +0.194 C 
DOCKED: ATOM      6  C   UNL d   1      14.464  20.567  37.010 -0.01 +0.02    +0.194 C 
DOCKED: ENDROOT
DOCKED: BRANCH   1   7
DOCKED: ATOM      7  O   UNL d   1      13.580  22.767  37.265 -0.00 -0.02    -0.278 OA
DOCKED: BRANCH   7   8
DOCKED: ATOM      8  P   UNL d   1      12.116  22.129  37.314 -0.00 +0.04    +0.473 P 
DOCKED: ATOM      9  O   UNL d   1      11.934  20.903  36.490 -0.01 -0.03    -0.228 OA
DOCKED: BRANCH   8  10
DOCKED: ATOM     10  O   UNL d   1      11.852  21.886  38.869 +0.00 -0.03    -0.303 OA
DOCKED: ATOM     11  H   UNL d   1      12.609  21.409  39.258 +0.00 +0.02    +0.222 HD
DOCKED: ENDBRANCH   8  10
DOCKED: BRANCH   8  12
DOCKED: ATOM     12  O   UNL d   1      11.130  23.333  36.994 -0.00 -0.02    -0.303 OA
DOCKED: ATOM     13  H   UNL d   1      11.375  23.824  36.177 +0.00 +0.01    +0.222 HD
DOCKED: ENDBRANCH   8  12
DOCKED: ENDBRANCH   7   8
DOCKED: ENDBRANCH   1   7
DOCKED: BRANCH   2  14
DOCKED: ATOM     14  O   UNL d   1      13.120  21.908  34.723 -0.02 -0.02    -0.278 OA
DOCKED: BRANCH  14  15
DOCKED: ATOM     15  P   UNL d   1      12.288  23.055  33.978 -0.02 +0.03    +0.473 P 
DOCKED: ATOM     16  O   UNL d   1      12.777  24.459  34.148 -0.02 -0.01    -0.228 OA
DOCKED: BRANCH  15  17
DOCKED: ATOM     17  O   UNL d   1      12.265  22.590  32.454 -0.04 -0.02    -0.303 OA
DOCKED: ATOM     18  H   UNL d   1      13.086  22.117  32.219 +0.07 +0.01    +0.222 HD
DOCKED: ENDBRANCH  15  17
DOCKED: BRANCH  15  19
DOCKED: ATOM     19  O   UNL d   1      10.779  22.798  34.413 -0.01 -0.03    -0.303 OA
DOCKED: ATOM     20  H   UNL d   1      10.724  22.218  35.195 +0.01 +0.02    +0.222 HD
DOCKED: ENDBRANCH  15  19
DOCKED: ENDBRANCH  14  15
DOCKED: ENDBRANCH   2  14
DOCKED: BRANCH   6  21
DOCKED: ATOM     21  O   UNL d   1      14.859  20.463  38.377 -0.00 -0.02    -0.278 OA
DOCKED: BRANCH  21  22
DOCKED: ATOM     22  P   UNL d   1      14.037  19.521  39.368 -0.00 +0.06    +0.473 P 
DOCKED: ATOM     23  O   UNL d   1      13.057  20.158  40.295 +0.00 -0.02    -0.228 OA
DOCKED: BRANCH  22  24
DOCKED: ATOM     24  O   UNL d   1      13.411  18.458  38.363 -0.01 -0.05    -0.303 OA
DOCKED: ATOM     25  H   UNL d   1      14.151  18.056  37.840 +0.02 +0.04    +0.222 HD
DOCKED: ENDBRANCH  22  24
DOCKED: BRANCH  22  26
DOCKED: ATOM     26  O   UNL d   1      15.210  18.674  40.059 -0.00 -0.03    -0.303 OA
DOCKED: ATOM     27  H   UNL d   1      14.953  17.730  40.084 +0.01 +0.03    +0.222 HD
DOCKED: ENDBRANCH  22  26
DOCKED: ENDBRANCH  21  22
DOCKED: ENDBRANCH   6  21
DOCKED: BRANCH   3  28
DOCKED: ATOM     28  O   UNL d   1      15.021  21.384  32.947 -0.10 +0.02    -0.278 OA
DOCKED: BRANCH  28  29
DOCKED: ATOM     29  P   UNL d   1      15.688  22.427  31.944 -0.12 -0.13    +0.473 P 
DOCKED: ATOM     30  O   UNL d   1      17.013  22.956  32.359 -0.09 +0.08    -0.228 OA
DOCKED: BRANCH  29  31
DOCKED: ATOM     31  O   UNL d   1      15.637  21.580  30.587 -0.24 +0.16    -0.303 OA
DOCKED: ATOM     32  H   UNL d   1      15.433  20.643  30.809 -0.25 -0.09    +0.222 HD
DOCKED: ENDBRANCH  29  31
DOCKED: BRANCH  29  33
DOCKED: ATOM     33  O   UNL d   1      14.520  23.489  31.741 -0.02 +0.02    -0.303 OA
DOCKED: ATOM     34  H   UNL d   1      14.109  23.687  32.618 +0.04 -0.01    +0.222 HD
DOCKED: ENDBRANCH  29  33
DOCKED: ENDBRANCH  28  29
DOCKED: ENDBRANCH   3  28
DOCKED: BRANCH   5  35
DOCKED: ATOM     35  O   UNL d   1      14.893  18.306  36.408 -0.05 -0.05    -0.278 OA
DOCKED: BRANCH  35  36
DOCKED: ATOM     36  P   UNL d   1      15.912  17.105  36.661 -0.07 +0.12    +0.473 P 
DOCKED: ATOM     37  O   UNL d   1      15.633  15.851  35.896 -0.19 -0.11    -0.228 OA
DOCKED: BRANCH  36  38
DOCKED: ATOM     38  O   UNL d   1      17.309  17.786  36.314 -0.04 -0.04    -0.303 OA
DOCKED: ATOM     39  H   UNL d   1      17.378  17.902  35.342 +0.06 +0.03    +0.222 HD
DOCKED: ENDBRANCH  36  38
DOCKED: BRANCH  36  40
DOCKED: ATOM     40  O   UNL d   1      15.923  16.996  38.247 -0.02 -0.06    -0.303 OA
DOCKED: ATOM     41  H   UNL d   1      15.486  17.770  38.668 +0.01 +0.04    +0.222 HD
DOCKED: ENDBRANCH  36  40
DOCKED: ENDBRANCH  35  36
DOCKED: ENDBRANCH   5  35
DOCKED: BRANCH   4  42
DOCKED: ATOM     42  O   UNL d   1      16.494  19.226  34.155 -0.08 -0.02    -0.278 OA
DOCKED: BRANCH  42  43
DOCKED: ATOM     43  P   UNL d   1      16.462  18.772  32.626 -0.15 +0.02    +0.473 P 
DOCKED: ATOM     44  O   UNL d   1      16.960  17.405  32.305 -0.33 -0.03    -0.228 OA
DOCKED: BRANCH  43  45
DOCKED: ATOM     45  O   UNL d   1      14.944  19.024  32.219 -0.25 -0.01    -0.303 OA
DOCKED: ATOM     46  H   UNL d   1      14.866  19.730  31.547 -0.06 -0.03    +0.222 HD
DOCKED: ENDBRANCH  43  45
DOCKED: BRANCH  43  47
DOCKED: ATOM     47  O   UNL d   1      17.205  19.974  31.870 -0.20 +0.06    -0.303 OA
DOCKED: ATOM     48  H   UNL d   1      16.988  20.819  32.316 +0.08 -0.05    +0.222 HD
DOCKED: ENDBRANCH  43  47
DOCKED: ENDBRANCH  42  43
DOCKED: ENDBRANCH   4  42
DOCKED: TORSDOF 24
DOCKED: TER
DOCKED: ENDMDL
________________________________________________________________________________


	BEGINNING GENETIC ALGORITHM DOCKING 14 of 100
Run: 14 Seed: 952378651 666830853 [ Run 14 of 100 GA/GALS ]
Beginning LAMARCKIAN GENETIC ALGORITHM (LGA), with a maximum of 25000000 energy evaluations.

Final-Value: -18.355


	FINAL GENETIC ALGORITHM DOCKED STATE
	_______________________________________________


Detailed state:  trans 22.050 -21.640 30.712 quatxyzw -0.657175 0.743649 0.120875 -0.022261 center 0.035 0.082 -0.065 ntor 24 -180.0000 -34.1286 116.3522 92.9839 91.8211 93.5225 -124.8671 -19.9992 135.6975 -14.4469 40.0277 -163.9388 -119.9334 96.9311 103.0354 -172.8242 32.1630 -77.4654 37.9809 -8.1797 -49.7423 6.8524 -22.6352 -3.1735
State:	 22.050 -21.640  30.712  -0.657  0.744  0.121 -177.449   -180.00  -34.13  116.35   92.98   91.82   93.52 -124.87  -20.00  135.70  -14.45   40.03 -163.94 -119.93   96.93  103.04 -172.82   32.16  -77.47   37.98   -8.18  -49.74    6.85  -22.64   -3.17

DOCKED: MODEL       14
DOCKED: USER    Run = 14
DOCKED: USER    DPF = D:/Protein_go_brrr/autodock/final/1A3N/IHP/dock.dpf
DOCKED: USER  
DOCKED: USER    Estimated Free Energy of Binding    =   +2.90 kcal/mol  [=(1)+(2)+(3)-(4)]
DOCKED: USER    
DOCKED: USER    (1) Final Intermolecular Energy     =   -4.26 kcal/mol
DOCKED: USER        vdW + Hbond + desolv Energy     =   -4.17 kcal/mol
DOCKED: USER        Electrostatic Energy            =   -0.09 kcal/mol
DOCKED: USER    (2) Final Total Internal Energy     =  -14.10 kcal/mol
DOCKED: USER    (3) Torsional Free Energy           =   +7.16 kcal/mol
DOCKED: USER    (4) Unbound System's Energy  [=(2)] =  -14.10 kcal/mol
DOCKED: USER    
DOCKED: USER    
DOCKED: USER    NEWDPF move IHP_ideal_opt.pdbqt
DOCKED: USER    NEWDPF about 0.035000 0.082000 -0.065000
DOCKED: USER    NEWDPF tran0 22.049539 -21.640233 30.711853
DOCKED: USER    NEWDPF quaternion0 -0.657175 0.743649 0.120875 -0.022261
DOCKED: USER    NEWDPF axisangle0 -0.657338 0.743834 0.120905 -177.448894
DOCKED: USER    NEWDPF quat0 -0.657338 0.743834 0.120905 -177.448894
DOCKED: USER    NEWDPF dihe0 -180.00 -34.13 116.35 92.98 91.82 93.52 -124.87 -20.00 135.70 -14.45 40.03 -163.94 -119.93 96.93 103.04 -172.82 32.16 -77.47 37.98 -8.18 -49.74 6.85 -22.64 -3.17 
DOCKED: USER  keepresnum = 1 
DOCKED: USER  
DOCKED: REMARK  24 active torsions:
DOCKED: REMARK  status: ('A' for Active; 'I' for Inactive)
DOCKED: REMARK    1  A    between atoms: C_1  and  O_7 
DOCKED: REMARK    2  A    between atoms: C_2  and  O_12 
DOCKED: REMARK    3  A    between atoms: C_3  and  O_17 
DOCKED: REMARK    4  A    between atoms: C_4  and  O_22 
DOCKED: REMARK    5  A    between atoms: C_5  and  O_27 
DOCKED: REMARK    6  A    between atoms: C_6  and  O_32 
DOCKED: REMARK    7  A    between atoms: O_7  and  P_8 
DOCKED: REMARK    8  A    between atoms: P_8  and  O_10 
DOCKED: REMARK    9  A    between atoms: P_8  and  O_11 
DOCKED: REMARK   10  A    between atoms: O_12  and  P_13 
DOCKED: REMARK   11  A    between atoms: P_13  and  O_15 
DOCKED: REMARK   12  A    between atoms: P_13  and  O_16 
DOCKED: REMARK   13  A    between atoms: O_17  and  P_18 
DOCKED: REMARK   14  A    between atoms: P_18  and  O_20 
DOCKED: REMARK   15  A    between atoms: P_18  and  O_21 
DOCKED: REMARK   16  A    between atoms: O_22  and  P_23 
DOCKED: REMARK   17  A    between atoms: P_23  and  O_25 
DOCKED: REMARK   18  A    between atoms: P_23  and  O_26 
DOCKED: REMARK   19  A    between atoms: O_27  and  P_28 
DOCKED: REMARK   20  A    between atoms: P_28  and  O_30 
DOCKED: REMARK   21  A    between atoms: P_28  and  O_31 
DOCKED: REMARK   22  A    between atoms: O_32  and  P_33 
DOCKED: REMARK   23  A    between atoms: P_33  and  O_35 
DOCKED: REMARK   24  A    between atoms: P_33  and  O_36 
DOCKED: USER                              x       y       z     vdW  Elec       q    Type
DOCKED: USER                           _______ _______ _______ _____ _____    ______ ____
DOCKED: ROOT
DOCKED: ATOM      1  C   UNL d   1      22.653 -22.788  29.571 -0.10 -0.02    +0.194 C 
DOCKED: ATOM      2  C   UNL d   1      23.659 -21.738  30.047 -0.09 -0.02    +0.194 C 
DOCKED: ATOM      3  C   UNL d   1      23.036 -20.341  30.103 -0.14 -0.03    +0.194 C 
DOCKED: ATOM      4  C   UNL d   1      21.733 -20.295  30.897 -0.13 -0.03    +0.194 C 
DOCKED: ATOM      5  C   UNL d   1      20.745 -21.397  30.534 -0.15 -0.03    +0.194 C 
DOCKED: ATOM      6  C   UNL d   1      21.380 -22.784  30.418 -0.06 -0.02    +0.194 C 
DOCKED: ENDROOT
DOCKED: BRANCH   1   7
DOCKED: ATOM      7  O   UNL d   1      23.255 -24.077  29.711 -0.03 +0.02    -0.278 OA
DOCKED: BRANCH   7   8
DOCKED: ATOM      8  P   UNL d   1      24.197 -24.607  28.535 -0.05 -0.04    +0.473 P 
DOCKED: ATOM      9  O   UNL d   1      23.499 -24.918  27.258 -0.13 +0.02    -0.228 OA
DOCKED: BRANCH   8  10
DOCKED: ATOM     10  O   UNL d   1      25.305 -23.468  28.384 -0.11 +0.03    -0.303 OA
DOCKED: ATOM     11  H   UNL d   1      25.360 -22.955  29.212 +0.05 -0.02    +0.222 HD
DOCKED: ENDBRANCH   8  10
DOCKED: BRANCH   8  12
DOCKED: ATOM     12  O   UNL d   1      25.030 -25.798  29.178 -0.04 +0.02    -0.303 OA
DOCKED: ATOM     13  H   UNL d   1      25.785 -25.488  29.727 +0.02 -0.01    +0.222 HD
DOCKED: ENDBRANCH   8  12
DOCKED: ENDBRANCH   7   8
DOCKED: ENDBRANCH   1   7
DOCKED: BRANCH   2  14
DOCKED: ATOM     14  O   UNL d   1      24.113 -22.088  31.360 -0.01 +0.03    -0.278 OA
DOCKED: BRANCH  14  15
DOCKED: ATOM     15  P   UNL d   1      25.693 -22.261  31.549 +0.01 -0.07    +0.473 P 
DOCKED: ATOM     16  O   UNL d   1      26.241 -21.994  32.916 -0.00 +0.03    -0.228 OA
DOCKED: BRANCH  15  17
DOCKED: ATOM     17  O   UNL d   1      25.983 -23.746  31.047 -0.01 +0.03    -0.303 OA
DOCKED: ATOM     18  H   UNL d   1      25.266 -24.068  30.469 +0.03 -0.02    +0.222 HD
DOCKED: ENDBRANCH  15  17
DOCKED: BRANCH  15  19
DOCKED: ATOM     19  O   UNL d   1      26.330 -21.398  30.374 -0.04 +0.07    -0.303 OA
DOCKED: ATOM     20  H   UNL d   1      25.788 -20.613  30.169 +0.07 -0.05    +0.222 HD
DOCKED: ENDBRANCH  15  19
DOCKED: ENDBRANCH  14  15
DOCKED: ENDBRANCH   2  14
DOCKED: BRANCH   6  21
DOCKED: ATOM     21  O   UNL d   1      20.433 -23.617  29.753 -0.04 +0.02    -0.278 OA
DOCKED: BRANCH  21  22
DOCKED: ATOM     22  P   UNL d   1      20.427 -25.188  30.031 +0.02 -0.02    +0.473 P 
DOCKED: ATOM     23  O   UNL d   1      19.118 -25.851  30.300 -0.00 +0.01    -0.228 OA
DOCKED: BRANCH  22  24
DOCKED: ATOM     24  O   UNL d   1      21.209 -25.746  28.762 -0.01 +0.01    -0.303 OA
DOCKED: ATOM     25  H   UNL d   1      21.804 -25.028  28.426 +0.05 -0.01    +0.222 HD
DOCKED: ENDBRANCH  22  24
DOCKED: BRANCH  22  26
DOCKED: ATOM     26  O   UNL d   1      21.532 -25.319  31.185 +0.00 +0.01    -0.303 OA
DOCKED: ATOM     27  H   UNL d   1      22.423 -25.309  30.779 +0.02 -0.01    +0.222 HD
DOCKED: ENDBRANCH  22  26
DOCKED: ENDBRANCH  21  22
DOCKED: ENDBRANCH   6  21
DOCKED: BRANCH   3  28
DOCKED: ATOM     28  O   UNL d   1      23.938 -19.498  30.808 -0.07 +0.04    -0.278 OA
DOCKED: BRANCH  28  29
DOCKED: ATOM     29  P   UNL d   1      24.601 -18.245  30.083 -0.10 -0.09    +0.473 P 
DOCKED: ATOM     30  O   UNL d   1      25.161 -17.206  30.984 -0.12 +0.04    -0.228 OA
DOCKED: BRANCH  29  31
DOCKED: ATOM     31  O   UNL d   1      25.629 -18.996  29.113 -0.16 +0.07    -0.303 OA
DOCKED: ATOM     32  H   UNL d   1      26.375 -19.344  29.655 +0.10 -0.08    +0.222 HD
DOCKED: ENDBRANCH  29  31
DOCKED: BRANCH  29  33
DOCKED: ATOM     33  O   UNL d   1      23.448 -17.787  29.086 -0.18 +0.07    -0.303 OA
DOCKED: ATOM     34  H   UNL d   1      22.575 -17.877  29.541 -0.31 -0.10    +0.222 HD
DOCKED: ENDBRANCH  29  33
DOCKED: ENDBRANCH  28  29
DOCKED: ENDBRANCH   3  28
DOCKED: BRANCH   5  35
DOCKED: ATOM     35  O   UNL d   1      19.813 -21.451  31.612 -0.06 +0.02    -0.278 OA
DOCKED: BRANCH  35  36
DOCKED: ATOM     36  P   UNL d   1      18.323 -20.917  31.414 -0.10 -0.02    +0.473 P 
DOCKED: ATOM     37  O   UNL d   1      17.410 -21.822  30.649 -0.12 +0.02    -0.228 OA
DOCKED: BRANCH  36  38
DOCKED: ATOM     38  O   UNL d   1      17.870 -20.649  32.917 +0.15 +0.05    -0.303 OA
DOCKED: ATOM     39  H   UNL d   1      18.412 -19.921  33.290 -0.40 -0.05    +0.222 HD
DOCKED: ENDBRANCH  36  38
DOCKED: BRANCH  36  40
DOCKED: ATOM     40  O   UNL d   1      18.560 -19.461  30.820 -0.78 -0.05    -0.303 OA
DOCKED: ATOM     41  H   UNL d   1      19.127 -18.915  31.408 +0.10 +0.03    +0.222 HD
DOCKED: ENDBRANCH  36  40
DOCKED: ENDBRANCH  35  36
DOCKED: ENDBRANCH   5  35
DOCKED: BRANCH   4  42
DOCKED: ATOM     42  O   UNL d   1      21.103 -19.047  30.589 -0.08 +0.08    -0.278 OA
DOCKED: BRANCH  42  43
DOCKED: ATOM     43  P   UNL d   1      20.941 -17.959  31.745 -0.25 -0.01    +0.473 P 
DOCKED: ATOM     44  O   UNL d   1      20.754 -18.458  33.136 -0.15 +0.00    -0.228 OA
DOCKED: BRANCH  43  45
DOCKED: ATOM     45  O   UNL d   1      22.229 -17.046  31.548 -0.19 +0.02    -0.303 OA
DOCKED: ATOM     46  H   UNL d   1      22.991 -17.567  31.226 +0.09 -0.03    +0.222 HD
DOCKED: ENDBRANCH  43  45
DOCKED: BRANCH  43  47
DOCKED: ATOM     47  O   UNL d   1      19.777 -17.006  31.189 -0.67 -0.09    -0.303 OA
DOCKED: ATOM     48  H   UNL d   1      19.320 -17.454  30.447 +0.04 +0.06    +0.222 HD
DOCKED: ENDBRANCH  43  47
DOCKED: ENDBRANCH  42  43
DOCKED: ENDBRANCH   4  42
DOCKED: TORSDOF 24
DOCKED: TER
DOCKED: ENDMDL
________________________________________________________________________________


	BEGINNING GENETIC ALGORITHM DOCKING 15 of 100
Run: 15 Seed: 2001019947 1213463252 [ Run 15 of 100 GA/GALS ]
Beginning LAMARCKIAN GENETIC ALGORITHM (LGA), with a maximum of 25000000 energy evaluations.

Final-Value: -15.947


	FINAL GENETIC ALGORITHM DOCKED STATE
	_______________________________________________


Detailed state:  trans 10.191 -20.049 -9.494 quatxyzw 0.181184 -0.653018 0.634029 0.372487 center 0.035 0.082 -0.065 ntor 24 162.3668 108.3178 -174.4820 38.8604 99.4338 116.1465 -5.9506 -66.2245 136.3838 -9.6387 157.5766 -155.1231 -90.6011 -178.3912 45.4618 -46.0695 165.6174 101.8731 -133.8689 -8.6584 -170.4657 143.4506 31.6124 -53.4426
State:	 10.191 -20.049  -9.494   0.195 -0.704  0.683 136.262    162.37  108.32 -174.48   38.86   99.43  116.15   -5.95  -66.22  136.38   -9.64  157.58 -155.12  -90.60 -178.39   45.46  -46.07  165.62  101.87 -133.87   -8.66 -170.47  143.45   31.61  -53.44

DOCKED: MODEL       15
DOCKED: USER    Run = 15
DOCKED: USER    DPF = D:/Protein_go_brrr/autodock/final/1A3N/IHP/dock.dpf
DOCKED: USER  
DOCKED: USER    Estimated Free Energy of Binding    =   +3.73 kcal/mol  [=(1)+(2)+(3)-(4)]
DOCKED: USER    
DOCKED: USER    (1) Final Intermolecular Energy     =   -3.43 kcal/mol
DOCKED: USER        vdW + Hbond + desolv Energy     =   -2.64 kcal/mol
DOCKED: USER        Electrostatic Energy            =   -0.79 kcal/mol
DOCKED: USER    (2) Final Total Internal Energy     =  -12.52 kcal/mol
DOCKED: USER    (3) Torsional Free Energy           =   +7.16 kcal/mol
DOCKED: USER    (4) Unbound System's Energy  [=(2)] =  -12.52 kcal/mol
DOCKED: USER    
DOCKED: USER    
DOCKED: USER    NEWDPF move IHP_ideal_opt.pdbqt
DOCKED: USER    NEWDPF about 0.035000 0.082000 -0.065000
DOCKED: USER    NEWDPF tran0 10.190976 -20.048748 -9.493848
DOCKED: USER    NEWDPF quaternion0 0.181184 -0.653018 0.634029 0.372487
DOCKED: USER    NEWDPF axisangle0 0.195233 -0.703655 0.683194 136.261818
DOCKED: USER    NEWDPF quat0 0.195233 -0.703655 0.683194 136.261818
DOCKED: USER    NEWDPF dihe0 162.37 108.32 -174.48 38.86 99.43 116.15 -5.95 -66.22 136.38 -9.64 157.58 -155.12 -90.60 -178.39 45.46 -46.07 165.62 101.87 -133.87 -8.66 -170.47 143.45 31.61 -53.44 
DOCKED: USER  keepresnum = 1 
DOCKED: USER  
DOCKED: REMARK  24 active torsions:
DOCKED: REMARK  status: ('A' for Active; 'I' for Inactive)
DOCKED: REMARK    1  A    between atoms: C_1  and  O_7 
DOCKED: REMARK    2  A    between atoms: C_2  and  O_12 
DOCKED: REMARK    3  A    between atoms: C_3  and  O_17 
DOCKED: REMARK    4  A    between atoms: C_4  and  O_22 
DOCKED: REMARK    5  A    between atoms: C_5  and  O_27 
DOCKED: REMARK    6  A    between atoms: C_6  and  O_32 
DOCKED: REMARK    7  A    between atoms: O_7  and  P_8 
DOCKED: REMARK    8  A    between atoms: P_8  and  O_10 
DOCKED: REMARK    9  A    between atoms: P_8  and  O_11 
DOCKED: REMARK   10  A    between atoms: O_12  and  P_13 
DOCKED: REMARK   11  A    between atoms: P_13  and  O_15 
DOCKED: REMARK   12  A    between atoms: P_13  and  O_16 
DOCKED: REMARK   13  A    between atoms: O_17  and  P_18 
DOCKED: REMARK   14  A    between atoms: P_18  and  O_20 
DOCKED: REMARK   15  A    between atoms: P_18  and  O_21 
DOCKED: REMARK   16  A    between atoms: O_22  and  P_23 
DOCKED: REMARK   17  A    between atoms: P_23  and  O_25 
DOCKED: REMARK   18  A    between atoms: P_23  and  O_26 
DOCKED: REMARK   19  A    between atoms: O_27  and  P_28 
DOCKED: REMARK   20  A    between atoms: P_28  and  O_30 
DOCKED: REMARK   21  A    between atoms: P_28  and  O_31 
DOCKED: REMARK   22  A    between atoms: O_32  and  P_33 
DOCKED: REMARK   23  A    between atoms: P_33  and  O_35 
DOCKED: REMARK   24  A    between atoms: P_33  and  O_36 
DOCKED: USER                              x       y       z     vdW  Elec       q    Type
DOCKED: USER                           _______ _______ _______ _____ _____    ______ ____
DOCKED: ROOT
DOCKED: ATOM      1  C   UNL d   1       9.725 -21.601  -8.896 +0.00 -0.04    +0.194 C 
DOCKED: ATOM      2  C   UNL d   1      10.091 -20.565  -7.831 -0.03 -0.08    +0.194 C 
DOCKED: ATOM      3  C   UNL d   1      11.342 -19.774  -8.217 -0.03 -0.08    +0.194 C 
DOCKED: ATOM      4  C   UNL d   1      11.260 -19.162  -9.614 -0.02 -0.02    +0.194 C 
DOCKED: ATOM      5  C   UNL d   1      10.787 -20.132 -10.689 +0.00 -0.00    +0.194 C 
DOCKED: ATOM      6  C   UNL d   1       9.573 -20.967 -10.279 +0.00 -0.02    +0.194 C 
DOCKED: ENDROOT
DOCKED: BRANCH   1   7
DOCKED: ATOM      7  O   UNL d   1       8.462 -22.172  -8.547 +0.00 +0.04    -0.278 OA
DOCKED: BRANCH   7   8
DOCKED: ATOM      8  P   UNL d   1       7.166 -21.698  -9.354 +0.01 -0.04    +0.473 P 
DOCKED: ATOM      9  O   UNL d   1       7.124 -20.248  -9.684 -0.00 +0.02    -0.228 OA
DOCKED: BRANCH   8  10
DOCKED: ATOM     10  O   UNL d   1       7.149 -22.637 -10.643 -0.00 +0.01    -0.303 OA
DOCKED: ATOM     11  H   UNL d   1       7.869 -23.293 -10.580 +0.00 -0.01    +0.222 HD
DOCKED: ENDBRANCH   8  10
DOCKED: BRANCH   8  12
DOCKED: ATOM     12  O   UNL d   1       5.934 -22.256  -8.520 -0.00 +0.02    -0.303 OA
DOCKED: ATOM     13  H   UNL d   1       5.875 -21.873  -7.616 +0.02 -0.02    +0.222 HD
DOCKED: ENDBRANCH   8  12
DOCKED: ENDBRANCH   7   8
DOCKED: ENDBRANCH   1   7
DOCKED: BRANCH   2  14
DOCKED: ATOM     14  O   UNL d   1       9.000 -19.649  -7.677 -0.04 +0.12    -0.278 OA
DOCKED: BRANCH  14  15
DOCKED: ATOM     15  P   UNL d   1       8.383 -19.511  -6.206 -0.11 -0.34    +0.473 P 
DOCKED: ATOM     16  O   UNL d   1       6.920 -19.791  -6.062 -0.14 +0.08    -0.228 OA
DOCKED: BRANCH  15  17
DOCKED: ATOM     17  O   UNL d   1       9.287 -20.475  -5.315 -0.10 +0.40    -0.303 OA
DOCKED: ATOM     18  H   UNL d   1      10.055 -19.997  -4.949 -0.35 -0.62    +0.222 HD
DOCKED: ENDBRANCH  15  17
DOCKED: BRANCH  15  19
DOCKED: ATOM     19  O   UNL d   1       8.859 -18.077  -5.708 -0.20 +0.33    -0.303 OA
DOCKED: ATOM     20  H   UNL d   1       9.636 -17.763  -6.206 +0.01 -0.26    +0.222 HD
DOCKED: ENDBRANCH  15  19
DOCKED: ENDBRANCH  14  15
DOCKED: ENDBRANCH   2  14
DOCKED: BRANCH   6  21
DOCKED: ATOM     21  O   UNL d   1       9.471 -22.035 -11.219 +0.00 +0.01    -0.278 OA
DOCKED: BRANCH  21  22
DOCKED: ATOM     22  P   UNL d   1      10.279 -23.388 -10.972 +0.00 -0.03    +0.473 P 
DOCKED: ATOM     23  O   UNL d   1       9.768 -24.336  -9.941 +0.00 +0.02    -0.228 OA
DOCKED: BRANCH  22  24
DOCKED: ATOM     24  O   UNL d   1      10.369 -23.987 -12.444 +0.00 +0.01    -0.303 OA
DOCKED: ATOM     25  H   UNL d   1      10.433 -23.231 -13.081 +0.00 -0.00    +0.222 HD
DOCKED: ENDBRANCH  22  24
DOCKED: BRANCH  22  26
DOCKED: ATOM     26  O   UNL d   1      11.769 -22.840 -10.746 +0.00 +0.02    -0.303 OA
DOCKED: ATOM     27  H   UNL d   1      12.046 -22.328 -11.534 +0.00 -0.01    +0.222 HD
DOCKED: ENDBRANCH  22  26
DOCKED: ENDBRANCH  21  22
DOCKED: ENDBRANCH   6  21
DOCKED: BRANCH   3  28
DOCKED: ATOM     28  O   UNL d   1      11.442 -18.670  -7.327 -0.09 +0.25    -0.278 OA
DOCKED: BRANCH  28  29
DOCKED: ATOM     29  P   UNL d   1      11.093 -17.198  -7.827 -0.14 -0.26    +0.473 P 
DOCKED: ATOM     30  O   UNL d   1      12.080 -16.585  -8.752 -0.19 +0.01    -0.228 OA
DOCKED: BRANCH  29  31
DOCKED: ATOM     31  O   UNL d   1       9.617 -17.440  -8.397 -0.07 +0.07    -0.303 OA
DOCKED: ATOM     32  H   UNL d   1       9.111 -17.974  -7.741 +0.08 -0.09    +0.222 HD
DOCKED: ENDBRANCH  29  31
DOCKED: BRANCH  29  33
DOCKED: ATOM     33  O   UNL d   1      10.820 -16.436  -6.457 -0.27 +0.34    -0.303 OA
DOCKED: ATOM     34  H   UNL d   1      10.827 -17.092  -5.717 -0.27 -0.41    +0.222 HD
DOCKED: ENDBRANCH  29  33
DOCKED: ENDBRANCH  28  29
DOCKED: ENDBRANCH   3  28
DOCKED: BRANCH   5  35
DOCKED: ATOM     35  O   UNL d   1      10.386 -19.321 -11.792 -0.00 -0.03    -0.278 OA
DOCKED: BRANCH  35  36
DOCKED: ATOM     36  P   UNL d   1      10.232 -19.959 -13.246 +0.01 +0.03    +0.473 P 
DOCKED: ATOM     37  O   UNL d   1      10.501 -19.033 -14.389 -0.00 -0.03    -0.228 OA
DOCKED: BRANCH  36  38
DOCKED: ATOM     38  O   UNL d   1      11.224 -21.202 -13.163 +0.00 -0.01    -0.303 OA
DOCKED: ATOM     39  H   UNL d   1      10.874 -21.850 -12.513 +0.00 -0.00    +0.222 HD
DOCKED: ENDBRANCH  36  38
DOCKED: BRANCH  36  40
DOCKED: ATOM     40  O   UNL d   1       8.786 -20.618 -13.176 +0.00 -0.01    -0.303 OA
DOCKED: ATOM     41  H   UNL d   1       8.686 -21.194 -12.386 +0.00 +0.00    +0.222 HD
DOCKED: ENDBRANCH  36  40
DOCKED: ENDBRANCH  35  36
DOCKED: ENDBRANCH   5  35
DOCKED: BRANCH   4  42
DOCKED: ATOM     42  O   UNL d   1      12.586 -18.755  -9.967 -0.02 -0.01    -0.278 OA
DOCKED: BRANCH  42  43
DOCKED: ATOM     43  P   UNL d   1      12.785 -17.753 -11.193 -0.02 +0.27    +0.473 P 
DOCKED: ATOM     44  O   UNL d   1      13.923 -16.796 -11.120 -0.57 -0.27    -0.228 OA
DOCKED: BRANCH  43  45
DOCKED: ATOM     45  O   UNL d   1      12.841 -18.737 -12.442 -0.02 -0.08    -0.303 OA
DOCKED: ATOM     46  H   UNL d   1      11.944 -18.961 -12.762 +0.01 +0.05    +0.222 HD
DOCKED: ENDBRANCH  43  45
DOCKED: BRANCH  43  47
DOCKED: ATOM     47  O   UNL d   1      11.334 -17.092 -11.364 -0.12 -0.22    -0.303 OA
DOCKED: ATOM     48  H   UNL d   1      10.851 -17.151 -10.514 +0.04 +0.10    +0.222 HD
DOCKED: ENDBRANCH  43  47
DOCKED: ENDBRANCH  42  43
DOCKED: ENDBRANCH   4  42
DOCKED: TORSDOF 24
DOCKED: TER
DOCKED: ENDMDL
________________________________________________________________________________


	BEGINNING GENETIC ALGORITHM DOCKING 16 of 100
Run: 16 Seed: 1080191932 1404469729 [ Run 16 of 100 GA/GALS ]
Beginning LAMARCKIAN GENETIC ALGORITHM (LGA), with a maximum of 25000000 energy evaluations.

Final-Value: -19.437


	FINAL GENETIC ALGORITHM DOCKED STATE
	_______________________________________________


Detailed state:  trans 10.632 -3.038 42.453 quatxyzw -0.266725 -0.090808 -0.747365 -0.601712 center 0.035 0.082 -0.065 ntor 24 105.4569 102.6815 167.5497 -38.6497 86.1108 143.5841 -121.0154 -63.1381 139.7053 1.0358 101.6028 -172.5455 -33.6632 -179.9468 168.1022 2.5322 -116.7651 120.2380 -172.2329 22.4137 -5.8791 21.1981 167.9619 -12.5350
State:	 10.632  -3.038  42.453  -0.334 -0.114 -0.936 -106.015    105.46  102.68  167.55  -38.65   86.11  143.58 -121.02  -63.14  139.71    1.04  101.60 -172.55  -33.66 -179.95  168.10    2.53 -116.77  120.24 -172.23   22.41   -5.88   21.20  167.96  -12.54

DOCKED: MODEL       16
DOCKED: USER    Run = 16
DOCKED: USER    DPF = D:/Protein_go_brrr/autodock/final/1A3N/IHP/dock.dpf
DOCKED: USER  
DOCKED: USER    Estimated Free Energy of Binding    =   +2.63 kcal/mol  [=(1)+(2)+(3)-(4)]
DOCKED: USER    
DOCKED: USER    (1) Final Intermolecular Energy     =   -4.53 kcal/mol
DOCKED: USER        vdW + Hbond + desolv Energy     =   -4.14 kcal/mol
DOCKED: USER        Electrostatic Energy            =   -0.39 kcal/mol
DOCKED: USER    (2) Final Total Internal Energy     =  -14.90 kcal/mol
DOCKED: USER    (3) Torsional Free Energy           =   +7.16 kcal/mol
DOCKED: USER    (4) Unbound System's Energy  [=(2)] =  -14.90 kcal/mol
DOCKED: USER    
DOCKED: USER    
DOCKED: USER    NEWDPF move IHP_ideal_opt.pdbqt
DOCKED: USER    NEWDPF about 0.035000 0.082000 -0.065000
DOCKED: USER    NEWDPF tran0 10.631901 -3.038161 42.452791
DOCKED: USER    NEWDPF quaternion0 -0.266725 -0.090808 -0.747365 -0.601712
DOCKED: USER    NEWDPF axisangle0 -0.333943 -0.113693 -0.935711 -106.014836
DOCKED: USER    NEWDPF quat0 -0.333943 -0.113693 -0.935711 -106.014836
DOCKED: USER    NEWDPF dihe0 105.46 102.68 167.55 -38.65 86.11 143.58 -121.02 -63.14 139.71 1.04 101.60 -172.55 -33.66 -179.95 168.10 2.53 -116.77 120.24 -172.23 22.41 -5.88 21.20 167.96 -12.54 
DOCKED: USER  keepresnum = 1 
DOCKED: USER  
DOCKED: REMARK  24 active torsions:
DOCKED: REMARK  status: ('A' for Active; 'I' for Inactive)
DOCKED: REMARK    1  A    between atoms: C_1  and  O_7 
DOCKED: REMARK    2  A    between atoms: C_2  and  O_12 
DOCKED: REMARK    3  A    between atoms: C_3  and  O_17 
DOCKED: REMARK    4  A    between atoms: C_4  and  O_22 
DOCKED: REMARK    5  A    between atoms: C_5  and  O_27 
DOCKED: REMARK    6  A    between atoms: C_6  and  O_32 
DOCKED: REMARK    7  A    between atoms: O_7  and  P_8 
DOCKED: REMARK    8  A    between atoms: P_8  and  O_10 
DOCKED: REMARK    9  A    between atoms: P_8  and  O_11 
DOCKED: REMARK   10  A    between atoms: O_12  and  P_13 
DOCKED: REMARK   11  A    between atoms: P_13  and  O_15 
DOCKED: REMARK   12  A    between atoms: P_13  and  O_16 
DOCKED: REMARK   13  A    between atoms: O_17  and  P_18 
DOCKED: REMARK   14  A    between atoms: P_18  and  O_20 
DOCKED: REMARK   15  A    between atoms: P_18  and  O_21 
DOCKED: REMARK   16  A    between atoms: O_22  and  P_23 
DOCKED: REMARK   17  A    between atoms: P_23  and  O_25 
DOCKED: REMARK   18  A    between atoms: P_23  and  O_26 
DOCKED: REMARK   19  A    between atoms: O_27  and  P_28 
DOCKED: REMARK   20  A    between atoms: P_28  and  O_30 
DOCKED: REMARK   21  A    between atoms: P_28  and  O_31 
DOCKED: REMARK   22  A    between atoms: O_32  and  P_33 
DOCKED: REMARK   23  A    between atoms: P_33  and  O_35 
DOCKED: REMARK   24  A    between atoms: P_33  and  O_36 
DOCKED: USER                              x       y       z     vdW  Elec       q    Type
DOCKED: USER                           _______ _______ _______ _____ _____    ______ ____
DOCKED: ROOT
DOCKED: ATOM      1  C   UNL d   1       9.852  -3.513  43.919 +0.01 +0.03    +0.194 C 
DOCKED: ATOM      2  C   UNL d   1       9.150  -2.411  43.124 -0.00 +0.01    +0.194 C 
DOCKED: ATOM      3  C   UNL d   1      10.142  -1.374  42.595 -0.02 +0.01    +0.194 C 
DOCKED: ATOM      4  C   UNL d   1      11.304  -1.993  41.822 -0.05 +0.02    +0.194 C 
DOCKED: ATOM      5  C   UNL d   1      11.962  -3.172  42.528 -0.03 +0.04    +0.194 C 
DOCKED: ATOM      6  C   UNL d   1      10.967  -4.178  43.111 -0.02 +0.06    +0.194 C 
DOCKED: ENDROOT
DOCKED: BRANCH   1   7
DOCKED: ATOM      7  O   UNL d   1       8.888  -4.523  44.227 +0.00 -0.05    -0.278 OA
DOCKED: BRANCH   7   8
DOCKED: ATOM      8  P   UNL d   1       8.247  -5.353  43.022 +0.01 +0.11    +0.473 P 
DOCKED: ATOM      9  O   UNL d   1       9.003  -5.292  41.742 -0.03 -0.08    -0.228 OA
DOCKED: BRANCH   8  10
DOCKED: ATOM     10  O   UNL d   1       8.112  -6.834  43.602 -0.00 -0.09    -0.303 OA
DOCKED: ATOM     11  H   UNL d   1       8.971  -7.124  43.961 +0.01 +0.10    +0.222 HD
DOCKED: ENDBRANCH   8  10
DOCKED: BRANCH   8  12
DOCKED: ATOM     12  O   UNL d   1       6.731  -4.882  42.957 +0.00 -0.02    -0.303 OA
DOCKED: ATOM     13  H   UNL d   1       6.635  -3.911  42.830 +0.00 +0.01    +0.222 HD
DOCKED: ENDBRANCH   8  12
DOCKED: ENDBRANCH   7   8
DOCKED: ENDBRANCH   1   7
DOCKED: BRANCH   2  14
DOCKED: ATOM     14  O   UNL d   1       8.469  -3.001  42.009 -0.01 -0.02    -0.278 OA
DOCKED: BRANCH  14  15
DOCKED: ATOM     15  P   UNL d   1       7.200  -2.205  41.443 -0.01 -0.03    +0.473 P 
DOCKED: ATOM     16  O   UNL d   1       5.909  -2.959  41.374 -0.01 +0.01    -0.228 OA
DOCKED: BRANCH  15  17
DOCKED: ATOM     17  O   UNL d   1       7.110  -0.910  42.367 -0.03 +0.02    -0.303 OA
DOCKED: ATOM     18  H   UNL d   1       7.833  -0.285  42.167 +0.04 -0.02    +0.222 HD
DOCKED: ENDBRANCH  15  17
DOCKED: BRANCH  15  19
DOCKED: ATOM     19  O   UNL d   1       7.704  -1.582  40.069 -0.07 +0.07    -0.303 OA
DOCKED: ATOM     20  H   UNL d   1       7.969  -0.649  40.171 -0.44 -0.10    +0.222 HD
DOCKED: ENDBRANCH  15  19
DOCKED: ENDBRANCH  14  15
DOCKED: ENDBRANCH   2  14
DOCKED: BRANCH   6  21
DOCKED: ATOM     21  O   UNL d   1      11.698  -5.007  44.011 -0.02 -0.11    -0.278 OA
DOCKED: BRANCH  21  22
DOCKED: ATOM     22  P   UNL d   1      12.009  -6.521  43.617 +0.11 +0.49    +0.473 P 
DOCKED: ATOM     23  O   UNL d   1      12.393  -7.468  44.704 -0.11 -0.17    -0.228 OA
DOCKED: BRANCH  22  24
DOCKED: ATOM     24  O   UNL d   1      10.695  -6.925  42.814 +0.03 -0.44    -0.303 OA
DOCKED: ATOM     25  H   UNL d   1      10.250  -6.092  42.514 +0.02 +0.19    +0.222 HD
DOCKED: ENDBRANCH  22  24
DOCKED: BRANCH  22  26
DOCKED: ATOM     26  O   UNL d   1      13.077  -6.338  42.435 -0.47 -0.41    -0.303 OA
DOCKED: ATOM     27  H   UNL d   1      12.894  -5.500  41.963 +0.04 +0.19    +0.222 HD
DOCKED: ENDBRANCH  22  26
DOCKED: ENDBRANCH  21  22
DOCKED: ENDBRANCH   6  21
DOCKED: BRANCH   3  28
DOCKED: ATOM     28  O   UNL d   1       9.453  -0.562  41.653 -0.08 +0.01    -0.278 OA
DOCKED: BRANCH  28  29
DOCKED: ATOM     29  P   UNL d   1       9.556   1.026  41.731 -0.11 -0.01    +0.473 P 
DOCKED: ATOM     30  O   UNL d   1       9.912   1.580  43.063 -0.05 -0.01    -0.228 OA
DOCKED: BRANCH  29  31
DOCKED: ATOM     31  O   UNL d   1      10.583   1.297  40.534 -0.22 -0.01    -0.303 OA
DOCKED: ATOM     32  H   UNL d   1      11.469   0.957  40.797 +0.06 +0.02    +0.222 HD
DOCKED: ENDBRANCH  29  31
DOCKED: BRANCH  29  33
DOCKED: ATOM     33  O   UNL d   1       8.163   1.482  41.110 +0.01 +0.05    -0.303 OA
DOCKED: ATOM     34  H   UNL d   1       7.672   0.682  40.800 -0.44 -0.08    +0.222 HD
DOCKED: ENDBRANCH  29  33
DOCKED: ENDBRANCH  28  29
DOCKED: ENDBRANCH   3  28
DOCKED: BRANCH   5  35
DOCKED: ATOM     35  O   UNL d   1      12.711  -3.855  41.525 -0.08 -0.08    -0.278 OA
DOCKED: BRANCH  35  36
DOCKED: ATOM     36  P   UNL d   1      11.972  -4.488  40.260 -0.21 +0.16    +0.473 P 
DOCKED: ATOM     37  O   UNL d   1      11.165  -5.717  40.534 -0.30 -0.20    -0.228 OA
DOCKED: BRANCH  36  38
DOCKED: ATOM     38  O   UNL d   1      11.122  -3.251  39.727 -0.26 -0.04    -0.303 OA
DOCKED: ATOM     39  H   UNL d   1      11.732  -2.581  39.351 +0.09 +0.06    +0.222 HD
DOCKED: ENDBRANCH  36  38
DOCKED: BRANCH  36  40
DOCKED: ATOM     40  O   UNL d   1      13.156  -4.621  39.207 -0.27 -0.05    -0.303 OA
DOCKED: ATOM     41  H   UNL d   1      13.749  -3.838  39.225 -0.30 +0.00    +0.222 HD
DOCKED: ENDBRANCH  36  40
DOCKED: ENDBRANCH  35  36
DOCKED: ENDBRANCH   5  35
DOCKED: BRANCH   4  42
DOCKED: ATOM     42  O   UNL d   1      12.301  -0.974  41.685 -0.04 -0.03    -0.278 OA
DOCKED: BRANCH  42  43
DOCKED: ATOM     43  P   UNL d   1      12.806  -0.580  40.225 -0.11 +0.05    +0.473 P 
DOCKED: ATOM     44  O   UNL d   1      13.589   0.680  40.086 -0.11 -0.02    -0.228 OA
DOCKED: BRANCH  43  45
DOCKED: ATOM     45  O   UNL d   1      13.586  -1.886  39.760 -0.56 -0.06    -0.303 OA
DOCKED: ATOM     46  H   UNL d   1      13.223  -2.690  40.184 +0.07 +0.04    +0.222 HD
DOCKED: ENDBRANCH  43  45
DOCKED: BRANCH  43  47
DOCKED: ATOM     47  O   UNL d   1      11.472  -0.665  39.340 -0.23 -0.03    -0.303 OA
DOCKED: ATOM     48  H   UNL d   1      10.705  -0.828  39.928 +0.06 +0.00    +0.222 HD
DOCKED: ENDBRANCH  43  47
DOCKED: ENDBRANCH  42  43
DOCKED: ENDBRANCH   4  42
DOCKED: TORSDOF 24
DOCKED: TER
DOCKED: ENDMDL
________________________________________________________________________________


	BEGINNING GENETIC ALGORITHM DOCKING 17 of 100
Run: 17 Seed: 613829938 1415612306 [ Run 17 of 100 GA/GALS ]
Beginning LAMARCKIAN GENETIC ALGORITHM (LGA), with a maximum of 25000000 energy evaluations.

Final-Value: -17.451


	FINAL GENETIC ALGORITHM DOCKED STATE
	_______________________________________________


Detailed state:  trans 2.521 21.479 -2.647 quatxyzw 0.258243 -0.809469 -0.418941 -0.320248 center 0.035 0.082 -0.065 ntor 24 -124.5261 95.8308 88.6141 97.2951 177.9106 154.5075 -13.7730 -100.6052 157.3639 -6.3535 118.7489 158.9321 -77.6937 105.4289 -124.4687 -43.1234 -176.8302 -125.6641 22.6814 -8.3977 -42.8334 4.1183 28.6887 -1.5098
State:	  2.521  21.479  -2.647   0.273 -0.854 -0.442 -142.644   -124.53   95.83   88.61   97.30  177.91  154.51  -13.77 -100.61  157.36   -6.35  118.75  158.93  -77.69  105.43 -124.47  -43.12 -176.83 -125.66   22.68   -8.40  -42.83    4.12   28.69   -1.51

DOCKED: MODEL       17
DOCKED: USER    Run = 17
DOCKED: USER    DPF = D:/Protein_go_brrr/autodock/final/1A3N/IHP/dock.dpf
DOCKED: USER  
DOCKED: USER    Estimated Free Energy of Binding    =   +4.43 kcal/mol  [=(1)+(2)+(3)-(4)]
DOCKED: USER    
DOCKED: USER    (1) Final Intermolecular Energy     =   -2.73 kcal/mol
DOCKED: USER        vdW + Hbond + desolv Energy     =   -2.59 kcal/mol
DOCKED: USER        Electrostatic Energy            =   -0.14 kcal/mol
DOCKED: USER    (2) Final Total Internal Energy     =  -14.72 kcal/mol
DOCKED: USER    (3) Torsional Free Energy           =   +7.16 kcal/mol
DOCKED: USER    (4) Unbound System's Energy  [=(2)] =  -14.72 kcal/mol
DOCKED: USER    
DOCKED: USER    
DOCKED: USER    NEWDPF move IHP_ideal_opt.pdbqt
DOCKED: USER    NEWDPF about 0.035000 0.082000 -0.065000
DOCKED: USER    NEWDPF tran0 2.520913 21.478597 -2.647061
DOCKED: USER    NEWDPF quaternion0 0.258243 -0.809469 -0.418941 -0.320248
DOCKED: USER    NEWDPF axisangle0 0.272600 -0.854471 -0.442232 -142.644109
DOCKED: USER    NEWDPF quat0 0.272600 -0.854471 -0.442232 -142.644109
DOCKED: USER    NEWDPF dihe0 -124.53 95.83 88.61 97.30 177.91 154.51 -13.77 -100.61 157.36 -6.35 118.75 158.93 -77.69 105.43 -124.47 -43.12 -176.83 -125.66 22.68 -8.40 -42.83 4.12 28.69 -1.51 
DOCKED: USER  keepresnum = 1 
DOCKED: USER  
DOCKED: REMARK  24 active torsions:
DOCKED: REMARK  status: ('A' for Active; 'I' for Inactive)
DOCKED: REMARK    1  A    between atoms: C_1  and  O_7 
DOCKED: REMARK    2  A    between atoms: C_2  and  O_12 
DOCKED: REMARK    3  A    between atoms: C_3  and  O_17 
DOCKED: REMARK    4  A    between atoms: C_4  and  O_22 
DOCKED: REMARK    5  A    between atoms: C_5  and  O_27 
DOCKED: REMARK    6  A    between atoms: C_6  and  O_32 
DOCKED: REMARK    7  A    between atoms: O_7  and  P_8 
DOCKED: REMARK    8  A    between atoms: P_8  and  O_10 
DOCKED: REMARK    9  A    between atoms: P_8  and  O_11 
DOCKED: REMARK   10  A    between atoms: O_12  and  P_13 
DOCKED: REMARK   11  A    between atoms: P_13  and  O_15 
DOCKED: REMARK   12  A    between atoms: P_13  and  O_16 
DOCKED: REMARK   13  A    between atoms: O_17  and  P_18 
DOCKED: REMARK   14  A    between atoms: P_18  and  O_20 
DOCKED: REMARK   15  A    between atoms: P_18  and  O_21 
DOCKED: REMARK   16  A    between atoms: O_22  and  P_23 
DOCKED: REMARK   17  A    between atoms: P_23  and  O_25 
DOCKED: REMARK   18  A    between atoms: P_23  and  O_26 
DOCKED: REMARK   19  A    between atoms: O_27  and  P_28 
DOCKED: REMARK   20  A    between atoms: P_28  and  O_30 
DOCKED: REMARK   21  A    between atoms: P_28  and  O_31 
DOCKED: REMARK   22  A    between atoms: O_32  and  P_33 
DOCKED: REMARK   23  A    between atoms: P_33  and  O_35 
DOCKED: REMARK   24  A    between atoms: P_33  and  O_36 
DOCKED: USER                              x       y       z     vdW  Elec       q    Type
DOCKED: USER                           _______ _______ _______ _____ _____    ______ ____
DOCKED: ROOT
DOCKED: ATOM      1  C   UNL d   1       1.244  20.566  -3.369 -0.01 -0.01    +0.194 C 
DOCKED: ATOM      2  C   UNL d   1       2.461  20.819  -4.260 -0.01 -0.01    +0.194 C 
DOCKED: ATOM      3  C   UNL d   1       2.963  22.260  -4.139 +0.00 -0.00    +0.194 C 
DOCKED: ATOM      4  C   UNL d   1       3.205  22.692  -2.695 -0.00 +0.00    +0.194 C 
DOCKED: ATOM      5  C   UNL d   1       2.062  22.355  -1.746 -0.02 +0.01    +0.194 C 
DOCKED: ATOM      6  C   UNL d   1       1.519  20.934  -1.910 -0.01 -0.00    +0.194 C 
DOCKED: ENDROOT
DOCKED: BRANCH   1   7
DOCKED: ATOM      7  O   UNL d   1       0.946  19.169  -3.407 -0.03 +0.02    -0.278 OA
DOCKED: BRANCH   7   8
DOCKED: ATOM      8  P   UNL d   1      -0.234  18.670  -4.361 -0.12 -0.04    +0.473 P 
DOCKED: ATOM      9  O   UNL d   1      -1.284  19.684  -4.649 -0.09 +0.01    -0.228 OA
DOCKED: BRANCH   8  10
DOCKED: ATOM     10  O   UNL d   1       0.518  18.155  -5.670 -0.12 +0.08    -0.303 OA
DOCKED: ATOM     11  H   UNL d   1       0.904  17.275  -5.500 -0.51 -0.11    +0.222 HD
DOCKED: ENDBRANCH   8  10
DOCKED: BRANCH   8  12
DOCKED: ATOM     12  O   UNL d   1      -0.742  17.311  -3.713 -0.24 +0.00    -0.303 OA
DOCKED: ATOM     13  H   UNL d   1      -0.938  17.391  -2.752 +0.06 +0.01    +0.222 HD
DOCKED: ENDBRANCH   8  12
DOCKED: ENDBRANCH   7   8
DOCKED: ENDBRANCH   1   7
DOCKED: BRANCH   2  14
DOCKED: ATOM     14  O   UNL d   1       3.518  19.933  -3.870 -0.00 +0.01    -0.278 OA
DOCKED: BRANCH  14  15
DOCKED: ATOM     15  P   UNL d   1       4.106  18.975  -5.011 -0.00 -0.03    +0.473 P 
DOCKED: ATOM     16  O   UNL d   1       5.457  18.383  -4.760 -0.01 +0.01    -0.228 OA
DOCKED: BRANCH  15  17
DOCKED: ATOM     17  O   UNL d   1       2.975  17.871  -5.211 -0.04 +0.04    -0.303 OA
DOCKED: ATOM     18  H   UNL d   1       2.271  17.963  -4.540 +0.03 -0.03    +0.222 HD
DOCKED: ENDBRANCH  15  17
DOCKED: BRANCH  15  19
DOCKED: ATOM     19  O   UNL d   1       3.966  19.821  -6.350 -0.00 +0.02    -0.303 OA
DOCKED: ATOM     20  H   UNL d   1       4.150  20.767  -6.200 +0.00 -0.01    +0.222 HD
DOCKED: ENDBRANCH  15  19
DOCKED: ENDBRANCH  14  15
DOCKED: ENDBRANCH   2  14
DOCKED: BRANCH   6  21
DOCKED: ATOM     21  O   UNL d   1       0.270  20.888  -1.224 -0.02 +0.00    -0.278 OA
DOCKED: BRANCH  21  22
DOCKED: ATOM     22  P   UNL d   1      -0.173  19.552  -0.474 -0.00 -0.02    +0.473 P 
DOCKED: ATOM     23  O   UNL d   1      -1.038  18.584  -1.208 -0.09 +0.00    -0.228 OA
DOCKED: BRANCH  22  24
DOCKED: ATOM     24  O   UNL d   1       1.229  18.967   0.002 -0.01 +0.03    -0.303 OA
DOCKED: ATOM     25  H   UNL d   1       1.268  19.025   0.991 +0.08 -0.03    +0.222 HD
DOCKED: ENDBRANCH  22  24
DOCKED: BRANCH  22  26
DOCKED: ATOM     26  O   UNL d   1      -0.772  20.131   0.896 -0.05 +0.01    -0.303 OA
DOCKED: ATOM     27  H   UNL d   1      -0.433  21.039   1.037 +0.07 +0.01    +0.222 HD
DOCKED: ENDBRANCH  22  26
DOCKED: ENDBRANCH  21  22
DOCKED: ENDBRANCH   6  21
DOCKED: BRANCH   3  28
DOCKED: ATOM     28  O   UNL d   1       4.235  22.325  -4.771 +0.00 +0.00    -0.278 OA
DOCKED: BRANCH  28  29
DOCKED: ATOM     29  P   UNL d   1       4.437  23.205  -6.082 +0.00 -0.00    +0.473 P 
DOCKED: ATOM     30  O   UNL d   1       3.757  22.702  -7.303 -0.00 +0.00    -0.228 OA
DOCKED: BRANCH  29  31
DOCKED: ATOM     31  O   UNL d   1       3.978  24.636  -5.532 +0.00 -0.00    -0.303 OA
DOCKED: ATOM     32  H   UNL d   1       4.294  24.732  -4.604 +0.00 +0.00    +0.222 HD
DOCKED: ENDBRANCH  29  31
DOCKED: BRANCH  29  33
DOCKED: ATOM     33  O   UNL d   1       6.022  23.346  -6.148 +0.00 -0.00    -0.303 OA
DOCKED: ATOM     34  H   UNL d   1       6.368  23.508  -5.237 +0.00 +0.00    +0.222 HD
DOCKED: ENDBRANCH  29  33
DOCKED: ENDBRANCH  28  29
DOCKED: ENDBRANCH   3  28
DOCKED: BRANCH   5  35
DOCKED: ATOM     35  O   UNL d   1       2.610  22.446  -0.432 -0.05 -0.03    -0.278 OA
DOCKED: BRANCH  35  36
DOCKED: ATOM     36  P   UNL d   1       1.652  22.650   0.827 -0.04 +0.12    +0.473 P 
DOCKED: ATOM     37  O   UNL d   1       2.067  23.719   1.787 -0.94 -0.13    -0.228 OA
DOCKED: BRANCH  36  38
DOCKED: ATOM     38  O   UNL d   1       0.245  22.908   0.127 -0.07 -0.04    -0.303 OA
DOCKED: ATOM     39  H   UNL d   1      -0.195  22.046  -0.039 +0.05 +0.01    +0.222 HD
DOCKED: ENDBRANCH  36  38
DOCKED: BRANCH  36  40
DOCKED: ATOM     40  O   UNL d   1       1.528  21.172   1.401 -0.42 -0.05    -0.303 OA
DOCKED: ATOM     41  H   UNL d   1       1.323  20.521   0.693 +0.07 +0.00    +0.222 HD
DOCKED: ENDBRANCH  36  40
DOCKED: ENDBRANCH  35  36
DOCKED: ENDBRANCH   5  35
DOCKED: BRANCH   4  42
DOCKED: ATOM     42  O   UNL d   1       3.337  24.118  -2.706 -0.00 -0.01    -0.278 OA
DOCKED: BRANCH  42  43
DOCKED: ATOM     43  P   UNL d   1       4.753  24.764  -2.357 +0.00 +0.03    +0.473 P 
DOCKED: ATOM     44  O   UNL d   1       5.124  24.871  -0.919 -0.04 -0.03    -0.228 OA
DOCKED: BRANCH  43  45
DOCKED: ATOM     45  O   UNL d   1       5.759  23.889  -3.226 -0.00 -0.01    -0.303 OA
DOCKED: ATOM     46  H   UNL d   1       5.430  23.764  -4.138 +0.00 +0.01    +0.222 HD
DOCKED: ENDBRANCH  43  45
DOCKED: BRANCH  43  47
DOCKED: ATOM     47  O   UNL d   1       4.736  26.144  -3.172 -0.00 -0.01    -0.303 OA
DOCKED: ATOM     48  H   UNL d   1       4.090  26.078  -3.905 +0.00 +0.01    +0.222 HD
DOCKED: ENDBRANCH  43  47
DOCKED: ENDBRANCH  42  43
DOCKED: ENDBRANCH   4  42
DOCKED: TORSDOF 24
DOCKED: TER
DOCKED: ENDMDL
________________________________________________________________________________


	BEGINNING GENETIC ALGORITHM DOCKING 18 of 100
Run: 18 Seed: 720139316 171051445 [ Run 18 of 100 GA/GALS ]
Beginning LAMARCKIAN GENETIC ALGORITHM (LGA), with a maximum of 25000000 energy evaluations.

Final-Value: -16.507


	FINAL GENETIC ALGORITHM DOCKED STATE
	_______________________________________________


Detailed state:  trans 0.997 30.618 6.838 quatxyzw 0.240376 0.607196 0.568960 0.499816 center 0.035 0.082 -0.065 ntor 24 143.5967 122.4017 154.5096 -18.2025 -8.5098 -175.0963 -180.0000 -92.4044 133.1121 -36.4977 4.5888 -164.0812 -96.9024 173.3454 179.9888 36.7737 109.7745 152.1465 -135.8643 13.8063 -177.4354 5.9233 153.9614 -177.1151
State:	  0.997  30.618   6.838   0.278  0.701  0.657 120.024    143.60  122.40  154.51  -18.20   -8.51 -175.10 -180.00  -92.40  133.11  -36.50    4.59 -164.08  -96.90  173.35  179.99   36.77  109.77  152.15 -135.86   13.81 -177.44    5.92  153.96 -177.12

DOCKED: MODEL       18
DOCKED: USER    Run = 18
DOCKED: USER    DPF = D:/Protein_go_brrr/autodock/final/1A3N/IHP/dock.dpf
DOCKED: USER  
DOCKED: USER    Estimated Free Energy of Binding    =   +3.22 kcal/mol  [=(1)+(2)+(3)-(4)]
DOCKED: USER    
DOCKED: USER    (1) Final Intermolecular Energy     =   -3.94 kcal/mol
DOCKED: USER        vdW + Hbond + desolv Energy     =   -3.64 kcal/mol
DOCKED: USER        Electrostatic Energy            =   -0.30 kcal/mol
DOCKED: USER    (2) Final Total Internal Energy     =  -12.57 kcal/mol
DOCKED: USER    (3) Torsional Free Energy           =   +7.16 kcal/mol
DOCKED: USER    (4) Unbound System's Energy  [=(2)] =  -12.57 kcal/mol
DOCKED: USER    
DOCKED: USER    
DOCKED: USER    NEWDPF move IHP_ideal_opt.pdbqt
DOCKED: USER    NEWDPF about 0.035000 0.082000 -0.065000
DOCKED: USER    NEWDPF tran0 0.996857 30.617838 6.837910
DOCKED: USER    NEWDPF quaternion0 0.240376 0.607196 0.568960 0.499816
DOCKED: USER    NEWDPF axisangle0 0.277529 0.701044 0.656898 120.024298
DOCKED: USER    NEWDPF quat0 0.277529 0.701044 0.656898 120.024298
DOCKED: USER    NEWDPF dihe0 143.60 122.40 154.51 -18.20 -8.51 -175.10 -180.00 -92.40 133.11 -36.50 4.59 -164.08 -96.90 173.35 179.99 36.77 109.77 152.15 -135.86 13.81 -177.44 5.92 153.96 -177.12 
DOCKED: USER  keepresnum = 1 
DOCKED: USER  
DOCKED: REMARK  24 active torsions:
DOCKED: REMARK  status: ('A' for Active; 'I' for Inactive)
DOCKED: REMARK    1  A    between atoms: C_1  and  O_7 
DOCKED: REMARK    2  A    between atoms: C_2  and  O_12 
DOCKED: REMARK    3  A    between atoms: C_3  and  O_17 
DOCKED: REMARK    4  A    between atoms: C_4  and  O_22 
DOCKED: REMARK    5  A    between atoms: C_5  and  O_27 
DOCKED: REMARK    6  A    between atoms: C_6  and  O_32 
DOCKED: REMARK    7  A    between atoms: O_7  and  P_8 
DOCKED: REMARK    8  A    between atoms: P_8  and  O_10 
DOCKED: REMARK    9  A    between atoms: P_8  and  O_11 
DOCKED: REMARK   10  A    between atoms: O_12  and  P_13 
DOCKED: REMARK   11  A    between atoms: P_13  and  O_15 
DOCKED: REMARK   12  A    between atoms: P_13  and  O_16 
DOCKED: REMARK   13  A    between atoms: O_17  and  P_18 
DOCKED: REMARK   14  A    between atoms: P_18  and  O_20 
DOCKED: REMARK   15  A    between atoms: P_18  and  O_21 
DOCKED: REMARK   16  A    between atoms: O_22  and  P_23 
DOCKED: REMARK   17  A    between atoms: P_23  and  O_25 
DOCKED: REMARK   18  A    between atoms: P_23  and  O_26 
DOCKED: REMARK   19  A    between atoms: O_27  and  P_28 
DOCKED: REMARK   20  A    between atoms: P_28  and  O_30 
DOCKED: REMARK   21  A    between atoms: P_28  and  O_31 
DOCKED: REMARK   22  A    between atoms: O_32  and  P_33 
DOCKED: REMARK   23  A    between atoms: P_33  and  O_35 
DOCKED: REMARK   24  A    between atoms: P_33  and  O_36 
DOCKED: USER                              x       y       z     vdW  Elec       q    Type
DOCKED: USER                           _______ _______ _______ _____ _____    ______ ____
DOCKED: ROOT
DOCKED: ATOM      1  C   UNL d   1      -0.513  30.797   7.657 -0.03 +0.03    +0.194 C 
DOCKED: ATOM      2  C   UNL d   1      -0.602  30.608   6.142 -0.05 +0.02    +0.194 C 
DOCKED: ATOM      3  C   UNL d   1       0.449  31.441   5.405 -0.03 +0.02    +0.194 C 
DOCKED: ATOM      4  C   UNL d   1       1.866  31.224   5.932 -0.05 +0.02    +0.194 C 
DOCKED: ATOM      5  C   UNL d   1       1.980  31.289   7.449 -0.02 +0.02    +0.194 C 
DOCKED: ATOM      6  C   UNL d   1       0.892  30.507   8.187 -0.05 +0.03    +0.194 C 
DOCKED: ENDROOT
DOCKED: BRANCH   1   7
DOCKED: ATOM      7  O   UNL d   1      -1.403  29.864   8.276 -0.05 -0.05    -0.278 OA
DOCKED: BRANCH   7   8
DOCKED: ATOM      8  P   UNL d   1      -0.786  28.537   8.915 -0.19 +0.14    +0.473 P 
DOCKED: ATOM      9  O   UNL d   1       0.219  27.837   8.069 -0.35 -0.05    -0.228 OA
DOCKED: BRANCH   8  10
DOCKED: ATOM     10  O   UNL d   1      -0.200  29.019  10.318 -0.57 -0.27    -0.303 OA
DOCKED: ATOM     11  H   UNL d   1      -0.153  29.993  10.335 +0.06 +0.16    +0.222 HD
DOCKED: ENDBRANCH   8  10
DOCKED: BRANCH   8  12
DOCKED: ATOM     12  O   UNL d   1      -2.042  27.671   9.360 -0.22 -0.07    -0.303 OA
DOCKED: ATOM     13  H   UNL d   1      -2.483  27.216   8.607 -0.48 -0.07    +0.222 HD
DOCKED: ENDBRANCH   8  12
DOCKED: ENDBRANCH   7   8
DOCKED: ENDBRANCH   1   7
DOCKED: BRANCH   2  14
DOCKED: ATOM     14  O   UNL d   1      -0.390  29.226   5.830 -0.14 -0.03    -0.278 OA
DOCKED: BRANCH  14  15
DOCKED: ATOM     15  P   UNL d   1      -1.217  28.637   4.591 -0.13 +0.04    +0.473 P 
DOCKED: ATOM     16  O   UNL d   1      -1.941  27.347   4.819 -0.17 -0.00    -0.228 OA
DOCKED: BRANCH  15  17
DOCKED: ATOM     17  O   UNL d   1      -2.190  29.826   4.174 -0.03 -0.01    -0.303 OA
DOCKED: ATOM     18  H   UNL d   1      -1.685  30.628   3.938 +0.03 +0.01    +0.222 HD
DOCKED: ENDBRANCH  15  17
DOCKED: BRANCH  15  19
DOCKED: ATOM     19  O   UNL d   1      -0.178  28.636   3.386 -0.09 -0.05    -0.303 OA
DOCKED: ATOM     20  H   UNL d   1      -0.065  29.528   3.008 +0.04 +0.03    +0.222 HD
DOCKED: ENDBRANCH  15  19
DOCKED: ENDBRANCH  14  15
DOCKED: ENDBRANCH   2  14
DOCKED: BRANCH   6  21
DOCKED: ATOM     21  O   UNL d   1       0.924  30.937   9.546 -0.02 -0.06    -0.278 OA
DOCKED: BRANCH  21  22
DOCKED: ATOM     22  P   UNL d   1       0.216  32.306   9.960 +0.01 +0.09    +0.473 P 
DOCKED: ATOM     23  O   UNL d   1       0.783  33.074  11.105 -0.00 -0.03    -0.228 OA
DOCKED: BRANCH  22  24
DOCKED: ATOM     24  O   UNL d   1       0.192  33.091   8.576 +0.01 -0.03    -0.303 OA
DOCKED: ATOM     25  H   UNL d   1       1.111  33.412   8.387 +0.01 +0.01    +0.222 HD
DOCKED: ENDBRANCH  22  24
DOCKED: BRANCH  22  26
DOCKED: ATOM     26  O   UNL d   1      -1.314  31.849  10.108 -0.01 -0.10    -0.303 OA
DOCKED: ATOM     27  H   UNL d   1      -1.362  30.872  10.082 +0.04 +0.10    +0.222 HD
DOCKED: ENDBRANCH  22  26
DOCKED: ENDBRANCH  21  22
DOCKED: ENDBRANCH   6  21
DOCKED: BRANCH   3  28
DOCKED: ATOM     28  O   UNL d   1       0.477  30.997   4.054 -0.04 -0.03    -0.278 OA
DOCKED: BRANCH  28  29
DOCKED: ATOM     29  P   UNL d   1       0.072  31.987   2.874 -0.01 +0.03    +0.473 P 
DOCKED: ATOM     30  O   UNL d   1      -0.078  33.414   3.257 -0.00 -0.01    -0.228 OA
DOCKED: BRANCH  29  31
DOCKED: ATOM     31  O   UNL d   1       1.215  31.636   1.811 -0.01 -0.02    -0.303 OA
DOCKED: ATOM     32  H   UNL d   1       1.644  32.475   1.523 +0.01 +0.01    +0.222 HD
DOCKED: ENDBRANCH  29  31
DOCKED: BRANCH  29  33
DOCKED: ATOM     33  O   UNL d   1      -1.210  31.268   2.261 -0.01 -0.01    -0.303 OA
DOCKED: ATOM     34  H   UNL d   1      -1.099  30.289   2.342 +0.02 +0.01    +0.222 HD
DOCKED: ENDBRANCH  29  33
DOCKED: ENDBRANCH  28  29
DOCKED: ENDBRANCH   3  28
DOCKED: BRANCH   5  35
DOCKED: ATOM     35  O   UNL d   1       3.228  30.677   7.770 -0.05 -0.03    -0.278 OA
DOCKED: BRANCH  35  36
DOCKED: ATOM     36  P   UNL d   1       3.384  29.090   7.712 -0.16 +0.19    +0.473 P 
DOCKED: ATOM     37  O   UNL d   1       4.771  28.587   7.466 -0.81 -0.27    -0.228 OA
DOCKED: BRANCH  36  38
DOCKED: ATOM     38  O   UNL d   1       2.766  28.650   9.112 -0.21 -0.08    -0.303 OA
DOCKED: ATOM     39  H   UNL d   1       1.818  28.904   9.139 +0.11 +0.06    +0.222 HD
DOCKED: ENDBRANCH  36  38
DOCKED: BRANCH  36  40
DOCKED: ATOM     40  O   UNL d   1       2.269  28.678   6.655 -0.11 -0.11    -0.303 OA
DOCKED: ATOM     41  H   UNL d   1       1.370  28.681   7.054 +0.09 +0.06    +0.222 HD
DOCKED: ENDBRANCH  36  40
DOCKED: ENDBRANCH  35  36
DOCKED: ENDBRANCH   5  35
DOCKED: BRANCH   4  42
DOCKED: ATOM     42  O   UNL d   1       2.672  32.282   5.403 -0.01 -0.02    -0.278 OA
DOCKED: BRANCH  42  43
DOCKED: ATOM     43  P   UNL d   1       2.476  33.759   5.972 +0.00 +0.02    +0.473 P 
DOCKED: ATOM     44  O   UNL d   1       3.005  34.886   5.155 -0.00 -0.01    -0.228 OA
DOCKED: BRANCH  43  45
DOCKED: ATOM     45  O   UNL d   1       0.909  33.826   6.237 -0.00 -0.01    -0.303 OA
DOCKED: ATOM     46  H   UNL d   1       0.403  33.815   5.400 +0.00 +0.01    +0.222 HD
DOCKED: ENDBRANCH  43  45
DOCKED: BRANCH  43  47
DOCKED: ATOM     47  O   UNL d   1       3.054  33.655   7.464 +0.00 -0.00    -0.303 OA
DOCKED: ATOM     48  H   UNL d   1       3.575  32.830   7.552 +0.02 +0.00    +0.222 HD
DOCKED: ENDBRANCH  43  47
DOCKED: ENDBRANCH  42  43
DOCKED: ENDBRANCH   4  42
DOCKED: TORSDOF 24
DOCKED: TER
DOCKED: ENDMDL
________________________________________________________________________________


	BEGINNING GENETIC ALGORITHM DOCKING 19 of 100
Run: 19 Seed: 938036580 1253632979 [ Run 19 of 100 GA/GALS ]
Beginning LAMARCKIAN GENETIC ALGORITHM (LGA), with a maximum of 25000000 energy evaluations.

Final-Value: -17.089


	FINAL GENETIC ALGORITHM DOCKED STATE
	_______________________________________________


Detailed state:  trans -3.303 -21.775 23.135 quatxyzw 0.286219 -0.492825 -0.611206 -0.549208 center 0.035 0.082 -0.065 ntor 24 106.4334 48.5324 136.3079 -6.0852 -2.8574 175.5027 95.0827 -12.9757 26.2569 121.7483 9.4265 -112.8964 -31.4762 84.4988 -161.5514 69.9167 94.0383 -35.9093 31.8053 -35.6036 -41.8812 128.4945 19.5254 -51.4744
State:	 -3.303 -21.775  23.135   0.342 -0.590 -0.731 -113.375    106.43   48.53  136.31   -6.09   -2.86  175.50   95.08  -12.98   26.26  121.75    9.43 -112.90  -31.48   84.50 -161.55   69.92   94.04  -35.91   31.81  -35.60  -41.88  128.49   19.53  -51.47

DOCKED: MODEL       19
DOCKED: USER    Run = 19
DOCKED: USER    DPF = D:/Protein_go_brrr/autodock/final/1A3N/IHP/dock.dpf
DOCKED: USER  
DOCKED: USER    Estimated Free Energy of Binding    =   +3.30 kcal/mol  [=(1)+(2)+(3)-(4)]
DOCKED: USER    
DOCKED: USER    (1) Final Intermolecular Energy     =   -3.86 kcal/mol
DOCKED: USER        vdW + Hbond + desolv Energy     =   -3.66 kcal/mol
DOCKED: USER        Electrostatic Energy            =   -0.20 kcal/mol
DOCKED: USER    (2) Final Total Internal Energy     =  -13.23 kcal/mol
DOCKED: USER    (3) Torsional Free Energy           =   +7.16 kcal/mol
DOCKED: USER    (4) Unbound System's Energy  [=(2)] =  -13.23 kcal/mol
DOCKED: USER    
DOCKED: USER    
DOCKED: USER    NEWDPF move IHP_ideal_opt.pdbqt
DOCKED: USER    NEWDPF about 0.035000 0.082000 -0.065000
DOCKED: USER    NEWDPF tran0 -3.303035 -21.774962 23.135338
DOCKED: USER    NEWDPF quaternion0 0.286219 -0.492825 -0.611206 -0.549208
DOCKED: USER    NEWDPF axisangle0 0.342496 -0.589726 -0.731382 -113.374597
DOCKED: USER    NEWDPF quat0 0.342496 -0.589726 -0.731382 -113.374597
DOCKED: USER    NEWDPF dihe0 106.43 48.53 136.31 -6.09 -2.86 175.50 95.08 -12.98 26.26 121.75 9.43 -112.90 -31.48 84.50 -161.55 69.92 94.04 -35.91 31.81 -35.60 -41.88 128.49 19.53 -51.47 
DOCKED: USER  keepresnum = 1 
DOCKED: USER  
DOCKED: REMARK  24 active torsions:
DOCKED: REMARK  status: ('A' for Active; 'I' for Inactive)
DOCKED: REMARK    1  A    between atoms: C_1  and  O_7 
DOCKED: REMARK    2  A    between atoms: C_2  and  O_12 
DOCKED: REMARK    3  A    between atoms: C_3  and  O_17 
DOCKED: REMARK    4  A    between atoms: C_4  and  O_22 
DOCKED: REMARK    5  A    between atoms: C_5  and  O_27 
DOCKED: REMARK    6  A    between atoms: C_6  and  O_32 
DOCKED: REMARK    7  A    between atoms: O_7  and  P_8 
DOCKED: REMARK    8  A    between atoms: P_8  and  O_10 
DOCKED: REMARK    9  A    between atoms: P_8  and  O_11 
DOCKED: REMARK   10  A    between atoms: O_12  and  P_13 
DOCKED: REMARK   11  A    between atoms: P_13  and  O_15 
DOCKED: REMARK   12  A    between atoms: P_13  and  O_16 
DOCKED: REMARK   13  A    between atoms: O_17  and  P_18 
DOCKED: REMARK   14  A    between atoms: P_18  and  O_20 
DOCKED: REMARK   15  A    between atoms: P_18  and  O_21 
DOCKED: REMARK   16  A    between atoms: O_22  and  P_23 
DOCKED: REMARK   17  A    between atoms: P_23  and  O_25 
DOCKED: REMARK   18  A    between atoms: P_23  and  O_26 
DOCKED: REMARK   19  A    between atoms: O_27  and  P_28 
DOCKED: REMARK   20  A    between atoms: P_28  and  O_30 
DOCKED: REMARK   21  A    between atoms: P_28  and  O_31 
DOCKED: REMARK   22  A    between atoms: O_32  and  P_33 
DOCKED: REMARK   23  A    between atoms: P_33  and  O_35 
DOCKED: REMARK   24  A    between atoms: P_33  and  O_36 
DOCKED: USER                              x       y       z     vdW  Elec       q    Type
DOCKED: USER                           _______ _______ _______ _____ _____    ______ ____
DOCKED: ROOT
DOCKED: ATOM      1  C   UNL d   1      -4.645 -22.821  22.838 -0.02 -0.00    +0.194 C 
DOCKED: ATOM      2  C   UNL d   1      -4.339 -21.809  21.733 -0.05 +0.01    +0.194 C 
DOCKED: ATOM      3  C   UNL d   1      -4.022 -20.425  22.304 -0.13 +0.02    +0.194 C 
DOCKED: ATOM      4  C   UNL d   1      -2.938 -20.452  23.379 -0.12 +0.01    +0.194 C 
DOCKED: ATOM      5  C   UNL d   1      -3.143 -21.525  24.440 -0.05 +0.00    +0.194 C 
DOCKED: ATOM      6  C   UNL d   1      -3.521 -22.894  23.872 -0.02 -0.00    +0.194 C 
DOCKED: ENDROOT
DOCKED: BRANCH   1   7
DOCKED: ATOM      7  O   UNL d   1      -4.759 -24.114  22.240 -0.00 +0.00    -0.278 OA
DOCKED: BRANCH   7   8
DOCKED: ATOM      8  P   UNL d   1      -6.199 -24.599  21.748 +0.00 -0.01    +0.473 P 
DOCKED: ATOM      9  O   UNL d   1      -7.190 -23.511  21.527 -0.01 +0.00    -0.228 OA
DOCKED: BRANCH   8  10
DOCKED: ATOM     10  O   UNL d   1      -5.893 -25.446  20.431 +0.00 +0.01    -0.303 OA
DOCKED: ATOM     11  H   UNL d   1      -5.335 -24.922  19.827 +0.01 -0.01    +0.222 HD
DOCKED: ENDBRANCH   8  10
DOCKED: BRANCH   8  12
DOCKED: ATOM     12  O   UNL d   1      -6.629 -25.730  22.778 -0.00 +0.01    -0.303 OA
DOCKED: ATOM     13  H   UNL d   1      -5.978 -25.857  23.505 +0.00 -0.01    +0.222 HD
DOCKED: ENDBRANCH   8  12
DOCKED: ENDBRANCH   7   8
DOCKED: ENDBRANCH   1   7
DOCKED: BRANCH   2  14
DOCKED: ATOM     14  O   UNL d   1      -3.205 -22.264  20.984 -0.01 -0.02    -0.278 OA
DOCKED: BRANCH  14  15
DOCKED: ATOM     15  P   UNL d   1      -3.515 -23.075  19.638 -0.01 -0.02    +0.473 P 
DOCKED: ATOM     16  O   UNL d   1      -2.638 -22.784  18.461 -0.10 +0.07    -0.228 OA
DOCKED: BRANCH  15  17
DOCKED: ATOM     17  O   UNL d   1      -3.462 -24.603  20.085 +0.00 +0.02    -0.303 OA
DOCKED: ATOM     18  H   UNL d   1      -3.885 -24.730  20.956 +0.01 -0.01    +0.222 HD
DOCKED: ENDBRANCH  15  17
DOCKED: BRANCH  15  19
DOCKED: ATOM     19  O   UNL d   1      -5.074 -22.866  19.400 -0.01 -0.00    -0.303 OA
DOCKED: ATOM     20  H   UNL d   1      -5.606 -23.290  20.098 +0.02 -0.00    +0.222 HD
DOCKED: ENDBRANCH  15  19
DOCKED: ENDBRANCH  14  15
DOCKED: ENDBRANCH   2  14
DOCKED: BRANCH   6  21
DOCKED: ATOM     21  O   UNL d   1      -4.006 -23.674  24.963 -0.01 +0.01    -0.278 OA
DOCKED: BRANCH  21  22
DOCKED: ATOM     22  P   UNL d   1      -3.699 -25.238  25.016 +0.00 -0.01    +0.473 P 
DOCKED: ATOM     23  O   UNL d   1      -4.831 -26.170  25.291 +0.00 +0.01    -0.228 OA
DOCKED: BRANCH  22  24
DOCKED: ATOM     24  O   UNL d   1      -2.964 -25.473  23.625 +0.00 +0.00    -0.303 OA
DOCKED: ATOM     25  H   UNL d   1      -3.630 -25.356  22.900 +0.00 -0.00    +0.222 HD
DOCKED: ENDBRANCH  22  24
DOCKED: BRANCH  22  26
DOCKED: ATOM     26  O   UNL d   1      -2.476 -25.295  26.051 +0.00 +0.00    -0.303 OA
DOCKED: ATOM     27  H   UNL d   1      -2.280 -24.390  26.368 +0.00 -0.00    +0.222 HD
DOCKED: ENDBRANCH  22  26
DOCKED: ENDBRANCH  21  22
DOCKED: ENDBRANCH   6  21
DOCKED: BRANCH   3  28
DOCKED: ATOM     28  O   UNL d   1      -3.486 -19.638  21.247 -0.22 -0.09    -0.278 OA
DOCKED: BRANCH  28  29
DOCKED: ATOM     29  P   UNL d   1      -2.027 -19.012  21.371 -0.21 +0.14    +0.473 P 
DOCKED: ATOM     30  O   UNL d   1      -0.983 -19.922  21.908 -0.57 -0.07    -0.228 OA
DOCKED: BRANCH  29  31
DOCKED: ATOM     31  O   UNL d   1      -1.825 -18.478  19.876 -0.78 -0.36    -0.303 OA
DOCKED: ATOM     32  H   UNL d   1      -1.281 -17.657  19.907 -0.42 +0.09    +0.222 HD
DOCKED: ENDBRANCH  29  31
DOCKED: BRANCH  29  33
DOCKED: ATOM     33  O   UNL d   1      -2.306 -17.674  22.188 -0.33 -0.01    -0.303 OA
DOCKED: ATOM     34  H   UNL d   1      -2.899 -17.882  22.951 +0.09 +0.02    +0.222 HD
DOCKED: ENDBRANCH  29  33
DOCKED: ENDBRANCH  28  29
DOCKED: ENDBRANCH   3  28
DOCKED: BRANCH   5  35
DOCKED: ATOM     35  O   UNL d   1      -1.882 -21.673  25.090 -0.02 -0.00    -0.278 OA
DOCKED: BRANCH  35  36
DOCKED: ATOM     36  P   UNL d   1      -1.813 -22.112  26.622 +0.00 -0.01    +0.473 P 
DOCKED: ATOM     37  O   UNL d   1      -0.750 -23.109  26.959 -0.00 +0.00    -0.228 OA
DOCKED: BRANCH  36  38
DOCKED: ATOM     38  O   UNL d   1      -1.650 -20.709  27.356 -0.01 +0.01    -0.303 OA
DOCKED: ATOM     39  H   UNL d   1      -0.994 -20.165  26.869 +0.03 -0.00    +0.222 HD
DOCKED: ENDBRANCH  36  38
DOCKED: BRANCH  36  40
DOCKED: ATOM     40  O   UNL d   1      -3.317 -22.530  26.924 -0.00 +0.01    -0.303 OA
DOCKED: ATOM     41  H   UNL d   1      -3.517 -23.435  26.595 +0.01 -0.01    +0.222 HD
DOCKED: ENDBRANCH  36  40
DOCKED: ENDBRANCH  35  36
DOCKED: ENDBRANCH   5  35
DOCKED: BRANCH   4  42
DOCKED: ATOM     42  O   UNL d   1      -2.984 -19.186  24.045 -0.13 -0.01    -0.278 OA
DOCKED: BRANCH  42  43
DOCKED: ATOM     43  P   UNL d   1      -1.732 -18.730  24.923 -0.14 +0.02    +0.473 P 
DOCKED: ATOM     44  O   UNL d   1      -0.490 -19.546  24.822 -0.22 -0.02    -0.228 OA
DOCKED: BRANCH  43  45
DOCKED: ATOM     45  O   UNL d   1      -1.546 -17.207  24.501 -0.24 -0.02    -0.303 OA
DOCKED: ATOM     46  H   UNL d   1      -1.315 -17.123  23.555 +0.05 +0.01    +0.222 HD
DOCKED: ENDBRANCH  43  45
DOCKED: BRANCH  43  47
DOCKED: ATOM     47  O   UNL d   1      -2.349 -18.588  26.395 -0.10 +0.02    -0.303 OA
DOCKED: ATOM     48  H   UNL d   1      -2.624 -19.472  26.716 +0.05 -0.02    +0.222 HD
DOCKED: ENDBRANCH  43  47
DOCKED: ENDBRANCH  42  43
DOCKED: ENDBRANCH   4  42
DOCKED: TORSDOF 24
DOCKED: TER
DOCKED: ENDMDL
________________________________________________________________________________


	BEGINNING GENETIC ALGORITHM DOCKING 20 of 100
Run: 20 Seed: 492073199 1556022567 [ Run 20 of 100 GA/GALS ]
Beginning LAMARCKIAN GENETIC ALGORITHM (LGA), with a maximum of 25000000 energy evaluations.

Final-Value: -15.498


	FINAL GENETIC ALGORITHM DOCKED STATE
	_______________________________________________


Detailed state:  trans 37.509 -11.528 36.409 quatxyzw 0.835782 0.513472 0.023228 0.193070 center 0.035 0.082 -0.065 ntor 24 -145.9369 27.2964 109.6852 134.2458 119.8221 -161.7719 179.9382 -100.2842 160.6694 123.0887 -25.5144 -14.0346 -146.1311 98.0840 129.0527 -52.8669 44.8115 33.7178 53.2416 9.5457 -18.5344 147.1963 179.9355 -174.8822
State:	 37.509 -11.528  36.409   0.852  0.523  0.024 157.736   -145.94   27.30  109.69  134.25  119.82 -161.77  179.94 -100.28  160.67  123.09  -25.51  -14.03 -146.13   98.08  129.05  -52.87   44.81   33.72   53.24    9.55  -18.53  147.20  179.94 -174.88

DOCKED: MODEL       20
DOCKED: USER    Run = 20
DOCKED: USER    DPF = D:/Protein_go_brrr/autodock/final/1A3N/IHP/dock.dpf
DOCKED: USER  
DOCKED: USER    Estimated Free Energy of Binding    =   +4.01 kcal/mol  [=(1)+(2)+(3)-(4)]
DOCKED: USER    
DOCKED: USER    (1) Final Intermolecular Energy     =   -3.15 kcal/mol
DOCKED: USER        vdW + Hbond + desolv Energy     =   -2.58 kcal/mol
DOCKED: USER        Electrostatic Energy            =   -0.58 kcal/mol
DOCKED: USER    (2) Final Total Internal Energy     =  -12.35 kcal/mol
DOCKED: USER    (3) Torsional Free Energy           =   +7.16 kcal/mol
DOCKED: USER    (4) Unbound System's Energy  [=(2)] =  -12.35 kcal/mol
DOCKED: USER    
DOCKED: USER    
DOCKED: USER    NEWDPF move IHP_ideal_opt.pdbqt
DOCKED: USER    NEWDPF about 0.035000 0.082000 -0.065000
DOCKED: USER    NEWDPF tran0 37.509283 -11.527853 36.409455
DOCKED: USER    NEWDPF quaternion0 0.835782 0.513472 0.023228 0.193070
DOCKED: USER    NEWDPF axisangle0 0.851808 0.523318 0.023674 157.735978
DOCKED: USER    NEWDPF quat0 0.851808 0.523318 0.023674 157.735978
DOCKED: USER    NEWDPF dihe0 -145.94 27.30 109.69 134.25 119.82 -161.77 179.94 -100.28 160.67 123.09 -25.51 -14.03 -146.13 98.08 129.05 -52.87 44.81 33.72 53.24 9.55 -18.53 147.20 179.94 -174.88 
DOCKED: USER  keepresnum = 1 
DOCKED: USER  
DOCKED: REMARK  24 active torsions:
DOCKED: REMARK  status: ('A' for Active; 'I' for Inactive)
DOCKED: REMARK    1  A    between atoms: C_1  and  O_7 
DOCKED: REMARK    2  A    between atoms: C_2  and  O_12 
DOCKED: REMARK    3  A    between atoms: C_3  and  O_17 
DOCKED: REMARK    4  A    between atoms: C_4  and  O_22 
DOCKED: REMARK    5  A    between atoms: C_5  and  O_27 
DOCKED: REMARK    6  A    between atoms: C_6  and  O_32 
DOCKED: REMARK    7  A    between atoms: O_7  and  P_8 
DOCKED: REMARK    8  A    between atoms: P_8  and  O_10 
DOCKED: REMARK    9  A    between atoms: P_8  and  O_11 
DOCKED: REMARK   10  A    between atoms: O_12  and  P_13 
DOCKED: REMARK   11  A    between atoms: P_13  and  O_15 
DOCKED: REMARK   12  A    between atoms: P_13  and  O_16 
DOCKED: REMARK   13  A    between atoms: O_17  and  P_18 
DOCKED: REMARK   14  A    between atoms: P_18  and  O_20 
DOCKED: REMARK   15  A    between atoms: P_18  and  O_21 
DOCKED: REMARK   16  A    between atoms: O_22  and  P_23 
DOCKED: REMARK   17  A    between atoms: P_23  and  O_25 
DOCKED: REMARK   18  A    between atoms: P_23  and  O_26 
DOCKED: REMARK   19  A    between atoms: O_27  and  P_28 
DOCKED: REMARK   20  A    between atoms: P_28  and  O_30 
DOCKED: REMARK   21  A    between atoms: P_28  and  O_31 
DOCKED: REMARK   22  A    between atoms: O_32  and  P_33 
DOCKED: REMARK   23  A    between atoms: P_33  and  O_35 
DOCKED: REMARK   24  A    between atoms: P_33  and  O_36 
DOCKED: USER                              x       y       z     vdW  Elec       q    Type
DOCKED: USER                           _______ _______ _______ _____ _____    ______ ____
DOCKED: ROOT
DOCKED: ATOM      1  C   UNL d   1      37.204  -9.836  36.241 -0.13 +0.10    +0.194 C 
DOCKED: ATOM      2  C   UNL d   1      35.977 -10.704  36.526 -0.08 +0.03    +0.194 C 
DOCKED: ATOM      3  C   UNL d   1      35.989 -11.991  35.700 -0.06 -0.01    +0.194 C 
DOCKED: ATOM      4  C   UNL d   1      37.293 -12.775  35.827 -0.02 -0.02    +0.194 C 
DOCKED: ATOM      5  C   UNL d   1      38.546 -11.926  35.663 -0.07 -0.02    +0.194 C 
DOCKED: ATOM      6  C   UNL d   1      38.508 -10.609  36.441 -0.09 +0.07    +0.194 C 
DOCKED: ENDROOT
DOCKED: BRANCH   1   7
DOCKED: ATOM      7  O   UNL d   1      37.207  -8.748  37.168 -0.18 -0.22    -0.278 OA
DOCKED: BRANCH   7   8
DOCKED: ATOM      8  P   UNL d   1      36.083  -7.622  37.021 -0.12 +0.33    +0.473 P 
DOCKED: ATOM      9  O   UNL d   1      36.485  -6.430  36.227 -0.63 -0.26    -0.228 OA
DOCKED: BRANCH   8  10
DOCKED: ATOM     10  O   UNL d   1      34.836  -8.399  36.400 -0.19 -0.11    -0.303 OA
DOCKED: ATOM     11  H   UNL d   1      34.600  -9.151  36.975 +0.08 +0.07    +0.222 HD
DOCKED: ENDBRANCH   8  10
DOCKED: BRANCH   8  12
DOCKED: ATOM     12  O   UNL d   1      35.590  -7.335  38.504 -0.06 -0.13    -0.303 OA
DOCKED: ATOM     13  H   UNL d   1      35.832  -8.049  39.136 +0.03 +0.07    +0.222 HD
DOCKED: ENDBRANCH   8  12
DOCKED: ENDBRANCH   7   8
DOCKED: ENDBRANCH   1   7
DOCKED: BRANCH   2  14
DOCKED: ATOM     14  O   UNL d   1      35.965 -11.053  37.916 -0.01 -0.04    -0.278 OA
DOCKED: BRANCH  14  15
DOCKED: ATOM     15  P   UNL d   1      34.537 -11.065  38.639 +0.01 +0.08    +0.473 P 
DOCKED: ATOM     16  O   UNL d   1      34.392 -11.966  39.826 +0.00 -0.03    -0.228 OA
DOCKED: BRANCH  15  17
DOCKED: ATOM     17  O   UNL d   1      34.267  -9.535  38.989 -0.01 -0.08    -0.303 OA
DOCKED: ATOM     18  H   UNL d   1      34.885  -8.950  38.509 +0.05 +0.07    +0.222 HD
DOCKED: ENDBRANCH  15  17
DOCKED: BRANCH  15  19
DOCKED: ATOM     19  O   UNL d   1      33.497 -11.311  37.461 -0.02 -0.06    -0.303 OA
DOCKED: ATOM     20  H   UNL d   1      33.512 -12.237  37.155 +0.04 +0.02    +0.222 HD
DOCKED: ENDBRANCH  15  19
DOCKED: ENDBRANCH  14  15
DOCKED: ENDBRANCH   2  14
DOCKED: BRANCH   6  21
DOCKED: ATOM     21  O   UNL d   1      39.560  -9.795  35.926 -0.40 -0.27    -0.278 OA
DOCKED: BRANCH  21  22
DOCKED: ATOM     22  P   UNL d   1      40.713  -9.281  36.902 -0.02 +0.33    +0.473 P 
DOCKED: ATOM     23  O   UNL d   1      42.009  -8.855  36.298 -0.04 -0.12    -0.228 OA
DOCKED: BRANCH  22  24
DOCKED: ATOM     24  O   UNL d   1      39.959  -8.151  37.730 -0.04 -0.27    -0.303 OA
DOCKED: ATOM     25  H   UNL d   1      39.139  -8.549  38.120 +0.02 +0.15    +0.222 HD
DOCKED: ENDBRANCH  22  24
DOCKED: BRANCH  22  26
DOCKED: ATOM     26  O   UNL d   1      40.793 -10.476  37.968 -0.00 -0.07    -0.303 OA
DOCKED: ATOM     27  H   UNL d   1      40.454 -11.297  37.558 +0.01 +0.03    +0.222 HD
DOCKED: ENDBRANCH  22  26
DOCKED: ENDBRANCH  21  22
DOCKED: ENDBRANCH   6  21
DOCKED: BRANCH   3  28
DOCKED: ATOM     28  O   UNL d   1      34.981 -12.847  36.224 -0.01 +0.01    -0.278 OA
DOCKED: BRANCH  28  29
DOCKED: ATOM     29  P   UNL d   1      35.374 -14.066  37.170 +0.01 -0.01    +0.473 P 
DOCKED: ATOM     30  O   UNL d   1      35.896 -15.272  36.477 +0.00 +0.02    -0.228 OA
DOCKED: BRANCH  29  31
DOCKED: ATOM     31  O   UNL d   1      36.366 -13.325  38.184 +0.00 -0.01    -0.303 OA
DOCKED: ATOM     32  H   UNL d   1      37.207 -13.836  38.231 +0.00 +0.00    +0.222 HD
DOCKED: ENDBRANCH  29  31
DOCKED: BRANCH  29  33
DOCKED: ATOM     33  O   UNL d   1      34.055 -14.252  38.041 -0.00 -0.01    -0.303 OA
DOCKED: ATOM     34  H   UNL d   1      33.706 -13.361  38.290 +0.01 +0.02    +0.222 HD
DOCKED: ENDBRANCH  29  33
DOCKED: ENDBRANCH  28  29
DOCKED: ENDBRANCH   3  28
DOCKED: BRANCH   5  35
DOCKED: ATOM     35  O   UNL d   1      39.613 -12.702  36.203 -0.01 +0.01    -0.278 OA
DOCKED: BRANCH  35  36
DOCKED: ATOM     36  P   UNL d   1      39.473 -13.369  37.645 +0.01 +0.00    +0.473 P 
DOCKED: ATOM     37  O   UNL d   1      38.877 -14.741  37.666 +0.00 +0.01    -0.228 OA
DOCKED: BRANCH  36  38
DOCKED: ATOM     38  O   UNL d   1      40.969 -13.298  38.185 +0.00 -0.01    -0.303 OA
DOCKED: ATOM     39  H   UNL d   1      41.095 -12.454  38.671 +0.00 +0.01    +0.222 HD
DOCKED: ENDBRANCH  36  38
DOCKED: BRANCH  36  40
DOCKED: ATOM     40  O   UNL d   1      38.714 -12.240  38.470 +0.00 -0.03    -0.303 OA
DOCKED: ATOM     41  H   UNL d   1      37.745 -12.259  38.306 +0.01 +0.02    +0.222 HD
DOCKED: ENDBRANCH  36  40
DOCKED: ENDBRANCH  35  36
DOCKED: ENDBRANCH   5  35
DOCKED: BRANCH   4  42
DOCKED: ATOM     42  O   UNL d   1      37.299 -13.743  34.771 -0.02 +0.07    -0.278 OA
DOCKED: BRANCH  42  43
DOCKED: ATOM     43  P   UNL d   1      37.569 -13.253  33.278 -0.05 -0.31    +0.473 P 
DOCKED: ATOM     44  O   UNL d   1      38.983 -12.994  32.885 -0.10 +0.21    -0.228 OA
DOCKED: BRANCH  43  45
DOCKED: ATOM     45  O   UNL d   1      36.847 -14.373  32.407 -0.04 +0.14    -0.303 OA
DOCKED: ATOM     46  H   UNL d   1      37.484 -15.038  32.079 +0.04 -0.09    +0.222 HD
DOCKED: ENDBRANCH  43  45
DOCKED: BRANCH  43  47
DOCKED: ATOM     47  O   UNL d   1      36.567 -12.014  33.111 -0.11 +0.33    -0.303 OA
DOCKED: ATOM     48  H   UNL d   1      36.822 -11.496  32.320 -0.43 -0.61    +0.222 HD
DOCKED: ENDBRANCH  43  47
DOCKED: ENDBRANCH  42  43
DOCKED: ENDBRANCH   4  42
DOCKED: TORSDOF 24
DOCKED: TER
DOCKED: ENDMDL
________________________________________________________________________________


	BEGINNING GENETIC ALGORITHM DOCKING 21 of 100
Run: 21 Seed: 358718643 948148317 [ Run 21 of 100 GA/GALS ]
Beginning LAMARCKIAN GENETIC ALGORITHM (LGA), with a maximum of 25000000 energy evaluations.

Final-Value: -16.895


	FINAL GENETIC ALGORITHM DOCKED STATE
	_______________________________________________


Detailed state:  trans 38.027 24.107 21.169 quatxyzw -0.124799 0.458229 -0.876077 -0.083313 center 0.035 0.082 -0.065 ntor 24 169.5854 -47.7677 69.5773 119.3012 107.7219 84.7020 -108.6557 45.4589 105.6010 -8.8806 122.3421 161.0475 42.2302 -21.2013 96.5276 33.1111 59.4969 -168.8686 26.4614 -18.6780 -54.7854 171.8586 -16.0382 -23.7972
State:	 38.027  24.107  21.169  -0.125  0.460 -0.879 -170.442    169.59  -47.77   69.58  119.30  107.72   84.70 -108.66   45.46  105.60   -8.88  122.34  161.05   42.23  -21.20   96.53   33.11   59.50 -168.87   26.46  -18.68  -54.79  171.86  -16.04  -23.80

DOCKED: MODEL       21
DOCKED: USER    Run = 21
DOCKED: USER    DPF = D:/Protein_go_brrr/autodock/final/1A3N/IHP/dock.dpf
DOCKED: USER  
DOCKED: USER    Estimated Free Energy of Binding    =   +5.46 kcal/mol  [=(1)+(2)+(3)-(4)]
DOCKED: USER    
DOCKED: USER    (1) Final Intermolecular Energy     =   -1.70 kcal/mol
DOCKED: USER        vdW + Hbond + desolv Energy     =   -1.62 kcal/mol
DOCKED: USER        Electrostatic Energy            =   -0.08 kcal/mol
DOCKED: USER    (2) Final Total Internal Energy     =  -15.19 kcal/mol
DOCKED: USER    (3) Torsional Free Energy           =   +7.16 kcal/mol
DOCKED: USER    (4) Unbound System's Energy  [=(2)] =  -15.19 kcal/mol
DOCKED: USER    
DOCKED: USER    
DOCKED: USER    NEWDPF move IHP_ideal_opt.pdbqt
DOCKED: USER    NEWDPF about 0.035000 0.082000 -0.065000
DOCKED: USER    NEWDPF tran0 38.027368 24.107498 21.168994
DOCKED: USER    NEWDPF quaternion0 -0.124799 0.458229 -0.876077 -0.083313
DOCKED: USER    NEWDPF axisangle0 -0.125234 0.459828 -0.879133 -170.441903
DOCKED: USER    NEWDPF quat0 -0.125234 0.459828 -0.879133 -170.441903
DOCKED: USER    NEWDPF dihe0 169.59 -47.77 69.58 119.30 107.72 84.70 -108.66 45.46 105.60 -8.88 122.34 161.05 42.23 -21.20 96.53 33.11 59.50 -168.87 26.46 -18.68 -54.79 171.86 -16.04 -23.80 
DOCKED: USER  keepresnum = 1 
DOCKED: USER  
DOCKED: REMARK  24 active torsions:
DOCKED: REMARK  status: ('A' for Active; 'I' for Inactive)
DOCKED: REMARK    1  A    between atoms: C_1  and  O_7 
DOCKED: REMARK    2  A    between atoms: C_2  and  O_12 
DOCKED: REMARK    3  A    between atoms: C_3  and  O_17 
DOCKED: REMARK    4  A    between atoms: C_4  and  O_22 
DOCKED: REMARK    5  A    between atoms: C_5  and  O_27 
DOCKED: REMARK    6  A    between atoms: C_6  and  O_32 
DOCKED: REMARK    7  A    between atoms: O_7  and  P_8 
DOCKED: REMARK    8  A    between atoms: P_8  and  O_10 
DOCKED: REMARK    9  A    between atoms: P_8  and  O_11 
DOCKED: REMARK   10  A    between atoms: O_12  and  P_13 
DOCKED: REMARK   11  A    between atoms: P_13  and  O_15 
DOCKED: REMARK   12  A    between atoms: P_13  and  O_16 
DOCKED: REMARK   13  A    between atoms: O_17  and  P_18 
DOCKED: REMARK   14  A    between atoms: P_18  and  O_20 
DOCKED: REMARK   15  A    between atoms: P_18  and  O_21 
DOCKED: REMARK   16  A    between atoms: O_22  and  P_23 
DOCKED: REMARK   17  A    between atoms: P_23  and  O_25 
DOCKED: REMARK   18  A    between atoms: P_23  and  O_26 
DOCKED: REMARK   19  A    between atoms: O_27  and  P_28 
DOCKED: REMARK   20  A    between atoms: P_28  and  O_30 
DOCKED: REMARK   21  A    between atoms: P_28  and  O_31 
DOCKED: REMARK   22  A    between atoms: O_32  and  P_33 
DOCKED: REMARK   23  A    between atoms: P_33  and  O_35 
DOCKED: REMARK   24  A    between atoms: P_33  and  O_36 
DOCKED: USER                              x       y       z     vdW  Elec       q    Type
DOCKED: USER                           _______ _______ _______ _____ _____    ______ ____
DOCKED: ROOT
DOCKED: ATOM      1  C   UNL d   1      37.036  23.665  22.513 -0.01 +0.01    +0.194 C 
DOCKED: ATOM      2  C   UNL d   1      38.094  24.734  22.795 -0.00 +0.00    +0.194 C 
DOCKED: ATOM      3  C   UNL d   1      39.437  24.385  22.152 -0.00 +0.00    +0.194 C 
DOCKED: ATOM      4  C   UNL d   1      39.326  24.062  20.664 -0.01 +0.00    +0.194 C 
DOCKED: ATOM      5  C   UNL d   1      38.207  23.086  20.323 -0.04 +0.01    +0.194 C 
DOCKED: ATOM      6  C   UNL d   1      36.879  23.400  21.015 -0.05 +0.01    +0.194 C 
DOCKED: ENDROOT
DOCKED: BRANCH   1   7
DOCKED: ATOM      7  O   UNL d   1      35.778  24.144  22.995 -0.01 -0.01    -0.278 OA
DOCKED: BRANCH   7   8
DOCKED: ATOM      8  P   UNL d   1      35.301  23.691  24.451 +0.00 +0.01    +0.473 P 
DOCKED: ATOM      9  O   UNL d   1      35.649  24.632  25.550 +0.00 -0.00    -0.228 OA
DOCKED: BRANCH   8  10
DOCKED: ATOM     10  O   UNL d   1      33.730  23.467  24.290 -0.00 -0.01    -0.303 OA
DOCKED: ATOM     11  H   UNL d   1      33.494  23.474  23.343 +0.02 +0.01    +0.222 HD
DOCKED: ENDBRANCH   8  10
DOCKED: BRANCH   8  12
DOCKED: ATOM     12  O   UNL d   1      35.834  22.203  24.615 -0.00 -0.00    -0.303 OA
DOCKED: ATOM     13  H   UNL d   1      35.174  21.525  24.347 +0.01 +0.00    +0.222 HD
DOCKED: ENDBRANCH   8  12
DOCKED: ENDBRANCH   7   8
DOCKED: ENDBRANCH   1   7
DOCKED: BRANCH   2  14
DOCKED: ATOM     14  O   UNL d   1      37.645  25.987  22.264 -0.00 -0.01    -0.278 OA
DOCKED: BRANCH  14  15
DOCKED: ATOM     15  P   UNL d   1      37.302  27.134  23.328 -0.00 +0.01    +0.473 P 
DOCKED: ATOM     16  O   UNL d   1      38.139  27.173  24.567 +0.00 -0.00    -0.228 OA
DOCKED: BRANCH  15  17
DOCKED: ATOM     17  O   UNL d   1      37.385  28.483  22.484 -0.00 -0.01    -0.303 OA
DOCKED: ATOM     18  H   UNL d   1      37.985  28.383  21.720 +0.00 +0.00    +0.222 HD
DOCKED: ENDBRANCH  15  17
DOCKED: BRANCH  15  19
DOCKED: ATOM     19  O   UNL d   1      35.734  27.000  23.563 -0.00 -0.01    -0.303 OA
DOCKED: ATOM     20  H   UNL d   1      35.494  26.119  23.903 +0.00 +0.01    +0.222 HD
DOCKED: ENDBRANCH  15  19
DOCKED: ENDBRANCH  14  15
DOCKED: ENDBRANCH   2  14
DOCKED: BRANCH   6  21
DOCKED: ATOM     21  O   UNL d   1      36.059  22.241  20.879 -0.11 -0.03    -0.278 OA
DOCKED: BRANCH  21  22
DOCKED: ATOM     22  P   UNL d   1      34.473  22.377  20.981 -0.16 +0.09    +0.473 P 
DOCKED: ATOM     23  O   UNL d   1      33.645  21.823  19.871 -0.58 -0.11    -0.228 OA
DOCKED: BRANCH  22  24
DOCKED: ATOM     24  O   UNL d   1      34.183  21.741  22.411 -0.05 -0.03    -0.303 OA
DOCKED: ATOM     25  H   UNL d   1      34.881  22.061  23.038 +0.03 +0.01    +0.222 HD
DOCKED: ENDBRANCH  22  24
DOCKED: BRANCH  22  26
DOCKED: ATOM     26  O   UNL d   1      34.299  23.943  21.274 -0.08 -0.04    -0.303 OA
DOCKED: ATOM     27  H   UNL d   1      34.318  24.094  22.241 +0.03 +0.02    +0.222 HD
DOCKED: ENDBRANCH  22  26
DOCKED: ENDBRANCH  21  22
DOCKED: ENDBRANCH   6  21
DOCKED: BRANCH   3  28
DOCKED: ATOM     28  O   UNL d   1      40.261  25.542  22.226 +0.00 -0.00    -0.278 OA
DOCKED: BRANCH  28  29
DOCKED: ATOM     29  P   UNL d   1      40.043  26.751  21.212 -0.00 +0.01    +0.473 P 
DOCKED: ATOM     30  O   UNL d   1      38.848  26.645  20.336 -0.00 -0.01    -0.228 OA
DOCKED: BRANCH  29  31
DOCKED: ATOM     31  O   UNL d   1      40.087  27.983  22.234 +0.00 -0.00    -0.303 OA
DOCKED: ATOM     32  H   UNL d   1      39.394  27.846  22.920 +0.00 +0.00    +0.222 HD
DOCKED: ENDBRANCH  29  31
DOCKED: BRANCH  29  33
DOCKED: ATOM     33  O   UNL d   1      41.459  26.842  20.491 +0.00 -0.00    -0.303 OA
DOCKED: ATOM     34  H   UNL d   1      41.382  26.459  19.583 +0.00 +0.00    +0.222 HD
DOCKED: ENDBRANCH  29  33
DOCKED: ENDBRANCH  28  29
DOCKED: ENDBRANCH   3  28
DOCKED: BRANCH   5  35
DOCKED: ATOM     35  O   UNL d   1      37.990  23.221  18.919 -0.07 -0.02    -0.278 OA
DOCKED: BRANCH  35  36
DOCKED: ATOM     36  P   UNL d   1      38.304  22.004  17.937 -0.15 +0.01    +0.473 P 
DOCKED: ATOM     37  O   UNL d   1      37.110  21.256  17.435 -0.26 -0.03    -0.228 OA
DOCKED: BRANCH  36  38
DOCKED: ATOM     38  O   UNL d   1      39.157  22.717  16.796 -0.10 +0.02    -0.303 OA
DOCKED: ATOM     39  H   UNL d   1      39.714  23.415  17.202 +0.03 -0.00    +0.222 HD
DOCKED: ENDBRANCH  36  38
DOCKED: BRANCH  36  40
DOCKED: ATOM     40  O   UNL d   1      39.383  21.173  18.759 -0.08 -0.00    -0.303 OA
DOCKED: ATOM     41  H   UNL d   1      40.116  21.744  19.079 +0.04 +0.00    +0.222 HD
DOCKED: ENDBRANCH  36  40
DOCKED: ENDBRANCH  35  36
DOCKED: ENDBRANCH   5  35
DOCKED: BRANCH   4  42
DOCKED: ATOM     42  O   UNL d   1      40.557  23.441  20.281 -0.00 -0.00    -0.278 OA
DOCKED: BRANCH  42  43
DOCKED: ATOM     43  P   UNL d   1      41.268  23.904  18.930 +0.00 +0.00    +0.473 P 
DOCKED: ATOM     44  O   UNL d   1      41.543  22.859  17.905 -0.02 +0.00    -0.228 OA
DOCKED: BRANCH  43  45
DOCKED: ATOM     45  O   UNL d   1      40.321  25.079  18.423 -0.00 -0.01    -0.303 OA
DOCKED: ATOM     46  H   UNL d   1      40.135  25.722  19.137 +0.01 +0.00    +0.222 HD
DOCKED: ENDBRANCH  43  45
DOCKED: BRANCH  43  47
DOCKED: ATOM     47  O   UNL d   1      42.547  24.718  19.449 +0.00 -0.00    -0.303 OA
DOCKED: ATOM     48  H   UNL d   1      42.400  24.992  20.378 +0.00 -0.00    +0.222 HD
DOCKED: ENDBRANCH  43  47
DOCKED: ENDBRANCH  42  43
DOCKED: ENDBRANCH   4  42
DOCKED: TORSDOF 24
DOCKED: TER
DOCKED: ENDMDL
________________________________________________________________________________


	BEGINNING GENETIC ALGORITHM DOCKING 22 of 100
Run: 22 Seed: 497833041 1340620525 [ Run 22 of 100 GA/GALS ]
Beginning LAMARCKIAN GENETIC ALGORITHM (LGA), with a maximum of 25000000 energy evaluations.

Final-Value: -18.571


	FINAL GENETIC ALGORITHM DOCKED STATE
	_______________________________________________


Detailed state:  trans -11.053 -18.086 13.754 quatxyzw 0.172452 0.886466 -0.409450 -0.129569 center 0.035 0.082 -0.065 ntor 24 127.4674 57.5738 150.9651 -9.7331 -51.3097 168.3764 -93.0470 -34.4980 161.8541 -24.4268 150.6128 160.7605 153.5204 -179.7724 19.8854 14.8381 56.8647 51.1961 50.4963 9.6360 162.7969 2.5037 -19.6221 -13.3841
State:	-11.053 -18.086  13.754   0.174  0.894 -0.413 -165.111    127.47   57.57  150.97   -9.73  -51.31  168.38  -93.05  -34.50  161.85  -24.43  150.61  160.76  153.52 -179.77   19.89   14.84   56.86   51.20   50.50    9.64  162.80    2.50  -19.62  -13.38

DOCKED: MODEL       22
DOCKED: USER    Run = 22
DOCKED: USER    DPF = D:/Protein_go_brrr/autodock/final/1A3N/IHP/dock.dpf
DOCKED: USER  
DOCKED: USER    Estimated Free Energy of Binding    =   +3.49 kcal/mol  [=(1)+(2)+(3)-(4)]
DOCKED: USER    
DOCKED: USER    (1) Final Intermolecular Energy     =   -3.67 kcal/mol
DOCKED: USER        vdW + Hbond + desolv Energy     =   -3.46 kcal/mol
DOCKED: USER        Electrostatic Energy            =   -0.21 kcal/mol
DOCKED: USER    (2) Final Total Internal Energy     =  -14.90 kcal/mol
DOCKED: USER    (3) Torsional Free Energy           =   +7.16 kcal/mol
DOCKED: USER    (4) Unbound System's Energy  [=(2)] =  -14.90 kcal/mol
DOCKED: USER    
DOCKED: USER    
DOCKED: USER    NEWDPF move IHP_ideal_opt.pdbqt
DOCKED: USER    NEWDPF about 0.035000 0.082000 -0.065000
DOCKED: USER    NEWDPF tran0 -11.052864 -18.086268 13.753995
DOCKED: USER    NEWDPF quaternion0 0.172452 0.886466 -0.409450 -0.129569
DOCKED: USER    NEWDPF axisangle0 0.173918 0.894003 -0.412931 -165.110594
DOCKED: USER    NEWDPF quat0 0.173918 0.894003 -0.412931 -165.110594
DOCKED: USER    NEWDPF dihe0 127.47 57.57 150.97 -9.73 -51.31 168.38 -93.05 -34.50 161.85 -24.43 150.61 160.76 153.52 -179.77 19.89 14.84 56.86 51.20 50.50 9.64 162.80 2.50 -19.62 -13.38 
DOCKED: USER  keepresnum = 1 
DOCKED: USER  
DOCKED: REMARK  24 active torsions:
DOCKED: REMARK  status: ('A' for Active; 'I' for Inactive)
DOCKED: REMARK    1  A    between atoms: C_1  and  O_7 
DOCKED: REMARK    2  A    between atoms: C_2  and  O_12 
DOCKED: REMARK    3  A    between atoms: C_3  and  O_17 
DOCKED: REMARK    4  A    between atoms: C_4  and  O_22 
DOCKED: REMARK    5  A    between atoms: C_5  and  O_27 
DOCKED: REMARK    6  A    between atoms: C_6  and  O_32 
DOCKED: REMARK    7  A    between atoms: O_7  and  P_8 
DOCKED: REMARK    8  A    between atoms: P_8  and  O_10 
DOCKED: REMARK    9  A    between atoms: P_8  and  O_11 
DOCKED: REMARK   10  A    between atoms: O_12  and  P_13 
DOCKED: REMARK   11  A    between atoms: P_13  and  O_15 
DOCKED: REMARK   12  A    between atoms: P_13  and  O_16 
DOCKED: REMARK   13  A    between atoms: O_17  and  P_18 
DOCKED: REMARK   14  A    between atoms: P_18  and  O_20 
DOCKED: REMARK   15  A    between atoms: P_18  and  O_21 
DOCKED: REMARK   16  A    between atoms: O_22  and  P_23 
DOCKED: REMARK   17  A    between atoms: P_23  and  O_25 
DOCKED: REMARK   18  A    between atoms: P_23  and  O_26 
DOCKED: REMARK   19  A    between atoms: O_27  and  P_28 
DOCKED: REMARK   20  A    between atoms: P_28  and  O_30 
DOCKED: REMARK   21  A    between atoms: P_28  and  O_31 
DOCKED: REMARK   22  A    between atoms: O_32  and  P_33 
DOCKED: REMARK   23  A    between atoms: P_33  and  O_35 
DOCKED: REMARK   24  A    between atoms: P_33  and  O_36 
DOCKED: USER                              x       y       z     vdW  Elec       q    Type
DOCKED: USER                           _______ _______ _______ _____ _____    ______ ____
DOCKED: ROOT
DOCKED: ATOM      1  C   UNL d   1     -12.485 -18.983  13.395 -0.04 -0.01    +0.194 C 
DOCKED: ATOM      2  C   UNL d   1     -11.717 -19.435  14.638 -0.03 -0.01    +0.194 C 
DOCKED: ATOM      3  C   UNL d   1     -10.207 -19.468  14.391 -0.04 -0.01    +0.194 C 
DOCKED: ATOM      4  C   UNL d   1      -9.662 -18.162  13.818 -0.12 -0.02    +0.194 C 
DOCKED: ATOM      5  C   UNL d   1     -10.467 -17.614  12.647 -0.12 -0.03    +0.194 C 
DOCKED: ATOM      6  C   UNL d   1     -11.981 -17.638  12.870 -0.06 -0.02    +0.194 C 
DOCKED: ENDROOT
DOCKED: BRANCH   1   7
DOCKED: ATOM      7  O   UNL d   1     -13.858 -18.812  13.756 -0.02 +0.01    -0.278 OA
DOCKED: BRANCH   7   8
DOCKED: ATOM      8  P   UNL d   1     -14.736 -20.116  14.040 -0.00 -0.02    +0.473 P 
DOCKED: ATOM      9  O   UNL d   1     -16.200 -19.949  13.832 -0.00 +0.01    -0.228 OA
DOCKED: BRANCH   8  10
DOCKED: ATOM     10  O   UNL d   1     -14.091 -21.230  13.097 -0.00 +0.01    -0.303 OA
DOCKED: ATOM     11  H   UNL d   1     -13.720 -20.808  12.299 +0.00 -0.01    +0.222 HD
DOCKED: ENDBRANCH   8  10
DOCKED: BRANCH   8  12
DOCKED: ATOM     12  O   UNL d   1     -14.292 -20.607  15.485 -0.00 +0.01    -0.303 OA
DOCKED: ATOM     13  H   UNL d   1     -13.752 -19.941  15.969 +0.01 -0.01    +0.222 HD
DOCKED: ENDBRANCH   8  12
DOCKED: ENDBRANCH   7   8
DOCKED: ENDBRANCH   1   7
DOCKED: BRANCH   2  14
DOCKED: ATOM     14  O   UNL d   1     -11.983 -18.520  15.709 -0.04 +0.02    -0.278 OA
DOCKED: BRANCH  14  15
DOCKED: ATOM     15  P   UNL d   1     -12.153 -19.157  17.169 -0.00 -0.03    +0.473 P 
DOCKED: ATOM     16  O   UNL d   1     -13.427 -18.849  17.892 -0.02 +0.02    -0.228 OA
DOCKED: BRANCH  15  17
DOCKED: ATOM     17  O   UNL d   1     -11.937 -20.719  16.938 -0.00 +0.01    -0.303 OA
DOCKED: ATOM     18  H   UNL d   1     -11.081 -20.894  16.501 +0.01 -0.01    +0.222 HD
DOCKED: ENDBRANCH  15  17
DOCKED: BRANCH  15  19
DOCKED: ATOM     19  O   UNL d   1     -10.817 -18.759  17.933 -0.04 +0.02    -0.303 OA
DOCKED: ATOM     20  H   UNL d   1     -10.043 -19.234  17.577 +0.05 -0.01    +0.222 HD
DOCKED: ENDBRANCH  15  19
DOCKED: ENDBRANCH  14  15
DOCKED: ENDBRANCH   2  14
DOCKED: BRANCH   6  21
DOCKED: ATOM     21  O   UNL d   1     -12.589 -17.431  11.598 -0.05 +0.02    -0.278 OA
DOCKED: BRANCH  21  22
DOCKED: ATOM     22  P   UNL d   1     -12.318 -18.465  10.413 -0.01 -0.04    +0.473 P 
DOCKED: ATOM     23  O   UNL d   1     -12.499 -19.919  10.692 -0.01 +0.02    -0.228 OA
DOCKED: BRANCH  22  24
DOCKED: ATOM     24  O   UNL d   1     -13.247 -17.886   9.257 -0.01 +0.03    -0.303 OA
DOCKED: ATOM     25  H   UNL d   1     -13.931 -18.570   9.041 +0.01 -0.02    +0.222 HD
DOCKED: ENDBRANCH  22  24
DOCKED: BRANCH  22  26
DOCKED: ATOM     26  O   UNL d   1     -10.859 -18.019   9.919 -0.07 +0.03    -0.303 OA
DOCKED: ATOM     27  H   UNL d   1     -10.591 -17.209  10.399 +0.06 -0.03    +0.222 HD
DOCKED: ENDBRANCH  22  26
DOCKED: ENDBRANCH  21  22
DOCKED: ENDBRANCH   6  21
DOCKED: BRANCH   3  28
DOCKED: ATOM     28  O   UNL d   1      -9.570 -19.622  15.652 -0.02 +0.01    -0.278 OA
DOCKED: BRANCH  28  29
DOCKED: ATOM     29  P   UNL d   1      -8.776 -20.960  15.994 +0.01 -0.01    +0.473 P 
DOCKED: ATOM     30  O   UNL d   1      -8.973 -22.083  15.042 -0.00 +0.01    -0.228 OA
DOCKED: BRANCH  29  31
DOCKED: ATOM     31  O   UNL d   1      -7.292 -20.377  16.133 -0.05 -0.02    -0.303 OA
DOCKED: ATOM     32  H   UNL d   1      -7.146 -19.718  15.415 +0.07 +0.02    +0.222 HD
DOCKED: ENDBRANCH  29  31
DOCKED: BRANCH  29  33
DOCKED: ATOM     33  O   UNL d   1      -9.195 -21.219  17.509 -0.00 +0.00    -0.303 OA
DOCKED: ATOM     34  H   UNL d   1     -10.064 -20.782  17.681 +0.03 -0.01    +0.222 HD
DOCKED: ENDBRANCH  29  33
DOCKED: ENDBRANCH  28  29
DOCKED: ENDBRANCH   3  28
DOCKED: BRANCH   5  35
DOCKED: ATOM     35  O   UNL d   1     -10.083 -16.247  12.519 +0.00 +0.10    -0.278 OA
DOCKED: BRANCH  35  36
DOCKED: ATOM     36  P   UNL d   1      -9.232 -15.765  11.259 -0.19 -0.15    +0.473 P 
DOCKED: ATOM     37  O   UNL d   1     -10.008 -15.071  10.184 -0.26 +0.05    -0.228 OA
DOCKED: BRANCH  36  38
DOCKED: ATOM     38  O   UNL d   1      -8.115 -14.862  11.946 -0.28 +0.12    -0.303 OA
DOCKED: ATOM     39  H   UNL d   1      -7.330 -15.417  12.144 -0.30 -0.12    +0.222 HD
DOCKED: ENDBRANCH  36  38
DOCKED: BRANCH  36  40
DOCKED: ATOM     40  O   UNL d   1      -8.454 -17.090  10.847 -0.01 +0.09    -0.303 OA
DOCKED: ATOM     41  H   UNL d   1      -7.810 -17.363  11.537 -0.20 -0.07    +0.222 HD
DOCKED: ENDBRANCH  36  40
DOCKED: ENDBRANCH  35  36
DOCKED: ENDBRANCH   5  35
DOCKED: BRANCH   4  42
DOCKED: ATOM     42  O   UNL d   1      -8.346 -18.441  13.330 -0.10 +0.03    -0.278 OA
DOCKED: BRANCH  42  43
DOCKED: ATOM     43  P   UNL d   1      -7.123 -17.569  13.869 -0.20 -0.01    +0.473 P 
DOCKED: ATOM     44  O   UNL d   1      -6.316 -18.134  14.986 -0.20 -0.05    -0.228 OA
DOCKED: BRANCH  43  45
DOCKED: ATOM     45  O   UNL d   1      -6.289 -17.281  12.545 -0.33 +0.06    -0.303 OA
DOCKED: ATOM     46  H   UNL d   1      -6.703 -16.576  12.008 -0.43 -0.14    +0.222 HD
DOCKED: ENDBRANCH  43  45
DOCKED: BRANCH  43  47
DOCKED: ATOM     47  O   UNL d   1      -7.790 -16.139  14.152 -0.26 +0.03    -0.303 OA
DOCKED: ATOM     48  H   UNL d   1      -8.624 -16.066  13.644 -0.20 -0.08    +0.222 HD
DOCKED: ENDBRANCH  43  47
DOCKED: ENDBRANCH  42  43
DOCKED: ENDBRANCH   4  42
DOCKED: TORSDOF 24
DOCKED: TER
DOCKED: ENDMDL
________________________________________________________________________________


	BEGINNING GENETIC ALGORITHM DOCKING 23 of 100
Run: 23 Seed: 929282155 956915537 [ Run 23 of 100 GA/GALS ]
Beginning LAMARCKIAN GENETIC ALGORITHM (LGA), with a maximum of 25000000 energy evaluations.

Final-Value: -15.858


	FINAL GENETIC ALGORITHM DOCKED STATE
	_______________________________________________


Detailed state:  trans 26.574 13.839 36.543 quatxyzw 0.509272 -0.798806 -0.275225 -0.163716 center 0.035 0.082 -0.065 ntor 24 93.5255 -100.9305 -168.2912 -26.3046 40.4856 41.8911 -8.4335 -110.1034 4.5872 171.9871 81.1714 -109.0880 -166.9649 178.9841 136.1386 -114.4227 -109.7118 -49.1146 22.6538 18.4896 154.2800 18.8098 -58.5088 169.7447
State:	 26.574  13.839  36.543   0.516 -0.810 -0.279 -161.155     93.53 -100.93 -168.29  -26.30   40.49   41.89   -8.43 -110.10    4.59  171.99   81.17 -109.09 -166.96  178.98  136.14 -114.42 -109.71  -49.11   22.65   18.49  154.28   18.81  -58.51  169.74

DOCKED: MODEL       23
DOCKED: USER    Run = 23
DOCKED: USER    DPF = D:/Protein_go_brrr/autodock/final/1A3N/IHP/dock.dpf
DOCKED: USER  
DOCKED: USER    Estimated Free Energy of Binding    =   +3.57 kcal/mol  [=(1)+(2)+(3)-(4)]
DOCKED: USER    
DOCKED: USER    (1) Final Intermolecular Energy     =   -3.59 kcal/mol
DOCKED: USER        vdW + Hbond + desolv Energy     =   -3.63 kcal/mol
DOCKED: USER        Electrostatic Energy            =   +0.05 kcal/mol
DOCKED: USER    (2) Final Total Internal Energy     =  -12.27 kcal/mol
DOCKED: USER    (3) Torsional Free Energy           =   +7.16 kcal/mol
DOCKED: USER    (4) Unbound System's Energy  [=(2)] =  -12.27 kcal/mol
DOCKED: USER    
DOCKED: USER    
DOCKED: USER    NEWDPF move IHP_ideal_opt.pdbqt
DOCKED: USER    NEWDPF about 0.035000 0.082000 -0.065000
DOCKED: USER    NEWDPF tran0 26.573875 13.839131 36.542851
DOCKED: USER    NEWDPF quaternion0 0.509272 -0.798806 -0.275225 -0.163716
DOCKED: USER    NEWDPF axisangle0 0.516237 -0.809731 -0.278989 -161.154728
DOCKED: USER    NEWDPF quat0 0.516237 -0.809731 -0.278989 -161.154728
DOCKED: USER    NEWDPF dihe0 93.53 -100.93 -168.29 -26.30 40.49 41.89 -8.43 -110.10 4.59 171.99 81.17 -109.09 -166.96 178.98 136.14 -114.42 -109.71 -49.11 22.65 18.49 154.28 18.81 -58.51 169.74 
DOCKED: USER  keepresnum = 1 
DOCKED: USER  
DOCKED: REMARK  24 active torsions:
DOCKED: REMARK  status: ('A' for Active; 'I' for Inactive)
DOCKED: REMARK    1  A    between atoms: C_1  and  O_7 
DOCKED: REMARK    2  A    between atoms: C_2  and  O_12 
DOCKED: REMARK    3  A    between atoms: C_3  and  O_17 
DOCKED: REMARK    4  A    between atoms: C_4  and  O_22 
DOCKED: REMARK    5  A    between atoms: C_5  and  O_27 
DOCKED: REMARK    6  A    between atoms: C_6  and  O_32 
DOCKED: REMARK    7  A    between atoms: O_7  and  P_8 
DOCKED: REMARK    8  A    between atoms: P_8  and  O_10 
DOCKED: REMARK    9  A    between atoms: P_8  and  O_11 
DOCKED: REMARK   10  A    between atoms: O_12  and  P_13 
DOCKED: REMARK   11  A    between atoms: P_13  and  O_15 
DOCKED: REMARK   12  A    between atoms: P_13  and  O_16 
DOCKED: REMARK   13  A    between atoms: O_17  and  P_18 
DOCKED: REMARK   14  A    between atoms: P_18  and  O_20 
DOCKED: REMARK   15  A    between atoms: P_18  and  O_21 
DOCKED: REMARK   16  A    between atoms: O_22  and  P_23 
DOCKED: REMARK   17  A    between atoms: P_23  and  O_25 
DOCKED: REMARK   18  A    between atoms: P_23  and  O_26 
DOCKED: REMARK   19  A    between atoms: O_27  and  P_28 
DOCKED: REMARK   20  A    between atoms: P_28  and  O_30 
DOCKED: REMARK   21  A    between atoms: P_28  and  O_31 
DOCKED: REMARK   22  A    between atoms: O_32  and  P_33 
DOCKED: REMARK   23  A    between atoms: P_33  and  O_35 
DOCKED: REMARK   24  A    between atoms: P_33  and  O_36 
DOCKED: USER                              x       y       z     vdW  Elec       q    Type
DOCKED: USER                           _______ _______ _______ _____ _____    ______ ____
DOCKED: ROOT
DOCKED: ATOM      1  C   UNL d   1      26.252  12.630  35.352 -0.05 -0.05    +0.194 C 
DOCKED: ATOM      2  C   UNL d   1      27.567  13.392  35.181 -0.03 -0.03    +0.194 C 
DOCKED: ATOM      3  C   UNL d   1      27.388  14.892  35.421 -0.00 -0.02    +0.194 C 
DOCKED: ATOM      4  C   UNL d   1      26.704  15.212  36.748 +0.00 -0.02    +0.194 C 
DOCKED: ATOM      5  C   UNL d   1      25.448  14.391  37.013 +0.00 -0.03    +0.194 C 
DOCKED: ATOM      6  C   UNL d   1      25.610  12.899  36.714 -0.04 -0.06    +0.194 C 
DOCKED: ENDROOT
DOCKED: BRANCH   1   7
DOCKED: ATOM      7  O   UNL d   1      26.535  11.230  35.284 -0.10 +0.11    -0.278 OA
DOCKED: BRANCH   7   8
DOCKED: ATOM      8  P   UNL d   1      26.257  10.466  33.909 -0.18 -0.14    +0.473 P 
DOCKED: ATOM      9  O   UNL d   1      25.196   9.424  33.969 -0.83 +0.06    -0.228 OA
DOCKED: BRANCH   8  10
DOCKED: ATOM     10  O   UNL d   1      25.929  11.636  32.875 -0.14 +0.04    -0.303 OA
DOCKED: ATOM     11  H   UNL d   1      25.110  12.091  33.145 +0.09 -0.01    +0.222 HD
DOCKED: ENDBRANCH   8  10
DOCKED: BRANCH   8  12
DOCKED: ATOM     12  O   UNL d   1      27.685   9.975  33.413 -0.25 +0.10    -0.303 OA
DOCKED: ATOM     13  H   UNL d   1      27.775   9.978  32.434 -0.32 -0.16    +0.222 HD
DOCKED: ENDBRANCH   8  12
DOCKED: ENDBRANCH   7   8
DOCKED: ENDBRANCH   1   7
DOCKED: BRANCH   2  14
DOCKED: ATOM     14  O   UNL d   1      28.523  12.890  36.123 -0.04 +0.05    -0.278 OA
DOCKED: BRANCH  14  15
DOCKED: ATOM     15  P   UNL d   1      30.063  12.959  35.687 -0.17 -0.11    +0.473 P 
DOCKED: ATOM     16  O   UNL d   1      30.834  11.678  35.736 -0.98 +0.04    -0.228 OA
DOCKED: BRANCH  15  17
DOCKED: ATOM     17  O   UNL d   1      30.024  13.601  34.229 -0.17 +0.05    -0.303 OA
DOCKED: ATOM     18  H   UNL d   1      30.174  14.565  34.266 +0.06 -0.03    +0.222 HD
DOCKED: ENDBRANCH  15  17
DOCKED: BRANCH  15  19
DOCKED: ATOM     19  O   UNL d   1      30.665  14.155  36.546 -0.07 +0.07    -0.303 OA
DOCKED: ATOM     20  H   UNL d   1      30.532  15.016  36.109 +0.05 -0.04    +0.222 HD
DOCKED: ENDBRANCH  15  19
DOCKED: ENDBRANCH  14  15
DOCKED: ENDBRANCH   2  14
DOCKED: BRANCH   6  21
DOCKED: ATOM     21  O   UNL d   1      24.298  12.342  36.675 -0.08 +0.19    -0.278 OA
DOCKED: BRANCH  21  22
DOCKED: ATOM     22  P   UNL d   1      23.181  13.010  35.752 -0.08 -0.22    +0.473 P 
DOCKED: ATOM     23  O   UNL d   1      21.930  12.241  35.490 -0.26 +0.14    -0.228 OA
DOCKED: BRANCH  22  24
DOCKED: ATOM     24  O   UNL d   1      22.964  14.414  36.469 -0.02 +0.05    -0.303 OA
DOCKED: ATOM     25  H   UNL d   1      23.214  14.315  37.422 +0.03 -0.04    +0.222 HD
DOCKED: ENDBRANCH  22  24
DOCKED: BRANCH  22  26
DOCKED: ATOM     26  O   UNL d   1      24.034  13.427  34.459 -0.08 +0.06    -0.303 OA
DOCKED: ATOM     27  H   UNL d   1      23.823  14.352  34.220 +0.06 -0.03    +0.222 HD
DOCKED: ENDBRANCH  22  26
DOCKED: ENDBRANCH  21  22
DOCKED: ENDBRANCH   6  21
DOCKED: BRANCH   3  28
DOCKED: ATOM     28  O   UNL d   1      28.684  15.469  35.516 -0.01 +0.03    -0.278 OA
DOCKED: BRANCH  28  29
DOCKED: ATOM     29  P   UNL d   1      29.062  16.749  34.647 +0.00 -0.04    +0.473 P 
DOCKED: ATOM     30  O   UNL d   1      30.433  16.755  34.077 -0.05 +0.02    -0.228 OA
DOCKED: BRANCH  29  31
DOCKED: ATOM     31  O   UNL d   1      27.843  16.750  33.609 -0.00 +0.02    -0.303 OA
DOCKED: ATOM     32  H   UNL d   1      27.011  16.564  34.102 +0.01 -0.02    +0.222 HD
DOCKED: ENDBRANCH  29  31
DOCKED: BRANCH  29  33
DOCKED: ATOM     33  O   UNL d   1      28.686  17.943  35.631 -0.00 +0.02    -0.303 OA
DOCKED: ATOM     34  H   UNL d   1      27.765  17.808  35.963 +0.00 -0.01    +0.222 HD
DOCKED: ENDBRANCH  29  33
DOCKED: ENDBRANCH  28  29
DOCKED: ENDBRANCH   3  28
DOCKED: BRANCH   5  35
DOCKED: ATOM     35  O   UNL d   1      25.193  14.514  38.410 +0.00 +0.04    -0.278 OA
DOCKED: BRANCH  35  36
DOCKED: ATOM     36  P   UNL d   1      24.651  15.888  39.011 +0.01 -0.03    +0.473 P 
DOCKED: ATOM     37  O   UNL d   1      25.590  17.048  38.917 +0.00 +0.01    -0.228 OA
DOCKED: BRANCH  36  38
DOCKED: ATOM     38  O   UNL d   1      23.289  16.081  38.208 +0.00 +0.02    -0.303 OA
DOCKED: ATOM     39  H   UNL d   1      23.494  16.216  37.257 +0.01 -0.01    +0.222 HD
DOCKED: ENDBRANCH  36  38
DOCKED: BRANCH  36  40
DOCKED: ATOM     40  O   UNL d   1      24.178  15.459  40.468 +0.00 +0.01    -0.303 OA
DOCKED: ATOM     41  H   UNL d   1      24.537  16.059  41.159 +0.00 -0.01    +0.222 HD
DOCKED: ENDBRANCH  36  40
DOCKED: ENDBRANCH  35  36
DOCKED: ENDBRANCH   5  35
DOCKED: BRANCH   4  42
DOCKED: ATOM     42  O   UNL d   1      26.304  16.585  36.688 +0.00 +0.02    -0.278 OA
DOCKED: BRANCH  42  43
DOCKED: ATOM     43  P   UNL d   1      25.318  17.051  35.525 +0.00 -0.03    +0.473 P 
DOCKED: ATOM     44  O   UNL d   1      24.925  16.035  34.509 -0.01 +0.02    -0.228 OA
DOCKED: BRANCH  43  45
DOCKED: ATOM     45  O   UNL d   1      24.095  17.672  36.331 -0.00 +0.01    -0.303 OA
DOCKED: ATOM     46  H   UNL d   1      24.292  17.736  37.287 +0.00 -0.01    +0.222 HD
DOCKED: ENDBRANCH  43  45
DOCKED: BRANCH  43  47
DOCKED: ATOM     47  O   UNL d   1      26.029  18.367  34.947 -0.00 +0.01    -0.303 OA
DOCKED: ATOM     48  H   UNL d   1      26.847  18.110  34.474 +0.00 -0.01    +0.222 HD
DOCKED: ENDBRANCH  43  47
DOCKED: ENDBRANCH  42  43
DOCKED: ENDBRANCH   4  42
DOCKED: TORSDOF 24
DOCKED: TER
DOCKED: ENDMDL
________________________________________________________________________________


	BEGINNING GENETIC ALGORITHM DOCKING 24 of 100
Run: 24 Seed: 2086938241 1332829355 [ Run 24 of 100 GA/GALS ]
Beginning LAMARCKIAN GENETIC ALGORITHM (LGA), with a maximum of 25000000 energy evaluations.

Final-Value: -17.394


	FINAL GENETIC ALGORITHM DOCKED STATE
	_______________________________________________


Detailed state:  trans -6.664 -12.710 -6.626 quatxyzw -0.641520 -0.443202 0.533445 -0.327810 center 0.035 0.082 -0.065 ntor 24 -160.7131 -48.4768 151.1432 127.3702 54.7101 -119.4015 22.7323 -62.0541 26.3431 97.8671 -100.3215 -169.8513 83.9848 -112.5468 68.9520 -38.8301 -74.0135 -8.0762 -41.9631 -1.4155 21.5236 144.4487 -179.8922 133.3256
State:	 -6.664 -12.710  -6.626  -0.679 -0.469  0.565 -141.728   -160.71  -48.48  151.14  127.37   54.71 -119.40   22.73  -62.05   26.34   97.87 -100.32 -169.85   83.98 -112.55   68.95  -38.83  -74.01   -8.08  -41.96   -1.42   21.52  144.45 -179.89  133.33

DOCKED: MODEL       24
DOCKED: USER    Run = 24
DOCKED: USER    DPF = D:/Protein_go_brrr/autodock/final/1A3N/IHP/dock.dpf
DOCKED: USER  
DOCKED: USER    Estimated Free Energy of Binding    =   +3.78 kcal/mol  [=(1)+(2)+(3)-(4)]
DOCKED: USER    
DOCKED: USER    (1) Final Intermolecular Energy     =   -3.38 kcal/mol
DOCKED: USER        vdW + Hbond + desolv Energy     =   -3.08 kcal/mol
DOCKED: USER        Electrostatic Energy            =   -0.30 kcal/mol
DOCKED: USER    (2) Final Total Internal Energy     =  -14.01 kcal/mol
DOCKED: USER    (3) Torsional Free Energy           =   +7.16 kcal/mol
DOCKED: USER    (4) Unbound System's Energy  [=(2)] =  -14.01 kcal/mol
DOCKED: USER    
DOCKED: USER    
DOCKED: USER    NEWDPF move IHP_ideal_opt.pdbqt
DOCKED: USER    NEWDPF about 0.035000 0.082000 -0.065000
DOCKED: USER    NEWDPF tran0 -6.664034 -12.709638 -6.625790
DOCKED: USER    NEWDPF quaternion0 -0.641520 -0.443202 0.533445 -0.327810
DOCKED: USER    NEWDPF axisangle0 -0.679042 -0.469124 0.564646 -141.728129
DOCKED: USER    NEWDPF quat0 -0.679042 -0.469124 0.564646 -141.728129
DOCKED: USER    NEWDPF dihe0 -160.71 -48.48 151.14 127.37 54.71 -119.40 22.73 -62.05 26.34 97.87 -100.32 -169.85 83.98 -112.55 68.95 -38.83 -74.01 -8.08 -41.96 -1.42 21.52 144.45 -179.89 133.33 
DOCKED: USER  keepresnum = 1 
DOCKED: USER  
DOCKED: REMARK  24 active torsions:
DOCKED: REMARK  status: ('A' for Active; 'I' for Inactive)
DOCKED: REMARK    1  A    between atoms: C_1  and  O_7 
DOCKED: REMARK    2  A    between atoms: C_2  and  O_12 
DOCKED: REMARK    3  A    between atoms: C_3  and  O_17 
DOCKED: REMARK    4  A    between atoms: C_4  and  O_22 
DOCKED: REMARK    5  A    between atoms: C_5  and  O_27 
DOCKED: REMARK    6  A    between atoms: C_6  and  O_32 
DOCKED: REMARK    7  A    between atoms: O_7  and  P_8 
DOCKED: REMARK    8  A    between atoms: P_8  and  O_10 
DOCKED: REMARK    9  A    between atoms: P_8  and  O_11 
DOCKED: REMARK   10  A    between atoms: O_12  and  P_13 
DOCKED: REMARK   11  A    between atoms: P_13  and  O_15 
DOCKED: REMARK   12  A    between atoms: P_13  and  O_16 
DOCKED: REMARK   13  A    between atoms: O_17  and  P_18 
DOCKED: REMARK   14  A    between atoms: P_18  and  O_20 
DOCKED: REMARK   15  A    between atoms: P_18  and  O_21 
DOCKED: REMARK   16  A    between atoms: O_22  and  P_23 
DOCKED: REMARK   17  A    between atoms: P_23  and  O_25 
DOCKED: REMARK   18  A    between atoms: P_23  and  O_26 
DOCKED: REMARK   19  A    between atoms: O_27  and  P_28 
DOCKED: REMARK   20  A    between atoms: P_28  and  O_30 
DOCKED: REMARK   21  A    between atoms: P_28  and  O_31 
DOCKED: REMARK   22  A    between atoms: O_32  and  P_33 
DOCKED: REMARK   23  A    between atoms: P_33  and  O_35 
DOCKED: REMARK   24  A    between atoms: P_33  and  O_36 
DOCKED: USER                              x       y       z     vdW  Elec       q    Type
DOCKED: USER                           _______ _______ _______ _____ _____    ______ ____
DOCKED: ROOT
DOCKED: ATOM      1  C   UNL d   1      -7.582 -11.252  -6.497 -0.08 +0.02    +0.194 C 
DOCKED: ATOM      2  C   UNL d   1      -7.446 -12.063  -5.207 -0.07 -0.02    +0.194 C 
DOCKED: ATOM      3  C   UNL d   1      -7.634 -13.561  -5.458 -0.01 -0.03    +0.194 C 
DOCKED: ATOM      4  C   UNL d   1      -6.745 -14.100  -6.576 -0.01 -0.01    +0.194 C 
DOCKED: ATOM      5  C   UNL d   1      -6.762 -13.256  -7.844 -0.01 +0.01    +0.194 C 
DOCKED: ATOM      6  C   UNL d   1      -6.635 -11.753  -7.588 -0.05 +0.02    +0.194 C 
DOCKED: ENDROOT
DOCKED: BRANCH   1   7
DOCKED: ATOM      7  O   UNL d   1      -7.224  -9.898  -6.211 -0.17 -0.06    -0.278 OA
DOCKED: BRANCH   7   8
DOCKED: ATOM      8  P   UNL d   1      -7.630  -8.767  -7.265 -0.17 +0.20    +0.473 P 
DOCKED: ATOM      9  O   UNL d   1      -8.205  -7.529  -6.671 -0.34 -0.13    -0.228 OA
DOCKED: BRANCH   8  10
DOCKED: ATOM     10  O   UNL d   1      -6.289  -8.505  -8.087 -0.16 -0.16    -0.303 OA
DOCKED: ATOM     11  H   UNL d   1      -5.849  -9.355  -8.275 +0.06 +0.10    +0.222 HD
DOCKED: ENDBRANCH   8  10
DOCKED: BRANCH   8  12
DOCKED: ATOM     12  O   UNL d   1      -8.538  -9.509  -8.337 -0.06 -0.13    -0.303 OA
DOCKED: ATOM     13  H   UNL d   1      -8.030  -9.831  -9.115 +0.04 +0.08    +0.222 HD
DOCKED: ENDBRANCH   8  12
DOCKED: ENDBRANCH   7   8
DOCKED: ENDBRANCH   1   7
DOCKED: BRANCH   2  14
DOCKED: ATOM     14  O   UNL d   1      -6.138 -11.853  -4.659 -0.12 +0.04    -0.278 OA
DOCKED: BRANCH  14  15
DOCKED: ATOM     15  P   UNL d   1      -6.067 -11.462  -3.108 -0.16 -0.16    +0.473 P 
DOCKED: ATOM     16  O   UNL d   1      -6.824 -10.242  -2.687 -0.28 +0.06    -0.228 OA
DOCKED: BRANCH  15  17
DOCKED: ATOM     17  O   UNL d   1      -6.551 -12.779  -2.354 -0.23 +0.24    -0.303 OA
DOCKED: ATOM     18  H   UNL d   1      -6.013 -13.551  -2.614 +0.01 -0.20    +0.222 HD
DOCKED: ENDBRANCH  15  17
DOCKED: BRANCH  15  19
DOCKED: ATOM     19  O   UNL d   1      -4.512 -11.455  -2.772 -0.24 +0.11    -0.303 OA
DOCKED: ATOM     20  H   UNL d   1      -4.048 -10.729  -3.228 -0.37 -0.10    +0.222 HD
DOCKED: ENDBRANCH  15  19
DOCKED: ENDBRANCH  14  15
DOCKED: ENDBRANCH   2  14
DOCKED: BRANCH   6  21
DOCKED: ATOM     21  O   UNL d   1      -7.008 -11.097  -8.798 -0.02 -0.06    -0.278 OA
DOCKED: BRANCH  21  22
DOCKED: ATOM     22  P   UNL d   1      -5.951 -10.966  -9.986 -0.01 +0.11    +0.473 P 
DOCKED: ATOM     23  O   UNL d   1      -6.033 -11.939 -11.113 -0.01 -0.04    -0.228 OA
DOCKED: BRANCH  22  24
DOCKED: ATOM     24  O   UNL d   1      -6.121  -9.440 -10.407 -0.03 -0.12    -0.303 OA
DOCKED: ATOM     25  H   UNL d   1      -6.931  -9.086  -9.959 +0.04 +0.09    +0.222 HD
DOCKED: ENDBRANCH  22  24
DOCKED: BRANCH  22  26
DOCKED: ATOM     26  O   UNL d   1      -4.563 -10.935  -9.184 -0.06 -0.09    -0.303 OA
DOCKED: ATOM     27  H   UNL d   1      -4.419 -11.804  -8.755 +0.02 +0.04    +0.222 HD
DOCKED: ENDBRANCH  22  26
DOCKED: ENDBRANCH  21  22
DOCKED: ENDBRANCH   6  21
DOCKED: BRANCH   3  28
DOCKED: ATOM     28  O   UNL d   1      -7.221 -14.247  -4.283 -0.03 +0.10    -0.278 OA
DOCKED: BRANCH  28  29
DOCKED: ATOM     29  P   UNL d   1      -5.828 -15.020  -4.251 -0.02 -0.18    +0.473 P 
DOCKED: ATOM     30  O   UNL d   1      -5.718 -16.180  -5.172 -0.01 +0.05    -0.228 OA
DOCKED: BRANCH  29  31
DOCKED: ATOM     31  O   UNL d   1      -4.825 -13.798  -4.498 -0.04 +0.07    -0.303 OA
DOCKED: ATOM     32  H   UNL d   1      -4.769 -13.265  -3.672 +0.08 -0.08    +0.222 HD
DOCKED: ENDBRANCH  29  31
DOCKED: BRANCH  29  33
DOCKED: ATOM     33  O   UNL d   1      -5.646 -15.315  -2.697 -0.07 +0.32    -0.303 OA
DOCKED: ATOM     34  H   UNL d   1      -6.398 -14.906  -2.202 -0.47 -0.41    +0.222 HD
DOCKED: ENDBRANCH  29  33
DOCKED: ENDBRANCH  28  29
DOCKED: ENDBRANCH   3  28
DOCKED: BRANCH   5  35
DOCKED: ATOM     35  O   UNL d   1      -5.613 -13.654  -8.588 -0.01 -0.01    -0.278 OA
DOCKED: BRANCH  35  36
DOCKED: ATOM     36  P   UNL d   1      -4.184 -13.732  -7.883 -0.01 +0.02    +0.473 P 
DOCKED: ATOM     37  O   UNL d   1      -3.973 -12.781  -6.748 -0.05 -0.01    -0.228 OA
DOCKED: BRANCH  36  38
DOCKED: ATOM     38  O   UNL d   1      -4.106 -15.268  -7.473 -0.00 +0.01    -0.303 OA
DOCKED: ATOM     39  H   UNL d   1      -4.968 -15.543  -7.092 +0.00 -0.01    +0.222 HD
DOCKED: ENDBRANCH  36  38
DOCKED: BRANCH  36  40
DOCKED: ATOM     40  O   UNL d   1      -3.188 -13.614  -9.118 -0.01 -0.03    -0.303 OA
DOCKED: ATOM     41  H   UNL d   1      -3.352 -12.799  -9.641 +0.01 +0.03    +0.222 HD
DOCKED: ENDBRANCH  36  40
DOCKED: ENDBRANCH  35  36
DOCKED: ENDBRANCH   5  35
DOCKED: BRANCH   4  42
DOCKED: ATOM     42  O   UNL d   1      -7.254 -15.392  -6.923 +0.00 +0.02    -0.278 OA
DOCKED: BRANCH  42  43
DOCKED: ATOM     43  P   UNL d   1      -8.771 -15.743  -6.576 +0.00 -0.04    +0.473 P 
DOCKED: ATOM     44  O   UNL d   1      -9.779 -14.657  -6.730 +0.00 +0.01    -0.228 OA
DOCKED: BRANCH  43  45
DOCKED: ATOM     45  O   UNL d   1      -9.050 -17.023  -7.480 +0.00 +0.02    -0.303 OA
DOCKED: ATOM     46  H   UNL d   1      -9.990 -17.288  -7.444 +0.00 -0.01    +0.222 HD
DOCKED: ENDBRANCH  43  45
DOCKED: BRANCH  43  47
DOCKED: ATOM     47  O   UNL d   1      -8.671 -16.392  -5.114 +0.00 +0.06    -0.303 OA
DOCKED: ATOM     48  H   UNL d   1      -7.763 -16.271  -4.768 +0.01 -0.06    +0.222 HD
DOCKED: ENDBRANCH  43  47
DOCKED: ENDBRANCH  42  43
DOCKED: ENDBRANCH   4  42
DOCKED: TORSDOF 24
DOCKED: TER
DOCKED: ENDMDL
________________________________________________________________________________


	BEGINNING GENETIC ALGORITHM DOCKING 25 of 100
Run: 25 Seed: 1644150407 1365471816 [ Run 25 of 100 GA/GALS ]
Beginning LAMARCKIAN GENETIC ALGORITHM (LGA), with a maximum of 25000000 energy evaluations.

Final-Value: -19.449


	FINAL GENETIC ALGORITHM DOCKED STATE
	_______________________________________________


Detailed state:  trans 24.668 24.771 11.062 quatxyzw -0.887385 0.306453 -0.256456 0.229924 center 0.035 0.082 -0.065 ntor 24 107.1106 111.6141 144.0929 25.0283 -71.5585 -91.5813 3.4395 -87.2087 123.1260 -5.4601 38.0278 -95.0769 -75.7606 31.3775 -65.4463 -118.2666 110.2160 -47.0552 -144.7904 -24.0635 160.2571 16.6823 -29.0148 166.7211
State:	 24.668  24.771  11.062  -0.912  0.315 -0.264 153.415    107.11  111.61  144.09   25.03  -71.56  -91.58    3.44  -87.21  123.13   -5.46   38.03  -95.08  -75.76   31.38  -65.45 -118.27  110.22  -47.06 -144.79  -24.06  160.26   16.68  -29.01  166.72

DOCKED: MODEL       25
DOCKED: USER    Run = 25
DOCKED: USER    DPF = D:/Protein_go_brrr/autodock/final/1A3N/IHP/dock.dpf
DOCKED: USER  
DOCKED: USER    Estimated Free Energy of Binding    =   +1.83 kcal/mol  [=(1)+(2)+(3)-(4)]
DOCKED: USER    
DOCKED: USER    (1) Final Intermolecular Energy     =   -5.33 kcal/mol
DOCKED: USER        vdW + Hbond + desolv Energy     =   -5.01 kcal/mol
DOCKED: USER        Electrostatic Energy            =   -0.32 kcal/mol
DOCKED: USER    (2) Final Total Internal Energy     =  -14.12 kcal/mol
DOCKED: USER    (3) Torsional Free Energy           =   +7.16 kcal/mol
DOCKED: USER    (4) Unbound System's Energy  [=(2)] =  -14.12 kcal/mol
DOCKED: USER    
DOCKED: USER    
DOCKED: USER    NEWDPF move IHP_ideal_opt.pdbqt
DOCKED: USER    NEWDPF about 0.035000 0.082000 -0.065000
DOCKED: USER    NEWDPF tran0 24.667711 24.770929 11.061922
DOCKED: USER    NEWDPF quaternion0 -0.887385 0.306453 -0.256456 0.229924
DOCKED: USER    NEWDPF axisangle0 -0.911814 0.314889 -0.263516 153.414830
DOCKED: USER    NEWDPF quat0 -0.911814 0.314889 -0.263516 153.414830
DOCKED: USER    NEWDPF dihe0 107.11 111.61 144.09 25.03 -71.56 -91.58 3.44 -87.21 123.13 -5.46 38.03 -95.08 -75.76 31.38 -65.45 -118.27 110.22 -47.06 -144.79 -24.06 160.26 16.68 -29.01 166.72 
DOCKED: USER  keepresnum = 1 
DOCKED: USER  
DOCKED: REMARK  24 active torsions:
DOCKED: REMARK  status: ('A' for Active; 'I' for Inactive)
DOCKED: REMARK    1  A    between atoms: C_1  and  O_7 
DOCKED: REMARK    2  A    between atoms: C_2  and  O_12 
DOCKED: REMARK    3  A    between atoms: C_3  and  O_17 
DOCKED: REMARK    4  A    between atoms: C_4  and  O_22 
DOCKED: REMARK    5  A    between atoms: C_5  and  O_27 
DOCKED: REMARK    6  A    between atoms: C_6  and  O_32 
DOCKED: REMARK    7  A    between atoms: O_7  and  P_8 
DOCKED: REMARK    8  A    between atoms: P_8  and  O_10 
DOCKED: REMARK    9  A    between atoms: P_8  and  O_11 
DOCKED: REMARK   10  A    between atoms: O_12  and  P_13 
DOCKED: REMARK   11  A    between atoms: P_13  and  O_15 
DOCKED: REMARK   12  A    between atoms: P_13  and  O_16 
DOCKED: REMARK   13  A    between atoms: O_17  and  P_18 
DOCKED: REMARK   14  A    between atoms: P_18  and  O_20 
DOCKED: REMARK   15  A    between atoms: P_18  and  O_21 
DOCKED: REMARK   16  A    between atoms: O_22  and  P_23 
DOCKED: REMARK   17  A    between atoms: P_23  and  O_25 
DOCKED: REMARK   18  A    between atoms: P_23  and  O_26 
DOCKED: REMARK   19  A    between atoms: O_27  and  P_28 
DOCKED: REMARK   20  A    between atoms: P_28  and  O_30 
DOCKED: REMARK   21  A    between atoms: P_28  and  O_31 
DOCKED: REMARK   22  A    between atoms: O_32  and  P_33 
DOCKED: REMARK   23  A    between atoms: P_33  and  O_35 
DOCKED: REMARK   24  A    between atoms: P_33  and  O_36 
DOCKED: USER                              x       y       z     vdW  Elec       q    Type
DOCKED: USER                           _______ _______ _______ _____ _____    ______ ____
DOCKED: ROOT
DOCKED: ATOM      1  C   UNL d   1      26.357  24.417  10.983 -0.21 +0.08    +0.194 C 
DOCKED: ATOM      2  C   UNL d   1      25.924  25.726  10.319 -0.05 -0.00    +0.194 C 
DOCKED: ATOM      3  C   UNL d   1      24.639  25.550   9.505 -0.05 -0.04    +0.194 C 
DOCKED: ATOM      4  C   UNL d   1      23.508  24.904  10.301 -0.05 +0.00    +0.194 C 
DOCKED: ATOM      5  C   UNL d   1      23.924  23.658  11.073 -0.08 +0.04    +0.194 C 
DOCKED: ATOM      6  C   UNL d   1      25.241  23.814  11.836 -0.13 +0.07    +0.194 C 
DOCKED: ENDROOT
DOCKED: BRANCH   1   7
DOCKED: ATOM      7  O   UNL d   1      27.454  24.702  11.854 -0.43 -0.34    -0.278 OA
DOCKED: BRANCH   7   8
DOCKED: ATOM      8  P   UNL d   1      27.141  25.027  13.387 +0.03 +0.39    +0.473 P 
DOCKED: ATOM      9  O   UNL d   1      25.773  25.548  13.655 -0.06 -0.08    -0.228 OA
DOCKED: BRANCH   8  10
DOCKED: ATOM     10  O   UNL d   1      27.451  23.657  14.144 -0.52 -0.31    -0.303 OA
DOCKED: ATOM     11  H   UNL d   1      26.985  22.925  13.698 +0.05 +0.21    +0.222 HD
DOCKED: ENDBRANCH   8  10
DOCKED: BRANCH   8  12
DOCKED: ATOM     12  O   UNL d   1      28.341  25.950  13.867 -0.08 -0.21    -0.303 OA
DOCKED: ATOM     13  H   UNL d   1      28.353  26.828  13.423 +0.05 +0.09    +0.222 HD
DOCKED: ENDBRANCH   8  12
DOCKED: ENDBRANCH   7   8
DOCKED: ENDBRANCH   1   7
DOCKED: BRANCH   2  14
DOCKED: ATOM     14  O   UNL d   1      25.690  26.710  11.334 -0.04 -0.02    -0.278 OA
DOCKED: BRANCH  14  15
DOCKED: ATOM     15  P   UNL d   1      26.775  27.881  11.458 -0.01 +0.02    +0.473 P 
DOCKED: ATOM     16  O   UNL d   1      26.574  29.079  10.583 -0.02 +0.01    -0.228 OA
DOCKED: BRANCH  15  17
DOCKED: ATOM     17  O   UNL d   1      26.778  28.244  13.009 +0.00 -0.03    -0.303 OA
DOCKED: ATOM     18  H   UNL d   1      26.843  27.439  13.558 +0.03 +0.04    +0.222 HD
DOCKED: ENDBRANCH  15  17
DOCKED: BRANCH  15  19
DOCKED: ATOM     19  O   UNL d   1      28.175  27.144  11.300 -0.11 -0.04    -0.303 OA
DOCKED: ATOM     20  H   UNL d   1      28.160  26.253  11.695 +0.05 +0.11    +0.222 HD
DOCKED: ENDBRANCH  15  19
DOCKED: ENDBRANCH  14  15
DOCKED: ENDBRANCH   2  14
DOCKED: BRANCH   6  21
DOCKED: ATOM     21  O   UNL d   1      25.660  22.503  12.207 -0.14 -0.16    -0.278 OA
DOCKED: BRANCH  21  22
DOCKED: ATOM     22  P   UNL d   1      25.891  21.397  11.081 -0.25 +0.22    +0.473 P 
DOCKED: ATOM     23  O   UNL d   1      24.994  21.406   9.890 -0.20 -0.05    -0.228 OA
DOCKED: BRANCH  22  24
DOCKED: ATOM     24  O   UNL d   1      27.437  21.586  10.753 -0.34 -0.19    -0.303 OA
DOCKED: ATOM     25  H   UNL d   1      27.552  21.537   9.770 -0.38 +0.01    +0.222 HD
DOCKED: ENDBRANCH  22  24
DOCKED: BRANCH  22  26
DOCKED: ATOM     26  O   UNL d   1      25.899  20.048  11.946 -0.82 -0.23    -0.303 OA
DOCKED: ATOM     27  H   UNL d   1      24.999  19.663  11.949 +0.10 +0.16    +0.222 HD
DOCKED: ENDBRANCH  22  26
DOCKED: ENDBRANCH  21  22
DOCKED: ENDBRANCH   6  21
DOCKED: BRANCH   3  28
DOCKED: ATOM     28  O   UNL d   1      24.168  26.847   9.164 -0.06 +0.06    -0.278 OA
DOCKED: BRANCH  28  29
DOCKED: ATOM     29  P   UNL d   1      23.842  27.212   7.648 -0.09 -0.20    +0.473 P 
DOCKED: ATOM     30  O   UNL d   1      24.162  28.604   7.241 -0.06 +0.09    -0.228 OA
DOCKED: BRANCH  29  31
DOCKED: ATOM     31  O   UNL d   1      24.634  26.037   6.902 -0.21 +0.25    -0.303 OA
DOCKED: ATOM     32  H   UNL d   1      24.321  25.173   7.257 -0.12 -0.15    +0.222 HD
DOCKED: ENDBRANCH  29  31
DOCKED: BRANCH  29  33
DOCKED: ATOM     33  O   UNL d   1      22.324  26.753   7.513 -0.05 +0.10    -0.303 OA
DOCKED: ATOM     34  H   UNL d   1      22.153  26.015   8.149 +0.05 -0.05    +0.222 HD
DOCKED: ENDBRANCH  29  33
DOCKED: ENDBRANCH  28  29
DOCKED: ENDBRANCH   3  28
DOCKED: BRANCH   5  35
DOCKED: ATOM     35  O   UNL d   1      22.900  23.443  12.041 -0.06 -0.07    -0.278 OA
DOCKED: BRANCH  35  36
DOCKED: ATOM     36  P   UNL d   1      21.785  22.328  11.799 -0.05 +0.13    +0.473 P 
DOCKED: ATOM     37  O   UNL d   1      21.152  21.770  13.034 -0.09 -0.09    -0.228 OA
DOCKED: BRANCH  36  38
DOCKED: ATOM     38  O   UNL d   1      20.773  23.084  10.829 -0.01 -0.05    -0.303 OA
DOCKED: ATOM     39  H   UNL d   1      21.270  23.440  10.061 +0.04 +0.02    +0.222 HD
DOCKED: ENDBRANCH  36  38
DOCKED: BRANCH  36  40
DOCKED: ATOM     40  O   UNL d   1      22.534  21.300  10.845 -0.05 -0.08    -0.303 OA
DOCKED: ATOM     41  H   UNL d   1      22.995  21.757  10.107 +0.09 +0.05    +0.222 HD
DOCKED: ENDBRANCH  36  40
DOCKED: ENDBRANCH  35  36
DOCKED: ENDBRANCH   5  35
DOCKED: BRANCH   4  42
DOCKED: ATOM     42  O   UNL d   1      22.513  24.499   9.353 -0.04 +0.01    -0.278 OA
DOCKED: BRANCH  42  43
DOCKED: ATOM     43  P   UNL d   1      22.937  23.536   8.154 -0.12 -0.04    +0.473 P 
DOCKED: ATOM     44  O   UNL d   1      24.369  23.132   8.071 -0.35 +0.02    -0.228 OA
DOCKED: BRANCH  43  45
DOCKED: ATOM     45  O   UNL d   1      21.925  22.318   8.310 -0.05 -0.03    -0.303 OA
DOCKED: ATOM     46  H   UNL d   1      21.728  22.135   9.250 +0.07 +0.03    +0.222 HD
DOCKED: ENDBRANCH  43  45
DOCKED: BRANCH  43  47
DOCKED: ATOM     47  O   UNL d   1      22.353  24.282   6.861 -0.19 +0.11    -0.303 OA
DOCKED: ATOM     48  H   UNL d   1      22.991  24.966   6.567 +0.04 -0.17    +0.222 HD
DOCKED: ENDBRANCH  43  47
DOCKED: ENDBRANCH  42  43
DOCKED: ENDBRANCH   4  42
DOCKED: TORSDOF 24
DOCKED: TER
DOCKED: ENDMDL
________________________________________________________________________________


	BEGINNING GENETIC ALGORITHM DOCKING 26 of 100
Run: 26 Seed: 2079591622 327923428 [ Run 26 of 100 GA/GALS ]
Beginning LAMARCKIAN GENETIC ALGORITHM (LGA), with a maximum of 25000000 energy evaluations.

Final-Value: -18.149


	FINAL GENETIC ALGORITHM DOCKED STATE
	_______________________________________________


Detailed state:  trans 15.255 8.011 -12.724 quatxyzw -0.225205 0.057640 0.342812 -0.910187 center 0.035 0.082 -0.065 ntor 24 116.6441 83.9152 153.6333 -16.1763 145.8617 92.7313 -37.2770 -115.0766 152.1929 -38.4555 26.9548 162.5264 -75.4988 168.9136 117.0855 69.1009 63.3909 169.3757 56.9054 14.3336 -51.8947 12.8246 -27.0768 -10.5207
State:	 15.255   8.011 -12.724  -0.544  0.139  0.828 -48.938    116.64   83.92  153.63  -16.18  145.86   92.73  -37.28 -115.08  152.19  -38.46   26.95  162.53  -75.50  168.91  117.09   69.10   63.39  169.38   56.91   14.33  -51.89   12.82  -27.08  -10.52

DOCKED: MODEL       26
DOCKED: USER    Run = 26
DOCKED: USER    DPF = D:/Protein_go_brrr/autodock/final/1A3N/IHP/dock.dpf
DOCKED: USER  
DOCKED: USER    Estimated Free Energy of Binding    =   +3.62 kcal/mol  [=(1)+(2)+(3)-(4)]
DOCKED: USER    
DOCKED: USER    (1) Final Intermolecular Energy     =   -3.54 kcal/mol
DOCKED: USER        vdW + Hbond + desolv Energy     =   -3.43 kcal/mol
DOCKED: USER        Electrostatic Energy            =   -0.11 kcal/mol
DOCKED: USER    (2) Final Total Internal Energy     =  -14.61 kcal/mol
DOCKED: USER    (3) Torsional Free Energy           =   +7.16 kcal/mol
DOCKED: USER    (4) Unbound System's Energy  [=(2)] =  -14.61 kcal/mol
DOCKED: USER    
DOCKED: USER    
DOCKED: USER    NEWDPF move IHP_ideal_opt.pdbqt
DOCKED: USER    NEWDPF about 0.035000 0.082000 -0.065000
DOCKED: USER    NEWDPF tran0 15.254562 8.010670 -12.724178
DOCKED: USER    NEWDPF quaternion0 -0.225205 0.057640 0.342812 -0.910187
DOCKED: USER    NEWDPF axisangle0 -0.543715 0.139162 0.827652 -48.937604
DOCKED: USER    NEWDPF quat0 -0.543715 0.139162 0.827652 -48.937604
DOCKED: USER    NEWDPF dihe0 116.64 83.92 153.63 -16.18 145.86 92.73 -37.28 -115.08 152.19 -38.46 26.95 162.53 -75.50 168.91 117.09 69.10 63.39 169.38 56.91 14.33 -51.89 12.82 -27.08 -10.52 
DOCKED: USER  keepresnum = 1 
DOCKED: USER  
DOCKED: REMARK  24 active torsions:
DOCKED: REMARK  status: ('A' for Active; 'I' for Inactive)
DOCKED: REMARK    1  A    between atoms: C_1  and  O_7 
DOCKED: REMARK    2  A    between atoms: C_2  and  O_12 
DOCKED: REMARK    3  A    between atoms: C_3  and  O_17 
DOCKED: REMARK    4  A    between atoms: C_4  and  O_22 
DOCKED: REMARK    5  A    between atoms: C_5  and  O_27 
DOCKED: REMARK    6  A    between atoms: C_6  and  O_32 
DOCKED: REMARK    7  A    between atoms: O_7  and  P_8 
DOCKED: REMARK    8  A    between atoms: P_8  and  O_10 
DOCKED: REMARK    9  A    between atoms: P_8  and  O_11 
DOCKED: REMARK   10  A    between atoms: O_12  and  P_13 
DOCKED: REMARK   11  A    between atoms: P_13  and  O_15 
DOCKED: REMARK   12  A    between atoms: P_13  and  O_16 
DOCKED: REMARK   13  A    between atoms: O_17  and  P_18 
DOCKED: REMARK   14  A    between atoms: P_18  and  O_20 
DOCKED: REMARK   15  A    between atoms: P_18  and  O_21 
DOCKED: REMARK   16  A    between atoms: O_22  and  P_23 
DOCKED: REMARK   17  A    between atoms: P_23  and  O_25 
DOCKED: REMARK   18  A    between atoms: P_23  and  O_26 
DOCKED: REMARK   19  A    between atoms: O_27  and  P_28 
DOCKED: REMARK   20  A    between atoms: P_28  and  O_30 
DOCKED: REMARK   21  A    between atoms: P_28  and  O_31 
DOCKED: REMARK   22  A    between atoms: O_32  and  P_33 
DOCKED: REMARK   23  A    between atoms: P_33  and  O_35 
DOCKED: REMARK   24  A    between atoms: P_33  and  O_36 
DOCKED: USER                              x       y       z     vdW  Elec       q    Type
DOCKED: USER                           _______ _______ _______ _____ _____    ______ ____
DOCKED: ROOT
DOCKED: ATOM      1  C   UNL d   1      16.743   8.526 -12.015 -0.17 +0.11    +0.194 C 
DOCKED: ATOM      2  C   UNL d   1      16.337   7.081 -11.722 -0.13 +0.07    +0.194 C 
DOCKED: ATOM      3  C   UNL d   1      14.847   6.966 -11.393 -0.17 +0.07    +0.194 C 
DOCKED: ATOM      4  C   UNL d   1      13.948   7.617 -12.440 -0.11 +0.06    +0.194 C 
DOCKED: ATOM      5  C   UNL d   1      14.383   9.019 -12.847 -0.14 +0.13    +0.194 C 
DOCKED: ATOM      6  C   UNL d   1      15.884   9.148 -13.117 -0.13 +0.15    +0.194 C 
DOCKED: ENDROOT
DOCKED: BRANCH   1   7
DOCKED: ATOM      7  O   UNL d   1      18.095   8.525 -12.478 -0.07 -0.12    -0.278 OA
DOCKED: BRANCH   7   8
DOCKED: ATOM      8  P   UNL d   1      19.245   8.075 -11.465 -0.09 +0.17    +0.473 P 
DOCKED: ATOM      9  O   UNL d   1      18.910   8.228 -10.023 -0.19 -0.09    -0.228 OA
DOCKED: BRANCH   8  10
DOCKED: ATOM     10  O   UNL d   1      19.559   6.567 -11.880 -0.04 -0.09    -0.303 OA
DOCKED: ATOM     11  H   UNL d   1      18.724   6.101 -12.072 +0.04 +0.06    +0.222 HD
DOCKED: ENDBRANCH   8  10
DOCKED: BRANCH   8  12
DOCKED: ATOM     12  O   UNL d   1      20.550   8.835 -11.958 -0.05 -0.11    -0.303 OA
DOCKED: ATOM     13  H   UNL d   1      20.371   9.752 -12.263 +0.04 +0.09    +0.222 HD
DOCKED: ENDBRANCH   8  12
DOCKED: ENDBRANCH   7   8
DOCKED: ENDBRANCH   1   7
DOCKED: BRANCH   2  14
DOCKED: ATOM     14  O   UNL d   1      16.613   6.276 -12.876 -0.02 -0.07    -0.278 OA
DOCKED: BRANCH  14  15
DOCKED: ATOM     15  P   UNL d   1      17.077   4.768 -12.602 -0.01 +0.09    +0.473 P 
DOCKED: ATOM     16  O   UNL d   1      18.232   4.263 -13.408 -0.03 -0.04    -0.228 OA
DOCKED: BRANCH  15  17
DOCKED: ATOM     17  O   UNL d   1      17.353   4.726 -11.034 -0.06 -0.07    -0.303 OA
DOCKED: ATOM     18  H   UNL d   1      16.557   4.981 -10.529 +0.07 +0.06    +0.222 HD
DOCKED: ENDBRANCH  15  17
DOCKED: BRANCH  15  19
DOCKED: ATOM     19  O   UNL d   1      15.738   3.915 -12.713 -0.01 -0.05    -0.303 OA
DOCKED: ATOM     20  H   UNL d   1      15.178   4.019 -11.921 +0.05 +0.04    +0.222 HD
DOCKED: ENDBRANCH  15  19
DOCKED: ENDBRANCH  14  15
DOCKED: ENDBRANCH   2  14
DOCKED: BRANCH   6  21
DOCKED: ATOM     21  O   UNL d   1      16.180  10.542 -13.141 -0.59 -0.47    -0.278 OA
DOCKED: BRANCH  21  22
DOCKED: ATOM     22  P   UNL d   1      17.437  11.070 -13.970 -0.06 +0.44    +0.473 P 
DOCKED: ATOM     23  O   UNL d   1      17.347  12.417 -14.605 -0.07 -0.22    -0.228 OA
DOCKED: BRANCH  22  24
DOCKED: ATOM     24  O   UNL d   1      18.615  10.908 -12.913 -0.08 -0.21    -0.303 OA
DOCKED: ATOM     25  H   UNL d   1      18.892   9.957 -12.904 +0.04 +0.11    +0.222 HD
DOCKED: ENDBRANCH  22  24
DOCKED: BRANCH  22  26
DOCKED: ATOM     26  O   UNL d   1      17.711   9.842 -14.963 -0.01 -0.13    -0.303 OA
DOCKED: ATOM     27  H   UNL d   1      18.222   9.154 -14.490 +0.02 +0.08    +0.222 HD
DOCKED: ENDBRANCH  22  26
DOCKED: ENDBRANCH  21  22
DOCKED: ENDBRANCH   6  21
DOCKED: BRANCH   3  28
DOCKED: ATOM     28  O   UNL d   1      14.510   5.585 -11.412 -0.06 -0.06    -0.278 OA
DOCKED: BRANCH  28  29
DOCKED: ATOM     29  P   UNL d   1      13.855   4.899 -10.132 -0.11 +0.14    +0.473 P 
DOCKED: ATOM     30  O   UNL d   1      12.790   5.686  -9.458 -0.72 -0.10    -0.228 OA
DOCKED: BRANCH  29  31
DOCKED: ATOM     31  O   UNL d   1      13.430   3.489 -10.758 -0.03 -0.06    -0.303 OA
DOCKED: ATOM     32  H   UNL d   1      13.888   3.378 -11.623 +0.05 +0.03    +0.222 HD
DOCKED: ENDBRANCH  29  31
DOCKED: BRANCH  29  33
DOCKED: ATOM     33  O   UNL d   1      15.135   4.526  -9.261 -0.19 -0.12    -0.303 OA
DOCKED: ATOM     34  H   UNL d   1      15.740   3.965  -9.805 +0.09 +0.07    +0.222 HD
DOCKED: ENDBRANCH  29  33
DOCKED: ENDBRANCH  28  29
DOCKED: ENDBRANCH   3  28
DOCKED: BRANCH   5  35
DOCKED: ATOM     35  O   UNL d   1      13.711   9.292 -14.075 -0.06 -0.14    -0.278 OA
DOCKED: BRANCH  35  36
DOCKED: ATOM     36  P   UNL d   1      12.438  10.254 -14.098 -0.05 +0.22    +0.473 P 
DOCKED: ATOM     37  O   UNL d   1      12.659  11.601 -14.711 -0.08 -0.14    -0.228 OA
DOCKED: BRANCH  36  38
DOCKED: ATOM     38  O   UNL d   1      11.366   9.357 -14.860 -0.01 -0.03    -0.303 OA
DOCKED: ATOM     39  H   UNL d   1      10.957   8.734 -14.222 +0.04 -0.00    +0.222 HD
DOCKED: ENDBRANCH  36  38
DOCKED: BRANCH  36  40
DOCKED: ATOM     40  O   UNL d   1      11.958  10.220 -12.583 -0.07 -0.15    -0.303 OA
DOCKED: ATOM     41  H   UNL d   1      11.437   9.411 -12.383 +0.06 +0.05    +0.222 HD
DOCKED: ENDBRANCH  36  40
DOCKED: ENDBRANCH  35  36
DOCKED: ENDBRANCH   5  35
DOCKED: BRANCH   4  42
DOCKED: ATOM     42  O   UNL d   1      12.647   7.733 -11.855 -0.15 -0.06    -0.278 OA
DOCKED: BRANCH  42  43
DOCKED: ATOM     43  P   UNL d   1      11.410   7.030 -12.577 -0.06 -0.12    +0.473 P 
DOCKED: ATOM     44  O   UNL d   1      10.093   7.724 -12.514 -0.12 +0.19    -0.228 OA
DOCKED: BRANCH  43  45
DOCKED: ATOM     45  O   UNL d   1      11.955   6.798 -14.054 -0.02 +0.01    -0.303 OA
DOCKED: ATOM     46  H   UNL d   1      12.396   7.599 -14.402 +0.03 +0.02    +0.222 HD
DOCKED: ENDBRANCH  43  45
DOCKED: BRANCH  43  47
DOCKED: ATOM     47  O   UNL d   1      11.437   5.542 -11.982 -0.12 +0.10    -0.303 OA
DOCKED: ATOM     48  H   UNL d   1      12.320   5.364 -11.598 +0.08 -0.00    +0.222 HD
DOCKED: ENDBRANCH  43  47
DOCKED: ENDBRANCH  42  43
DOCKED: ENDBRANCH   4  42
DOCKED: TORSDOF 24
DOCKED: TER
DOCKED: ENDMDL
________________________________________________________________________________


	BEGINNING GENETIC ALGORITHM DOCKING 27 of 100
Run: 27 Seed: 800607073 843379211 [ Run 27 of 100 GA/GALS ]
Beginning LAMARCKIAN GENETIC ALGORITHM (LGA), with a maximum of 25000000 energy evaluations.

Final-Value: -18.189


	FINAL GENETIC ALGORITHM DOCKED STATE
	_______________________________________________


Detailed state:  trans 18.174 -4.953 14.658 quatxyzw -0.710828 -0.662506 -0.229821 -0.054699 center 0.035 0.082 -0.065 ntor 24 124.7151 63.0541 149.4843 28.0004 33.0873 -179.9849 4.2485 -105.0234 55.9083 -70.4189 129.6203 179.1302 -170.6648 -142.2578 -24.4869 -56.0939 166.7034 -130.8684 -5.3865 1.8455 163.8059 146.2971 -23.6615 154.3232
State:	 18.174  -4.953  14.658  -0.712 -0.663 -0.230 -173.729    124.72   63.05  149.48   28.00   33.09 -179.98    4.25 -105.02   55.91  -70.42  129.62  179.13 -170.66 -142.26  -24.49  -56.09  166.70 -130.87   -5.39    1.85  163.81  146.30  -23.66  154.32

DOCKED: MODEL       27
DOCKED: USER    Run = 27
DOCKED: USER    DPF = D:/Protein_go_brrr/autodock/final/1A3N/IHP/dock.dpf
DOCKED: USER  
DOCKED: USER    Estimated Free Energy of Binding    =   +2.58 kcal/mol  [=(1)+(2)+(3)-(4)]
DOCKED: USER    
DOCKED: USER    (1) Final Intermolecular Energy     =   -4.57 kcal/mol
DOCKED: USER        vdW + Hbond + desolv Energy     =   -4.58 kcal/mol
DOCKED: USER        Electrostatic Energy            =   +0.00 kcal/mol
DOCKED: USER    (2) Final Total Internal Energy     =  -13.61 kcal/mol
DOCKED: USER    (3) Torsional Free Energy           =   +7.16 kcal/mol
DOCKED: USER    (4) Unbound System's Energy  [=(2)] =  -13.61 kcal/mol
DOCKED: USER    
DOCKED: USER    
DOCKED: USER    NEWDPF move IHP_ideal_opt.pdbqt
DOCKED: USER    NEWDPF about 0.035000 0.082000 -0.065000
DOCKED: USER    NEWDPF tran0 18.174310 -4.953236 14.658182
DOCKED: USER    NEWDPF quaternion0 -0.710828 -0.662506 -0.229821 -0.054699
DOCKED: USER    NEWDPF axisangle0 -0.711894 -0.663499 -0.230165 -173.728878
DOCKED: USER    NEWDPF quat0 -0.711894 -0.663499 -0.230165 -173.728878
DOCKED: USER    NEWDPF dihe0 124.72 63.05 149.48 28.00 33.09 -179.98 4.25 -105.02 55.91 -70.42 129.62 179.13 -170.66 -142.26 -24.49 -56.09 166.70 -130.87 -5.39 1.85 163.81 146.30 -23.66 154.32 
DOCKED: USER  keepresnum = 1 
DOCKED: USER  
DOCKED: REMARK  24 active torsions:
DOCKED: REMARK  status: ('A' for Active; 'I' for Inactive)
DOCKED: REMARK    1  A    between atoms: C_1  and  O_7 
DOCKED: REMARK    2  A    between atoms: C_2  and  O_12 
DOCKED: REMARK    3  A    between atoms: C_3  and  O_17 
DOCKED: REMARK    4  A    between atoms: C_4  and  O_22 
DOCKED: REMARK    5  A    between atoms: C_5  and  O_27 
DOCKED: REMARK    6  A    between atoms: C_6  and  O_32 
DOCKED: REMARK    7  A    between atoms: O_7  and  P_8 
DOCKED: REMARK    8  A    between atoms: P_8  and  O_10 
DOCKED: REMARK    9  A    between atoms: P_8  and  O_11 
DOCKED: REMARK   10  A    between atoms: O_12  and  P_13 
DOCKED: REMARK   11  A    between atoms: P_13  and  O_15 
DOCKED: REMARK   12  A    between atoms: P_13  and  O_16 
DOCKED: REMARK   13  A    between atoms: O_17  and  P_18 
DOCKED: REMARK   14  A    between atoms: P_18  and  O_20 
DOCKED: REMARK   15  A    between atoms: P_18  and  O_21 
DOCKED: REMARK   16  A    between atoms: O_22  and  P_23 
DOCKED: REMARK   17  A    between atoms: P_23  and  O_25 
DOCKED: REMARK   18  A    between atoms: P_23  and  O_26 
DOCKED: REMARK   19  A    between atoms: O_27  and  P_28 
DOCKED: REMARK   20  A    between atoms: P_28  and  O_30 
DOCKED: REMARK   21  A    between atoms: P_28  and  O_31 
DOCKED: REMARK   22  A    between atoms: O_32  and  P_33 
DOCKED: REMARK   23  A    between atoms: P_33  and  O_35 
DOCKED: REMARK   24  A    between atoms: P_33  and  O_36 
DOCKED: USER                              x       y       z     vdW  Elec       q    Type
DOCKED: USER                           _______ _______ _______ _____ _____    ______ ____
DOCKED: ROOT
DOCKED: ATOM      1  C   UNL d   1      17.537  -3.399  14.254 -0.07 +0.01    +0.194 C 
DOCKED: ATOM      2  C   UNL d   1      16.646  -4.591  13.902 -0.05 +0.04    +0.194 C 
DOCKED: ATOM      3  C   UNL d   1      17.449  -5.736  13.283 -0.04 +0.03    +0.194 C 
DOCKED: ATOM      4  C   UNL d   1      18.656  -6.147  14.123 -0.12 +0.03    +0.194 C 
DOCKED: ATOM      5  C   UNL d   1      19.511  -4.978  14.594 -0.14 +0.02    +0.194 C 
DOCKED: ATOM      6  C   UNL d   1      18.703  -3.806  15.157 -0.11 +0.01    +0.194 C 
DOCKED: ENDROOT
DOCKED: BRANCH   1   7
DOCKED: ATOM      7  O   UNL d   1      16.749  -2.451  14.978 -0.09 +0.02    -0.278 OA
DOCKED: BRANCH   7   8
DOCKED: ATOM      8  P   UNL d   1      16.736  -0.934  14.476 -0.03 -0.10    +0.473 P 
DOCKED: ATOM      9  O   UNL d   1      17.247   0.060  15.459 -0.15 +0.18    -0.228 OA
DOCKED: BRANCH   8  10
DOCKED: ATOM     10  O   UNL d   1      17.577  -0.968  13.121 -0.02 +0.01    -0.303 OA
DOCKED: ATOM     11  H   UNL d   1      18.279  -1.642  13.189 +0.06 -0.01    +0.222 HD
DOCKED: ENDBRANCH   8  10
DOCKED: BRANCH   8  12
DOCKED: ATOM     12  O   UNL d   1      15.259  -0.689  13.945 -0.02 -0.01    -0.303 OA
DOCKED: ATOM     13  H   UNL d   1      14.615  -1.357  14.271 +0.05 +0.03    +0.222 HD
DOCKED: ENDBRANCH   8  12
DOCKED: ENDBRANCH   7   8
DOCKED: ENDBRANCH   1   7
DOCKED: BRANCH   2  14
DOCKED: ATOM     14  O   UNL d   1      16.012  -5.069  15.095 -0.12 -0.11    -0.278 OA
DOCKED: BRANCH  14  15
DOCKED: ATOM     15  P   UNL d   1      14.440  -5.360  15.004 -0.02 +0.22    +0.473 P 
DOCKED: ATOM     16  O   UNL d   1      13.527  -4.203  15.263 -0.05 -0.10    -0.228 OA
DOCKED: BRANCH  15  17
DOCKED: ATOM     17  O   UNL d   1      14.246  -5.988  13.552 -0.00 -0.09    -0.303 OA
DOCKED: ATOM     18  H   UNL d   1      14.840  -6.750  13.416 +0.04 +0.07    +0.222 HD
DOCKED: ENDBRANCH  15  17
DOCKED: BRANCH  15  19
DOCKED: ATOM     19  O   UNL d   1      14.218  -6.632  15.933 -0.12 -0.19    -0.303 OA
DOCKED: ATOM     20  H   UNL d   1      14.995  -7.220  15.932 -0.06 +0.11    +0.222 HD
DOCKED: ENDBRANCH  15  19
DOCKED: ENDBRANCH  14  15
DOCKED: ENDBRANCH   2  14
DOCKED: BRANCH   6  21
DOCKED: ATOM     21  O   UNL d   1      19.588  -2.691  15.226 -0.15 +0.03    -0.278 OA
DOCKED: BRANCH  21  22
DOCKED: ATOM     22  P   UNL d   1      20.251  -2.122  13.891 -0.07 -0.03    +0.473 P 
DOCKED: ATOM     23  O   UNL d   1      19.818  -2.702  12.587 -0.09 +0.00    -0.228 OA
DOCKED: BRANCH  22  24
DOCKED: ATOM     24  O   UNL d   1      19.997  -0.558  14.043 -0.11 +0.04    -0.303 OA
DOCKED: ATOM     25  H   UNL d   1      19.138  -0.430  14.519 +0.08 -0.06    +0.222 HD
DOCKED: ENDBRANCH  22  24
DOCKED: BRANCH  22  26
DOCKED: ATOM     26  O   UNL d   1      21.814  -2.238  14.228 -0.49 +0.01    -0.303 OA
DOCKED: ATOM     27  H   UNL d   1      21.925  -2.698  15.085 +0.03 -0.04    +0.222 HD
DOCKED: ENDBRANCH  22  26
DOCKED: ENDBRANCH  21  22
DOCKED: ENDBRANCH   6  21
DOCKED: BRANCH   3  28
DOCKED: ATOM     28  O   UNL d   1      16.606  -6.881  13.248 -0.04 -0.06    -0.278 OA
DOCKED: BRANCH  28  29
DOCKED: ATOM     29  P   UNL d   1      16.790  -8.048  14.316 -0.05 +0.15    +0.473 P 
DOCKED: ATOM     30  O   UNL d   1      17.862  -9.031  14.013 -0.32 -0.07    -0.228 OA
DOCKED: BRANCH  29  31
DOCKED: ATOM     31  O   UNL d   1      16.957  -7.181  15.651 -0.23 -0.11    -0.303 OA
DOCKED: ATOM     32  H   UNL d   1      16.173  -6.592  15.743 +0.02 +0.11    +0.222 HD
DOCKED: ENDBRANCH  29  31
DOCKED: BRANCH  29  33
DOCKED: ATOM     33  O   UNL d   1      15.309  -8.616  14.449 -0.45 -0.12    -0.303 OA
DOCKED: ATOM     34  H   UNL d   1      14.681  -7.858  14.538 +0.04 +0.08    +0.222 HD
DOCKED: ENDBRANCH  29  33
DOCKED: ENDBRANCH  28  29
DOCKED: ENDBRANCH   3  28
DOCKED: BRANCH   5  35
DOCKED: ATOM     35  O   UNL d   1      20.309  -5.487  15.661 -0.22 -0.04    -0.278 OA
DOCKED: BRANCH  35  36
DOCKED: ATOM     36  P   UNL d   1      21.867  -5.752  15.444 -0.26 +0.01    +0.473 P 
DOCKED: ATOM     37  O   UNL d   1      22.448  -6.876  16.242 -0.31 -0.01    -0.228 OA
DOCKED: BRANCH  36  38
DOCKED: ATOM     38  O   UNL d   1      21.946  -5.961  13.867 -0.21 -0.01    -0.303 OA
DOCKED: ATOM     39  H   UNL d   1      21.040  -6.098  13.516 +0.12 +0.02    +0.222 HD
DOCKED: ENDBRANCH  36  38
DOCKED: BRANCH  36  40
DOCKED: ATOM     40  O   UNL d   1      22.492  -4.307  15.670 -0.30 +0.07    -0.303 OA
DOCKED: ATOM     41  H   UNL d   1      22.862  -3.936  14.839 -0.25 -0.09    +0.222 HD
DOCKED: ENDBRANCH  36  40
DOCKED: ENDBRANCH  35  36
DOCKED: ENDBRANCH   5  35
DOCKED: BRANCH   4  42
DOCKED: ATOM     42  O   UNL d   1      19.483  -6.965  13.289 -0.06 -0.04    -0.278 OA
DOCKED: BRANCH  42  43
DOCKED: ATOM     43  P   UNL d   1      19.738  -6.517  11.779 -0.07 +0.03    +0.473 P 
DOCKED: ATOM     44  O   UNL d   1      18.723  -6.917  10.764 -0.07 -0.02    -0.228 OA
DOCKED: BRANCH  43  45
DOCKED: ATOM     45  O   UNL d   1      19.941  -4.945  11.911 -0.09 -0.01    -0.303 OA
DOCKED: ATOM     46  H   UNL d   1      20.666  -4.728  12.532 +0.10 +0.00    +0.222 HD
DOCKED: ENDBRANCH  43  45
DOCKED: BRANCH  43  47
DOCKED: ATOM     47  O   UNL d   1      21.234  -7.017  11.496 -0.19 -0.02    -0.303 OA
DOCKED: ATOM     48  H   UNL d   1      21.597  -7.425  12.310 +0.12 +0.02    +0.222 HD
DOCKED: ENDBRANCH  43  47
DOCKED: ENDBRANCH  42  43
DOCKED: ENDBRANCH   4  42
DOCKED: TORSDOF 24
DOCKED: TER
DOCKED: ENDMDL
________________________________________________________________________________


	BEGINNING GENETIC ALGORITHM DOCKING 28 of 100
Run: 28 Seed: 559491773 597466856 [ Run 28 of 100 GA/GALS ]
Beginning LAMARCKIAN GENETIC ALGORITHM (LGA), with a maximum of 25000000 energy evaluations.

Final-Value: -18.474


	FINAL GENETIC ALGORITHM DOCKED STATE
	_______________________________________________


Detailed state:  trans -7.681 14.022 -9.316 quatxyzw -0.063213 -0.790245 -0.191035 -0.578811 center 0.035 0.082 -0.065 ntor 24 77.8606 67.8151 103.5597 99.9825 38.2779 149.0719 -141.2884 -45.3341 97.6589 -48.6383 170.6507 -53.6136 135.2468 88.7818 -61.3160 -173.9052 159.6175 46.6120 47.7137 2.7294 170.4898 5.9362 19.3487 -175.7541
State:	 -7.681  14.022  -9.316  -0.078 -0.969 -0.234 -109.266     77.86   67.82  103.56   99.98   38.28  149.07 -141.29  -45.33   97.66  -48.64  170.65  -53.61  135.25   88.78  -61.32 -173.91  159.62   46.61   47.71    2.73  170.49    5.94   19.35 -175.75

DOCKED: MODEL       28
DOCKED: USER    Run = 28
DOCKED: USER    DPF = D:/Protein_go_brrr/autodock/final/1A3N/IHP/dock.dpf
DOCKED: USER  
DOCKED: USER    Estimated Free Energy of Binding    =   +2.61 kcal/mol  [=(1)+(2)+(3)-(4)]
DOCKED: USER    
DOCKED: USER    (1) Final Intermolecular Energy     =   -4.55 kcal/mol
DOCKED: USER        vdW + Hbond + desolv Energy     =   -4.33 kcal/mol
DOCKED: USER        Electrostatic Energy            =   -0.22 kcal/mol
DOCKED: USER    (2) Final Total Internal Energy     =  -13.92 kcal/mol
DOCKED: USER    (3) Torsional Free Energy           =   +7.16 kcal/mol
DOCKED: USER    (4) Unbound System's Energy  [=(2)] =  -13.92 kcal/mol
DOCKED: USER    
DOCKED: USER    
DOCKED: USER    NEWDPF move IHP_ideal_opt.pdbqt
DOCKED: USER    NEWDPF about 0.035000 0.082000 -0.065000
DOCKED: USER    NEWDPF tran0 -7.680713 14.022315 -9.316146
DOCKED: USER    NEWDPF quaternion0 -0.063213 -0.790245 -0.191035 -0.578811
DOCKED: USER    NEWDPF axisangle0 -0.077518 -0.969077 -0.234266 -109.266036
DOCKED: USER    NEWDPF quat0 -0.077518 -0.969077 -0.234266 -109.266036
DOCKED: USER    NEWDPF dihe0 77.86 67.82 103.56 99.98 38.28 149.07 -141.29 -45.33 97.66 -48.64 170.65 -53.61 135.25 88.78 -61.32 -173.91 159.62 46.61 47.71 2.73 170.49 5.94 19.35 -175.75 
DOCKED: USER  keepresnum = 1 
DOCKED: USER  
DOCKED: REMARK  24 active torsions:
DOCKED: REMARK  status: ('A' for Active; 'I' for Inactive)
DOCKED: REMARK    1  A    between atoms: C_1  and  O_7 
DOCKED: REMARK    2  A    between atoms: C_2  and  O_12 
DOCKED: REMARK    3  A    between atoms: C_3  and  O_17 
DOCKED: REMARK    4  A    between atoms: C_4  and  O_22 
DOCKED: REMARK    5  A    between atoms: C_5  and  O_27 
DOCKED: REMARK    6  A    between atoms: C_6  and  O_32 
DOCKED: REMARK    7  A    between atoms: O_7  and  P_8 
DOCKED: REMARK    8  A    between atoms: P_8  and  O_10 
DOCKED: REMARK    9  A    between atoms: P_8  and  O_11 
DOCKED: REMARK   10  A    between atoms: O_12  and  P_13 
DOCKED: REMARK   11  A    between atoms: P_13  and  O_15 
DOCKED: REMARK   12  A    between atoms: P_13  and  O_16 
DOCKED: REMARK   13  A    between atoms: O_17  and  P_18 
DOCKED: REMARK   14  A    between atoms: P_18  and  O_20 
DOCKED: REMARK   15  A    between atoms: P_18  and  O_21 
DOCKED: REMARK   16  A    between atoms: O_22  and  P_23 
DOCKED: REMARK   17  A    between atoms: P_23  and  O_25 
DOCKED: REMARK   18  A    between atoms: P_23  and  O_26 
DOCKED: REMARK   19  A    between atoms: O_27  and  P_28 
DOCKED: REMARK   20  A    between atoms: P_28  and  O_30 
DOCKED: REMARK   21  A    between atoms: P_28  and  O_31 
DOCKED: REMARK   22  A    between atoms: O_32  and  P_33 
DOCKED: REMARK   23  A    between atoms: P_33  and  O_35 
DOCKED: REMARK   24  A    between atoms: P_33  and  O_36 
DOCKED: USER                              x       y       z     vdW  Elec       q    Type
DOCKED: USER                           _______ _______ _______ _____ _____    ______ ____
DOCKED: ROOT
DOCKED: ATOM      1  C   UNL d   1      -9.074  13.351  -8.546 -0.16 -0.06    +0.194 C 
DOCKED: ATOM      2  C   UNL d   1      -8.601  12.625  -9.807 -0.13 -0.06    +0.194 C 
DOCKED: ATOM      3  C   UNL d   1      -8.222  13.607 -10.918 -0.08 -0.08    +0.194 C 
DOCKED: ATOM      4  C   UNL d   1      -7.233  14.677 -10.463 -0.11 -0.12    +0.194 C 
DOCKED: ATOM      5  C   UNL d   1      -7.606  15.348  -9.147 -0.13 -0.07    +0.194 C 
DOCKED: ATOM      6  C   UNL d   1      -8.044  14.370  -8.055 -0.19 -0.07    +0.194 C 
DOCKED: ENDROOT
DOCKED: BRANCH   1   7
DOCKED: ATOM      7  O   UNL d   1      -9.241  12.381  -7.509 -0.21 +0.09    -0.278 OA
DOCKED: BRANCH   7   8
DOCKED: ATOM      8  P   UNL d   1     -10.515  11.419  -7.569 -0.12 -0.07    +0.473 P 
DOCKED: ATOM      9  O   UNL d   1     -10.705  10.549  -6.376 -0.18 +0.02    -0.228 OA
DOCKED: BRANCH   8  10
DOCKED: ATOM     10  O   UNL d   1     -11.738  12.411  -7.824 -0.03 +0.04    -0.303 OA
DOCKED: ATOM     11  H   UNL d   1     -11.999  12.830  -6.983 +0.05 -0.04    +0.222 HD
DOCKED: ENDBRANCH   8  10
DOCKED: BRANCH   8  12
DOCKED: ATOM     12  O   UNL d   1     -10.400  10.667  -8.964 -0.11 +0.02    -0.303 OA
DOCKED: ATOM     13  H   UNL d   1      -9.481  10.646  -9.316 +0.10 -0.03    +0.222 HD
DOCKED: ENDBRANCH   8  12
DOCKED: ENDBRANCH   7   8
DOCKED: ENDBRANCH   1   7
DOCKED: BRANCH   2  14
DOCKED: ATOM     14  O   UNL d   1      -7.451  11.832  -9.486 -0.16 +0.12    -0.278 OA
DOCKED: BRANCH  14  15
DOCKED: ATOM     15  P   UNL d   1      -7.437  10.333 -10.048 -0.24 -0.16    +0.473 P 
DOCKED: ATOM     16  O   UNL d   1      -6.109   9.788 -10.473 -0.45 +0.10    -0.228 OA
DOCKED: BRANCH  15  17
DOCKED: ATOM     17  O   UNL d   1      -8.112   9.477  -8.886 -0.30 +0.07    -0.303 OA
DOCKED: ATOM     18  H   UNL d   1      -8.477  10.056  -8.189 +0.04 -0.05    +0.222 HD
DOCKED: ENDBRANCH  15  17
DOCKED: BRANCH  15  19
DOCKED: ATOM     19  O   UNL d   1      -8.574  10.315 -11.160 -0.08 +0.06    -0.303 OA
DOCKED: ATOM     20  H   UNL d   1      -8.572  11.132 -11.691 +0.06 -0.05    +0.222 HD
DOCKED: ENDBRANCH  15  19
DOCKED: ENDBRANCH  14  15
DOCKED: ENDBRANCH   2  14
DOCKED: BRANCH   6  21
DOCKED: ATOM     21  O   UNL d   1      -8.674  15.144  -7.037 -0.07 +0.11    -0.278 OA
DOCKED: BRANCH  21  22
DOCKED: ATOM     22  P   UNL d   1     -10.072  15.854  -7.333 -0.06 -0.19    +0.473 P 
DOCKED: ATOM     23  O   UNL d   1     -10.352  16.305  -8.727 -0.02 +0.05    -0.228 OA
DOCKED: BRANCH  22  24
DOCKED: ATOM     24  O   UNL d   1     -11.106  14.791  -6.755 -0.08 +0.12    -0.303 OA
DOCKED: ATOM     25  H   UNL d   1     -10.691  13.893  -6.814 +0.06 -0.08    +0.222 HD
DOCKED: ENDBRANCH  22  24
DOCKED: BRANCH  22  26
DOCKED: ATOM     26  O   UNL d   1     -10.103  16.994  -6.206 -0.08 +0.23    -0.303 OA
DOCKED: ATOM     27  H   UNL d   1      -9.541  16.718  -5.454 -0.53 -0.34    +0.222 HD
DOCKED: ENDBRANCH  22  26
DOCKED: ENDBRANCH  21  22
DOCKED: ENDBRANCH   6  21
DOCKED: BRANCH   3  28
DOCKED: ATOM     28  O   UNL d   1      -7.544  12.870 -11.927 -0.08 +0.17    -0.278 OA
DOCKED: BRANCH  28  29
DOCKED: ATOM     29  P   UNL d   1      -8.165  12.748 -13.389 -0.01 -0.15    +0.473 P 
DOCKED: ATOM     30  O   UNL d   1      -7.209  12.376 -14.462 -0.04 +0.07    -0.228 OA
DOCKED: BRANCH  29  31
DOCKED: ATOM     31  O   UNL d   1      -9.364  11.728 -13.098 -0.01 +0.05    -0.303 OA
DOCKED: ATOM     32  H   UNL d   1      -9.029  10.809 -13.217 +0.04 -0.03    +0.222 HD
DOCKED: ENDBRANCH  29  31
DOCKED: BRANCH  29  33
DOCKED: ATOM     33  O   UNL d   1      -8.920  14.141 -13.548 -0.00 +0.06    -0.303 OA
DOCKED: ATOM     34  H   UNL d   1      -8.618  14.754 -12.833 +0.01 -0.06    +0.222 HD
DOCKED: ENDBRANCH  29  33
DOCKED: ENDBRANCH  28  29
DOCKED: ENDBRANCH   3  28
DOCKED: BRANCH   5  35
DOCKED: ATOM     35  O   UNL d   1      -6.416  15.985  -8.687 -0.17 +0.11    -0.278 OA
DOCKED: BRANCH  35  36
DOCKED: ATOM     36  P   UNL d   1      -6.503  17.313  -7.808 -0.07 -0.11    +0.473 P 
DOCKED: ATOM     37  O   UNL d   1      -5.293  18.192  -7.845 -0.08 +0.04    -0.228 OA
DOCKED: BRANCH  36  38
DOCKED: ATOM     38  O   UNL d   1      -7.825  17.995  -8.377 -0.02 +0.07    -0.303 OA
DOCKED: ATOM     39  H   UNL d   1      -8.422  17.297  -8.723 +0.04 -0.06    +0.222 HD
DOCKED: ENDBRANCH  36  38
DOCKED: BRANCH  36  40
DOCKED: ATOM     40  O   UNL d   1      -6.944  16.752  -6.386 -0.76 +0.06    -0.303 OA
DOCKED: ATOM     41  H   UNL d   1      -7.922  16.725  -6.293 +0.04 -0.12    +0.222 HD
DOCKED: ENDBRANCH  36  40
DOCKED: ENDBRANCH  35  36
DOCKED: ENDBRANCH   5  35
DOCKED: BRANCH   4  42
DOCKED: ATOM     42  O   UNL d   1      -7.231  15.695 -11.469 -0.03 +0.13    -0.278 OA
DOCKED: BRANCH  42  43
DOCKED: ATOM     43  P   UNL d   1      -8.488  16.671 -11.581 +0.01 -0.11    +0.473 P 
DOCKED: ATOM     44  O   UNL d   1      -8.432  17.952 -10.824 -0.00 +0.04    -0.228 OA
DOCKED: BRANCH  43  45
DOCKED: ATOM     45  O   UNL d   1      -8.651  16.850 -13.154 +0.00 +0.05    -0.303 OA
DOCKED: ATOM     46  H   UNL d   1      -9.334  16.249 -13.514 +0.00 -0.03    +0.222 HD
DOCKED: ENDBRANCH  43  45
DOCKED: BRANCH  43  47
DOCKED: ATOM     47  O   UNL d   1      -9.726  15.715 -11.232 +0.00 +0.06    -0.303 OA
DOCKED: ATOM     48  H   UNL d   1     -10.241  16.108 -10.497 +0.02 -0.04    +0.222 HD
DOCKED: ENDBRANCH  43  47
DOCKED: ENDBRANCH  42  43
DOCKED: ENDBRANCH   4  42
DOCKED: TORSDOF 24
DOCKED: TER
DOCKED: ENDMDL
________________________________________________________________________________


	BEGINNING GENETIC ALGORITHM DOCKING 29 of 100
Run: 29 Seed: 1104799290 2147261160 [ Run 29 of 100 GA/GALS ]
Beginning LAMARCKIAN GENETIC ALGORITHM (LGA), with a maximum of 25000000 energy evaluations.

Final-Value: -16.342


	FINAL GENETIC ALGORITHM DOCKED STATE
	_______________________________________________


Detailed state:  trans -7.904 23.514 26.977 quatxyzw 0.053805 0.234614 0.548304 -0.800889 center 0.035 0.082 -0.065 ntor 24 168.7572 63.8841 -153.6754 16.9753 -18.8365 178.8362 -53.5965 134.8630 132.3206 -20.2532 -39.6108 180.0000 -61.4265 -150.9638 -156.9224 169.7819 -143.6505 9.0278 11.2754 -43.3336 -49.0529 -39.0332 11.7404 167.0703
State:	 -7.904  23.514  26.977   0.090  0.392  0.916 -73.570    168.76   63.88 -153.68   16.98  -18.84  178.84  -53.60  134.86  132.32  -20.25  -39.61  180.00  -61.43 -150.96 -156.92  169.78 -143.65    9.03   11.28  -43.33  -49.05  -39.03   11.74  167.07

DOCKED: MODEL       29
DOCKED: USER    Run = 29
DOCKED: USER    DPF = D:/Protein_go_brrr/autodock/final/1A3N/IHP/dock.dpf
DOCKED: USER  
DOCKED: USER    Estimated Free Energy of Binding    =   +2.97 kcal/mol  [=(1)+(2)+(3)-(4)]
DOCKED: USER    
DOCKED: USER    (1) Final Intermolecular Energy     =   -4.19 kcal/mol
DOCKED: USER        vdW + Hbond + desolv Energy     =   -3.85 kcal/mol
DOCKED: USER        Electrostatic Energy            =   -0.34 kcal/mol
DOCKED: USER    (2) Final Total Internal Energy     =  -12.15 kcal/mol
DOCKED: USER    (3) Torsional Free Energy           =   +7.16 kcal/mol
DOCKED: USER    (4) Unbound System's Energy  [=(2)] =  -12.15 kcal/mol
DOCKED: USER    
DOCKED: USER    
DOCKED: USER    NEWDPF move IHP_ideal_opt.pdbqt
DOCKED: USER    NEWDPF about 0.035000 0.082000 -0.065000
DOCKED: USER    NEWDPF tran0 -7.904185 23.513654 26.976664
DOCKED: USER    NEWDPF quaternion0 0.053805 0.234614 0.548304 -0.800889
DOCKED: USER    NEWDPF axisangle0 0.089852 0.391798 0.915653 -73.569786
DOCKED: USER    NEWDPF quat0 0.089852 0.391798 0.915653 -73.569786
DOCKED: USER    NEWDPF dihe0 168.76 63.88 -153.68 16.98 -18.84 178.84 -53.60 134.86 132.32 -20.25 -39.61 180.00 -61.43 -150.96 -156.92 169.78 -143.65 9.03 11.28 -43.33 -49.05 -39.03 11.74 167.07 
DOCKED: USER  keepresnum = 1 
DOCKED: USER  
DOCKED: REMARK  24 active torsions:
DOCKED: REMARK  status: ('A' for Active; 'I' for Inactive)
DOCKED: REMARK    1  A    between atoms: C_1  and  O_7 
DOCKED: REMARK    2  A    between atoms: C_2  and  O_12 
DOCKED: REMARK    3  A    between atoms: C_3  and  O_17 
DOCKED: REMARK    4  A    between atoms: C_4  and  O_22 
DOCKED: REMARK    5  A    between atoms: C_5  and  O_27 
DOCKED: REMARK    6  A    between atoms: C_6  and  O_32 
DOCKED: REMARK    7  A    between atoms: O_7  and  P_8 
DOCKED: REMARK    8  A    between atoms: P_8  and  O_10 
DOCKED: REMARK    9  A    between atoms: P_8  and  O_11 
DOCKED: REMARK   10  A    between atoms: O_12  and  P_13 
DOCKED: REMARK   11  A    between atoms: P_13  and  O_15 
DOCKED: REMARK   12  A    between atoms: P_13  and  O_16 
DOCKED: REMARK   13  A    between atoms: O_17  and  P_18 
DOCKED: REMARK   14  A    between atoms: P_18  and  O_20 
DOCKED: REMARK   15  A    between atoms: P_18  and  O_21 
DOCKED: REMARK   16  A    between atoms: O_22  and  P_23 
DOCKED: REMARK   17  A    between atoms: P_23  and  O_25 
DOCKED: REMARK   18  A    between atoms: P_23  and  O_26 
DOCKED: REMARK   19  A    between atoms: O_27  and  P_28 
DOCKED: REMARK   20  A    between atoms: P_28  and  O_30 
DOCKED: REMARK   21  A    between atoms: P_28  and  O_31 
DOCKED: REMARK   22  A    between atoms: O_32  and  P_33 
DOCKED: REMARK   23  A    between atoms: P_33  and  O_35 
DOCKED: REMARK   24  A    between atoms: P_33  and  O_36 
DOCKED: USER                              x       y       z     vdW  Elec       q    Type
DOCKED: USER                           _______ _______ _______ _____ _____    ______ ____
DOCKED: ROOT
DOCKED: ATOM      1  C   UNL d   1      -6.441  24.432  26.974 -0.02 -0.02    +0.194 C 
DOCKED: ATOM      2  C   UNL d   1      -6.276  22.926  26.767 -0.09 -0.04    +0.194 C 
DOCKED: ATOM      3  C   UNL d   1      -7.166  22.122  27.718 -0.12 -0.03    +0.194 C 
DOCKED: ATOM      4  C   UNL d   1      -8.630  22.553  27.679 -0.09 -0.00    +0.194 C 
DOCKED: ATOM      5  C   UNL d   1      -8.836  24.060  27.767 -0.06 -0.00    +0.194 C 
DOCKED: ATOM      6  C   UNL d   1      -7.903  24.866  26.861 -0.03 -0.01    +0.194 C 
DOCKED: ENDROOT
DOCKED: BRANCH   1   7
DOCKED: ATOM      7  O   UNL d   1      -5.716  25.106  25.943 -0.02 +0.03    -0.278 OA
DOCKED: BRANCH   7   8
DOCKED: ATOM      8  P   UNL d   1      -4.406  25.926  26.348 -0.01 -0.04    +0.473 P 
DOCKED: ATOM      9  O   UNL d   1      -4.194  26.095  27.811 -0.01 +0.03    -0.228 OA
DOCKED: BRANCH   8  10
DOCKED: ATOM     10  O   UNL d   1      -3.219  25.140  25.628 -0.04 +0.03    -0.303 OA
DOCKED: ATOM     11  H   UNL d   1      -3.590  24.491  25.002 +0.07 -0.02    +0.222 HD
DOCKED: ENDBRANCH   8  10
DOCKED: BRANCH   8  12
DOCKED: ATOM     12  O   UNL d   1      -4.480  27.267  25.499 -0.01 +0.01    -0.303 OA
DOCKED: ATOM     13  H   UNL d   1      -5.383  27.460  25.160 +0.01 -0.01    +0.222 HD
DOCKED: ENDBRANCH   8  12
DOCKED: ENDBRANCH   7   8
DOCKED: ENDBRANCH   1   7
DOCKED: BRANCH   2  14
DOCKED: ATOM     14  O   UNL d   1      -6.635  22.597  25.419 -0.16 +0.05    -0.278 OA
DOCKED: BRANCH  14  15
DOCKED: ATOM     15  P   UNL d   1      -5.466  22.681  24.327 -0.13 -0.11    +0.473 P 
DOCKED: ATOM     16  O   UNL d   1      -5.364  23.955  23.549 -0.13 +0.03    -0.228 OA
DOCKED: BRANCH  15  17
DOCKED: ATOM     17  O   UNL d   1      -4.143  22.351  25.150 -0.14 +0.12    -0.303 OA
DOCKED: ATOM     18  H   UNL d   1      -3.777  21.483  24.894 -0.32 -0.14    +0.222 HD
DOCKED: ENDBRANCH  15  17
DOCKED: BRANCH  15  19
DOCKED: ATOM     19  O   UNL d   1      -5.640  21.359  23.459 -0.29 +0.12    -0.303 OA
DOCKED: ATOM     20  H   UNL d   1      -5.821  20.582  24.018 -0.31 -0.11    +0.222 HD
DOCKED: ENDBRANCH  15  19
DOCKED: ENDBRANCH  14  15
DOCKED: ENDBRANCH   2  14
DOCKED: BRANCH   6  21
DOCKED: ATOM     21  O   UNL d   1      -7.972  26.221  27.300 -0.00 +0.01    -0.278 OA
DOCKED: BRANCH  21  22
DOCKED: ATOM     22  P   UNL d   1      -7.720  27.404  26.261 +0.00 -0.01    +0.473 P 
DOCKED: ATOM     23  O   UNL d   1      -6.695  28.434  26.599 -0.00 +0.00    -0.228 OA
DOCKED: BRANCH  22  24
DOCKED: ATOM     24  O   UNL d   1      -7.440  26.601  24.915 -0.00 +0.01    -0.303 OA
DOCKED: ATOM     25  H   UNL d   1      -6.480  26.356  24.897 +0.02 -0.01    +0.222 HD
DOCKED: ENDBRANCH  22  24
DOCKED: BRANCH  22  26
DOCKED: ATOM     26  O   UNL d   1      -9.208  27.948  26.018 +0.00 +0.00    -0.303 OA
DOCKED: ATOM     27  H   UNL d   1      -9.825  27.473  26.612 +0.01 -0.00    +0.222 HD
DOCKED: ENDBRANCH  22  26
DOCKED: ENDBRANCH  21  22
DOCKED: ENDBRANCH   6  21
DOCKED: BRANCH   3  28
DOCKED: ATOM     28  O   UNL d   1      -7.158  20.772  27.273 -0.23 +0.04    -0.278 OA
DOCKED: BRANCH  28  29
DOCKED: ATOM     29  P   UNL d   1      -5.857  19.872  27.455 -0.21 -0.13    +0.473 P 
DOCKED: ATOM     30  O   UNL d   1      -6.105  18.442  27.773 -0.82 -0.03    -0.228 OA
DOCKED: BRANCH  29  31
DOCKED: ATOM     31  O   UNL d   1      -5.103  20.190  26.080 -0.12 +0.11    -0.303 OA
DOCKED: ATOM     32  H   UNL d   1      -5.666  20.796  25.546 +0.08 -0.08    +0.222 HD
DOCKED: ENDBRANCH  29  31
DOCKED: BRANCH  29  33
DOCKED: ATOM     33  O   UNL d   1      -5.018  20.710  28.518 -0.12 +0.20    -0.303 OA
DOCKED: ATOM     34  H   UNL d   1      -4.092  20.364  28.541 -0.42 -0.34    +0.222 HD
DOCKED: ENDBRANCH  29  33
DOCKED: ENDBRANCH  28  29
DOCKED: ENDBRANCH   3  28
DOCKED: BRANCH   5  35
DOCKED: ATOM     35  O   UNL d   1     -10.168  24.295  27.314 -0.05 -0.00    -0.278 OA
DOCKED: BRANCH  35  36
DOCKED: ATOM     36  P   UNL d   1     -11.068  25.413  28.010 -0.01 +0.00    +0.473 P 
DOCKED: ATOM     37  O   UNL d   1     -12.050  24.913  29.021 -0.01 -0.00    -0.228 OA
DOCKED: BRANCH  36  38
DOCKED: ATOM     38  O   UNL d   1      -9.966  26.399  28.600 -0.00 +0.00    -0.303 OA
DOCKED: ATOM     39  H   UNL d   1      -9.440  26.773  27.860 +0.01 -0.00    +0.222 HD
DOCKED: ENDBRANCH  36  38
DOCKED: BRANCH  36  40
DOCKED: ATOM     40  O   UNL d   1     -11.657  26.202  26.760 -0.01 -0.00    -0.303 OA
DOCKED: ATOM     41  H   UNL d   1     -10.946  26.619  26.225 +0.01 +0.00    +0.222 HD
DOCKED: ENDBRANCH  36  40
DOCKED: ENDBRANCH  35  36
DOCKED: ENDBRANCH   5  35
DOCKED: BRANCH   4  42
DOCKED: ATOM     42  O   UNL d   1      -9.263  21.974  28.825 -0.09 -0.00    -0.278 OA
DOCKED: BRANCH  42  43
DOCKED: ATOM     43  P   UNL d   1      -8.665  22.277  30.272 -0.02 -0.01    +0.473 P 
DOCKED: ATOM     44  O   UNL d   1      -8.504  23.706  30.663 -0.01 +0.00    -0.228 OA
DOCKED: BRANCH  43  45
DOCKED: ATOM     45  O   UNL d   1      -9.626  21.445  31.229 -0.02 -0.01    -0.303 OA
DOCKED: ATOM     46  H   UNL d   1     -10.167  22.033  31.793 +0.01 +0.01    +0.222 HD
DOCKED: ENDBRANCH  43  45
DOCKED: BRANCH  43  47
DOCKED: ATOM     47  O   UNL d   1      -7.326  21.396  30.308 -0.02 +0.02    -0.303 OA
DOCKED: ATOM     48  H   UNL d   1      -7.241  20.906  29.464 +0.06 -0.02    +0.222 HD
DOCKED: ENDBRANCH  43  47
DOCKED: ENDBRANCH  42  43
DOCKED: ENDBRANCH   4  42
DOCKED: TORSDOF 24
DOCKED: TER
DOCKED: ENDMDL
________________________________________________________________________________


	BEGINNING GENETIC ALGORITHM DOCKING 30 of 100
Run: 30 Seed: 615222171 668846729 [ Run 30 of 100 GA/GALS ]
Beginning LAMARCKIAN GENETIC ALGORITHM (LGA), with a maximum of 25000000 energy evaluations.

Final-Value: -19.339


	FINAL GENETIC ALGORITHM DOCKED STATE
	_______________________________________________


Detailed state:  trans -13.877 10.236 0.236 quatxyzw 0.097800 -0.321320 0.317995 -0.886605 center 0.035 0.082 -0.065 ntor 24 -92.1097 -24.7065 135.9199 -48.2473 21.3381 -144.9819 -128.7136 8.7444 119.3063 -28.8470 118.3294 -124.5373 -141.6144 78.5736 -42.2893 47.0724 167.2758 89.6756 33.8696 -26.1869 165.1743 161.8660 13.0869 -33.2746
State:	-13.877  10.236   0.236   0.211 -0.695  0.688 -55.101    -92.11  -24.71  135.92  -48.25   21.34 -144.98 -128.71    8.74  119.31  -28.85  118.33 -124.54 -141.61   78.57  -42.29   47.07  167.28   89.68   33.87  -26.19  165.17  161.87   13.09  -33.27

DOCKED: MODEL       30
DOCKED: USER    Run = 30
DOCKED: USER    DPF = D:/Protein_go_brrr/autodock/final/1A3N/IHP/dock.dpf
DOCKED: USER  
DOCKED: USER    Estimated Free Energy of Binding    =   +3.67 kcal/mol  [=(1)+(2)+(3)-(4)]
DOCKED: USER    
DOCKED: USER    (1) Final Intermolecular Energy     =   -3.49 kcal/mol
DOCKED: USER        vdW + Hbond + desolv Energy     =   -2.74 kcal/mol
DOCKED: USER        Electrostatic Energy            =   -0.75 kcal/mol
DOCKED: USER    (2) Final Total Internal Energy     =  -15.85 kcal/mol
DOCKED: USER    (3) Torsional Free Energy           =   +7.16 kcal/mol
DOCKED: USER    (4) Unbound System's Energy  [=(2)] =  -15.85 kcal/mol
DOCKED: USER    
DOCKED: USER    
DOCKED: USER    NEWDPF move IHP_ideal_opt.pdbqt
DOCKED: USER    NEWDPF about 0.035000 0.082000 -0.065000
DOCKED: USER    NEWDPF tran0 -13.877310 10.235542 0.235635
DOCKED: USER    NEWDPF quaternion0 0.097800 -0.321320 0.317995 -0.886605
DOCKED: USER    NEWDPF axisangle0 0.211446 -0.694704 0.687515 -55.100706
DOCKED: USER    NEWDPF quat0 0.211446 -0.694704 0.687515 -55.100706
DOCKED: USER    NEWDPF dihe0 -92.11 -24.71 135.92 -48.25 21.34 -144.98 -128.71 8.74 119.31 -28.85 118.33 -124.54 -141.61 78.57 -42.29 47.07 167.28 89.68 33.87 -26.19 165.17 161.87 13.09 -33.27 
DOCKED: USER  keepresnum = 1 
DOCKED: USER  
DOCKED: REMARK  24 active torsions:
DOCKED: REMARK  status: ('A' for Active; 'I' for Inactive)
DOCKED: REMARK    1  A    between atoms: C_1  and  O_7 
DOCKED: REMARK    2  A    between atoms: C_2  and  O_12 
DOCKED: REMARK    3  A    between atoms: C_3  and  O_17 
DOCKED: REMARK    4  A    between atoms: C_4  and  O_22 
DOCKED: REMARK    5  A    between atoms: C_5  and  O_27 
DOCKED: REMARK    6  A    between atoms: C_6  and  O_32 
DOCKED: REMARK    7  A    between atoms: O_7  and  P_8 
DOCKED: REMARK    8  A    between atoms: P_8  and  O_10 
DOCKED: REMARK    9  A    between atoms: P_8  and  O_11 
DOCKED: REMARK   10  A    between atoms: O_12  and  P_13 
DOCKED: REMARK   11  A    between atoms: P_13  and  O_15 
DOCKED: REMARK   12  A    between atoms: P_13  and  O_16 
DOCKED: REMARK   13  A    between atoms: O_17  and  P_18 
DOCKED: REMARK   14  A    between atoms: P_18  and  O_20 
DOCKED: REMARK   15  A    between atoms: P_18  and  O_21 
DOCKED: REMARK   16  A    between atoms: O_22  and  P_23 
DOCKED: REMARK   17  A    between atoms: P_23  and  O_25 
DOCKED: REMARK   18  A    between atoms: P_23  and  O_26 
DOCKED: REMARK   19  A    between atoms: O_27  and  P_28 
DOCKED: REMARK   20  A    between atoms: P_28  and  O_30 
DOCKED: REMARK   21  A    between atoms: P_28  and  O_31 
DOCKED: REMARK   22  A    between atoms: O_32  and  P_33 
DOCKED: REMARK   23  A    between atoms: P_33  and  O_35 
DOCKED: REMARK   24  A    between atoms: P_33  and  O_36 
DOCKED: USER                              x       y       z     vdW  Elec       q    Type
DOCKED: USER                           _______ _______ _______ _____ _____    ______ ____
DOCKED: ROOT
DOCKED: ATOM      1  C   UNL d   1     -12.981   9.873   1.667 -0.02 -0.05    +0.194 C 
DOCKED: ATOM      2  C   UNL d   1     -13.028   8.761   0.618 -0.03 -0.06    +0.194 C 
DOCKED: ATOM      3  C   UNL d   1     -14.430   8.598   0.027 +0.00 -0.03    +0.194 C 
DOCKED: ATOM      4  C   UNL d   1     -15.020   9.907  -0.492 +0.00 -0.02    +0.194 C 
DOCKED: ATOM      5  C   UNL d   1     -14.892  11.074   0.479 +0.00 -0.03    +0.194 C 
DOCKED: ATOM      6  C   UNL d   1     -13.507  11.200   1.117 -0.01 -0.04    +0.194 C 
DOCKED: ENDROOT
DOCKED: BRANCH   1   7
DOCKED: ATOM      7  O   UNL d   1     -11.617  10.077   2.041 -0.06 +0.09    -0.278 OA
DOCKED: BRANCH   7   8
DOCKED: ATOM      8  P   UNL d   1     -11.018   9.205   3.238 -0.15 -0.26    +0.473 P 
DOCKED: ATOM      9  O   UNL d   1     -11.165   9.807   4.591 -0.26 +0.05    -0.228 OA
DOCKED: BRANCH   8  10
DOCKED: ATOM     10  O   UNL d   1     -11.753   7.796   3.094 -0.13 +0.30    -0.303 OA
DOCKED: ATOM     11  H   UNL d   1     -11.112   7.123   2.797 -0.31 -0.48    +0.222 HD
DOCKED: ENDBRANCH   8  10
DOCKED: BRANCH   8  12
DOCKED: ATOM     12  O   UNL d   1      -9.534   8.854   2.791 -0.32 +0.26    -0.303 OA
DOCKED: ATOM     13  H   UNL d   1      -9.498   8.217   2.042 -0.13 -0.31    +0.222 HD
DOCKED: ENDBRANCH   8  12
DOCKED: ENDBRANCH   7   8
DOCKED: ENDBRANCH   1   7
DOCKED: BRANCH   2  14
DOCKED: ATOM     14  O   UNL d   1     -12.120   9.082  -0.443 -0.04 +0.07    -0.278 OA
DOCKED: BRANCH  14  15
DOCKED: ATOM     15  P   UNL d   1     -10.751   8.253  -0.490 -0.10 -0.17    +0.473 P 
DOCKED: ATOM     16  O   UNL d   1     -10.334   7.718  -1.824 -0.26 +0.03    -0.228 OA
DOCKED: BRANCH  15  17
DOCKED: ATOM     17  O   UNL d   1      -9.676   9.245   0.141 -0.18 +0.11    -0.303 OA
DOCKED: ATOM     18  H   UNL d   1     -10.048   9.727   0.905 +0.11 -0.08    +0.222 HD
DOCKED: ENDBRANCH  15  17
DOCKED: BRANCH  15  19
DOCKED: ATOM     19  O   UNL d   1     -10.904   7.171   0.666 -0.06 +0.36    -0.303 OA
DOCKED: ATOM     20  H   UNL d   1     -10.333   7.375   1.429 -0.45 -0.46    +0.222 HD
DOCKED: ENDBRANCH  15  19
DOCKED: ENDBRANCH  14  15
DOCKED: ENDBRANCH   2  14
DOCKED: BRANCH   6  21
DOCKED: ATOM     21  O   UNL d   1     -13.641  12.088   2.224 -0.01 +0.05    -0.278 OA
DOCKED: BRANCH  21  22
DOCKED: ATOM     22  P   UNL d   1     -14.585  11.691   3.447 +0.01 -0.08    +0.473 P 
DOCKED: ATOM     23  O   UNL d   1     -15.509  10.533   3.278 -0.00 +0.04    -0.228 OA
DOCKED: BRANCH  22  24
DOCKED: ATOM     24  O   UNL d   1     -13.533  11.537   4.632 -0.04 +0.06    -0.303 OA
DOCKED: ATOM     25  H   UNL d   1     -12.758  11.022   4.292 +0.08 -0.04    +0.222 HD
DOCKED: ENDBRANCH  22  24
DOCKED: BRANCH  22  26
DOCKED: ATOM     26  O   UNL d   1     -15.274  13.096   3.797 -0.01 +0.04    -0.303 OA
DOCKED: ATOM     27  H   UNL d   1     -15.502  13.558   2.964 +0.01 -0.03    +0.222 HD
DOCKED: ENDBRANCH  22  26
DOCKED: ENDBRANCH  21  22
DOCKED: ENDBRANCH   6  21
DOCKED: BRANCH   3  28
DOCKED: ATOM     28  O   UNL d   1     -14.319   7.756  -1.113 -0.00 +0.01    -0.278 OA
DOCKED: BRANCH  28  29
DOCKED: ATOM     29  P   UNL d   1     -13.992   8.376  -2.543 -0.01 +0.08    +0.473 P 
DOCKED: ATOM     30  O   UNL d   1     -13.350   9.716  -2.528 -0.03 +0.00    -0.228 OA
DOCKED: BRANCH  29  31
DOCKED: ATOM     31  O   UNL d   1     -13.150   7.175  -3.182 -0.45 -0.24    -0.303 OA
DOCKED: ATOM     32  H   UNL d   1     -12.242   7.189  -2.800 +0.06 +0.11    +0.222 HD
DOCKED: ENDBRANCH  29  31
DOCKED: BRANCH  29  33
DOCKED: ATOM     33  O   UNL d   1     -15.394   8.258  -3.287 -0.01 -0.06    -0.303 OA
DOCKED: ATOM     34  H   UNL d   1     -16.038   8.874  -2.859 +0.01 +0.01    +0.222 HD
DOCKED: ENDBRANCH  29  33
DOCKED: ENDBRANCH  28  29
DOCKED: ENDBRANCH   3  28
DOCKED: BRANCH   5  35
DOCKED: ATOM     35  O   UNL d   1     -15.104  12.250  -0.299 +0.00 +0.04    -0.278 OA
DOCKED: BRANCH  35  36
DOCKED: ATOM     36  P   UNL d   1     -15.880  13.497   0.323 +0.00 -0.06    +0.473 P 
DOCKED: ATOM     37  O   UNL d   1     -16.679  14.308  -0.646 +0.00 +0.03    -0.228 OA
DOCKED: BRANCH  36  38
DOCKED: ATOM     38  O   UNL d   1     -16.746  12.805   1.467 -0.00 +0.03    -0.303 OA
DOCKED: ATOM     39  H   UNL d   1     -16.164  12.225   2.004 +0.00 -0.03    +0.222 HD
DOCKED: ENDBRANCH  36  38
DOCKED: BRANCH  36  40
DOCKED: ATOM     40  O   UNL d   1     -14.728  14.252   1.119 -0.00 +0.05    -0.303 OA
DOCKED: ATOM     41  H   UNL d   1     -14.446  13.749   1.915 +0.01 -0.04    +0.222 HD
DOCKED: ENDBRANCH  36  40
DOCKED: ENDBRANCH  35  36
DOCKED: ENDBRANCH   5  35
DOCKED: BRANCH   4  42
DOCKED: ATOM     42  O   UNL d   1     -16.419   9.680  -0.694 +0.00 +0.02    -0.278 OA
DOCKED: BRANCH  42  43
DOCKED: ATOM     43  P   UNL d   1     -17.146  10.393  -1.922 +0.00 -0.02    +0.473 P 
DOCKED: ATOM     44  O   UNL d   1     -18.077   9.568  -2.742 +0.00 +0.01    -0.228 OA
DOCKED: BRANCH  43  45
DOCKED: ATOM     45  O   UNL d   1     -17.829  11.657  -1.237 +0.00 +0.02    -0.303 OA
DOCKED: ATOM     46  H   UNL d   1     -17.212  12.111  -0.628 +0.00 -0.02    +0.222 HD
DOCKED: ENDBRANCH  43  45
DOCKED: BRANCH  43  47
DOCKED: ATOM     47  O   UNL d   1     -15.934  11.071  -2.722 +0.00 +0.02    -0.303 OA
DOCKED: ATOM     48  H   UNL d   1     -15.264  10.388  -2.931 +0.01 -0.00    +0.222 HD
DOCKED: ENDBRANCH  43  47
DOCKED: ENDBRANCH  42  43
DOCKED: ENDBRANCH   4  42
DOCKED: TORSDOF 24
DOCKED: TER
DOCKED: ENDMDL
________________________________________________________________________________


	BEGINNING GENETIC ALGORITHM DOCKING 31 of 100
Run: 31 Seed: 934093836 314922422 [ Run 31 of 100 GA/GALS ]
Beginning LAMARCKIAN GENETIC ALGORITHM (LGA), with a maximum of 25000000 energy evaluations.

Final-Value: -16.405


	FINAL GENETIC ALGORITHM DOCKED STATE
	_______________________________________________


Detailed state:  trans 42.663 -2.224 37.507 quatxyzw 0.094951 0.729060 0.379584 -0.561580 center 0.035 0.082 -0.065 ntor 24 86.8188 78.8852 111.4778 87.6301 -152.8220 -132.4862 -28.4289 -173.2422 164.4666 -22.2311 172.8608 159.3038 -8.0752 97.0477 2.5774 120.3010 114.5944 -135.1217 47.5268 -6.9640 -53.1961 -16.3414 -45.1075 164.9888
State:	 42.663  -2.224  37.507   0.115  0.881  0.459 -111.670     86.82   78.89  111.48   87.63 -152.82 -132.49  -28.43 -173.24  164.47  -22.23  172.86  159.30   -8.08   97.05    2.58  120.30  114.59 -135.12   47.53   -6.96  -53.20  -16.34  -45.11  164.99

DOCKED: MODEL       31
DOCKED: USER    Run = 31
DOCKED: USER    DPF = D:/Protein_go_brrr/autodock/final/1A3N/IHP/dock.dpf
DOCKED: USER  
DOCKED: USER    Estimated Free Energy of Binding    =   +3.49 kcal/mol  [=(1)+(2)+(3)-(4)]
DOCKED: USER    
DOCKED: USER    (1) Final Intermolecular Energy     =   -3.67 kcal/mol
DOCKED: USER        vdW + Hbond + desolv Energy     =   -3.20 kcal/mol
DOCKED: USER        Electrostatic Energy            =   -0.46 kcal/mol
DOCKED: USER    (2) Final Total Internal Energy     =  -12.74 kcal/mol
DOCKED: USER    (3) Torsional Free Energy           =   +7.16 kcal/mol
DOCKED: USER    (4) Unbound System's Energy  [=(2)] =  -12.74 kcal/mol
DOCKED: USER    
DOCKED: USER    
DOCKED: USER    NEWDPF move IHP_ideal_opt.pdbqt
DOCKED: USER    NEWDPF about 0.035000 0.082000 -0.065000
DOCKED: USER    NEWDPF tran0 42.662779 -2.224483 37.506559
DOCKED: USER    NEWDPF quaternion0 0.094951 0.729060 0.379584 -0.561580
DOCKED: USER    NEWDPF axisangle0 0.114756 0.881122 0.458755 -111.669762
DOCKED: USER    NEWDPF quat0 0.114756 0.881122 0.458755 -111.669762
DOCKED: USER    NEWDPF dihe0 86.82 78.89 111.48 87.63 -152.82 -132.49 -28.43 -173.24 164.47 -22.23 172.86 159.30 -8.08 97.05 2.58 120.30 114.59 -135.12 47.53 -6.96 -53.20 -16.34 -45.11 164.99 
DOCKED: USER  keepresnum = 1 
DOCKED: USER  
DOCKED: REMARK  24 active torsions:
DOCKED: REMARK  status: ('A' for Active; 'I' for Inactive)
DOCKED: REMARK    1  A    between atoms: C_1  and  O_7 
DOCKED: REMARK    2  A    between atoms: C_2  and  O_12 
DOCKED: REMARK    3  A    between atoms: C_3  and  O_17 
DOCKED: REMARK    4  A    between atoms: C_4  and  O_22 
DOCKED: REMARK    5  A    between atoms: C_5  and  O_27 
DOCKED: REMARK    6  A    between atoms: C_6  and  O_32 
DOCKED: REMARK    7  A    between atoms: O_7  and  P_8 
DOCKED: REMARK    8  A    between atoms: P_8  and  O_10 
DOCKED: REMARK    9  A    between atoms: P_8  and  O_11 
DOCKED: REMARK   10  A    between atoms: O_12  and  P_13 
DOCKED: REMARK   11  A    between atoms: P_13  and  O_15 
DOCKED: REMARK   12  A    between atoms: P_13  and  O_16 
DOCKED: REMARK   13  A    between atoms: O_17  and  P_18 
DOCKED: REMARK   14  A    between atoms: P_18  and  O_20 
DOCKED: REMARK   15  A    between atoms: P_18  and  O_21 
DOCKED: REMARK   16  A    between atoms: O_22  and  P_23 
DOCKED: REMARK   17  A    between atoms: P_23  and  O_25 
DOCKED: REMARK   18  A    between atoms: P_23  and  O_26 
DOCKED: REMARK   19  A    between atoms: O_27  and  P_28 
DOCKED: REMARK   20  A    between atoms: P_28  and  O_30 
DOCKED: REMARK   21  A    between atoms: P_28  and  O_31 
DOCKED: REMARK   22  A    between atoms: O_32  and  P_33 
DOCKED: REMARK   23  A    between atoms: P_33  and  O_35 
DOCKED: REMARK   24  A    between atoms: P_33  and  O_36 
DOCKED: USER                              x       y       z     vdW  Elec       q    Type
DOCKED: USER                           _______ _______ _______ _____ _____    ______ ____
DOCKED: ROOT
DOCKED: ATOM      1  C   UNL d   1      43.183  -1.779  35.921 -0.03 +0.08    +0.194 C 
DOCKED: ATOM      2  C   UNL d   1      43.524  -3.207  36.352 -0.00 +0.06    +0.194 C 
DOCKED: ATOM      3  C   UNL d   1      44.035  -3.257  37.793 +0.00 +0.04    +0.194 C 
DOCKED: ATOM      4  C   UNL d   1      43.106  -2.561  38.785 -0.01 +0.04    +0.194 C 
DOCKED: ATOM      5  C   UNL d   1      42.648  -1.177  38.340 -0.03 +0.04    +0.194 C 
DOCKED: ATOM      6  C   UNL d   1      42.195  -1.115  36.880 -0.07 +0.07    +0.194 C 
DOCKED: ENDROOT
DOCKED: BRANCH   1   7
DOCKED: ATOM      7  O   UNL d   1      42.556  -1.839  34.637 -0.08 -0.21    -0.278 OA
DOCKED: BRANCH   7   8
DOCKED: ATOM      8  P   UNL d   1      43.470  -2.123  33.358 -0.03 +0.41    +0.473 P 
DOCKED: ATOM      9  O   UNL d   1      44.487  -3.196  33.535 -0.01 -0.09    -0.228 OA
DOCKED: BRANCH   8  10
DOCKED: ATOM     10  O   UNL d   1      42.423  -2.435  32.196 -0.36 -0.49    -0.303 OA
DOCKED: ATOM     11  H   UNL d   1      42.008  -3.303  32.355 +0.05 +0.22    +0.222 HD
DOCKED: ENDBRANCH   8  10
DOCKED: BRANCH   8  12
DOCKED: ATOM     12  O   UNL d   1      44.031  -0.700  32.927 -0.06 -0.33    -0.303 OA
DOCKED: ATOM     13  H   UNL d   1      44.190  -0.101  33.691 +0.02 +0.17    +0.222 HD
DOCKED: ENDBRANCH   8  12
DOCKED: ENDBRANCH   7   8
DOCKED: ENDBRANCH   1   7
DOCKED: BRANCH   2  14
DOCKED: ATOM     14  O   UNL d   1      42.346  -4.018  36.257 -0.02 -0.14    -0.278 OA
DOCKED: BRANCH  14  15
DOCKED: ATOM     15  P   UNL d   1      42.456  -5.337  35.356 -0.02 +0.32    +0.473 P 
DOCKED: ATOM     16  O   UNL d   1      41.553  -6.475  35.718 -0.47 -0.33    -0.228 OA
DOCKED: BRANCH  15  17
DOCKED: ATOM     17  O   UNL d   1      42.225  -4.813  33.870 -0.08 -0.21    -0.303 OA
DOCKED: ATOM     18  H   UNL d   1      42.322  -3.843  33.820 +0.05 +0.15    +0.222 HD
DOCKED: ENDBRANCH  15  17
DOCKED: BRANCH  15  19
DOCKED: ATOM     19  O   UNL d   1      44.010  -5.676  35.337 +0.00 -0.10    -0.303 OA
DOCKED: ATOM     20  H   UNL d   1      44.459  -5.355  36.141 +0.01 +0.05    +0.222 HD
DOCKED: ENDBRANCH  15  19
DOCKED: ENDBRANCH  14  15
DOCKED: ENDBRANCH   2  14
DOCKED: BRANCH   6  21
DOCKED: ATOM     21  O   UNL d   1      42.133   0.265  36.527 -0.09 -0.10    -0.278 OA
DOCKED: BRANCH  21  22
DOCKED: ATOM     22  P   UNL d   1      41.179   0.736  35.338 -0.22 +0.29    +0.473 P 
DOCKED: ATOM     23  O   UNL d   1      39.903  -0.007  35.122 -0.33 -0.16    -0.228 OA
DOCKED: BRANCH  22  24
DOCKED: ATOM     24  O   UNL d   1      41.002   2.286  35.657 -0.21 -0.05    -0.303 OA
DOCKED: ATOM     25  H   UNL d   1      41.011   2.780  34.798 -0.48 -0.01    +0.222 HD
DOCKED: ENDBRANCH  22  24
DOCKED: BRANCH  22  26
DOCKED: ATOM     26  O   UNL d   1      42.194   0.767  34.098 -0.66 -0.44    -0.303 OA
DOCKED: ATOM     27  H   UNL d   1      42.644  -0.100  34.029 +0.04 +0.33    +0.222 HD
DOCKED: ENDBRANCH  22  26
DOCKED: ENDBRANCH  21  22
DOCKED: ENDBRANCH   6  21
DOCKED: BRANCH   3  28
DOCKED: ATOM     28  O   UNL d   1      44.059  -4.621  38.192 +0.00 -0.05    -0.278 OA
DOCKED: BRANCH  28  29
DOCKED: ATOM     29  P   UNL d   1      45.394  -5.478  38.051 +0.01 +0.06    +0.473 P 
DOCKED: ATOM     30  O   UNL d   1      46.249  -5.536  39.264 +0.00 -0.02    -0.228 OA
DOCKED: BRANCH  29  31
DOCKED: ATOM     31  O   UNL d   1      44.784  -6.861  37.525 +0.00 -0.05    -0.303 OA
DOCKED: ATOM     32  H   UNL d   1      43.913  -6.679  37.101 +0.01 +0.06    +0.222 HD
DOCKED: ENDBRANCH  29  31
DOCKED: BRANCH  29  33
DOCKED: ATOM     33  O   UNL d   1      46.049  -4.860  36.738 +0.00 -0.04    -0.303 OA
DOCKED: ATOM     34  H   UNL d   1      46.059  -5.549  36.029 +0.00 +0.03    +0.222 HD
DOCKED: ENDBRANCH  29  33
DOCKED: ENDBRANCH  28  29
DOCKED: ENDBRANCH   3  28
DOCKED: BRANCH   5  35
DOCKED: ATOM     35  O   UNL d   1      41.512  -0.868  39.146 -0.06 -0.06    -0.278 OA
DOCKED: BRANCH  35  36
DOCKED: ATOM     36  P   UNL d   1      41.703  -0.216  40.589 -0.03 +0.07    +0.473 P 
DOCKED: ATOM     37  O   UNL d   1      40.511   0.505  41.133 -0.06 -0.04    -0.228 OA
DOCKED: BRANCH  36  38
DOCKED: ATOM     38  O   UNL d   1      42.161  -1.471  41.456 -0.01 -0.04    -0.303 OA
DOCKED: ATOM     39  H   UNL d   1      43.142  -1.498  41.488 +0.00 +0.02    +0.222 HD
DOCKED: ENDBRANCH  36  38
DOCKED: BRANCH  36  40
DOCKED: ATOM     40  O   UNL d   1      43.037   0.631  40.405 -0.01 -0.04    -0.303 OA
DOCKED: ATOM     41  H   UNL d   1      43.810   0.055  40.215 +0.01 +0.02    +0.222 HD
DOCKED: ENDBRANCH  36  40
DOCKED: ENDBRANCH  35  36
DOCKED: ENDBRANCH   5  35
DOCKED: BRANCH   4  42
DOCKED: ATOM     42  O   UNL d   1      43.847  -2.389  39.997 -0.00 -0.04    -0.278 OA
DOCKED: BRANCH  42  43
DOCKED: ATOM     43  P   UNL d   1      45.262  -1.655  39.939 -0.00 +0.04    +0.473 P 
DOCKED: ATOM     44  O   UNL d   1      46.465  -2.501  39.700 +0.00 -0.02    -0.228 OA
DOCKED: BRANCH  43  45
DOCKED: ATOM     45  O   UNL d   1      45.028  -0.532  38.836 -0.00 -0.03    -0.303 OA
DOCKED: ATOM     46  H   UNL d   1      44.852   0.339  39.245 +0.00 +0.02    +0.222 HD
DOCKED: ENDBRANCH  43  45
DOCKED: BRANCH  43  47
DOCKED: ATOM     47  O   UNL d   1      45.282  -0.789  41.287 -0.00 -0.02    -0.303 OA
DOCKED: ATOM     48  H   UNL d   1      44.362  -0.649  41.594 +0.00 +0.02    +0.222 HD
DOCKED: ENDBRANCH  43  47
DOCKED: ENDBRANCH  42  43
DOCKED: ENDBRANCH   4  42
DOCKED: TORSDOF 24
DOCKED: TER
DOCKED: ENDMDL
________________________________________________________________________________


	BEGINNING GENETIC ALGORITHM DOCKING 32 of 100
Run: 32 Seed: 1775472789 1938441820 [ Run 32 of 100 GA/GALS ]
Beginning LAMARCKIAN GENETIC ALGORITHM (LGA), with a maximum of 25000000 energy evaluations.

Final-Value: -17.999


	FINAL GENETIC ALGORITHM DOCKED STATE
	_______________________________________________


Detailed state:  trans 23.550 6.591 -11.516 quatxyzw -0.493219 -0.186927 0.842633 -0.108456 center 0.035 0.082 -0.065 ntor 24 142.1359 99.7119 -85.9275 138.6068 -96.8185 -156.3385 -134.2359 -122.2603 86.6918 17.1544 59.9543 -87.2167 125.6769 -16.4776 20.7606 -111.0659 166.8620 116.0206 44.2328 -22.2908 162.8203 -45.7417 -18.6596 163.2380
State:	 23.550   6.591 -11.516  -0.496 -0.188  0.848 -167.547    142.14   99.71  -85.93  138.61  -96.82 -156.34 -134.24 -122.26   86.69   17.15   59.95  -87.22  125.68  -16.48   20.76 -111.07  166.86  116.02   44.23  -22.29  162.82  -45.74  -18.66  163.24

DOCKED: MODEL       32
DOCKED: USER    Run = 32
DOCKED: USER    DPF = D:/Protein_go_brrr/autodock/final/1A3N/IHP/dock.dpf
DOCKED: USER  
DOCKED: USER    Estimated Free Energy of Binding    =   +2.47 kcal/mol  [=(1)+(2)+(3)-(4)]
DOCKED: USER    
DOCKED: USER    (1) Final Intermolecular Energy     =   -4.68 kcal/mol
DOCKED: USER        vdW + Hbond + desolv Energy     =   -4.46 kcal/mol
DOCKED: USER        Electrostatic Energy            =   -0.22 kcal/mol
DOCKED: USER    (2) Final Total Internal Energy     =  -13.31 kcal/mol
DOCKED: USER    (3) Torsional Free Energy           =   +7.16 kcal/mol
DOCKED: USER    (4) Unbound System's Energy  [=(2)] =  -13.31 kcal/mol
DOCKED: USER    
DOCKED: USER    
DOCKED: USER    NEWDPF move IHP_ideal_opt.pdbqt
DOCKED: USER    NEWDPF about 0.035000 0.082000 -0.065000
DOCKED: USER    NEWDPF tran0 23.550352 6.590992 -11.515795
DOCKED: USER    NEWDPF quaternion0 -0.493219 -0.186927 0.842633 -0.108456
DOCKED: USER    NEWDPF axisangle0 -0.496146 -0.188037 0.847633 -167.547328
DOCKED: USER    NEWDPF quat0 -0.496146 -0.188037 0.847633 -167.547328
DOCKED: USER    NEWDPF dihe0 142.14 99.71 -85.93 138.61 -96.82 -156.34 -134.24 -122.26 86.69 17.15 59.95 -87.22 125.68 -16.48 20.76 -111.07 166.86 116.02 44.23 -22.29 162.82 -45.74 -18.66 163.24 
DOCKED: USER  keepresnum = 1 
DOCKED: USER  
DOCKED: REMARK  24 active torsions:
DOCKED: REMARK  status: ('A' for Active; 'I' for Inactive)
DOCKED: REMARK    1  A    between atoms: C_1  and  O_7 
DOCKED: REMARK    2  A    between atoms: C_2  and  O_12 
DOCKED: REMARK    3  A    between atoms: C_3  and  O_17 
DOCKED: REMARK    4  A    between atoms: C_4  and  O_22 
DOCKED: REMARK    5  A    between atoms: C_5  and  O_27 
DOCKED: REMARK    6  A    between atoms: C_6  and  O_32 
DOCKED: REMARK    7  A    between atoms: O_7  and  P_8 
DOCKED: REMARK    8  A    between atoms: P_8  and  O_10 
DOCKED: REMARK    9  A    between atoms: P_8  and  O_11 
DOCKED: REMARK   10  A    between atoms: O_12  and  P_13 
DOCKED: REMARK   11  A    between atoms: P_13  and  O_15 
DOCKED: REMARK   12  A    between atoms: P_13  and  O_16 
DOCKED: REMARK   13  A    between atoms: O_17  and  P_18 
DOCKED: REMARK   14  A    between atoms: P_18  and  O_20 
DOCKED: REMARK   15  A    between atoms: P_18  and  O_21 
DOCKED: REMARK   16  A    between atoms: O_22  and  P_23 
DOCKED: REMARK   17  A    between atoms: P_23  and  O_25 
DOCKED: REMARK   18  A    between atoms: P_23  and  O_26 
DOCKED: REMARK   19  A    between atoms: O_27  and  P_28 
DOCKED: REMARK   20  A    between atoms: P_28  and  O_30 
DOCKED: REMARK   21  A    between atoms: P_28  and  O_31 
DOCKED: REMARK   22  A    between atoms: O_32  and  P_33 
DOCKED: REMARK   23  A    between atoms: P_33  and  O_35 
DOCKED: REMARK   24  A    between atoms: P_33  and  O_36 
DOCKED: USER                              x       y       z     vdW  Elec       q    Type
DOCKED: USER                           _______ _______ _______ _____ _____    ______ ____
DOCKED: ROOT
DOCKED: ATOM      1  C   UNL d   1      22.245   7.692 -11.781 -0.05 +0.10    +0.194 C 
DOCKED: ATOM      2  C   UNL d   1      23.177   8.039 -10.619 -0.11 +0.15    +0.194 C 
DOCKED: ATOM      3  C   UNL d   1      23.532   6.804  -9.788 -0.15 +0.16    +0.194 C 
DOCKED: ATOM      4  C   UNL d   1      24.065   5.646 -10.629 -0.15 +0.18    +0.194 C 
DOCKED: ATOM      5  C   UNL d   1      23.228   5.340 -11.864 -0.08 +0.11    +0.194 C 
DOCKED: ATOM      6  C   UNL d   1      22.821   6.581 -12.661 -0.03 +0.10    +0.194 C 
DOCKED: ENDROOT
DOCKED: BRANCH   1   7
DOCKED: ATOM      7  O   UNL d   1      22.103   8.854 -12.601 -0.02 -0.12    -0.278 OA
DOCKED: BRANCH   7   8
DOCKED: ATOM      8  P   UNL d   1      21.116  10.011 -12.112 -0.05 +0.18    +0.473 P 
DOCKED: ATOM      9  O   UNL d   1      21.071  11.214 -12.988 -0.03 -0.08    -0.228 OA
DOCKED: BRANCH   8  10
DOCKED: ATOM     10  O   UNL d   1      19.704   9.282 -11.971 -0.07 -0.12    -0.303 OA
DOCKED: ATOM     11  H   UNL d   1      19.730   8.427 -12.439 +0.04 +0.08    +0.222 HD
DOCKED: ENDBRANCH   8  10
DOCKED: BRANCH   8  12
DOCKED: ATOM     12  O   UNL d   1      21.508  10.273 -10.594 -0.10 -0.12    -0.303 OA
DOCKED: ATOM     13  H   UNL d   1      22.463  10.474 -10.471 +0.05 +0.10    +0.222 HD
DOCKED: ENDBRANCH   8  12
DOCKED: ENDBRANCH   7   8
DOCKED: ENDBRANCH   1   7
DOCKED: BRANCH   2  14
DOCKED: ATOM     14  O   UNL d   1      24.388   8.600 -11.142 -0.03 -0.43    -0.278 OA
DOCKED: BRANCH  14  15
DOCKED: ATOM     15  P   UNL d   1      24.615  10.166 -10.897 -0.07 +0.45    +0.473 P 
DOCKED: ATOM     16  O   UNL d   1      24.196  10.706  -9.565 -0.12 -0.13    -0.228 OA
DOCKED: BRANCH  15  17
DOCKED: ATOM     17  O   UNL d   1      26.166  10.383 -11.190 -0.49 -0.43    -0.303 OA
DOCKED: ATOM     18  H   UNL d   1      26.413  11.323 -11.095 +0.02 +0.17    +0.222 HD
DOCKED: ENDBRANCH  15  17
DOCKED: BRANCH  15  19
DOCKED: ATOM     19  O   UNL d   1      23.949  10.866 -12.160 -0.03 -0.16    -0.303 OA
DOCKED: ATOM     20  H   UNL d   1      22.979  10.913 -12.077 +0.03 +0.09    +0.222 HD
DOCKED: ENDBRANCH  15  19
DOCKED: ENDBRANCH  14  15
DOCKED: ENDBRANCH   2  14
DOCKED: BRANCH   6  21
DOCKED: ATOM     21  O   UNL d   1      21.786   6.177 -13.554 -0.00 -0.09    -0.278 OA
DOCKED: BRANCH  21  22
DOCKED: ATOM     22  P   UNL d   1      20.425   5.581 -12.972 -0.01 +0.12    +0.473 P 
DOCKED: ATOM     23  O   UNL d   1      19.716   6.351 -11.910 -0.05 -0.06    -0.228 OA
DOCKED: BRANCH  22  24
DOCKED: ATOM     24  O   UNL d   1      19.581   5.342 -14.300 -0.01 -0.06    -0.303 OA
DOCKED: ATOM     25  H   UNL d   1      18.629   5.236 -14.044 +0.02 +0.04    +0.222 HD
DOCKED: ENDBRANCH  22  24
DOCKED: BRANCH  22  26
DOCKED: ATOM     26  O   UNL d   1      20.863   4.088 -12.585 -0.09 -0.08    -0.303 OA
DOCKED: ATOM     27  H   UNL d   1      21.813   4.082 -12.349 +0.05 +0.07    +0.222 HD
DOCKED: ENDBRANCH  22  26
DOCKED: ENDBRANCH  21  22
DOCKED: ENDBRANCH   6  21
DOCKED: BRANCH   3  28
DOCKED: ATOM     28  O   UNL d   1      24.600   7.163  -8.921 -0.68 -0.35    -0.278 OA
DOCKED: BRANCH  28  29
DOCKED: ATOM     29  P   UNL d   1      24.379   8.254  -7.782 -0.18 +0.30    +0.473 P 
DOCKED: ATOM     30  O   UNL d   1      25.474   9.245  -7.623 -0.24 -0.15    -0.228 OA
DOCKED: BRANCH  29  31
DOCKED: ATOM     31  O   UNL d   1      22.945   8.819  -8.211 -0.13 -0.14    -0.303 OA
DOCKED: ATOM     32  H   UNL d   1      23.072   9.492  -8.920 +0.07 +0.11    +0.222 HD
DOCKED: ENDBRANCH  29  31
DOCKED: BRANCH  29  33
DOCKED: ATOM     33  O   UNL d   1      24.036   7.351  -6.516 -0.11 -0.11    -0.303 OA
DOCKED: ATOM     34  H   UNL d   1      23.197   6.859  -6.690 +0.11 +0.07    +0.222 HD
DOCKED: ENDBRANCH  29  33
DOCKED: ENDBRANCH  28  29
DOCKED: ENDBRANCH   3  28
DOCKED: BRANCH   5  35
DOCKED: ATOM     35  O   UNL d   1      24.062   4.552 -12.711 -0.06 -0.15    -0.278 OA
DOCKED: BRANCH  35  36
DOCKED: ATOM     36  P   UNL d   1      23.718   3.017 -12.977 -0.08 +0.15    +0.473 P 
DOCKED: ATOM     37  O   UNL d   1      24.895   2.124 -13.214 -0.25 -0.08    -0.228 OA
DOCKED: BRANCH  36  38
DOCKED: ATOM     38  O   UNL d   1      22.864   2.646 -11.685 -0.21 -0.10    -0.303 OA
DOCKED: ATOM     39  H   UNL d   1      22.566   3.473 -11.249 +0.08 +0.09    +0.222 HD
DOCKED: ENDBRANCH  36  38
DOCKED: BRANCH  36  40
DOCKED: ATOM     40  O   UNL d   1      22.635   3.107 -14.139 -0.06 -0.07    -0.303 OA
DOCKED: ATOM     41  H   UNL d   1      22.171   3.974 -14.137 +0.04 +0.05    +0.222 HD
DOCKED: ENDBRANCH  36  40
DOCKED: ENDBRANCH  35  36
DOCKED: ENDBRANCH   5  35
DOCKED: BRANCH   4  42
DOCKED: ATOM     42  O   UNL d   1      24.033   4.481  -9.798 -0.21 -0.15    -0.278 OA
DOCKED: BRANCH  42  43
DOCKED: ATOM     43  P   UNL d   1      22.674   4.102  -9.054 -0.21 +0.16    +0.473 P 
DOCKED: ATOM     44  O   UNL d   1      22.533   2.707  -8.550 -0.57 -0.06    -0.228 OA
DOCKED: BRANCH  43  45
DOCKED: ATOM     45  O   UNL d   1      22.574   5.216  -7.922 -0.18 -0.09    -0.303 OA
DOCKED: ATOM     46  H   UNL d   1      23.417   5.700  -7.821 +0.11 +0.08    +0.222 HD
DOCKED: ENDBRANCH  43  45
DOCKED: BRANCH  43  47
DOCKED: ATOM     47  O   UNL d   1      21.545   4.582 -10.085 -0.25 -0.11    -0.303 OA
DOCKED: ATOM     48  H   UNL d   1      21.310   3.837 -10.677 +0.08 +0.09    +0.222 HD
DOCKED: ENDBRANCH  43  47
DOCKED: ENDBRANCH  42  43
DOCKED: ENDBRANCH   4  42
DOCKED: TORSDOF 24
DOCKED: TER
DOCKED: ENDMDL
________________________________________________________________________________


	BEGINNING GENETIC ALGORITHM DOCKING 33 of 100
Run: 33 Seed: 483619480 1898590566 [ Run 33 of 100 GA/GALS ]
Beginning LAMARCKIAN GENETIC ALGORITHM (LGA), with a maximum of 25000000 energy evaluations.

Final-Value: -17.731


	FINAL GENETIC ALGORITHM DOCKED STATE
	_______________________________________________


Detailed state:  trans 42.770 -6.318 33.580 quatxyzw -0.813898 -0.232495 -0.509845 -0.153537 center 0.035 0.082 -0.065 ntor 24 98.7993 122.2966 5.9313 -26.0105 47.5864 -125.2872 8.8351 -140.0266 142.0332 -16.0914 134.3750 76.7925 -25.2158 -153.8446 -48.6712 151.6315 169.5776 80.4324 37.1746 -45.5420 161.4604 -46.7954 7.6094 -39.5637
State:	 42.770  -6.318  33.580  -0.824 -0.235 -0.516 -162.336     98.80  122.30    5.93  -26.01   47.59 -125.29    8.84 -140.03  142.03  -16.09  134.37   76.79  -25.22 -153.84  -48.67  151.63  169.58   80.43   37.17  -45.54  161.46  -46.80    7.61  -39.56

DOCKED: MODEL       33
DOCKED: USER    Run = 33
DOCKED: USER    DPF = D:/Protein_go_brrr/autodock/final/1A3N/IHP/dock.dpf
DOCKED: USER  
DOCKED: USER    Estimated Free Energy of Binding    =   +4.21 kcal/mol  [=(1)+(2)+(3)-(4)]
DOCKED: USER    
DOCKED: USER    (1) Final Intermolecular Energy     =   -2.95 kcal/mol
DOCKED: USER        vdW + Hbond + desolv Energy     =   -3.02 kcal/mol
DOCKED: USER        Electrostatic Energy            =   +0.08 kcal/mol
DOCKED: USER    (2) Final Total Internal Energy     =  -14.79 kcal/mol
DOCKED: USER    (3) Torsional Free Energy           =   +7.16 kcal/mol
DOCKED: USER    (4) Unbound System's Energy  [=(2)] =  -14.79 kcal/mol
DOCKED: USER    
DOCKED: USER    
DOCKED: USER    NEWDPF move IHP_ideal_opt.pdbqt
DOCKED: USER    NEWDPF about 0.035000 0.082000 -0.065000
DOCKED: USER    NEWDPF tran0 42.770428 -6.317863 33.579738
DOCKED: USER    NEWDPF quaternion0 -0.813898 -0.232495 -0.509845 -0.153537
DOCKED: USER    NEWDPF axisangle0 -0.823665 -0.235285 -0.515963 -162.336120
DOCKED: USER    NEWDPF quat0 -0.823665 -0.235285 -0.515963 -162.336120
DOCKED: USER    NEWDPF dihe0 98.80 122.30 5.93 -26.01 47.59 -125.29 8.84 -140.03 142.03 -16.09 134.37 76.79 -25.22 -153.84 -48.67 151.63 169.58 80.43 37.17 -45.54 161.46 -46.80 7.61 -39.56 
DOCKED: USER  keepresnum = 1 
DOCKED: USER  
DOCKED: REMARK  24 active torsions:
DOCKED: REMARK  status: ('A' for Active; 'I' for Inactive)
DOCKED: REMARK    1  A    between atoms: C_1  and  O_7 
DOCKED: REMARK    2  A    between atoms: C_2  and  O_12 
DOCKED: REMARK    3  A    between atoms: C_3  and  O_17 
DOCKED: REMARK    4  A    between atoms: C_4  and  O_22 
DOCKED: REMARK    5  A    between atoms: C_5  and  O_27 
DOCKED: REMARK    6  A    between atoms: C_6  and  O_32 
DOCKED: REMARK    7  A    between atoms: O_7  and  P_8 
DOCKED: REMARK    8  A    between atoms: P_8  and  O_10 
DOCKED: REMARK    9  A    between atoms: P_8  and  O_11 
DOCKED: REMARK   10  A    between atoms: O_12  and  P_13 
DOCKED: REMARK   11  A    between atoms: P_13  and  O_15 
DOCKED: REMARK   12  A    between atoms: P_13  and  O_16 
DOCKED: REMARK   13  A    between atoms: O_17  and  P_18 
DOCKED: REMARK   14  A    between atoms: P_18  and  O_20 
DOCKED: REMARK   15  A    between atoms: P_18  and  O_21 
DOCKED: REMARK   16  A    between atoms: O_22  and  P_23 
DOCKED: REMARK   17  A    between atoms: P_23  and  O_25 
DOCKED: REMARK   18  A    between atoms: P_23  and  O_26 
DOCKED: REMARK   19  A    between atoms: O_27  and  P_28 
DOCKED: REMARK   20  A    between atoms: P_28  and  O_30 
DOCKED: REMARK   21  A    between atoms: P_28  and  O_31 
DOCKED: REMARK   22  A    between atoms: O_32  and  P_33 
DOCKED: REMARK   23  A    between atoms: P_33  and  O_35 
DOCKED: REMARK   24  A    between atoms: P_33  and  O_36 
DOCKED: USER                              x       y       z     vdW  Elec       q    Type
DOCKED: USER                           _______ _______ _______ _____ _____    ______ ____
DOCKED: ROOT
DOCKED: ATOM      1  C   UNL d   1      43.361  -4.904  34.378 -0.02 +0.09    +0.194 C 
DOCKED: ATOM      2  C   UNL d   1      42.187  -4.682  33.423 -0.08 +0.13    +0.194 C 
DOCKED: ATOM      3  C   UNL d   1      42.361  -5.463  32.119 -0.08 +0.08    +0.194 C 
DOCKED: ATOM      4  C   UNL d   1      42.652  -6.946  32.341 -0.08 +0.05    +0.194 C 
DOCKED: ATOM      5  C   UNL d   1      43.740  -7.217  33.372 -0.01 +0.04    +0.194 C 
DOCKED: ATOM      6  C   UNL d   1      43.600  -6.390  34.652 -0.02 +0.07    +0.194 C 
DOCKED: ENDROOT
DOCKED: BRANCH   1   7
DOCKED: ATOM      7  O   UNL d   1      43.044  -4.287  35.627 -0.01 -0.12    -0.278 OA
DOCKED: BRANCH   7   8
DOCKED: ATOM      8  P   UNL d   1      43.360  -2.731  35.807 +0.01 +0.18    +0.473 P 
DOCKED: ATOM      9  O   UNL d   1      43.373  -1.940  34.547 -0.05 -0.14    -0.228 OA
DOCKED: BRANCH   8  10
DOCKED: ATOM     10  O   UNL d   1      42.263  -2.231  36.852 -0.02 -0.11    -0.303 OA
DOCKED: ATOM     11  H   UNL d   1      41.371  -2.398  36.494 +0.06 +0.10    +0.222 HD
DOCKED: ENDBRANCH   8  10
DOCKED: BRANCH   8  12
DOCKED: ATOM     12  O   UNL d   1      44.692  -2.678  36.673 +0.00 -0.07    -0.303 OA
DOCKED: ATOM     13  H   UNL d   1      45.500  -2.880  36.149 +0.00 +0.04    +0.222 HD
DOCKED: ENDBRANCH   8  12
DOCKED: ENDBRANCH   7   8
DOCKED: ENDBRANCH   1   7
DOCKED: BRANCH   2  14
DOCKED: ATOM     14  O   UNL d   1      40.979  -5.118  34.059 -0.41 -0.37    -0.278 OA
DOCKED: BRANCH  14  15
DOCKED: ATOM     15  P   UNL d   1      40.238  -4.051  34.996 -0.10 +0.48    +0.473 P 
DOCKED: ATOM     16  O   UNL d   1      40.489  -4.160  36.467 -0.11 -0.18    -0.228 OA
DOCKED: BRANCH  15  17
DOCKED: ATOM     17  O   UNL d   1      40.674  -2.641  34.397 -0.14 -0.26    -0.303 OA
DOCKED: ATOM     18  H   UNL d   1      41.493  -2.318  34.820 +0.06 +0.17    +0.222 HD
DOCKED: ENDBRANCH  15  17
DOCKED: BRANCH  15  19
DOCKED: ATOM     19  O   UNL d   1      38.712  -4.128  34.553 -0.23 -0.33    -0.303 OA
DOCKED: ATOM     20  H   UNL d   1      38.528  -3.549  33.791 +0.14 +0.19    +0.222 HD
DOCKED: ENDBRANCH  15  19
DOCKED: ENDBRANCH  14  15
DOCKED: ENDBRANCH   2  14
DOCKED: BRANCH   6  21
DOCKED: ATOM     21  O   UNL d   1      44.841  -6.493  35.347 +0.00 -0.05    -0.278 OA
DOCKED: BRANCH  21  22
DOCKED: ATOM     22  P   UNL d   1      46.187  -6.009  34.640 +0.01 +0.05    +0.473 P 
DOCKED: ATOM     23  O   UNL d   1      46.189  -5.858  33.156 +0.00 -0.02    -0.228 OA
DOCKED: BRANCH  22  24
DOCKED: ATOM     24  O   UNL d   1      46.517  -4.678  35.447 +0.00 -0.04    -0.303 OA
DOCKED: ATOM     25  H   UNL d   1      45.690  -4.382  35.906 +0.00 +0.04    +0.222 HD
DOCKED: ENDBRANCH  22  24
DOCKED: BRANCH  22  26
DOCKED: ATOM     26  O   UNL d   1      47.259  -7.037  35.244 +0.00 -0.02    -0.303 OA
DOCKED: ATOM     27  H   UNL d   1      47.007  -7.949  34.993 +0.00 +0.01    +0.222 HD
DOCKED: ENDBRANCH  22  26
DOCKED: ENDBRANCH  21  22
DOCKED: ENDBRANCH   6  21
DOCKED: BRANCH   3  28
DOCKED: ATOM     28  O   UNL d   1      41.120  -5.422  31.426 -0.15 -0.13    -0.278 OA
DOCKED: BRANCH  28  29
DOCKED: ATOM     29  P   UNL d   1      40.533  -4.034  30.910 -0.16 +0.29    +0.473 P 
DOCKED: ATOM     30  O   UNL d   1      40.199  -3.978  29.464 -0.31 -0.06    -0.228 OA
DOCKED: BRANCH  29  31
DOCKED: ATOM     31  O   UNL d   1      39.326  -3.841  31.943 -0.19 -0.24    -0.303 OA
DOCKED: ATOM     32  H   UNL d   1      39.696  -3.802  32.855 +0.10 +0.21    +0.222 HD
DOCKED: ENDBRANCH  29  31
DOCKED: BRANCH  29  33
DOCKED: ATOM     33  O   UNL d   1      41.618  -2.995  31.439 -0.62 -0.39    -0.303 OA
DOCKED: ATOM     34  H   UNL d   1      41.441  -2.804  32.393 +0.06 +0.31    +0.222 HD
DOCKED: ENDBRANCH  29  33
DOCKED: ENDBRANCH  28  29
DOCKED: ENDBRANCH   3  28
DOCKED: BRANCH   5  35
DOCKED: ATOM     35  O   UNL d   1      43.591  -8.587  33.740 -0.01 -0.04    -0.278 OA
DOCKED: BRANCH  35  36
DOCKED: ATOM     36  P   UNL d   1      44.876  -9.515  33.923 +0.02 +0.02    +0.473 P 
DOCKED: ATOM     37  O   UNL d   1      44.699 -10.947  33.528 +0.00 +0.01    -0.228 OA
DOCKED: BRANCH  36  38
DOCKED: ATOM     38  O   UNL d   1      45.968  -8.731  33.070 +0.00 -0.01    -0.303 OA
DOCKED: ATOM     39  H   UNL d   1      46.223  -7.913  33.549 +0.00 +0.01    +0.222 HD
DOCKED: ENDBRANCH  36  38
DOCKED: BRANCH  36  40
DOCKED: ATOM     40  O   UNL d   1      45.289  -9.228  35.432 +0.00 -0.02    -0.303 OA
DOCKED: ATOM     41  H   UNL d   1      45.462  -8.273  35.587 +0.00 +0.02    +0.222 HD
DOCKED: ENDBRANCH  36  40
DOCKED: ENDBRANCH  35  36
DOCKED: ENDBRANCH   5  35
DOCKED: BRANCH   4  42
DOCKED: ATOM     42  O   UNL d   1      43.117  -7.468  31.092 -0.06 -0.01    -0.278 OA
DOCKED: BRANCH  42  43
DOCKED: ATOM     43  P   UNL d   1      42.847  -9.002  30.749 -0.11 -0.09    +0.473 P 
DOCKED: ATOM     44  O   UNL d   1      42.165  -9.309  29.460 -0.45 +0.08    -0.228 OA
DOCKED: BRANCH  43  45
DOCKED: ATOM     45  O   UNL d   1      44.293  -9.651  30.890 -0.05 +0.03    -0.303 OA
DOCKED: ATOM     46  H   UNL d   1      44.642  -9.554  31.799 +0.03 -0.01    +0.222 HD
DOCKED: ENDBRANCH  43  45
DOCKED: BRANCH  43  47
DOCKED: ATOM     47  O   UNL d   1      42.114  -9.548  32.066 -0.11 +0.12    -0.303 OA
DOCKED: ATOM     48  H   UNL d   1      42.747 -10.083  32.589 +0.03 -0.05    +0.222 HD
DOCKED: ENDBRANCH  43  47
DOCKED: ENDBRANCH  42  43
DOCKED: ENDBRANCH   4  42
DOCKED: TORSDOF 24
DOCKED: TER
DOCKED: ENDMDL
________________________________________________________________________________


	BEGINNING GENETIC ALGORITHM DOCKING 34 of 100
Run: 34 Seed: 222271275 126125066 [ Run 34 of 100 GA/GALS ]
Beginning LAMARCKIAN GENETIC ALGORITHM (LGA), with a maximum of 25000000 energy evaluations.

Final-Value: -19.180


	FINAL GENETIC ALGORITHM DOCKED STATE
	_______________________________________________


Detailed state:  trans 10.265 -18.753 -8.837 quatxyzw 0.026266 -0.968651 0.158300 -0.189649 center 0.035 0.082 -0.065 ntor 24 -175.1560 -29.1266 65.1527 80.4411 114.5860 85.4408 50.7838 -90.0896 -70.7438 75.4353 35.4825 51.8963 49.1946 -78.4389 -180.0000 101.1041 -62.6576 -79.6423 -142.3425 -21.9028 13.3668 -31.7995 -179.9110 17.2388
State:	 10.265 -18.753  -8.837   0.027 -0.987  0.161 -158.135   -175.16  -29.13   65.15   80.44  114.59   85.44   50.78  -90.09  -70.74   75.44   35.48   51.90   49.19  -78.44 -180.00  101.10  -62.66  -79.64 -142.34  -21.90   13.37  -31.80 -179.91   17.24

DOCKED: MODEL       34
DOCKED: USER    Run = 34
DOCKED: USER    DPF = D:/Protein_go_brrr/autodock/final/1A3N/IHP/dock.dpf
DOCKED: USER  
DOCKED: USER    Estimated Free Energy of Binding    =   +2.49 kcal/mol  [=(1)+(2)+(3)-(4)]
DOCKED: USER    
DOCKED: USER    (1) Final Intermolecular Energy     =   -4.67 kcal/mol
DOCKED: USER        vdW + Hbond + desolv Energy     =   -3.99 kcal/mol
DOCKED: USER        Electrostatic Energy            =   -0.68 kcal/mol
DOCKED: USER    (2) Final Total Internal Energy     =  -14.51 kcal/mol
DOCKED: USER    (3) Torsional Free Energy           =   +7.16 kcal/mol
DOCKED: USER    (4) Unbound System's Energy  [=(2)] =  -14.51 kcal/mol
DOCKED: USER    
DOCKED: USER    
DOCKED: USER    NEWDPF move IHP_ideal_opt.pdbqt
DOCKED: USER    NEWDPF about 0.035000 0.082000 -0.065000
DOCKED: USER    NEWDPF tran0 10.265316 -18.753017 -8.837080
DOCKED: USER    NEWDPF quaternion0 0.026266 -0.968651 0.158300 -0.189649
DOCKED: USER    NEWDPF axisangle0 0.026752 -0.986555 0.161226 -158.135341
DOCKED: USER    NEWDPF quat0 0.026752 -0.986555 0.161226 -158.135341
DOCKED: USER    NEWDPF dihe0 -175.16 -29.13 65.15 80.44 114.59 85.44 50.78 -90.09 -70.74 75.44 35.48 51.90 49.19 -78.44 -180.00 101.10 -62.66 -79.64 -142.34 -21.90 13.37 -31.80 -179.91 17.24 
DOCKED: USER  keepresnum = 1 
DOCKED: USER  
DOCKED: REMARK  24 active torsions:
DOCKED: REMARK  status: ('A' for Active; 'I' for Inactive)
DOCKED: REMARK    1  A    between atoms: C_1  and  O_7 
DOCKED: REMARK    2  A    between atoms: C_2  and  O_12 
DOCKED: REMARK    3  A    between atoms: C_3  and  O_17 
DOCKED: REMARK    4  A    between atoms: C_4  and  O_22 
DOCKED: REMARK    5  A    between atoms: C_5  and  O_27 
DOCKED: REMARK    6  A    between atoms: C_6  and  O_32 
DOCKED: REMARK    7  A    between atoms: O_7  and  P_8 
DOCKED: REMARK    8  A    between atoms: P_8  and  O_10 
DOCKED: REMARK    9  A    between atoms: P_8  and  O_11 
DOCKED: REMARK   10  A    between atoms: O_12  and  P_13 
DOCKED: REMARK   11  A    between atoms: P_13  and  O_15 
DOCKED: REMARK   12  A    between atoms: P_13  and  O_16 
DOCKED: REMARK   13  A    between atoms: O_17  and  P_18 
DOCKED: REMARK   14  A    between atoms: P_18  and  O_20 
DOCKED: REMARK   15  A    between atoms: P_18  and  O_21 
DOCKED: REMARK   16  A    between atoms: O_22  and  P_23 
DOCKED: REMARK   17  A    between atoms: P_23  and  O_25 
DOCKED: REMARK   18  A    between atoms: P_23  and  O_26 
DOCKED: REMARK   19  A    between atoms: O_27  and  P_28 
DOCKED: REMARK   20  A    between atoms: P_28  and  O_30 
DOCKED: REMARK   21  A    between atoms: P_28  and  O_31 
DOCKED: REMARK   22  A    between atoms: O_32  and  P_33 
DOCKED: REMARK   23  A    between atoms: P_33  and  O_35 
DOCKED: REMARK   24  A    between atoms: P_33  and  O_36 
DOCKED: USER                              x       y       z     vdW  Elec       q    Type
DOCKED: USER                           _______ _______ _______ _____ _____    ______ ____
DOCKED: ROOT
DOCKED: ATOM      1  C   UNL d   1       8.919 -19.834  -8.797 -0.01 -0.04    +0.194 C 
DOCKED: ATOM      2  C   UNL d   1      10.297 -20.491  -8.704 -0.01 -0.05    +0.194 C 
DOCKED: ATOM      3  C   UNL d   1      11.288 -19.873  -9.692 -0.00 -0.02    +0.194 C 
DOCKED: ATOM      4  C   UNL d   1      11.366 -18.351  -9.593 -0.05 -0.00    +0.194 C 
DOCKED: ATOM      5  C   UNL d   1      10.008 -17.661  -9.567 -0.07 +0.01    +0.194 C 
DOCKED: ATOM      6  C   UNL d   1       8.997 -18.317  -8.624 -0.06 -0.04    +0.194 C 
DOCKED: ENDROOT
DOCKED: BRANCH   1   7
DOCKED: ATOM      7  O   UNL d   1       8.109 -20.343  -7.735 -0.02 +0.08    -0.278 OA
DOCKED: BRANCH   7   8
DOCKED: ATOM      8  P   UNL d   1       8.022 -19.504  -6.378 -0.11 -0.27    +0.473 P 
DOCKED: ATOM      9  O   UNL d   1       6.790 -18.684  -6.221 -0.15 +0.07    -0.228 OA
DOCKED: BRANCH   8  10
DOCKED: ATOM     10  O   UNL d   1       8.196 -20.601  -5.233 -0.14 +0.25    -0.303 OA
DOCKED: ATOM     11  H   UNL d   1       8.713 -21.353  -5.577 +0.04 -0.15    +0.222 HD
DOCKED: ENDBRANCH   8  10
DOCKED: BRANCH   8  12
DOCKED: ATOM     12  O   UNL d   1       9.397 -18.713  -6.293 -0.11 +0.35    -0.303 OA
DOCKED: ATOM     13  H   UNL d   1      10.158 -19.287  -6.049 -0.31 -0.41    +0.222 HD
DOCKED: ENDBRANCH   8  12
DOCKED: ENDBRANCH   7   8
DOCKED: ENDBRANCH   1   7
DOCKED: BRANCH   2  14
DOCKED: ATOM     14  O   UNL d   1      10.808 -20.318  -7.376 -0.05 +0.18    -0.278 OA
DOCKED: BRANCH  14  15
DOCKED: ATOM     15  P   UNL d   1      10.885 -21.630  -6.462 -0.04 -0.30    +0.473 P 
DOCKED: ATOM     16  O   UNL d   1       9.973 -22.759  -6.828 -0.01 +0.08    -0.228 OA
DOCKED: BRANCH  15  17
DOCKED: ATOM     17  O   UNL d   1      12.424 -22.041  -6.502 -0.02 +0.14    -0.303 OA
DOCKED: ATOM     18  H   UNL d   1      12.834 -21.784  -7.350 +0.01 -0.08    +0.222 HD
DOCKED: ENDBRANCH  15  17
DOCKED: BRANCH  15  19
DOCKED: ATOM     19  O   UNL d   1      10.739 -21.086  -4.974 -0.02 +0.47    -0.303 OA
DOCKED: ATOM     20  H   UNL d   1      10.325 -20.204  -4.952 -0.36 -0.61    +0.222 HD
DOCKED: ENDBRANCH  15  19
DOCKED: ENDBRANCH  14  15
DOCKED: ENDBRANCH   2  14
DOCKED: BRANCH   6  21
DOCKED: ATOM     21  O   UNL d   1       7.716 -17.790  -8.962 -0.04 +0.02    -0.278 OA
DOCKED: BRANCH  21  22
DOCKED: ATOM     22  P   UNL d   1       7.197 -16.457  -8.257 -0.12 -0.03    +0.473 P 
DOCKED: ATOM     23  O   UNL d   1       5.728 -16.288  -8.063 -0.17 +0.00    -0.228 OA
DOCKED: BRANCH  22  24
DOCKED: ATOM     24  O   UNL d   1       8.054 -16.444  -6.915 -0.26 +0.09    -0.303 OA
DOCKED: ATOM     25  H   UNL d   1       9.002 -16.604  -7.153 +0.12 -0.09    +0.222 HD
DOCKED: ENDBRANCH  22  24
DOCKED: BRANCH  22  26
DOCKED: ATOM     26  O   UNL d   1       7.926 -15.324  -9.126 -0.19 -0.04    -0.303 OA
DOCKED: ATOM     27  H   UNL d   1       8.805 -15.135  -8.737 +0.11 +0.03    +0.222 HD
DOCKED: ENDBRANCH  22  26
DOCKED: ENDBRANCH  21  22
DOCKED: ENDBRANCH   6  21
DOCKED: BRANCH   3  28
DOCKED: ATOM     28  O   UNL d   1      12.585 -20.341  -9.347 +0.00 +0.05    -0.278 OA
DOCKED: BRANCH  28  29
DOCKED: ATOM     29  P   UNL d   1      13.054 -21.802  -9.774 +0.01 -0.05    +0.473 P 
DOCKED: ATOM     30  O   UNL d   1      13.405 -21.969 -11.207 +0.00 +0.01    -0.228 OA
DOCKED: BRANCH  29  31
DOCKED: ATOM     31  O   UNL d   1      14.222 -22.043  -8.707 +0.00 +0.05    -0.303 OA
DOCKED: ATOM     32  H   UNL d   1      13.882 -22.635  -7.997 +0.01 -0.04    +0.222 HD
DOCKED: ENDBRANCH  29  31
DOCKED: BRANCH  29  33
DOCKED: ATOM     33  O   UNL d   1      11.872 -22.709  -9.212 +0.00 +0.04    -0.303 OA
DOCKED: ATOM     34  H   UNL d   1      11.500 -22.285  -8.400 +0.01 -0.05    +0.222 HD
DOCKED: ENDBRANCH  29  33
DOCKED: ENDBRANCH  28  29
DOCKED: ENDBRANCH   3  28
DOCKED: BRANCH   5  35
DOCKED: ATOM     35  O   UNL d   1      10.252 -16.346  -9.071 -0.11 -0.05    -0.278 OA
DOCKED: BRANCH  35  36
DOCKED: ATOM     36  P   UNL d   1      11.111 -16.133  -7.744 -0.21 -0.22    +0.473 P 
DOCKED: ATOM     37  O   UNL d   1      11.253 -17.337  -6.868 -0.23 +0.27    -0.228 OA
DOCKED: BRANCH  36  38
DOCKED: ATOM     38  O   UNL d   1      12.486 -15.583  -8.329 -0.06 +0.07    -0.303 OA
DOCKED: ATOM     39  H   UNL d   1      13.230 -15.975  -7.823 -0.33 -0.28    +0.222 HD
DOCKED: ENDBRANCH  36  38
DOCKED: BRANCH  36  40
DOCKED: ATOM     40  O   UNL d   1      10.428 -14.848  -7.100 -0.42 +0.13    -0.303 OA
DOCKED: ATOM     41  H   UNL d   1       9.462 -14.823  -7.276 +0.13 -0.04    +0.222 HD
DOCKED: ENDBRANCH  36  40
DOCKED: ENDBRANCH  35  36
DOCKED: ENDBRANCH   5  35
DOCKED: BRANCH   4  42
DOCKED: ATOM     42  O   UNL d   1      12.049 -17.894 -10.765 -0.09 -0.11    -0.278 OA
DOCKED: BRANCH  42  43
DOCKED: ATOM     43  P   UNL d   1      13.626 -17.665 -10.698 -0.03 +0.21    +0.473 P 
DOCKED: ATOM     44  O   UNL d   1      14.196 -17.181  -9.410 -0.11 -0.02    -0.228 OA
DOCKED: BRANCH  43  45
DOCKED: ATOM     45  O   UNL d   1      14.203 -19.067 -11.179 -0.00 -0.03    -0.303 OA
DOCKED: ATOM     46  H   UNL d   1      13.664 -19.811 -10.842 +0.01 +0.00    +0.222 HD
DOCKED: ENDBRANCH  43  45
DOCKED: BRANCH  43  47
DOCKED: ATOM     47  O   UNL d   1      13.915 -16.739 -11.974 -0.53 -0.39    -0.303 OA
DOCKED: ATOM     48  H   UNL d   1      14.644 -17.131 -12.499 +0.01 +0.13    +0.222 HD
DOCKED: ENDBRANCH  43  47
DOCKED: ENDBRANCH  42  43
DOCKED: ENDBRANCH   4  42
DOCKED: TORSDOF 24
DOCKED: TER
DOCKED: ENDMDL
________________________________________________________________________________


	BEGINNING GENETIC ALGORITHM DOCKING 35 of 100
Run: 35 Seed: 649039043 105975502 [ Run 35 of 100 GA/GALS ]
Beginning LAMARCKIAN GENETIC ALGORITHM (LGA), with a maximum of 25000000 energy evaluations.

Final-Value: -18.134


	FINAL GENETIC ALGORITHM DOCKED STATE
	_______________________________________________


Detailed state:  trans 17.613 -19.832 -0.570 quatxyzw 0.727836 -0.395477 0.226493 0.512400 center 0.035 0.082 -0.065 ntor 24 -109.4599 -2.1332 156.8709 0.8524 106.2232 138.2618 -126.0033 2.6231 60.0961 -8.1252 -7.8097 -72.7790 -141.2129 73.7410 41.4915 46.7496 160.5612 -34.7711 26.7629 -27.9251 164.1330 162.0300 -6.5174 -33.3858
State:	 17.613 -19.832  -0.570   0.848 -0.461  0.264 118.352   -109.46   -2.13  156.87    0.85  106.22  138.26 -126.00    2.62   60.10   -8.13   -7.81  -72.78 -141.21   73.74   41.49   46.75  160.56  -34.77   26.76  -27.93  164.13  162.03   -6.52  -33.39

DOCKED: MODEL       35
DOCKED: USER    Run = 35
DOCKED: USER    DPF = D:/Protein_go_brrr/autodock/final/1A3N/IHP/dock.dpf
DOCKED: USER  
DOCKED: USER    Estimated Free Energy of Binding    =   +4.24 kcal/mol  [=(1)+(2)+(3)-(4)]
DOCKED: USER    
DOCKED: USER    (1) Final Intermolecular Energy     =   -2.92 kcal/mol
DOCKED: USER        vdW + Hbond + desolv Energy     =   -2.93 kcal/mol
DOCKED: USER        Electrostatic Energy            =   +0.01 kcal/mol
DOCKED: USER    (2) Final Total Internal Energy     =  -15.22 kcal/mol
DOCKED: USER    (3) Torsional Free Energy           =   +7.16 kcal/mol
DOCKED: USER    (4) Unbound System's Energy  [=(2)] =  -15.22 kcal/mol
DOCKED: USER    
DOCKED: USER    
DOCKED: USER    NEWDPF move IHP_ideal_opt.pdbqt
DOCKED: USER    NEWDPF about 0.035000 0.082000 -0.065000
DOCKED: USER    NEWDPF tran0 17.612533 -19.832260 -0.570389
DOCKED: USER    NEWDPF quaternion0 0.727836 -0.395477 0.226493 0.512400
DOCKED: USER    NEWDPF axisangle0 0.847556 -0.460528 0.263748 118.352387
DOCKED: USER    NEWDPF quat0 0.847556 -0.460528 0.263748 118.352387
DOCKED: USER    NEWDPF dihe0 -109.46 -2.13 156.87 0.85 106.22 138.26 -126.00 2.62 60.10 -8.13 -7.81 -72.78 -141.21 73.74 41.49 46.75 160.56 -34.77 26.76 -27.93 164.13 162.03 -6.52 -33.39 
DOCKED: USER  keepresnum = 1 
DOCKED: USER  
DOCKED: REMARK  24 active torsions:
DOCKED: REMARK  status: ('A' for Active; 'I' for Inactive)
DOCKED: REMARK    1  A    between atoms: C_1  and  O_7 
DOCKED: REMARK    2  A    between atoms: C_2  and  O_12 
DOCKED: REMARK    3  A    between atoms: C_3  and  O_17 
DOCKED: REMARK    4  A    between atoms: C_4  and  O_22 
DOCKED: REMARK    5  A    between atoms: C_5  and  O_27 
DOCKED: REMARK    6  A    between atoms: C_6  and  O_32 
DOCKED: REMARK    7  A    between atoms: O_7  and  P_8 
DOCKED: REMARK    8  A    between atoms: P_8  and  O_10 
DOCKED: REMARK    9  A    between atoms: P_8  and  O_11 
DOCKED: REMARK   10  A    between atoms: O_12  and  P_13 
DOCKED: REMARK   11  A    between atoms: P_13  and  O_15 
DOCKED: REMARK   12  A    between atoms: P_13  and  O_16 
DOCKED: REMARK   13  A    between atoms: O_17  and  P_18 
DOCKED: REMARK   14  A    between atoms: P_18  and  O_20 
DOCKED: REMARK   15  A    between atoms: P_18  and  O_21 
DOCKED: REMARK   16  A    between atoms: O_22  and  P_23 
DOCKED: REMARK   17  A    between atoms: P_23  and  O_25 
DOCKED: REMARK   18  A    between atoms: P_23  and  O_26 
DOCKED: REMARK   19  A    between atoms: O_27  and  P_28 
DOCKED: REMARK   20  A    between atoms: P_28  and  O_30 
DOCKED: REMARK   21  A    between atoms: P_28  and  O_31 
DOCKED: REMARK   22  A    between atoms: O_32  and  P_33 
DOCKED: REMARK   23  A    between atoms: P_33  and  O_35 
DOCKED: REMARK   24  A    between atoms: P_33  and  O_36 
DOCKED: USER                              x       y       z     vdW  Elec       q    Type
DOCKED: USER                           _______ _______ _______ _____ _____    ______ ____
DOCKED: ROOT
DOCKED: ATOM      1  C   UNL d   1      19.232 -20.252  -0.138 -0.01 -0.02    +0.194 C 
DOCKED: ATOM      2  C   UNL d   1      18.507 -19.323   0.837 -0.04 -0.02    +0.194 C 
DOCKED: ATOM      3  C   UNL d   1      17.724 -18.231   0.104 -0.12 -0.04    +0.194 C 
DOCKED: ATOM      4  C   UNL d   1      16.790 -18.781  -0.971 -0.10 -0.05    +0.194 C 
DOCKED: ATOM      5  C   UNL d   1      17.442 -19.800  -1.897 -0.03 -0.05    +0.194 C 
DOCKED: ATOM      6  C   UNL d   1      18.275 -20.855  -1.168 -0.01 -0.03    +0.194 C 
DOCKED: ENDROOT
DOCKED: BRANCH   1   7
DOCKED: ATOM      7  O   UNL d   1      19.791 -21.335   0.609 -0.00 +0.02    -0.278 OA
DOCKED: BRANCH   7   8
DOCKED: ATOM      8  P   UNL d   1      21.318 -21.234   1.065 +0.01 -0.05    +0.473 P 
DOCKED: ATOM      9  O   UNL d   1      22.304 -21.780   0.093 -0.00 +0.03    -0.228 OA
DOCKED: BRANCH   8  10
DOCKED: ATOM     10  O   UNL d   1      21.529 -19.682   1.369 -0.01 +0.03    -0.303 OA
DOCKED: ATOM     11  H   UNL d   1      21.362 -19.508   2.314 +0.04 -0.01    +0.222 HD
DOCKED: ENDBRANCH   8  10
DOCKED: BRANCH   8  12
DOCKED: ATOM     12  O   UNL d   1      21.357 -21.866   2.522 -0.02 +0.02    -0.303 OA
DOCKED: ATOM     13  H   UNL d   1      20.645 -21.526   3.109 +0.04 -0.00    +0.222 HD
DOCKED: ENDBRANCH   8  12
DOCKED: ENDBRANCH   7   8
DOCKED: ENDBRANCH   1   7
DOCKED: BRANCH   2  14
DOCKED: ATOM     14  O   UNL d   1      17.589 -20.094   1.622 -0.02 +0.01    -0.278 OA
DOCKED: BRANCH  14  15
DOCKED: ATOM     15  P   UNL d   1      18.031 -20.418   3.127 -0.02 +0.05    +0.473 P 
DOCKED: ATOM     16  O   UNL d   1      17.038 -20.106   4.202 -0.24 -0.05    -0.228 OA
DOCKED: BRANCH  15  17
DOCKED: ATOM     17  O   UNL d   1      18.435 -21.959   3.089 -0.11 -0.02    -0.303 OA
DOCKED: ATOM     18  H   UNL d   1      19.178 -22.113   2.474 +0.02 -0.00    +0.222 HD
DOCKED: ENDBRANCH  15  17
DOCKED: BRANCH  15  19
DOCKED: ATOM     19  O   UNL d   1      19.452 -19.720   3.282 -0.17 -0.02    -0.303 OA
DOCKED: ATOM     20  H   UNL d   1      20.094 -20.061   2.633 +0.04 -0.00    +0.222 HD
DOCKED: ENDBRANCH  15  19
DOCKED: ENDBRANCH  14  15
DOCKED: ENDBRANCH   2  14
DOCKED: BRANCH   6  21
DOCKED: ATOM     21  O   UNL d   1      19.077 -21.501  -2.155 -0.00 +0.04    -0.278 OA
DOCKED: BRANCH  21  22
DOCKED: ATOM     22  P   UNL d   1      20.144 -20.656  -2.986 +0.00 -0.07    +0.473 P 
DOCKED: ATOM     23  O   UNL d   1      21.372 -20.185  -2.283 -0.01 +0.03    -0.228 OA
DOCKED: BRANCH  22  24
DOCKED: ATOM     24  O   UNL d   1      20.412 -21.607  -4.234 -0.00 +0.04    -0.303 OA
DOCKED: ATOM     25  H   UNL d   1      19.546 -22.000  -4.513 +0.00 -0.03    +0.222 HD
DOCKED: ENDBRANCH  22  24
DOCKED: BRANCH  22  26
DOCKED: ATOM     26  O   UNL d   1      19.222 -19.514  -3.632 -0.02 +0.07    -0.303 OA
DOCKED: ATOM     27  H   UNL d   1      18.349 -19.894  -3.857 +0.02 -0.05    +0.222 HD
DOCKED: ENDBRANCH  22  26
DOCKED: ENDBRANCH  21  22
DOCKED: ENDBRANCH   6  21
DOCKED: BRANCH   3  28
DOCKED: ATOM     28  O   UNL d   1      16.875 -17.601   1.055 -0.16 +0.05    -0.278 OA
DOCKED: BRANCH  28  29
DOCKED: ATOM     29  P   UNL d   1      15.424 -18.188   1.352 -0.16 -0.03    +0.473 P 
DOCKED: ATOM     30  O   UNL d   1      15.221 -19.612   0.981 -0.10 +0.00    -0.228 OA
DOCKED: BRANCH  29  31
DOCKED: ATOM     31  O   UNL d   1      15.284 -17.815   2.902 -0.23 -0.01    -0.303 OA
DOCKED: ATOM     32  H   UNL d   1      15.850 -18.427   3.425 +0.09 +0.02    +0.222 HD
DOCKED: ENDBRANCH  29  31
DOCKED: BRANCH  29  33
DOCKED: ATOM     33  O   UNL d   1      14.480 -17.119   0.645 -0.05 +0.08    -0.303 OA
DOCKED: ATOM     34  H   UNL d   1      14.679 -17.106  -0.323 -0.15 -0.11    +0.222 HD
DOCKED: ENDBRANCH  29  33
DOCKED: ENDBRANCH  28  29
DOCKED: ENDBRANCH   3  28
DOCKED: BRANCH   5  35
DOCKED: ATOM     35  O   UNL d   1      16.366 -20.483  -2.538 -0.01 +0.08    -0.278 OA
DOCKED: BRANCH  35  36
DOCKED: ATOM     36  P   UNL d   1      16.278 -20.530  -4.130 +0.01 -0.17    +0.473 P 
DOCKED: ATOM     37  O   UNL d   1      14.907 -20.727  -4.694 -0.03 +0.12    -0.228 OA
DOCKED: BRANCH  36  38
DOCKED: ATOM     38  O   UNL d   1      16.959 -19.148  -4.535 -0.03 +0.13    -0.303 OA
DOCKED: ATOM     39  H   UNL d   1      17.087 -18.604  -3.728 +0.05 -0.10    +0.222 HD
DOCKED: ENDBRANCH  36  38
DOCKED: BRANCH  36  40
DOCKED: ATOM     40  O   UNL d   1      17.375 -21.620  -4.500 +0.00 +0.06    -0.303 OA
DOCKED: ATOM     41  H   UNL d   1      18.232 -21.441  -4.054 +0.01 -0.04    +0.222 HD
DOCKED: ENDBRANCH  36  40
DOCKED: ENDBRANCH  35  36
DOCKED: ENDBRANCH   5  35
DOCKED: BRANCH   4  42
DOCKED: ATOM     42  O   UNL d   1      16.392 -17.669  -1.782 -0.19 +0.13    -0.278 OA
DOCKED: BRANCH  42  43
DOCKED: ATOM     43  P   UNL d   1      14.911 -17.637  -2.373 -0.21 -0.37    +0.473 P 
DOCKED: ATOM     44  O   UNL d   1      13.941 -18.639  -1.850 -0.23 +0.17    -0.228 OA
DOCKED: BRANCH  43  45
DOCKED: ATOM     45  O   UNL d   1      14.475 -16.125  -2.141 -0.26 +0.32    -0.303 OA
DOCKED: ATOM     46  H   UNL d   1      14.178 -15.975  -1.221 -0.40 -0.26    +0.222 HD
DOCKED: ENDBRANCH  43  45
DOCKED: BRANCH  43  47
DOCKED: ATOM     47  O   UNL d   1      15.149 -17.668  -3.958 -0.19 +0.33    -0.303 OA
DOCKED: ATOM     48  H   UNL d   1      14.918 -18.555  -4.302 +0.07 -0.22    +0.222 HD
DOCKED: ENDBRANCH  43  47
DOCKED: ENDBRANCH  42  43
DOCKED: ENDBRANCH   4  42
DOCKED: TORSDOF 24
DOCKED: TER
DOCKED: ENDMDL
________________________________________________________________________________


	BEGINNING GENETIC ALGORITHM DOCKING 36 of 100
Run: 36 Seed: 349539845 249473614 [ Run 36 of 100 GA/GALS ]
Beginning LAMARCKIAN GENETIC ALGORITHM (LGA), with a maximum of 25000000 energy evaluations.

Final-Value: -18.430


	FINAL GENETIC ALGORITHM DOCKED STATE
	_______________________________________________


Detailed state:  trans 40.665 -1.891 39.234 quatxyzw 0.312882 0.680826 -0.421174 -0.511070 center 0.035 0.082 -0.065 ntor 24 173.2440 2.3792 69.3232 49.7084 51.4793 -149.1372 23.6391 -131.6625 161.4338 -28.9085 96.5777 -107.6594 26.7001 145.9088 133.0787 -75.6367 -179.6999 89.2228 2.1064 -18.5159 -19.5758 16.5630 -180.0000 8.4907
State:	 40.665  -1.891  39.234   0.364  0.792 -0.490 -118.530    173.24    2.38   69.32   49.71   51.48 -149.14   23.64 -131.66  161.43  -28.91   96.58 -107.66   26.70  145.91  133.08  -75.64 -179.70   89.22    2.11  -18.52  -19.58   16.56 -180.00    8.49

DOCKED: MODEL       36
DOCKED: USER    Run = 36
DOCKED: USER    DPF = D:/Protein_go_brrr/autodock/final/1A3N/IHP/dock.dpf
DOCKED: USER  
DOCKED: USER    Estimated Free Energy of Binding    =   +3.07 kcal/mol  [=(1)+(2)+(3)-(4)]
DOCKED: USER    
DOCKED: USER    (1) Final Intermolecular Energy     =   -4.09 kcal/mol
DOCKED: USER        vdW + Hbond + desolv Energy     =   -3.73 kcal/mol
DOCKED: USER        Electrostatic Energy            =   -0.36 kcal/mol
DOCKED: USER    (2) Final Total Internal Energy     =  -14.34 kcal/mol
DOCKED: USER    (3) Torsional Free Energy           =   +7.16 kcal/mol
DOCKED: USER    (4) Unbound System's Energy  [=(2)] =  -14.34 kcal/mol
DOCKED: USER    
DOCKED: USER    
DOCKED: USER    NEWDPF move IHP_ideal_opt.pdbqt
DOCKED: USER    NEWDPF about 0.035000 0.082000 -0.065000
DOCKED: USER    NEWDPF tran0 40.664856 -1.890529 39.233917
DOCKED: USER    NEWDPF quaternion0 0.312882 0.680826 -0.421174 -0.511070
DOCKED: USER    NEWDPF axisangle0 0.364012 0.792083 -0.490000 -118.529778
DOCKED: USER    NEWDPF quat0 0.364012 0.792083 -0.490000 -118.529778
DOCKED: USER    NEWDPF dihe0 173.24 2.38 69.32 49.71 51.48 -149.14 23.64 -131.66 161.43 -28.91 96.58 -107.66 26.70 145.91 133.08 -75.64 -179.70 89.22 2.11 -18.52 -19.58 16.56 -180.00 8.49 
DOCKED: USER  keepresnum = 1 
DOCKED: USER  
DOCKED: REMARK  24 active torsions:
DOCKED: REMARK  status: ('A' for Active; 'I' for Inactive)
DOCKED: REMARK    1  A    between atoms: C_1  and  O_7 
DOCKED: REMARK    2  A    between atoms: C_2  and  O_12 
DOCKED: REMARK    3  A    between atoms: C_3  and  O_17 
DOCKED: REMARK    4  A    between atoms: C_4  and  O_22 
DOCKED: REMARK    5  A    between atoms: C_5  and  O_27 
DOCKED: REMARK    6  A    between atoms: C_6  and  O_32 
DOCKED: REMARK    7  A    between atoms: O_7  and  P_8 
DOCKED: REMARK    8  A    between atoms: P_8  and  O_10 
DOCKED: REMARK    9  A    between atoms: P_8  and  O_11 
DOCKED: REMARK   10  A    between atoms: O_12  and  P_13 
DOCKED: REMARK   11  A    between atoms: P_13  and  O_15 
DOCKED: REMARK   12  A    between atoms: P_13  and  O_16 
DOCKED: REMARK   13  A    between atoms: O_17  and  P_18 
DOCKED: REMARK   14  A    between atoms: P_18  and  O_20 
DOCKED: REMARK   15  A    between atoms: P_18  and  O_21 
DOCKED: REMARK   16  A    between atoms: O_22  and  P_23 
DOCKED: REMARK   17  A    between atoms: P_23  and  O_25 
DOCKED: REMARK   18  A    between atoms: P_23  and  O_26 
DOCKED: REMARK   19  A    between atoms: O_27  and  P_28 
DOCKED: REMARK   20  A    between atoms: P_28  and  O_30 
DOCKED: REMARK   21  A    between atoms: P_28  and  O_31 
DOCKED: REMARK   22  A    between atoms: O_32  and  P_33 
DOCKED: REMARK   23  A    between atoms: P_33  and  O_35 
DOCKED: REMARK   24  A    between atoms: P_33  and  O_36 
DOCKED: USER                              x       y       z     vdW  Elec       q    Type
DOCKED: USER                           _______ _______ _______ _____ _____    ______ ____
DOCKED: ROOT
DOCKED: ATOM      1  C   UNL d   1      39.893  -3.002  38.160 -0.10 +0.08    +0.194 C 
DOCKED: ATOM      2  C   UNL d   1      39.397  -3.028  39.607 -0.07 +0.06    +0.194 C 
DOCKED: ATOM      3  C   UNL d   1      40.555  -2.958  40.604 -0.02 +0.04    +0.194 C 
DOCKED: ATOM      4  C   UNL d   1      41.506  -1.794  40.341 -0.03 +0.04    +0.194 C 
DOCKED: ATOM      5  C   UNL d   1      41.937  -1.660  38.886 -0.04 +0.04    +0.194 C 
DOCKED: ATOM      6  C   UNL d   1      40.787  -1.792  37.885 -0.08 +0.07    +0.194 C 
DOCKED: ENDROOT
DOCKED: BRANCH   1   7
DOCKED: ATOM      7  O   UNL d   1      38.756  -2.895  37.300 -0.19 -0.13    -0.278 OA
DOCKED: BRANCH   7   8
DOCKED: ATOM      8  P   UNL d   1      38.505  -4.052  36.227 -0.23 +0.39    +0.473 P 
DOCKED: ATOM      9  O   UNL d   1      37.900  -5.298  36.772 -0.43 -0.27    -0.228 OA
DOCKED: BRANCH   8  10
DOCKED: ATOM     10  O   UNL d   1      37.605  -3.354  35.110 -0.36 -0.18    -0.303 OA
DOCKED: ATOM     11  H   UNL d   1      37.640  -2.386  35.219 -0.41 +0.08    +0.222 HD
DOCKED: ENDBRANCH   8  10
DOCKED: BRANCH   8  12
DOCKED: ATOM     12  O   UNL d   1      39.893  -4.226  35.475 -0.18 -0.33    -0.303 OA
DOCKED: ATOM     13  H   UNL d   1      40.323  -3.369  35.255 +0.08 +0.17    +0.222 HD
DOCKED: ENDBRANCH   8  12
DOCKED: ENDBRANCH   7   8
DOCKED: ENDBRANCH   1   7
DOCKED: BRANCH   2  14
DOCKED: ATOM     14  O   UNL d   1      38.537  -1.902  39.826 -0.11 -0.08    -0.278 OA
DOCKED: BRANCH  14  15
DOCKED: ATOM     15  P   UNL d   1      36.992  -2.224  40.097 -0.13 +0.15    +0.473 P 
DOCKED: ATOM     16  O   UNL d   1      36.020  -1.116  39.839 -0.30 -0.09    -0.228 OA
DOCKED: BRANCH  15  17
DOCKED: ATOM     17  O   UNL d   1      36.704  -3.517  39.212 -0.13 -0.10    -0.303 OA
DOCKED: ATOM     18  H   UNL d   1      37.310  -3.562  38.448 +0.08 +0.08    +0.222 HD
DOCKED: ENDBRANCH  15  17
DOCKED: BRANCH  15  19
DOCKED: ATOM     19  O   UNL d   1      36.966  -2.831  41.567 -0.03 -0.08    -0.303 OA
DOCKED: ATOM     20  H   UNL d   1      37.864  -3.016  41.897 +0.03 +0.05    +0.222 HD
DOCKED: ENDBRANCH  15  19
DOCKED: ENDBRANCH  14  15
DOCKED: ENDBRANCH   2  14
DOCKED: BRANCH   6  21
DOCKED: ATOM     21  O   UNL d   1      41.377  -1.990  36.603 -0.07 -0.13    -0.278 OA
DOCKED: BRANCH  21  22
DOCKED: ATOM     22  P   UNL d   1      41.056  -0.972  35.417 -0.15 +0.33    +0.473 P 
DOCKED: ATOM     23  O   UNL d   1      41.955  -0.970  34.227 -0.33 -0.30    -0.228 OA
DOCKED: BRANCH  22  24
DOCKED: ATOM     24  O   UNL d   1      39.533  -1.311  35.102 -0.26 -0.22    -0.303 OA
DOCKED: ATOM     25  H   UNL d   1      39.312  -2.173  35.537 +0.09 +0.14    +0.222 HD
DOCKED: ENDBRANCH  22  24
DOCKED: BRANCH  22  26
DOCKED: ATOM     26  O   UNL d   1      40.930   0.418  36.206 -0.19 -0.14    -0.303 OA
DOCKED: ATOM     27  H   UNL d   1      41.587   0.436  36.932 +0.05 +0.08    +0.222 HD
DOCKED: ENDBRANCH  22  26
DOCKED: ENDBRANCH  21  22
DOCKED: ENDBRANCH   6  21
DOCKED: BRANCH   3  28
DOCKED: ATOM     28  O   UNL d   1      39.999  -2.709  41.889 -0.01 -0.05    -0.278 OA
DOCKED: BRANCH  28  29
DOCKED: ATOM     29  P   UNL d   1      40.362  -3.652  43.120 -0.00 +0.06    +0.473 P 
DOCKED: ATOM     30  O   UNL d   1      39.330  -4.657  43.484 -0.00 -0.03    -0.228 OA
DOCKED: BRANCH  29  31
DOCKED: ATOM     31  O   UNL d   1      41.780  -4.212  42.633 -0.00 -0.03    -0.303 OA
DOCKED: ATOM     32  H   UNL d   1      42.454  -3.502  42.747 +0.00 +0.02    +0.222 HD
DOCKED: ENDBRANCH  29  31
DOCKED: BRANCH  29  33
DOCKED: ATOM     33  O   UNL d   1      40.766  -2.597  44.241 -0.00 -0.03    -0.303 OA
DOCKED: ATOM     34  H   UNL d   1      41.645  -2.207  44.014 +0.00 +0.02    +0.222 HD
DOCKED: ENDBRANCH  29  33
DOCKED: ENDBRANCH  28  29
DOCKED: ENDBRANCH   3  28
DOCKED: BRANCH   5  35
DOCKED: ATOM     35  O   UNL d   1      42.458  -0.339  38.756 -0.03 -0.06    -0.278 OA
DOCKED: BRANCH  35  36
DOCKED: ATOM     36  P   UNL d   1      41.628   0.910  39.299 -0.06 +0.09    +0.473 P 
DOCKED: ATOM     37  O   UNL d   1      41.565   2.090  38.383 -0.11 -0.04    -0.228 OA
DOCKED: BRANCH  36  38
DOCKED: ATOM     38  O   UNL d   1      40.213   0.250  39.614 -0.03 -0.08    -0.303 OA
DOCKED: ATOM     39  H   UNL d   1      40.201  -0.053  40.548 +0.03 +0.05    +0.222 HD
DOCKED: ENDBRANCH  36  38
DOCKED: BRANCH  36  40
DOCKED: ATOM     40  O   UNL d   1      42.268   1.145  40.736 -0.02 -0.04    -0.303 OA
DOCKED: ATOM     41  H   UNL d   1      42.025   0.430  41.365 +0.01 +0.03    +0.222 HD
DOCKED: ENDBRANCH  36  40
DOCKED: ENDBRANCH  35  36
DOCKED: ENDBRANCH   5  35
DOCKED: BRANCH   4  42
DOCKED: ATOM     42  O   UNL d   1      42.688  -2.042  41.109 -0.00 -0.04    -0.278 OA
DOCKED: BRANCH  42  43
DOCKED: ATOM     43  P   UNL d   1      42.907  -1.239  42.470 -0.00 +0.05    +0.473 P 
DOCKED: ATOM     44  O   UNL d   1      43.365  -2.012  43.658 +0.00 -0.02    -0.228 OA
DOCKED: BRANCH  43  45
DOCKED: ATOM     45  O   UNL d   1      43.898  -0.073  42.031 -0.00 -0.02    -0.303 OA
DOCKED: ATOM     46  H   UNL d   1      43.835   0.107  41.072 +0.01 +0.02    +0.222 HD
DOCKED: ENDBRANCH  43  45
DOCKED: BRANCH  43  47
DOCKED: ATOM     47  O   UNL d   1      41.528  -0.443  42.652 -0.01 -0.04    -0.303 OA
DOCKED: ATOM     48  H   UNL d   1      40.819  -1.076  42.888 +0.01 +0.03    +0.222 HD
DOCKED: ENDBRANCH  43  47
DOCKED: ENDBRANCH  42  43
DOCKED: ENDBRANCH   4  42
DOCKED: TORSDOF 24
DOCKED: TER
DOCKED: ENDMDL
________________________________________________________________________________


	BEGINNING GENETIC ALGORITHM DOCKING 37 of 100
Run: 37 Seed: 1183116744 1173249246 [ Run 37 of 100 GA/GALS ]
Beginning LAMARCKIAN GENETIC ALGORITHM (LGA), with a maximum of 25000000 energy evaluations.

Final-Value: -17.074


	FINAL GENETIC ALGORITHM DOCKED STATE
	_______________________________________________


Detailed state:  trans 25.478 23.455 -6.011 quatxyzw -0.428956 0.276034 0.276738 0.814382 center 0.035 0.082 -0.065 ntor 24 115.3925 102.1407 45.4016 42.7991 104.6114 120.3745 -99.4063 -59.0133 80.7209 131.3742 -180.0000 120.0712 149.7848 157.5535 98.0352 -140.6911 103.2261 173.5219 5.5360 -20.4119 -26.3628 -29.4972 9.8674 178.4652
State:	 25.478  23.455  -6.011  -0.739  0.476  0.477 70.947    115.39  102.14   45.40   42.80  104.61  120.37  -99.41  -59.01   80.72  131.37 -180.00  120.07  149.78  157.55   98.04 -140.69  103.23  173.52    5.54  -20.41  -26.36  -29.50    9.87  178.47

DOCKED: MODEL       37
DOCKED: USER    Run = 37
DOCKED: USER    DPF = D:/Protein_go_brrr/autodock/final/1A3N/IHP/dock.dpf
DOCKED: USER  
DOCKED: USER    Estimated Free Energy of Binding    =   +3.16 kcal/mol  [=(1)+(2)+(3)-(4)]
DOCKED: USER    
DOCKED: USER    (1) Final Intermolecular Energy     =   -3.99 kcal/mol
DOCKED: USER        vdW + Hbond + desolv Energy     =   -3.89 kcal/mol
DOCKED: USER        Electrostatic Energy            =   -0.10 kcal/mol
DOCKED: USER    (2) Final Total Internal Energy     =  -13.08 kcal/mol
DOCKED: USER    (3) Torsional Free Energy           =   +7.16 kcal/mol
DOCKED: USER    (4) Unbound System's Energy  [=(2)] =  -13.08 kcal/mol
DOCKED: USER    
DOCKED: USER    
DOCKED: USER    NEWDPF move IHP_ideal_opt.pdbqt
DOCKED: USER    NEWDPF about 0.035000 0.082000 -0.065000
DOCKED: USER    NEWDPF tran0 25.477718 23.454671 -6.010937
DOCKED: USER    NEWDPF quaternion0 -0.428956 0.276034 0.276738 0.814382
DOCKED: USER    NEWDPF axisangle0 -0.739160 0.475650 0.476864 70.947480
DOCKED: USER    NEWDPF quat0 -0.739160 0.475650 0.476864 70.947480
DOCKED: USER    NEWDPF dihe0 115.39 102.14 45.40 42.80 104.61 120.37 -99.41 -59.01 80.72 131.37 -180.00 120.07 149.78 157.55 98.04 -140.69 103.23 173.52 5.54 -20.41 -26.36 -29.50 9.87 178.47 
DOCKED: USER  keepresnum = 1 
DOCKED: USER  
DOCKED: REMARK  24 active torsions:
DOCKED: REMARK  status: ('A' for Active; 'I' for Inactive)
DOCKED: REMARK    1  A    between atoms: C_1  and  O_7 
DOCKED: REMARK    2  A    between atoms: C_2  and  O_12 
DOCKED: REMARK    3  A    between atoms: C_3  and  O_17 
DOCKED: REMARK    4  A    between atoms: C_4  and  O_22 
DOCKED: REMARK    5  A    between atoms: C_5  and  O_27 
DOCKED: REMARK    6  A    between atoms: C_6  and  O_32 
DOCKED: REMARK    7  A    between atoms: O_7  and  P_8 
DOCKED: REMARK    8  A    between atoms: P_8  and  O_10 
DOCKED: REMARK    9  A    between atoms: P_8  and  O_11 
DOCKED: REMARK   10  A    between atoms: O_12  and  P_13 
DOCKED: REMARK   11  A    between atoms: P_13  and  O_15 
DOCKED: REMARK   12  A    between atoms: P_13  and  O_16 
DOCKED: REMARK   13  A    between atoms: O_17  and  P_18 
DOCKED: REMARK   14  A    between atoms: P_18  and  O_20 
DOCKED: REMARK   15  A    between atoms: P_18  and  O_21 
DOCKED: REMARK   16  A    between atoms: O_22  and  P_23 
DOCKED: REMARK   17  A    between atoms: P_23  and  O_25 
DOCKED: REMARK   18  A    between atoms: P_23  and  O_26 
DOCKED: REMARK   19  A    between atoms: O_27  and  P_28 
DOCKED: REMARK   20  A    between atoms: P_28  and  O_30 
DOCKED: REMARK   21  A    between atoms: P_28  and  O_31 
DOCKED: REMARK   22  A    between atoms: O_32  and  P_33 
DOCKED: REMARK   23  A    between atoms: P_33  and  O_35 
DOCKED: REMARK   24  A    between atoms: P_33  and  O_36 
DOCKED: USER                              x       y       z     vdW  Elec       q    Type
DOCKED: USER                           _______ _______ _______ _____ _____    ______ ____
DOCKED: ROOT
DOCKED: ATOM      1  C   UNL d   1      25.614  21.736  -6.122 -0.09 +0.00    +0.194 C 
DOCKED: ATOM      2  C   UNL d   1      24.829  22.411  -7.248 -0.04 +0.00    +0.194 C 
DOCKED: ATOM      3  C   UNL d   1      23.885  23.490  -6.713 -0.04 +0.00    +0.194 C 
DOCKED: ATOM      4  C   UNL d   1      24.581  24.503  -5.808 -0.04 -0.00    +0.194 C 
DOCKED: ATOM      5  C   UNL d   1      25.468  23.875  -4.740 -0.11 -0.01    +0.194 C 
DOCKED: ATOM      6  C   UNL d   1      26.368  22.753  -5.263 -0.10 -0.01    +0.194 C 
DOCKED: ENDROOT
DOCKED: BRANCH   1   7
DOCKED: ATOM      7  O   UNL d   1      26.589  20.872  -6.712 -0.03 -0.00    -0.278 OA
DOCKED: BRANCH   7   8
DOCKED: ATOM      8  P   UNL d   1      26.481  19.303  -6.432 -0.07 +0.02    +0.473 P 
DOCKED: ATOM      9  O   UNL d   1      27.743  18.539  -6.632 -0.06 -0.01    -0.228 OA
DOCKED: BRANCH   8  10
DOCKED: ATOM     10  O   UNL d   1      25.923  19.214  -4.940 -0.23 +0.02    -0.303 OA
DOCKED: ATOM     11  H   UNL d   1      26.378  19.872  -4.381 -0.37 -0.06    +0.222 HD
DOCKED: ENDBRANCH   8  10
DOCKED: BRANCH   8  12
DOCKED: ATOM     12  O   UNL d   1      25.232  18.816  -7.284 -0.07 -0.04    -0.303 OA
DOCKED: ATOM     13  H   UNL d   1      25.315  19.022  -8.242 +0.04 +0.02    +0.222 HD
DOCKED: ENDBRANCH   8  12
DOCKED: ENDBRANCH   7   8
DOCKED: ENDBRANCH   1   7
DOCKED: BRANCH   2  14
DOCKED: ATOM     14  O   UNL d   1      25.751  23.022  -8.159 -0.00 -0.00    -0.278 OA
DOCKED: BRANCH  14  15
DOCKED: ATOM     15  P   UNL d   1      25.864  22.361  -9.614 +0.00 +0.01    +0.473 P 
DOCKED: ATOM     16  O   UNL d   1      27.207  22.409 -10.272 -0.00 -0.01    -0.228 OA
DOCKED: BRANCH  15  17
DOCKED: ATOM     17  O   UNL d   1      25.330  20.875  -9.407 -0.01 -0.02    -0.303 OA
DOCKED: ATOM     18  H   UNL d   1      25.774  20.444  -8.651 +0.03 +0.01    +0.222 HD
DOCKED: ENDBRANCH  15  17
DOCKED: BRANCH  15  19
DOCKED: ATOM     19  O   UNL d   1      24.672  23.016 -10.440 -0.00 -0.01    -0.303 OA
DOCKED: ATOM     20  H   UNL d   1      24.012  23.430  -9.853 +0.01 +0.00    +0.222 HD
DOCKED: ENDBRANCH  15  19
DOCKED: ENDBRANCH  14  15
DOCKED: ENDBRANCH   2  14
DOCKED: BRANCH   6  21
DOCKED: ATOM     21  O   UNL d   1      26.861  22.054  -4.123 -0.19 +0.03    -0.278 OA
DOCKED: BRANCH  21  22
DOCKED: ATOM     22  P   UNL d   1      28.427  21.795  -3.969 -0.16 -0.05    +0.473 P 
DOCKED: ATOM     23  O   UNL d   1      29.085  22.193  -2.690 -0.35 +0.04    -0.228 OA
DOCKED: BRANCH  22  24
DOCKED: ATOM     24  O   UNL d   1      28.538  20.248  -4.323 -0.35 +0.02    -0.303 OA
DOCKED: ATOM     25  H   UNL d   1      27.909  20.056  -5.064 +0.05 -0.01    +0.222 HD
DOCKED: ENDBRANCH  22  24
DOCKED: BRANCH  22  26
DOCKED: ATOM     26  O   UNL d   1      29.003  22.482  -5.298 -0.03 +0.02    -0.303 OA
DOCKED: ATOM     27  H   UNL d   1      28.540  22.113  -6.077 +0.04 -0.01    +0.222 HD
DOCKED: ENDBRANCH  22  26
DOCKED: ENDBRANCH  21  22
DOCKED: ENDBRANCH   6  21
DOCKED: BRANCH   3  28
DOCKED: ATOM     28  O   UNL d   1      23.416  24.239  -7.827 -0.00 -0.00    -0.278 OA
DOCKED: BRANCH  28  29
DOCKED: ATOM     29  P   UNL d   1      22.217  23.689  -8.719 +0.01 +0.00    +0.473 P 
DOCKED: ATOM     30  O   UNL d   1      22.014  24.382 -10.017 -0.00 -0.00    -0.228 OA
DOCKED: BRANCH  29  31
DOCKED: ATOM     31  O   UNL d   1      22.601  22.136  -8.777 -0.03 -0.01    -0.303 OA
DOCKED: ATOM     32  H   UNL d   1      23.556  22.058  -9.007 +0.02 +0.01    +0.222 HD
DOCKED: ENDBRANCH  29  31
DOCKED: BRANCH  29  33
DOCKED: ATOM     33  O   UNL d   1      21.000  23.711  -7.693 -0.01 +0.01    -0.303 OA
DOCKED: ATOM     34  H   UNL d   1      21.321  24.050  -6.822 +0.04 -0.00    +0.222 HD
DOCKED: ENDBRANCH  29  33
DOCKED: ENDBRANCH  28  29
DOCKED: ENDBRANCH   3  28
DOCKED: BRANCH   5  35
DOCKED: ATOM     35  O   UNL d   1      26.323  24.920  -4.283 -0.05 +0.02    -0.278 OA
DOCKED: BRANCH  35  36
DOCKED: ATOM     36  P   UNL d   1      26.679  25.049  -2.733 -0.10 -0.05    +0.473 P 
DOCKED: ATOM     37  O   UNL d   1      28.041  25.587  -2.427 -0.08 +0.03    -0.228 OA
DOCKED: BRANCH  36  38
DOCKED: ATOM     38  O   UNL d   1      25.483  25.952  -2.197 -0.16 +0.03    -0.303 OA
DOCKED: ATOM     39  H   UNL d   1      24.798  26.027  -2.897 +0.05 -0.01    +0.222 HD
DOCKED: ENDBRANCH  36  38
DOCKED: BRANCH  36  40
DOCKED: ATOM     40  O   UNL d   1      26.337  23.595  -2.185 +0.07 +0.05    -0.303 OA
DOCKED: ATOM     41  H   UNL d   1      27.113  22.994  -2.237 +0.10 -0.02    +0.222 HD
DOCKED: ENDBRANCH  36  40
DOCKED: ENDBRANCH  35  36
DOCKED: ENDBRANCH   5  35
DOCKED: BRANCH   4  42
DOCKED: ATOM     42  O   UNL d   1      23.551  25.227  -5.127 -0.04 +0.00    -0.278 OA
DOCKED: BRANCH  42  43
DOCKED: ATOM     43  P   UNL d   1      22.644  24.460  -4.063 -0.10 +0.02    +0.473 P 
DOCKED: ATOM     44  O   UNL d   1      21.192  24.793  -4.031 -0.19 -0.03    -0.228 OA
DOCKED: BRANCH  43  45
DOCKED: ATOM     45  O   UNL d   1      22.955  22.931  -4.376 -0.14 -0.01    -0.303 OA
DOCKED: ATOM     46  H   UNL d   1      23.515  22.530  -3.682 -0.39 -0.04    +0.222 HD
DOCKED: ENDBRANCH  43  45
DOCKED: BRANCH  43  47
DOCKED: ATOM     47  O   UNL d   1      23.433  24.677  -2.685 -0.50 -0.01    -0.303 OA
DOCKED: ATOM     48  H   UNL d   1      24.325  24.278  -2.757 -0.18 -0.06    +0.222 HD
DOCKED: ENDBRANCH  43  47
DOCKED: ENDBRANCH  42  43
DOCKED: ENDBRANCH   4  42
DOCKED: TORSDOF 24
DOCKED: TER
DOCKED: ENDMDL
________________________________________________________________________________


	BEGINNING GENETIC ALGORITHM DOCKING 38 of 100
Run: 38 Seed: 972848211 1505977997 [ Run 38 of 100 GA/GALS ]
Beginning LAMARCKIAN GENETIC ALGORITHM (LGA), with a maximum of 25000000 energy evaluations.

Final-Value: -17.735


	FINAL GENETIC ALGORITHM DOCKED STATE
	_______________________________________________


Detailed state:  trans 16.732 -23.023 16.666 quatxyzw 0.469801 -0.423754 -0.771664 -0.065220 center 0.035 0.082 -0.065 ntor 24 133.4645 93.1102 147.2707 58.1964 151.5112 132.1928 -106.4192 -32.0344 86.5925 89.0884 -166.6488 140.3340 -76.5229 -55.9358 47.0525 -46.4816 100.0417 162.5215 -145.2238 -13.1014 -179.8433 14.8181 3.1939 -180.0000
State:	 16.732 -23.023  16.666   0.471 -0.425 -0.773 -172.521    133.46   93.11  147.27   58.20  151.51  132.19 -106.42  -32.03   86.59   89.09 -166.65  140.33  -76.52  -55.94   47.05  -46.48  100.04  162.52 -145.22  -13.10 -179.84   14.82    3.19 -180.00

DOCKED: MODEL       38
DOCKED: USER    Run = 38
DOCKED: USER    DPF = D:/Protein_go_brrr/autodock/final/1A3N/IHP/dock.dpf
DOCKED: USER  
DOCKED: USER    Estimated Free Energy of Binding    =   +2.19 kcal/mol  [=(1)+(2)+(3)-(4)]
DOCKED: USER    
DOCKED: USER    (1) Final Intermolecular Energy     =   -4.97 kcal/mol
DOCKED: USER        vdW + Hbond + desolv Energy     =   -4.59 kcal/mol
DOCKED: USER        Electrostatic Energy            =   -0.38 kcal/mol
DOCKED: USER    (2) Final Total Internal Energy     =  -12.77 kcal/mol
DOCKED: USER    (3) Torsional Free Energy           =   +7.16 kcal/mol
DOCKED: USER    (4) Unbound System's Energy  [=(2)] =  -12.77 kcal/mol
DOCKED: USER    
DOCKED: USER    
DOCKED: USER    NEWDPF move IHP_ideal_opt.pdbqt
DOCKED: USER    NEWDPF about 0.035000 0.082000 -0.065000
DOCKED: USER    NEWDPF tran0 16.731877 -23.022634 16.666275
DOCKED: USER    NEWDPF quaternion0 0.469801 -0.423754 -0.771664 -0.065220
DOCKED: USER    NEWDPF axisangle0 0.470804 -0.424658 -0.773310 -172.521057
DOCKED: USER    NEWDPF quat0 0.470804 -0.424658 -0.773310 -172.521057
DOCKED: USER    NEWDPF dihe0 133.46 93.11 147.27 58.20 151.51 132.19 -106.42 -32.03 86.59 89.09 -166.65 140.33 -76.52 -55.94 47.05 -46.48 100.04 162.52 -145.22 -13.10 -179.84 14.82 3.19 -180.00 
DOCKED: USER  keepresnum = 1 
DOCKED: USER  
DOCKED: REMARK  24 active torsions:
DOCKED: REMARK  status: ('A' for Active; 'I' for Inactive)
DOCKED: REMARK    1  A    between atoms: C_1  and  O_7 
DOCKED: REMARK    2  A    between atoms: C_2  and  O_12 
DOCKED: REMARK    3  A    between atoms: C_3  and  O_17 
DOCKED: REMARK    4  A    between atoms: C_4  and  O_22 
DOCKED: REMARK    5  A    between atoms: C_5  and  O_27 
DOCKED: REMARK    6  A    between atoms: C_6  and  O_32 
DOCKED: REMARK    7  A    between atoms: O_7  and  P_8 
DOCKED: REMARK    8  A    between atoms: P_8  and  O_10 
DOCKED: REMARK    9  A    between atoms: P_8  and  O_11 
DOCKED: REMARK   10  A    between atoms: O_12  and  P_13 
DOCKED: REMARK   11  A    between atoms: P_13  and  O_15 
DOCKED: REMARK   12  A    between atoms: P_13  and  O_16 
DOCKED: REMARK   13  A    between atoms: O_17  and  P_18 
DOCKED: REMARK   14  A    between atoms: P_18  and  O_20 
DOCKED: REMARK   15  A    between atoms: P_18  and  O_21 
DOCKED: REMARK   16  A    between atoms: O_22  and  P_23 
DOCKED: REMARK   17  A    between atoms: P_23  and  O_25 
DOCKED: REMARK   18  A    between atoms: P_23  and  O_26 
DOCKED: REMARK   19  A    between atoms: O_27  and  P_28 
DOCKED: REMARK   20  A    between atoms: P_28  and  O_30 
DOCKED: REMARK   21  A    between atoms: P_28  and  O_31 
DOCKED: REMARK   22  A    between atoms: O_32  and  P_33 
DOCKED: REMARK   23  A    between atoms: P_33  and  O_35 
DOCKED: REMARK   24  A    between atoms: P_33  and  O_36 
DOCKED: USER                              x       y       z     vdW  Elec       q    Type
DOCKED: USER                           _______ _______ _______ _____ _____    ______ ____
DOCKED: ROOT
DOCKED: ATOM      1  C   UNL d   1      15.690 -22.617  15.350 -0.01 +0.02    +0.194 C 
DOCKED: ATOM      2  C   UNL d   1      16.903 -21.705  15.537 -0.06 +0.01    +0.194 C 
DOCKED: ATOM      3  C   UNL d   1      17.134 -21.364  17.011 -0.14 +0.02    +0.194 C 
DOCKED: ATOM      4  C   UNL d   1      17.193 -22.596  17.911 +0.22 -0.02    +0.194 C 
DOCKED: ATOM      5  C   UNL d   1      16.063 -23.590  17.677 -0.08 -0.00    +0.194 C 
DOCKED: ATOM      6  C   UNL d   1      15.792 -23.884  16.200 -0.03 +0.00    +0.194 C 
DOCKED: ENDROOT
DOCKED: BRANCH   1   7
DOCKED: ATOM      7  O   UNL d   1      15.646 -23.026  13.980 -0.01 -0.02    -0.278 OA
DOCKED: BRANCH   7   8
DOCKED: ATOM      8  P   UNL d   1      16.370 -24.390  13.572 +0.01 -0.01    +0.473 P 
DOCKED: ATOM      9  O   UNL d   1      17.478 -24.810  14.472 -0.04 +0.04    -0.228 OA
DOCKED: BRANCH   8  10
DOCKED: ATOM     10  O   UNL d   1      15.182 -25.452  13.500 -0.00 -0.01    -0.303 OA
DOCKED: ATOM     11  H   UNL d   1      14.443 -25.155  14.063 +0.00 +0.01    +0.222 HD
DOCKED: ENDBRANCH   8  10
DOCKED: BRANCH   8  12
DOCKED: ATOM     12  O   UNL d   1      16.750 -24.212  12.039 -0.01 +0.01    -0.303 OA
DOCKED: ATOM     13  H   UNL d   1      17.190 -23.353  11.848 +0.04 -0.01    +0.222 HD
DOCKED: ENDBRANCH   8  12
DOCKED: ENDBRANCH   7   8
DOCKED: ENDBRANCH   1   7
DOCKED: BRANCH   2  14
DOCKED: ATOM     14  O   UNL d   1      18.069 -22.370  15.034 -0.09 +0.04    -0.278 OA
DOCKED: BRANCH  14  15
DOCKED: ATOM     15  P   UNL d   1      18.830 -21.659  13.818 -0.08 -0.06    +0.473 P 
DOCKED: ATOM     16  O   UNL d   1      18.245 -20.375  13.318 -0.11 -0.02    -0.228 OA
DOCKED: BRANCH  15  17
DOCKED: ATOM     17  O   UNL d   1      20.326 -21.493  14.340 -0.20 +0.14    -0.303 OA
DOCKED: ATOM     18  H   UNL d   1      20.677 -22.340  14.676 -0.43 -0.28    +0.222 HD
DOCKED: ENDBRANCH  15  17
DOCKED: BRANCH  15  19
DOCKED: ATOM     19  O   UNL d   1      18.997 -22.806  12.729 -0.09 +0.06    -0.303 OA
DOCKED: ATOM     20  H   UNL d   1      18.637 -23.656  13.043 +0.05 -0.05    +0.222 HD
DOCKED: ENDBRANCH  15  19
DOCKED: ENDBRANCH  14  15
DOCKED: ENDBRANCH   2  14
DOCKED: BRANCH   6  21
DOCKED: ATOM     21  O   UNL d   1      14.525 -24.535  16.135 -0.00 -0.02    -0.278 OA
DOCKED: BRANCH  21  22
DOCKED: ATOM     22  P   UNL d   1      13.186 -23.676  16.263 +0.01 +0.09    +0.473 P 
DOCKED: ATOM     23  O   UNL d   1      12.735 -22.893  15.077 +0.00 -0.06    -0.228 OA
DOCKED: BRANCH  22  24
DOCKED: ATOM     24  O   UNL d   1      12.148 -24.768  16.777 +0.00 -0.04    -0.303 OA
DOCKED: ATOM     25  H   UNL d   1      12.220 -24.822  17.764 +0.00 +0.03    +0.222 HD
DOCKED: ENDBRANCH  22  24
DOCKED: BRANCH  22  26
DOCKED: ATOM     26  O   UNL d   1      13.467 -22.833  17.598 -0.00 -0.08    -0.303 OA
DOCKED: ATOM     27  H   UNL d   1      13.882 -23.416  18.265 +0.03 +0.04    +0.222 HD
DOCKED: ENDBRANCH  22  26
DOCKED: ENDBRANCH  21  22
DOCKED: ENDBRANCH   6  21
DOCKED: BRANCH   3  28
DOCKED: ATOM     28  O   UNL d   1      18.416 -20.759  17.115 -0.23 -0.01    -0.278 OA
DOCKED: BRANCH  28  29
DOCKED: ATOM     29  P   UNL d   1      18.578 -19.330  17.800 -0.26 +0.12    +0.473 P 
DOCKED: ATOM     30  O   UNL d   1      18.071 -18.179  17.009 -0.15 -0.07    -0.228 OA
DOCKED: BRANCH  29  31
DOCKED: ATOM     31  O   UNL d   1      17.870 -19.613  19.207 -0.86 -0.16    -0.303 OA
DOCKED: ATOM     32  H   UNL d   1      16.963 -19.960  19.038 +0.11 +0.11    +0.222 HD
DOCKED: ENDBRANCH  29  31
DOCKED: BRANCH  29  33
DOCKED: ATOM     33  O   UNL d   1      20.124 -19.316  18.181 -0.89 -0.05    -0.303 OA
DOCKED: ATOM     34  H   UNL d   1      20.614 -19.904  17.556 -0.41 -0.11    +0.222 HD
DOCKED: ENDBRANCH  29  33
DOCKED: ENDBRANCH  28  29
DOCKED: ENDBRANCH   3  28
DOCKED: BRANCH   5  35
DOCKED: ATOM     35  O   UNL d   1      16.492 -24.811  18.276 -0.08 +0.03    -0.278 OA
DOCKED: BRANCH  35  36
DOCKED: ATOM     36  P   UNL d   1      15.500 -25.642  19.209 -0.02 -0.00    +0.473 P 
DOCKED: ATOM     37  O   UNL d   1      15.623 -27.130  19.118 -0.01 +0.00    -0.228 OA
DOCKED: BRANCH  36  38
DOCKED: ATOM     38  O   UNL d   1      15.828 -25.045  20.648 -0.09 +0.01    -0.303 OA
DOCKED: ATOM     39  H   UNL d   1      16.312 -24.198  20.541 +0.01 -0.02    +0.222 HD
DOCKED: ENDBRANCH  36  38
DOCKED: BRANCH  36  40
DOCKED: ATOM     40  O   UNL d   1      14.085 -25.012  18.846 -0.01 -0.02    -0.303 OA
DOCKED: ATOM     41  H   UNL d   1      13.957 -24.941  17.874 +0.01 +0.02    +0.222 HD
DOCKED: ENDBRANCH  36  40
DOCKED: ENDBRANCH  35  36
DOCKED: ENDBRANCH   5  35
DOCKED: BRANCH   4  42
DOCKED: ATOM     42  O   UNL d   1      17.073 -22.130  19.259 -0.25 -0.02    -0.278 OA
DOCKED: BRANCH  42  43
DOCKED: ATOM     43  P   UNL d   1      15.679 -21.524  19.744 -0.21 +0.15    +0.473 P 
DOCKED: ATOM     44  O   UNL d   1      15.714 -20.505  20.830 -0.17 -0.12    -0.228 OA
DOCKED: BRANCH  43  45
DOCKED: ATOM     45  O   UNL d   1      15.033 -21.005  18.385 -0.09 -0.15    -0.303 OA
DOCKED: ATOM     46  H   UNL d   1      14.177 -21.444  18.206 +0.05 +0.11    +0.222 HD
DOCKED: ENDBRANCH  43  45
DOCKED: BRANCH  43  47
DOCKED: ATOM     47  O   UNL d   1      14.798 -22.828  20.047 -0.07 -0.05    -0.303 OA
DOCKED: ATOM     48  H   UNL d   1      14.961 -23.497  19.350 +0.05 +0.02    +0.222 HD
DOCKED: ENDBRANCH  43  47
DOCKED: ENDBRANCH  42  43
DOCKED: ENDBRANCH   4  42
DOCKED: TORSDOF 24
DOCKED: TER
DOCKED: ENDMDL
________________________________________________________________________________


	BEGINNING GENETIC ALGORITHM DOCKING 39 of 100
Run: 39 Seed: 2101753310 2093243650 [ Run 39 of 100 GA/GALS ]
Beginning LAMARCKIAN GENETIC ALGORITHM (LGA), with a maximum of 25000000 energy evaluations.

Final-Value: -16.914


	FINAL GENETIC ALGORITHM DOCKED STATE
	_______________________________________________


Detailed state:  trans 29.357 14.481 25.007 quatxyzw -0.143147 -0.653468 0.389389 0.633139 center 0.035 0.082 -0.065 ntor 24 -180.0000 -48.2667 168.9872 -44.3821 94.0794 149.2647 102.1428 -78.9813 59.0817 -36.1818 74.2370 -63.7015 88.1476 174.4344 -99.5441 -124.9975 114.0457 35.1304 -33.1731 18.6979 137.2594 -0.4481 152.3664 -148.8872
State:	 29.357  14.481  25.007  -0.185 -0.844  0.503 101.436   -180.00  -48.27  168.99  -44.38   94.08  149.26  102.14  -78.98   59.08  -36.18   74.24  -63.70   88.15  174.43  -99.54 -125.00  114.05   35.13  -33.17   18.70  137.26   -0.45  152.37 -148.89

DOCKED: MODEL       39
DOCKED: USER    Run = 39
DOCKED: USER    DPF = D:/Protein_go_brrr/autodock/final/1A3N/IHP/dock.dpf
DOCKED: USER  
DOCKED: USER    Estimated Free Energy of Binding    =   +1.43 kcal/mol  [=(1)+(2)+(3)-(4)]
DOCKED: USER    
DOCKED: USER    (1) Final Intermolecular Energy     =   -5.73 kcal/mol
DOCKED: USER        vdW + Hbond + desolv Energy     =   -5.49 kcal/mol
DOCKED: USER        Electrostatic Energy            =   -0.24 kcal/mol
DOCKED: USER    (2) Final Total Internal Energy     =  -11.18 kcal/mol
DOCKED: USER    (3) Torsional Free Energy           =   +7.16 kcal/mol
DOCKED: USER    (4) Unbound System's Energy  [=(2)] =  -11.18 kcal/mol
DOCKED: USER    
DOCKED: USER    
DOCKED: USER    NEWDPF move IHP_ideal_opt.pdbqt
DOCKED: USER    NEWDPF about 0.035000 0.082000 -0.065000
DOCKED: USER    NEWDPF tran0 29.357422 14.480718 25.006701
DOCKED: USER    NEWDPF quaternion0 -0.143147 -0.653468 0.389389 0.633139
DOCKED: USER    NEWDPF axisangle0 -0.184935 -0.844232 0.503062 101.435787
DOCKED: USER    NEWDPF quat0 -0.184935 -0.844232 0.503062 101.435787
DOCKED: USER    NEWDPF dihe0 -180.00 -48.27 168.99 -44.38 94.08 149.26 102.14 -78.98 59.08 -36.18 74.24 -63.70 88.15 174.43 -99.54 -125.00 114.05 35.13 -33.17 18.70 137.26 -0.45 152.37 -148.89 
DOCKED: USER  keepresnum = 1 
DOCKED: USER  
DOCKED: REMARK  24 active torsions:
DOCKED: REMARK  status: ('A' for Active; 'I' for Inactive)
DOCKED: REMARK    1  A    between atoms: C_1  and  O_7 
DOCKED: REMARK    2  A    between atoms: C_2  and  O_12 
DOCKED: REMARK    3  A    between atoms: C_3  and  O_17 
DOCKED: REMARK    4  A    between atoms: C_4  and  O_22 
DOCKED: REMARK    5  A    between atoms: C_5  and  O_27 
DOCKED: REMARK    6  A    between atoms: C_6  and  O_32 
DOCKED: REMARK    7  A    between atoms: O_7  and  P_8 
DOCKED: REMARK    8  A    between atoms: P_8  and  O_10 
DOCKED: REMARK    9  A    between atoms: P_8  and  O_11 
DOCKED: REMARK   10  A    between atoms: O_12  and  P_13 
DOCKED: REMARK   11  A    between atoms: P_13  and  O_15 
DOCKED: REMARK   12  A    between atoms: P_13  and  O_16 
DOCKED: REMARK   13  A    between atoms: O_17  and  P_18 
DOCKED: REMARK   14  A    between atoms: P_18  and  O_20 
DOCKED: REMARK   15  A    between atoms: P_18  and  O_21 
DOCKED: REMARK   16  A    between atoms: O_22  and  P_23 
DOCKED: REMARK   17  A    between atoms: P_23  and  O_25 
DOCKED: REMARK   18  A    between atoms: P_23  and  O_26 
DOCKED: REMARK   19  A    between atoms: O_27  and  P_28 
DOCKED: REMARK   20  A    between atoms: P_28  and  O_30 
DOCKED: REMARK   21  A    between atoms: P_28  and  O_31 
DOCKED: REMARK   22  A    between atoms: O_32  and  P_33 
DOCKED: REMARK   23  A    between atoms: P_33  and  O_35 
DOCKED: REMARK   24  A    between atoms: P_33  and  O_36 
DOCKED: USER                              x       y       z     vdW  Elec       q    Type
DOCKED: USER                           _______ _______ _______ _____ _____    ______ ____
DOCKED: ROOT
DOCKED: ATOM      1  C   UNL d   1      29.123  12.969  24.204 -0.19 -0.04    +0.194 C 
DOCKED: ATOM      2  C   UNL d   1      28.508  13.078  25.601 -0.15 -0.03    +0.194 C 
DOCKED: ATOM      3  C   UNL d   1      29.460  13.758  26.587 -0.10 -0.03    +0.194 C 
DOCKED: ATOM      4  C   UNL d   1      29.991  15.098  26.084 -0.04 -0.03    +0.194 C 
DOCKED: ATOM      5  C   UNL d   1      30.510  15.062  24.652 -0.04 -0.03    +0.194 C 
DOCKED: ATOM      6  C   UNL d   1      29.586  14.328  23.677 -0.10 -0.05    +0.194 C 
DOCKED: ENDROOT
DOCKED: BRANCH   1   7
DOCKED: ATOM      7  O   UNL d   1      28.117  12.486  23.311 -0.24 +0.08    -0.278 OA
DOCKED: BRANCH   7   8
DOCKED: ATOM      8  P   UNL d   1      28.581  11.732  21.981 -0.26 -0.15    +0.473 P 
DOCKED: ATOM      9  O   UNL d   1      27.765  10.543  21.613 -0.42 +0.04    -0.228 OA
DOCKED: BRANCH   8  10
DOCKED: ATOM     10  O   UNL d   1      28.568  12.872  20.865 -0.27 +0.18    -0.303 OA
DOCKED: ATOM     11  H   UNL d   1      28.639  13.747  21.291 -0.33 -0.21    +0.222 HD
DOCKED: ENDBRANCH   8  10
DOCKED: BRANCH   8  12
DOCKED: ATOM     12  O   UNL d   1      30.137  11.474  22.175 -0.20 +0.10    -0.303 OA
DOCKED: ATOM     13  H   UNL d   1      30.697  12.182  21.784 +0.15 -0.06    +0.222 HD
DOCKED: ENDBRANCH   8  12
DOCKED: ENDBRANCH   7   8
DOCKED: ENDBRANCH   1   7
DOCKED: BRANCH   2  14
DOCKED: ATOM     14  O   UNL d   1      27.304  13.852  25.522 -0.14 +0.05    -0.278 OA
DOCKED: BRANCH  14  15
DOCKED: ATOM     15  P   UNL d   1      26.161  13.508  26.589 -0.12 -0.08    +0.473 P 
DOCKED: ATOM     16  O   UNL d   1      24.782  13.289  26.051 -0.36 +0.07    -0.228 OA
DOCKED: BRANCH  15  17
DOCKED: ATOM     17  O   UNL d   1      26.728  12.239  27.368 -0.04 +0.02    -0.303 OA
DOCKED: ATOM     18  H   UNL d   1      27.453  12.492  27.972 +0.11 -0.02    +0.222 HD
DOCKED: ENDBRANCH  15  17
DOCKED: BRANCH  15  19
DOCKED: ATOM     19  O   UNL d   1      26.294  14.645  27.693 -0.10 +0.05    -0.303 OA
DOCKED: ATOM     20  H   UNL d   1      26.724  14.314  28.502 +0.08 -0.03    +0.222 HD
DOCKED: ENDBRANCH  15  19
DOCKED: ENDBRANCH  14  15
DOCKED: ENDBRANCH   2  14
DOCKED: BRANCH   6  21
DOCKED: ATOM     21  O   UNL d   1      30.346  14.081  22.496 -0.07 +0.08    -0.278 OA
DOCKED: BRANCH  21  22
DOCKED: ATOM     22  P   UNL d   1      31.904  13.759  22.610 -0.02 -0.09    +0.473 P 
DOCKED: ATOM     23  O   UNL d   1      32.822  14.857  23.033 -0.07 +0.03    -0.228 OA
DOCKED: BRANCH  22  24
DOCKED: ATOM     24  O   UNL d   1      31.905  12.484  23.562 -0.15 +0.04    -0.303 OA
DOCKED: ATOM     25  H   UNL d   1      31.046  12.006  23.436 +0.12 -0.04    +0.222 HD
DOCKED: ENDBRANCH  22  24
DOCKED: BRANCH  22  26
DOCKED: ATOM     26  O   UNL d   1      32.207  13.104  21.178 -0.16 +0.09    -0.303 OA
DOCKED: ATOM     27  H   UNL d   1      31.380  12.723  20.818 +0.16 -0.07    +0.222 HD
DOCKED: ENDBRANCH  22  26
DOCKED: ENDBRANCH  21  22
DOCKED: ENDBRANCH   6  21
DOCKED: BRANCH   3  28
DOCKED: ATOM     28  O   UNL d   1      28.715  14.064  27.759 -0.05 +0.04    -0.278 OA
DOCKED: BRANCH  28  29
DOCKED: ATOM     29  P   UNL d   1      28.990  13.275  29.115 -0.14 -0.10    +0.473 P 
DOCKED: ATOM     30  O   UNL d   1      27.825  13.146  30.029 -0.14 +0.05    -0.228 OA
DOCKED: BRANCH  29  31
DOCKED: ATOM     31  O   UNL d   1      29.607  11.919  28.530 -0.67 +0.05    -0.303 OA
DOCKED: ATOM     32  H   UNL d   1      30.196  11.522  29.212 -0.23 -0.09    +0.222 HD
DOCKED: ENDBRANCH  29  31
DOCKED: BRANCH  29  33
DOCKED: ATOM     33  O   UNL d   1      30.272  14.027  29.686 -0.15 +0.11    -0.303 OA
DOCKED: ATOM     34  H   UNL d   1      30.716  14.511  28.947 -0.15 -0.09    +0.222 HD
DOCKED: ENDBRANCH  29  33
DOCKED: ENDBRANCH  28  29
DOCKED: ENDBRANCH   3  28
DOCKED: BRANCH   5  35
DOCKED: ATOM     35  O   UNL d   1      30.572  16.422  24.228 -0.00 +0.03    -0.278 OA
DOCKED: BRANCH  35  36
DOCKED: ATOM     36  P   UNL d   1      29.241  17.196  23.811 +0.02 -0.07    +0.473 P 
DOCKED: ATOM     37  O   UNL d   1      29.317  18.688  23.871 -0.01 +0.01    -0.228 OA
DOCKED: BRANCH  36  38
DOCKED: ATOM     38  O   UNL d   1      28.968  16.613  22.354 -0.09 +0.10    -0.303 OA
DOCKED: ATOM     39  H   UNL d   1      29.754  16.104  22.059 +0.08 -0.07    +0.222 HD
DOCKED: ENDBRANCH  36  38
DOCKED: BRANCH  36  40
DOCKED: ATOM     40  O   UNL d   1      28.140  16.492  24.717 -0.03 +0.06    -0.303 OA
DOCKED: ATOM     41  H   UNL d   1      27.876  15.616  24.355 +0.06 -0.07    +0.222 HD
DOCKED: ENDBRANCH  36  40
DOCKED: ENDBRANCH  35  36
DOCKED: ENDBRANCH   5  35
DOCKED: BRANCH   4  42
DOCKED: ATOM     42  O   UNL d   1      31.097  15.447  26.923 -0.06 +0.04    -0.278 OA
DOCKED: BRANCH  42  43
DOCKED: ATOM     43  P   UNL d   1      32.579  15.181  26.397 -0.12 -0.05    +0.473 P 
DOCKED: ATOM     44  O   UNL d   1      33.166  16.180  25.462 -0.06 +0.01    -0.228 OA
DOCKED: BRANCH  43  45
DOCKED: ATOM     45  O   UNL d   1      33.400  14.992  27.747 -0.20 +0.06    -0.303 OA
DOCKED: ATOM     46  H   UNL d   1      32.821  15.063  28.532 -0.51 -0.14    +0.222 HD
DOCKED: ENDBRANCH  43  45
DOCKED: BRANCH  43  47
DOCKED: ATOM     47  O   UNL d   1      32.508  13.677  25.847 -0.17 +0.02    -0.303 OA
DOCKED: ATOM     48  H   UNL d   1      32.658  13.680  24.879 +0.08 -0.01    +0.222 HD
DOCKED: ENDBRANCH  43  47
DOCKED: ENDBRANCH  42  43
DOCKED: ENDBRANCH   4  42
DOCKED: TORSDOF 24
DOCKED: TER
DOCKED: ENDMDL
________________________________________________________________________________


	BEGINNING GENETIC ALGORITHM DOCKING 40 of 100
Run: 40 Seed: 1140191706 25249796 [ Run 40 of 100 GA/GALS ]
Beginning LAMARCKIAN GENETIC ALGORITHM (LGA), with a maximum of 25000000 energy evaluations.

Final-Value: -17.090


	FINAL GENETIC ALGORITHM DOCKED STATE
	_______________________________________________


Detailed state:  trans 9.340 -8.202 19.929 quatxyzw -0.119924 0.397528 0.905438 -0.088161 center 0.035 0.082 -0.065 ntor 24 104.1904 107.5652 135.6925 -2.9168 152.9279 35.3484 -1.3777 -119.1673 -18.9259 -91.6623 -137.7425 120.9219 -71.3258 -135.4070 129.1902 -50.6696 -104.9124 174.3744 -150.8501 0.6084 134.9717 145.8015 -85.9115 168.6625
State:	  9.340  -8.202  19.929  -0.120  0.399  0.909 -169.884    104.19  107.57  135.69   -2.92  152.93   35.35   -1.38 -119.17  -18.93  -91.66 -137.74  120.92  -71.33 -135.41  129.19  -50.67 -104.91  174.37 -150.85    0.61  134.97  145.80  -85.91  168.66

DOCKED: MODEL       40
DOCKED: USER    Run = 40
DOCKED: USER    DPF = D:/Protein_go_brrr/autodock/final/1A3N/IHP/dock.dpf
DOCKED: USER  
DOCKED: USER    Estimated Free Energy of Binding    =   +2.38 kcal/mol  [=(1)+(2)+(3)-(4)]
DOCKED: USER    
DOCKED: USER    (1) Final Intermolecular Energy     =   -4.78 kcal/mol
DOCKED: USER        vdW + Hbond + desolv Energy     =   -4.60 kcal/mol
DOCKED: USER        Electrostatic Energy            =   -0.18 kcal/mol
DOCKED: USER    (2) Final Total Internal Energy     =  -12.31 kcal/mol
DOCKED: USER    (3) Torsional Free Energy           =   +7.16 kcal/mol
DOCKED: USER    (4) Unbound System's Energy  [=(2)] =  -12.31 kcal/mol
DOCKED: USER    
DOCKED: USER    
DOCKED: USER    NEWDPF move IHP_ideal_opt.pdbqt
DOCKED: USER    NEWDPF about 0.035000 0.082000 -0.065000
DOCKED: USER    NEWDPF tran0 9.340205 -8.201985 19.929431
DOCKED: USER    NEWDPF quaternion0 -0.119924 0.397528 0.905438 -0.088161
DOCKED: USER    NEWDPF axisangle0 -0.120392 0.399081 0.908977 -169.884365
DOCKED: USER    NEWDPF quat0 -0.120392 0.399081 0.908977 -169.884365
DOCKED: USER    NEWDPF dihe0 104.19 107.57 135.69 -2.92 152.93 35.35 -1.38 -119.17 -18.93 -91.66 -137.74 120.92 -71.33 -135.41 129.19 -50.67 -104.91 174.37 -150.85 0.61 134.97 145.80 -85.91 168.66 
DOCKED: USER  keepresnum = 1 
DOCKED: USER  
DOCKED: REMARK  24 active torsions:
DOCKED: REMARK  status: ('A' for Active; 'I' for Inactive)
DOCKED: REMARK    1  A    between atoms: C_1  and  O_7 
DOCKED: REMARK    2  A    between atoms: C_2  and  O_12 
DOCKED: REMARK    3  A    between atoms: C_3  and  O_17 
DOCKED: REMARK    4  A    between atoms: C_4  and  O_22 
DOCKED: REMARK    5  A    between atoms: C_5  and  O_27 
DOCKED: REMARK    6  A    between atoms: C_6  and  O_32 
DOCKED: REMARK    7  A    between atoms: O_7  and  P_8 
DOCKED: REMARK    8  A    between atoms: P_8  and  O_10 
DOCKED: REMARK    9  A    between atoms: P_8  and  O_11 
DOCKED: REMARK   10  A    between atoms: O_12  and  P_13 
DOCKED: REMARK   11  A    between atoms: P_13  and  O_15 
DOCKED: REMARK   12  A    between atoms: P_13  and  O_16 
DOCKED: REMARK   13  A    between atoms: O_17  and  P_18 
DOCKED: REMARK   14  A    between atoms: P_18  and  O_20 
DOCKED: REMARK   15  A    between atoms: P_18  and  O_21 
DOCKED: REMARK   16  A    between atoms: O_22  and  P_23 
DOCKED: REMARK   17  A    between atoms: P_23  and  O_25 
DOCKED: REMARK   18  A    between atoms: P_23  and  O_26 
DOCKED: REMARK   19  A    between atoms: O_27  and  P_28 
DOCKED: REMARK   20  A    between atoms: P_28  and  O_30 
DOCKED: REMARK   21  A    between atoms: P_28  and  O_31 
DOCKED: REMARK   22  A    between atoms: O_32  and  P_33 
DOCKED: REMARK   23  A    between atoms: P_33  and  O_35 
DOCKED: REMARK   24  A    between atoms: P_33  and  O_36 
DOCKED: USER                              x       y       z     vdW  Elec       q    Type
DOCKED: USER                           _______ _______ _______ _____ _____    ______ ____
DOCKED: ROOT
DOCKED: ATOM      1  C   UNL d   1       8.253  -6.942  19.467 -0.04 +0.04    +0.194 C 
DOCKED: ATOM      2  C   UNL d   1       9.705  -6.758  19.022 -0.03 +0.05    +0.194 C 
DOCKED: ATOM      3  C   UNL d   1      10.689  -7.121  20.136 -0.10 +0.06    +0.194 C 
DOCKED: ATOM      4  C   UNL d   1      10.439  -8.504  20.733 -0.12 +0.04    +0.194 C 
DOCKED: ATOM      5  C   UNL d   1       8.981  -8.773  21.086 -0.08 +0.03    +0.194 C 
DOCKED: ATOM      6  C   UNL d   1       7.993  -8.353  19.996 -0.03 +0.04    +0.194 C 
DOCKED: ENDROOT
DOCKED: BRANCH   1   7
DOCKED: ATOM      7  O   UNL d   1       7.410  -6.751  18.329 -0.03 -0.05    -0.278 OA
DOCKED: BRANCH   7   8
DOCKED: ATOM      8  P   UNL d   1       7.113  -8.006  17.385 -0.02 +0.11    +0.473 P 
DOCKED: ATOM      9  O   UNL d   1       8.083  -9.129  17.505 -0.02 -0.06    -0.228 OA
DOCKED: BRANCH   8  10
DOCKED: ATOM     10  O   UNL d   1       5.619  -8.424  17.757 -0.11 -0.07    -0.303 OA
DOCKED: ATOM     11  H   UNL d   1       5.547  -8.560  18.720 +0.08 +0.05    +0.222 HD
DOCKED: ENDBRANCH   8  10
DOCKED: BRANCH   8  12
DOCKED: ATOM     12  O   UNL d   1       6.936  -7.395  15.929 +0.01 -0.09    -0.303 OA
DOCKED: ATOM     13  H   UNL d   1       7.747  -6.949  15.597 +0.06 +0.07    +0.222 HD
DOCKED: ENDBRANCH   8  12
DOCKED: ENDBRANCH   7   8
DOCKED: ENDBRANCH   1   7
DOCKED: BRANCH   2  14
DOCKED: ATOM     14  O   UNL d   1       9.958  -7.606  17.895 -0.00 -0.09    -0.278 OA
DOCKED: BRANCH  14  15
DOCKED: ATOM     15  P   UNL d   1      10.693  -6.930  16.642 +0.02 +0.19    +0.473 P 
DOCKED: ATOM     16  O   UNL d   1       9.839  -6.115  15.722 -0.02 -0.08    -0.228 OA
DOCKED: BRANCH  15  17
DOCKED: ATOM     17  O   UNL d   1      11.876  -6.087  17.296 -0.34 -0.20    -0.303 OA
DOCKED: ATOM     18  H   UNL d   1      12.291  -6.575  18.033 +0.04 +0.21    +0.222 HD
DOCKED: ENDBRANCH  15  17
DOCKED: BRANCH  15  19
DOCKED: ATOM     19  O   UNL d   1      11.491  -8.124  15.959 -0.01 -0.12    -0.303 OA
DOCKED: ATOM     20  H   UNL d   1      12.167  -8.494  16.557 +0.05 +0.10    +0.222 HD
DOCKED: ENDBRANCH  15  19
DOCKED: ENDBRANCH  14  15
DOCKED: ENDBRANCH   2  14
DOCKED: BRANCH   6  21
DOCKED: ATOM     21  O   UNL d   1       6.699  -8.343  20.595 -0.05 -0.05    -0.278 OA
DOCKED: BRANCH  21  22
DOCKED: ATOM     22  P   UNL d   1       6.542  -7.955  22.134 -0.07 +0.06    +0.473 P 
DOCKED: ATOM     23  O   UNL d   1       5.205  -7.499  22.614 -0.14 -0.04    -0.228 OA
DOCKED: BRANCH  22  24
DOCKED: ATOM     24  O   UNL d   1       7.102  -9.257  22.858 -0.10 -0.02    -0.303 OA
DOCKED: ATOM     25  H   UNL d   1       8.085  -9.162  22.946 +0.11 -0.00    +0.222 HD
DOCKED: ENDBRANCH  22  24
DOCKED: BRANCH  22  26
DOCKED: ATOM     26  O   UNL d   1       7.750  -6.920  22.334 -0.16 -0.03    -0.303 OA
DOCKED: ATOM     27  H   UNL d   1       8.183  -7.093  23.194 +0.13 +0.01    +0.222 HD
DOCKED: ENDBRANCH  22  26
DOCKED: ENDBRANCH  21  22
DOCKED: ENDBRANCH   6  21
DOCKED: BRANCH   3  28
DOCKED: ATOM     28  O   UNL d   1      11.986  -7.189  19.557 -0.31 -0.19    -0.278 OA
DOCKED: BRANCH  28  29
DOCKED: ATOM     29  P   UNL d   1      12.659  -8.601  19.256 -0.08 +0.32    +0.473 P 
DOCKED: ATOM     30  O   UNL d   1      13.212  -9.311  20.438 -0.47 -0.13    -0.228 OA
DOCKED: BRANCH  29  31
DOCKED: ATOM     31  O   UNL d   1      11.464  -9.319  18.470 -0.04 -0.12    -0.303 OA
DOCKED: ATOM     32  H   UNL d   1      11.150  -8.716  17.758 +0.05 +0.09    +0.222 HD
DOCKED: ENDBRANCH  29  31
DOCKED: BRANCH  29  33
DOCKED: ATOM     33  O   UNL d   1      13.682  -8.242  18.090 -0.29 -0.26    -0.303 OA
DOCKED: ATOM     34  H   UNL d   1      13.177  -7.880  17.320 +0.04 +0.15    +0.222 HD
DOCKED: ENDBRANCH  29  33
DOCKED: ENDBRANCH  28  29
DOCKED: ENDBRANCH   3  28
DOCKED: BRANCH   5  35
DOCKED: ATOM     35  O   UNL d   1       8.873 -10.188  21.228 -0.07 -0.04    -0.278 OA
DOCKED: BRANCH  35  36
DOCKED: ATOM     36  P   UNL d   1       9.977 -11.002  22.042 -0.12 +0.04    +0.473 P 
DOCKED: ATOM     37  O   UNL d   1      11.370 -10.913  21.504 -0.32 -0.05    -0.228 OA
DOCKED: BRANCH  36  38
DOCKED: ATOM     38  O   UNL d   1       9.803 -10.409  23.510 -0.27 +0.07    -0.303 OA
DOCKED: ATOM     39  H   UNL d   1      10.382  -9.623  23.609 -0.32 -0.08    +0.222 HD
DOCKED: ENDBRANCH  36  38
DOCKED: BRANCH  36  40
DOCKED: ATOM     40  O   UNL d   1       9.330 -12.452  22.135 -0.11 -0.03    -0.303 OA
DOCKED: ATOM     41  H   UNL d   1       9.386 -12.817  23.046 -0.49 -0.07    +0.222 HD
DOCKED: ENDBRANCH  36  40
DOCKED: ENDBRANCH  35  36
DOCKED: ENDBRANCH   5  35
DOCKED: BRANCH   4  42
DOCKED: ATOM     42  O   UNL d   1      11.186  -8.571  21.952 -0.21 -0.03    -0.278 OA
DOCKED: BRANCH  42  43
DOCKED: ATOM     43  P   UNL d   1      10.909  -7.486  23.087 -0.11 +0.03    +0.473 P 
DOCKED: ATOM     44  O   UNL d   1      12.086  -6.947  23.825 -0.43 -0.04    -0.228 OA
DOCKED: BRANCH  43  45
DOCKED: ATOM     45  O   UNL d   1      10.063  -6.381  22.315 -0.10 -0.05    -0.303 OA
DOCKED: ATOM     46  H   UNL d   1       9.433  -5.931  22.913 +0.15 +0.03    +0.222 HD
DOCKED: ENDBRANCH  43  45
DOCKED: BRANCH  43  47
DOCKED: ATOM     47  O   UNL d   1       9.785  -8.183  23.993 -0.25 +0.02    -0.303 OA
DOCKED: ATOM     48  H   UNL d   1       8.994  -8.362  23.445 +0.13 -0.01    +0.222 HD
DOCKED: ENDBRANCH  43  47
DOCKED: ENDBRANCH  42  43
DOCKED: ENDBRANCH   4  42
DOCKED: TORSDOF 24
DOCKED: TER
DOCKED: ENDMDL
________________________________________________________________________________


	BEGINNING GENETIC ALGORITHM DOCKING 41 of 100
Run: 41 Seed: 833945419 1367622329 [ Run 41 of 100 GA/GALS ]
Beginning LAMARCKIAN GENETIC ALGORITHM (LGA), with a maximum of 25000000 energy evaluations.

Final-Value: -17.590


	FINAL GENETIC ALGORITHM DOCKED STATE
	_______________________________________________


Detailed state:  trans -8.094 -7.882 -10.795 quatxyzw -0.846409 0.370184 -0.188159 0.333396 center 0.035 0.082 -0.065 ntor 24 -127.1846 -28.1535 53.0855 54.0978 15.4812 -147.3736 71.1948 -90.0693 160.9288 -14.2840 143.4013 -179.8356 99.4993 158.8164 0.7032 105.0764 106.0022 -140.3019 -26.3486 -20.2857 152.0258 -30.3222 -42.5583 160.5962
State:	 -8.094  -7.882 -10.795  -0.898  0.393 -0.200 141.050   -127.18  -28.15   53.09   54.10   15.48 -147.37   71.19  -90.07  160.93  -14.28  143.40 -179.84   99.50  158.82    0.70  105.08  106.00 -140.30  -26.35  -20.29  152.03  -30.32  -42.56  160.60

DOCKED: MODEL       41
DOCKED: USER    Run = 41
DOCKED: USER    DPF = D:/Protein_go_brrr/autodock/final/1A3N/IHP/dock.dpf
DOCKED: USER  
DOCKED: USER    Estimated Free Energy of Binding    =   +5.01 kcal/mol  [=(1)+(2)+(3)-(4)]
DOCKED: USER    
DOCKED: USER    (1) Final Intermolecular Energy     =   -2.15 kcal/mol
DOCKED: USER        vdW + Hbond + desolv Energy     =   -1.80 kcal/mol
DOCKED: USER        Electrostatic Energy            =   -0.35 kcal/mol
DOCKED: USER    (2) Final Total Internal Energy     =  -15.44 kcal/mol
DOCKED: USER    (3) Torsional Free Energy           =   +7.16 kcal/mol
DOCKED: USER    (4) Unbound System's Energy  [=(2)] =  -15.44 kcal/mol
DOCKED: USER    
DOCKED: USER    
DOCKED: USER    NEWDPF move IHP_ideal_opt.pdbqt
DOCKED: USER    NEWDPF about 0.035000 0.082000 -0.065000
DOCKED: USER    NEWDPF tran0 -8.093815 -7.882226 -10.795112
DOCKED: USER    NEWDPF quaternion0 -0.846409 0.370184 -0.188159 0.333396
DOCKED: USER    NEWDPF axisangle0 -0.897773 0.392648 -0.199578 141.049962
DOCKED: USER    NEWDPF quat0 -0.897773 0.392648 -0.199578 141.049962
DOCKED: USER    NEWDPF dihe0 -127.18 -28.15 53.09 54.10 15.48 -147.37 71.19 -90.07 160.93 -14.28 143.40 -179.84 99.50 158.82 0.70 105.08 106.00 -140.30 -26.35 -20.29 152.03 -30.32 -42.56 160.60 
DOCKED: USER  keepresnum = 1 
DOCKED: USER  
DOCKED: REMARK  24 active torsions:
DOCKED: REMARK  status: ('A' for Active; 'I' for Inactive)
DOCKED: REMARK    1  A    between atoms: C_1  and  O_7 
DOCKED: REMARK    2  A    between atoms: C_2  and  O_12 
DOCKED: REMARK    3  A    between atoms: C_3  and  O_17 
DOCKED: REMARK    4  A    between atoms: C_4  and  O_22 
DOCKED: REMARK    5  A    between atoms: C_5  and  O_27 
DOCKED: REMARK    6  A    between atoms: C_6  and  O_32 
DOCKED: REMARK    7  A    between atoms: O_7  and  P_8 
DOCKED: REMARK    8  A    between atoms: P_8  and  O_10 
DOCKED: REMARK    9  A    between atoms: P_8  and  O_11 
DOCKED: REMARK   10  A    between atoms: O_12  and  P_13 
DOCKED: REMARK   11  A    between atoms: P_13  and  O_15 
DOCKED: REMARK   12  A    between atoms: P_13  and  O_16 
DOCKED: REMARK   13  A    between atoms: O_17  and  P_18 
DOCKED: REMARK   14  A    between atoms: P_18  and  O_20 
DOCKED: REMARK   15  A    between atoms: P_18  and  O_21 
DOCKED: REMARK   16  A    between atoms: O_22  and  P_23 
DOCKED: REMARK   17  A    between atoms: P_23  and  O_25 
DOCKED: REMARK   18  A    between atoms: P_23  and  O_26 
DOCKED: REMARK   19  A    between atoms: O_27  and  P_28 
DOCKED: REMARK   20  A    between atoms: P_28  and  O_30 
DOCKED: REMARK   21  A    between atoms: P_28  and  O_31 
DOCKED: REMARK   22  A    between atoms: O_32  and  P_33 
DOCKED: REMARK   23  A    between atoms: P_33  and  O_35 
DOCKED: REMARK   24  A    between atoms: P_33  and  O_36 
DOCKED: USER                              x       y       z     vdW  Elec       q    Type
DOCKED: USER                           _______ _______ _______ _____ _____    ______ ____
DOCKED: ROOT
DOCKED: ATOM      1  C   UNL d   1      -6.548  -8.620 -11.023 -0.04 +0.08    +0.194 C 
DOCKED: ATOM      2  C   UNL d   1      -6.788  -7.330 -11.810 -0.03 +0.08    +0.194 C 
DOCKED: ATOM      3  C   UNL d   1      -8.185  -7.296 -12.432 -0.00 +0.07    +0.194 C 
DOCKED: ATOM      4  C   UNL d   1      -9.299  -7.573 -11.424 -0.02 +0.09    +0.194 C 
DOCKED: ATOM      5  C   UNL d   1      -9.047  -8.787 -10.539 -0.03 +0.09    +0.194 C 
DOCKED: ATOM      6  C   UNL d   1      -7.629  -8.852  -9.967 -0.05 +0.08    +0.194 C 
DOCKED: ENDROOT
DOCKED: BRANCH   1   7
DOCKED: ATOM      7  O   UNL d   1      -5.300  -8.498 -10.337 -0.08 -0.18    -0.278 OA
DOCKED: BRANCH   7   8
DOCKED: ATOM      8  P   UNL d   1      -4.441  -9.822 -10.084 -0.04 +0.23    +0.473 P 
DOCKED: ATOM      9  O   UNL d   1      -2.970  -9.614 -10.009 -0.06 -0.15    -0.228 OA
DOCKED: BRANCH   8  10
DOCKED: ATOM     10  O   UNL d   1      -5.058 -10.433  -8.745 -0.09 -0.11    -0.303 OA
DOCKED: ATOM     11  H   UNL d   1      -5.920 -10.846  -8.941 +0.03 +0.06    +0.222 HD
DOCKED: ENDBRANCH   8  10
DOCKED: BRANCH   8  12
DOCKED: ATOM     12  O   UNL d   1      -4.941 -10.855 -11.182 -0.01 -0.08    -0.303 OA
DOCKED: ATOM     13  H   UNL d   1      -5.836 -11.217 -10.992 +0.01 +0.05    +0.222 HD
DOCKED: ENDBRANCH   8  12
DOCKED: ENDBRANCH   7   8
DOCKED: ENDBRANCH   1   7
DOCKED: BRANCH   2  14
DOCKED: ATOM     14  O   UNL d   1      -6.656  -6.211 -10.924 -0.08 -0.17    -0.278 OA
DOCKED: BRANCH  14  15
DOCKED: ATOM     15  P   UNL d   1      -5.390  -5.259 -11.157 -0.09 +0.44    +0.473 P 
DOCKED: ATOM     16  O   UNL d   1      -4.775  -4.647  -9.937 -0.55 -0.38    -0.228 OA
DOCKED: BRANCH  15  17
DOCKED: ATOM     17  O   UNL d   1      -4.367  -6.167 -11.974 -0.17 -0.28    -0.303 OA
DOCKED: ATOM     18  H   UNL d   1      -4.332  -7.072 -11.610 +0.03 +0.20    +0.222 HD
DOCKED: ENDBRANCH  15  17
DOCKED: BRANCH  15  19
DOCKED: ATOM     19  O   UNL d   1      -5.867  -4.231 -12.273 -0.06 -0.17    -0.303 OA
DOCKED: ATOM     20  H   UNL d   1      -6.751  -4.457 -12.617 +0.05 +0.10    +0.222 HD
DOCKED: ENDBRANCH  15  19
DOCKED: ENDBRANCH  14  15
DOCKED: ENDBRANCH   2  14
DOCKED: BRANCH   6  21
DOCKED: ATOM     21  O   UNL d   1      -7.447 -10.175  -9.466 -0.02 -0.08    -0.278 OA
DOCKED: BRANCH  21  22
DOCKED: ATOM     22  P   UNL d   1      -7.813 -11.426 -10.385 +0.01 +0.09    +0.473 P 
DOCKED: ATOM     23  O   UNL d   1      -7.659 -11.285 -11.862 -0.00 -0.04    -0.228 OA
DOCKED: BRANCH  22  24
DOCKED: ATOM     24  O   UNL d   1      -6.933 -12.579  -9.730 -0.00 -0.04    -0.303 OA
DOCKED: ATOM     25  H   UNL d   1      -6.003 -12.248  -9.646 +0.01 +0.03    +0.222 HD
DOCKED: ENDBRANCH  22  24
DOCKED: BRANCH  22  26
DOCKED: ATOM     26  O   UNL d   1      -9.283 -11.795  -9.863 +0.00 -0.05    -0.303 OA
DOCKED: ATOM     27  H   UNL d   1      -9.775 -10.969  -9.677 +0.01 +0.06    +0.222 HD
DOCKED: ENDBRANCH  22  26
DOCKED: ENDBRANCH  21  22
DOCKED: ENDBRANCH   6  21
DOCKED: BRANCH   3  28
DOCKED: ATOM     28  O   UNL d   1      -8.416  -5.972 -12.895 -0.00 -0.09    -0.278 OA
DOCKED: BRANCH  28  29
DOCKED: ATOM     29  P   UNL d   1      -7.810  -5.489 -14.286 +0.01 +0.13    +0.473 P 
DOCKED: ATOM     30  O   UNL d   1      -8.551  -5.929 -15.496 -0.00 -0.04    -0.228 OA
DOCKED: BRANCH  29  31
DOCKED: ATOM     31  O   UNL d   1      -7.722  -3.913 -14.020 -0.01 -0.09    -0.303 OA
DOCKED: ATOM     32  H   UNL d   1      -6.789  -3.625 -14.146 +0.04 +0.08    +0.222 HD
DOCKED: ENDBRANCH  29  31
DOCKED: BRANCH  29  33
DOCKED: ATOM     33  O   UNL d   1      -6.290  -5.950 -14.166 -0.00 -0.10    -0.303 OA
DOCKED: ATOM     34  H   UNL d   1      -6.019  -5.918 -13.216 +0.02 +0.09    +0.222 HD
DOCKED: ENDBRANCH  29  33
DOCKED: ENDBRANCH  28  29
DOCKED: ENDBRANCH   3  28
DOCKED: BRANCH   5  35
DOCKED: ATOM     35  O   UNL d   1      -9.939  -8.652  -9.435 -0.08 -0.24    -0.278 OA
DOCKED: BRANCH  35  36
DOCKED: ATOM     36  P   UNL d   1     -11.420  -9.240  -9.521 +0.00 +0.43    +0.473 P 
DOCKED: ATOM     37  O   UNL d   1     -12.016  -9.678  -8.221 -0.44 -0.24    -0.228 OA
DOCKED: BRANCH  36  38
DOCKED: ATOM     38  O   UNL d   1     -12.202  -8.049 -10.232 -0.10 -0.33    -0.303 OA
DOCKED: ATOM     39  H   UNL d   1     -12.178  -8.183 -11.204 +0.01 +0.13    +0.222 HD
DOCKED: ENDBRANCH  36  38
DOCKED: BRANCH  36  40
DOCKED: ATOM     40  O   UNL d   1     -11.283 -10.341 -10.660 -0.00 -0.10    -0.303 OA
DOCKED: ATOM     41  H   UNL d   1     -10.931  -9.960 -11.495 +0.01 +0.07    +0.222 HD
DOCKED: ENDBRANCH  36  40
DOCKED: ENDBRANCH  35  36
DOCKED: ENDBRANCH   5  35
DOCKED: BRANCH   4  42
DOCKED: ATOM     42  O   UNL d   1     -10.484  -7.843 -12.180 -0.00 -0.10    -0.278 OA
DOCKED: BRANCH  42  43
DOCKED: ATOM     43  P   UNL d   1     -10.415  -8.901 -13.372 +0.01 +0.10    +0.473 P 
DOCKED: ATOM     44  O   UNL d   1     -10.172  -8.374 -14.744 +0.00 -0.04    -0.228 OA
DOCKED: BRANCH  43  45
DOCKED: ATOM     45  O   UNL d   1      -9.311  -9.927 -12.864 +0.00 -0.06    -0.303 OA
DOCKED: ATOM     46  H   UNL d   1      -9.638 -10.462 -12.113 +0.00 +0.05    +0.222 HD
DOCKED: ENDBRANCH  43  45
DOCKED: BRANCH  43  47
DOCKED: ATOM     47  O   UNL d   1     -11.761  -9.751 -13.186 +0.00 -0.06    -0.303 OA
DOCKED: ATOM     48  H   UNL d   1     -12.249  -9.416 -12.405 +0.00 +0.05    +0.222 HD
DOCKED: ENDBRANCH  43  47
DOCKED: ENDBRANCH  42  43
DOCKED: ENDBRANCH   4  42
DOCKED: TORSDOF 24
DOCKED: TER
DOCKED: ENDMDL
________________________________________________________________________________


	BEGINNING GENETIC ALGORITHM DOCKING 42 of 100
Run: 42 Seed: 566326254 2020387896 [ Run 42 of 100 GA/GALS ]
Beginning LAMARCKIAN GENETIC ALGORITHM (LGA), with a maximum of 25000000 energy evaluations.

Final-Value: -19.022


	FINAL GENETIC ALGORITHM DOCKED STATE
	_______________________________________________


Detailed state:  trans 30.301 27.727 5.449 quatxyzw 0.845305 0.329683 0.399919 0.129744 center 0.035 0.082 -0.065 ntor 24 91.5927 55.7966 150.5720 -13.8432 33.0411 -147.4589 29.0988 -71.4972 43.0862 -2.9484 -13.0937 -131.5259 151.2515 179.9873 -65.1799 21.3219 138.2832 -41.6766 50.1324 10.7400 167.5721 5.2650 -6.4541 160.2198
State:	 30.301  27.727   5.449   0.853  0.332  0.403 165.090     91.59   55.80  150.57  -13.84   33.04 -147.46   29.10  -71.50   43.09   -2.95  -13.09 -131.53  151.25  179.99  -65.18   21.32  138.28  -41.68   50.13   10.74  167.57    5.27   -6.45  160.22

DOCKED: MODEL       42
DOCKED: USER    Run = 42
DOCKED: USER    DPF = D:/Protein_go_brrr/autodock/final/1A3N/IHP/dock.dpf
DOCKED: USER  
DOCKED: USER    Estimated Free Energy of Binding    =   +2.57 kcal/mol  [=(1)+(2)+(3)-(4)]
DOCKED: USER    
DOCKED: USER    (1) Final Intermolecular Energy     =   -4.59 kcal/mol
DOCKED: USER        vdW + Hbond + desolv Energy     =   -4.06 kcal/mol
DOCKED: USER        Electrostatic Energy            =   -0.53 kcal/mol
DOCKED: USER    (2) Final Total Internal Energy     =  -14.44 kcal/mol
DOCKED: USER    (3) Torsional Free Energy           =   +7.16 kcal/mol
DOCKED: USER    (4) Unbound System's Energy  [=(2)] =  -14.44 kcal/mol
DOCKED: USER    
DOCKED: USER    
DOCKED: USER    NEWDPF move IHP_ideal_opt.pdbqt
DOCKED: USER    NEWDPF about 0.035000 0.082000 -0.065000
DOCKED: USER    NEWDPF tran0 30.300509 27.726879 5.448886
DOCKED: USER    NEWDPF quaternion0 0.845305 0.329683 0.399919 0.129744
DOCKED: USER    NEWDPF axisangle0 0.852511 0.332493 0.403328 165.090363
DOCKED: USER    NEWDPF quat0 0.852511 0.332493 0.403328 165.090363
DOCKED: USER    NEWDPF dihe0 91.59 55.80 150.57 -13.84 33.04 -147.46 29.10 -71.50 43.09 -2.95 -13.09 -131.53 151.25 179.99 -65.18 21.32 138.28 -41.68 50.13 10.74 167.57 5.27 -6.45 160.22 
DOCKED: USER  keepresnum = 1 
DOCKED: USER  
DOCKED: REMARK  24 active torsions:
DOCKED: REMARK  status: ('A' for Active; 'I' for Inactive)
DOCKED: REMARK    1  A    between atoms: C_1  and  O_7 
DOCKED: REMARK    2  A    between atoms: C_2  and  O_12 
DOCKED: REMARK    3  A    between atoms: C_3  and  O_17 
DOCKED: REMARK    4  A    between atoms: C_4  and  O_22 
DOCKED: REMARK    5  A    between atoms: C_5  and  O_27 
DOCKED: REMARK    6  A    between atoms: C_6  and  O_32 
DOCKED: REMARK    7  A    between atoms: O_7  and  P_8 
DOCKED: REMARK    8  A    between atoms: P_8  and  O_10 
DOCKED: REMARK    9  A    between atoms: P_8  and  O_11 
DOCKED: REMARK   10  A    between atoms: O_12  and  P_13 
DOCKED: REMARK   11  A    between atoms: P_13  and  O_15 
DOCKED: REMARK   12  A    between atoms: P_13  and  O_16 
DOCKED: REMARK   13  A    between atoms: O_17  and  P_18 
DOCKED: REMARK   14  A    between atoms: P_18  and  O_20 
DOCKED: REMARK   15  A    between atoms: P_18  and  O_21 
DOCKED: REMARK   16  A    between atoms: O_22  and  P_23 
DOCKED: REMARK   17  A    between atoms: P_23  and  O_25 
DOCKED: REMARK   18  A    between atoms: P_23  and  O_26 
DOCKED: REMARK   19  A    between atoms: O_27  and  P_28 
DOCKED: REMARK   20  A    between atoms: P_28  and  O_30 
DOCKED: REMARK   21  A    between atoms: P_28  and  O_31 
DOCKED: REMARK   22  A    between atoms: O_32  and  P_33 
DOCKED: REMARK   23  A    between atoms: P_33  and  O_35 
DOCKED: REMARK   24  A    between atoms: P_33  and  O_36 
DOCKED: USER                              x       y       z     vdW  Elec       q    Type
DOCKED: USER                           _______ _______ _______ _____ _____    ______ ____
DOCKED: ROOT
DOCKED: ATOM      1  C   UNL d   1      30.760  29.342   5.853 -0.05 -0.05    +0.194 C 
DOCKED: ATOM      2  C   UNL d   1      29.433  29.200   5.105 -0.06 -0.05    +0.194 C 
DOCKED: ATOM      3  C   UNL d   1      29.535  28.194   3.957 -0.10 -0.05    +0.194 C 
DOCKED: ATOM      4  C   UNL d   1      30.102  26.844   4.389 -0.23 -0.04    +0.194 C 
DOCKED: ATOM      5  C   UNL d   1      31.364  26.943   5.236 -0.17 -0.06    +0.194 C 
DOCKED: ATOM      6  C   UNL d   1      31.285  27.993   6.346 -0.05 -0.12    +0.194 C 
DOCKED: ENDROOT
DOCKED: BRANCH   1   7
DOCKED: ATOM      7  O   UNL d   1      30.538  30.160   7.004 -0.02 +0.07    -0.278 OA
DOCKED: BRANCH   7   8
DOCKED: ATOM      8  P   UNL d   1      30.299  31.725   6.790 +0.01 -0.06    +0.473 P 
DOCKED: ATOM      9  O   UNL d   1      30.601  32.577   7.972 -0.00 +0.02    -0.228 OA
DOCKED: BRANCH   8  10
DOCKED: ATOM     10  O   UNL d   1      31.189  32.081   5.515 +0.00 +0.03    -0.303 OA
DOCKED: ATOM     11  H   UNL d   1      32.133  31.969   5.734 +0.00 -0.02    +0.222 HD
DOCKED: ENDBRANCH   8  10
DOCKED: BRANCH   8  12
DOCKED: ATOM     12  O   UNL d   1      28.825  31.841   6.209 -0.00 +0.04    -0.303 OA
DOCKED: ATOM     13  H   UNL d   1      28.323  30.997   6.259 +0.02 -0.04    +0.222 HD
DOCKED: ENDBRANCH   8  12
DOCKED: ENDBRANCH   7   8
DOCKED: ENDBRANCH   1   7
DOCKED: BRANCH   2  14
DOCKED: ATOM     14  O   UNL d   1      28.428  28.748   6.020 -0.10 +0.09    -0.278 OA
DOCKED: BRANCH  14  15
DOCKED: ATOM     15  P   UNL d   1      26.962  29.366   5.835 -0.06 -0.19    +0.473 P 
DOCKED: ATOM     16  O   UNL d   1      26.357  30.032   7.030 -0.03 +0.06    -0.228 OA
DOCKED: BRANCH  15  17
DOCKED: ATOM     17  O   UNL d   1      27.109  30.348   4.589 -0.03 +0.10    -0.303 OA
DOCKED: ATOM     18  H   UNL d   1      27.474  29.880   3.814 +0.03 -0.09    +0.222 HD
DOCKED: ENDBRANCH  15  17
DOCKED: BRANCH  15  19
DOCKED: ATOM     19  O   UNL d   1      26.109  28.179   5.206 -0.03 +0.30    -0.303 OA
DOCKED: ATOM     20  H   UNL d   1      26.336  28.028   4.270 -0.36 -0.36    +0.222 HD
DOCKED: ENDBRANCH  15  19
DOCKED: ENDBRANCH  14  15
DOCKED: ENDBRANCH   2  14
DOCKED: BRANCH   6  21
DOCKED: ATOM     21  O   UNL d   1      32.616  28.205   6.808 -0.06 +0.20    -0.278 OA
DOCKED: BRANCH  21  22
DOCKED: ATOM     22  P   UNL d   1      33.702  28.845   5.830 -0.00 -0.10    +0.473 P 
DOCKED: ATOM     23  O   UNL d   1      33.634  28.500   4.380 -0.01 +0.03    -0.228 OA
DOCKED: BRANCH  22  24
DOCKED: ATOM     24  O   UNL d   1      33.558  30.397   6.154 -0.00 +0.04    -0.303 OA
DOCKED: ATOM     25  H   UNL d   1      32.610  30.578   6.378 +0.01 -0.04    +0.222 HD
DOCKED: ENDBRANCH  22  24
DOCKED: BRANCH  22  26
DOCKED: ATOM     26  O   UNL d   1      35.071  28.476   6.577 -0.01 +0.04    -0.303 OA
DOCKED: ATOM     27  H   UNL d   1      34.998  27.577   6.958 +0.03 -0.04    +0.222 HD
DOCKED: ENDBRANCH  22  26
DOCKED: ENDBRANCH  21  22
DOCKED: ENDBRANCH   6  21
DOCKED: BRANCH   3  28
DOCKED: ATOM     28  O   UNL d   1      28.214  27.922   3.507 -0.11 +0.15    -0.278 OA
DOCKED: BRANCH  28  29
DOCKED: ATOM     29  P   UNL d   1      27.768  28.322   2.031 -0.02 -0.28    +0.473 P 
DOCKED: ATOM     30  O   UNL d   1      28.776  29.072   1.239 -0.03 +0.06    -0.228 OA
DOCKED: BRANCH  29  31
DOCKED: ATOM     31  O   UNL d   1      27.327  26.888   1.475 -0.13 +0.25    -0.303 OA
DOCKED: ATOM     32  H   UNL d   1      26.417  26.692   1.798 -0.23 -0.41    +0.222 HD
DOCKED: ENDBRANCH  29  31
DOCKED: BRANCH  29  33
DOCKED: ATOM     33  O   UNL d   1      26.372  29.044   2.288 -0.05 +0.28    -0.303 OA
DOCKED: ATOM     34  H   UNL d   1      26.086  28.868   3.218 -0.33 -0.30    +0.222 HD
DOCKED: ENDBRANCH  29  33
DOCKED: ENDBRANCH  28  29
DOCKED: ENDBRANCH   3  28
DOCKED: BRANCH   5  35
DOCKED: ATOM     35  O   UNL d   1      31.506  25.673   5.869 -0.24 +0.11    -0.278 OA
DOCKED: BRANCH  35  36
DOCKED: ATOM     36  P   UNL d   1      32.850  24.832   5.694 -0.28 -0.04    +0.473 P 
DOCKED: ATOM     37  O   UNL d   1      32.861  23.489   6.352 -0.94 -0.07    -0.228 OA
DOCKED: BRANCH  36  38
DOCKED: ATOM     38  O   UNL d   1      33.002  24.786   4.110 -0.25 +0.03    -0.303 OA
DOCKED: ATOM     39  H   UNL d   1      32.113  24.860   3.700 +0.08 +0.00    +0.222 HD
DOCKED: ENDBRANCH  36  38
DOCKED: BRANCH  36  40
DOCKED: ATOM     40  O   UNL d   1      33.963  25.871   6.155 -0.12 +0.06    -0.303 OA
DOCKED: ATOM     41  H   UNL d   1      33.809  26.763   5.771 +0.06 -0.06    +0.222 HD
DOCKED: ENDBRANCH  36  40
DOCKED: ENDBRANCH  35  36
DOCKED: ENDBRANCH   5  35
DOCKED: BRANCH   4  42
DOCKED: ATOM     42  O   UNL d   1      30.451  26.139   3.193 -0.21 +0.03    -0.278 OA
DOCKED: BRANCH  42  43
DOCKED: ATOM     43  P   UNL d   1      31.321  26.885   2.084 -0.05 -0.05    +0.473 P 
DOCKED: ATOM     44  O   UNL d   1      31.803  28.259   2.399 -0.03 +0.03    -0.228 OA
DOCKED: BRANCH  43  45
DOCKED: ATOM     45  O   UNL d   1      32.483  25.839   1.789 +0.04 +0.02    -0.303 OA
DOCKED: ATOM     46  H   UNL d   1      33.227  25.944   2.416 +0.07 -0.02    +0.222 HD
DOCKED: ENDBRANCH  43  45
DOCKED: BRANCH  43  47
DOCKED: ATOM     47  O   UNL d   1      30.422  26.754   0.763 -0.08 +0.04    -0.303 OA
DOCKED: ATOM     48  H   UNL d   1      29.498  27.002   0.976 +0.08 -0.04    +0.222 HD
DOCKED: ENDBRANCH  43  47
DOCKED: ENDBRANCH  42  43
DOCKED: ENDBRANCH   4  42
DOCKED: TORSDOF 24
DOCKED: TER
DOCKED: ENDMDL
________________________________________________________________________________


	BEGINNING GENETIC ALGORITHM DOCKING 43 of 100
Run: 43 Seed: 776365965 91654865 [ Run 43 of 100 GA/GALS ]
Beginning LAMARCKIAN GENETIC ALGORITHM (LGA), with a maximum of 25000000 energy evaluations.

Final-Value: -18.582


	FINAL GENETIC ALGORITHM DOCKED STATE
	_______________________________________________


Detailed state:  trans 28.569 19.174 -6.329 quatxyzw 0.164688 0.194032 0.949801 0.181957 center 0.035 0.082 -0.065 ntor 24 71.8523 -172.2366 130.7544 2.6393 74.4687 114.9853 20.6978 -142.7542 57.7725 84.2831 55.8764 -4.3192 -41.6856 73.6173 106.6865 136.6210 143.4841 110.1816 42.7599 -19.6719 -38.7816 -31.9157 -1.2839 151.3344
State:	 28.569  19.174  -6.329   0.167  0.197  0.966 159.033     71.85 -172.24  130.75    2.64   74.47  114.99   20.70 -142.75   57.77   84.28   55.88   -4.32  -41.69   73.62  106.69  136.62  143.48  110.18   42.76  -19.67  -38.78  -31.92   -1.28  151.33

DOCKED: MODEL       43
DOCKED: USER    Run = 43
DOCKED: USER    DPF = D:/Protein_go_brrr/autodock/final/1A3N/IHP/dock.dpf
DOCKED: USER  
DOCKED: USER    Estimated Free Energy of Binding    =   +1.14 kcal/mol  [=(1)+(2)+(3)-(4)]
DOCKED: USER    
DOCKED: USER    (1) Final Intermolecular Energy     =   -6.02 kcal/mol
DOCKED: USER        vdW + Hbond + desolv Energy     =   -5.76 kcal/mol
DOCKED: USER        Electrostatic Energy            =   -0.26 kcal/mol
DOCKED: USER    (2) Final Total Internal Energy     =  -12.57 kcal/mol
DOCKED: USER    (3) Torsional Free Energy           =   +7.16 kcal/mol
DOCKED: USER    (4) Unbound System's Energy  [=(2)] =  -12.57 kcal/mol
DOCKED: USER    
DOCKED: USER    
DOCKED: USER    NEWDPF move IHP_ideal_opt.pdbqt
DOCKED: USER    NEWDPF about 0.035000 0.082000 -0.065000
DOCKED: USER    NEWDPF tran0 28.568877 19.173948 -6.329060
DOCKED: USER    NEWDPF quaternion0 0.164688 0.194032 0.949801 0.181957
DOCKED: USER    NEWDPF axisangle0 0.167484 0.197326 0.965925 159.032505
DOCKED: USER    NEWDPF quat0 0.167484 0.197326 0.965925 159.032505
DOCKED: USER    NEWDPF dihe0 71.85 -172.24 130.75 2.64 74.47 114.99 20.70 -142.75 57.77 84.28 55.88 -4.32 -41.69 73.62 106.69 136.62 143.48 110.18 42.76 -19.67 -38.78 -31.92 -1.28 151.33 
DOCKED: USER  keepresnum = 1 
DOCKED: USER  
DOCKED: REMARK  24 active torsions:
DOCKED: REMARK  status: ('A' for Active; 'I' for Inactive)
DOCKED: REMARK    1  A    between atoms: C_1  and  O_7 
DOCKED: REMARK    2  A    between atoms: C_2  and  O_12 
DOCKED: REMARK    3  A    between atoms: C_3  and  O_17 
DOCKED: REMARK    4  A    between atoms: C_4  and  O_22 
DOCKED: REMARK    5  A    between atoms: C_5  and  O_27 
DOCKED: REMARK    6  A    between atoms: C_6  and  O_32 
DOCKED: REMARK    7  A    between atoms: O_7  and  P_8 
DOCKED: REMARK    8  A    between atoms: P_8  and  O_10 
DOCKED: REMARK    9  A    between atoms: P_8  and  O_11 
DOCKED: REMARK   10  A    between atoms: O_12  and  P_13 
DOCKED: REMARK   11  A    between atoms: P_13  and  O_15 
DOCKED: REMARK   12  A    between atoms: P_13  and  O_16 
DOCKED: REMARK   13  A    between atoms: O_17  and  P_18 
DOCKED: REMARK   14  A    between atoms: P_18  and  O_20 
DOCKED: REMARK   15  A    between atoms: P_18  and  O_21 
DOCKED: REMARK   16  A    between atoms: O_22  and  P_23 
DOCKED: REMARK   17  A    between atoms: P_23  and  O_25 
DOCKED: REMARK   18  A    between atoms: P_23  and  O_26 
DOCKED: REMARK   19  A    between atoms: O_27  and  P_28 
DOCKED: REMARK   20  A    between atoms: P_28  and  O_30 
DOCKED: REMARK   21  A    between atoms: P_28  and  O_31 
DOCKED: REMARK   22  A    between atoms: O_32  and  P_33 
DOCKED: REMARK   23  A    between atoms: P_33  and  O_35 
DOCKED: REMARK   24  A    between atoms: P_33  and  O_36 
DOCKED: USER                              x       y       z     vdW  Elec       q    Type
DOCKED: USER                           _______ _______ _______ _____ _____    ______ ____
DOCKED: ROOT
DOCKED: ATOM      1  C   UNL d   1      27.295  19.922  -5.434 -0.15 -0.01    +0.194 C 
DOCKED: ATOM      2  C   UNL d   1      27.974  20.806  -6.482 -0.04 -0.00    +0.194 C 
DOCKED: ATOM      3  C   UNL d   1      29.495  20.642  -6.462 -0.04 -0.00    +0.194 C 
DOCKED: ATOM      4  C   UNL d   1      29.944  19.186  -6.556 -0.06 -0.00    +0.194 C 
DOCKED: ATOM      5  C   UNL d   1      29.210  18.247  -5.607 -0.09 +0.00    +0.194 C 
DOCKED: ATOM      6  C   UNL d   1      27.694  18.453  -5.582 -0.15 +0.00    +0.194 C 
DOCKED: ENDROOT
DOCKED: BRANCH   1   7
DOCKED: ATOM      7  O   UNL d   1      25.881  20.001  -5.632 -0.16 -0.00    -0.278 OA
DOCKED: BRANCH   7   8
DOCKED: ATOM      8  P   UNL d   1      25.105  21.275  -5.061 -0.21 -0.00    +0.473 P 
DOCKED: ATOM      9  O   UNL d   1      25.976  22.378  -4.572 -0.19 +0.02    -0.228 OA
DOCKED: BRANCH   8  10
DOCKED: ATOM     10  O   UNL d   1      24.149  21.715  -6.260 -0.12 -0.02    -0.303 OA
DOCKED: ATOM     11  H   UNL d   1      24.635  22.305  -6.866 +0.05 +0.01    +0.222 HD
DOCKED: ENDBRANCH   8  10
DOCKED: BRANCH   8  12
DOCKED: ATOM     12  O   UNL d   1      24.069  20.690  -4.008 -0.90 -0.05    -0.303 OA
DOCKED: ATOM     13  H   UNL d   1      23.958  21.263  -3.216 -0.45 -0.01    +0.222 HD
DOCKED: ENDBRANCH   8  12
DOCKED: ENDBRANCH   7   8
DOCKED: ENDBRANCH   1   7
DOCKED: BRANCH   2  14
DOCKED: ATOM     14  O   UNL d   1      27.493  20.442  -7.782 -0.01 -0.01    -0.278 OA
DOCKED: BRANCH  14  15
DOCKED: ATOM     15  P   UNL d   1      26.584  21.523  -8.537 +0.01 +0.01    +0.473 P 
DOCKED: ATOM     16  O   UNL d   1      26.975  21.866  -9.941 -0.00 -0.01    -0.228 OA
DOCKED: BRANCH  15  17
DOCKED: ATOM     17  O   UNL d   1      25.109  20.930  -8.434 -0.03 -0.02    -0.303 OA
DOCKED: ATOM     18  H   UNL d   1      24.976  20.464  -7.586 +0.05 +0.02    +0.222 HD
DOCKED: ENDBRANCH  15  17
DOCKED: BRANCH  15  19
DOCKED: ATOM     19  O   UNL d   1      26.506  22.750  -7.528 -0.00 -0.00    -0.303 OA
DOCKED: ATOM     20  H   UNL d   1      26.148  22.482  -6.661 +0.04 -0.00    +0.222 HD
DOCKED: ENDBRANCH  15  19
DOCKED: ENDBRANCH  14  15
DOCKED: ENDBRANCH   2  14
DOCKED: BRANCH   6  21
DOCKED: ATOM     21  O   UNL d   1      27.204  17.769  -4.431 -0.18 -0.01    -0.278 OA
DOCKED: BRANCH  21  22
DOCKED: ATOM     22  P   UNL d   1      25.822  16.976  -4.509 -0.34 +0.06    +0.473 P 
DOCKED: ATOM     23  O   UNL d   1      25.747  15.627  -3.879 -0.19 -0.05    -0.228 OA
DOCKED: BRANCH  22  24
DOCKED: ATOM     24  O   UNL d   1      24.800  18.045  -3.922 -0.59 -0.05    -0.303 OA
DOCKED: ATOM     25  H   UNL d   1      25.280  18.905  -3.815 -0.37 -0.05    +0.222 HD
DOCKED: ENDBRANCH  22  24
DOCKED: BRANCH  22  26
DOCKED: ATOM     26  O   UNL d   1      25.500  17.038  -6.079 -0.19 -0.05    -0.303 OA
DOCKED: ATOM     27  H   UNL d   1      25.440  17.975  -6.358 +0.08 +0.03    +0.222 HD
DOCKED: ENDBRANCH  22  26
DOCKED: ENDBRANCH  21  22
DOCKED: ENDBRANCH   6  21
DOCKED: BRANCH   3  28
DOCKED: ATOM     28  O   UNL d   1      30.009  21.272  -7.628 -0.00 +0.00    -0.278 OA
DOCKED: BRANCH  28  29
DOCKED: ATOM     29  P   UNL d   1      30.166  22.856  -7.684 +0.01 -0.00    +0.473 P 
DOCKED: ATOM     30  O   UNL d   1      31.563  23.361  -7.688 -0.00 +0.00    -0.228 OA
DOCKED: BRANCH  29  31
DOCKED: ATOM     31  O   UNL d   1      29.274  23.179  -8.973 +0.00 -0.00    -0.303 OA
DOCKED: ATOM     32  H   UNL d   1      28.325  23.056  -8.737 +0.00 +0.00    +0.222 HD
DOCKED: ENDBRANCH  29  31
DOCKED: BRANCH  29  33
DOCKED: ATOM     33  O   UNL d   1      29.233  23.327  -6.483 -0.00 +0.01    -0.303 OA
DOCKED: ATOM     34  H   UNL d   1      28.299  23.374  -6.802 +0.02 -0.00    +0.222 HD
DOCKED: ENDBRANCH  29  33
DOCKED: ENDBRANCH  28  29
DOCKED: ENDBRANCH   3  28
DOCKED: BRANCH   5  35
DOCKED: ATOM     35  O   UNL d   1      29.447  16.932  -6.104 -0.08 -0.01    -0.278 OA
DOCKED: BRANCH  35  36
DOCKED: ATOM     36  P   UNL d   1      29.977  15.786  -5.128 -0.16 +0.04    +0.473 P 
DOCKED: ATOM     37  O   UNL d   1      30.362  14.502  -5.791 -0.22 +0.00    -0.228 OA
DOCKED: BRANCH  36  38
DOCKED: ATOM     38  O   UNL d   1      31.175  16.523  -4.381 -0.16 -0.03    -0.303 OA
DOCKED: ATOM     39  H   UNL d   1      31.376  17.363  -4.848 +0.08 +0.01    +0.222 HD
DOCKED: ENDBRANCH  36  38
DOCKED: BRANCH  36  40
DOCKED: ATOM     40  O   UNL d   1      28.827  15.716  -4.031 -0.64 -0.08    -0.303 OA
DOCKED: ATOM     41  H   UNL d   1      27.933  15.762  -4.437 +0.12 +0.04    +0.222 HD
DOCKED: ENDBRANCH  36  40
DOCKED: ENDBRANCH  35  36
DOCKED: ENDBRANCH   5  35
DOCKED: BRANCH   4  42
DOCKED: ATOM     42  O   UNL d   1      31.328  19.155  -6.192 -0.05 +0.00    -0.278 OA
DOCKED: BRANCH  42  43
DOCKED: ATOM     43  P   UNL d   1      31.828  20.067  -4.982 -0.09 -0.03    +0.473 P 
DOCKED: ATOM     44  O   UNL d   1      33.068  19.646  -4.271 -0.17 +0.01    -0.228 OA
DOCKED: BRANCH  43  45
DOCKED: ATOM     45  O   UNL d   1      31.917  21.510  -5.646 -0.03 +0.02    -0.303 OA
DOCKED: ATOM     46  H   UNL d   1      31.924  21.455  -6.623 +0.02 -0.01    +0.222 HD
DOCKED: ENDBRANCH  43  45
DOCKED: BRANCH  43  47
DOCKED: ATOM     47  O   UNL d   1      30.520  20.210  -4.066 +0.11 +0.07    -0.303 OA
DOCKED: ATOM     48  H   UNL d   1      30.753  20.689  -3.244 -0.28 -0.10    +0.222 HD
DOCKED: ENDBRANCH  43  47
DOCKED: ENDBRANCH  42  43
DOCKED: ENDBRANCH   4  42
DOCKED: TORSDOF 24
DOCKED: TER
DOCKED: ENDMDL
________________________________________________________________________________


	BEGINNING GENETIC ALGORITHM DOCKING 44 of 100
Run: 44 Seed: 518381049 2115911975 [ Run 44 of 100 GA/GALS ]
Beginning LAMARCKIAN GENETIC ALGORITHM (LGA), with a maximum of 25000000 energy evaluations.

Final-Value: -18.184


	FINAL GENETIC ALGORITHM DOCKED STATE
	_______________________________________________


Detailed state:  trans -11.184 4.650 27.912 quatxyzw 0.181339 0.783171 0.521785 0.285481 center 0.035 0.082 -0.065 ntor 24 108.8931 105.2675 50.0987 -6.9983 -1.6560 -179.3487 -81.1586 -58.7441 47.2781 55.4150 -128.0244 -173.9809 -47.6193 166.2800 177.1001 -163.1061 -146.5617 156.6465 52.1584 -5.5188 179.3328 -17.5009 2.9503 179.7246
State:	-11.184   4.650  27.912   0.189  0.817  0.544 146.825    108.89  105.27   50.10   -7.00   -1.66 -179.35  -81.16  -58.74   47.28   55.42 -128.02 -173.98  -47.62  166.28  177.10 -163.11 -146.56  156.65   52.16   -5.52  179.33  -17.50    2.95  179.72

DOCKED: MODEL       44
DOCKED: USER    Run = 44
DOCKED: USER    DPF = D:/Protein_go_brrr/autodock/final/1A3N/IHP/dock.dpf
DOCKED: USER  
DOCKED: USER    Estimated Free Energy of Binding    =   +3.42 kcal/mol  [=(1)+(2)+(3)-(4)]
DOCKED: USER    
DOCKED: USER    (1) Final Intermolecular Energy     =   -3.73 kcal/mol
DOCKED: USER        vdW + Hbond + desolv Energy     =   -3.43 kcal/mol
DOCKED: USER        Electrostatic Energy            =   -0.31 kcal/mol
DOCKED: USER    (2) Final Total Internal Energy     =  -14.45 kcal/mol
DOCKED: USER    (3) Torsional Free Energy           =   +7.16 kcal/mol
DOCKED: USER    (4) Unbound System's Energy  [=(2)] =  -14.45 kcal/mol
DOCKED: USER    
DOCKED: USER    
DOCKED: USER    NEWDPF move IHP_ideal_opt.pdbqt
DOCKED: USER    NEWDPF about 0.035000 0.082000 -0.065000
DOCKED: USER    NEWDPF tran0 -11.184425 4.649829 27.912496
DOCKED: USER    NEWDPF quaternion0 0.181339 0.783171 0.521785 0.285481
DOCKED: USER    NEWDPF axisangle0 0.189213 0.817178 0.544443 146.824812
DOCKED: USER    NEWDPF quat0 0.189213 0.817178 0.544443 146.824812
DOCKED: USER    NEWDPF dihe0 108.89 105.27 50.10 -7.00 -1.66 -179.35 -81.16 -58.74 47.28 55.42 -128.02 -173.98 -47.62 166.28 177.10 -163.11 -146.56 156.65 52.16 -5.52 179.33 -17.50 2.95 179.72 
DOCKED: USER  keepresnum = 1 
DOCKED: USER  
DOCKED: REMARK  24 active torsions:
DOCKED: REMARK  status: ('A' for Active; 'I' for Inactive)
DOCKED: REMARK    1  A    between atoms: C_1  and  O_7 
DOCKED: REMARK    2  A    between atoms: C_2  and  O_12 
DOCKED: REMARK    3  A    between atoms: C_3  and  O_17 
DOCKED: REMARK    4  A    between atoms: C_4  and  O_22 
DOCKED: REMARK    5  A    between atoms: C_5  and  O_27 
DOCKED: REMARK    6  A    between atoms: C_6  and  O_32 
DOCKED: REMARK    7  A    between atoms: O_7  and  P_8 
DOCKED: REMARK    8  A    between atoms: P_8  and  O_10 
DOCKED: REMARK    9  A    between atoms: P_8  and  O_11 
DOCKED: REMARK   10  A    between atoms: O_12  and  P_13 
DOCKED: REMARK   11  A    between atoms: P_13  and  O_15 
DOCKED: REMARK   12  A    between atoms: P_13  and  O_16 
DOCKED: REMARK   13  A    between atoms: O_17  and  P_18 
DOCKED: REMARK   14  A    between atoms: P_18  and  O_20 
DOCKED: REMARK   15  A    between atoms: P_18  and  O_21 
DOCKED: REMARK   16  A    between atoms: O_22  and  P_23 
DOCKED: REMARK   17  A    between atoms: P_23  and  O_25 
DOCKED: REMARK   18  A    between atoms: P_23  and  O_26 
DOCKED: REMARK   19  A    between atoms: O_27  and  P_28 
DOCKED: REMARK   20  A    between atoms: P_28  and  O_30 
DOCKED: REMARK   21  A    between atoms: P_28  and  O_31 
DOCKED: REMARK   22  A    between atoms: O_32  and  P_33 
DOCKED: REMARK   23  A    between atoms: P_33  and  O_35 
DOCKED: REMARK   24  A    between atoms: P_33  and  O_36 
DOCKED: USER                              x       y       z     vdW  Elec       q    Type
DOCKED: USER                           _______ _______ _______ _____ _____    ______ ____
DOCKED: ROOT
DOCKED: ATOM      1  C   UNL d   1     -12.872   5.015  27.845 -0.02 -0.04    +0.194 C 
DOCKED: ATOM      2  C   UNL d   1     -12.282   4.379  26.585 -0.05 -0.05    +0.194 C 
DOCKED: ATOM      3  C   UNL d   1     -10.925   4.988  26.225 -0.10 -0.10    +0.194 C 
DOCKED: ATOM      4  C   UNL d   1      -9.937   4.986  27.389 -0.12 -0.10    +0.194 C 
DOCKED: ATOM      5  C   UNL d   1     -10.519   5.506  28.697 -0.08 -0.07    +0.194 C 
DOCKED: ATOM      6  C   UNL d   1     -11.903   4.943  29.026 -0.05 -0.04    +0.194 C 
DOCKED: ENDROOT
DOCKED: BRANCH   1   7
DOCKED: ATOM      7  O   UNL d   1     -14.043   4.280  28.209 -0.01 +0.03    -0.278 OA
DOCKED: BRANCH   7   8
DOCKED: ATOM      8  P   UNL d   1     -15.337   4.407  27.282 -0.02 -0.00    +0.473 P 
DOCKED: ATOM      9  O   UNL d   1     -15.156   5.228  26.053 -0.07 +0.00    -0.228 OA
DOCKED: BRANCH   8  10
DOCKED: ATOM     10  O   UNL d   1     -15.742   2.895  26.973 -0.04 -0.02    -0.303 OA
DOCKED: ATOM     11  H   UNL d   1     -14.955   2.400  26.678 +0.03 +0.01    +0.222 HD
DOCKED: ENDBRANCH   8  10
DOCKED: BRANCH   8  12
DOCKED: ATOM     12  O   UNL d   1     -16.501   4.870  28.259 -0.01 +0.00    -0.303 OA
DOCKED: ATOM     13  H   UNL d   1     -16.317   5.731  28.698 +0.01 -0.01    +0.222 HD
DOCKED: ENDBRANCH   8  12
DOCKED: ENDBRANCH   7   8
DOCKED: ENDBRANCH   1   7
DOCKED: BRANCH   2  14
DOCKED: ATOM     14  O   UNL d   1     -12.107   2.974  26.808 -0.05 +0.05    -0.278 OA
DOCKED: BRANCH  14  15
DOCKED: ATOM     15  P   UNL d   1     -12.780   1.990  25.739 -0.06 -0.02    +0.473 P 
DOCKED: ATOM     16  O   UNL d   1     -13.464   0.775  26.282 -0.06 -0.00    -0.228 OA
DOCKED: BRANCH  15  17
DOCKED: ATOM     17  O   UNL d   1     -13.761   2.932  24.909 -0.11 -0.02    -0.303 OA
DOCKED: ATOM     18  H   UNL d   1     -14.280   3.508  25.502 +0.04 +0.01    +0.222 HD
DOCKED: ENDBRANCH  15  17
DOCKED: BRANCH  15  19
DOCKED: ATOM     19  O   UNL d   1     -11.629   1.712  24.677 -0.17 +0.01    -0.303 OA
DOCKED: ATOM     20  H   UNL d   1     -11.398   2.516  24.176 +0.12 -0.02    +0.222 HD
DOCKED: ENDBRANCH  15  19
DOCKED: ENDBRANCH  14  15
DOCKED: ENDBRANCH   2  14
DOCKED: BRANCH   6  21
DOCKED: ATOM     21  O   UNL d   1     -12.445   5.761  30.061 -0.01 +0.03    -0.278 OA
DOCKED: BRANCH  21  22
DOCKED: ATOM     22  P   UNL d   1     -13.036   7.200  29.706 +0.01 -0.08    +0.473 P 
DOCKED: ATOM     23  O   UNL d   1     -13.019   8.250  30.765 -0.01 +0.00    -0.228 OA
DOCKED: BRANCH  22  24
DOCKED: ATOM     24  O   UNL d   1     -12.226   7.568  28.387 -0.06 +0.16    -0.303 OA
DOCKED: ATOM     25  H   UNL d   1     -11.276   7.703  28.636 +0.06 -0.11    +0.222 HD
DOCKED: ENDBRANCH  22  24
DOCKED: BRANCH  22  26
DOCKED: ATOM     26  O   UNL d   1     -14.478   6.822  29.114 -0.00 +0.05    -0.303 OA
DOCKED: ATOM     27  H   UNL d   1     -14.632   5.862  29.231 +0.01 -0.02    +0.222 HD
DOCKED: ENDBRANCH  22  26
DOCKED: ENDBRANCH  21  22
DOCKED: ENDBRANCH   6  21
DOCKED: BRANCH   3  28
DOCKED: ATOM     28  O   UNL d   1     -10.336   4.162  25.228 -0.13 +0.14    -0.278 OA
DOCKED: BRANCH  28  29
DOCKED: ATOM     29  P   UNL d   1     -10.540   4.494  23.684 -0.17 -0.29    +0.473 P 
DOCKED: ATOM     30  O   UNL d   1      -9.714   3.696  22.742 -0.42 +0.07    -0.228 OA
DOCKED: BRANCH  29  31
DOCKED: ATOM     31  O   UNL d   1     -12.129   4.334  23.572 -0.15 +0.07    -0.303 OA
DOCKED: ATOM     32  H   UNL d   1     -12.425   3.670  24.237 +0.10 -0.03    +0.222 HD
DOCKED: ENDBRANCH  29  31
DOCKED: BRANCH  29  33
DOCKED: ATOM     33  O   UNL d   1     -10.343   6.074  23.653 -0.16 +0.46    -0.303 OA
DOCKED: ATOM     34  H   UNL d   1     -10.150   6.391  24.569 +0.03 -0.36    +0.222 HD
DOCKED: ENDBRANCH  29  33
DOCKED: ENDBRANCH  28  29
DOCKED: ENDBRANCH   3  28
DOCKED: BRANCH   5  35
DOCKED: ATOM     35  O   UNL d   1      -9.630   5.060  29.720 -0.11 +0.08    -0.278 OA
DOCKED: BRANCH  35  36
DOCKED: ATOM     36  P   UNL d   1      -9.140   6.067  30.855 -0.10 +0.04    +0.473 P 
DOCKED: ATOM     37  O   UNL d   1      -7.755   6.606  30.684 -0.21 -0.02    -0.228 OA
DOCKED: BRANCH  36  38
DOCKED: ATOM     38  O   UNL d   1     -10.282   7.176  30.823 -0.06 -0.07    -0.303 OA
DOCKED: ATOM     39  H   UNL d   1     -10.723   7.157  29.946 +0.06 -0.02    +0.222 HD
DOCKED: ENDBRANCH  36  38
DOCKED: BRANCH  36  40
DOCKED: ATOM     40  O   UNL d   1      -9.437   5.249  32.187 -0.20 -0.08    -0.303 OA
DOCKED: ATOM     41  H   UNL d   1      -9.621   4.302  31.999 +0.05 -0.01    +0.222 HD
DOCKED: ENDBRANCH  36  40
DOCKED: ENDBRANCH  35  36
DOCKED: ENDBRANCH   5  35
DOCKED: BRANCH   4  42
DOCKED: ATOM     42  O   UNL d   1      -8.867   5.864  27.025 -0.18 +0.21    -0.278 OA
DOCKED: BRANCH  42  43
DOCKED: ATOM     43  P   UNL d   1      -9.154   7.430  26.926 -0.16 -0.45    +0.473 P 
DOCKED: ATOM     44  O   UNL d   1      -8.233   8.245  26.085 -0.30 +0.30    -0.228 OA
DOCKED: BRANCH  43  45
DOCKED: ATOM     45  O   UNL d   1     -10.674   7.477  26.459 -0.15 +0.38    -0.303 OA
DOCKED: ATOM     46  H   UNL d   1     -11.087   8.339  26.668 -0.31 -0.45    +0.222 HD
DOCKED: ENDBRANCH  43  45
DOCKED: BRANCH  43  47
DOCKED: ATOM     47  O   UNL d   1      -9.270   7.880  28.460 -0.15 +0.14    -0.303 OA
DOCKED: ATOM     48  H   UNL d   1      -9.060   7.116  29.037 +0.11 -0.06    +0.222 HD
DOCKED: ENDBRANCH  43  47
DOCKED: ENDBRANCH  42  43
DOCKED: ENDBRANCH   4  42
DOCKED: TORSDOF 24
DOCKED: TER
DOCKED: ENDMDL
________________________________________________________________________________


	BEGINNING GENETIC ALGORITHM DOCKING 45 of 100
Run: 45 Seed: 1517660921 2031881458 [ Run 45 of 100 GA/GALS ]
Beginning LAMARCKIAN GENETIC ALGORITHM (LGA), with a maximum of 25000000 energy evaluations.

Final-Value: -17.348


	FINAL GENETIC ALGORITHM DOCKED STATE
	_______________________________________________


Detailed state:  trans 8.979 -13.146 20.207 quatxyzw -0.432600 -0.848763 -0.101867 -0.286499 center 0.035 0.082 -0.065 ntor 24 -165.9014 138.4086 51.7529 56.8051 11.6878 -94.6427 -0.0141 -90.6689 109.3829 85.4037 94.6802 104.7363 94.6306 117.1829 -50.6935 -141.0947 111.1753 24.2958 2.6142 -20.0758 -10.4126 19.2833 -9.7546 177.3100
State:	  8.979 -13.146  20.207  -0.452 -0.886 -0.106 -146.703   -165.90  138.41   51.75   56.81   11.69  -94.64   -0.01  -90.67  109.38   85.40   94.68  104.74   94.63  117.18  -50.69 -141.09  111.18   24.30    2.61  -20.08  -10.41   19.28   -9.75  177.31

DOCKED: MODEL       45
DOCKED: USER    Run = 45
DOCKED: USER    DPF = D:/Protein_go_brrr/autodock/final/1A3N/IHP/dock.dpf
DOCKED: USER  
DOCKED: USER    Estimated Free Energy of Binding    =   +2.63 kcal/mol  [=(1)+(2)+(3)-(4)]
DOCKED: USER    
DOCKED: USER    (1) Final Intermolecular Energy     =   -4.53 kcal/mol
DOCKED: USER        vdW + Hbond + desolv Energy     =   -4.37 kcal/mol
DOCKED: USER        Electrostatic Energy            =   -0.16 kcal/mol
DOCKED: USER    (2) Final Total Internal Energy     =  -12.81 kcal/mol
DOCKED: USER    (3) Torsional Free Energy           =   +7.16 kcal/mol
DOCKED: USER    (4) Unbound System's Energy  [=(2)] =  -12.81 kcal/mol
DOCKED: USER    
DOCKED: USER    
DOCKED: USER    NEWDPF move IHP_ideal_opt.pdbqt
DOCKED: USER    NEWDPF about 0.035000 0.082000 -0.065000
DOCKED: USER    NEWDPF tran0 8.978890 -13.146117 20.206873
DOCKED: USER    NEWDPF quaternion0 -0.432600 -0.848763 -0.101867 -0.286499
DOCKED: USER    NEWDPF axisangle0 -0.451528 -0.885899 -0.106325 -146.703047
DOCKED: USER    NEWDPF quat0 -0.451528 -0.885899 -0.106325 -146.703047
DOCKED: USER    NEWDPF dihe0 -165.90 138.41 51.75 56.81 11.69 -94.64 -0.01 -90.67 109.38 85.40 94.68 104.74 94.63 117.18 -50.69 -141.09 111.18 24.30 2.61 -20.08 -10.41 19.28 -9.75 177.31 
DOCKED: USER  keepresnum = 1 
DOCKED: USER  
DOCKED: REMARK  24 active torsions:
DOCKED: REMARK  status: ('A' for Active; 'I' for Inactive)
DOCKED: REMARK    1  A    between atoms: C_1  and  O_7 
DOCKED: REMARK    2  A    between atoms: C_2  and  O_12 
DOCKED: REMARK    3  A    between atoms: C_3  and  O_17 
DOCKED: REMARK    4  A    between atoms: C_4  and  O_22 
DOCKED: REMARK    5  A    between atoms: C_5  and  O_27 
DOCKED: REMARK    6  A    between atoms: C_6  and  O_32 
DOCKED: REMARK    7  A    between atoms: O_7  and  P_8 
DOCKED: REMARK    8  A    between atoms: P_8  and  O_10 
DOCKED: REMARK    9  A    between atoms: P_8  and  O_11 
DOCKED: REMARK   10  A    between atoms: O_12  and  P_13 
DOCKED: REMARK   11  A    between atoms: P_13  and  O_15 
DOCKED: REMARK   12  A    between atoms: P_13  and  O_16 
DOCKED: REMARK   13  A    between atoms: O_17  and  P_18 
DOCKED: REMARK   14  A    between atoms: P_18  and  O_20 
DOCKED: REMARK   15  A    between atoms: P_18  and  O_21 
DOCKED: REMARK   16  A    between atoms: O_22  and  P_23 
DOCKED: REMARK   17  A    between atoms: P_23  and  O_25 
DOCKED: REMARK   18  A    between atoms: P_23  and  O_26 
DOCKED: REMARK   19  A    between atoms: O_27  and  P_28 
DOCKED: REMARK   20  A    between atoms: P_28  and  O_30 
DOCKED: REMARK   21  A    between atoms: P_28  and  O_31 
DOCKED: REMARK   22  A    between atoms: O_32  and  P_33 
DOCKED: REMARK   23  A    between atoms: P_33  and  O_35 
DOCKED: REMARK   24  A    between atoms: P_33  and  O_36 
DOCKED: USER                              x       y       z     vdW  Elec       q    Type
DOCKED: USER                           _______ _______ _______ _____ _____    ______ ____
DOCKED: ROOT
DOCKED: ATOM      1  C   UNL d   1       7.382 -12.503  20.349 -0.11 +0.07    +0.194 C 
DOCKED: ATOM      2  C   UNL d   1       7.467 -13.989  19.993 -0.14 +0.10    +0.194 C 
DOCKED: ATOM      3  C   UNL d   1       8.544 -14.258  18.940 -0.10 +0.13    +0.194 C 
DOCKED: ATOM      4  C   UNL d   1       9.906 -13.673  19.309 +0.15 +0.14    +0.194 C 
DOCKED: ATOM      5  C   UNL d   1       9.852 -12.226  19.780 -0.08 +0.08    +0.194 C 
DOCKED: ATOM      6  C   UNL d   1       8.735 -11.943  20.787 -0.14 +0.05    +0.194 C 
DOCKED: ENDROOT
DOCKED: BRANCH   1   7
DOCKED: ATOM      7  O   UNL d   1       6.483 -12.360  21.451 -0.24 -0.11    -0.278 OA
DOCKED: BRANCH   7   8
DOCKED: ATOM      8  P   UNL d   1       5.179 -11.458  21.256 -0.06 +0.27    +0.473 P 
DOCKED: ATOM      9  O   UNL d   1       3.977 -11.917  22.004 -0.68 -0.27    -0.228 OA
DOCKED: BRANCH   8  10
DOCKED: ATOM     10  O   UNL d   1       5.656  -9.994  21.672 -0.08 -0.10    -0.303 OA
DOCKED: ATOM     11  H   UNL d   1       6.578  -9.856  21.384 +0.08 +0.05    +0.222 HD
DOCKED: ENDBRANCH   8  10
DOCKED: BRANCH   8  12
DOCKED: ATOM     12  O   UNL d   1       5.006 -11.318  19.683 -0.11 -0.14    -0.303 OA
DOCKED: ATOM     13  H   UNL d   1       4.410 -11.999  19.298 -0.26 +0.07    +0.222 HD
DOCKED: ENDBRANCH   8  12
DOCKED: ENDBRANCH   7   8
DOCKED: ENDBRANCH   1   7
DOCKED: BRANCH   2  14
DOCKED: ATOM     14  O   UNL d   1       7.787 -14.734  21.174 -0.23 -0.14    -0.278 OA
DOCKED: BRANCH  14  15
DOCKED: ATOM     15  P   UNL d   1       6.639 -15.690  21.750 -0.12 +0.19    +0.473 P 
DOCKED: ATOM     16  O   UNL d   1       7.021 -16.595  22.879 -0.14 -0.07    -0.228 OA
DOCKED: BRANCH  15  17
DOCKED: ATOM     17  O   UNL d   1       5.458 -14.691  22.132 -0.18 -0.13    -0.303 OA
DOCKED: ATOM     18  H   UNL d   1       5.801 -13.902  22.595 +0.08 +0.08    +0.222 HD
DOCKED: ENDBRANCH  15  17
DOCKED: BRANCH  15  19
DOCKED: ATOM     19  O   UNL d   1       6.042 -16.412  20.464 -0.10 -0.14    -0.303 OA
DOCKED: ATOM     20  H   UNL d   1       6.458 -16.090  19.644 +0.05 +0.11    +0.222 HD
DOCKED: ENDBRANCH  15  19
DOCKED: ENDBRANCH  14  15
DOCKED: ENDBRANCH   2  14
DOCKED: BRANCH   6  21
DOCKED: ATOM     21  O   UNL d   1       8.597 -10.526  20.863 -0.06 -0.06    -0.278 OA
DOCKED: BRANCH  21  22
DOCKED: ATOM     22  P   UNL d   1       8.987  -9.763  22.208 -0.14 +0.02    +0.473 P 
DOCKED: ATOM     23  O   UNL d   1       9.036 -10.549  23.475 -0.33 +0.04    -0.228 OA
DOCKED: BRANCH  22  24
DOCKED: ATOM     24  O   UNL d   1      10.358  -9.065  21.801 -0.17 -0.03    -0.303 OA
DOCKED: ATOM     25  H   UNL d   1      10.971  -9.765  21.460 +0.10 +0.03    +0.222 HD
DOCKED: ENDBRANCH  22  24
DOCKED: BRANCH  22  26
DOCKED: ATOM     26  O   UNL d   1       7.967  -8.526  22.188 -0.07 -0.03    -0.303 OA
DOCKED: ATOM     27  H   UNL d   1       7.150  -8.775  22.667 +0.11 +0.02    +0.222 HD
DOCKED: ENDBRANCH  22  26
DOCKED: ENDBRANCH  21  22
DOCKED: ENDBRANCH   6  21
DOCKED: BRANCH   3  28
DOCKED: ATOM     28  O   UNL d   1       8.742 -15.665  18.879 -0.37 -0.27    -0.278 OA
DOCKED: BRANCH  28  29
DOCKED: ATOM     29  P   UNL d   1       8.722 -16.420  17.477 -0.04 +0.47    +0.473 P 
DOCKED: ATOM     30  O   UNL d   1       8.637 -17.901  17.548 -0.04 -0.21    -0.228 OA
DOCKED: BRANCH  29  31
DOCKED: ATOM     31  O   UNL d   1       7.508 -15.657  16.766 -0.00 -0.20    -0.303 OA
DOCKED: ATOM     32  H   UNL d   1       7.668 -14.687  16.828 +0.04 +0.14    +0.222 HD
DOCKED: ENDBRANCH  29  31
DOCKED: BRANCH  29  33
DOCKED: ATOM     33  O   UNL d   1       9.997 -15.806  16.748 -0.15 -0.40    -0.303 OA
DOCKED: ATOM     34  H   UNL d   1      10.123 -14.874  17.053 +0.04 +0.24    +0.222 HD
DOCKED: ENDBRANCH  29  33
DOCKED: ENDBRANCH  28  29
DOCKED: ENDBRANCH   3  28
DOCKED: BRANCH   5  35
DOCKED: ATOM     35  O   UNL d   1      11.090 -11.991  20.449 -0.17 -0.12    -0.278 OA
DOCKED: BRANCH  35  36
DOCKED: ATOM     36  P   UNL d   1      12.074 -10.844  19.940 -0.21 +0.17    +0.473 P 
DOCKED: ATOM     37  O   UNL d   1      13.012 -10.295  20.968 -0.39 -0.07    -0.228 OA
DOCKED: BRANCH  36  38
DOCKED: ATOM     38  O   UNL d   1      12.795 -11.555  18.711 -0.19 -0.15    -0.303 OA
DOCKED: ATOM     39  H   UNL d   1      12.137 -12.093  18.220 +0.09 +0.12    +0.222 HD
DOCKED: ENDBRANCH  36  38
DOCKED: BRANCH  36  40
DOCKED: ATOM     40  O   UNL d   1      11.073  -9.816  19.255 -0.04 -0.11    -0.303 OA
DOCKED: ATOM     41  H   UNL d   1      10.269  -9.671  19.802 +0.07 +0.06    +0.222 HD
DOCKED: ENDBRANCH  36  40
DOCKED: ENDBRANCH  35  36
DOCKED: ENDBRANCH   5  35
DOCKED: BRANCH   4  42
DOCKED: ATOM     42  O   UNL d   1      10.704 -13.700  18.121 -0.10 -0.23    -0.278 OA
DOCKED: BRANCH  42  43
DOCKED: ATOM     43  P   UNL d   1      10.287 -12.775  16.890 +0.02 +0.28    +0.473 P 
DOCKED: ATOM     44  O   UNL d   1      10.457 -11.304  17.048 -0.02 -0.10    -0.228 OA
DOCKED: BRANCH  43  45
DOCKED: ATOM     45  O   UNL d   1      11.117 -13.401  15.686 -0.01 -0.21    -0.303 OA
DOCKED: ATOM     46  H   UNL d   1      11.375 -14.326  15.872 +0.04 +0.20    +0.222 HD
DOCKED: ENDBRANCH  43  45
DOCKED: BRANCH  43  47
DOCKED: ATOM     47  O   UNL d   1       8.799 -13.267  16.550 +0.00 -0.18    -0.303 OA
DOCKED: ATOM     48  H   UNL d   1       8.843 -14.122  16.074 +0.04 +0.16    +0.222 HD
DOCKED: ENDBRANCH  43  47
DOCKED: ENDBRANCH  42  43
DOCKED: ENDBRANCH   4  42
DOCKED: TORSDOF 24
DOCKED: TER
DOCKED: ENDMDL
________________________________________________________________________________


	BEGINNING GENETIC ALGORITHM DOCKING 46 of 100
Run: 46 Seed: 977690193 993851147 [ Run 46 of 100 GA/GALS ]
Beginning LAMARCKIAN GENETIC ALGORITHM (LGA), with a maximum of 25000000 energy evaluations.

Final-Value: -17.975


	FINAL GENETIC ALGORITHM DOCKED STATE
	_______________________________________________


Detailed state:  trans 22.871 22.455 12.491 quatxyzw 0.084910 -0.928105 -0.317913 -0.174190 center 0.035 0.082 -0.065 ntor 24 -110.8789 -1.8873 30.0948 -84.5996 116.3173 -180.0000 46.1156 -61.7504 96.0345 -158.5481 147.5243 128.0779 23.2296 -92.4770 32.8749 -73.8858 -104.6333 -163.2664 -2.1960 -3.1204 -23.5869 -1.6473 -7.8380 11.5188
State:	 22.871  22.455  12.491   0.086 -0.943 -0.323 -159.937   -110.88   -1.89   30.09  -84.60  116.32 -180.00   46.12  -61.75   96.03 -158.55  147.52  128.08   23.23  -92.48   32.87  -73.89 -104.63 -163.27   -2.20   -3.12  -23.59   -1.65   -7.84   11.52

DOCKED: MODEL       46
DOCKED: USER    Run = 46
DOCKED: USER    DPF = D:/Protein_go_brrr/autodock/final/1A3N/IHP/dock.dpf
DOCKED: USER  
DOCKED: USER    Estimated Free Energy of Binding    =   +2.30 kcal/mol  [=(1)+(2)+(3)-(4)]
DOCKED: USER    
DOCKED: USER    (1) Final Intermolecular Energy     =   -4.86 kcal/mol
DOCKED: USER        vdW + Hbond + desolv Energy     =   -4.71 kcal/mol
DOCKED: USER        Electrostatic Energy            =   -0.15 kcal/mol
DOCKED: USER    (2) Final Total Internal Energy     =  -13.12 kcal/mol
DOCKED: USER    (3) Torsional Free Energy           =   +7.16 kcal/mol
DOCKED: USER    (4) Unbound System's Energy  [=(2)] =  -13.12 kcal/mol
DOCKED: USER    
DOCKED: USER    
DOCKED: USER    NEWDPF move IHP_ideal_opt.pdbqt
DOCKED: USER    NEWDPF about 0.035000 0.082000 -0.065000
DOCKED: USER    NEWDPF tran0 22.871318 22.455079 12.490585
DOCKED: USER    NEWDPF quaternion0 0.084910 -0.928105 -0.317913 -0.174190
DOCKED: USER    NEWDPF axisangle0 0.086228 -0.942514 -0.322849 -159.936907
DOCKED: USER    NEWDPF quat0 0.086228 -0.942514 -0.322849 -159.936907
DOCKED: USER    NEWDPF dihe0 -110.88 -1.89 30.09 -84.60 116.32 -180.00 46.12 -61.75 96.03 -158.55 147.52 128.08 23.23 -92.48 32.87 -73.89 -104.63 -163.27 -2.20 -3.12 -23.59 -1.65 -7.84 11.52 
DOCKED: USER  keepresnum = 1 
DOCKED: USER  
DOCKED: REMARK  24 active torsions:
DOCKED: REMARK  status: ('A' for Active; 'I' for Inactive)
DOCKED: REMARK    1  A    between atoms: C_1  and  O_7 
DOCKED: REMARK    2  A    between atoms: C_2  and  O_12 
DOCKED: REMARK    3  A    between atoms: C_3  and  O_17 
DOCKED: REMARK    4  A    between atoms: C_4  and  O_22 
DOCKED: REMARK    5  A    between atoms: C_5  and  O_27 
DOCKED: REMARK    6  A    between atoms: C_6  and  O_32 
DOCKED: REMARK    7  A    between atoms: O_7  and  P_8 
DOCKED: REMARK    8  A    between atoms: P_8  and  O_10 
DOCKED: REMARK    9  A    between atoms: P_8  and  O_11 
DOCKED: REMARK   10  A    between atoms: O_12  and  P_13 
DOCKED: REMARK   11  A    between atoms: P_13  and  O_15 
DOCKED: REMARK   12  A    between atoms: P_13  and  O_16 
DOCKED: REMARK   13  A    between atoms: O_17  and  P_18 
DOCKED: REMARK   14  A    between atoms: P_18  and  O_20 
DOCKED: REMARK   15  A    between atoms: P_18  and  O_21 
DOCKED: REMARK   16  A    between atoms: O_22  and  P_23 
DOCKED: REMARK   17  A    between atoms: P_23  and  O_25 
DOCKED: REMARK   18  A    between atoms: P_23  and  O_26 
DOCKED: REMARK   19  A    between atoms: O_27  and  P_28 
DOCKED: REMARK   20  A    between atoms: P_28  and  O_30 
DOCKED: REMARK   21  A    between atoms: P_28  and  O_31 
DOCKED: REMARK   22  A    between atoms: O_32  and  P_33 
DOCKED: REMARK   23  A    between atoms: P_33  and  O_35 
DOCKED: REMARK   24  A    between atoms: P_33  and  O_36 
DOCKED: USER                              x       y       z     vdW  Elec       q    Type
DOCKED: USER                           _______ _______ _______ _____ _____    ______ ____
DOCKED: ROOT
DOCKED: ATOM      1  C   UNL d   1      21.456  21.866  11.695 -0.07 +0.05    +0.194 C 
DOCKED: ATOM      2  C   UNL d   1      22.787  21.365  11.132 -0.11 +0.06    +0.194 C 
DOCKED: ATOM      3  C   UNL d   1      23.819  22.490  11.031 -0.11 +0.05    +0.194 C 
DOCKED: ATOM      4  C   UNL d   1      23.998  23.261  12.336 -0.05 +0.07    +0.194 C 
DOCKED: ATOM      5  C   UNL d   1      22.689  23.683  12.992 -0.08 +0.05    +0.194 C 
DOCKED: ATOM      6  C   UNL d   1      21.635  22.575  13.038 -0.05 +0.07    +0.194 C 
DOCKED: ENDROOT
DOCKED: BRANCH   1   7
DOCKED: ATOM      7  O   UNL d   1      20.611  20.735  11.919 -0.04 -0.09    -0.278 OA
DOCKED: BRANCH   7   8
DOCKED: ATOM      8  P   UNL d   1      19.168  20.717  11.234 -0.01 +0.11    +0.473 P 
DOCKED: ATOM      9  O   UNL d   1      19.168  20.440   9.771 -0.05 -0.05    -0.228 OA
DOCKED: BRANCH   8  10
DOCKED: ATOM     10  O   UNL d   1      18.353  19.636  12.078 -0.02 -0.08    -0.303 OA
DOCKED: ATOM     11  H   UNL d   1      17.889  20.078  12.813 +0.04 +0.06    +0.222 HD
DOCKED: ENDBRANCH   8  10
DOCKED: BRANCH   8  12
DOCKED: ATOM     12  O   UNL d   1      18.481  22.077  11.683 -0.01 -0.06    -0.303 OA
DOCKED: ATOM     13  H   UNL d   1      18.569  22.254  12.646 +0.02 +0.05    +0.222 HD
DOCKED: ENDBRANCH   8  12
DOCKED: ENDBRANCH   7   8
DOCKED: ENDBRANCH   1   7
DOCKED: BRANCH   2  14
DOCKED: ATOM     14  O   UNL d   1      23.305  20.346  11.997 -0.18 -0.15    -0.278 OA
DOCKED: BRANCH  14  15
DOCKED: ATOM     15  P   UNL d   1      23.728  18.966  11.305 -0.20 +0.21    +0.473 P 
DOCKED: ATOM     16  O   UNL d   1      22.870  18.491  10.174 -0.21 -0.07    -0.228 OA
DOCKED: BRANCH  15  17
DOCKED: ATOM     17  O   UNL d   1      25.244  19.197  10.875 -0.30 -0.13    -0.303 OA
DOCKED: ATOM     18  H   UNL d   1      25.314  19.886  10.187 +0.15 +0.07    +0.222 HD
DOCKED: ENDBRANCH  15  17
DOCKED: BRANCH  15  19
DOCKED: ATOM     19  O   UNL d   1      23.891  17.948  12.516 -0.30 -0.19    -0.303 OA
DOCKED: ATOM     20  H   UNL d   1      24.619  17.317  12.362 -0.47 +0.06    +0.222 HD
DOCKED: ENDBRANCH  15  19
DOCKED: ENDBRANCH  14  15
DOCKED: ENDBRANCH   2  14
DOCKED: BRANCH   6  21
DOCKED: ATOM     21  O   UNL d   1      20.392  23.201  13.350 -0.04 -0.07    -0.278 OA
DOCKED: BRANCH  21  22
DOCKED: ATOM     22  P   UNL d   1      19.532  22.680  14.588 -0.03 +0.13    +0.473 P 
DOCKED: ATOM     23  O   UNL d   1      20.123  22.791  15.953 -0.06 -0.08    -0.228 OA
DOCKED: BRANCH  22  24
DOCKED: ATOM     24  O   UNL d   1      18.163  23.467  14.387 -0.03 -0.06    -0.303 OA
DOCKED: ATOM     25  H   UNL d   1      17.869  23.339  13.450 +0.02 +0.04    +0.222 HD
DOCKED: ENDBRANCH  22  24
DOCKED: BRANCH  22  26
DOCKED: ATOM     26  O   UNL d   1      19.137  21.202  14.111 -0.04 -0.10    -0.303 OA
DOCKED: ATOM     27  H   UNL d   1      19.596  21.001  13.270 +0.03 +0.08    +0.222 HD
DOCKED: ENDBRANCH  22  26
DOCKED: ENDBRANCH  21  22
DOCKED: ENDBRANCH   6  21
DOCKED: BRANCH   3  28
DOCKED: ATOM     28  O   UNL d   1      25.082  21.890  10.771 -0.14 -0.09    -0.278 OA
DOCKED: BRANCH  28  29
DOCKED: ATOM     29  P   UNL d   1      25.766  22.043   9.341 -0.25 +0.06    +0.473 P 
DOCKED: ATOM     30  O   UNL d   1      25.613  20.879   8.430 -0.64 -0.04    -0.228 OA
DOCKED: BRANCH  29  31
DOCKED: ATOM     31  O   UNL d   1      25.116  23.426   8.867 -0.18 +0.04    -0.303 OA
DOCKED: ATOM     32  H   UNL d   1      25.755  24.153   9.051 -0.18 -0.09    +0.222 HD
DOCKED: ENDBRANCH  29  31
DOCKED: BRANCH  29  33
DOCKED: ATOM     33  O   UNL d   1      27.252  22.466   9.725 -0.11 -0.07    -0.303 OA
DOCKED: ATOM     34  H   UNL d   1      27.317  22.554  10.707 +0.09 +0.17    +0.222 HD
DOCKED: ENDBRANCH  29  33
DOCKED: ENDBRANCH  28  29
DOCKED: ENDBRANCH   3  28
DOCKED: BRANCH   5  35
DOCKED: ATOM     35  O   UNL d   1      23.019  24.004  14.342 -0.07 -0.09    -0.278 OA
DOCKED: BRANCH  35  36
DOCKED: ATOM     36  P   UNL d   1      22.690  25.451  14.928 -0.04 +0.09    +0.473 P 
DOCKED: ATOM     37  O   UNL d   1      23.348  26.596  14.226 -0.01 -0.03    -0.228 OA
DOCKED: BRANCH  36  38
DOCKED: ATOM     38  O   UNL d   1      21.099  25.473  14.865 -0.02 -0.05    -0.303 OA
DOCKED: ATOM     39  H   UNL d   1      20.763  24.552  14.908 +0.02 +0.05    +0.222 HD
DOCKED: ENDBRANCH  36  38
DOCKED: BRANCH  36  40
DOCKED: ATOM     40  O   UNL d   1      23.010  25.272  16.475 -0.05 -0.07    -0.303 OA
DOCKED: ATOM     41  H   UNL d   1      23.162  26.136  16.918 +0.01 +0.04    +0.222 HD
DOCKED: ENDBRANCH  36  40
DOCKED: ENDBRANCH  35  36
DOCKED: ENDBRANCH   5  35
DOCKED: BRANCH   4  42
DOCKED: ATOM     42  O   UNL d   1      24.712  24.460  12.014 -0.06 -0.07    -0.278 OA
DOCKED: BRANCH  42  43
DOCKED: ATOM     43  P   UNL d   1      26.283  24.517  12.286 -0.10 +0.29    +0.473 P 
DOCKED: ATOM     44  O   UNL d   1      26.773  25.524  13.269 -0.13 -0.12    -0.228 OA
DOCKED: BRANCH  43  45
DOCKED: ATOM     45  O   UNL d   1      26.626  23.012  12.672 -0.53 -0.30    -0.303 OA
DOCKED: ATOM     46  H   UNL d   1      26.622  22.431  11.884 +0.11 +0.19    +0.222 HD
DOCKED: ENDBRANCH  43  45
DOCKED: BRANCH  43  47
DOCKED: ATOM     47  O   UNL d   1      26.906  24.627  10.814 -0.24 -0.15    -0.303 OA
DOCKED: ATOM     48  H   UNL d   1      26.553  23.901  10.259 +0.01 +0.06    +0.222 HD
DOCKED: ENDBRANCH  43  47
DOCKED: ENDBRANCH  42  43
DOCKED: ENDBRANCH   4  42
DOCKED: TORSDOF 24
DOCKED: TER
DOCKED: ENDMDL
________________________________________________________________________________


	BEGINNING GENETIC ALGORITHM DOCKING 47 of 100
Run: 47 Seed: 979403523 2117607499 [ Run 47 of 100 GA/GALS ]
Beginning LAMARCKIAN GENETIC ALGORITHM (LGA), with a maximum of 25000000 energy evaluations.

Final-Value: -17.000


	FINAL GENETIC ALGORITHM DOCKED STATE
	_______________________________________________


Detailed state:  trans 29.669 13.860 -8.944 quatxyzw 0.554567 0.285230 0.349973 -0.699012 center 0.035 0.082 -0.065 ntor 24 144.7807 69.0136 176.7391 9.7278 108.6731 109.5338 -136.5209 -10.6168 98.9907 8.5644 104.9189 62.6157 -39.1947 78.5483 -116.4467 49.7269 52.7223 -158.7760 18.1582 -38.0298 -16.9703 163.8090 -8.3477 -35.8166
State:	 29.669  13.860  -8.944   0.775  0.399  0.489 -91.304    144.78   69.01  176.74    9.73  108.67  109.53 -136.52  -10.62   98.99    8.56  104.92   62.62  -39.19   78.55 -116.45   49.73   52.72 -158.78   18.16  -38.03  -16.97  163.81   -8.35  -35.82

DOCKED: MODEL       47
DOCKED: USER    Run = 47
DOCKED: USER    DPF = D:/Protein_go_brrr/autodock/final/1A3N/IHP/dock.dpf
DOCKED: USER  
DOCKED: USER    Estimated Free Energy of Binding    =   +4.54 kcal/mol  [=(1)+(2)+(3)-(4)]
DOCKED: USER    
DOCKED: USER    (1) Final Intermolecular Energy     =   -2.62 kcal/mol
DOCKED: USER        vdW + Hbond + desolv Energy     =   -2.52 kcal/mol
DOCKED: USER        Electrostatic Energy            =   -0.09 kcal/mol
DOCKED: USER    (2) Final Total Internal Energy     =  -14.38 kcal/mol
DOCKED: USER    (3) Torsional Free Energy           =   +7.16 kcal/mol
DOCKED: USER    (4) Unbound System's Energy  [=(2)] =  -14.38 kcal/mol
DOCKED: USER    
DOCKED: USER    
DOCKED: USER    NEWDPF move IHP_ideal_opt.pdbqt
DOCKED: USER    NEWDPF about 0.035000 0.082000 -0.065000
DOCKED: USER    NEWDPF tran0 29.668576 13.860285 -8.943921
DOCKED: USER    NEWDPF quaternion0 0.554567 0.285230 0.349973 -0.699012
DOCKED: USER    NEWDPF axisangle0 0.775499 0.398862 0.489398 -91.304344
DOCKED: USER    NEWDPF quat0 0.775499 0.398862 0.489398 -91.304344
DOCKED: USER    NEWDPF dihe0 144.78 69.01 176.74 9.73 108.67 109.53 -136.52 -10.62 98.99 8.56 104.92 62.62 -39.19 78.55 -116.45 49.73 52.72 -158.78 18.16 -38.03 -16.97 163.81 -8.35 -35.82 
DOCKED: USER  keepresnum = 1 
DOCKED: USER  
DOCKED: REMARK  24 active torsions:
DOCKED: REMARK  status: ('A' for Active; 'I' for Inactive)
DOCKED: REMARK    1  A    between atoms: C_1  and  O_7 
DOCKED: REMARK    2  A    between atoms: C_2  and  O_12 
DOCKED: REMARK    3  A    between atoms: C_3  and  O_17 
DOCKED: REMARK    4  A    between atoms: C_4  and  O_22 
DOCKED: REMARK    5  A    between atoms: C_5  and  O_27 
DOCKED: REMARK    6  A    between atoms: C_6  and  O_32 
DOCKED: REMARK    7  A    between atoms: O_7  and  P_8 
DOCKED: REMARK    8  A    between atoms: P_8  and  O_10 
DOCKED: REMARK    9  A    between atoms: P_8  and  O_11 
DOCKED: REMARK   10  A    between atoms: O_12  and  P_13 
DOCKED: REMARK   11  A    between atoms: P_13  and  O_15 
DOCKED: REMARK   12  A    between atoms: P_13  and  O_16 
DOCKED: REMARK   13  A    between atoms: O_17  and  P_18 
DOCKED: REMARK   14  A    between atoms: P_18  and  O_20 
DOCKED: REMARK   15  A    between atoms: P_18  and  O_21 
DOCKED: REMARK   16  A    between atoms: O_22  and  P_23 
DOCKED: REMARK   17  A    between atoms: P_23  and  O_25 
DOCKED: REMARK   18  A    between atoms: P_23  and  O_26 
DOCKED: REMARK   19  A    between atoms: O_27  and  P_28 
DOCKED: REMARK   20  A    between atoms: P_28  and  O_30 
DOCKED: REMARK   21  A    between atoms: P_28  and  O_31 
DOCKED: REMARK   22  A    between atoms: O_32  and  P_33 
DOCKED: REMARK   23  A    between atoms: P_33  and  O_35 
DOCKED: REMARK   24  A    between atoms: P_33  and  O_36 
DOCKED: USER                              x       y       z     vdW  Elec       q    Type
DOCKED: USER                           _______ _______ _______ _____ _____    ______ ____
DOCKED: ROOT
DOCKED: ATOM      1  C   UNL d   1      31.187  14.290  -9.647 -0.02 +0.00    +0.194 C 
DOCKED: ATOM      2  C   UNL d   1      30.296  13.385 -10.500 -0.03 +0.02    +0.194 C 
DOCKED: ATOM      3  C   UNL d   1      29.651  12.276  -9.665 -0.11 +0.04    +0.194 C 
DOCKED: ATOM      4  C   UNL d   1      28.926  12.799  -8.428 -0.13 +0.03    +0.194 C 
DOCKED: ATOM      5  C   UNL d   1      29.736  13.796  -7.609 -0.10 +0.01    +0.194 C 
DOCKED: ATOM      6  C   UNL d   1      30.432  14.868  -8.450 -0.03 +0.00    +0.194 C 
DOCKED: ENDROOT
DOCKED: BRANCH   1   7
DOCKED: ATOM      7  O   UNL d   1      31.609  15.390 -10.456 -0.00 -0.01    -0.278 OA
DOCKED: BRANCH   7   8
DOCKED: ATOM      8  P   UNL d   1      33.108  15.396 -11.008 +0.00 +0.00    +0.473 P 
DOCKED: ATOM      9  O   UNL d   1      33.839  14.107 -10.862 -0.01 +0.01    -0.228 OA
DOCKED: BRANCH   8  10
DOCKED: ATOM     10  O   UNL d   1      32.960  15.866 -12.525 +0.00 -0.01    -0.303 OA
DOCKED: ATOM     11  H   UNL d   1      32.022  15.827 -12.790 +0.00 +0.01    +0.222 HD
DOCKED: ENDBRANCH   8  10
DOCKED: BRANCH   8  12
DOCKED: ATOM     12  O   UNL d   1      33.792  16.661 -10.333 +0.00 +0.00    -0.303 OA
DOCKED: ATOM     13  H   UNL d   1      33.354  16.936  -9.496 +0.01 -0.00    +0.222 HD
DOCKED: ENDBRANCH   8  12
DOCKED: ENDBRANCH   7   8
DOCKED: ENDBRANCH   1   7
DOCKED: BRANCH   2  14
DOCKED: ATOM     14  O   UNL d   1      29.257  14.175 -11.091 -0.01 -0.04    -0.278 OA
DOCKED: BRANCH  14  15
DOCKED: ATOM     15  P   UNL d   1      29.539  14.745 -12.560 +0.00 +0.06    +0.473 P 
DOCKED: ATOM     16  O   UNL d   1      28.436  14.598 -13.561 -0.00 -0.03    -0.228 OA
DOCKED: BRANCH  15  17
DOCKED: ATOM     17  O   UNL d   1      29.951  16.264 -12.314 +0.00 -0.02    -0.303 OA
DOCKED: ATOM     18  H   UNL d   1      30.888  16.335 -12.048 +0.00 +0.01    +0.222 HD
DOCKED: ENDBRANCH  15  17
DOCKED: BRANCH  15  19
DOCKED: ATOM     19  O   UNL d   1      30.932  14.099 -12.976 -0.00 -0.03    -0.303 OA
DOCKED: ATOM     20  H   UNL d   1      31.607  14.221 -12.282 +0.01 +0.02    +0.222 HD
DOCKED: ENDBRANCH  15  19
DOCKED: ENDBRANCH  14  15
DOCKED: ENDBRANCH   2  14
DOCKED: BRANCH   6  21
DOCKED: ATOM     21  O   UNL d   1      31.399  15.491  -7.606 -0.03 +0.01    -0.278 OA
DOCKED: BRANCH  21  22
DOCKED: ATOM     22  P   UNL d   1      31.293  17.053  -7.299 +0.00 -0.00    +0.473 P 
DOCKED: ATOM     23  O   UNL d   1      31.925  18.004  -8.259 -0.00 +0.00    -0.228 OA
DOCKED: BRANCH  22  24
DOCKED: ATOM     24  O   UNL d   1      29.725  17.242  -7.107 -0.02 -0.01    -0.303 OA
DOCKED: ATOM     25  H   UNL d   1      29.387  16.483  -6.566 +0.06 +0.01    +0.222 HD
DOCKED: ENDBRANCH  22  24
DOCKED: BRANCH  22  26
DOCKED: ATOM     26  O   UNL d   1      31.823  17.124  -5.788 -0.08 +0.00    -0.303 OA
DOCKED: ATOM     27  H   UNL d   1      31.203  16.637  -5.207 +0.08 +0.01    +0.222 HD
DOCKED: ENDBRANCH  22  26
DOCKED: ENDBRANCH  21  22
DOCKED: ENDBRANCH   6  21
DOCKED: BRANCH   3  28
DOCKED: ATOM     28  O   UNL d   1      28.644  11.669 -10.465 -0.09 -0.13    -0.278 OA
DOCKED: BRANCH  28  29
DOCKED: ATOM     29  P   UNL d   1      27.177  12.288 -10.517 -0.06 +0.20    +0.473 P 
DOCKED: ATOM     30  O   UNL d   1      27.079  13.732 -10.182 -0.03 -0.05    -0.228 OA
DOCKED: BRANCH  29  31
DOCKED: ATOM     31  O   UNL d   1      26.745  11.855 -11.996 -0.06 -0.16    -0.303 OA
DOCKED: ATOM     32  H   UNL d   1      27.081  12.529 -12.632 +0.01 +0.08    +0.222 HD
DOCKED: ENDBRANCH  29  31
DOCKED: BRANCH  29  33
DOCKED: ATOM     33  O   UNL d   1      26.355  11.279  -9.601 -0.11 -0.20    -0.303 OA
DOCKED: ATOM     34  H   UNL d   1      26.850  11.136  -8.757 +0.06 +0.13    +0.222 HD
DOCKED: ENDBRANCH  29  33
DOCKED: ENDBRANCH  28  29
DOCKED: ENDBRANCH   3  28
DOCKED: BRANCH   5  35
DOCKED: ATOM     35  O   UNL d   1      28.795  14.464  -6.771 -0.07 -0.02    -0.278 OA
DOCKED: BRANCH  35  36
DOCKED: ATOM     36  P   UNL d   1      28.967  14.436  -5.185 -0.12 +0.04    +0.473 P 
DOCKED: ATOM     37  O   UNL d   1      29.637  15.632  -4.588 -0.39 -0.03    -0.228 OA
DOCKED: BRANCH  36  38
DOCKED: ATOM     38  O   UNL d   1      27.467  14.214  -4.699 -0.18 -0.05    -0.303 OA
DOCKED: ATOM     39  H   UNL d   1      26.976  13.717  -5.388 +0.10 +0.03    +0.222 HD
DOCKED: ENDBRANCH  36  38
DOCKED: BRANCH  36  40
DOCKED: ATOM     40  O   UNL d   1      29.660  13.024  -4.944 -0.22 +0.02    -0.303 OA
DOCKED: ATOM     41  H   UNL d   1      29.358  12.354  -5.597 -0.06 -0.02    +0.222 HD
DOCKED: ENDBRANCH  36  40
DOCKED: ENDBRANCH  35  36
DOCKED: ENDBRANCH   5  35
DOCKED: BRANCH   4  42
DOCKED: ATOM     42  O   UNL d   1      28.674  11.669  -7.586 -0.21 -0.06    -0.278 OA
DOCKED: BRANCH  42  43
DOCKED: ATOM     43  P   UNL d   1      27.349  11.650  -6.697 -0.19 +0.10    +0.473 P 
DOCKED: ATOM     44  O   UNL d   1      27.514  11.720  -5.218 -0.33 -0.02    -0.228 OA
DOCKED: BRANCH  43  45
DOCKED: ATOM     45  O   UNL d   1      26.497  12.844  -7.314 -0.11 -0.07    -0.303 OA
DOCKED: ATOM     46  H   UNL d   1      26.667  12.947  -8.272 +0.06 +0.06    +0.222 HD
DOCKED: ENDBRANCH  43  45
DOCKED: BRANCH  43  47
DOCKED: ATOM     47  O   UNL d   1      26.559  10.368  -7.245 -0.19 -0.14    -0.303 OA
DOCKED: ATOM     48  H   UNL d   1      25.699  10.654  -7.618 +0.09 +0.10    +0.222 HD
DOCKED: ENDBRANCH  43  47
DOCKED: ENDBRANCH  42  43
DOCKED: ENDBRANCH   4  42
DOCKED: TORSDOF 24
DOCKED: TER
DOCKED: ENDMDL
________________________________________________________________________________


	BEGINNING GENETIC ALGORITHM DOCKING 48 of 100
Run: 48 Seed: 148245882 1438666302 [ Run 48 of 100 GA/GALS ]
Beginning LAMARCKIAN GENETIC ALGORITHM (LGA), with a maximum of 25000000 energy evaluations.

Final-Value: -17.086


	FINAL GENETIC ALGORITHM DOCKED STATE
	_______________________________________________


Detailed state:  trans 21.343 -3.733 38.529 quatxyzw -0.279946 -0.213917 -0.935522 0.025843 center 0.035 0.082 -0.065 ntor 24 25.4453 144.0297 -172.6831 24.2128 123.6608 133.5697 36.6514 -165.2552 88.0078 -29.7729 42.9148 -155.0022 -16.2824 180.0000 -100.0401 124.0912 -166.3187 157.4152 -43.5374 -5.5545 141.1670 -18.9749 -46.8165 2.0866
State:	 21.343  -3.733  38.529  -0.280 -0.214 -0.936 177.038     25.45  144.03 -172.68   24.21  123.66  133.57   36.65 -165.26   88.01  -29.77   42.91 -155.00  -16.28  180.00 -100.04  124.09 -166.32  157.42  -43.54   -5.55  141.17  -18.97  -46.82    2.09

DOCKED: MODEL       48
DOCKED: USER    Run = 48
DOCKED: USER    DPF = D:/Protein_go_brrr/autodock/final/1A3N/IHP/dock.dpf
DOCKED: USER  
DOCKED: USER    Estimated Free Energy of Binding    =   +2.10 kcal/mol  [=(1)+(2)+(3)-(4)]
DOCKED: USER    
DOCKED: USER    (1) Final Intermolecular Energy     =   -5.06 kcal/mol
DOCKED: USER        vdW + Hbond + desolv Energy     =   -4.71 kcal/mol
DOCKED: USER        Electrostatic Energy            =   -0.34 kcal/mol
DOCKED: USER    (2) Final Total Internal Energy     =  -12.03 kcal/mol
DOCKED: USER    (3) Torsional Free Energy           =   +7.16 kcal/mol
DOCKED: USER    (4) Unbound System's Energy  [=(2)] =  -12.03 kcal/mol
DOCKED: USER    
DOCKED: USER    
DOCKED: USER    NEWDPF move IHP_ideal_opt.pdbqt
DOCKED: USER    NEWDPF about 0.035000 0.082000 -0.065000
DOCKED: USER    NEWDPF tran0 21.343277 -3.733091 38.528549
DOCKED: USER    NEWDPF quaternion0 -0.279946 -0.213917 -0.935522 0.025843
DOCKED: USER    NEWDPF axisangle0 -0.280040 -0.213988 -0.935835 177.038276
DOCKED: USER    NEWDPF quat0 -0.280040 -0.213988 -0.935835 177.038276
DOCKED: USER    NEWDPF dihe0 25.45 144.03 -172.68 24.21 123.66 133.57 36.65 -165.26 88.01 -29.77 42.91 -155.00 -16.28 180.00 -100.04 124.09 -166.32 157.42 -43.54 -5.55 141.17 -18.97 -46.82 2.09 
DOCKED: USER  keepresnum = 1 
DOCKED: USER  
DOCKED: REMARK  24 active torsions:
DOCKED: REMARK  status: ('A' for Active; 'I' for Inactive)
DOCKED: REMARK    1  A    between atoms: C_1  and  O_7 
DOCKED: REMARK    2  A    between atoms: C_2  and  O_12 
DOCKED: REMARK    3  A    between atoms: C_3  and  O_17 
DOCKED: REMARK    4  A    between atoms: C_4  and  O_22 
DOCKED: REMARK    5  A    between atoms: C_5  and  O_27 
DOCKED: REMARK    6  A    between atoms: C_6  and  O_32 
DOCKED: REMARK    7  A    between atoms: O_7  and  P_8 
DOCKED: REMARK    8  A    between atoms: P_8  and  O_10 
DOCKED: REMARK    9  A    between atoms: P_8  and  O_11 
DOCKED: REMARK   10  A    between atoms: O_12  and  P_13 
DOCKED: REMARK   11  A    between atoms: P_13  and  O_15 
DOCKED: REMARK   12  A    between atoms: P_13  and  O_16 
DOCKED: REMARK   13  A    between atoms: O_17  and  P_18 
DOCKED: REMARK   14  A    between atoms: P_18  and  O_20 
DOCKED: REMARK   15  A    between atoms: P_18  and  O_21 
DOCKED: REMARK   16  A    between atoms: O_22  and  P_23 
DOCKED: REMARK   17  A    between atoms: P_23  and  O_25 
DOCKED: REMARK   18  A    between atoms: P_23  and  O_26 
DOCKED: REMARK   19  A    between atoms: O_27  and  P_28 
DOCKED: REMARK   20  A    between atoms: P_28  and  O_30 
DOCKED: REMARK   21  A    between atoms: P_28  and  O_31 
DOCKED: REMARK   22  A    between atoms: O_32  and  P_33 
DOCKED: REMARK   23  A    between atoms: P_33  and  O_35 
DOCKED: REMARK   24  A    between atoms: P_33  and  O_36 
DOCKED: USER                              x       y       z     vdW  Elec       q    Type
DOCKED: USER                           _______ _______ _______ _____ _____    ______ ____
DOCKED: ROOT
DOCKED: ATOM      1  C   UNL d   1      20.648  -2.412  39.397 -0.07 +0.02    +0.194 C 
DOCKED: ATOM      2  C   UNL d   1      21.444  -2.035  38.147 -0.10 +0.02    +0.194 C 
DOCKED: ATOM      3  C   UNL d   1      22.749  -2.827  38.045 -0.09 +0.03    +0.194 C 
DOCKED: ATOM      4  C   UNL d   1      22.548  -4.335  38.168 -0.08 +0.04    +0.194 C 
DOCKED: ATOM      5  C   UNL d   1      21.664  -4.750  39.337 -0.05 +0.03    +0.194 C 
DOCKED: ATOM      6  C   UNL d   1      20.388  -3.917  39.475 -0.03 +0.02    +0.194 C 
DOCKED: ENDROOT
DOCKED: BRANCH   1   7
DOCKED: ATOM      7  O   UNL d   1      19.376  -1.763  39.329 -0.06 -0.02    -0.278 OA
DOCKED: BRANCH   7   8
DOCKED: ATOM      8  P   UNL d   1      18.480  -1.708  40.651 -0.02 +0.03    +0.473 P 
DOCKED: ATOM      9  O   UNL d   1      19.239  -1.557  41.922 -0.01 -0.02    -0.228 OA
DOCKED: BRANCH   8  10
DOCKED: ATOM     10  O   UNL d   1      17.464  -0.508  40.380 -0.02 -0.02    -0.303 OA
DOCKED: ATOM     11  H   UNL d   1      17.436   0.079  41.159 +0.02 +0.02    +0.222 HD
DOCKED: ENDBRANCH   8  10
DOCKED: BRANCH   8  12
DOCKED: ATOM     12  O   UNL d   1      17.528  -2.976  40.557 -0.07 -0.02    -0.303 OA
DOCKED: ATOM     13  H   UNL d   1      17.849  -3.739  41.090 +0.05 +0.02    +0.222 HD
DOCKED: ENDBRANCH   8  12
DOCKED: ENDBRANCH   7   8
DOCKED: ENDBRANCH   1   7
DOCKED: BRANCH   2  14
DOCKED: ATOM     14  O   UNL d   1      20.650  -2.312  36.986 -0.16 -0.02    -0.278 OA
DOCKED: BRANCH  14  15
DOCKED: ATOM     15  P   UNL d   1      20.439  -1.104  35.957 -0.25 +0.01    +0.473 P 
DOCKED: ATOM     16  O   UNL d   1      19.025  -0.739  35.630 -0.33 +0.02    -0.228 OA
DOCKED: BRANCH  15  17
DOCKED: ATOM     17  O   UNL d   1      21.254   0.103  36.604 -0.19 +0.01    -0.303 OA
DOCKED: ATOM     18  H   UNL d   1      22.172   0.125  36.272 -0.40 -0.06    +0.222 HD
DOCKED: ENDBRANCH  15  17
DOCKED: BRANCH  15  19
DOCKED: ATOM     19  O   UNL d   1      21.357  -1.478  34.713 -0.30 -0.02    -0.303 OA
DOCKED: ATOM     20  H   UNL d   1      22.177  -1.924  34.992 +0.13 +0.02    +0.222 HD
DOCKED: ENDBRANCH  15  19
DOCKED: ENDBRANCH  14  15
DOCKED: ENDBRANCH   2  14
DOCKED: BRANCH   6  21
DOCKED: ATOM     21  O   UNL d   1      19.860  -4.183  40.773 -0.05 -0.03    -0.278 OA
DOCKED: BRANCH  21  22
DOCKED: ATOM     22  P   UNL d   1      20.850  -4.349  42.012 -0.01 +0.06    +0.473 P 
DOCKED: ATOM     23  O   UNL d   1      21.714  -5.564  42.067 -0.01 -0.03    -0.228 OA
DOCKED: BRANCH  22  24
DOCKED: ATOM     24  O   UNL d   1      21.642  -2.968  41.983 -0.00 -0.04    -0.303 OA
DOCKED: ATOM     25  H   UNL d   1      20.981  -2.233  42.053 +0.01 +0.02    +0.222 HD
DOCKED: ENDBRANCH  22  24
DOCKED: BRANCH  22  26
DOCKED: ATOM     26  O   UNL d   1      19.858  -4.135  43.253 -0.00 -0.03    -0.303 OA
DOCKED: ATOM     27  H   UNL d   1      19.236  -3.408  43.046 +0.01 +0.02    +0.222 HD
DOCKED: ENDBRANCH  22  26
DOCKED: ENDBRANCH  21  22
DOCKED: ENDBRANCH   6  21
DOCKED: BRANCH   3  28
DOCKED: ATOM     28  O   UNL d   1      23.274  -2.622  36.740 -0.11 -0.03    -0.278 OA
DOCKED: BRANCH  28  29
DOCKED: ATOM     29  P   UNL d   1      24.301  -1.436  36.463 -0.22 +0.02    +0.473 P 
DOCKED: ATOM     30  O   UNL d   1      25.736  -1.821  36.450 -0.30 -0.03    -0.228 OA
DOCKED: BRANCH  29  31
DOCKED: ATOM     31  O   UNL d   1      23.693  -0.851  35.104 -0.27 +0.01    -0.303 OA
DOCKED: ATOM     32  H   UNL d   1      23.014  -0.174  35.329 -0.33 -0.05    +0.222 HD
DOCKED: ENDBRANCH  29  31
DOCKED: BRANCH  29  33
DOCKED: ATOM     33  O   UNL d   1      23.858  -0.352  37.542 -0.19 +0.02    -0.303 OA
DOCKED: ATOM     34  H   UNL d   1      23.384   0.384  37.082 -0.42 -0.10    +0.222 HD
DOCKED: ENDBRANCH  29  33
DOCKED: ENDBRANCH  28  29
DOCKED: ENDBRANCH   3  28
DOCKED: BRANCH   5  35
DOCKED: ATOM     35  O   UNL d   1      21.262  -6.091  39.062 -0.08 -0.05    -0.278 OA
DOCKED: BRANCH  35  36
DOCKED: ATOM     36  P   UNL d   1      22.214  -7.311  39.446 -0.05 +0.11    +0.473 P 
DOCKED: ATOM     37  O   UNL d   1      22.613  -8.200  38.311 -0.10 -0.06    -0.228 OA
DOCKED: BRANCH  36  38
DOCKED: ATOM     38  O   UNL d   1      23.431  -6.565  40.153 -0.01 -0.09    -0.303 OA
DOCKED: ATOM     39  H   UNL d   1      23.147  -5.662  40.412 +0.02 +0.05    +0.222 HD
DOCKED: ENDBRANCH  36  38
DOCKED: BRANCH  36  40
DOCKED: ATOM     40  O   UNL d   1      21.428  -7.989  40.652 -0.03 -0.05    -0.303 OA
DOCKED: ATOM     41  H   UNL d   1      21.462  -7.437  41.465 +0.02 +0.04    +0.222 HD
DOCKED: ENDBRANCH  36  40
DOCKED: ENDBRANCH  35  36
DOCKED: ENDBRANCH   5  35
DOCKED: BRANCH   4  42
DOCKED: ATOM     42  O   UNL d   1      23.840  -4.909  38.393 -0.04 -0.08    -0.278 OA
DOCKED: BRANCH  42  43
DOCKED: ATOM     43  P   UNL d   1      24.519  -5.762  37.229 -0.10 +0.23    +0.473 P 
DOCKED: ATOM     44  O   UNL d   1      25.555  -6.757  37.621 -0.34 -0.27    -0.228 OA
DOCKED: BRANCH  43  45
DOCKED: ATOM     45  O   UNL d   1      23.263  -6.390  36.479 -0.12 -0.09    -0.303 OA
DOCKED: ATOM     46  H   UNL d   1      22.515  -6.533  37.092 +0.07 +0.05    +0.222 HD
DOCKED: ENDBRANCH  43  45
DOCKED: BRANCH  43  47
DOCKED: ATOM     47  O   UNL d   1      24.995  -4.642  36.185 -0.13 -0.11    -0.303 OA
DOCKED: ATOM     48  H   UNL d   1      25.111  -3.791  36.656 +0.09 +0.06    +0.222 HD
DOCKED: ENDBRANCH  43  47
DOCKED: ENDBRANCH  42  43
DOCKED: ENDBRANCH   4  42
DOCKED: TORSDOF 24
DOCKED: TER
DOCKED: ENDMDL
________________________________________________________________________________


	BEGINNING GENETIC ALGORITHM DOCKING 49 of 100
Run: 49 Seed: 369695431 240818408 [ Run 49 of 100 GA/GALS ]
Beginning LAMARCKIAN GENETIC ALGORITHM (LGA), with a maximum of 25000000 energy evaluations.

Final-Value: -16.378


	FINAL GENETIC ALGORITHM DOCKED STATE
	_______________________________________________


Detailed state:  trans 14.525 -22.707 33.805 quatxyzw 0.433211 0.161737 0.872145 -0.159787 center 0.035 0.082 -0.065 ntor 24 145.4485 74.2569 41.9083 41.5357 53.6037 175.6043 41.3567 -32.3553 160.1387 123.9185 103.5494 -92.4370 -37.3243 -164.6405 141.6508 63.1960 45.4767 95.6644 23.1314 -44.4201 -22.8719 -35.7751 -179.9472 20.1223
State:	 14.525 -22.707  33.805   0.439  0.164  0.883 -161.611    145.45   74.26   41.91   41.54   53.60  175.60   41.36  -32.36  160.14  123.92  103.55  -92.44  -37.32 -164.64  141.65   63.20   45.48   95.66   23.13  -44.42  -22.87  -35.78 -179.95   20.12

DOCKED: MODEL       49
DOCKED: USER    Run = 49
DOCKED: USER    DPF = D:/Protein_go_brrr/autodock/final/1A3N/IHP/dock.dpf
DOCKED: USER  
DOCKED: USER    Estimated Free Energy of Binding    =   +4.57 kcal/mol  [=(1)+(2)+(3)-(4)]
DOCKED: USER    
DOCKED: USER    (1) Final Intermolecular Energy     =   -2.59 kcal/mol
DOCKED: USER        vdW + Hbond + desolv Energy     =   -2.52 kcal/mol
DOCKED: USER        Electrostatic Energy            =   -0.07 kcal/mol
DOCKED: USER    (2) Final Total Internal Energy     =  -13.79 kcal/mol
DOCKED: USER    (3) Torsional Free Energy           =   +7.16 kcal/mol
DOCKED: USER    (4) Unbound System's Energy  [=(2)] =  -13.79 kcal/mol
DOCKED: USER    
DOCKED: USER    
DOCKED: USER    NEWDPF move IHP_ideal_opt.pdbqt
DOCKED: USER    NEWDPF about 0.035000 0.082000 -0.065000
DOCKED: USER    NEWDPF tran0 14.525370 -22.707468 33.804987
DOCKED: USER    NEWDPF quaternion0 0.433211 0.161737 0.872145 -0.159787
DOCKED: USER    NEWDPF axisangle0 0.438850 0.163842 0.883497 -161.610885
DOCKED: USER    NEWDPF quat0 0.438850 0.163842 0.883497 -161.610885
DOCKED: USER    NEWDPF dihe0 145.45 74.26 41.91 41.54 53.60 175.60 41.36 -32.36 160.14 123.92 103.55 -92.44 -37.32 -164.64 141.65 63.20 45.48 95.66 23.13 -44.42 -22.87 -35.78 -179.95 20.12 
DOCKED: USER  keepresnum = 1 
DOCKED: USER  
DOCKED: REMARK  24 active torsions:
DOCKED: REMARK  status: ('A' for Active; 'I' for Inactive)
DOCKED: REMARK    1  A    between atoms: C_1  and  O_7 
DOCKED: REMARK    2  A    between atoms: C_2  and  O_12 
DOCKED: REMARK    3  A    between atoms: C_3  and  O_17 
DOCKED: REMARK    4  A    between atoms: C_4  and  O_22 
DOCKED: REMARK    5  A    between atoms: C_5  and  O_27 
DOCKED: REMARK    6  A    between atoms: C_6  and  O_32 
DOCKED: REMARK    7  A    between atoms: O_7  and  P_8 
DOCKED: REMARK    8  A    between atoms: P_8  and  O_10 
DOCKED: REMARK    9  A    between atoms: P_8  and  O_11 
DOCKED: REMARK   10  A    between atoms: O_12  and  P_13 
DOCKED: REMARK   11  A    between atoms: P_13  and  O_15 
DOCKED: REMARK   12  A    between atoms: P_13  and  O_16 
DOCKED: REMARK   13  A    between atoms: O_17  and  P_18 
DOCKED: REMARK   14  A    between atoms: P_18  and  O_20 
DOCKED: REMARK   15  A    between atoms: P_18  and  O_21 
DOCKED: REMARK   16  A    between atoms: O_22  and  P_23 
DOCKED: REMARK   17  A    between atoms: P_23  and  O_25 
DOCKED: REMARK   18  A    between atoms: P_23  and  O_26 
DOCKED: REMARK   19  A    between atoms: O_27  and  P_28 
DOCKED: REMARK   20  A    between atoms: P_28  and  O_30 
DOCKED: REMARK   21  A    between atoms: P_28  and  O_31 
DOCKED: REMARK   22  A    between atoms: O_32  and  P_33 
DOCKED: REMARK   23  A    between atoms: P_33  and  O_35 
DOCKED: REMARK   24  A    between atoms: P_33  and  O_36 
DOCKED: USER                              x       y       z     vdW  Elec       q    Type
DOCKED: USER                           _______ _______ _______ _____ _____    ______ ____
DOCKED: ROOT
DOCKED: ATOM      1  C   UNL d   1      14.568 -21.273  34.766 -0.05 -0.05    +0.194 C 
DOCKED: ATOM      2  C   UNL d   1      15.098 -21.128  33.338 -0.08 -0.05    +0.194 C 
DOCKED: ATOM      3  C   UNL d   1      15.983 -22.310  32.939 -0.04 -0.02    +0.194 C 
DOCKED: ATOM      4  C   UNL d   1      15.318 -23.665  33.174 -0.00 -0.01    +0.194 C 
DOCKED: ATOM      5  C   UNL d   1      14.675 -23.811  34.547 +0.00 -0.01    +0.194 C 
DOCKED: ATOM      6  C   UNL d   1      13.840 -22.602  34.972 -0.00 -0.02    +0.194 C 
DOCKED: ENDROOT
DOCKED: BRANCH   1   7
DOCKED: ATOM      7  O   UNL d   1      13.621 -20.228  34.999 -0.05 +0.11    -0.278 OA
DOCKED: BRANCH   7   8
DOCKED: ATOM      8  P   UNL d   1      14.103 -18.930  35.798 -0.08 -0.22    +0.473 P 
DOCKED: ATOM      9  O   UNL d   1      15.578 -18.787  35.936 +0.00 +0.08    -0.228 OA
DOCKED: BRANCH   8  10
DOCKED: ATOM     10  O   UNL d   1      13.426 -17.719  35.012 -0.17 +0.36    -0.303 OA
DOCKED: ATOM     11  H   UNL d   1      13.071 -18.038  34.161 -0.13 -0.36    +0.222 HD
DOCKED: ENDBRANCH   8  10
DOCKED: BRANCH   8  12
DOCKED: ATOM     12  O   UNL d   1      13.278 -18.950  37.155 -0.02 +0.09    -0.303 OA
DOCKED: ATOM     13  H   UNL d   1      13.038 -19.859  37.447 +0.02 -0.05    +0.222 HD
DOCKED: ENDBRANCH   8  12
DOCKED: ENDBRANCH   7   8
DOCKED: ENDBRANCH   1   7
DOCKED: BRANCH   2  14
DOCKED: ATOM     14  O   UNL d   1      13.988 -21.062  32.434 -0.06 +0.07    -0.278 OA
DOCKED: BRANCH  14  15
DOCKED: ATOM     15  P   UNL d   1      13.364 -19.611  32.172 -0.05 -0.34    +0.473 P 
DOCKED: ATOM     16  O   UNL d   1      12.010 -19.347  32.753 -0.11 +0.21    -0.228 OA
DOCKED: BRANCH  15  17
DOCKED: ATOM     17  O   UNL d   1      14.475 -18.607  32.714 -0.12 +0.31    -0.303 OA
DOCKED: ATOM     18  H   UNL d   1      14.718 -18.816  33.636 -0.37 -0.21    +0.222 HD
DOCKED: ENDBRANCH  15  17
DOCKED: BRANCH  15  19
DOCKED: ATOM     19  O   UNL d   1      13.487 -19.404  30.599 -0.17 +0.12    -0.303 OA
DOCKED: ATOM     20  H   UNL d   1      14.134 -20.017  30.204 +0.09 -0.03    +0.222 HD
DOCKED: ENDBRANCH  15  19
DOCKED: ENDBRANCH  14  15
DOCKED: ENDBRANCH   2  14
DOCKED: BRANCH   6  21
DOCKED: ATOM     21  O   UNL d   1      13.603 -22.736  36.372 +0.00 +0.03    -0.278 OA
DOCKED: BRANCH  21  22
DOCKED: ATOM     22  P   UNL d   1      12.108 -22.707  36.928 +0.01 -0.04    +0.473 P 
DOCKED: ATOM     23  O   UNL d   1      11.884 -23.035  38.365 -0.00 +0.01    -0.228 OA
DOCKED: BRANCH  22  24
DOCKED: ATOM     24  O   UNL d   1      11.627 -21.253  36.492 +0.00 +0.05    -0.303 OA
DOCKED: ATOM     25  H   UNL d   1      12.424 -20.739  36.204 +0.02 -0.05    +0.222 HD
DOCKED: ENDBRANCH  22  24
DOCKED: BRANCH  22  26
DOCKED: ATOM     26  O   UNL d   1      11.348 -23.639  35.867 +0.00 +0.02    -0.303 OA
DOCKED: ATOM     27  H   UNL d   1      11.994 -23.974  35.213 +0.00 -0.01    +0.222 HD
DOCKED: ENDBRANCH  22  26
DOCKED: ENDBRANCH  21  22
DOCKED: ENDBRANCH   6  21
DOCKED: BRANCH   3  28
DOCKED: ATOM     28  O   UNL d   1      16.195 -22.232  31.535 -0.04 +0.02    -0.278 OA
DOCKED: BRANCH  28  29
DOCKED: ATOM     29  P   UNL d   1      17.196 -21.150  30.932 -0.13 -0.03    +0.473 P 
DOCKED: ATOM     30  O   UNL d   1      18.417 -20.889  31.736 -0.16 +0.01    -0.228 OA
DOCKED: BRANCH  29  31
DOCKED: ATOM     31  O   UNL d   1      17.407 -21.753  29.465 -0.01 +0.07    -0.303 OA
DOCKED: ATOM     32  H   UNL d   1      16.754 -21.336  28.857 -0.43 -0.06    +0.222 HD
DOCKED: ENDBRANCH  29  31
DOCKED: BRANCH  29  33
DOCKED: ATOM     33  O   UNL d   1      16.230 -19.912  30.668 -0.44 -0.03    -0.303 OA
DOCKED: ATOM     34  H   UNL d   1      15.468 -19.960  31.296 +0.02 -0.03    +0.222 HD
DOCKED: ENDBRANCH  29  33
DOCKED: ENDBRANCH  28  29
DOCKED: ENDBRANCH   3  28
DOCKED: BRANCH   5  35
DOCKED: ATOM     35  O   UNL d   1      13.784 -24.920  34.441 +0.00 +0.01    -0.278 OA
DOCKED: BRANCH  35  36
DOCKED: ATOM     36  P   UNL d   1      12.748 -25.007  33.231 +0.00 -0.02    +0.473 P 
DOCKED: ATOM     37  O   UNL d   1      13.246 -25.704  32.005 +0.00 +0.01    -0.228 OA
DOCKED: BRANCH  36  38
DOCKED: ATOM     38  O   UNL d   1      11.498 -25.711  33.923 +0.00 +0.01    -0.303 OA
DOCKED: ATOM     39  H   UNL d   1      10.906 -25.022  34.293 +0.00 -0.01    +0.222 HD
DOCKED: ENDBRANCH  36  38
DOCKED: BRANCH  36  40
DOCKED: ATOM     40  O   UNL d   1      12.292 -23.493  33.065 +0.00 +0.02    -0.303 OA
DOCKED: ATOM     41  H   UNL d   1      12.935 -22.974  32.533 +0.01 -0.02    +0.222 HD
DOCKED: ENDBRANCH  36  40
DOCKED: ENDBRANCH  35  36
DOCKED: ENDBRANCH   5  35
DOCKED: BRANCH   4  42
DOCKED: ATOM     42  O   UNL d   1      16.349 -24.654  33.084 +0.00 +0.01    -0.278 OA
DOCKED: BRANCH  42  43
DOCKED: ATOM     43  P   UNL d   1      16.653 -25.325  31.669 +0.01 -0.02    +0.473 P 
DOCKED: ATOM     44  O   UNL d   1      18.077 -25.599  31.330 -0.00 +0.01    -0.228 OA
DOCKED: BRANCH  43  45
DOCKED: ATOM     45  O   UNL d   1      15.729 -26.621  31.692 +0.00 +0.01    -0.303 OA
DOCKED: ATOM     46  H   UNL d   1      14.921 -26.475  32.224 +0.00 -0.01    +0.222 HD
DOCKED: ENDBRANCH  43  45
DOCKED: BRANCH  43  47
DOCKED: ATOM     47  O   UNL d   1      15.865 -24.382  30.640 -0.00 +0.01    -0.303 OA
DOCKED: ATOM     48  H   UNL d   1      16.441 -23.631  30.385 +0.04 -0.01    +0.222 HD
DOCKED: ENDBRANCH  43  47
DOCKED: ENDBRANCH  42  43
DOCKED: ENDBRANCH   4  42
DOCKED: TORSDOF 24
DOCKED: TER
DOCKED: ENDMDL
________________________________________________________________________________


	BEGINNING GENETIC ALGORITHM DOCKING 50 of 100
Run: 50 Seed: 1209016597 130125947 [ Run 50 of 100 GA/GALS ]
Beginning LAMARCKIAN GENETIC ALGORITHM (LGA), with a maximum of 25000000 energy evaluations.

Final-Value: -17.742


	FINAL GENETIC ALGORITHM DOCKED STATE
	_______________________________________________


Detailed state:  trans 39.620 -22.312 16.642 quatxyzw -0.837563 -0.042119 0.324466 -0.437534 center 0.035 0.082 -0.065 ntor 24 -177.9970 -2.4776 128.7552 73.7173 62.1651 -126.8533 -41.1754 42.2914 27.0964 100.0698 131.4649 136.9740 30.4940 113.0450 122.4832 118.7955 -58.1844 65.0158 -2.5778 -13.7911 -11.9863 -9.4221 -11.0593 -23.7904
State:	 39.620 -22.312  16.642  -0.931 -0.047  0.361 -128.107   -178.00   -2.48  128.76   73.72   62.17 -126.85  -41.18   42.29   27.10  100.07  131.46  136.97   30.49  113.05  122.48  118.80  -58.18   65.02   -2.58  -13.79  -11.99   -9.42  -11.06  -23.79

DOCKED: MODEL       50
DOCKED: USER    Run = 50
DOCKED: USER    DPF = D:/Protein_go_brrr/autodock/final/1A3N/IHP/dock.dpf
DOCKED: USER  
DOCKED: USER    Estimated Free Energy of Binding    =   +4.33 kcal/mol  [=(1)+(2)+(3)-(4)]
DOCKED: USER    
DOCKED: USER    (1) Final Intermolecular Energy     =   -2.83 kcal/mol
DOCKED: USER        vdW + Hbond + desolv Energy     =   -2.78 kcal/mol
DOCKED: USER        Electrostatic Energy            =   -0.04 kcal/mol
DOCKED: USER    (2) Final Total Internal Energy     =  -14.92 kcal/mol
DOCKED: USER    (3) Torsional Free Energy           =   +7.16 kcal/mol
DOCKED: USER    (4) Unbound System's Energy  [=(2)] =  -14.92 kcal/mol
DOCKED: USER    
DOCKED: USER    
DOCKED: USER    NEWDPF move IHP_ideal_opt.pdbqt
DOCKED: USER    NEWDPF about 0.035000 0.082000 -0.065000
DOCKED: USER    NEWDPF tran0 39.619933 -22.311758 16.642016
DOCKED: USER    NEWDPF quaternion0 -0.837563 -0.042119 0.324466 -0.437534
DOCKED: USER    NEWDPF axisangle0 -0.931452 -0.046841 0.360838 -128.106721
DOCKED: USER    NEWDPF quat0 -0.931452 -0.046841 0.360838 -128.106721
DOCKED: USER    NEWDPF dihe0 -178.00 -2.48 128.76 73.72 62.17 -126.85 -41.18 42.29 27.10 100.07 131.46 136.97 30.49 113.05 122.48 118.80 -58.18 65.02 -2.58 -13.79 -11.99 -9.42 -11.06 -23.79 
DOCKED: USER  keepresnum = 1 
DOCKED: USER  
DOCKED: REMARK  24 active torsions:
DOCKED: REMARK  status: ('A' for Active; 'I' for Inactive)
DOCKED: REMARK    1  A    between atoms: C_1  and  O_7 
DOCKED: REMARK    2  A    between atoms: C_2  and  O_12 
DOCKED: REMARK    3  A    between atoms: C_3  and  O_17 
DOCKED: REMARK    4  A    between atoms: C_4  and  O_22 
DOCKED: REMARK    5  A    between atoms: C_5  and  O_27 
DOCKED: REMARK    6  A    between atoms: C_6  and  O_32 
DOCKED: REMARK    7  A    between atoms: O_7  and  P_8 
DOCKED: REMARK    8  A    between atoms: P_8  and  O_10 
DOCKED: REMARK    9  A    between atoms: P_8  and  O_11 
DOCKED: REMARK   10  A    between atoms: O_12  and  P_13 
DOCKED: REMARK   11  A    between atoms: P_13  and  O_15 
DOCKED: REMARK   12  A    between atoms: P_13  and  O_16 
DOCKED: REMARK   13  A    between atoms: O_17  and  P_18 
DOCKED: REMARK   14  A    between atoms: P_18  and  O_20 
DOCKED: REMARK   15  A    between atoms: P_18  and  O_21 
DOCKED: REMARK   16  A    between atoms: O_22  and  P_23 
DOCKED: REMARK   17  A    between atoms: P_23  and  O_25 
DOCKED: REMARK   18  A    between atoms: P_23  and  O_26 
DOCKED: REMARK   19  A    between atoms: O_27  and  P_28 
DOCKED: REMARK   20  A    between atoms: P_28  and  O_30 
DOCKED: REMARK   21  A    between atoms: P_28  and  O_31 
DOCKED: REMARK   22  A    between atoms: O_32  and  P_33 
DOCKED: REMARK   23  A    between atoms: P_33  and  O_35 
DOCKED: REMARK   24  A    between atoms: P_33  and  O_36 
DOCKED: USER                              x       y       z     vdW  Elec       q    Type
DOCKED: USER                           _______ _______ _______ _____ _____    ______ ____
DOCKED: ROOT
DOCKED: ATOM      1  C   UNL d   1      40.335 -20.765  16.361 -0.21 -0.01    +0.194 C 
DOCKED: ATOM      2  C   UNL d   1      39.740 -20.974  17.754 -0.20 -0.01    +0.194 C 
DOCKED: ATOM      3  C   UNL d   1      38.383 -21.679  17.691 -0.19 -0.02    +0.194 C 
DOCKED: ATOM      4  C   UNL d   1      38.413 -22.969  16.876 -0.11 -0.01    +0.194 C 
DOCKED: ATOM      5  C   UNL d   1      39.102 -22.834  15.524 -0.12 -0.00    +0.194 C 
DOCKED: ATOM      6  C   UNL d   1      40.429 -22.075  15.578 -0.09 -0.00    +0.194 C 
DOCKED: ENDROOT
DOCKED: BRANCH   1   7
DOCKED: ATOM      7  O   UNL d   1      41.665 -20.264  16.514 -0.12 +0.00    -0.278 OA
DOCKED: BRANCH   7   8
DOCKED: ATOM      8  P   UNL d   1      42.051 -18.898  15.781 -0.17 +0.02    +0.473 P 
DOCKED: ATOM      9  O   UNL d   1      41.649 -17.659  16.502 -0.13 +0.01    -0.228 OA
DOCKED: BRANCH   8  10
DOCKED: ATOM     10  O   UNL d   1      43.627 -19.011  15.558 -0.10 -0.06    -0.303 OA
DOCKED: ATOM     11  H   UNL d   1      43.889 -19.951  15.545 +0.04 +0.02    +0.222 HD
DOCKED: ENDBRANCH   8  10
DOCKED: BRANCH   8  12
DOCKED: ATOM     12  O   UNL d   1      41.494 -19.052  14.301 -0.20 -0.03    -0.303 OA
DOCKED: ATOM     13  H   UNL d   1      41.731 -19.912  13.887 +0.06 +0.02    +0.222 HD
DOCKED: ENDBRANCH   8  12
DOCKED: ENDBRANCH   7   8
DOCKED: ENDBRANCH   1   7
DOCKED: BRANCH   2  14
DOCKED: ATOM     14  O   UNL d   1      40.637 -21.780  18.529 -0.05 +0.01    -0.278 OA
DOCKED: BRANCH  14  15
DOCKED: ATOM     15  P   UNL d   1      41.253 -21.103  19.843 -0.05 -0.03    +0.473 P 
DOCKED: ATOM     16  O   UNL d   1      41.972 -22.010  20.792 -0.02 +0.02    -0.228 OA
DOCKED: BRANCH  15  17
DOCKED: ATOM     17  O   UNL d   1      42.182 -19.938  19.279 -0.11 +0.03    -0.303 OA
DOCKED: ATOM     18  H   UNL d   1      41.812 -19.559  18.459 +0.05 -0.01    +0.222 HD
DOCKED: ENDBRANCH  15  17
DOCKED: BRANCH  15  19
DOCKED: ATOM     19  O   UNL d   1      40.046 -20.276  20.467 -0.06 +0.02    -0.303 OA
DOCKED: ATOM     20  H   UNL d   1      39.193 -20.529  20.070 +0.07 -0.01    +0.222 HD
DOCKED: ENDBRANCH  15  19
DOCKED: ENDBRANCH  14  15
DOCKED: ENDBRANCH   2  14
DOCKED: BRANCH   6  21
DOCKED: ATOM     21  O   UNL d   1      40.765 -21.736  14.234 -0.08 -0.01    -0.278 OA
DOCKED: BRANCH  21  22
DOCKED: ATOM     22  P   UNL d   1      42.056 -22.382  13.554 -0.01 +0.01    +0.473 P 
DOCKED: ATOM     23  O   UNL d   1      42.067 -22.538  12.071 -0.01 -0.00    -0.228 OA
DOCKED: BRANCH  22  24
DOCKED: ATOM     24  O   UNL d   1      43.222 -21.470  14.139 -0.01 -0.01    -0.303 OA
DOCKED: ATOM     25  H   UNL d   1      42.809 -20.752  14.683 +0.04 +0.01    +0.222 HD
DOCKED: ENDBRANCH  22  24
DOCKED: BRANCH  22  26
DOCKED: ATOM     26  O   UNL d   1      42.232 -23.730  14.405 -0.00 +0.00    -0.303 OA
DOCKED: ATOM     27  H   UNL d   1      41.421 -24.272  14.320 +0.01 -0.00    +0.222 HD
DOCKED: ENDBRANCH  22  26
DOCKED: ENDBRANCH  21  22
DOCKED: ENDBRANCH   6  21
DOCKED: BRANCH   3  28
DOCKED: ATOM     28  O   UNL d   1      38.044 -22.075  19.014 -0.09 +0.02    -0.278 OA
DOCKED: BRANCH  28  29
DOCKED: ATOM     29  P   UNL d   1      37.002 -21.225  19.867 -0.10 -0.05    +0.473 P 
DOCKED: ATOM     30  O   UNL d   1      35.588 -21.671  19.780 -0.06 +0.02    -0.228 OA
DOCKED: BRANCH  29  31
DOCKED: ATOM     31  O   UNL d   1      37.698 -21.293  21.306 -0.04 +0.03    -0.303 OA
DOCKED: ATOM     32  H   UNL d   1      38.602 -21.669  21.200 +0.04 -0.02    +0.222 HD
DOCKED: ENDBRANCH  29  31
DOCKED: BRANCH  29  33
DOCKED: ATOM     33  O   UNL d   1      37.318 -19.738  19.393 -0.22 +0.05    -0.303 OA
DOCKED: ATOM     34  H   UNL d   1      36.633 -19.457  18.738 -0.42 -0.08    +0.222 HD
DOCKED: ENDBRANCH  29  33
DOCKED: ENDBRANCH  28  29
DOCKED: ENDBRANCH   3  28
DOCKED: BRANCH   5  35
DOCKED: ATOM     35  O   UNL d   1      39.396 -24.165  15.104 -0.02 +0.01    -0.278 OA
DOCKED: BRANCH  35  36
DOCKED: ATOM     36  P   UNL d   1      38.777 -24.736  13.750 -0.00 -0.02    +0.473 P 
DOCKED: ATOM     37  O   UNL d   1      37.660 -23.934  13.162 -0.08 +0.01    -0.228 OA
DOCKED: BRANCH  36  38
DOCKED: ATOM     38  O   UNL d   1      40.066 -24.843  12.821 -0.01 +0.01    -0.303 OA
DOCKED: ATOM     39  H   UNL d   1      40.612 -24.035  12.936 +0.02 -0.00    +0.222 HD
DOCKED: ENDBRANCH  36  38
DOCKED: BRANCH  36  40
DOCKED: ATOM     40  O   UNL d   1      38.456 -26.246  14.133 -0.00 +0.01    -0.303 OA
DOCKED: ATOM     41  H   UNL d   1      37.840 -26.305  14.898 +0.02 -0.01    +0.222 HD
DOCKED: ENDBRANCH  36  40
DOCKED: ENDBRANCH  35  36
DOCKED: ENDBRANCH   5  35
DOCKED: BRANCH   4  42
DOCKED: ATOM     42  O   UNL d   1      37.052 -23.331  16.621 +0.00 +0.00    -0.278 OA
DOCKED: BRANCH  42  43
DOCKED: ATOM     43  P   UNL d   1      36.606 -24.849  16.824 -0.01 -0.01    +0.473 P 
DOCKED: ATOM     44  O   UNL d   1      35.693 -25.150  17.961 -0.05 +0.01    -0.228 OA
DOCKED: BRANCH  43  45
DOCKED: ATOM     45  O   UNL d   1      36.016 -25.233  15.396 -0.04 +0.01    -0.303 OA
DOCKED: ATOM     46  H   UNL d   1      36.683 -25.116  14.690 +0.04 -0.01    +0.222 HD
DOCKED: ENDBRANCH  43  45
DOCKED: BRANCH  43  47
DOCKED: ATOM     47  O   UNL d   1      37.998 -25.643  16.825 -0.01 +0.01    -0.303 OA
DOCKED: ATOM     48  H   UNL d   1      38.564 -25.303  16.101 +0.02 -0.01    +0.222 HD
DOCKED: ENDBRANCH  43  47
DOCKED: ENDBRANCH  42  43
DOCKED: ENDBRANCH   4  42
DOCKED: TORSDOF 24
DOCKED: TER
DOCKED: ENDMDL
________________________________________________________________________________


	BEGINNING GENETIC ALGORITHM DOCKING 51 of 100
Run: 51 Seed: 1267436075 2112776343 [ Run 51 of 100 GA/GALS ]
Beginning LAMARCKIAN GENETIC ALGORITHM (LGA), with a maximum of 25000000 energy evaluations.

Final-Value: -18.481


	FINAL GENETIC ALGORITHM DOCKED STATE
	_______________________________________________


Detailed state:  trans 16.996 -19.205 13.868 quatxyzw -0.447492 0.278119 0.280006 -0.802494 center 0.035 0.082 -0.065 ntor 24 160.4286 159.2069 147.1044 52.9069 38.9885 -167.3706 -81.3559 -30.7172 -3.2579 31.6939 75.2608 -125.1837 117.3252 159.2259 18.4900 -161.3598 161.8586 113.7839 32.2048 -17.3754 164.4940 -22.0379 -22.2297 -2.1112
State:	 16.996 -19.205  13.868  -0.750  0.466  0.469 -73.262    160.43  159.21  147.10   52.91   38.99 -167.37  -81.36  -30.72   -3.26   31.69   75.26 -125.18  117.33  159.23   18.49 -161.36  161.86  113.78   32.20  -17.38  164.49  -22.04  -22.23   -2.11

DOCKED: MODEL       51
DOCKED: USER    Run = 51
DOCKED: USER    DPF = D:/Protein_go_brrr/autodock/final/1A3N/IHP/dock.dpf
DOCKED: USER  
DOCKED: USER    Estimated Free Energy of Binding    =   +1.98 kcal/mol  [=(1)+(2)+(3)-(4)]
DOCKED: USER    
DOCKED: USER    (1) Final Intermolecular Energy     =   -5.18 kcal/mol
DOCKED: USER        vdW + Hbond + desolv Energy     =   -4.92 kcal/mol
DOCKED: USER        Electrostatic Energy            =   -0.25 kcal/mol
DOCKED: USER    (2) Final Total Internal Energy     =  -13.30 kcal/mol
DOCKED: USER    (3) Torsional Free Energy           =   +7.16 kcal/mol
DOCKED: USER    (4) Unbound System's Energy  [=(2)] =  -13.30 kcal/mol
DOCKED: USER    
DOCKED: USER    
DOCKED: USER    NEWDPF move IHP_ideal_opt.pdbqt
DOCKED: USER    NEWDPF about 0.035000 0.082000 -0.065000
DOCKED: USER    NEWDPF tran0 16.995654 -19.204708 13.867954
DOCKED: USER    NEWDPF quaternion0 -0.447492 0.278119 0.280006 -0.802494
DOCKED: USER    NEWDPF axisangle0 -0.749996 0.466126 0.469289 -73.262095
DOCKED: USER    NEWDPF quat0 -0.749996 0.466126 0.469289 -73.262095
DOCKED: USER    NEWDPF dihe0 160.43 159.21 147.10 52.91 38.99 -167.37 -81.36 -30.72 -3.26 31.69 75.26 -125.18 117.33 159.23 18.49 -161.36 161.86 113.78 32.20 -17.38 164.49 -22.04 -22.23 -2.11 
DOCKED: USER  keepresnum = 1 
DOCKED: USER  
DOCKED: REMARK  24 active torsions:
DOCKED: REMARK  status: ('A' for Active; 'I' for Inactive)
DOCKED: REMARK    1  A    between atoms: C_1  and  O_7 
DOCKED: REMARK    2  A    between atoms: C_2  and  O_12 
DOCKED: REMARK    3  A    between atoms: C_3  and  O_17 
DOCKED: REMARK    4  A    between atoms: C_4  and  O_22 
DOCKED: REMARK    5  A    between atoms: C_5  and  O_27 
DOCKED: REMARK    6  A    between atoms: C_6  and  O_32 
DOCKED: REMARK    7  A    between atoms: O_7  and  P_8 
DOCKED: REMARK    8  A    between atoms: P_8  and  O_10 
DOCKED: REMARK    9  A    between atoms: P_8  and  O_11 
DOCKED: REMARK   10  A    between atoms: O_12  and  P_13 
DOCKED: REMARK   11  A    between atoms: P_13  and  O_15 
DOCKED: REMARK   12  A    between atoms: P_13  and  O_16 
DOCKED: REMARK   13  A    between atoms: O_17  and  P_18 
DOCKED: REMARK   14  A    between atoms: P_18  and  O_20 
DOCKED: REMARK   15  A    between atoms: P_18  and  O_21 
DOCKED: REMARK   16  A    between atoms: O_22  and  P_23 
DOCKED: REMARK   17  A    between atoms: P_23  and  O_25 
DOCKED: REMARK   18  A    between atoms: P_23  and  O_26 
DOCKED: REMARK   19  A    between atoms: O_27  and  P_28 
DOCKED: REMARK   20  A    between atoms: P_28  and  O_30 
DOCKED: REMARK   21  A    between atoms: P_28  and  O_31 
DOCKED: REMARK   22  A    between atoms: O_32  and  P_33 
DOCKED: REMARK   23  A    between atoms: P_33  and  O_35 
DOCKED: REMARK   24  A    between atoms: P_33  and  O_36 
DOCKED: USER                              x       y       z     vdW  Elec       q    Type
DOCKED: USER                           _______ _______ _______ _____ _____    ______ ____
DOCKED: ROOT
DOCKED: ATOM      1  C   UNL d   1      18.633 -18.655  13.846 -0.12 +0.03    +0.194 C 
DOCKED: ATOM      2  C   UNL d   1      18.263 -19.584  15.004 -0.09 +0.02    +0.194 C 
DOCKED: ATOM      3  C   UNL d   1      16.903 -19.224  15.606 -0.04 +0.05    +0.194 C 
DOCKED: ATOM      4  C   UNL d   1      15.791 -19.128  14.565 -0.01 +0.07    +0.194 C 
DOCKED: ATOM      5  C   UNL d   1      16.159 -18.305  13.338 -0.04 +0.06    +0.194 C 
DOCKED: ATOM      6  C   UNL d   1      17.545 -18.621  12.772 -0.11 +0.04    +0.194 C 
DOCKED: ENDROOT
DOCKED: BRANCH   1   7
DOCKED: ATOM      7  O   UNL d   1      19.822 -19.160  13.232 -0.15 -0.06    -0.278 OA
DOCKED: BRANCH   7   8
DOCKED: ATOM      8  P   UNL d   1      21.233 -18.644  13.774 -0.18 +0.08    +0.473 P 
DOCKED: ATOM      9  O   UNL d   1      22.415 -19.395  13.270 -0.91 -0.08    -0.228 OA
DOCKED: BRANCH   8  10
DOCKED: ATOM     10  O   UNL d   1      21.257 -17.098  13.380 -0.26 -0.07    -0.303 OA
DOCKED: ATOM     11  H   UNL d   1      20.412 -16.855  12.958 +0.11 +0.05    +0.222 HD
DOCKED: ENDBRANCH   8  10
DOCKED: BRANCH   8  12
DOCKED: ATOM     12  O   UNL d   1      21.072 -18.582  15.353 -0.20 +0.01    -0.303 OA
DOCKED: ATOM     13  H   UNL d   1      21.644 -19.229  15.825 -0.31 -0.09    +0.222 HD
DOCKED: ENDBRANCH   8  12
DOCKED: ENDBRANCH   7   8
DOCKED: ENDBRANCH   1   7
DOCKED: BRANCH   2  14
DOCKED: ATOM     14  O   UNL d   1      18.207 -20.932  14.521 -0.06 +0.00    -0.278 OA
DOCKED: BRANCH  14  15
DOCKED: ATOM     15  P   UNL d   1      19.303 -21.946  15.100 -0.12 -0.17    +0.473 P 
DOCKED: ATOM     16  O   UNL d   1      19.809 -22.996  14.161 -0.11 +0.18    -0.228 OA
DOCKED: BRANCH  15  17
DOCKED: ATOM     17  O   UNL d   1      20.459 -20.996  15.646 -0.13 +0.13    -0.303 OA
DOCKED: ATOM     18  H   UNL d   1      20.099 -20.310  16.240 -0.19 -0.06    +0.222 HD
DOCKED: ENDBRANCH  15  17
DOCKED: BRANCH  15  19
DOCKED: ATOM     19  O   UNL d   1      18.667 -22.486  16.455 -0.09 +0.09    -0.303 OA
DOCKED: ATOM     20  H   UNL d   1      17.841 -22.019  16.677 +0.05 -0.02    +0.222 HD
DOCKED: ENDBRANCH  15  19
DOCKED: ENDBRANCH  14  15
DOCKED: ENDBRANCH   2  14
DOCKED: BRANCH   6  21
DOCKED: ATOM     21  O   UNL d   1      17.876 -17.564  11.875 -0.10 -0.05    -0.278 OA
DOCKED: BRANCH  21  22
DOCKED: ATOM     22  P   UNL d   1      18.009 -16.072  12.424 -0.03 +0.09    +0.473 P 
DOCKED: ATOM     23  O   UNL d   1      18.837 -15.841  13.643 -0.10 -0.05    -0.228 OA
DOCKED: BRANCH  22  24
DOCKED: ATOM     24  O   UNL d   1      18.499 -15.290  11.127 -0.06 -0.03    -0.303 OA
DOCKED: ATOM     25  H   UNL d   1      18.984 -15.930  10.547 -0.37 -0.04    +0.222 HD
DOCKED: ENDBRANCH  22  24
DOCKED: BRANCH  22  26
DOCKED: ATOM     26  O   UNL d   1      16.474 -15.622  12.522 -0.02 -0.09    -0.303 OA
DOCKED: ATOM     27  H   UNL d   1      15.904 -16.419  12.521 +0.05 +0.07    +0.222 HD
DOCKED: ENDBRANCH  22  26
DOCKED: ENDBRANCH  21  22
DOCKED: ENDBRANCH   6  21
DOCKED: BRANCH   3  28
DOCKED: ATOM     28  O   UNL d   1      16.522 -20.288  16.469 -0.04 -0.08    -0.278 OA
DOCKED: BRANCH  28  29
DOCKED: ATOM     29  P   UNL d   1      16.965 -20.282  17.999 -0.19 +0.15    +0.473 P 
DOCKED: ATOM     30  O   UNL d   1      16.371 -21.351  18.842 -0.21 -0.06    -0.228 OA
DOCKED: BRANCH  29  31
DOCKED: ATOM     31  O   UNL d   1      18.556 -20.291  17.829 -0.42 -0.05    -0.303 OA
DOCKED: ATOM     32  H   UNL d   1      18.780 -20.760  16.992 +0.09 -0.00    +0.222 HD
DOCKED: ENDBRANCH  29  31
DOCKED: BRANCH  29  33
DOCKED: ATOM     33  O   UNL d   1      16.666 -18.778  18.427 -0.29 -0.18    -0.303 OA
DOCKED: ATOM     34  H   UNL d   1      15.926 -18.427  17.872 +0.08 +0.17    +0.222 HD
DOCKED: ENDBRANCH  29  33
DOCKED: ENDBRANCH  28  29
DOCKED: ENDBRANCH   3  28
DOCKED: BRANCH   5  35
DOCKED: ATOM     35  O   UNL d   1      15.207 -18.656  12.336 -0.04 -0.09    -0.278 OA
DOCKED: BRANCH  35  36
DOCKED: ATOM     36  P   UNL d   1      14.074 -17.619  11.903 -0.04 +0.24    +0.473 P 
DOCKED: ATOM     37  O   UNL d   1      12.821 -18.224  11.356 -0.16 -0.16    -0.228 OA
DOCKED: BRANCH  36  38
DOCKED: ATOM     38  O   UNL d   1      13.868 -16.784  13.243 -0.01 -0.18    -0.303 OA
DOCKED: ATOM     39  H   UNL d   1      13.386 -17.337  13.895 +0.03 +0.16    +0.222 HD
DOCKED: ENDBRANCH  36  38
DOCKED: BRANCH  36  40
DOCKED: ATOM     40  O   UNL d   1      14.871 -16.624  10.952 -0.08 -0.12    -0.303 OA
DOCKED: ATOM     41  H   UNL d   1      15.840 -16.781  10.990 +0.06 +0.06    +0.222 HD
DOCKED: ENDBRANCH  36  40
DOCKED: ENDBRANCH  35  36
DOCKED: ENDBRANCH   5  35
DOCKED: BRANCH   4  42
DOCKED: ATOM     42  O   UNL d   1      14.687 -18.472  15.197 -0.03 -0.17    -0.278 OA
DOCKED: BRANCH  42  43
DOCKED: ATOM     43  P   UNL d   1      13.345 -19.294  15.455 -0.03 +0.38    +0.473 P 
DOCKED: ATOM     44  O   UNL d   1      12.411 -18.777  16.494 -0.10 -0.41    -0.228 OA
DOCKED: BRANCH  43  45
DOCKED: ATOM     45  O   UNL d   1      12.710 -19.391  13.999 -0.01 -0.19    -0.303 OA
DOCKED: ATOM     46  H   UNL d   1      13.287 -18.974  13.329 +0.03 +0.12    +0.222 HD
DOCKED: ENDBRANCH  43  45
DOCKED: BRANCH  43  47
DOCKED: ATOM     47  O   UNL d   1      13.871 -20.792  15.681 -0.01 -0.15    -0.303 OA
DOCKED: ATOM     48  H   UNL d   1      14.551 -20.792  16.386 +0.03 +0.10    +0.222 HD
DOCKED: ENDBRANCH  43  47
DOCKED: ENDBRANCH  42  43
DOCKED: ENDBRANCH   4  42
DOCKED: TORSDOF 24
DOCKED: TER
DOCKED: ENDMDL
________________________________________________________________________________


	BEGINNING GENETIC ALGORITHM DOCKING 52 of 100
Run: 52 Seed: 1144561151 673943516 [ Run 52 of 100 GA/GALS ]
Beginning LAMARCKIAN GENETIC ALGORITHM (LGA), with a maximum of 25000000 energy evaluations.

Final-Value: -20.330


	FINAL GENETIC ALGORITHM DOCKED STATE
	_______________________________________________


Detailed state:  trans 3.881 -18.962 15.535 quatxyzw 0.899786 -0.127743 -0.349295 -0.228167 center 0.035 0.082 -0.065 ntor 24 -110.2013 35.6188 173.3203 -1.8243 -56.5867 -133.7252 20.4162 -162.9068 -7.4923 53.9082 155.8836 125.4494 27.6960 86.7993 -2.6204 -114.6660 -146.1334 113.8177 13.6992 -44.1962 -31.7856 49.0874 159.4445 -40.9448
State:	  3.881 -18.962  15.535   0.924 -0.131 -0.359 -153.622   -110.20   35.62  173.32   -1.82  -56.59 -133.73   20.42 -162.91   -7.49   53.91  155.88  125.45   27.70   86.80   -2.62 -114.67 -146.13  113.82   13.70  -44.20  -31.79   49.09  159.44  -40.94

DOCKED: MODEL       52
DOCKED: USER    Run = 52
DOCKED: USER    DPF = D:/Protein_go_brrr/autodock/final/1A3N/IHP/dock.dpf
DOCKED: USER  
DOCKED: USER    Estimated Free Energy of Binding    =   +0.10 kcal/mol  [=(1)+(2)+(3)-(4)]
DOCKED: USER    
DOCKED: USER    (1) Final Intermolecular Energy     =   -7.06 kcal/mol
DOCKED: USER        vdW + Hbond + desolv Energy     =   -6.58 kcal/mol
DOCKED: USER        Electrostatic Energy            =   -0.48 kcal/mol
DOCKED: USER    (2) Final Total Internal Energy     =  -13.27 kcal/mol
DOCKED: USER    (3) Torsional Free Energy           =   +7.16 kcal/mol
DOCKED: USER    (4) Unbound System's Energy  [=(2)] =  -13.27 kcal/mol
DOCKED: USER    
DOCKED: USER    
DOCKED: USER    NEWDPF move IHP_ideal_opt.pdbqt
DOCKED: USER    NEWDPF about 0.035000 0.082000 -0.065000
DOCKED: USER    NEWDPF tran0 3.880868 -18.962098 15.535016
DOCKED: USER    NEWDPF quaternion0 0.899786 -0.127743 -0.349295 -0.228167
DOCKED: USER    NEWDPF axisangle0 0.924164 -0.131204 -0.358758 -153.621583
DOCKED: USER    NEWDPF quat0 0.924164 -0.131204 -0.358758 -153.621583
DOCKED: USER    NEWDPF dihe0 -110.20 35.62 173.32 -1.82 -56.59 -133.73 20.42 -162.91 -7.49 53.91 155.88 125.45 27.70 86.80 -2.62 -114.67 -146.13 113.82 13.70 -44.20 -31.79 49.09 159.44 -40.94 
DOCKED: USER  keepresnum = 1 
DOCKED: USER  
DOCKED: REMARK  24 active torsions:
DOCKED: REMARK  status: ('A' for Active; 'I' for Inactive)
DOCKED: REMARK    1  A    between atoms: C_1  and  O_7 
DOCKED: REMARK    2  A    between atoms: C_2  and  O_12 
DOCKED: REMARK    3  A    between atoms: C_3  and  O_17 
DOCKED: REMARK    4  A    between atoms: C_4  and  O_22 
DOCKED: REMARK    5  A    between atoms: C_5  and  O_27 
DOCKED: REMARK    6  A    between atoms: C_6  and  O_32 
DOCKED: REMARK    7  A    between atoms: O_7  and  P_8 
DOCKED: REMARK    8  A    between atoms: P_8  and  O_10 
DOCKED: REMARK    9  A    between atoms: P_8  and  O_11 
DOCKED: REMARK   10  A    between atoms: O_12  and  P_13 
DOCKED: REMARK   11  A    between atoms: P_13  and  O_15 
DOCKED: REMARK   12  A    between atoms: P_13  and  O_16 
DOCKED: REMARK   13  A    between atoms: O_17  and  P_18 
DOCKED: REMARK   14  A    between atoms: P_18  and  O_20 
DOCKED: REMARK   15  A    between atoms: P_18  and  O_21 
DOCKED: REMARK   16  A    between atoms: O_22  and  P_23 
DOCKED: REMARK   17  A    between atoms: P_23  and  O_25 
DOCKED: REMARK   18  A    between atoms: P_23  and  O_26 
DOCKED: REMARK   19  A    between atoms: O_27  and  P_28 
DOCKED: REMARK   20  A    between atoms: P_28  and  O_30 
DOCKED: REMARK   21  A    between atoms: P_28  and  O_31 
DOCKED: REMARK   22  A    between atoms: O_32  and  P_33 
DOCKED: REMARK   23  A    between atoms: P_33  and  O_35 
DOCKED: REMARK   24  A    between atoms: P_33  and  O_36 
DOCKED: USER                              x       y       z     vdW  Elec       q    Type
DOCKED: USER                           _______ _______ _______ _____ _____    ______ ____
DOCKED: ROOT
DOCKED: ATOM      1  C   UNL d   1       4.307 -18.938  13.861 -0.07 +0.04    +0.194 C 
DOCKED: ATOM      2  C   UNL d   1       3.714 -17.639  14.411 -0.20 +0.04    +0.194 C 
DOCKED: ATOM      3  C   UNL d   1       2.514 -17.905  15.322 -0.20 -0.00    +0.194 C 
DOCKED: ATOM      4  C   UNL d   1       2.810 -18.918  16.426 -0.19 -0.00    +0.194 C 
DOCKED: ATOM      5  C   UNL d   1       3.506 -20.182  15.938 -0.13 -0.01    +0.194 C 
DOCKED: ATOM      6  C   UNL d   1       4.668 -19.918  14.978 -0.09 +0.02    +0.194 C 
DOCKED: ENDROOT
DOCKED: BRANCH   1   7
DOCKED: ATOM      7  O   UNL d   1       5.515 -18.617  13.168 -0.15 -0.19    -0.278 OA
DOCKED: BRANCH   7   8
DOCKED: ATOM      8  P   UNL d   1       5.527 -18.724  11.574 -0.30 +0.47    +0.473 P 
DOCKED: ATOM      9  O   UNL d   1       4.908 -17.574  10.860 -0.99 -0.28    -0.228 OA
DOCKED: BRANCH   8  10
DOCKED: ATOM     10  O   UNL d   1       7.066 -18.933  11.211 -0.50 -0.50    -0.303 OA
DOCKED: ATOM     11  H   UNL d   1       7.265 -19.887  11.167 +0.07 +0.22    +0.222 HD
DOCKED: ENDBRANCH   8  10
DOCKED: BRANCH   8  12
DOCKED: ATOM     12  O   UNL d   1       4.912 -20.153  11.251 -0.35 -0.16    -0.303 OA
DOCKED: ATOM     13  H   UNL d   1       4.801 -20.715  12.051 -0.13 +0.04    +0.222 HD
DOCKED: ENDBRANCH   8  12
DOCKED: ENDBRANCH   7   8
DOCKED: ENDBRANCH   1   7
DOCKED: BRANCH   2  14
DOCKED: ATOM     14  O   UNL d   1       4.718 -16.951  15.168 -0.04 -0.11    -0.278 OA
DOCKED: BRANCH  14  15
DOCKED: ATOM     15  P   UNL d   1       5.679 -15.965  14.352 -0.01 +0.34    +0.473 P 
DOCKED: ATOM     16  O   UNL d   1       6.073 -14.692  15.035 -0.04 -0.14    -0.228 OA
DOCKED: BRANCH  15  17
DOCKED: ATOM     17  O   UNL d   1       6.931 -16.872  13.969 -0.08 -0.40    -0.303 OA
DOCKED: ATOM     18  H   UNL d   1       6.722 -17.461  13.218 +0.06 +0.35    +0.222 HD
DOCKED: ENDBRANCH  15  17
DOCKED: BRANCH  15  19
DOCKED: ATOM     19  O   UNL d   1       4.965 -15.793  12.941 -0.14 -0.23    -0.303 OA
DOCKED: ATOM     20  H   UNL d   1       4.890 -16.643  12.469 +0.12 +0.19    +0.222 HD
DOCKED: ENDBRANCH  15  19
DOCKED: ENDBRANCH  14  15
DOCKED: ENDBRANCH   2  14
DOCKED: BRANCH   6  21
DOCKED: ATOM     21  O   UNL d   1       4.980 -21.163  14.357 -0.09 -0.02    -0.278 OA
DOCKED: BRANCH  21  22
DOCKED: ATOM     22  P   UNL d   1       6.502 -21.626  14.234 +0.00 +0.12    +0.473 P 
DOCKED: ATOM     23  O   UNL d   1       7.474 -21.131  15.251 -0.00 -0.08    -0.228 OA
DOCKED: BRANCH  22  24
DOCKED: ATOM     24  O   UNL d   1       6.356 -23.209  14.165 -0.01 -0.04    -0.303 OA
DOCKED: ATOM     25  H   UNL d   1       6.885 -23.600  14.906 +0.01 +0.03    +0.222 HD
DOCKED: ENDBRANCH  22  24
DOCKED: BRANCH  22  26
DOCKED: ATOM     26  O   UNL d   1       6.832 -21.257  12.709 -0.04 -0.13    -0.303 OA
DOCKED: ATOM     27  H   UNL d   1       6.590 -20.324  12.544 +0.07 +0.13    +0.222 HD
DOCKED: ENDBRANCH  22  26
DOCKED: ENDBRANCH  21  22
DOCKED: ENDBRANCH   6  21
DOCKED: BRANCH   3  28
DOCKED: ATOM     28  O   UNL d   1       2.210 -16.691  15.997 -0.21 -0.04    -0.278 OA
DOCKED: BRANCH  28  29
DOCKED: ATOM     29  P   UNL d   1       0.769 -16.465  16.637 -0.30 +0.15    +0.473 P 
DOCKED: ATOM     30  O   UNL d   1       0.210 -15.097  16.488 -0.73 -0.10    -0.228 OA
DOCKED: BRANCH  29  31
DOCKED: ATOM     31  O   UNL d   1      -0.037 -17.659  15.939 -0.66 +0.01    -0.303 OA
DOCKED: ATOM     32  H   UNL d   1       0.259 -18.511  16.336 -0.39 -0.19    +0.222 HD
DOCKED: ENDBRANCH  29  31
DOCKED: BRANCH  29  33
DOCKED: ATOM     33  O   UNL d   1       0.976 -17.001  18.122 -0.46 -0.13    -0.303 OA
DOCKED: ATOM     34  H   UNL d   1       0.556 -17.892  18.203 +0.09 +0.07    +0.222 HD
DOCKED: ENDBRANCH  29  33
DOCKED: ENDBRANCH  28  29
DOCKED: ENDBRANCH   3  28
DOCKED: BRANCH   5  35
DOCKED: ATOM     35  O   UNL d   1       4.055 -20.796  17.102 -0.03 -0.01    -0.278 OA
DOCKED: BRANCH  35  36
DOCKED: ATOM     36  P   UNL d   1       5.288 -20.125  17.860 +0.02 +0.10    +0.473 P 
DOCKED: ATOM     37  O   UNL d   1       6.623 -20.744  17.593 -0.00 -0.06    -0.228 OA
DOCKED: BRANCH  36  38
DOCKED: ATOM     38  O   UNL d   1       5.167 -18.606  17.398 -0.02 -0.09    -0.303 OA
DOCKED: ATOM     39  H   UNL d   1       5.514 -18.520  16.484 +0.05 +0.07    +0.222 HD
DOCKED: ENDBRANCH  36  38
DOCKED: BRANCH  36  40
DOCKED: ATOM     40  O   UNL d   1       4.790 -20.106  19.370 -0.04 -0.05    -0.303 OA
DOCKED: ATOM     41  H   UNL d   1       3.987 -20.659  19.495 +0.04 +0.02    +0.222 HD
DOCKED: ENDBRANCH  36  40
DOCKED: ENDBRANCH  35  36
DOCKED: ENDBRANCH   5  35
DOCKED: BRANCH   4  42
DOCKED: ATOM     42  O   UNL d   1       1.548 -19.317  16.972 -0.18 +0.11    -0.278 OA
DOCKED: BRANCH  42  43
DOCKED: ATOM     43  P   UNL d   1       1.482 -19.797  18.492 -0.10 -0.04    +0.473 P 
DOCKED: ATOM     44  O   UNL d   1       0.155 -19.757  19.168 -0.25 -0.02    -0.228 OA
DOCKED: BRANCH  43  45
DOCKED: ATOM     45  O   UNL d   1       2.137 -21.245  18.429 -0.06 +0.03    -0.303 OA
DOCKED: ATOM     46  H   UNL d   1       3.114 -21.198  18.453 +0.05 -0.00    +0.222 HD
DOCKED: ENDBRANCH  43  45
DOCKED: BRANCH  43  47
DOCKED: ATOM     47  O   UNL d   1       2.643 -18.944  19.195 -0.01 -0.06    -0.303 OA
DOCKED: ATOM     48  H   UNL d   1       3.488 -19.101  18.726 +0.06 +0.04    +0.222 HD
DOCKED: ENDBRANCH  43  47
DOCKED: ENDBRANCH  42  43
DOCKED: ENDBRANCH   4  42
DOCKED: TORSDOF 24
DOCKED: TER
DOCKED: ENDMDL
________________________________________________________________________________


	BEGINNING GENETIC ALGORITHM DOCKING 53 of 100
Run: 53 Seed: 676281230 1859256196 [ Run 53 of 100 GA/GALS ]
Beginning LAMARCKIAN GENETIC ALGORITHM (LGA), with a maximum of 25000000 energy evaluations.

Final-Value: -19.795


	FINAL GENETIC ALGORITHM DOCKED STATE
	_______________________________________________


Detailed state:  trans 19.655 -13.538 -6.639 quatxyzw -0.955103 -0.130640 -0.264100 -0.031016 center 0.035 0.082 -0.065 ntor 24 -120.7325 -46.6435 149.3330 20.7506 23.0926 164.2083 -106.1108 -107.6432 89.9589 111.0895 27.1498 -98.9519 57.4170 -169.9273 180.0000 35.0299 112.3370 -40.7224 -18.1220 15.8404 -21.6105 24.6336 -1.4838 -2.7206
State:	 19.655 -13.538  -6.639  -0.956 -0.131 -0.264 -176.445   -120.73  -46.64  149.33   20.75   23.09  164.21 -106.11 -107.64   89.96  111.09   27.15  -98.95   57.42 -169.93  180.00   35.03  112.34  -40.72  -18.12   15.84  -21.61   24.63   -1.48   -2.72

DOCKED: MODEL       53
DOCKED: USER    Run = 53
DOCKED: USER    DPF = D:/Protein_go_brrr/autodock/final/1A3N/IHP/dock.dpf
DOCKED: USER  
DOCKED: USER    Estimated Free Energy of Binding    =   +2.46 kcal/mol  [=(1)+(2)+(3)-(4)]
DOCKED: USER    
DOCKED: USER    (1) Final Intermolecular Energy     =   -4.69 kcal/mol
DOCKED: USER        vdW + Hbond + desolv Energy     =   -4.55 kcal/mol
DOCKED: USER        Electrostatic Energy            =   -0.14 kcal/mol
DOCKED: USER    (2) Final Total Internal Energy     =  -15.10 kcal/mol
DOCKED: USER    (3) Torsional Free Energy           =   +7.16 kcal/mol
DOCKED: USER    (4) Unbound System's Energy  [=(2)] =  -15.10 kcal/mol
DOCKED: USER    
DOCKED: USER    
DOCKED: USER    NEWDPF move IHP_ideal_opt.pdbqt
DOCKED: USER    NEWDPF about 0.035000 0.082000 -0.065000
DOCKED: USER    NEWDPF tran0 19.655356 -13.538320 -6.639250
DOCKED: USER    NEWDPF quaternion0 -0.955103 -0.130640 -0.264100 -0.031016
DOCKED: USER    NEWDPF axisangle0 -0.955563 -0.130703 -0.264227 -176.445260
DOCKED: USER    NEWDPF quat0 -0.955563 -0.130703 -0.264227 -176.445260
DOCKED: USER    NEWDPF dihe0 -120.73 -46.64 149.33 20.75 23.09 164.21 -106.11 -107.64 89.96 111.09 27.15 -98.95 57.42 -169.93 180.00 35.03 112.34 -40.72 -18.12 15.84 -21.61 24.63 -1.48 -2.72 
DOCKED: USER  keepresnum = 1 
DOCKED: USER  
DOCKED: REMARK  24 active torsions:
DOCKED: REMARK  status: ('A' for Active; 'I' for Inactive)
DOCKED: REMARK    1  A    between atoms: C_1  and  O_7 
DOCKED: REMARK    2  A    between atoms: C_2  and  O_12 
DOCKED: REMARK    3  A    between atoms: C_3  and  O_17 
DOCKED: REMARK    4  A    between atoms: C_4  and  O_22 
DOCKED: REMARK    5  A    between atoms: C_5  and  O_27 
DOCKED: REMARK    6  A    between atoms: C_6  and  O_32 
DOCKED: REMARK    7  A    between atoms: O_7  and  P_8 
DOCKED: REMARK    8  A    between atoms: P_8  and  O_10 
DOCKED: REMARK    9  A    between atoms: P_8  and  O_11 
DOCKED: REMARK   10  A    between atoms: O_12  and  P_13 
DOCKED: REMARK   11  A    between atoms: P_13  and  O_15 
DOCKED: REMARK   12  A    between atoms: P_13  and  O_16 
DOCKED: REMARK   13  A    between atoms: O_17  and  P_18 
DOCKED: REMARK   14  A    between atoms: P_18  and  O_20 
DOCKED: REMARK   15  A    between atoms: P_18  and  O_21 
DOCKED: REMARK   16  A    between atoms: O_22  and  P_23 
DOCKED: REMARK   17  A    between atoms: P_23  and  O_25 
DOCKED: REMARK   18  A    between atoms: P_23  and  O_26 
DOCKED: REMARK   19  A    between atoms: O_27  and  P_28 
DOCKED: REMARK   20  A    between atoms: P_28  and  O_30 
DOCKED: REMARK   21  A    between atoms: P_28  and  O_31 
DOCKED: REMARK   22  A    between atoms: O_32  and  P_33 
DOCKED: REMARK   23  A    between atoms: P_33  and  O_35 
DOCKED: REMARK   24  A    between atoms: P_33  and  O_36 
DOCKED: USER                              x       y       z     vdW  Elec       q    Type
DOCKED: USER                           _______ _______ _______ _____ _____    ______ ____
DOCKED: ROOT
DOCKED: ATOM      1  C   UNL d   1      20.847 -12.289  -6.685 -0.07 -0.01    +0.194 C 
DOCKED: ATOM      2  C   UNL d   1      19.419 -11.852  -7.016 -0.08 -0.04    +0.194 C 
DOCKED: ATOM      3  C   UNL d   1      18.720 -12.853  -7.937 -0.06 -0.05    +0.194 C 
DOCKED: ATOM      4  C   UNL d   1      18.780 -14.289  -7.422 -0.06 -0.06    +0.194 C 
DOCKED: ATOM      5  C   UNL d   1      20.167 -14.730  -6.972 -0.04 -0.04    +0.194 C 
DOCKED: ATOM      6  C   UNL d   1      20.891 -13.701  -6.101 -0.07 -0.02    +0.194 C 
DOCKED: ENDROOT
DOCKED: BRANCH   1   7
DOCKED: ATOM      7  O   UNL d   1      21.366 -11.401  -5.692 -0.47 -0.10    -0.278 OA
DOCKED: BRANCH   7   8
DOCKED: ATOM      8  P   UNL d   1      22.893 -10.943  -5.806 -0.06 +0.21    +0.473 P 
DOCKED: ATOM      9  O   UNL d   1      23.098  -9.522  -6.195 -0.24 -0.05    -0.228 OA
DOCKED: BRANCH   8  10
DOCKED: ATOM     10  O   UNL d   1      23.511 -11.299  -4.379 -0.13 -0.36    -0.303 OA
DOCKED: ATOM     11  H   UNL d   1      23.741 -12.247  -4.349 +0.06 +0.15    +0.222 HD
DOCKED: ENDBRANCH   8  10
DOCKED: BRANCH   8  12
DOCKED: ATOM     12  O   UNL d   1      23.579 -12.026  -6.745 -0.02 -0.02    -0.303 OA
DOCKED: ATOM     13  H   UNL d   1      23.975 -12.775  -6.245 +0.04 +0.01    +0.222 HD
DOCKED: ENDBRANCH   8  12
DOCKED: ENDBRANCH   7   8
DOCKED: ENDBRANCH   1   7
DOCKED: BRANCH   2  14
DOCKED: ATOM     14  O   UNL d   1      18.668 -11.750  -5.799 -0.15 +0.12    -0.278 OA
DOCKED: BRANCH  14  15
DOCKED: ATOM     15  P   UNL d   1      17.530 -10.625  -5.753 -0.21 -0.25    +0.473 P 
DOCKED: ATOM     16  O   UNL d   1      17.733  -9.502  -4.785 -0.29 +0.11    -0.228 OA
DOCKED: BRANCH  15  17
DOCKED: ATOM     17  O   UNL d   1      17.416 -10.127  -7.262 -0.16 +0.10    -0.303 OA
DOCKED: ATOM     18  H   UNL d   1      17.268 -10.876  -7.870 +0.11 -0.07    +0.222 HD
DOCKED: ENDBRANCH  15  17
DOCKED: BRANCH  15  19
DOCKED: ATOM     19  O   UNL d   1      16.174 -11.440  -5.583 -0.74 +0.34    -0.303 OA
DOCKED: ATOM     20  H   UNL d   1      16.177 -12.259  -6.113 -0.34 -0.38    +0.222 HD
DOCKED: ENDBRANCH  15  19
DOCKED: ENDBRANCH  14  15
DOCKED: ENDBRANCH   2  14
DOCKED: BRANCH   6  21
DOCKED: ATOM     21  O   UNL d   1      22.261 -14.093  -6.054 -0.03 +0.01    -0.278 OA
DOCKED: BRANCH  21  22
DOCKED: ATOM     22  P   UNL d   1      22.966 -14.341  -4.645 -0.04 +0.01    +0.473 P 
DOCKED: ATOM     23  O   UNL d   1      24.429 -14.074  -4.532 -0.02 -0.01    -0.228 OA
DOCKED: BRANCH  22  24
DOCKED: ATOM     24  O   UNL d   1      22.053 -13.478  -3.668 -0.19 -0.07    -0.303 OA
DOCKED: ATOM     25  H   UNL d   1      21.860 -12.613  -4.110 +0.05 +0.18    +0.222 HD
DOCKED: ENDBRANCH  22  24
DOCKED: BRANCH  22  26
DOCKED: ATOM     26  O   UNL d   1      22.496 -15.835  -4.304 -0.04 +0.04    -0.303 OA
DOCKED: ATOM     27  H   UNL d   1      21.807 -16.109  -4.944 +0.03 -0.04    +0.222 HD
DOCKED: ENDBRANCH  22  26
DOCKED: ENDBRANCH  21  22
DOCKED: ENDBRANCH   6  21
DOCKED: BRANCH   3  28
DOCKED: ATOM     28  O   UNL d   1      17.338 -12.519  -7.963 -0.15 +0.11    -0.278 OA
DOCKED: BRANCH  28  29
DOCKED: ATOM     29  P   UNL d   1      16.543 -12.486  -9.343 -0.12 -0.02    +0.473 P 
DOCKED: ATOM     30  O   UNL d   1      17.278 -13.022 -10.518 -0.04 -0.02    -0.228 OA
DOCKED: BRANCH  29  31
DOCKED: ATOM     31  O   UNL d   1      15.205 -13.251  -8.913 -0.31 -0.04    -0.303 OA
DOCKED: ATOM     32  H   UNL d   1      15.452 -14.121  -8.522 +0.08 -0.06    +0.222 HD
DOCKED: ENDBRANCH  29  31
DOCKED: BRANCH  29  33
DOCKED: ATOM     33  O   UNL d   1      16.071 -10.968  -9.421 -0.12 +0.05    -0.303 OA
DOCKED: ATOM     34  H   UNL d   1      15.661 -10.714  -8.558 -0.36 -0.09    +0.222 HD
DOCKED: ENDBRANCH  29  33
DOCKED: ENDBRANCH  28  29
DOCKED: ENDBRANCH   3  28
DOCKED: BRANCH   5  35
DOCKED: ATOM     35  O   UNL d   1      19.963 -15.891  -6.170 -0.06 +0.07    -0.278 OA
DOCKED: BRANCH  35  36
DOCKED: ATOM     36  P   UNL d   1      20.791 -17.223  -6.458 -0.01 -0.08    +0.473 P 
DOCKED: ATOM     37  O   UNL d   1      20.926 -18.162  -5.301 -0.02 +0.04    -0.228 OA
DOCKED: BRANCH  36  38
DOCKED: ATOM     38  O   UNL d   1      20.008 -17.830  -7.705 -0.00 +0.05    -0.303 OA
DOCKED: ATOM     39  H   UNL d   1      19.487 -17.118  -8.135 +0.02 -0.04    +0.222 HD
DOCKED: ENDBRANCH  36  38
DOCKED: BRANCH  36  40
DOCKED: ATOM     40  O   UNL d   1      22.137 -16.657  -7.089 -0.00 +0.04    -0.303 OA
DOCKED: ATOM     41  H   UNL d   1      22.680 -16.182  -6.422 +0.02 -0.02    +0.222 HD
DOCKED: ENDBRANCH  36  40
DOCKED: ENDBRANCH  35  36
DOCKED: ENDBRANCH   5  35
DOCKED: BRANCH   4  42
DOCKED: ATOM     42  O   UNL d   1      18.401 -15.137  -8.512 -0.03 +0.06    -0.278 OA
DOCKED: BRANCH  42  43
DOCKED: ATOM     43  P   UNL d   1      17.043 -15.967  -8.407 -0.05 -0.15    +0.473 P 
DOCKED: ATOM     44  O   UNL d   1      16.180 -15.725  -7.218 -0.19 +0.23    -0.228 OA
DOCKED: BRANCH  43  45
DOCKED: ATOM     45  O   UNL d   1      16.336 -15.657  -9.799 -0.05 -0.03    -0.303 OA
DOCKED: ATOM     46  H   UNL d   1      16.370 -14.703 -10.012 +0.05 +0.05    +0.222 HD
DOCKED: ENDBRANCH  43  45
DOCKED: BRANCH  43  47
DOCKED: ATOM     47  O   UNL d   1      17.524 -17.482  -8.616 -0.01 +0.06    -0.303 OA
DOCKED: ATOM     48  H   UNL d   1      17.893 -17.823  -7.775 +0.02 -0.06    +0.222 HD
DOCKED: ENDBRANCH  43  47
DOCKED: ENDBRANCH  42  43
DOCKED: ENDBRANCH   4  42
DOCKED: TORSDOF 24
DOCKED: TER
DOCKED: ENDMDL
________________________________________________________________________________


	BEGINNING GENETIC ALGORITHM DOCKING 54 of 100
Run: 54 Seed: 28165768 1584361048 [ Run 54 of 100 GA/GALS ]
Beginning LAMARCKIAN GENETIC ALGORITHM (LGA), with a maximum of 25000000 energy evaluations.

Final-Value: -18.891


	FINAL GENETIC ALGORITHM DOCKED STATE
	_______________________________________________


Detailed state:  trans -11.804 17.834 6.391 quatxyzw -0.260938 -0.561206 0.533065 0.576889 center 0.035 0.082 -0.065 ntor 24 114.7998 5.0495 165.3090 20.2636 11.9288 -145.4815 -127.4843 -6.9631 137.5590 -17.4063 137.1210 -118.0719 -35.6722 72.0438 -9.5069 43.7491 -162.3984 88.6213 29.9770 -31.9495 -27.3329 165.6835 16.1422 -27.2071
State:	-11.804  17.834   6.391  -0.319 -0.687  0.653 109.536    114.80    5.05  165.31   20.26   11.93 -145.48 -127.48   -6.96  137.56  -17.41  137.12 -118.07  -35.67   72.04   -9.51   43.75 -162.40   88.62   29.98  -31.95  -27.33  165.68   16.14  -27.21

DOCKED: MODEL       54
DOCKED: USER    Run = 54
DOCKED: USER    DPF = D:/Protein_go_brrr/autodock/final/1A3N/IHP/dock.dpf
DOCKED: USER  
DOCKED: USER    Estimated Free Energy of Binding    =   +4.11 kcal/mol  [=(1)+(2)+(3)-(4)]
DOCKED: USER    
DOCKED: USER    (1) Final Intermolecular Energy     =   -3.05 kcal/mol
DOCKED: USER        vdW + Hbond + desolv Energy     =   -3.07 kcal/mol
DOCKED: USER        Electrostatic Energy            =   +0.02 kcal/mol
DOCKED: USER    (2) Final Total Internal Energy     =  -15.84 kcal/mol
DOCKED: USER    (3) Torsional Free Energy           =   +7.16 kcal/mol
DOCKED: USER    (4) Unbound System's Energy  [=(2)] =  -15.84 kcal/mol
DOCKED: USER    
DOCKED: USER    
DOCKED: USER    NEWDPF move IHP_ideal_opt.pdbqt
DOCKED: USER    NEWDPF about 0.035000 0.082000 -0.065000
DOCKED: USER    NEWDPF tran0 -11.803608 17.834459 6.390518
DOCKED: USER    NEWDPF quaternion0 -0.260938 -0.561206 0.533065 0.576889
DOCKED: USER    NEWDPF axisangle0 -0.319455 -0.687060 0.652608 109.535979
DOCKED: USER    NEWDPF quat0 -0.319455 -0.687060 0.652608 109.535979
DOCKED: USER    NEWDPF dihe0 114.80 5.05 165.31 20.26 11.93 -145.48 -127.48 -6.96 137.56 -17.41 137.12 -118.07 -35.67 72.04 -9.51 43.75 -162.40 88.62 29.98 -31.95 -27.33 165.68 16.14 -27.21 
DOCKED: USER  keepresnum = 1 
DOCKED: USER  
DOCKED: REMARK  24 active torsions:
DOCKED: REMARK  status: ('A' for Active; 'I' for Inactive)
DOCKED: REMARK    1  A    between atoms: C_1  and  O_7 
DOCKED: REMARK    2  A    between atoms: C_2  and  O_12 
DOCKED: REMARK    3  A    between atoms: C_3  and  O_17 
DOCKED: REMARK    4  A    between atoms: C_4  and  O_22 
DOCKED: REMARK    5  A    between atoms: C_5  and  O_27 
DOCKED: REMARK    6  A    between atoms: C_6  and  O_32 
DOCKED: REMARK    7  A    between atoms: O_7  and  P_8 
DOCKED: REMARK    8  A    between atoms: P_8  and  O_10 
DOCKED: REMARK    9  A    between atoms: P_8  and  O_11 
DOCKED: REMARK   10  A    between atoms: O_12  and  P_13 
DOCKED: REMARK   11  A    between atoms: P_13  and  O_15 
DOCKED: REMARK   12  A    between atoms: P_13  and  O_16 
DOCKED: REMARK   13  A    between atoms: O_17  and  P_18 
DOCKED: REMARK   14  A    between atoms: P_18  and  O_20 
DOCKED: REMARK   15  A    between atoms: P_18  and  O_21 
DOCKED: REMARK   16  A    between atoms: O_22  and  P_23 
DOCKED: REMARK   17  A    between atoms: P_23  and  O_25 
DOCKED: REMARK   18  A    between atoms: P_23  and  O_26 
DOCKED: REMARK   19  A    between atoms: O_27  and  P_28 
DOCKED: REMARK   20  A    between atoms: P_28  and  O_30 
DOCKED: REMARK   21  A    between atoms: P_28  and  O_31 
DOCKED: REMARK   22  A    between atoms: O_32  and  P_33 
DOCKED: REMARK   23  A    between atoms: P_33  and  O_35 
DOCKED: REMARK   24  A    between atoms: P_33  and  O_36 
DOCKED: USER                              x       y       z     vdW  Elec       q    Type
DOCKED: USER                           _______ _______ _______ _____ _____    ______ ____
DOCKED: ROOT
DOCKED: ATOM      1  C   UNL d   1     -12.566  16.457   5.680 -0.12 -0.05    +0.194 C 
DOCKED: ATOM      2  C   UNL d   1     -13.185  16.953   6.988 -0.14 -0.06    +0.194 C 
DOCKED: ATOM      3  C   UNL d   1     -12.115  17.310   8.021 -0.19 -0.07    +0.194 C 
DOCKED: ATOM      4  C   UNL d   1     -11.055  18.269   7.483 -0.23 -0.04    +0.194 C 
DOCKED: ATOM      5  C   UNL d   1     -10.492  17.873   6.124 -0.18 -0.03    +0.194 C 
DOCKED: ATOM      6  C   UNL d   1     -11.559  17.457   5.110 -0.09 -0.03    +0.194 C 
DOCKED: ENDROOT
DOCKED: BRANCH   1   7
DOCKED: ATOM      7  O   UNL d   1     -13.613  16.311   4.718 -0.05 +0.05    -0.278 OA
DOCKED: BRANCH   7   8
DOCKED: ATOM      8  P   UNL d   1     -14.322  14.887   4.576 -0.04 -0.08    +0.473 P 
DOCKED: ATOM      9  O   UNL d   1     -14.082  13.948   5.706 -0.15 +0.06    -0.228 OA
DOCKED: BRANCH   8  10
DOCKED: ATOM     10  O   UNL d   1     -15.864  15.240   4.370 -0.01 +0.04    -0.303 OA
DOCKED: ATOM     11  H   UNL d   1     -16.122  15.949   4.988 +0.02 -0.03    +0.222 HD
DOCKED: ENDBRANCH   8  10
DOCKED: BRANCH   8  12
DOCKED: ATOM     12  O   UNL d   1     -13.906  14.360   3.136 -0.02 +0.05    -0.303 OA
DOCKED: ATOM     13  H   UNL d   1     -13.909  15.066   2.451 +0.02 -0.04    +0.222 HD
DOCKED: ENDBRANCH   8  12
DOCKED: ENDBRANCH   7   8
DOCKED: ENDBRANCH   1   7
DOCKED: BRANCH   2  14
DOCKED: ATOM     14  O   UNL d   1     -13.968  18.123   6.719 -0.06 +0.05    -0.278 OA
DOCKED: BRANCH  14  15
DOCKED: ATOM     15  P   UNL d   1     -15.550  17.910   6.589 -0.03 -0.07    +0.473 P 
DOCKED: ATOM     16  O   UNL d   1     -16.418  18.785   7.439 -0.02 +0.03    -0.228 OA
DOCKED: BRANCH  15  17
DOCKED: ATOM     17  O   UNL d   1     -15.838  18.082   5.032 -0.01 +0.03    -0.303 OA
DOCKED: ATOM     18  H   UNL d   1     -15.469  17.335   4.522 +0.02 -0.03    +0.222 HD
DOCKED: ENDBRANCH  15  17
DOCKED: BRANCH  15  19
DOCKED: ATOM     19  O   UNL d   1     -15.757  16.345   6.782 -0.08 +0.04    -0.303 OA
DOCKED: ATOM     20  H   UNL d   1     -15.057  15.831   6.338 +0.04 -0.04    +0.222 HD
DOCKED: ENDBRANCH  15  19
DOCKED: ENDBRANCH  14  15
DOCKED: ENDBRANCH   2  14
DOCKED: BRANCH   6  21
DOCKED: ATOM     21  O   UNL d   1     -10.879  16.803   4.041 -0.04 +0.03    -0.278 OA
DOCKED: BRANCH  21  22
DOCKED: ATOM     22  P   UNL d   1     -11.161  17.244   2.534 -0.02 -0.10    +0.473 P 
DOCKED: ATOM     23  O   UNL d   1     -11.743  18.596   2.293 -0.01 +0.04    -0.228 OA
DOCKED: BRANCH  22  24
DOCKED: ATOM     24  O   UNL d   1      -9.744  16.997   1.852 -0.05 +0.09    -0.303 OA
DOCKED: ATOM     25  H   UNL d   1      -9.061  17.490   2.373 +0.06 -0.04    +0.222 HD
DOCKED: ENDBRANCH  22  24
DOCKED: BRANCH  22  26
DOCKED: ATOM     26  O   UNL d   1     -12.014  16.003   1.985 -0.02 +0.08    -0.303 OA
DOCKED: ATOM     27  H   UNL d   1     -12.642  15.713   2.678 +0.03 -0.04    +0.222 HD
DOCKED: ENDBRANCH  22  26
DOCKED: ENDBRANCH  21  22
DOCKED: ENDBRANCH   6  21
DOCKED: BRANCH   3  28
DOCKED: ATOM     28  O   UNL d   1     -12.757  18.012   9.078 -0.28 +0.13    -0.278 OA
DOCKED: BRANCH  28  29
DOCKED: ATOM     29  P   UNL d   1     -13.024  19.578   8.959 -0.10 -0.15    +0.473 P 
DOCKED: ATOM     30  O   UNL d   1     -12.952  20.137   7.584 -0.03 +0.04    -0.228 OA
DOCKED: BRANCH  29  31
DOCKED: ATOM     31  O   UNL d   1     -14.432  19.679   9.712 -0.09 +0.12    -0.303 OA
DOCKED: ATOM     32  H   UNL d   1     -15.135  19.340   9.110 +0.04 -0.06    +0.222 HD
DOCKED: ENDBRANCH  29  31
DOCKED: BRANCH  29  33
DOCKED: ATOM     33  O   UNL d   1     -12.008  20.172  10.031 -0.13 +0.11    -0.303 OA
DOCKED: ATOM     34  H   UNL d   1     -11.105  19.810   9.854 +0.09 -0.06    +0.222 HD
DOCKED: ENDBRANCH  29  33
DOCKED: ENDBRANCH  28  29
DOCKED: ENDBRANCH   3  28
DOCKED: BRANCH   5  35
DOCKED: ATOM     35  O   UNL d   1      -9.860  19.044   5.612 -0.07 +0.04    -0.278 OA
DOCKED: BRANCH  35  36
DOCKED: ATOM     36  P   UNL d   1      -8.556  18.920   4.700 -0.09 -0.05    +0.473 P 
DOCKED: ATOM     37  O   UNL d   1      -7.321  19.557   5.252 -0.17 +0.05    -0.228 OA
DOCKED: BRANCH  36  38
DOCKED: ATOM     38  O   UNL d   1      -8.447  17.344   4.500 -0.24 -0.02    -0.303 OA
DOCKED: ATOM     39  H   UNL d   1      -9.202  17.037   3.955 +0.08 -0.00    +0.222 HD
DOCKED: ENDBRANCH  36  38
DOCKED: BRANCH  36  40
DOCKED: ATOM     40  O   UNL d   1      -9.074  19.450   3.293 -0.02 +0.04    -0.303 OA
DOCKED: ATOM     41  H   UNL d   1      -9.827  18.914   2.957 +0.03 -0.03    +0.222 HD
DOCKED: ENDBRANCH  36  40
DOCKED: ENDBRANCH  35  36
DOCKED: ENDBRANCH   5  35
DOCKED: BRANCH   4  42
DOCKED: ATOM     42  O   UNL d   1      -9.966  18.247   8.413 -0.26 +0.05    -0.278 OA
DOCKED: BRANCH  42  43
DOCKED: ATOM     43  P   UNL d   1      -9.254  19.622   8.798 -0.16 -0.06    +0.473 P 
DOCKED: ATOM     44  O   UNL d   1      -8.980  19.872  10.241 -0.25 +0.02    -0.228 OA
DOCKED: BRANCH  43  45
DOCKED: ATOM     45  O   UNL d   1      -7.954  19.610   7.881 -0.19 +0.05    -0.303 OA
DOCKED: ATOM     46  H   UNL d   1      -8.185  19.637   6.931 +0.11 -0.04    +0.222 HD
DOCKED: ENDBRANCH  43  45
DOCKED: BRANCH  43  47
DOCKED: ATOM     47  O   UNL d   1     -10.160  20.722   8.065 -0.06 +0.04    -0.303 OA
DOCKED: ATOM     48  H   UNL d   1     -11.073  20.674   8.416 +0.06 -0.03    +0.222 HD
DOCKED: ENDBRANCH  43  47
DOCKED: ENDBRANCH  42  43
DOCKED: ENDBRANCH   4  42
DOCKED: TORSDOF 24
DOCKED: TER
DOCKED: ENDMDL
________________________________________________________________________________


	BEGINNING GENETIC ALGORITHM DOCKING 55 of 100
Run: 55 Seed: 1839226806 596503311 [ Run 55 of 100 GA/GALS ]
Beginning LAMARCKIAN GENETIC ALGORITHM (LGA), with a maximum of 25000000 energy evaluations.

Final-Value: -17.339


	FINAL GENETIC ALGORITHM DOCKED STATE
	_______________________________________________


Detailed state:  trans 36.858 -3.929 40.131 quatxyzw 0.353606 0.232511 0.565464 -0.707920 center 0.035 0.082 -0.065 ntor 24 -111.5314 22.9020 120.1566 27.2311 107.9585 163.5429 103.2741 -3.7129 -1.5688 108.0773 10.1241 163.6727 -180.0000 41.0803 -143.8171 -179.8665 -22.0745 -179.9445 62.8675 16.0694 -43.9539 23.1182 142.4403 -18.6599
State:	 36.858  -3.929  40.131   0.501  0.329  0.801 -89.868   -111.53   22.90  120.16   27.23  107.96  163.54  103.27   -3.71   -1.57  108.08   10.12  163.67 -180.00   41.08 -143.82 -179.87  -22.07 -179.94   62.87   16.07  -43.95   23.12  142.44  -18.66

DOCKED: MODEL       55
DOCKED: USER    Run = 55
DOCKED: USER    DPF = D:/Protein_go_brrr/autodock/final/1A3N/IHP/dock.dpf
DOCKED: USER  
DOCKED: USER    Estimated Free Energy of Binding    =   +3.44 kcal/mol  [=(1)+(2)+(3)-(4)]
DOCKED: USER    
DOCKED: USER    (1) Final Intermolecular Energy     =   -3.72 kcal/mol
DOCKED: USER        vdW + Hbond + desolv Energy     =   -3.43 kcal/mol
DOCKED: USER        Electrostatic Energy            =   -0.29 kcal/mol
DOCKED: USER    (2) Final Total Internal Energy     =  -13.62 kcal/mol
DOCKED: USER    (3) Torsional Free Energy           =   +7.16 kcal/mol
DOCKED: USER    (4) Unbound System's Energy  [=(2)] =  -13.62 kcal/mol
DOCKED: USER    
DOCKED: USER    
DOCKED: USER    NEWDPF move IHP_ideal_opt.pdbqt
DOCKED: USER    NEWDPF about 0.035000 0.082000 -0.065000
DOCKED: USER    NEWDPF tran0 36.858321 -3.929484 40.130812
DOCKED: USER    NEWDPF quaternion0 0.353606 0.232511 0.565464 -0.707920
DOCKED: USER    NEWDPF axisangle0 0.500651 0.329200 0.800610 -89.868063
DOCKED: USER    NEWDPF quat0 0.500651 0.329200 0.800610 -89.868063
DOCKED: USER    NEWDPF dihe0 -111.53 22.90 120.16 27.23 107.96 163.54 103.27 -3.71 -1.57 108.08 10.12 163.67 -180.00 41.08 -143.82 -179.87 -22.07 -179.94 62.87 16.07 -43.95 23.12 142.44 -18.66 
DOCKED: USER  keepresnum = 1 
DOCKED: USER  
DOCKED: REMARK  24 active torsions:
DOCKED: REMARK  status: ('A' for Active; 'I' for Inactive)
DOCKED: REMARK    1  A    between atoms: C_1  and  O_7 
DOCKED: REMARK    2  A    between atoms: C_2  and  O_12 
DOCKED: REMARK    3  A    between atoms: C_3  and  O_17 
DOCKED: REMARK    4  A    between atoms: C_4  and  O_22 
DOCKED: REMARK    5  A    between atoms: C_5  and  O_27 
DOCKED: REMARK    6  A    between atoms: C_6  and  O_32 
DOCKED: REMARK    7  A    between atoms: O_7  and  P_8 
DOCKED: REMARK    8  A    between atoms: P_8  and  O_10 
DOCKED: REMARK    9  A    between atoms: P_8  and  O_11 
DOCKED: REMARK   10  A    between atoms: O_12  and  P_13 
DOCKED: REMARK   11  A    between atoms: P_13  and  O_15 
DOCKED: REMARK   12  A    between atoms: P_13  and  O_16 
DOCKED: REMARK   13  A    between atoms: O_17  and  P_18 
DOCKED: REMARK   14  A    between atoms: P_18  and  O_20 
DOCKED: REMARK   15  A    between atoms: P_18  and  O_21 
DOCKED: REMARK   16  A    between atoms: O_22  and  P_23 
DOCKED: REMARK   17  A    between atoms: P_23  and  O_25 
DOCKED: REMARK   18  A    between atoms: P_23  and  O_26 
DOCKED: REMARK   19  A    between atoms: O_27  and  P_28 
DOCKED: REMARK   20  A    between atoms: P_28  and  O_30 
DOCKED: REMARK   21  A    between atoms: P_28  and  O_31 
DOCKED: REMARK   22  A    between atoms: O_32  and  P_33 
DOCKED: REMARK   23  A    between atoms: P_33  and  O_35 
DOCKED: REMARK   24  A    between atoms: P_33  and  O_36 
DOCKED: USER                              x       y       z     vdW  Elec       q    Type
DOCKED: USER                           _______ _______ _______ _____ _____    ______ ____
DOCKED: ROOT
DOCKED: ATOM      1  C   UNL d   1      38.316  -3.006  40.049 -0.09 +0.05    +0.194 C 
DOCKED: ATOM      2  C   UNL d   1      38.244  -4.212  39.110 -0.08 +0.07    +0.194 C 
DOCKED: ATOM      3  C   UNL d   1      37.660  -5.441  39.810 -0.03 +0.07    +0.194 C 
DOCKED: ATOM      4  C   UNL d   1      36.326  -5.164  40.498 -0.04 +0.05    +0.194 C 
DOCKED: ATOM      5  C   UNL d   1      36.319  -3.905  41.356 -0.04 +0.05    +0.194 C 
DOCKED: ATOM      6  C   UNL d   1      36.958  -2.691  40.678 -0.10 +0.06    +0.194 C 
DOCKED: ENDROOT
DOCKED: BRANCH   1   7
DOCKED: ATOM      7  O   UNL d   1      38.705  -1.865  39.281 -0.10 -0.09    -0.278 OA
DOCKED: BRANCH   7   8
DOCKED: ATOM      8  P   UNL d   1      40.106  -1.908  38.514 +0.03 +0.16    +0.473 P 
DOCKED: ATOM      9  O   UNL d   1      40.999  -0.744  38.767 -0.10 -0.06    -0.228 OA
DOCKED: BRANCH   8  10
DOCKED: ATOM     10  O   UNL d   1      40.747  -3.299  38.958 -0.02 -0.09    -0.303 OA
DOCKED: ATOM     11  H   UNL d   1      40.483  -3.996  38.328 +0.04 +0.09    +0.222 HD
DOCKED: ENDBRANCH   8  10
DOCKED: BRANCH   8  12
DOCKED: ATOM     12  O   UNL d   1      39.736  -2.181  36.993 -0.13 -0.14    -0.303 OA
DOCKED: ATOM     13  H   UNL d   1      38.854  -2.602  36.881 +0.07 +0.11    +0.222 HD
DOCKED: ENDBRANCH   8  12
DOCKED: ENDBRANCH   7   8
DOCKED: ENDBRANCH   1   7
DOCKED: BRANCH   2  14
DOCKED: ATOM     14  O   UNL d   1      37.409  -3.884  37.992 -0.18 -0.12    -0.278 OA
DOCKED: BRANCH  14  15
DOCKED: ATOM     15  P   UNL d   1      37.786  -4.564  36.593 -0.19 +0.40    +0.473 P 
DOCKED: ATOM     16  O   UNL d   1      37.038  -5.807  36.226 -0.61 -0.30    -0.228 OA
DOCKED: BRANCH  15  17
DOCKED: ATOM     17  O   UNL d   1      37.597  -3.393  35.529 -0.34 -0.16    -0.303 OA
DOCKED: ATOM     18  H   UNL d   1      37.688  -2.517  35.951 -0.38 +0.07    +0.222 HD
DOCKED: ENDBRANCH  15  17
DOCKED: BRANCH  15  19
DOCKED: ATOM     19  O   UNL d   1      39.370  -4.704  36.635 -0.12 -0.32    -0.303 OA
DOCKED: ATOM     20  H   UNL d   1      39.784  -3.978  37.137 +0.06 +0.14    +0.222 HD
DOCKED: ENDBRANCH  15  19
DOCKED: ENDBRANCH  14  15
DOCKED: ENDBRANCH   2  14
DOCKED: BRANCH   6  21
DOCKED: ATOM     21  O   UNL d   1      37.185  -1.722  41.699 -0.05 -0.08    -0.278 OA
DOCKED: BRANCH  21  22
DOCKED: ATOM     22  P   UNL d   1      37.062  -0.168  41.357 -0.12 +0.18    +0.473 P 
DOCKED: ATOM     23  O   UNL d   1      38.296   0.667  41.417 -0.10 -0.07    -0.228 OA
DOCKED: BRANCH  22  24
DOCKED: ATOM     24  O   UNL d   1      36.349  -0.204  39.934 -0.22 -0.14    -0.303 OA
DOCKED: ATOM     25  H   UNL d   1      35.639  -0.895  39.962 +0.08 +0.10    +0.222 HD
DOCKED: ENDBRANCH  22  24
DOCKED: BRANCH  22  26
DOCKED: ATOM     26  O   UNL d   1      35.860   0.282  42.318 -0.10 -0.17    -0.303 OA
DOCKED: ATOM     27  H   UNL d   1      35.439  -0.514  42.701 +0.04 +0.12    +0.222 HD
DOCKED: ENDBRANCH  22  26
DOCKED: ENDBRANCH  21  22
DOCKED: ENDBRANCH   6  21
DOCKED: BRANCH   3  28
DOCKED: ATOM     28  O   UNL d   1      37.375  -6.409  38.808 -0.06 -0.14    -0.278 OA
DOCKED: BRANCH  28  29
DOCKED: ATOM     29  P   UNL d   1      37.807  -7.928  39.012 -0.02 +0.21    +0.473 P 
DOCKED: ATOM     30  O   UNL d   1      36.995  -8.930  38.273 -0.04 -0.10    -0.228 OA
DOCKED: BRANCH  29  31
DOCKED: ATOM     31  O   UNL d   1      39.359  -7.830  38.633 -0.03 -0.18    -0.303 OA
DOCKED: ATOM     32  H   UNL d   1      39.838  -8.564  39.083 +0.01 +0.08    +0.222 HD
DOCKED: ENDBRANCH  29  31
DOCKED: BRANCH  29  33
DOCKED: ATOM     33  O   UNL d   1      37.839  -8.057  40.598 +0.00 -0.07    -0.303 OA
DOCKED: ATOM     34  H   UNL d   1      36.961  -7.785  40.961 +0.01 +0.05    +0.222 HD
DOCKED: ENDBRANCH  29  33
DOCKED: ENDBRANCH  28  29
DOCKED: ENDBRANCH   3  28
DOCKED: BRANCH   5  35
DOCKED: ATOM     35  O   UNL d   1      34.945  -3.590  41.570 -0.03 -0.09    -0.278 OA
DOCKED: BRANCH  35  36
DOCKED: ATOM     36  P   UNL d   1      34.149  -2.697  40.515 -0.12 +0.19    +0.473 P 
DOCKED: ATOM     37  O   UNL d   1      34.721  -2.669  39.133 -0.29 -0.08    -0.228 OA
DOCKED: BRANCH  36  38
DOCKED: ATOM     38  O   UNL d   1      32.684  -3.313  40.604 -0.08 -0.13    -0.303 OA
DOCKED: ATOM     39  H   UNL d   1      32.683  -4.201  40.186 +0.06 +0.09    +0.222 HD
DOCKED: ENDBRANCH  36  38
DOCKED: BRANCH  36  40
DOCKED: ATOM     40  O   UNL d   1      34.026  -1.304  41.274 -0.11 -0.20    -0.303 OA
DOCKED: ATOM     41  H   UNL d   1      34.903  -0.877  41.396 +0.06 +0.14    +0.222 HD
DOCKED: ENDBRANCH  36  40
DOCKED: ENDBRANCH  35  36
DOCKED: ENDBRANCH   5  35
DOCKED: BRANCH   4  42
DOCKED: ATOM     42  O   UNL d   1      36.073  -6.270  41.372 -0.00 -0.06    -0.278 OA
DOCKED: BRANCH  42  43
DOCKED: ATOM     43  P   UNL d   1      34.654  -6.996  41.305 +0.01 +0.12    +0.473 P 
DOCKED: ATOM     44  O   UNL d   1      33.974  -7.295  42.597 -0.00 -0.05    -0.228 OA
DOCKED: BRANCH  43  45
DOCKED: ATOM     45  O   UNL d   1      33.822  -6.048  40.336 -0.03 -0.10    -0.303 OA
DOCKED: ATOM     46  H   UNL d   1      33.712  -5.154  40.717 +0.04 +0.07    +0.222 HD
DOCKED: ENDBRANCH  43  45
DOCKED: BRANCH  43  47
DOCKED: ATOM     47  O   UNL d   1      34.935  -8.262  40.362 -0.00 -0.08    -0.303 OA
DOCKED: ATOM     48  H   UNL d   1      35.767  -8.117  39.867 +0.02 +0.06    +0.222 HD
DOCKED: ENDBRANCH  43  47
DOCKED: ENDBRANCH  42  43
DOCKED: ENDBRANCH   4  42
DOCKED: TORSDOF 24
DOCKED: TER
DOCKED: ENDMDL
________________________________________________________________________________


	BEGINNING GENETIC ALGORITHM DOCKING 56 of 100
Run: 56 Seed: 648930696 823062216 [ Run 56 of 100 GA/GALS ]
Beginning LAMARCKIAN GENETIC ALGORITHM (LGA), with a maximum of 25000000 energy evaluations.

Final-Value: -16.407


	FINAL GENETIC ALGORITHM DOCKED STATE
	_______________________________________________


Detailed state:  trans 40.358 -18.144 7.350 quatxyzw -0.900578 0.293839 0.008510 -0.320229 center 0.035 0.082 -0.065 ntor 24 180.0000 18.2220 61.4814 -5.2835 -35.2878 -177.4327 -139.5769 107.6442 153.7159 -34.9234 46.2389 -156.5906 -156.0976 171.0915 179.4746 -145.5774 41.0368 141.4775 42.9803 -14.4738 175.5293 -30.4981 -28.1605 -0.8502
State:	 40.358 -18.144   7.350  -0.951  0.310  0.009 -142.646    180.00   18.22   61.48   -5.28  -35.29 -177.43 -139.58  107.64  153.72  -34.92   46.24 -156.59 -156.10  171.09  179.47 -145.58   41.04  141.48   42.98  -14.47  175.53  -30.50  -28.16   -0.85

DOCKED: MODEL       56
DOCKED: USER    Run = 56
DOCKED: USER    DPF = D:/Protein_go_brrr/autodock/final/1A3N/IHP/dock.dpf
DOCKED: USER  
DOCKED: USER    Estimated Free Energy of Binding    =   +3.66 kcal/mol  [=(1)+(2)+(3)-(4)]
DOCKED: USER    
DOCKED: USER    (1) Final Intermolecular Energy     =   -3.50 kcal/mol
DOCKED: USER        vdW + Hbond + desolv Energy     =   -3.19 kcal/mol
DOCKED: USER        Electrostatic Energy            =   -0.31 kcal/mol
DOCKED: USER    (2) Final Total Internal Energy     =  -12.91 kcal/mol
DOCKED: USER    (3) Torsional Free Energy           =   +7.16 kcal/mol
DOCKED: USER    (4) Unbound System's Energy  [=(2)] =  -12.91 kcal/mol
DOCKED: USER    
DOCKED: USER    
DOCKED: USER    NEWDPF move IHP_ideal_opt.pdbqt
DOCKED: USER    NEWDPF about 0.035000 0.082000 -0.065000
DOCKED: USER    NEWDPF tran0 40.358027 -18.143973 7.349721
DOCKED: USER    NEWDPF quaternion0 -0.900578 0.293839 0.008510 -0.320229
DOCKED: USER    NEWDPF axisangle0 -0.950638 0.310172 0.008983 -142.646496
DOCKED: USER    NEWDPF quat0 -0.950638 0.310172 0.008983 -142.646496
DOCKED: USER    NEWDPF dihe0 180.00 18.22 61.48 -5.28 -35.29 -177.43 -139.58 107.64 153.72 -34.92 46.24 -156.59 -156.10 171.09 179.47 -145.58 41.04 141.48 42.98 -14.47 175.53 -30.50 -28.16 -0.85 
DOCKED: USER  keepresnum = 1 
DOCKED: USER  
DOCKED: REMARK  24 active torsions:
DOCKED: REMARK  status: ('A' for Active; 'I' for Inactive)
DOCKED: REMARK    1  A    between atoms: C_1  and  O_7 
DOCKED: REMARK    2  A    between atoms: C_2  and  O_12 
DOCKED: REMARK    3  A    between atoms: C_3  and  O_17 
DOCKED: REMARK    4  A    between atoms: C_4  and  O_22 
DOCKED: REMARK    5  A    between atoms: C_5  and  O_27 
DOCKED: REMARK    6  A    between atoms: C_6  and  O_32 
DOCKED: REMARK    7  A    between atoms: O_7  and  P_8 
DOCKED: REMARK    8  A    between atoms: P_8  and  O_10 
DOCKED: REMARK    9  A    between atoms: P_8  and  O_11 
DOCKED: REMARK   10  A    between atoms: O_12  and  P_13 
DOCKED: REMARK   11  A    between atoms: P_13  and  O_15 
DOCKED: REMARK   12  A    between atoms: P_13  and  O_16 
DOCKED: REMARK   13  A    between atoms: O_17  and  P_18 
DOCKED: REMARK   14  A    between atoms: P_18  and  O_20 
DOCKED: REMARK   15  A    between atoms: P_18  and  O_21 
DOCKED: REMARK   16  A    between atoms: O_22  and  P_23 
DOCKED: REMARK   17  A    between atoms: P_23  and  O_25 
DOCKED: REMARK   18  A    between atoms: P_23  and  O_26 
DOCKED: REMARK   19  A    between atoms: O_27  and  P_28 
DOCKED: REMARK   20  A    between atoms: P_28  and  O_30 
DOCKED: REMARK   21  A    between atoms: P_28  and  O_31 
DOCKED: REMARK   22  A    between atoms: O_32  and  P_33 
DOCKED: REMARK   23  A    between atoms: P_33  and  O_35 
DOCKED: REMARK   24  A    between atoms: P_33  and  O_36 
DOCKED: USER                              x       y       z     vdW  Elec       q    Type
DOCKED: USER                           _______ _______ _______ _____ _____    ______ ____
DOCKED: ROOT
DOCKED: ATOM      1  C   UNL d   1      42.006 -17.788   6.974 +0.00 +0.00    +0.194 C 
DOCKED: ATOM      2  C   UNL d   1      41.340 -16.848   7.981 -0.03 -0.01    +0.194 C 
DOCKED: ATOM      3  C   UNL d   1      39.921 -16.471   7.551 -0.04 -0.01    +0.194 C 
DOCKED: ATOM      4  C   UNL d   1      39.049 -17.682   7.226 -0.03 -0.01    +0.194 C 
DOCKED: ATOM      5  C   UNL d   1      39.718 -18.702   6.315 -0.01 -0.01    +0.194 C 
DOCKED: ATOM      6  C   UNL d   1      41.159 -19.033   6.709 +0.00 -0.00    +0.194 C 
DOCKED: ENDROOT
DOCKED: BRANCH   1   7
DOCKED: ATOM      7  O   UNL d   1      43.249 -18.227   7.528 +0.00 -0.01    -0.278 OA
DOCKED: BRANCH   7   8
DOCKED: ATOM      8  P   UNL d   1      44.505 -17.243   7.449 +0.02 +0.03    +0.473 P 
DOCKED: ATOM      9  O   UNL d   1      45.522 -17.599   6.423 +0.00 -0.01    -0.228 OA
DOCKED: BRANCH   8  10
DOCKED: ATOM     10  O   UNL d   1      43.855 -15.804   7.216 -0.01 -0.01    -0.303 OA
DOCKED: ATOM     11  H   UNL d   1      42.930 -15.810   7.523 +0.03 -0.00    +0.222 HD
DOCKED: ENDBRANCH   8  10
DOCKED: BRANCH   8  12
DOCKED: ATOM     12  O   UNL d   1      45.035 -17.130   8.942 -0.02 -0.06    -0.303 OA
DOCKED: ATOM     13  H   UNL d   1      44.332 -17.281   9.614 +0.02 +0.08    +0.222 HD
DOCKED: ENDBRANCH   8  12
DOCKED: ENDBRANCH   7   8
DOCKED: ENDBRANCH   1   7
DOCKED: BRANCH   2  14
DOCKED: ATOM     14  O   UNL d   1      41.272 -17.501   9.255 -0.05 -0.01    -0.278 OA
DOCKED: BRANCH  14  15
DOCKED: ATOM     15  P   UNL d   1      42.089 -16.821  10.452 +0.04 +0.16    +0.473 P 
DOCKED: ATOM     16  O   UNL d   1      42.930 -17.729  11.294 -0.51 -0.18    -0.228 OA
DOCKED: BRANCH  15  17
DOCKED: ATOM     17  O   UNL d   1      42.939 -15.677   9.740 -0.23 -0.04    -0.303 OA
DOCKED: ATOM     18  H   UNL d   1      43.216 -15.950   8.845 +0.03 +0.02    +0.222 HD
DOCKED: ENDBRANCH  15  17
DOCKED: BRANCH  15  19
DOCKED: ATOM     19  O   UNL d   1      41.002 -15.967  11.239 -0.20 +0.05    -0.303 OA
DOCKED: ATOM     20  H   UNL d   1      40.648 -15.242  10.693 -0.31 -0.16    +0.222 HD
DOCKED: ENDBRANCH  15  19
DOCKED: ENDBRANCH  14  15
DOCKED: ENDBRANCH   2  14
DOCKED: BRANCH   6  21
DOCKED: ATOM     21  O   UNL d   1      41.746 -19.710   5.600 +0.00 +0.00    -0.278 OA
DOCKED: BRANCH  21  22
DOCKED: ATOM     22  P   UNL d   1      42.129 -18.890   4.286 +0.00 -0.01    +0.473 P 
DOCKED: ATOM     23  O   UNL d   1      42.091 -19.601   2.975 +0.00 +0.00    -0.228 OA
DOCKED: BRANCH  22  24
DOCKED: ATOM     24  O   UNL d   1      41.159 -17.633   4.391 +0.00 +0.01    -0.303 OA
DOCKED: ATOM     25  H   UNL d   1      40.394 -17.781   3.778 +0.00 -0.01    +0.222 HD
DOCKED: ENDBRANCH  22  24
DOCKED: BRANCH  22  26
DOCKED: ATOM     26  O   UNL d   1      43.541 -18.254   4.699 +0.00 -0.00    -0.303 OA
DOCKED: ATOM     27  H   UNL d   1      43.831 -18.641   5.550 +0.00 +0.00    +0.222 HD
DOCKED: ENDBRANCH  22  26
DOCKED: ENDBRANCH  21  22
DOCKED: ENDBRANCH   6  21
DOCKED: BRANCH   3  28
DOCKED: ATOM     28  O   UNL d   1      39.291 -15.839   8.658 -0.09 +0.04    -0.278 OA
DOCKED: BRANCH  28  29
DOCKED: ATOM     29  P   UNL d   1      39.582 -14.306   8.981 -0.09 -0.15    +0.473 P 
DOCKED: ATOM     30  O   UNL d   1      39.028 -13.807  10.266 -0.36 +0.10    -0.228 OA
DOCKED: BRANCH  29  31
DOCKED: ATOM     31  O   UNL d   1      41.174 -14.284   8.819 -0.06 +0.13    -0.303 OA
DOCKED: ATOM     32  H   UNL d   1      41.581 -14.521   9.684 -0.36 -0.21    +0.222 HD
DOCKED: ENDBRANCH  29  31
DOCKED: BRANCH  29  33
DOCKED: ATOM     33  O   UNL d   1      39.082 -13.585   7.653 -0.23 +0.07    -0.303 OA
DOCKED: ATOM     34  H   UNL d   1      39.016 -12.613   7.821 -0.45 -0.11    +0.222 HD
DOCKED: ENDBRANCH  29  33
DOCKED: ENDBRANCH  28  29
DOCKED: ENDBRANCH   3  28
DOCKED: BRANCH   5  35
DOCKED: ATOM     35  O   UNL d   1      38.959 -19.902   6.453 -0.01 +0.01    -0.278 OA
DOCKED: BRANCH  35  36
DOCKED: ATOM     36  P   UNL d   1      37.917 -20.329   5.324 +0.00 -0.03    +0.473 P 
DOCKED: ATOM     37  O   UNL d   1      38.489 -21.099   4.177 -0.00 +0.01    -0.228 OA
DOCKED: BRANCH  36  38
DOCKED: ATOM     38  O   UNL d   1      36.828 -21.126   6.170 -0.03 +0.02    -0.303 OA
DOCKED: ATOM     39  H   UNL d   1      36.195 -20.487   6.562 +0.06 -0.02    +0.222 HD
DOCKED: ENDBRANCH  36  38
DOCKED: BRANCH  36  40
DOCKED: ATOM     40  O   UNL d   1      37.202 -18.950   4.982 -0.01 +0.02    -0.303 OA
DOCKED: ATOM     41  H   UNL d   1      36.549 -18.698   5.672 +0.05 -0.01    +0.222 HD
DOCKED: ENDBRANCH  36  40
DOCKED: ENDBRANCH  35  36
DOCKED: ENDBRANCH   5  35
DOCKED: BRANCH   4  42
DOCKED: ATOM     42  O   UNL d   1      37.898 -17.189   6.532 -0.04 +0.01    -0.278 OA
DOCKED: BRANCH  42  43
DOCKED: ATOM     43  P   UNL d   1      36.474 -17.267   7.247 -0.03 -0.02    +0.473 P 
DOCKED: ATOM     44  O   UNL d   1      35.278 -16.901   6.439 -0.15 +0.01    -0.228 OA
DOCKED: BRANCH  43  45
DOCKED: ATOM     45  O   UNL d   1      36.448 -18.756   7.810 -0.14 +0.01    -0.303 OA
DOCKED: ATOM     46  H   UNL d   1      37.012 -19.350   7.277 +0.06 -0.01    +0.222 HD
DOCKED: ENDBRANCH  43  45
DOCKED: BRANCH  43  47
DOCKED: ATOM     47  O   UNL d   1      36.690 -16.416   8.588 -0.13 +0.01    -0.303 OA
DOCKED: ATOM     48  H   UNL d   1      37.444 -15.803   8.463 +0.11 -0.02    +0.222 HD
DOCKED: ENDBRANCH  43  47
DOCKED: ENDBRANCH  42  43
DOCKED: ENDBRANCH   4  42
DOCKED: TORSDOF 24
DOCKED: TER
DOCKED: ENDMDL
________________________________________________________________________________


	BEGINNING GENETIC ALGORITHM DOCKING 57 of 100
Run: 57 Seed: 1922177851 1746647656 [ Run 57 of 100 GA/GALS ]
Beginning LAMARCKIAN GENETIC ALGORITHM (LGA), with a maximum of 25000000 energy evaluations.

Final-Value: -17.592


	FINAL GENETIC ALGORITHM DOCKED STATE
	_______________________________________________


Detailed state:  trans 17.284 30.615 14.927 quatxyzw -0.533021 -0.180644 0.398656 -0.724106 center 0.035 0.082 -0.065 ntor 24 31.0505 150.6642 150.1322 140.1965 80.7629 139.5022 57.0408 -130.7085 99.4072 90.9801 141.0194 129.6155 -27.8367 64.5164 127.6657 -137.5600 34.7082 25.2264 -165.2322 29.1635 -3.1194 17.3114 -166.1255 -179.9861
State:	 17.284  30.615  14.927  -0.773 -0.262  0.578 -87.211     31.05  150.66  150.13  140.20   80.76  139.50   57.04 -130.71   99.41   90.98  141.02  129.62  -27.84   64.52  127.67 -137.56   34.71   25.23 -165.23   29.16   -3.12   17.31 -166.13 -179.99

DOCKED: MODEL       57
DOCKED: USER    Run = 57
DOCKED: USER    DPF = D:/Protein_go_brrr/autodock/final/1A3N/IHP/dock.dpf
DOCKED: USER  
DOCKED: USER    Estimated Free Energy of Binding    =   +3.35 kcal/mol  [=(1)+(2)+(3)-(4)]
DOCKED: USER    
DOCKED: USER    (1) Final Intermolecular Energy     =   -3.81 kcal/mol
DOCKED: USER        vdW + Hbond + desolv Energy     =   -2.96 kcal/mol
DOCKED: USER        Electrostatic Energy            =   -0.85 kcal/mol
DOCKED: USER    (2) Final Total Internal Energy     =  -13.78 kcal/mol
DOCKED: USER    (3) Torsional Free Energy           =   +7.16 kcal/mol
DOCKED: USER    (4) Unbound System's Energy  [=(2)] =  -13.78 kcal/mol
DOCKED: USER    
DOCKED: USER    
DOCKED: USER    NEWDPF move IHP_ideal_opt.pdbqt
DOCKED: USER    NEWDPF about 0.035000 0.082000 -0.065000
DOCKED: USER    NEWDPF tran0 17.284280 30.614875 14.927488
DOCKED: USER    NEWDPF quaternion0 -0.533021 -0.180644 0.398656 -0.724106
DOCKED: USER    NEWDPF axisangle0 -0.772843 -0.261921 0.578024 -87.210920
DOCKED: USER    NEWDPF quat0 -0.772843 -0.261921 0.578024 -87.210920
DOCKED: USER    NEWDPF dihe0 31.05 150.66 150.13 140.20 80.76 139.50 57.04 -130.71 99.41 90.98 141.02 129.62 -27.84 64.52 127.67 -137.56 34.71 25.23 -165.23 29.16 -3.12 17.31 -166.13 -179.99 
DOCKED: USER  keepresnum = 1 
DOCKED: USER  
DOCKED: REMARK  24 active torsions:
DOCKED: REMARK  status: ('A' for Active; 'I' for Inactive)
DOCKED: REMARK    1  A    between atoms: C_1  and  O_7 
DOCKED: REMARK    2  A    between atoms: C_2  and  O_12 
DOCKED: REMARK    3  A    between atoms: C_3  and  O_17 
DOCKED: REMARK    4  A    between atoms: C_4  and  O_22 
DOCKED: REMARK    5  A    between atoms: C_5  and  O_27 
DOCKED: REMARK    6  A    between atoms: C_6  and  O_32 
DOCKED: REMARK    7  A    between atoms: O_7  and  P_8 
DOCKED: REMARK    8  A    between atoms: P_8  and  O_10 
DOCKED: REMARK    9  A    between atoms: P_8  and  O_11 
DOCKED: REMARK   10  A    between atoms: O_12  and  P_13 
DOCKED: REMARK   11  A    between atoms: P_13  and  O_15 
DOCKED: REMARK   12  A    between atoms: P_13  and  O_16 
DOCKED: REMARK   13  A    between atoms: O_17  and  P_18 
DOCKED: REMARK   14  A    between atoms: P_18  and  O_20 
DOCKED: REMARK   15  A    between atoms: P_18  and  O_21 
DOCKED: REMARK   16  A    between atoms: O_22  and  P_23 
DOCKED: REMARK   17  A    between atoms: P_23  and  O_25 
DOCKED: REMARK   18  A    between atoms: P_23  and  O_26 
DOCKED: REMARK   19  A    between atoms: O_27  and  P_28 
DOCKED: REMARK   20  A    between atoms: P_28  and  O_30 
DOCKED: REMARK   21  A    between atoms: P_28  and  O_31 
DOCKED: REMARK   22  A    between atoms: O_32  and  P_33 
DOCKED: REMARK   23  A    between atoms: P_33  and  O_35 
DOCKED: REMARK   24  A    between atoms: P_33  and  O_36 
DOCKED: USER                              x       y       z     vdW  Elec       q    Type
DOCKED: USER                           _______ _______ _______ _____ _____    ______ ____
DOCKED: ROOT
DOCKED: ATOM      1  C   UNL d   1      17.856  31.975  15.826 +0.00 -0.02    +0.194 C 
DOCKED: ATOM      2  C   UNL d   1      17.649  30.691  16.631 -0.00 -0.02    +0.194 C 
DOCKED: ATOM      3  C   UNL d   1      16.343  29.989  16.251 -0.03 -0.05    +0.194 C 
DOCKED: ATOM      4  C   UNL d   1      16.200  29.758  14.749 -0.02 -0.04    +0.194 C 
DOCKED: ATOM      5  C   UNL d   1      16.510  30.984  13.900 -0.00 -0.02    +0.194 C 
DOCKED: ATOM      6  C   UNL d   1      17.783  31.722  14.320 +0.00 -0.01    +0.194 C 
DOCKED: ENDROOT
DOCKED: BRANCH   1   7
DOCKED: ATOM      7  O   UNL d   1      19.165  32.474  16.111 +0.00 +0.01    -0.278 OA
DOCKED: BRANCH   7   8
DOCKED: ATOM      8  P   UNL d   1      20.422  31.692  15.512 +0.00 -0.01    +0.473 P 
DOCKED: ATOM      9  O   UNL d   1      20.139  30.877  14.299 +0.00 +0.00    -0.228 OA
DOCKED: BRANCH   8  10
DOCKED: ATOM     10  O   UNL d   1      21.506  32.836  15.262 +0.00 +0.00    -0.303 OA
DOCKED: ATOM     11  H   UNL d   1      21.819  32.793  14.339 +0.00 -0.00    +0.222 HD
DOCKED: ENDBRANCH   8  10
DOCKED: BRANCH   8  12
DOCKED: ATOM     12  O   UNL d   1      21.046  30.907  16.745 +0.00 -0.00    -0.303 OA
DOCKED: ATOM     13  H   UNL d   1      20.859  29.942  16.722 +0.00 +0.00    +0.222 HD
DOCKED: ENDBRANCH   8  12
DOCKED: ENDBRANCH   7   8
DOCKED: ENDBRANCH   1   7
DOCKED: BRANCH   2  14
DOCKED: ATOM     14  O   UNL d   1      18.739  29.798  16.374 -0.00 +0.01    -0.278 OA
DOCKED: BRANCH  14  15
DOCKED: ATOM     15  P   UNL d   1      18.975  28.629  17.444 +0.01 +0.00    +0.473 P 
DOCKED: ATOM     16  O   UNL d   1      18.885  27.225  16.935 -0.02 -0.01    -0.228 OA
DOCKED: BRANCH  15  17
DOCKED: ATOM     17  O   UNL d   1      20.396  28.966  18.079 -0.00 -0.01    -0.303 OA
DOCKED: ATOM     18  H   UNL d   1      20.418  29.878  18.428 +0.00 +0.00    +0.222 HD
DOCKED: ENDBRANCH  15  17
DOCKED: BRANCH  15  19
DOCKED: ATOM     19  O   UNL d   1      17.995  28.988  18.645 -0.01 +0.01    -0.303 OA
DOCKED: ATOM     20  H   UNL d   1      17.080  28.708  18.458 +0.05 -0.02    +0.222 HD
DOCKED: ENDBRANCH  15  19
DOCKED: ENDBRANCH  14  15
DOCKED: ENDBRANCH   2  14
DOCKED: BRANCH   6  21
DOCKED: ATOM     21  O   UNL d   1      17.749  32.997  13.682 +0.00 +0.02    -0.278 OA
DOCKED: BRANCH  21  22
DOCKED: ATOM     22  P   UNL d   1      18.697  33.282  12.431 +0.00 -0.02    +0.473 P 
DOCKED: ATOM     23  O   UNL d   1      18.314  34.375  11.491 +0.00 +0.01    -0.228 OA
DOCKED: BRANCH  22  24
DOCKED: ATOM     24  O   UNL d   1      20.113  33.469  13.132 +0.00 +0.01    -0.303 OA
DOCKED: ATOM     25  H   UNL d   1      20.046  33.129  14.060 +0.00 -0.01    +0.222 HD
DOCKED: ENDBRANCH  22  24
DOCKED: BRANCH  22  26
DOCKED: ATOM     26  O   UNL d   1      18.836  31.819  11.789 +0.00 +0.01    -0.303 OA
DOCKED: ATOM     27  H   UNL d   1      18.838  31.152  12.505 +0.00 -0.01    +0.222 HD
DOCKED: ENDBRANCH  22  26
DOCKED: ENDBRANCH  21  22
DOCKED: ENDBRANCH   6  21
DOCKED: BRANCH   3  28
DOCKED: ATOM     28  O   UNL d   1      16.371  28.691  16.832 -0.05 +0.06    -0.278 OA
DOCKED: BRANCH  28  29
DOCKED: ATOM     29  P   UNL d   1      15.155  28.184  17.726 -0.19 -0.19    +0.473 P 
DOCKED: ATOM     30  O   UNL d   1      15.437  27.002  18.581 -0.12 +0.00    -0.228 OA
DOCKED: BRANCH  29  31
DOCKED: ATOM     31  O   UNL d   1      14.771  29.546  18.474 -0.16 +0.24    -0.303 OA
DOCKED: ATOM     32  H   UNL d   1      13.913  29.871  18.114 -0.50 -0.42    +0.222 HD
DOCKED: ENDBRANCH  29  31
DOCKED: BRANCH  29  33
DOCKED: ATOM     33  O   UNL d   1      13.990  28.032  16.652 -0.25 +0.25    -0.303 OA
DOCKED: ATOM     34  H   UNL d   1      13.695  28.932  16.368 -0.40 -0.35    +0.222 HD
DOCKED: ENDBRANCH  29  33
DOCKED: ENDBRANCH  28  29
DOCKED: ENDBRANCH   3  28
DOCKED: BRANCH   5  35
DOCKED: ATOM     35  O   UNL d   1      16.724  30.495  12.578 +0.00 +0.02    -0.278 OA
DOCKED: BRANCH  35  36
DOCKED: ATOM     36  P   UNL d   1      17.436  29.086  12.346 +0.00 -0.01    +0.473 P 
DOCKED: ATOM     37  O   UNL d   1      16.565  27.885  12.536 -0.01 +0.00    -0.228 OA
DOCKED: BRANCH  36  38
DOCKED: ATOM     38  O   UNL d   1      18.012  29.250  10.871 +0.00 +0.00    -0.303 OA
DOCKED: ATOM     39  H   UNL d   1      18.207  30.198  10.706 +0.00 -0.00    +0.222 HD
DOCKED: ENDBRANCH  36  38
DOCKED: BRANCH  36  40
DOCKED: ATOM     40  O   UNL d   1      18.723  29.199  13.274 -0.00 +0.00    -0.303 OA
DOCKED: ATOM     41  H   UNL d   1      18.493  29.504  14.180 +0.00 -0.01    +0.222 HD
DOCKED: ENDBRANCH  36  40
DOCKED: ENDBRANCH  35  36
DOCKED: ENDBRANCH   5  35
DOCKED: BRANCH   4  42
DOCKED: ATOM     42  O   UNL d   1      14.830  29.416  14.511 -0.05 +0.09    -0.278 OA
DOCKED: BRANCH  42  43
DOCKED: ATOM     43  P   UNL d   1      13.711  30.536  14.708 -0.07 -0.29    +0.473 P 
DOCKED: ATOM     44  O   UNL d   1      13.658  31.637  13.707 -0.03 +0.07    -0.228 OA
DOCKED: BRANCH  43  45
DOCKED: ATOM     45  O   UNL d   1      12.373  29.679  14.805 -0.17 +0.32    -0.303 OA
DOCKED: ATOM     46  H   UNL d   1      12.348  29.146  15.625 -0.45 -0.43    +0.222 HD
DOCKED: ENDBRANCH  43  45
DOCKED: BRANCH  43  47
DOCKED: ATOM     47  O   UNL d   1      13.915  30.994  16.230 -0.04 +0.33    -0.303 OA
DOCKED: ATOM     48  H   UNL d   1      13.920  30.203  16.808 -0.46 -0.38    +0.222 HD
DOCKED: ENDBRANCH  43  47
DOCKED: ENDBRANCH  42  43
DOCKED: ENDBRANCH   4  42
DOCKED: TORSDOF 24
DOCKED: TER
DOCKED: ENDMDL
________________________________________________________________________________


	BEGINNING GENETIC ALGORITHM DOCKING 58 of 100
Run: 58 Seed: 1114602948 1915923133 [ Run 58 of 100 GA/GALS ]
Beginning LAMARCKIAN GENETIC ALGORITHM (LGA), with a maximum of 25000000 energy evaluations.

Final-Value: -18.230


	FINAL GENETIC ALGORITHM DOCKED STATE
	_______________________________________________


Detailed state:  trans 8.283 19.015 0.279 quatxyzw -0.503410 -0.082433 0.050144 0.858644 center 0.035 0.082 -0.065 ntor 24 -144.2619 16.8875 49.0143 93.8325 -13.4167 149.7796 -111.2349 -47.2830 -14.6225 13.3465 66.4375 -52.1354 29.2735 -65.0180 -74.2014 63.7264 174.4374 -82.7661 -133.0041 -19.8521 40.5949 -22.5949 -178.0116 29.9005
State:	  8.283  19.015   0.279  -0.982 -0.161  0.098 61.671   -144.26   16.89   49.01   93.83  -13.42  149.78 -111.23  -47.28  -14.62   13.35   66.44  -52.14   29.27  -65.02  -74.20   63.73  174.44  -82.77 -133.00  -19.85   40.59  -22.59 -178.01   29.90

DOCKED: MODEL       58
DOCKED: USER    Run = 58
DOCKED: USER    DPF = D:/Protein_go_brrr/autodock/final/1A3N/IHP/dock.dpf
DOCKED: USER  
DOCKED: USER    Estimated Free Energy of Binding    =   +0.99 kcal/mol  [=(1)+(2)+(3)-(4)]
DOCKED: USER    
DOCKED: USER    (1) Final Intermolecular Energy     =   -6.17 kcal/mol
DOCKED: USER        vdW + Hbond + desolv Energy     =   -5.45 kcal/mol
DOCKED: USER        Electrostatic Energy            =   -0.72 kcal/mol
DOCKED: USER    (2) Final Total Internal Energy     =  -12.06 kcal/mol
DOCKED: USER    (3) Torsional Free Energy           =   +7.16 kcal/mol
DOCKED: USER    (4) Unbound System's Energy  [=(2)] =  -12.06 kcal/mol
DOCKED: USER    
DOCKED: USER    
DOCKED: USER    NEWDPF move IHP_ideal_opt.pdbqt
DOCKED: USER    NEWDPF about 0.035000 0.082000 -0.065000
DOCKED: USER    NEWDPF tran0 8.283353 19.015409 0.278657
DOCKED: USER    NEWDPF quaternion0 -0.503410 -0.082433 0.050144 0.858644
DOCKED: USER    NEWDPF axisangle0 -0.982123 -0.160823 0.097828 61.670758
DOCKED: USER    NEWDPF quat0 -0.982123 -0.160823 0.097828 61.670758
DOCKED: USER    NEWDPF dihe0 -144.26 16.89 49.01 93.83 -13.42 149.78 -111.23 -47.28 -14.62 13.35 66.44 -52.14 29.27 -65.02 -74.20 63.73 174.44 -82.77 -133.00 -19.85 40.59 -22.59 -178.01 29.90 
DOCKED: USER  keepresnum = 1 
DOCKED: USER  
DOCKED: REMARK  24 active torsions:
DOCKED: REMARK  status: ('A' for Active; 'I' for Inactive)
DOCKED: REMARK    1  A    between atoms: C_1  and  O_7 
DOCKED: REMARK    2  A    between atoms: C_2  and  O_12 
DOCKED: REMARK    3  A    between atoms: C_3  and  O_17 
DOCKED: REMARK    4  A    between atoms: C_4  and  O_22 
DOCKED: REMARK    5  A    between atoms: C_5  and  O_27 
DOCKED: REMARK    6  A    between atoms: C_6  and  O_32 
DOCKED: REMARK    7  A    between atoms: O_7  and  P_8 
DOCKED: REMARK    8  A    between atoms: P_8  and  O_10 
DOCKED: REMARK    9  A    between atoms: P_8  and  O_11 
DOCKED: REMARK   10  A    between atoms: O_12  and  P_13 
DOCKED: REMARK   11  A    between atoms: P_13  and  O_15 
DOCKED: REMARK   12  A    between atoms: P_13  and  O_16 
DOCKED: REMARK   13  A    between atoms: O_17  and  P_18 
DOCKED: REMARK   14  A    between atoms: P_18  and  O_20 
DOCKED: REMARK   15  A    between atoms: P_18  and  O_21 
DOCKED: REMARK   16  A    between atoms: O_22  and  P_23 
DOCKED: REMARK   17  A    between atoms: P_23  and  O_25 
DOCKED: REMARK   18  A    between atoms: P_23  and  O_26 
DOCKED: REMARK   19  A    between atoms: O_27  and  P_28 
DOCKED: REMARK   20  A    between atoms: P_28  and  O_30 
DOCKED: REMARK   21  A    between atoms: P_28  and  O_31 
DOCKED: REMARK   22  A    between atoms: O_32  and  P_33 
DOCKED: REMARK   23  A    between atoms: P_33  and  O_35 
DOCKED: REMARK   24  A    between atoms: P_33  and  O_36 
DOCKED: USER                              x       y       z     vdW  Elec       q    Type
DOCKED: USER                           _______ _______ _______ _____ _____    ______ ____
DOCKED: ROOT
DOCKED: ATOM      1  C   UNL d   1       9.435  17.888  -0.343 -0.25 -0.07    +0.194 C 
DOCKED: ATOM      2  C   UNL d   1       8.041  17.821  -0.969 -0.17 -0.05    +0.194 C 
DOCKED: ATOM      3  C   UNL d   1       6.939  17.925   0.089 -0.11 -0.10    +0.194 C 
DOCKED: ATOM      4  C   UNL d   1       7.102  19.132   1.009 -0.13 -0.05    +0.194 C 
DOCKED: ATOM      5  C   UNL d   1       8.510  19.303   1.566 -0.19 -0.03    +0.194 C 
DOCKED: ATOM      6  C   UNL d   1       9.614  19.138   0.520 -0.20 -0.02    +0.194 C 
DOCKED: ENDROOT
DOCKED: BRANCH   1   7
DOCKED: ATOM      7  O   UNL d   1      10.395  17.958  -1.400 -0.23 +0.05    -0.278 OA
DOCKED: BRANCH   7   8
DOCKED: ATOM      8  P   UNL d   1      11.089  19.365  -1.702 -0.13 +0.02    +0.473 P 
DOCKED: ATOM      9  O   UNL d   1      12.221  19.716  -0.802 -0.15 -0.05    -0.228 OA
DOCKED: BRANCH   8  10
DOCKED: ATOM     10  O   UNL d   1      11.514  19.265  -3.236 -0.31 -0.03    -0.303 OA
DOCKED: ATOM     11  H   UNL d   1      10.726  19.088  -3.783 +0.06 +0.01    +0.222 HD
DOCKED: ENDBRANCH   8  10
DOCKED: BRANCH   8  12
DOCKED: ATOM     12  O   UNL d   1       9.895  20.412  -1.756 -0.03 -0.01    -0.303 OA
DOCKED: ATOM     13  H   UNL d   1       9.043  20.010  -2.041 +0.05 -0.00    +0.222 HD
DOCKED: ENDBRANCH   8  12
DOCKED: ENDBRANCH   7   8
DOCKED: ENDBRANCH   1   7
DOCKED: BRANCH   2  14
DOCKED: ATOM     14  O   UNL d   1       7.891  18.907  -1.892 -0.03 +0.03    -0.278 OA
DOCKED: BRANCH  14  15
DOCKED: ATOM     15  P   UNL d   1       7.799  18.520  -3.443 -0.02 -0.03    +0.473 P 
DOCKED: ATOM     16  O   UNL d   1       8.098  17.097  -3.799 -0.11 +0.02    -0.228 OA
DOCKED: BRANCH  15  17
DOCKED: ATOM     17  O   UNL d   1       6.331  18.968  -3.869 -0.00 +0.02    -0.303 OA
DOCKED: ATOM     18  H   UNL d   1       5.669  18.666  -3.218 +0.02 -0.02    +0.222 HD
DOCKED: ENDBRANCH  15  17
DOCKED: BRANCH  15  19
DOCKED: ATOM     19  O   UNL d   1       8.692  19.612  -4.178 -0.04 +0.01    -0.303 OA
DOCKED: ATOM     20  H   UNL d   1       9.455  19.881  -3.633 +0.04 -0.00    +0.222 HD
DOCKED: ENDBRANCH  15  19
DOCKED: ENDBRANCH  14  15
DOCKED: ENDBRANCH   2  14
DOCKED: BRANCH   6  21
DOCKED: ATOM     21  O   UNL d   1      10.838  18.982   1.233 -0.26 -0.01    -0.278 OA
DOCKED: BRANCH  21  22
DOCKED: ATOM     22  P   UNL d   1      11.359  20.156   2.179 -0.19 +0.21    +0.473 P 
DOCKED: ATOM     23  O   UNL d   1      11.286  21.556   1.670 -0.11 -0.08    -0.228 OA
DOCKED: BRANCH  22  24
DOCKED: ATOM     24  O   UNL d   1      10.534  19.888   3.514 -0.80 -0.45    -0.303 OA
DOCKED: ATOM     25  H   UNL d   1       9.620  20.251   3.390 +0.05 +0.22    +0.222 HD
DOCKED: ENDBRANCH  22  24
DOCKED: BRANCH  22  26
DOCKED: ATOM     26  O   UNL d   1      12.818  19.629   2.580 -0.28 -0.12    -0.303 OA
DOCKED: ATOM     27  H   UNL d   1      12.842  18.654   2.496 -0.23 +0.01    +0.222 HD
DOCKED: ENDBRANCH  22  26
DOCKED: ENDBRANCH  21  22
DOCKED: ENDBRANCH   6  21
DOCKED: BRANCH   3  28
DOCKED: ATOM     28  O   UNL d   1       5.709  18.134  -0.593 -0.06 +0.07    -0.278 OA
DOCKED: BRANCH  28  29
DOCKED: ATOM     29  P   UNL d   1       4.843  16.892  -1.087 -0.03 -0.11    +0.473 P 
DOCKED: ATOM     30  O   UNL d   1       4.820  15.722  -0.173 -0.17 +0.08    -0.228 OA
DOCKED: BRANCH  29  31
DOCKED: ATOM     31  O   UNL d   1       3.446  17.621  -1.369 -0.00 +0.04    -0.303 OA
DOCKED: ATOM     32  H   UNL d   1       3.132  18.033  -0.531 +0.04 -0.03    +0.222 HD
DOCKED: ENDBRANCH  29  31
DOCKED: BRANCH  29  33
DOCKED: ATOM     33  O   UNL d   1       5.414  16.649  -2.553 -0.02 +0.04    -0.303 OA
DOCKED: ATOM     34  H   UNL d   1       6.240  17.179  -2.668 +0.05 -0.03    +0.222 HD
DOCKED: ENDBRANCH  29  33
DOCKED: ENDBRANCH  28  29
DOCKED: ENDBRANCH   3  28
DOCKED: BRANCH   5  35
DOCKED: ATOM     35  O   UNL d   1       8.578  20.646   2.040 -0.14 -0.08    -0.278 OA
DOCKED: BRANCH  35  36
DOCKED: ATOM     36  P   UNL d   1       8.058  21.848   1.129 -0.01 +0.09    +0.473 P 
DOCKED: ATOM     37  O   UNL d   1       8.879  23.098   1.180 -0.04 -0.05    -0.228 OA
DOCKED: BRANCH  36  38
DOCKED: ATOM     38  O   UNL d   1       7.995  21.165  -0.308 -0.00 -0.02    -0.303 OA
DOCKED: ATOM     39  H   UNL d   1       8.883  21.209  -0.724 +0.05 +0.01    +0.222 HD
DOCKED: ENDBRANCH  36  38
DOCKED: BRANCH  36  40
DOCKED: ATOM     40  O   UNL d   1       6.533  21.968   1.563 -0.08 -0.08    -0.303 OA
DOCKED: ATOM     41  H   UNL d   1       6.173  21.107   1.871 +0.10 +0.05    +0.222 HD
DOCKED: ENDBRANCH  36  40
DOCKED: ENDBRANCH  35  36
DOCKED: ENDBRANCH   5  35
DOCKED: BRANCH   4  42
DOCKED: ATOM     42  O   UNL d   1       6.231  18.922   2.126 -0.16 +0.04    -0.278 OA
DOCKED: BRANCH  42  43
DOCKED: ATOM     43  P   UNL d   1       4.682  19.273   1.972 -0.12 -0.07    +0.473 P 
DOCKED: ATOM     44  O   UNL d   1       4.326  20.470   1.160 -0.11 -0.00    -0.228 OA
DOCKED: BRANCH  43  45
DOCKED: ATOM     45  O   UNL d   1       4.069  17.910   1.425 -0.11 +0.12    -0.303 OA
DOCKED: ATOM     46  H   UNL d   1       4.769  17.258   1.223 -0.14 -0.17    +0.222 HD
DOCKED: ENDBRANCH  43  45
DOCKED: BRANCH  43  47
DOCKED: ATOM     47  O   UNL d   1       4.156  19.282   3.486 -0.29 +0.13    -0.303 OA
DOCKED: ATOM     48  H   UNL d   1       3.698  20.130   3.663 -0.42 -0.27    +0.222 HD
DOCKED: ENDBRANCH  43  47
DOCKED: ENDBRANCH  42  43
DOCKED: ENDBRANCH   4  42
DOCKED: TORSDOF 24
DOCKED: TER
DOCKED: ENDMDL
________________________________________________________________________________


	BEGINNING GENETIC ALGORITHM DOCKING 59 of 100
Run: 59 Seed: 2119049123 1379783871 [ Run 59 of 100 GA/GALS ]
Beginning LAMARCKIAN GENETIC ALGORITHM (LGA), with a maximum of 25000000 energy evaluations.

Final-Value: -20.624


	FINAL GENETIC ALGORITHM DOCKED STATE
	_______________________________________________


Detailed state:  trans 18.401 -19.091 15.571 quatxyzw -0.595699 0.704479 0.379620 0.068848 center 0.035 0.082 -0.065 ntor 24 -143.7954 27.9776 161.0521 4.9653 -95.4431 -164.6559 26.2074 -101.8646 33.1750 102.2242 129.1142 -166.2246 26.6618 34.1091 178.1229 109.1418 -1.9626 136.5729 -130.5121 -31.4873 -176.1345 -37.2571 158.3218 -15.7391
State:	 18.401 -19.091  15.571  -0.597  0.706  0.381 172.104   -143.80   27.98  161.05    4.97  -95.44 -164.66   26.21 -101.86   33.17  102.22  129.11 -166.22   26.66   34.11  178.12  109.14   -1.96  136.57 -130.51  -31.49 -176.13  -37.26  158.32  -15.74

DOCKED: MODEL       59
DOCKED: USER    Run = 59
DOCKED: USER    DPF = D:/Protein_go_brrr/autodock/final/1A3N/IHP/dock.dpf
DOCKED: USER  
DOCKED: USER    Estimated Free Energy of Binding    =   -0.04 kcal/mol  [=(1)+(2)+(3)-(4)]
DOCKED: USER    Estimated Inhibition Constant, Ki   =  938.52 mM (millimolar)  [Temperature = 298.15 K]
DOCKED: USER    
DOCKED: USER    (1) Final Intermolecular Energy     =   -7.20 kcal/mol
DOCKED: USER        vdW + Hbond + desolv Energy     =   -6.89 kcal/mol
DOCKED: USER        Electrostatic Energy            =   -0.31 kcal/mol
DOCKED: USER    (2) Final Total Internal Energy     =  -13.43 kcal/mol
DOCKED: USER    (3) Torsional Free Energy           =   +7.16 kcal/mol
DOCKED: USER    (4) Unbound System's Energy  [=(2)] =  -13.43 kcal/mol
DOCKED: USER    
DOCKED: USER    
DOCKED: USER    NEWDPF move IHP_ideal_opt.pdbqt
DOCKED: USER    NEWDPF about 0.035000 0.082000 -0.065000
DOCKED: USER    NEWDPF tran0 18.401359 -19.091128 15.571192
DOCKED: USER    NEWDPF quaternion0 -0.595699 0.704479 0.379620 0.068848
DOCKED: USER    NEWDPF axisangle0 -0.597116 0.706155 0.380523 172.104380
DOCKED: USER    NEWDPF quat0 -0.597116 0.706155 0.380523 172.104380
DOCKED: USER    NEWDPF dihe0 -143.80 27.98 161.05 4.97 -95.44 -164.66 26.21 -101.86 33.17 102.22 129.11 -166.22 26.66 34.11 178.12 109.14 -1.96 136.57 -130.51 -31.49 -176.13 -37.26 158.32 -15.74 
DOCKED: USER  keepresnum = 1 
DOCKED: USER  
DOCKED: REMARK  24 active torsions:
DOCKED: REMARK  status: ('A' for Active; 'I' for Inactive)
DOCKED: REMARK    1  A    between atoms: C_1  and  O_7 
DOCKED: REMARK    2  A    between atoms: C_2  and  O_12 
DOCKED: REMARK    3  A    between atoms: C_3  and  O_17 
DOCKED: REMARK    4  A    between atoms: C_4  and  O_22 
DOCKED: REMARK    5  A    between atoms: C_5  and  O_27 
DOCKED: REMARK    6  A    between atoms: C_6  and  O_32 
DOCKED: REMARK    7  A    between atoms: O_7  and  P_8 
DOCKED: REMARK    8  A    between atoms: P_8  and  O_10 
DOCKED: REMARK    9  A    between atoms: P_8  and  O_11 
DOCKED: REMARK   10  A    between atoms: O_12  and  P_13 
DOCKED: REMARK   11  A    between atoms: P_13  and  O_15 
DOCKED: REMARK   12  A    between atoms: P_13  and  O_16 
DOCKED: REMARK   13  A    between atoms: O_17  and  P_18 
DOCKED: REMARK   14  A    between atoms: P_18  and  O_20 
DOCKED: REMARK   15  A    between atoms: P_18  and  O_21 
DOCKED: REMARK   16  A    between atoms: O_22  and  P_23 
DOCKED: REMARK   17  A    between atoms: P_23  and  O_25 
DOCKED: REMARK   18  A    between atoms: P_23  and  O_26 
DOCKED: REMARK   19  A    between atoms: O_27  and  P_28 
DOCKED: REMARK   20  A    between atoms: P_28  and  O_30 
DOCKED: REMARK   21  A    between atoms: P_28  and  O_31 
DOCKED: REMARK   22  A    between atoms: O_32  and  P_33 
DOCKED: REMARK   23  A    between atoms: P_33  and  O_35 
DOCKED: REMARK   24  A    between atoms: P_33  and  O_36 
DOCKED: USER                              x       y       z     vdW  Elec       q    Type
DOCKED: USER                           _______ _______ _______ _____ _____    ______ ____
DOCKED: ROOT
DOCKED: ATOM      1  C   UNL d   1      18.314 -19.852  14.023 -0.10 +0.02    +0.194 C 
DOCKED: ATOM      2  C   UNL d   1      19.500 -18.908  14.229 -0.16 +0.02    +0.194 C 
DOCKED: ATOM      3  C   UNL d   1      19.081 -17.618  14.939 -0.12 +0.03    +0.194 C 
DOCKED: ATOM      4  C   UNL d   1      18.309 -17.867  16.232 -0.12 +0.05    +0.194 C 
DOCKED: ATOM      5  C   UNL d   1      17.188 -18.890  16.099 -0.07 +0.06    +0.194 C 
DOCKED: ATOM      6  C   UNL d   1      17.590 -20.154  15.335 -0.06 +0.02    +0.194 C 
DOCKED: ENDROOT
DOCKED: BRANCH   1   7
DOCKED: ATOM      7  O   UNL d   1      18.814 -21.092  13.517 -0.10 +0.01    -0.278 OA
DOCKED: BRANCH   7   8
DOCKED: ATOM      8  P   UNL d   1      18.841 -22.355  14.495 -0.10 -0.13    +0.473 P 
DOCKED: ATOM      9  O   UNL d   1      17.530 -23.031  14.689 -0.06 +0.03    -0.228 OA
DOCKED: BRANCH   8  10
DOCKED: ATOM     10  O   UNL d   1      19.952 -23.309  13.863 -0.05 +0.26    -0.303 OA
DOCKED: ATOM     11  H   UNL d   1      20.803 -22.835  13.817 -0.33 -0.30    +0.222 HD
DOCKED: ENDBRANCH   8  10
DOCKED: BRANCH   8  12
DOCKED: ATOM     12  O   UNL d   1      19.558 -21.839  15.816 -0.23 +0.11    -0.303 OA
DOCKED: ATOM     13  H   UNL d   1      20.059 -21.003  15.681 +0.01 -0.07    +0.222 HD
DOCKED: ENDBRANCH   8  12
DOCKED: ENDBRANCH   7   8
DOCKED: ENDBRANCH   1   7
DOCKED: BRANCH   2  14
DOCKED: ATOM     14  O   UNL d   1      20.489 -19.568  15.029 -0.19 +0.03    -0.278 OA
DOCKED: BRANCH  14  15
DOCKED: ATOM     15  P   UNL d   1      21.735 -20.201  14.248 -0.28 -0.07    +0.473 P 
DOCKED: ATOM     16  O   UNL d   1      22.920 -19.311  14.041 -0.50 -0.04    -0.228 OA
DOCKED: BRANCH  15  17
DOCKED: ATOM     17  O   UNL d   1      22.087 -21.514  15.079 +0.30 +0.28    -0.303 OA
DOCKED: ATOM     18  H   UNL d   1      21.361 -22.166  15.030 -0.49 -0.38    +0.222 HD
DOCKED: ENDBRANCH  15  17
DOCKED: BRANCH  15  19
DOCKED: ATOM     19  O   UNL d   1      21.103 -20.819  12.926 -0.26 +0.01    -0.303 OA
DOCKED: ATOM     20  H   UNL d   1      20.379 -21.441  13.129 +0.09 -0.05    +0.222 HD
DOCKED: ENDBRANCH  15  19
DOCKED: ENDBRANCH  14  15
DOCKED: ENDBRANCH   2  14
DOCKED: BRANCH   6  21
DOCKED: ATOM     21  O   UNL d   1      16.383 -20.835  15.001 -0.01 -0.05    -0.278 OA
DOCKED: BRANCH  21  22
DOCKED: ATOM     22  P   UNL d   1      15.541 -20.373  13.727 +0.01 +0.11    +0.473 P 
DOCKED: ATOM     23  O   UNL d   1      14.067 -20.601  13.736 -0.01 -0.08    -0.228 OA
DOCKED: BRANCH  22  24
DOCKED: ATOM     24  O   UNL d   1      15.980 -18.850  13.581 -0.01 -0.09    -0.303 OA
DOCKED: ATOM     25  H   UNL d   1      15.307 -18.388  13.019 +0.04 +0.08    +0.222 HD
DOCKED: ENDBRANCH  22  24
DOCKED: BRANCH  22  26
DOCKED: ATOM     26  O   UNL d   1      16.352 -21.067  12.531 -0.06 -0.04    -0.303 OA
DOCKED: ATOM     27  H   UNL d   1      16.878 -21.812  12.889 +0.04 +0.01    +0.222 HD
DOCKED: ENDBRANCH  22  26
DOCKED: ENDBRANCH  21  22
DOCKED: ENDBRANCH   6  21
DOCKED: BRANCH   3  28
DOCKED: ATOM     28  O   UNL d   1      20.267 -16.941  15.332 -0.15 -0.04    -0.278 OA
DOCKED: BRANCH  28  29
DOCKED: ATOM     29  P   UNL d   1      21.172 -16.207  14.245 -0.23 +0.06    +0.473 P 
DOCKED: ATOM     30  O   UNL d   1      20.737 -14.837  13.870 -0.30 -0.02    -0.228 OA
DOCKED: BRANCH  29  31
DOCKED: ATOM     31  O   UNL d   1      22.609 -16.349  14.936 -0.28 -0.03    -0.303 OA
DOCKED: ATOM     32  H   UNL d   1      22.936 -17.267  14.793 +0.18 +0.03    +0.222 HD
DOCKED: ENDBRANCH  29  31
DOCKED: BRANCH  29  33
DOCKED: ATOM     33  O   UNL d   1      21.235 -17.288  13.078 -0.28 -0.08    -0.303 OA
DOCKED: ATOM     34  H   UNL d   1      21.375 -18.182  13.475 +0.12 +0.06    +0.222 HD
DOCKED: ENDBRANCH  29  33
DOCKED: ENDBRANCH  28  29
DOCKED: ENDBRANCH   3  28
DOCKED: BRANCH   5  35
DOCKED: ATOM     35  O   UNL d   1      16.867 -19.288  17.430 -0.12 -0.11    -0.278 OA
DOCKED: BRANCH  35  36
DOCKED: ATOM     36  P   UNL d   1      17.881 -20.193  18.266 -0.27 +0.13    +0.473 P 
DOCKED: ATOM     37  O   UNL d   1      19.324 -19.817  18.153 -0.98 -0.05    -0.228 OA
DOCKED: BRANCH  36  38
DOCKED: ATOM     38  O   UNL d   1      17.287 -20.073  19.738 -0.87 -0.18    -0.303 OA
DOCKED: ATOM     39  H   UNL d   1      16.948 -19.162  19.875 +0.11 +0.19    +0.222 HD
DOCKED: ENDBRANCH  36  38
DOCKED: BRANCH  36  40
DOCKED: ATOM     40  O   UNL d   1      17.479 -21.663  17.810 -0.17 -0.01    -0.303 OA
DOCKED: ATOM     41  H   UNL d   1      17.598 -21.789  16.842 +0.07 -0.01    +0.222 HD
DOCKED: ENDBRANCH  36  40
DOCKED: ENDBRANCH  35  36
DOCKED: ENDBRANCH   5  35
DOCKED: BRANCH   4  42
DOCKED: ATOM     42  O   UNL d   1      17.702 -16.623  16.599 -0.10 -0.10    -0.278 OA
DOCKED: BRANCH  42  43
DOCKED: ATOM     43  P   UNL d   1      17.949 -16.048  18.066 -0.26 +0.18    +0.473 P 
DOCKED: ATOM     44  O   UNL d   1      17.260 -14.778  18.430 -0.42 -0.10    -0.228 OA
DOCKED: BRANCH  43  45
DOCKED: ATOM     45  O   UNL d   1      17.569 -17.284  18.994 -0.39 -0.16    -0.303 OA
DOCKED: ATOM     46  H   UNL d   1      18.092 -18.078  18.763 +0.12 +0.11    +0.222 HD
DOCKED: ENDBRANCH  43  45
DOCKED: BRANCH  43  47
DOCKED: ATOM     47  O   UNL d   1      19.547 -16.028  18.188 -0.03 -0.08    -0.303 OA
DOCKED: ATOM     48  H   UNL d   1      19.940 -16.165  17.301 +0.16 +0.06    +0.222 HD
DOCKED: ENDBRANCH  43  47
DOCKED: ENDBRANCH  42  43
DOCKED: ENDBRANCH   4  42
DOCKED: TORSDOF 24
DOCKED: TER
DOCKED: ENDMDL
________________________________________________________________________________


	BEGINNING GENETIC ALGORITHM DOCKING 60 of 100
Run: 60 Seed: 862649729 494302571 [ Run 60 of 100 GA/GALS ]
Beginning LAMARCKIAN GENETIC ALGORITHM (LGA), with a maximum of 25000000 energy evaluations.

Final-Value: -17.102


	FINAL GENETIC ALGORITHM DOCKED STATE
	_______________________________________________


Detailed state:  trans -6.773 19.766 -5.476 quatxyzw 0.175587 -0.924829 0.193425 0.276492 center 0.035 0.082 -0.065 ntor 24 107.5365 -155.6961 15.5142 77.0150 0.2561 147.6001 -133.2446 -65.1529 47.4042 125.6681 98.3136 119.1276 130.2544 -81.1695 158.7559 40.2399 -70.3484 -143.8670 -3.4856 22.6773 -25.3556 21.2372 165.9090 -2.0876
State:	 -6.773  19.766  -5.476   0.183 -0.962  0.201 147.898    107.54 -155.70   15.51   77.01    0.26  147.60 -133.24  -65.15   47.40  125.67   98.31  119.13  130.25  -81.17  158.76   40.24  -70.35 -143.87   -3.49   22.68  -25.36   21.24  165.91   -2.09

DOCKED: MODEL       60
DOCKED: USER    Run = 60
DOCKED: USER    DPF = D:/Protein_go_brrr/autodock/final/1A3N/IHP/dock.dpf
DOCKED: USER  
DOCKED: USER    Estimated Free Energy of Binding    =   +4.21 kcal/mol  [=(1)+(2)+(3)-(4)]
DOCKED: USER    
DOCKED: USER    (1) Final Intermolecular Energy     =   -2.95 kcal/mol
DOCKED: USER        vdW + Hbond + desolv Energy     =   -2.81 kcal/mol
DOCKED: USER        Electrostatic Energy            =   -0.15 kcal/mol
DOCKED: USER    (2) Final Total Internal Energy     =  -14.15 kcal/mol
DOCKED: USER    (3) Torsional Free Energy           =   +7.16 kcal/mol
DOCKED: USER    (4) Unbound System's Energy  [=(2)] =  -14.15 kcal/mol
DOCKED: USER    
DOCKED: USER    
DOCKED: USER    NEWDPF move IHP_ideal_opt.pdbqt
DOCKED: USER    NEWDPF about 0.035000 0.082000 -0.065000
DOCKED: USER    NEWDPF tran0 -6.773363 19.766452 -5.475771
DOCKED: USER    NEWDPF quaternion0 0.175587 -0.924829 0.193425 0.276492
DOCKED: USER    NEWDPF axisangle0 0.182709 -0.962345 0.201271 147.898115
DOCKED: USER    NEWDPF quat0 0.182709 -0.962345 0.201271 147.898115
DOCKED: USER    NEWDPF dihe0 107.54 -155.70 15.51 77.01 0.26 147.60 -133.24 -65.15 47.40 125.67 98.31 119.13 130.25 -81.17 158.76 40.24 -70.35 -143.87 -3.49 22.68 -25.36 21.24 165.91 -2.09 
DOCKED: USER  keepresnum = 1 
DOCKED: USER  
DOCKED: REMARK  24 active torsions:
DOCKED: REMARK  status: ('A' for Active; 'I' for Inactive)
DOCKED: REMARK    1  A    between atoms: C_1  and  O_7 
DOCKED: REMARK    2  A    between atoms: C_2  and  O_12 
DOCKED: REMARK    3  A    between atoms: C_3  and  O_17 
DOCKED: REMARK    4  A    between atoms: C_4  and  O_22 
DOCKED: REMARK    5  A    between atoms: C_5  and  O_27 
DOCKED: REMARK    6  A    between atoms: C_6  and  O_32 
DOCKED: REMARK    7  A    between atoms: O_7  and  P_8 
DOCKED: REMARK    8  A    between atoms: P_8  and  O_10 
DOCKED: REMARK    9  A    between atoms: P_8  and  O_11 
DOCKED: REMARK   10  A    between atoms: O_12  and  P_13 
DOCKED: REMARK   11  A    between atoms: P_13  and  O_15 
DOCKED: REMARK   12  A    between atoms: P_13  and  O_16 
DOCKED: REMARK   13  A    between atoms: O_17  and  P_18 
DOCKED: REMARK   14  A    between atoms: P_18  and  O_20 
DOCKED: REMARK   15  A    between atoms: P_18  and  O_21 
DOCKED: REMARK   16  A    between atoms: O_22  and  P_23 
DOCKED: REMARK   17  A    between atoms: P_23  and  O_25 
DOCKED: REMARK   18  A    between atoms: P_23  and  O_26 
DOCKED: REMARK   19  A    between atoms: O_27  and  P_28 
DOCKED: REMARK   20  A    between atoms: P_28  and  O_30 
DOCKED: REMARK   21  A    between atoms: P_28  and  O_31 
DOCKED: REMARK   22  A    between atoms: O_32  and  P_33 
DOCKED: REMARK   23  A    between atoms: P_33  and  O_35 
DOCKED: REMARK   24  A    between atoms: P_33  and  O_36 
DOCKED: USER                              x       y       z     vdW  Elec       q    Type
DOCKED: USER                           _______ _______ _______ _____ _____    ______ ____
DOCKED: ROOT
DOCKED: ATOM      1  C   UNL d   1      -7.106  18.252  -6.238 -0.14 -0.06    +0.194 C 
DOCKED: ATOM      2  C   UNL d   1      -6.164  18.193  -5.034 -0.18 -0.05    +0.194 C 
DOCKED: ATOM      3  C   UNL d   1      -5.140  19.330  -5.059 -0.08 -0.02    +0.194 C 
DOCKED: ATOM      4  C   UNL d   1      -5.776  20.708  -5.228 -0.03 -0.03    +0.194 C 
DOCKED: ATOM      5  C   UNL d   1      -6.808  20.783  -6.346 -0.01 -0.03    +0.194 C 
DOCKED: ATOM      6  C   UNL d   1      -7.794  19.613  -6.358 -0.03 -0.05    +0.194 C 
DOCKED: ENDROOT
DOCKED: BRANCH   1   7
DOCKED: ATOM      7  O   UNL d   1      -8.130  17.272  -6.053 -0.16 +0.17    -0.278 OA
DOCKED: BRANCH   7   8
DOCKED: ATOM      8  P   UNL d   1      -8.375  16.201  -7.213 -0.11 -0.18    +0.473 P 
DOCKED: ATOM      9  O   UNL d   1      -9.486  15.243  -6.962 -0.13 +0.10    -0.228 OA
DOCKED: BRANCH   8  10
DOCKED: ATOM     10  O   UNL d   1      -8.594  17.090  -8.519 -0.02 +0.08    -0.303 OA
DOCKED: ATOM     11  H   UNL d   1      -9.261  17.778  -8.339 +0.03 -0.06    +0.222 HD
DOCKED: ENDBRANCH   8  10
DOCKED: BRANCH   8  12
DOCKED: ATOM     12  O   UNL d   1      -6.949  15.555  -7.485 -0.32 +0.08    -0.303 OA
DOCKED: ATOM     13  H   UNL d   1      -7.002  14.677  -7.926 +0.09 -0.08    +0.222 HD
DOCKED: ENDBRANCH   8  12
DOCKED: ENDBRANCH   7   8
DOCKED: ENDBRANCH   1   7
DOCKED: BRANCH   2  14
DOCKED: ATOM     14  O   UNL d   1      -6.937  18.301  -3.832 -0.15 +0.17    -0.278 OA
DOCKED: BRANCH  14  15
DOCKED: ATOM     15  P   UNL d   1      -6.303  17.649  -2.514 -0.19 -0.27    +0.473 P 
DOCKED: ATOM     16  O   UNL d   1      -5.334  16.527  -2.718 -0.77 +0.04    -0.228 OA
DOCKED: BRANCH  15  17
DOCKED: ATOM     17  O   UNL d   1      -5.662  18.885  -1.740 -0.06 +0.07    -0.303 OA
DOCKED: ATOM     18  H   UNL d   1      -4.794  19.124  -2.117 +0.06 -0.03    +0.222 HD
DOCKED: ENDBRANCH  15  17
DOCKED: BRANCH  15  19
DOCKED: ATOM     19  O   UNL d   1      -7.557  17.313  -1.595 -0.12 +0.38    -0.303 OA
DOCKED: ATOM     20  H   UNL d   1      -8.388  17.309  -2.106 -0.29 -0.49    +0.222 HD
DOCKED: ENDBRANCH  15  19
DOCKED: ENDBRANCH  14  15
DOCKED: ENDBRANCH   2  14
DOCKED: BRANCH   6  21
DOCKED: ATOM     21  O   UNL d   1      -8.450  19.640  -7.623 -0.00 +0.06    -0.278 OA
DOCKED: BRANCH  21  22
DOCKED: ATOM     22  P   UNL d   1     -10.044  19.624  -7.689 +0.01 -0.10    +0.473 P 
DOCKED: ATOM     23  O   UNL d   1     -10.693  19.449  -9.021 +0.00 +0.03    -0.228 OA
DOCKED: BRANCH  22  24
DOCKED: ATOM     24  O   UNL d   1     -10.403  18.502  -6.619 -0.02 +0.12    -0.303 OA
DOCKED: ATOM     25  H   UNL d   1     -10.066  17.634  -6.959 +0.03 -0.10    +0.222 HD
DOCKED: ENDBRANCH  22  24
DOCKED: BRANCH  22  26
DOCKED: ATOM     26  O   UNL d   1     -10.416  20.967  -6.897 +0.00 +0.05    -0.303 OA
DOCKED: ATOM     27  H   UNL d   1      -9.699  21.177  -6.265 +0.01 -0.04    +0.222 HD
DOCKED: ENDBRANCH  22  26
DOCKED: ENDBRANCH  21  22
DOCKED: ENDBRANCH   6  21
DOCKED: BRANCH   3  28
DOCKED: ATOM     28  O   UNL d   1      -4.504  19.361  -3.788 -0.10 +0.03    -0.278 OA
DOCKED: BRANCH  28  29
DOCKED: ATOM     29  P   UNL d   1      -2.916  19.437  -3.685 -0.07 -0.01    +0.473 P 
DOCKED: ATOM     30  O   UNL d   1      -2.210  19.802  -4.940 -0.09 +0.01    -0.228 OA
DOCKED: BRANCH  29  31
DOCKED: ATOM     31  O   UNL d   1      -2.765  20.442  -2.448 -0.03 +0.01    -0.303 OA
DOCKED: ATOM     32  H   UNL d   1      -2.867  21.364  -2.778 +0.02 -0.01    +0.222 HD
DOCKED: ENDBRANCH  29  31
DOCKED: BRANCH  29  33
DOCKED: ATOM     33  O   UNL d   1      -2.556  18.027  -3.039 -0.09 -0.02    -0.303 OA
DOCKED: ATOM     34  H   UNL d   1      -3.393  17.560  -2.799 +0.10 +0.02    +0.222 HD
DOCKED: ENDBRANCH  29  33
DOCKED: ENDBRANCH  28  29
DOCKED: ENDBRANCH   3  28
DOCKED: BRANCH   5  35
DOCKED: ATOM     35  O   UNL d   1      -7.563  21.966  -6.096 -0.00 +0.04    -0.278 OA
DOCKED: BRANCH  35  36
DOCKED: ATOM     36  P   UNL d   1      -8.440  22.097  -4.770 +0.01 -0.07    +0.473 P 
DOCKED: ATOM     37  O   UNL d   1      -8.902  20.805  -4.173 -0.01 +0.07    -0.228 OA
DOCKED: BRANCH  36  38
DOCKED: ATOM     38  O   UNL d   1      -7.480  22.947  -3.827 +0.00 +0.03    -0.303 OA
DOCKED: ATOM     39  H   UNL d   1      -6.553  22.841  -4.132 +0.00 -0.02    +0.222 HD
DOCKED: ENDBRANCH  36  38
DOCKED: BRANCH  36  40
DOCKED: ATOM     40  O   UNL d   1      -9.565  23.133  -5.206 +0.00 +0.03    -0.303 OA
DOCKED: ATOM     41  H   UNL d   1     -10.308  22.690  -5.672 +0.00 -0.03    +0.222 HD
DOCKED: ENDBRANCH  36  40
DOCKED: ENDBRANCH  35  36
DOCKED: ENDBRANCH   5  35
DOCKED: BRANCH   4  42
DOCKED: ATOM     42  O   UNL d   1      -4.720  21.613  -5.568 -0.01 +0.02    -0.278 OA
DOCKED: BRANCH  42  43
DOCKED: ATOM     43  P   UNL d   1      -4.318  22.755  -4.530 -0.00 -0.03    +0.473 P 
DOCKED: ATOM     44  O   UNL d   1      -4.883  24.115  -4.754 -0.00 +0.01    -0.228 OA
DOCKED: BRANCH  43  45
DOCKED: ATOM     45  O   UNL d   1      -4.712  22.109  -3.130 -0.00 +0.02    -0.303 OA
DOCKED: ATOM     46  H   UNL d   1      -4.702  21.132  -3.172 +0.03 -0.02    +0.222 HD
DOCKED: ENDBRANCH  43  45
DOCKED: BRANCH  43  47
DOCKED: ATOM     47  O   UNL d   1      -2.718  22.669  -4.491 -0.00 +0.01    -0.303 OA
DOCKED: ATOM     48  H   UNL d   1      -2.451  21.786  -4.161 +0.02 -0.01    +0.222 HD
DOCKED: ENDBRANCH  43  47
DOCKED: ENDBRANCH  42  43
DOCKED: ENDBRANCH   4  42
DOCKED: TORSDOF 24
DOCKED: TER
DOCKED: ENDMDL
________________________________________________________________________________


	BEGINNING GENETIC ALGORITHM DOCKING 61 of 100
Run: 61 Seed: 1162955475 165698518 [ Run 61 of 100 GA/GALS ]
Beginning LAMARCKIAN GENETIC ALGORITHM (LGA), with a maximum of 25000000 energy evaluations.

Final-Value: -18.277


	FINAL GENETIC ALGORITHM DOCKED STATE
	_______________________________________________


Detailed state:  trans -12.793 -12.171 0.094 quatxyzw -0.901656 -0.281751 0.293227 0.147141 center 0.035 0.082 -0.065 ntor 24 120.2967 96.9525 -168.1333 -37.2193 159.8806 143.2539 -21.9250 -134.6713 -4.1170 119.0372 102.0756 -159.5479 166.2222 73.3115 -111.7017 -47.9441 -125.0816 142.3845 -5.0217 -42.3460 138.0694 10.8133 150.7678 -10.0760
State:	-12.793 -12.171   0.094  -0.912 -0.285  0.296 163.077    120.30   96.95 -168.13  -37.22  159.88  143.25  -21.92 -134.67   -4.12  119.04  102.08 -159.55  166.22   73.31 -111.70  -47.94 -125.08  142.38   -5.02  -42.35  138.07   10.81  150.77  -10.08

DOCKED: MODEL       61
DOCKED: USER    Run = 61
DOCKED: USER    DPF = D:/Protein_go_brrr/autodock/final/1A3N/IHP/dock.dpf
DOCKED: USER  
DOCKED: USER    Estimated Free Energy of Binding    =   +2.22 kcal/mol  [=(1)+(2)+(3)-(4)]
DOCKED: USER    
DOCKED: USER    (1) Final Intermolecular Energy     =   -4.94 kcal/mol
DOCKED: USER        vdW + Hbond + desolv Energy     =   -4.09 kcal/mol
DOCKED: USER        Electrostatic Energy            =   -0.85 kcal/mol
DOCKED: USER    (2) Final Total Internal Energy     =  -13.34 kcal/mol
DOCKED: USER    (3) Torsional Free Energy           =   +7.16 kcal/mol
DOCKED: USER    (4) Unbound System's Energy  [=(2)] =  -13.34 kcal/mol
DOCKED: USER    
DOCKED: USER    
DOCKED: USER    NEWDPF move IHP_ideal_opt.pdbqt
DOCKED: USER    NEWDPF about 0.035000 0.082000 -0.065000
DOCKED: USER    NEWDPF tran0 -12.793250 -12.170872 0.094394
DOCKED: USER    NEWDPF quaternion0 -0.901656 -0.281751 0.293227 0.147141
DOCKED: USER    NEWDPF axisangle0 -0.911578 -0.284851 0.296454 163.077420
DOCKED: USER    NEWDPF quat0 -0.911578 -0.284851 0.296454 163.077420
DOCKED: USER    NEWDPF dihe0 120.30 96.95 -168.13 -37.22 159.88 143.25 -21.92 -134.67 -4.12 119.04 102.08 -159.55 166.22 73.31 -111.70 -47.94 -125.08 142.38 -5.02 -42.35 138.07 10.81 150.77 -10.08 
DOCKED: USER  keepresnum = 1 
DOCKED: USER  
DOCKED: REMARK  24 active torsions:
DOCKED: REMARK  status: ('A' for Active; 'I' for Inactive)
DOCKED: REMARK    1  A    between atoms: C_1  and  O_7 
DOCKED: REMARK    2  A    between atoms: C_2  and  O_12 
DOCKED: REMARK    3  A    between atoms: C_3  and  O_17 
DOCKED: REMARK    4  A    between atoms: C_4  and  O_22 
DOCKED: REMARK    5  A    between atoms: C_5  and  O_27 
DOCKED: REMARK    6  A    between atoms: C_6  and  O_32 
DOCKED: REMARK    7  A    between atoms: O_7  and  P_8 
DOCKED: REMARK    8  A    between atoms: P_8  and  O_10 
DOCKED: REMARK    9  A    between atoms: P_8  and  O_11 
DOCKED: REMARK   10  A    between atoms: O_12  and  P_13 
DOCKED: REMARK   11  A    between atoms: P_13  and  O_15 
DOCKED: REMARK   12  A    between atoms: P_13  and  O_16 
DOCKED: REMARK   13  A    between atoms: O_17  and  P_18 
DOCKED: REMARK   14  A    between atoms: P_18  and  O_20 
DOCKED: REMARK   15  A    between atoms: P_18  and  O_21 
DOCKED: REMARK   16  A    between atoms: O_22  and  P_23 
DOCKED: REMARK   17  A    between atoms: P_23  and  O_25 
DOCKED: REMARK   18  A    between atoms: P_23  and  O_26 
DOCKED: REMARK   19  A    between atoms: O_27  and  P_28 
DOCKED: REMARK   20  A    between atoms: P_28  and  O_30 
DOCKED: REMARK   21  A    between atoms: P_28  and  O_31 
DOCKED: REMARK   22  A    between atoms: O_32  and  P_33 
DOCKED: REMARK   23  A    between atoms: P_33  and  O_35 
DOCKED: REMARK   24  A    between atoms: P_33  and  O_36 
DOCKED: USER                              x       y       z     vdW  Elec       q    Type
DOCKED: USER                           _______ _______ _______ _____ _____    ______ ____
DOCKED: ROOT
DOCKED: ATOM      1  C   UNL d   1     -12.835 -11.274  -1.382 -0.04 -0.07    +0.194 C 
DOCKED: ATOM      2  C   UNL d   1     -13.984 -11.000  -0.409 -0.04 -0.06    +0.194 C 
DOCKED: ATOM      3  C   UNL d   1     -14.526 -12.292   0.205 -0.00 -0.04    +0.194 C 
DOCKED: ATOM      4  C   UNL d   1     -13.439 -13.165   0.827 -0.01 -0.05    +0.194 C 
DOCKED: ATOM      5  C   UNL d   1     -12.222 -13.371  -0.065 -0.02 -0.08    +0.194 C 
DOCKED: ATOM      6  C   UNL d   1     -11.717 -12.088  -0.729 -0.05 -0.08    +0.194 C 
DOCKED: ENDROOT
DOCKED: BRANCH   1   7
DOCKED: ATOM      7  O   UNL d   1     -12.275 -10.019  -1.775 -0.11 +0.20    -0.278 OA
DOCKED: BRANCH   7   8
DOCKED: ATOM      8  P   UNL d   1     -12.123  -9.712  -3.336 -0.04 -0.31    +0.473 P 
DOCKED: ATOM      9  O   UNL d   1     -10.888  -8.974  -3.716 -0.22 +0.13    -0.228 OA
DOCKED: BRANCH   8  10
DOCKED: ATOM     10  O   UNL d   1     -12.236 -11.146  -4.025 -0.03 +0.06    -0.303 OA
DOCKED: ATOM     11  H   UNL d   1     -11.788 -11.812  -3.470 +0.04 -0.05    +0.222 HD
DOCKED: ENDBRANCH   8  10
DOCKED: BRANCH   8  12
DOCKED: ATOM     12  O   UNL d   1     -13.495  -9.032  -3.758 -0.13 +0.27    -0.303 OA
DOCKED: ATOM     13  H   UNL d   1     -13.743  -8.274  -3.182 -0.32 -0.45    +0.222 HD
DOCKED: ENDBRANCH   8  12
DOCKED: ENDBRANCH   7   8
DOCKED: ENDBRANCH   1   7
DOCKED: BRANCH   2  14
DOCKED: ATOM     14  O   UNL d   1     -13.510 -10.156   0.647 -0.10 +0.09    -0.278 OA
DOCKED: BRANCH  14  15
DOCKED: ATOM     15  P   UNL d   1     -13.623  -8.577   0.407 -0.17 -0.25    +0.473 P 
DOCKED: ATOM     16  O   UNL d   1     -14.281  -7.778   1.488 -0.57 +0.04    -0.228 OA
DOCKED: BRANCH  15  17
DOCKED: ATOM     17  O   UNL d   1     -12.123  -8.119   0.127 -0.01 +0.26    -0.303 OA
DOCKED: ATOM     18  H   UNL d   1     -11.943  -8.070  -0.831 -0.27 -0.44    +0.222 HD
DOCKED: ENDBRANCH  15  17
DOCKED: BRANCH  15  19
DOCKED: ATOM     19  O   UNL d   1     -14.273  -8.441  -1.038 -0.16 +0.30    -0.303 OA
DOCKED: ATOM     20  H   UNL d   1     -13.597  -8.299  -1.726 -0.19 -0.42    +0.222 HD
DOCKED: ENDBRANCH  15  19
DOCKED: ENDBRANCH  14  15
DOCKED: ENDBRANCH   2  14
DOCKED: BRANCH   6  21
DOCKED: ATOM     21  O   UNL d   1     -10.826 -12.484  -1.769 -0.03 +0.12    -0.278 OA
DOCKED: BRANCH  21  22
DOCKED: ATOM     22  P   UNL d   1     -11.125 -13.810  -2.605 +0.01 -0.16    +0.473 P 
DOCKED: ATOM     23  O   UNL d   1     -10.728 -15.121  -2.014 -0.03 +0.11    -0.228 OA
DOCKED: BRANCH  22  24
DOCKED: ATOM     24  O   UNL d   1     -12.680 -13.658  -2.909 +0.00 +0.06    -0.303 OA
DOCKED: ATOM     25  H   UNL d   1     -12.780 -13.226  -3.795 +0.01 -0.04    +0.222 HD
DOCKED: ENDBRANCH  22  24
DOCKED: BRANCH  22  26
DOCKED: ATOM     26  O   UNL d   1     -10.474 -13.453  -4.025 +0.00 +0.07    -0.303 OA
DOCKED: ATOM     27  H   UNL d   1     -10.537 -12.487  -4.175 +0.04 -0.04    +0.222 HD
DOCKED: ENDBRANCH  22  26
DOCKED: ENDBRANCH  21  22
DOCKED: ENDBRANCH   6  21
DOCKED: BRANCH   3  28
DOCKED: ATOM     28  O   UNL d   1     -15.380 -11.929   1.282 -0.00 +0.05    -0.278 OA
DOCKED: BRANCH  28  29
DOCKED: ATOM     29  P   UNL d   1     -16.907 -12.382   1.287 +0.00 -0.07    +0.473 P 
DOCKED: ATOM     30  O   UNL d   1     -17.794 -11.656   0.342 +0.00 +0.03    -0.228 OA
DOCKED: BRANCH  29  31
DOCKED: ATOM     31  O   UNL d   1     -16.732 -13.956   1.054 +0.00 +0.04    -0.303 OA
DOCKED: ATOM     32  H   UNL d   1     -15.871 -14.237   1.443 +0.00 -0.03    +0.222 HD
DOCKED: ENDBRANCH  29  31
DOCKED: BRANCH  29  33
DOCKED: ATOM     33  O   UNL d   1     -17.277 -12.295   2.833 -0.00 +0.04    -0.303 OA
DOCKED: ATOM     34  H   UNL d   1     -16.879 -13.068   3.303 +0.01 -0.03    +0.222 HD
DOCKED: ENDBRANCH  29  33
DOCKED: ENDBRANCH  28  29
DOCKED: ENDBRANCH   3  28
DOCKED: BRANCH   5  35
DOCKED: ATOM     35  O   UNL d   1     -11.184 -13.834   0.796 -0.07 +0.19    -0.278 OA
DOCKED: BRANCH  35  36
DOCKED: ATOM     36  P   UNL d   1     -10.387 -12.807   1.720 -0.09 -0.33    +0.473 P 
DOCKED: ATOM     37  O   UNL d   1      -9.294 -12.044   1.042 -0.37 +0.19    -0.228 OA
DOCKED: BRANCH  36  38
DOCKED: ATOM     38  O   UNL d   1     -11.564 -11.899   2.290 -0.55 +0.06    -0.303 OA
DOCKED: ATOM     39  H   UNL d   1     -11.878 -11.298   1.580 +0.09 -0.06    +0.222 HD
DOCKED: ENDBRANCH  36  38
DOCKED: BRANCH  36  40
DOCKED: ATOM     40  O   UNL d   1      -9.972 -13.716   2.958 -0.24 +0.30    -0.303 OA
DOCKED: ATOM     41  H   UNL d   1      -9.208 -14.297   2.744 -0.49 -0.44    +0.222 HD
DOCKED: ENDBRANCH  36  40
DOCKED: ENDBRANCH  35  36
DOCKED: ENDBRANCH   5  35
DOCKED: BRANCH   4  42
DOCKED: ATOM     42  O   UNL d   1     -14.020 -14.455   1.050 +0.00 +0.06    -0.278 OA
DOCKED: BRANCH  42  43
DOCKED: ATOM     43  P   UNL d   1     -14.053 -15.039   2.534 +0.01 -0.10    +0.473 P 
DOCKED: ATOM     44  O   UNL d   1     -14.492 -16.452   2.706 +0.00 +0.04    -0.228 OA
DOCKED: BRANCH  43  45
DOCKED: ATOM     45  O   UNL d   1     -12.578 -14.748   3.057 -0.01 +0.10    -0.303 OA
DOCKED: ATOM     46  H   UNL d   1     -12.196 -13.957   2.626 +0.05 -0.08    +0.222 HD
DOCKED: ENDBRANCH  43  45
DOCKED: BRANCH  43  47
DOCKED: ATOM     47  O   UNL d   1     -14.906 -13.947   3.339 +0.00 +0.05    -0.303 OA
DOCKED: ATOM     48  H   UNL d   1     -15.426 -13.412   2.705 +0.01 -0.04    +0.222 HD
DOCKED: ENDBRANCH  43  47
DOCKED: ENDBRANCH  42  43
DOCKED: ENDBRANCH   4  42
DOCKED: TORSDOF 24
DOCKED: TER
DOCKED: ENDMDL
________________________________________________________________________________


	BEGINNING GENETIC ALGORITHM DOCKING 62 of 100
Run: 62 Seed: 101375868 42329240 [ Run 62 of 100 GA/GALS ]
Beginning LAMARCKIAN GENETIC ALGORITHM (LGA), with a maximum of 25000000 energy evaluations.

Final-Value: -18.158


	FINAL GENETIC ALGORITHM DOCKED STATE
	_______________________________________________


Detailed state:  trans -9.610 24.312 14.112 quatxyzw -0.173115 -0.638581 -0.440806 -0.606576 center 0.035 0.082 -0.065 ntor 24 148.4003 73.0007 164.1782 -2.9830 10.4042 180.0000 69.8837 -84.5122 100.3041 3.8587 7.8849 -166.2088 144.3071 -169.1865 -51.2636 -117.3186 130.1214 -13.2423 43.8913 3.8235 -174.6390 3.2300 -5.7243 176.3888
State:	 -9.610  24.312  14.112  -0.218 -0.803 -0.554 -105.315    148.40   73.00  164.18   -2.98   10.40  180.00   69.88  -84.51  100.30    3.86    7.88 -166.21  144.31 -169.19  -51.26 -117.32  130.12  -13.24   43.89    3.82 -174.64    3.23   -5.72  176.39

DOCKED: MODEL       62
DOCKED: USER    Run = 62
DOCKED: USER    DPF = D:/Protein_go_brrr/autodock/final/1A3N/IHP/dock.dpf
DOCKED: USER  
DOCKED: USER    Estimated Free Energy of Binding    =   +3.85 kcal/mol  [=(1)+(2)+(3)-(4)]
DOCKED: USER    
DOCKED: USER    (1) Final Intermolecular Energy     =   -3.30 kcal/mol
DOCKED: USER        vdW + Hbond + desolv Energy     =   -3.35 kcal/mol
DOCKED: USER        Electrostatic Energy            =   +0.04 kcal/mol
DOCKED: USER    (2) Final Total Internal Energy     =  -14.85 kcal/mol
DOCKED: USER    (3) Torsional Free Energy           =   +7.16 kcal/mol
DOCKED: USER    (4) Unbound System's Energy  [=(2)] =  -14.85 kcal/mol
DOCKED: USER    
DOCKED: USER    
DOCKED: USER    NEWDPF move IHP_ideal_opt.pdbqt
DOCKED: USER    NEWDPF about 0.035000 0.082000 -0.065000
DOCKED: USER    NEWDPF tran0 -9.609989 24.311744 14.111790
DOCKED: USER    NEWDPF quaternion0 -0.173115 -0.638581 -0.440806 -0.606576
DOCKED: USER    NEWDPF axisangle0 -0.217748 -0.803222 -0.554456 -105.315260
DOCKED: USER    NEWDPF quat0 -0.217748 -0.803222 -0.554456 -105.315260
DOCKED: USER    NEWDPF dihe0 148.40 73.00 164.18 -2.98 10.40 180.00 69.88 -84.51 100.30 3.86 7.88 -166.21 144.31 -169.19 -51.26 -117.32 130.12 -13.24 43.89 3.82 -174.64 3.23 -5.72 176.39 
DOCKED: USER  keepresnum = 1 
DOCKED: USER  
DOCKED: REMARK  24 active torsions:
DOCKED: REMARK  status: ('A' for Active; 'I' for Inactive)
DOCKED: REMARK    1  A    between atoms: C_1  and  O_7 
DOCKED: REMARK    2  A    between atoms: C_2  and  O_12 
DOCKED: REMARK    3  A    between atoms: C_3  and  O_17 
DOCKED: REMARK    4  A    between atoms: C_4  and  O_22 
DOCKED: REMARK    5  A    between atoms: C_5  and  O_27 
DOCKED: REMARK    6  A    between atoms: C_6  and  O_32 
DOCKED: REMARK    7  A    between atoms: O_7  and  P_8 
DOCKED: REMARK    8  A    between atoms: P_8  and  O_10 
DOCKED: REMARK    9  A    between atoms: P_8  and  O_11 
DOCKED: REMARK   10  A    between atoms: O_12  and  P_13 
DOCKED: REMARK   11  A    between atoms: P_13  and  O_15 
DOCKED: REMARK   12  A    between atoms: P_13  and  O_16 
DOCKED: REMARK   13  A    between atoms: O_17  and  P_18 
DOCKED: REMARK   14  A    between atoms: P_18  and  O_20 
DOCKED: REMARK   15  A    between atoms: P_18  and  O_21 
DOCKED: REMARK   16  A    between atoms: O_22  and  P_23 
DOCKED: REMARK   17  A    between atoms: P_23  and  O_25 
DOCKED: REMARK   18  A    between atoms: P_23  and  O_26 
DOCKED: REMARK   19  A    between atoms: O_27  and  P_28 
DOCKED: REMARK   20  A    between atoms: P_28  and  O_30 
DOCKED: REMARK   21  A    between atoms: P_28  and  O_31 
DOCKED: REMARK   22  A    between atoms: O_32  and  P_33 
DOCKED: REMARK   23  A    between atoms: P_33  and  O_35 
DOCKED: REMARK   24  A    between atoms: P_33  and  O_36 
DOCKED: USER                              x       y       z     vdW  Elec       q    Type
DOCKED: USER                           _______ _______ _______ _____ _____    ______ ____
DOCKED: ROOT
DOCKED: ATOM      1  C   UNL d   1     -11.029  24.040  15.059 -0.18 -0.01    +0.194 C 
DOCKED: ATOM      2  C   UNL d   1     -11.152  23.703  13.572 -0.15 -0.01    +0.194 C 
DOCKED: ATOM      3  C   UNL d   1     -10.505  24.775  12.692 -0.10 -0.00    +0.194 C 
DOCKED: ATOM      4  C   UNL d   1      -9.067  25.095  13.094 -0.15 +0.00    +0.194 C 
DOCKED: ATOM      5  C   UNL d   1      -8.877  25.325  14.588 -0.20 +0.00    +0.194 C 
DOCKED: ATOM      6  C   UNL d   1      -9.577  24.288  15.469 -0.17 -0.00    +0.194 C 
DOCKED: ENDROOT
DOCKED: BRANCH   1   7
DOCKED: ATOM      7  O   UNL d   1     -11.499  22.919  15.811 -0.23 +0.01    -0.278 OA
DOCKED: BRANCH   7   8
DOCKED: ATOM      8  P   UNL d   1     -13.076  22.713  15.962 -0.13 +0.05    +0.473 P 
DOCKED: ATOM      9  O   UNL d   1     -13.489  21.772  17.038 -0.23 -0.07    -0.228 OA
DOCKED: BRANCH   8  10
DOCKED: ATOM     10  O   UNL d   1     -13.641  24.191  16.168 -0.02 -0.01    -0.303 OA
DOCKED: ATOM     11  H   UNL d   1     -12.898  24.809  16.301 +0.04 +0.00    +0.222 HD
DOCKED: ENDBRANCH   8  10
DOCKED: BRANCH   8  12
DOCKED: ATOM     12  O   UNL d   1     -13.588  22.363  14.499 -0.09 -0.02    -0.303 OA
DOCKED: ATOM     13  H   UNL d   1     -12.903  21.926  13.945 +0.07 -0.01    +0.222 HD
DOCKED: ENDBRANCH   8  12
DOCKED: ENDBRANCH   7   8
DOCKED: ENDBRANCH   1   7
DOCKED: BRANCH   2  14
DOCKED: ATOM     14  O   UNL d   1     -10.501  22.452  13.321 -0.23 +0.05    -0.278 OA
DOCKED: BRANCH  14  15
DOCKED: ATOM     15  P   UNL d   1     -11.284  21.411  12.390 -0.19 -0.12    +0.473 P 
DOCKED: ATOM     16  O   UNL d   1     -11.748  20.145  13.040 -0.30 +0.15    -0.228 OA
DOCKED: BRANCH  15  17
DOCKED: ATOM     17  O   UNL d   1     -12.481  22.264  11.777 -0.05 +0.05    -0.303 OA
DOCKED: ATOM     18  H   UNL d   1     -12.149  22.939  11.154 +0.05 -0.02    +0.222 HD
DOCKED: ENDBRANCH  15  17
DOCKED: BRANCH  15  19
DOCKED: ATOM     19  O   UNL d   1     -10.342  21.225  11.122 -0.19 +0.04    -0.303 OA
DOCKED: ATOM     20  H   UNL d   1     -10.229  22.060  10.631 +0.08 -0.01    +0.222 HD
DOCKED: ENDBRANCH  15  19
DOCKED: ENDBRANCH  14  15
DOCKED: ENDBRANCH   2  14
DOCKED: BRANCH   6  21
DOCKED: ATOM     21  O   UNL d   1      -9.600  24.819  16.792 -0.11 -0.01    -0.278 OA
DOCKED: BRANCH  21  22
DOCKED: ATOM     22  P   UNL d   1     -10.745  25.848  17.211 -0.05 -0.00    +0.473 P 
DOCKED: ATOM     23  O   UNL d   1     -11.458  26.589  16.131 -0.02 -0.00    -0.228 OA
DOCKED: BRANCH  22  24
DOCKED: ATOM     24  O   UNL d   1     -11.679  24.941  18.126 -0.08 +0.01    -0.303 OA
DOCKED: ATOM     25  H   UNL d   1     -11.950  24.147  17.598 +0.06 -0.01    +0.222 HD
DOCKED: ENDBRANCH  22  24
DOCKED: BRANCH  22  26
DOCKED: ATOM     26  O   UNL d   1      -9.989  26.749  18.301 -0.02 -0.00    -0.303 OA
DOCKED: ATOM     27  H   UNL d   1      -9.046  26.491  18.334 +0.04 +0.00    +0.222 HD
DOCKED: ENDBRANCH  22  26
DOCKED: ENDBRANCH  21  22
DOCKED: ENDBRANCH   6  21
DOCKED: BRANCH   3  28
DOCKED: ATOM     28  O   UNL d   1     -10.420  24.252  11.373 -0.08 +0.00    -0.278 OA
DOCKED: BRANCH  28  29
DOCKED: ATOM     29  P   UNL d   1     -11.271  24.902  10.194 -0.01 -0.01    +0.473 P 
DOCKED: ATOM     30  O   UNL d   1     -11.808  23.948   9.190 -0.02 +0.01    -0.228 OA
DOCKED: BRANCH  29  31
DOCKED: ATOM     31  O   UNL d   1     -12.339  25.736  11.047 -0.00 +0.00    -0.303 OA
DOCKED: ATOM     32  H   UNL d   1     -12.268  26.686  10.796 +0.01 -0.00    +0.222 HD
DOCKED: ENDBRANCH  29  31
DOCKED: BRANCH  29  33
DOCKED: ATOM     33  O   UNL d   1     -10.289  26.035   9.657 -0.02 +0.00    -0.303 OA
DOCKED: ATOM     34  H   UNL d   1      -9.677  26.301  10.387 +0.03 +0.00    +0.222 HD
DOCKED: ENDBRANCH  29  33
DOCKED: ENDBRANCH  28  29
DOCKED: ENDBRANCH   3  28
DOCKED: BRANCH   5  35
DOCKED: ATOM     35  O   UNL d   1      -7.476  25.200  14.824 -0.25 +0.01    -0.278 OA
DOCKED: BRANCH  35  36
DOCKED: ATOM     36  P   UNL d   1      -6.671  26.379  15.535 -0.13 +0.04    +0.473 P 
DOCKED: ATOM     37  O   UNL d   1      -5.238  26.086  15.845 -0.23 -0.04    -0.228 OA
DOCKED: BRANCH  36  38
DOCKED: ATOM     38  O   UNL d   1      -6.887  27.583  14.514 -0.06 -0.04    -0.303 OA
DOCKED: ATOM     39  H   UNL d   1      -7.753  27.472  14.066 +0.05 +0.02    +0.222 HD
DOCKED: ENDBRANCH  36  38
DOCKED: BRANCH  36  40
DOCKED: ATOM     40  O   UNL d   1      -7.616  26.744  16.762 -0.06 -0.02    -0.303 OA
DOCKED: ATOM     41  H   UNL d   1      -8.566  26.692  16.517 +0.05 +0.01    +0.222 HD
DOCKED: ENDBRANCH  36  40
DOCKED: ENDBRANCH  35  36
DOCKED: ENDBRANCH   5  35
DOCKED: BRANCH   4  42
DOCKED: ATOM     42  O   UNL d   1      -8.713  26.313  12.432 -0.07 -0.01    -0.278 OA
DOCKED: BRANCH  42  43
DOCKED: ATOM     43  P   UNL d   1      -9.478  27.656  12.826 -0.00 +0.02    +0.473 P 
DOCKED: ATOM     44  O   UNL d   1      -9.932  27.799  14.237 -0.01 -0.01    -0.228 OA
DOCKED: BRANCH  43  45
DOCKED: ATOM     45  O   UNL d   1      -8.465  28.788  12.350 -0.01 -0.02    -0.303 OA
DOCKED: ATOM     46  H   UNL d   1      -7.633  28.762  12.863 +0.03 +0.02    +0.222 HD
DOCKED: ENDBRANCH  43  45
DOCKED: BRANCH  43  47
DOCKED: ATOM     47  O   UNL d   1     -10.629  27.761  11.715 -0.00 -0.00    -0.303 OA
DOCKED: ATOM     48  H   UNL d   1     -10.694  26.909  11.236 +0.02 +0.00    +0.222 HD
DOCKED: ENDBRANCH  43  47
DOCKED: ENDBRANCH  42  43
DOCKED: ENDBRANCH   4  42
DOCKED: TORSDOF 24
DOCKED: TER
DOCKED: ENDMDL
________________________________________________________________________________


	BEGINNING GENETIC ALGORITHM DOCKING 63 of 100
Run: 63 Seed: 1330531850 2071379690 [ Run 63 of 100 GA/GALS ]
Beginning LAMARCKIAN GENETIC ALGORITHM (LGA), with a maximum of 25000000 energy evaluations.

Final-Value: -17.858


	FINAL GENETIC ALGORITHM DOCKED STATE
	_______________________________________________


Detailed state:  trans 4.429 16.523 -0.759 quatxyzw 0.965921 -0.144297 0.204206 0.066898 center 0.035 0.082 -0.065 ntor 24 -107.1275 17.8249 -162.4528 75.7105 13.9108 -179.7434 1.4689 -114.1540 2.2478 -75.3863 -7.3120 160.2160 49.7782 -22.8699 -56.7709 -81.4226 -43.1692 -147.2528 37.2366 -3.9157 -171.4222 27.1112 -177.6548 -12.7403
State:	  4.429  16.523  -0.759   0.968 -0.145  0.205 172.328   -107.13   17.82 -162.45   75.71   13.91 -179.74    1.47 -114.15    2.25  -75.39   -7.31  160.22   49.78  -22.87  -56.77  -81.42  -43.17 -147.25   37.24   -3.92 -171.42   27.11 -177.65  -12.74

DOCKED: MODEL       63
DOCKED: USER    Run = 63
DOCKED: USER    DPF = D:/Protein_go_brrr/autodock/final/1A3N/IHP/dock.dpf
DOCKED: USER  
DOCKED: USER    Estimated Free Energy of Binding    =   +2.18 kcal/mol  [=(1)+(2)+(3)-(4)]
DOCKED: USER    
DOCKED: USER    (1) Final Intermolecular Energy     =   -4.98 kcal/mol
DOCKED: USER        vdW + Hbond + desolv Energy     =   -4.77 kcal/mol
DOCKED: USER        Electrostatic Energy            =   -0.21 kcal/mol
DOCKED: USER    (2) Final Total Internal Energy     =  -12.88 kcal/mol
DOCKED: USER    (3) Torsional Free Energy           =   +7.16 kcal/mol
DOCKED: USER    (4) Unbound System's Energy  [=(2)] =  -12.88 kcal/mol
DOCKED: USER    
DOCKED: USER    
DOCKED: USER    NEWDPF move IHP_ideal_opt.pdbqt
DOCKED: USER    NEWDPF about 0.035000 0.082000 -0.065000
DOCKED: USER    NEWDPF tran0 4.428951 16.523206 -0.759258
DOCKED: USER    NEWDPF quaternion0 0.965921 -0.144297 0.204206 0.066898
DOCKED: USER    NEWDPF axisangle0 0.968090 -0.144621 0.204664 172.328340
DOCKED: USER    NEWDPF quat0 0.968090 -0.144621 0.204664 172.328340
DOCKED: USER    NEWDPF dihe0 -107.13 17.82 -162.45 75.71 13.91 -179.74 1.47 -114.15 2.25 -75.39 -7.31 160.22 49.78 -22.87 -56.77 -81.42 -43.17 -147.25 37.24 -3.92 -171.42 27.11 -177.65 -12.74 
DOCKED: USER  keepresnum = 1 
DOCKED: USER  
DOCKED: REMARK  24 active torsions:
DOCKED: REMARK  status: ('A' for Active; 'I' for Inactive)
DOCKED: REMARK    1  A    between atoms: C_1  and  O_7 
DOCKED: REMARK    2  A    between atoms: C_2  and  O_12 
DOCKED: REMARK    3  A    between atoms: C_3  and  O_17 
DOCKED: REMARK    4  A    between atoms: C_4  and  O_22 
DOCKED: REMARK    5  A    between atoms: C_5  and  O_27 
DOCKED: REMARK    6  A    between atoms: C_6  and  O_32 
DOCKED: REMARK    7  A    between atoms: O_7  and  P_8 
DOCKED: REMARK    8  A    between atoms: P_8  and  O_10 
DOCKED: REMARK    9  A    between atoms: P_8  and  O_11 
DOCKED: REMARK   10  A    between atoms: O_12  and  P_13 
DOCKED: REMARK   11  A    between atoms: P_13  and  O_15 
DOCKED: REMARK   12  A    between atoms: P_13  and  O_16 
DOCKED: REMARK   13  A    between atoms: O_17  and  P_18 
DOCKED: REMARK   14  A    between atoms: P_18  and  O_20 
DOCKED: REMARK   15  A    between atoms: P_18  and  O_21 
DOCKED: REMARK   16  A    between atoms: O_22  and  P_23 
DOCKED: REMARK   17  A    between atoms: P_23  and  O_25 
DOCKED: REMARK   18  A    between atoms: P_23  and  O_26 
DOCKED: REMARK   19  A    between atoms: O_27  and  P_28 
DOCKED: REMARK   20  A    between atoms: P_28  and  O_30 
DOCKED: REMARK   21  A    between atoms: P_28  and  O_31 
DOCKED: REMARK   22  A    between atoms: O_32  and  P_33 
DOCKED: REMARK   23  A    between atoms: P_33  and  O_35 
DOCKED: REMARK   24  A    between atoms: P_33  and  O_36 
DOCKED: USER                              x       y       z     vdW  Elec       q    Type
DOCKED: USER                           _______ _______ _______ _____ _____    ______ ____
DOCKED: ROOT
DOCKED: ATOM      1  C   UNL d   1       6.076  17.038  -0.840 -0.12 -0.07    +0.194 C 
DOCKED: ATOM      2  C   UNL d   1       5.033  18.158  -0.822 -0.04 -0.04    +0.194 C 
DOCKED: ATOM      3  C   UNL d   1       3.847  17.842  -1.735 -0.01 -0.02    +0.194 C 
DOCKED: ATOM      4  C   UNL d   1       3.228  16.472  -1.466 -0.04 -0.03    +0.194 C 
DOCKED: ATOM      5  C   UNL d   1       4.244  15.342  -1.361 -0.11 -0.04    +0.194 C 
DOCKED: ATOM      6  C   UNL d   1       5.461  15.681  -0.497 -0.18 -0.07    +0.194 C 
DOCKED: ENDROOT
DOCKED: BRANCH   1   7
DOCKED: ATOM      7  O   UNL d   1       7.057  17.326   0.159 -0.12 +0.19    -0.278 OA
DOCKED: BRANCH   7   8
DOCKED: ATOM      8  P   UNL d   1       8.272  18.290  -0.225 -0.11 -0.15    +0.473 P 
DOCKED: ATOM      9  O   UNL d   1       8.144  19.691   0.261 -0.08 +0.02    -0.228 OA
DOCKED: BRANCH   8  10
DOCKED: ATOM     10  O   UNL d   1       9.557  17.540   0.351 -0.24 +0.16    -0.303 OA
DOCKED: ATOM     11  H   UNL d   1       9.966  17.004  -0.354 -0.30 -0.14    +0.222 HD
DOCKED: ENDBRANCH   8  10
DOCKED: BRANCH   8  12
DOCKED: ATOM     12  O   UNL d   1       8.458  18.114  -1.793 -0.09 +0.05    -0.303 OA
DOCKED: ATOM     13  H   UNL d   1       8.164  17.234  -2.120 +0.08 -0.04    +0.222 HD
DOCKED: ENDBRANCH   8  12
DOCKED: ENDBRANCH   7   8
DOCKED: ENDBRANCH   1   7
DOCKED: BRANCH   2  14
DOCKED: ATOM     14  O   UNL d   1       4.548  18.322   0.516 -0.07 +0.08    -0.278 OA
DOCKED: BRANCH  14  15
DOCKED: ATOM     15  P   UNL d   1       4.595  19.806   1.117 -0.06 -0.04    +0.473 P 
DOCKED: ATOM     16  O   UNL d   1       4.395  20.930   0.149 -0.06 -0.01    -0.228 OA
DOCKED: BRANCH  15  17
DOCKED: ATOM     17  O   UNL d   1       3.503  19.789   2.277 -0.10 +0.08    -0.303 OA
DOCKED: ATOM     18  H   UNL d   1       3.924  19.707   3.155 -0.17 -0.12    +0.222 HD
DOCKED: ENDBRANCH  15  17
DOCKED: BRANCH  15  19
DOCKED: ATOM     19  O   UNL d   1       5.948  19.853   1.953 -0.18 -0.03    -0.303 OA
DOCKED: ATOM     20  H   UNL d   1       6.541  19.115   1.719 +0.03 -0.04    +0.222 HD
DOCKED: ENDBRANCH  15  19
DOCKED: ENDBRANCH  14  15
DOCKED: ENDBRANCH   2  14
DOCKED: BRANCH   6  21
DOCKED: ATOM     21  O   UNL d   1       6.450  14.692  -0.773 -0.25 +0.09    -0.278 OA
DOCKED: BRANCH  21  22
DOCKED: ATOM     22  P   UNL d   1       7.447  14.890  -2.003 -0.18 -0.13    +0.473 P 
DOCKED: ATOM     23  O   UNL d   1       6.988  15.719  -3.155 -0.09 +0.04    -0.228 OA
DOCKED: BRANCH  22  24
DOCKED: ATOM     24  O   UNL d   1       8.758  15.424  -1.277 -0.29 +0.15    -0.303 OA
DOCKED: ATOM     25  H   UNL d   1       8.504  16.194  -0.708 +0.04 -0.12    +0.222 HD
DOCKED: ENDBRANCH  22  24
DOCKED: BRANCH  22  26
DOCKED: ATOM     26  O   UNL d   1       7.850  13.376  -2.343 -0.25 +0.08    -0.303 OA
DOCKED: ATOM     27  H   UNL d   1       7.315  12.769  -1.790 -0.02 -0.06    +0.222 HD
DOCKED: ENDBRANCH  22  26
DOCKED: ENDBRANCH  21  22
DOCKED: ENDBRANCH   6  21
DOCKED: BRANCH   3  28
DOCKED: ATOM     28  O   UNL d   1       2.821  18.783  -1.446 -0.00 +0.02    -0.278 OA
DOCKED: BRANCH  28  29
DOCKED: ATOM     29  P   UNL d   1       1.988  19.453  -2.626 +0.00 -0.03    +0.473 P 
DOCKED: ATOM     30  O   UNL d   1       2.294  20.881  -2.897 -0.01 +0.00    -0.228 OA
DOCKED: BRANCH  29  31
DOCKED: ATOM     31  O   UNL d   1       2.285  18.411  -3.804 -0.02 +0.03    -0.303 OA
DOCKED: ATOM     32  H   UNL d   1       2.059  17.506  -3.487 +0.04 -0.03    +0.222 HD
DOCKED: ENDBRANCH  29  31
DOCKED: BRANCH  29  33
DOCKED: ATOM     33  O   UNL d   1       0.489  19.103  -2.217 -0.03 +0.01    -0.303 OA
DOCKED: ATOM     34  H   UNL d   1       0.408  18.125  -2.100 +0.05 -0.01    +0.222 HD
DOCKED: ENDBRANCH  29  33
DOCKED: ENDBRANCH  28  29
DOCKED: ENDBRANCH   3  28
DOCKED: BRANCH   5  35
DOCKED: ATOM     35  O   UNL d   1       3.561  14.266  -0.721 -0.16 +0.05    -0.278 OA
DOCKED: BRANCH  35  36
DOCKED: ATOM     36  P   UNL d   1       2.694  14.530   0.591 -0.13 -0.11    +0.473 P 
DOCKED: ATOM     37  O   UNL d   1       2.640  15.952   1.053 -0.10 +0.06    -0.228 OA
DOCKED: BRANCH  36  38
DOCKED: ATOM     38  O   UNL d   1       1.282  13.923   0.176 -0.23 +0.06    -0.303 OA
DOCKED: ATOM     39  H   UNL d   1       0.889  14.478  -0.532 +0.12 -0.02    +0.222 HD
DOCKED: ENDBRANCH  36  38
DOCKED: BRANCH  36  40
DOCKED: ATOM     40  O   UNL d   1       3.285  13.462   1.610 -0.29 +0.10    -0.303 OA
DOCKED: ATOM     41  H   UNL d   1       2.608  12.804   1.882 -0.37 -0.15    +0.222 HD
DOCKED: ENDBRANCH  36  40
DOCKED: ENDBRANCH  35  36
DOCKED: ENDBRANCH   5  35
DOCKED: BRANCH   4  42
DOCKED: ATOM     42  O   UNL d   1       2.380  16.174  -2.580 -0.05 +0.04    -0.278 OA
DOCKED: BRANCH  42  43
DOCKED: ATOM     43  P   UNL d   1       0.843  15.843  -2.312 -0.13 -0.04    +0.473 P 
DOCKED: ATOM     44  O   UNL d   1       0.434  14.411  -2.341 -0.30 +0.02    -0.228 OA
DOCKED: BRANCH  43  45
DOCKED: ATOM     45  O   UNL d   1       0.566  16.571  -0.924 -0.09 +0.02    -0.303 OA
DOCKED: ATOM     46  H   UNL d   1       0.885  16.037  -0.169 +0.10 -0.02    +0.222 HD
DOCKED: ENDBRANCH  43  45
DOCKED: BRANCH  43  47
DOCKED: ATOM     47  O   UNL d   1       0.076  16.802  -3.342 -0.22 +0.02    -0.303 OA
DOCKED: ATOM     48  H   UNL d   1       0.669  17.537  -3.600 +0.04 -0.03    +0.222 HD
DOCKED: ENDBRANCH  43  47
DOCKED: ENDBRANCH  42  43
DOCKED: ENDBRANCH   4  42
DOCKED: TORSDOF 24
DOCKED: TER
DOCKED: ENDMDL
________________________________________________________________________________


	BEGINNING GENETIC ALGORITHM DOCKING 64 of 100
Run: 64 Seed: 1233089060 876332054 [ Run 64 of 100 GA/GALS ]
Beginning LAMARCKIAN GENETIC ALGORITHM (LGA), with a maximum of 25000000 energy evaluations.

Final-Value: -14.659


	FINAL GENETIC ALGORITHM DOCKED STATE
	_______________________________________________


Detailed state:  trans 19.044 -16.806 38.131 quatxyzw 0.106380 0.477745 -0.014663 -0.871911 center 0.035 0.082 -0.065 ntor 24 10.9340 102.5607 -169.9216 138.2666 10.8342 -113.9697 164.9173 -23.6288 -1.2974 84.1739 124.4140 137.5239 129.8288 -12.1470 -71.4947 -138.0775 -33.5742 99.9510 39.4909 -24.8599 0.2504 15.9257 172.3743 -20.9582
State:	 19.044 -16.806  38.131   0.217  0.976 -0.030 -58.637     10.93  102.56 -169.92  138.27   10.83 -113.97  164.92  -23.63   -1.30   84.17  124.41  137.52  129.83  -12.15  -71.49 -138.08  -33.57   99.95   39.49  -24.86    0.25   15.93  172.37  -20.96

DOCKED: MODEL       64
DOCKED: USER    Run = 64
DOCKED: USER    DPF = D:/Protein_go_brrr/autodock/final/1A3N/IHP/dock.dpf
DOCKED: USER  
DOCKED: USER    Estimated Free Energy of Binding    =   +4.90 kcal/mol  [=(1)+(2)+(3)-(4)]
DOCKED: USER    
DOCKED: USER    (1) Final Intermolecular Energy     =   -2.26 kcal/mol
DOCKED: USER        vdW + Hbond + desolv Energy     =   -2.20 kcal/mol
DOCKED: USER        Electrostatic Energy            =   -0.05 kcal/mol
DOCKED: USER    (2) Final Total Internal Energy     =  -12.40 kcal/mol
DOCKED: USER    (3) Torsional Free Energy           =   +7.16 kcal/mol
DOCKED: USER    (4) Unbound System's Energy  [=(2)] =  -12.40 kcal/mol
DOCKED: USER    
DOCKED: USER    
DOCKED: USER    NEWDPF move IHP_ideal_opt.pdbqt
DOCKED: USER    NEWDPF about 0.035000 0.082000 -0.065000
DOCKED: USER    NEWDPF tran0 19.044459 -16.806146 38.130916
DOCKED: USER    NEWDPF quaternion0 0.106380 0.477745 -0.014663 -0.871911
DOCKED: USER    NEWDPF axisangle0 0.217250 0.975657 -0.029944 -58.637131
DOCKED: USER    NEWDPF quat0 0.217250 0.975657 -0.029944 -58.637131
DOCKED: USER    NEWDPF dihe0 10.93 102.56 -169.92 138.27 10.83 -113.97 164.92 -23.63 -1.30 84.17 124.41 137.52 129.83 -12.15 -71.49 -138.08 -33.57 99.95 39.49 -24.86 0.25 15.93 172.37 -20.96 
DOCKED: USER  keepresnum = 1 
DOCKED: USER  
DOCKED: REMARK  24 active torsions:
DOCKED: REMARK  status: ('A' for Active; 'I' for Inactive)
DOCKED: REMARK    1  A    between atoms: C_1  and  O_7 
DOCKED: REMARK    2  A    between atoms: C_2  and  O_12 
DOCKED: REMARK    3  A    between atoms: C_3  and  O_17 
DOCKED: REMARK    4  A    between atoms: C_4  and  O_22 
DOCKED: REMARK    5  A    between atoms: C_5  and  O_27 
DOCKED: REMARK    6  A    between atoms: C_6  and  O_32 
DOCKED: REMARK    7  A    between atoms: O_7  and  P_8 
DOCKED: REMARK    8  A    between atoms: P_8  and  O_10 
DOCKED: REMARK    9  A    between atoms: P_8  and  O_11 
DOCKED: REMARK   10  A    between atoms: O_12  and  P_13 
DOCKED: REMARK   11  A    between atoms: P_13  and  O_15 
DOCKED: REMARK   12  A    between atoms: P_13  and  O_16 
DOCKED: REMARK   13  A    between atoms: O_17  and  P_18 
DOCKED: REMARK   14  A    between atoms: P_18  and  O_20 
DOCKED: REMARK   15  A    between atoms: P_18  and  O_21 
DOCKED: REMARK   16  A    between atoms: O_22  and  P_23 
DOCKED: REMARK   17  A    between atoms: P_23  and  O_25 
DOCKED: REMARK   18  A    between atoms: P_23  and  O_26 
DOCKED: REMARK   19  A    between atoms: O_27  and  P_28 
DOCKED: REMARK   20  A    between atoms: P_28  and  O_30 
DOCKED: REMARK   21  A    between atoms: P_28  and  O_31 
DOCKED: REMARK   22  A    between atoms: O_32  and  P_33 
DOCKED: REMARK   23  A    between atoms: P_33  and  O_35 
DOCKED: REMARK   24  A    between atoms: P_33  and  O_36 
DOCKED: USER                              x       y       z     vdW  Elec       q    Type
DOCKED: USER                           _______ _______ _______ _____ _____    ______ ____
DOCKED: ROOT
DOCKED: ATOM      1  C   UNL d   1      20.269 -17.736  37.343 -0.05 -0.00    +0.194 C 
DOCKED: ATOM      2  C   UNL d   1      19.182 -18.543  38.056 -0.04 -0.01    +0.194 C 
DOCKED: ATOM      3  C   UNL d   1      18.845 -17.951  39.427 -0.02 -0.00    +0.194 C 
DOCKED: ATOM      4  C   UNL d   1      18.517 -16.461  39.374 -0.03 -0.00    +0.194 C 
DOCKED: ATOM      5  C   UNL d   1      19.515 -15.634  38.574 -0.05 +0.00    +0.194 C 
DOCKED: ATOM      6  C   UNL d   1      19.899 -16.257  37.230 -0.08 +0.00    +0.194 C 
DOCKED: ENDROOT
DOCKED: BRANCH   1   7
DOCKED: ATOM      7  O   UNL d   1      20.401 -18.245  36.013 -0.07 +0.00    -0.278 OA
DOCKED: BRANCH   7   8
DOCKED: ATOM      8  P   UNL d   1      21.314 -19.535  35.782 -0.01 -0.02    +0.473 P 
DOCKED: ATOM      9  O   UNL d   1      21.428 -19.982  34.367 -0.03 +0.01    -0.228 OA
DOCKED: BRANCH   8  10
DOCKED: ATOM     10  O   UNL d   1      22.716 -19.139  36.430 -0.00 +0.01    -0.303 OA
DOCKED: ATOM     11  H   UNL d   1      23.439 -19.561  35.929 +0.01 -0.01    +0.222 HD
DOCKED: ENDBRANCH   8  10
DOCKED: BRANCH   8  12
DOCKED: ATOM     12  O   UNL d   1      20.767 -20.617  36.809 -0.01 +0.01    -0.303 OA
DOCKED: ATOM     13  H   UNL d   1      19.810 -20.813  36.689 +0.01 -0.01    +0.222 HD
DOCKED: ENDBRANCH   8  12
DOCKED: ENDBRANCH   7   8
DOCKED: ENDBRANCH   1   7
DOCKED: BRANCH   2  14
DOCKED: ATOM     14  O   UNL d   1      17.995 -18.540  37.253 -0.05 +0.02    -0.278 OA
DOCKED: BRANCH  14  15
DOCKED: ATOM     15  P   UNL d   1      17.638 -19.907  36.499 -0.04 -0.06    +0.473 P 
DOCKED: ATOM     16  O   UNL d   1      17.788 -21.169  37.289 -0.02 +0.02    -0.228 OA
DOCKED: BRANCH  15  17
DOCKED: ATOM     17  O   UNL d   1      16.151 -19.682  35.973 -0.08 +0.08    -0.303 OA
DOCKED: ATOM     18  H   UNL d   1      16.150 -19.352  35.053 -0.43 -0.13    +0.222 HD
DOCKED: ENDBRANCH  15  17
DOCKED: BRANCH  15  19
DOCKED: ATOM     19  O   UNL d   1      18.470 -19.842  35.145 -0.08 +0.06    -0.303 OA
DOCKED: ATOM     20  H   UNL d   1      19.408 -20.067  35.287 +0.02 -0.02    +0.222 HD
DOCKED: ENDBRANCH  15  19
DOCKED: ENDBRANCH  14  15
DOCKED: ENDBRANCH   2  14
DOCKED: BRANCH   6  21
DOCKED: ATOM     21  O   UNL d   1      21.061 -15.568  36.774 -0.06 -0.01    -0.278 OA
DOCKED: BRANCH  21  22
DOCKED: ATOM     22  P   UNL d   1      20.927 -14.453  35.642 -0.17 +0.03    +0.473 P 
DOCKED: ATOM     23  O   UNL d   1      20.013 -14.720  34.494 -0.36 -0.01    -0.228 OA
DOCKED: BRANCH  22  24
DOCKED: ATOM     24  O   UNL d   1      20.564 -13.161  36.498 -0.15 -0.02    -0.303 OA
DOCKED: ATOM     25  H   UNL d   1      19.761 -13.368  37.041 +0.07 +0.01    +0.222 HD
DOCKED: ENDBRANCH  22  24
DOCKED: BRANCH  22  26
DOCKED: ATOM     26  O   UNL d   1      22.463 -14.182  35.269 -0.10 -0.02    -0.303 OA
DOCKED: ATOM     27  H   UNL d   1      22.814 -14.950  34.774 +0.05 +0.01    +0.222 HD
DOCKED: ENDBRANCH  22  26
DOCKED: ENDBRANCH  21  22
DOCKED: ENDBRANCH   6  21
DOCKED: BRANCH   3  28
DOCKED: ATOM     28  O   UNL d   1      17.657 -18.584  39.886 -0.01 +0.01    -0.278 OA
DOCKED: BRANCH  28  29
DOCKED: ATOM     29  P   UNL d   1      17.617 -19.278  41.318 -0.00 -0.01    +0.473 P 
DOCKED: ATOM     30  O   UNL d   1      16.483 -20.210  41.547 -0.00 +0.00    -0.228 OA
DOCKED: BRANCH  29  31
DOCKED: ATOM     31  O   UNL d   1      19.090 -19.902  41.367 -0.00 +0.00    -0.303 OA
DOCKED: ATOM     32  H   UNL d   1      19.048 -20.773  41.825 +0.00 -0.00    +0.222 HD
DOCKED: ENDBRANCH  29  31
DOCKED: BRANCH  29  33
DOCKED: ATOM     33  O   UNL d   1      17.731 -18.029  42.299 -0.00 -0.00    -0.303 OA
DOCKED: ATOM     34  H   UNL d   1      17.245 -17.265  41.903 +0.00 +0.00    +0.222 HD
DOCKED: ENDBRANCH  29  33
DOCKED: ENDBRANCH  28  29
DOCKED: ENDBRANCH   3  28
DOCKED: BRANCH   5  35
DOCKED: ATOM     35  O   UNL d   1      18.856 -14.400  38.292 -0.08 -0.01    -0.278 OA
DOCKED: BRANCH  35  36
DOCKED: ATOM     36  P   UNL d   1      17.461 -14.391  37.520 -0.11 -0.01    +0.473 P 
DOCKED: ATOM     37  O   UNL d   1      16.805 -15.726  37.356 -0.03 +0.02    -0.228 OA
DOCKED: BRANCH  36  38
DOCKED: ATOM     38  O   UNL d   1      16.619 -13.349  38.380 -0.11 -0.01    -0.303 OA
DOCKED: ATOM     39  H   UNL d   1      16.394 -13.755  39.245 +0.05 +0.01    +0.222 HD
DOCKED: ENDBRANCH  36  38
DOCKED: BRANCH  36  40
DOCKED: ATOM     40  O   UNL d   1      17.814 -13.593  36.190 -0.26 +0.01    -0.303 OA
DOCKED: ATOM     41  H   UNL d   1      18.680 -13.870  35.818 +0.09 -0.00    +0.222 HD
DOCKED: ENDBRANCH  36  40
DOCKED: ENDBRANCH  35  36
DOCKED: ENDBRANCH   5  35
DOCKED: BRANCH   4  42
DOCKED: ATOM     42  O   UNL d   1      18.557 -15.980  40.722 -0.01 -0.01    -0.278 OA
DOCKED: BRANCH  42  43
DOCKED: ATOM     43  P   UNL d   1      17.352 -15.081  41.256 -0.01 +0.02    +0.473 P 
DOCKED: ATOM     44  O   UNL d   1      16.967 -15.227  42.687 -0.00 -0.01    -0.228 OA
DOCKED: BRANCH  43  45
DOCKED: ATOM     45  O   UNL d   1      17.809 -13.611  40.852 -0.02 -0.02    -0.303 OA
DOCKED: ATOM     46  H   UNL d   1      18.059 -13.560  39.908 +0.03 +0.01    +0.222 HD
DOCKED: ENDBRANCH  43  45
DOCKED: BRANCH  43  47
DOCKED: ATOM     47  O   UNL d   1      16.186 -15.362  40.193 -0.01 -0.00    -0.303 OA
DOCKED: ATOM     48  H   UNL d   1      16.563 -15.349  39.289 +0.03 -0.00    +0.222 HD
DOCKED: ENDBRANCH  43  47
DOCKED: ENDBRANCH  42  43
DOCKED: ENDBRANCH   4  42
DOCKED: TORSDOF 24
DOCKED: TER
DOCKED: ENDMDL
________________________________________________________________________________


	BEGINNING GENETIC ALGORITHM DOCKING 65 of 100
Run: 65 Seed: 987654223 383822099 [ Run 65 of 100 GA/GALS ]
Beginning LAMARCKIAN GENETIC ALGORITHM (LGA), with a maximum of 25000000 energy evaluations.

Final-Value: -16.143


	FINAL GENETIC ALGORITHM DOCKED STATE
	_______________________________________________


Detailed state:  trans 42.391 20.391 8.307 quatxyzw -0.144541 -0.827367 -0.461055 0.286357 center 0.035 0.082 -0.065 ntor 24 -155.8295 -54.6954 36.9093 -30.0472 53.4849 -133.9255 -146.6867 40.1456 77.5641 117.8311 -79.0871 175.2831 88.9521 -55.9953 65.6748 74.4769 46.5022 166.0073 -44.9768 -3.7508 25.9100 153.9130 -172.4083 -172.7842
State:	 42.391  20.391   8.307  -0.151 -0.864 -0.481 146.720   -155.83  -54.70   36.91  -30.05   53.48 -133.93 -146.69   40.15   77.56  117.83  -79.09  175.28   88.95  -56.00   65.67   74.48   46.50  166.01  -44.98   -3.75   25.91  153.91 -172.41 -172.78

DOCKED: MODEL       65
DOCKED: USER    Run = 65
DOCKED: USER    DPF = D:/Protein_go_brrr/autodock/final/1A3N/IHP/dock.dpf
DOCKED: USER  
DOCKED: USER    Estimated Free Energy of Binding    =   +3.74 kcal/mol  [=(1)+(2)+(3)-(4)]
DOCKED: USER    
DOCKED: USER    (1) Final Intermolecular Energy     =   -3.42 kcal/mol
DOCKED: USER        vdW + Hbond + desolv Energy     =   -3.25 kcal/mol
DOCKED: USER        Electrostatic Energy            =   -0.17 kcal/mol
DOCKED: USER    (2) Final Total Internal Energy     =  -12.73 kcal/mol
DOCKED: USER    (3) Torsional Free Energy           =   +7.16 kcal/mol
DOCKED: USER    (4) Unbound System's Energy  [=(2)] =  -12.73 kcal/mol
DOCKED: USER    
DOCKED: USER    
DOCKED: USER    NEWDPF move IHP_ideal_opt.pdbqt
DOCKED: USER    NEWDPF about 0.035000 0.082000 -0.065000
DOCKED: USER    NEWDPF tran0 42.390698 20.390948 8.306755
DOCKED: USER    NEWDPF quaternion0 -0.144541 -0.827367 -0.461055 0.286357
DOCKED: USER    NEWDPF axisangle0 -0.150858 -0.863529 -0.481206 146.720005
DOCKED: USER    NEWDPF quat0 -0.150858 -0.863529 -0.481206 146.720005
DOCKED: USER    NEWDPF dihe0 -155.83 -54.70 36.91 -30.05 53.48 -133.93 -146.69 40.15 77.56 117.83 -79.09 175.28 88.95 -56.00 65.67 74.48 46.50 166.01 -44.98 -3.75 25.91 153.91 -172.41 -172.78 
DOCKED: USER  keepresnum = 1 
DOCKED: USER  
DOCKED: REMARK  24 active torsions:
DOCKED: REMARK  status: ('A' for Active; 'I' for Inactive)
DOCKED: REMARK    1  A    between atoms: C_1  and  O_7 
DOCKED: REMARK    2  A    between atoms: C_2  and  O_12 
DOCKED: REMARK    3  A    between atoms: C_3  and  O_17 
DOCKED: REMARK    4  A    between atoms: C_4  and  O_22 
DOCKED: REMARK    5  A    between atoms: C_5  and  O_27 
DOCKED: REMARK    6  A    between atoms: C_6  and  O_32 
DOCKED: REMARK    7  A    between atoms: O_7  and  P_8 
DOCKED: REMARK    8  A    between atoms: P_8  and  O_10 
DOCKED: REMARK    9  A    between atoms: P_8  and  O_11 
DOCKED: REMARK   10  A    between atoms: O_12  and  P_13 
DOCKED: REMARK   11  A    between atoms: P_13  and  O_15 
DOCKED: REMARK   12  A    between atoms: P_13  and  O_16 
DOCKED: REMARK   13  A    between atoms: O_17  and  P_18 
DOCKED: REMARK   14  A    between atoms: P_18  and  O_20 
DOCKED: REMARK   15  A    between atoms: P_18  and  O_21 
DOCKED: REMARK   16  A    between atoms: O_22  and  P_23 
DOCKED: REMARK   17  A    between atoms: P_23  and  O_25 
DOCKED: REMARK   18  A    between atoms: P_23  and  O_26 
DOCKED: REMARK   19  A    between atoms: O_27  and  P_28 
DOCKED: REMARK   20  A    between atoms: P_28  and  O_30 
DOCKED: REMARK   21  A    between atoms: P_28  and  O_31 
DOCKED: REMARK   22  A    between atoms: O_32  and  P_33 
DOCKED: REMARK   23  A    between atoms: P_33  and  O_35 
DOCKED: REMARK   24  A    between atoms: P_33  and  O_36 
DOCKED: USER                              x       y       z     vdW  Elec       q    Type
DOCKED: USER                           _______ _______ _______ _____ _____    ______ ____
DOCKED: ROOT
DOCKED: ATOM      1  C   UNL d   1      41.898  21.086   6.804 -0.04 +0.04    +0.194 C 
DOCKED: ATOM      2  C   UNL d   1      42.685  19.779   6.701 -0.04 +0.02    +0.194 C 
DOCKED: ATOM      3  C   UNL d   1      43.877  19.758   7.659 -0.02 +0.01    +0.194 C 
DOCKED: ATOM      4  C   UNL d   1      43.497  20.090   9.100 -0.04 +0.01    +0.194 C 
DOCKED: ATOM      5  C   UNL d   1      42.614  21.324   9.240 -0.03 +0.03    +0.194 C 
DOCKED: ATOM      6  C   UNL d   1      41.457  21.375   8.240 -0.08 +0.05    +0.194 C 
DOCKED: ENDROOT
DOCKED: BRANCH   1   7
DOCKED: ATOM      7  O   UNL d   1      40.714  20.958   6.013 -0.06 -0.08    -0.278 OA
DOCKED: BRANCH   7   8
DOCKED: ATOM      8  P   UNL d   1      39.865  22.274   5.699 -0.06 +0.19    +0.473 P 
DOCKED: ATOM      9  O   UNL d   1      39.309  22.352   4.320 -0.05 -0.06    -0.228 OA
DOCKED: BRANCH   8  10
DOCKED: ATOM     10  O   UNL d   1      38.741  22.288   6.831 -0.38 -0.38    -0.303 OA
DOCKED: ATOM     11  H   UNL d   1      39.148  22.107   7.698 +0.04 +0.26    +0.222 HD
DOCKED: ENDBRANCH   8  10
DOCKED: BRANCH   8  12
DOCKED: ATOM     12  O   UNL d   1      40.797  23.482   6.140 -0.01 -0.08    -0.303 OA
DOCKED: ATOM     13  H   UNL d   1      40.564  23.846   7.024 +0.02 +0.08    +0.222 HD
DOCKED: ENDBRANCH   8  12
DOCKED: ENDBRANCH   7   8
DOCKED: ENDBRANCH   1   7
DOCKED: BRANCH   2  14
DOCKED: ATOM     14  O   UNL d   1      41.818  18.685   7.027 -0.12 -0.03    -0.278 OA
DOCKED: BRANCH  14  15
DOCKED: ATOM     15  P   UNL d   1      41.752  17.484   5.969 -0.13 +0.01    +0.473 P 
DOCKED: ATOM     16  O   UNL d   1      42.593  17.626   4.738 -0.07 -0.01    -0.228 OA
DOCKED: BRANCH  15  17
DOCKED: ATOM     17  O   UNL d   1      42.124  16.193   6.825 -0.22 +0.03    -0.303 OA
DOCKED: ATOM     18  H   UNL d   1      43.007  16.282   7.231 +0.07 -0.01    +0.222 HD
DOCKED: ENDBRANCH  15  17
DOCKED: BRANCH  15  19
DOCKED: ATOM     19  O   UNL d   1      40.198  17.263   5.716 -0.24 -0.01    -0.303 OA
DOCKED: ATOM     20  H   UNL d   1      39.819  16.618   6.341 -0.37 -0.03    +0.222 HD
DOCKED: ENDBRANCH  15  19
DOCKED: ENDBRANCH  14  15
DOCKED: ENDBRANCH   2  14
DOCKED: BRANCH   6  21
DOCKED: ATOM     21  O   UNL d   1      40.951  22.707   8.262 -0.04 -0.10    -0.278 OA
DOCKED: BRANCH  21  22
DOCKED: ATOM     22  P   UNL d   1      40.032  23.185   9.475 -0.06 +0.24    +0.473 P 
DOCKED: ATOM     23  O   UNL d   1      40.679  23.910  10.607 -0.02 -0.05    -0.228 OA
DOCKED: BRANCH  22  24
DOCKED: ATOM     24  O   UNL d   1      38.896  24.005   8.720 -0.39 -0.30    -0.303 OA
DOCKED: ATOM     25  H   UNL d   1      39.193  24.153   7.786 +0.02 +0.17    +0.222 HD
DOCKED: ENDBRANCH  22  24
DOCKED: BRANCH  22  26
DOCKED: ATOM     26  O   UNL d   1      39.265  21.829   9.855 -0.08 -0.22    -0.303 OA
DOCKED: ATOM     27  H   UNL d   1      39.920  21.115   9.987 +0.07 +0.10    +0.222 HD
DOCKED: ENDBRANCH  22  26
DOCKED: ENDBRANCH  21  22
DOCKED: ENDBRANCH   6  21
DOCKED: BRANCH   3  28
DOCKED: ATOM     28  O   UNL d   1      44.373  18.426   7.698 -0.02 -0.01    -0.278 OA
DOCKED: BRANCH  28  29
DOCKED: ATOM     29  P   UNL d   1      43.904  17.426   8.845 -0.08 +0.01    +0.473 P 
DOCKED: ATOM     30  O   UNL d   1      42.438  17.360   9.078 -0.25 -0.01    -0.228 OA
DOCKED: BRANCH  29  31
DOCKED: ATOM     31  O   UNL d   1      44.623  16.082   8.356 -0.09 +0.00    -0.303 OA
DOCKED: ATOM     32  H   UNL d   1      43.980  15.558   7.825 +0.08 -0.01    +0.222 HD
DOCKED: ENDBRANCH  29  31
DOCKED: BRANCH  29  33
DOCKED: ATOM     33  O   UNL d   1      44.808  17.880  10.075 -0.03 -0.01    -0.303 OA
DOCKED: ATOM     34  H   UNL d   1      44.275  18.467  10.665 +0.04 +0.01    +0.222 HD
DOCKED: ENDBRANCH  29  33
DOCKED: ENDBRANCH  28  29
DOCKED: ENDBRANCH   3  28
DOCKED: BRANCH   5  35
DOCKED: ATOM     35  O   UNL d   1      42.040  21.243  10.543 -0.04 -0.04    -0.278 OA
DOCKED: BRANCH  35  36
DOCKED: ATOM     36  P   UNL d   1      41.506  19.848  11.102 -0.15 +0.06    +0.473 P 
DOCKED: ATOM     37  O   UNL d   1      42.502  19.036  11.866 -0.13 -0.01    -0.228 OA
DOCKED: BRANCH  36  38
DOCKED: ATOM     38  O   UNL d   1      40.239  20.301  11.953 -0.23 -0.05    -0.303 OA
DOCKED: ATOM     39  H   UNL d   1      40.075  21.257  11.801 +0.07 +0.04    +0.222 HD
DOCKED: ENDBRANCH  36  38
DOCKED: BRANCH  36  40
DOCKED: ATOM     40  O   UNL d   1      40.875  19.181   9.803 -0.15 -0.06    -0.303 OA
DOCKED: ATOM     41  H   UNL d   1      41.568  18.829   9.201 +0.08 +0.03    +0.222 HD
DOCKED: ENDBRANCH  36  40
DOCKED: ENDBRANCH  35  36
DOCKED: ENDBRANCH   5  35
DOCKED: BRANCH   4  42
DOCKED: ATOM     42  O   UNL d   1      44.716  20.363   9.799 -0.01 -0.01    -0.278 OA
DOCKED: BRANCH  42  43
DOCKED: ATOM     43  P   UNL d   1      45.442  21.764   9.564 -0.00 +0.02    +0.473 P 
DOCKED: ATOM     44  O   UNL d   1      46.929  21.791   9.656 +0.00 -0.00    -0.228 OA
DOCKED: BRANCH  43  45
DOCKED: ATOM     45  O   UNL d   1      44.869  22.222   8.152 +0.00 -0.02    -0.303 OA
DOCKED: ATOM     46  H   UNL d   1      45.502  22.798   7.679 +0.00 +0.01    +0.222 HD
DOCKED: ENDBRANCH  43  45
DOCKED: BRANCH  43  47
DOCKED: ATOM     47  O   UNL d   1      44.670  22.749  10.565 -0.00 -0.01    -0.303 OA
DOCKED: ATOM     48  H   UNL d   1      43.919  22.270  10.973 +0.01 +0.01    +0.222 HD
DOCKED: ENDBRANCH  43  47
DOCKED: ENDBRANCH  42  43
DOCKED: ENDBRANCH   4  42
DOCKED: TORSDOF 24
DOCKED: TER
DOCKED: ENDMDL
________________________________________________________________________________


	BEGINNING GENETIC ALGORITHM DOCKING 66 of 100
Run: 66 Seed: 1178638823 2090669283 [ Run 66 of 100 GA/GALS ]
Beginning LAMARCKIAN GENETIC ALGORITHM (LGA), with a maximum of 25000000 energy evaluations.

Final-Value: -19.649


	FINAL GENETIC ALGORITHM DOCKED STATE
	_______________________________________________


Detailed state:  trans 12.516 -9.855 -12.747 quatxyzw 0.461051 -0.866852 -0.077445 0.173208 center 0.035 0.082 -0.065 ntor 24 -10.9304 18.7253 163.2315 4.9669 109.2849 118.6578 -13.6812 -129.5469 99.7443 -39.4205 9.6307 -128.7255 7.9423 178.4365 -130.1090 110.1146 -142.5261 -55.9457 -1.1445 11.4429 -4.6156 3.5795 -6.5663 177.5018
State:	 12.516  -9.855 -12.747   0.468 -0.880 -0.079 160.051    -10.93   18.73  163.23    4.97  109.28  118.66  -13.68 -129.55   99.74  -39.42    9.63 -128.73    7.94  178.44 -130.11  110.11 -142.53  -55.95   -1.14   11.44   -4.62    3.58   -6.57  177.50

DOCKED: MODEL       66
DOCKED: USER    Run = 66
DOCKED: USER    DPF = D:/Protein_go_brrr/autodock/final/1A3N/IHP/dock.dpf
DOCKED: USER  
DOCKED: USER    Estimated Free Energy of Binding    =   +2.29 kcal/mol  [=(1)+(2)+(3)-(4)]
DOCKED: USER    
DOCKED: USER    (1) Final Intermolecular Energy     =   -4.86 kcal/mol
DOCKED: USER        vdW + Hbond + desolv Energy     =   -4.58 kcal/mol
DOCKED: USER        Electrostatic Energy            =   -0.29 kcal/mol
DOCKED: USER    (2) Final Total Internal Energy     =  -14.78 kcal/mol
DOCKED: USER    (3) Torsional Free Energy           =   +7.16 kcal/mol
DOCKED: USER    (4) Unbound System's Energy  [=(2)] =  -14.78 kcal/mol
DOCKED: USER    
DOCKED: USER    
DOCKED: USER    NEWDPF move IHP_ideal_opt.pdbqt
DOCKED: USER    NEWDPF about 0.035000 0.082000 -0.065000
DOCKED: USER    NEWDPF tran0 12.515762 -9.854649 -12.747146
DOCKED: USER    NEWDPF quaternion0 0.461051 -0.866852 -0.077445 0.173208
DOCKED: USER    NEWDPF axisangle0 0.468127 -0.880156 -0.078634 160.051203
DOCKED: USER    NEWDPF quat0 0.468127 -0.880156 -0.078634 160.051203
DOCKED: USER    NEWDPF dihe0 -10.93 18.73 163.23 4.97 109.28 118.66 -13.68 -129.55 99.74 -39.42 9.63 -128.73 7.94 178.44 -130.11 110.11 -142.53 -55.95 -1.14 11.44 -4.62 3.58 -6.57 177.50 
DOCKED: USER  keepresnum = 1 
DOCKED: USER  
DOCKED: REMARK  24 active torsions:
DOCKED: REMARK  status: ('A' for Active; 'I' for Inactive)
DOCKED: REMARK    1  A    between atoms: C_1  and  O_7 
DOCKED: REMARK    2  A    between atoms: C_2  and  O_12 
DOCKED: REMARK    3  A    between atoms: C_3  and  O_17 
DOCKED: REMARK    4  A    between atoms: C_4  and  O_22 
DOCKED: REMARK    5  A    between atoms: C_5  and  O_27 
DOCKED: REMARK    6  A    between atoms: C_6  and  O_32 
DOCKED: REMARK    7  A    between atoms: O_7  and  P_8 
DOCKED: REMARK    8  A    between atoms: P_8  and  O_10 
DOCKED: REMARK    9  A    between atoms: P_8  and  O_11 
DOCKED: REMARK   10  A    between atoms: O_12  and  P_13 
DOCKED: REMARK   11  A    between atoms: P_13  and  O_15 
DOCKED: REMARK   12  A    between atoms: P_13  and  O_16 
DOCKED: REMARK   13  A    between atoms: O_17  and  P_18 
DOCKED: REMARK   14  A    between atoms: P_18  and  O_20 
DOCKED: REMARK   15  A    between atoms: P_18  and  O_21 
DOCKED: REMARK   16  A    between atoms: O_22  and  P_23 
DOCKED: REMARK   17  A    between atoms: P_23  and  O_25 
DOCKED: REMARK   18  A    between atoms: P_23  and  O_26 
DOCKED: REMARK   19  A    between atoms: O_27  and  P_28 
DOCKED: REMARK   20  A    between atoms: P_28  and  O_30 
DOCKED: REMARK   21  A    between atoms: P_28  and  O_31 
DOCKED: REMARK   22  A    between atoms: O_32  and  P_33 
DOCKED: REMARK   23  A    between atoms: P_33  and  O_35 
DOCKED: REMARK   24  A    between atoms: P_33  and  O_36 
DOCKED: USER                              x       y       z     vdW  Elec       q    Type
DOCKED: USER                           _______ _______ _______ _____ _____    ______ ____
DOCKED: ROOT
DOCKED: ATOM      1  C   UNL d   1      12.785 -11.090 -13.924 -0.12 +0.10    +0.194 C 
DOCKED: ATOM      2  C   UNL d   1      14.008 -10.687 -13.098 -0.15 +0.08    +0.194 C 
DOCKED: ATOM      3  C   UNL d   1      14.105  -9.169 -12.933 -0.16 +0.04    +0.194 C 
DOCKED: ATOM      4  C   UNL d   1      12.818  -8.537 -12.407 -0.21 +0.02    +0.194 C 
DOCKED: ATOM      5  C   UNL d   1      11.559  -9.000 -13.129 -0.19 +0.02    +0.194 C 
DOCKED: ATOM      6  C   UNL d   1      11.492 -10.513 -13.348 -0.14 +0.08    +0.194 C 
DOCKED: ENDROOT
DOCKED: BRANCH   1   7
DOCKED: ATOM      7  O   UNL d   1      12.671 -12.514 -13.886 -0.58 -0.34    -0.278 OA
DOCKED: BRANCH   7   8
DOCKED: ATOM      8  P   UNL d   1      12.646 -13.312 -15.269 -0.05 +0.28    +0.473 P 
DOCKED: ATOM      9  O   UNL d   1      13.851 -13.130 -16.124 -0.01 -0.07    -0.228 OA
DOCKED: BRANCH   8  10
DOCKED: ATOM     10  O   UNL d   1      12.405 -14.829 -14.838 -0.14 -0.24    -0.303 OA
DOCKED: ATOM     11  H   UNL d   1      12.552 -15.414 -15.604 +0.01 +0.09    +0.222 HD
DOCKED: ENDBRANCH   8  10
DOCKED: BRANCH   8  12
DOCKED: ATOM     12  O   UNL d   1      11.257 -12.932 -15.940 -0.02 -0.10    -0.303 OA
DOCKED: ATOM     13  H   UNL d   1      10.567 -12.683 -15.285 +0.02 +0.08    +0.222 HD
DOCKED: ENDBRANCH   8  12
DOCKED: ENDBRANCH   7   8
DOCKED: ENDBRANCH   1   7
DOCKED: BRANCH   2  14
DOCKED: ATOM     14  O   UNL d   1      13.909 -11.281 -11.797 -0.27 -0.21    -0.278 OA
DOCKED: BRANCH  14  15
DOCKED: ATOM     15  P   UNL d   1      15.276 -11.791 -11.137 -0.06 +0.24    +0.473 P 
DOCKED: ATOM     16  O   UNL d   1      15.311 -13.215 -10.678 -0.47 -0.25    -0.228 OA
DOCKED: BRANCH  15  17
DOCKED: ATOM     17  O   UNL d   1      16.381 -11.469 -12.239 -0.04 -0.07    -0.303 OA
DOCKED: ATOM     18  H   UNL d   1      16.497 -10.506 -12.350 +0.05 +0.02    +0.222 HD
DOCKED: ENDBRANCH  15  17
DOCKED: BRANCH  15  19
DOCKED: ATOM     19  O   UNL d   1      15.608 -10.703 -10.025 -0.07 +0.04    -0.303 OA
DOCKED: ATOM     20  H   UNL d   1      15.636  -9.803 -10.398 -0.02 -0.02    +0.222 HD
DOCKED: ENDBRANCH  15  19
DOCKED: ENDBRANCH  14  15
DOCKED: ENDBRANCH   2  14
DOCKED: BRANCH   6  21
DOCKED: ATOM     21  O   UNL d   1      10.465 -10.744 -14.311 -0.08 -0.08    -0.278 OA
DOCKED: BRANCH  21  22
DOCKED: ATOM     22  P   UNL d   1       9.073 -11.372 -13.848 -0.08 +0.14    +0.473 P 
DOCKED: ATOM     23  O   UNL d   1       8.850 -12.830 -14.069 -0.10 -0.08    -0.228 OA
DOCKED: BRANCH  22  24
DOCKED: ATOM     24  O   UNL d   1       8.996 -10.907 -12.328 -0.01 -0.10    -0.303 OA
DOCKED: ATOM     25  H   UNL d   1       9.283  -9.960 -12.280 +0.06 +0.05    +0.222 HD
DOCKED: ENDBRANCH  22  24
DOCKED: BRANCH  22  26
DOCKED: ATOM     26  O   UNL d   1       8.022 -10.385 -14.550 -0.03 -0.04    -0.303 OA
DOCKED: ATOM     27  H   UNL d   1       8.213  -9.465 -14.275 +0.04 +0.03    +0.222 HD
DOCKED: ENDBRANCH  22  26
DOCKED: ENDBRANCH  21  22
DOCKED: ENDBRANCH   6  21
DOCKED: BRANCH   3  28
DOCKED: ATOM     28  O   UNL d   1      15.087  -8.908 -11.939 -0.42 -0.05    -0.278 OA
DOCKED: BRANCH  28  29
DOCKED: ATOM     29  P   UNL d   1      16.444  -8.167 -12.323 -0.13 +0.00    +0.473 P 
DOCKED: ATOM     30  O   UNL d   1      16.377  -6.683 -12.353 -0.27 +0.01    -0.228 OA
DOCKED: BRANCH  29  31
DOCKED: ATOM     31  O   UNL d   1      17.435  -8.828 -11.256 -0.15 +0.03    -0.303 OA
DOCKED: ATOM     32  H   UNL d   1      17.197  -9.778 -11.152 +0.07 -0.01    +0.222 HD
DOCKED: ENDBRANCH  29  31
DOCKED: BRANCH  29  33
DOCKED: ATOM     33  O   UNL d   1      16.850  -8.896 -13.679 -0.03 -0.00    -0.303 OA
DOCKED: ATOM     34  H   UNL d   1      17.133  -9.821 -13.474 +0.04 +0.01    +0.222 HD
DOCKED: ENDBRANCH  29  33
DOCKED: ENDBRANCH  28  29
DOCKED: ENDBRANCH   3  28
DOCKED: BRANCH   5  35
DOCKED: ATOM     35  O   UNL d   1      10.472  -8.650 -12.275 -0.15 +0.01    -0.278 OA
DOCKED: BRANCH  35  36
DOCKED: ATOM     36  P   UNL d   1       9.285  -7.734 -12.817 -0.10 -0.01    +0.473 P 
DOCKED: ATOM     37  O   UNL d   1       9.381  -6.282 -12.470 -0.13 +0.01    -0.228 OA
DOCKED: BRANCH  36  38
DOCKED: ATOM     38  O   UNL d   1       9.327  -8.037 -14.380 -0.03 -0.02    -0.303 OA
DOCKED: ATOM     39  H   UNL d   1       9.657  -8.951 -14.521 +0.04 +0.02    +0.222 HD
DOCKED: ENDBRANCH  36  38
DOCKED: BRANCH  36  40
DOCKED: ATOM     40  O   UNL d   1       7.995  -8.513 -12.310 -0.17 -0.02    -0.303 OA
DOCKED: ATOM     41  H   UNL d   1       7.767  -9.264 -12.902 +0.06 +0.02    +0.222 HD
DOCKED: ENDBRANCH  36  40
DOCKED: ENDBRANCH  35  36
DOCKED: ENDBRANCH   5  35
DOCKED: BRANCH   4  42
DOCKED: ATOM     42  O   UNL d   1      12.932  -7.126 -12.621 -0.38 -0.02    -0.278 OA
DOCKED: BRANCH  42  43
DOCKED: ATOM     43  P   UNL d   1      12.962  -6.572 -14.116 -0.03 +0.02    +0.473 P 
DOCKED: ATOM     44  O   UNL d   1      13.104  -7.569 -15.215 -0.01 -0.02    -0.228 OA
DOCKED: BRANCH  43  45
DOCKED: ATOM     45  O   UNL d   1      11.631  -5.704 -14.194 -0.02 -0.01    -0.303 OA
DOCKED: ATOM     46  H   UNL d   1      10.834  -6.259 -14.075 +0.04 +0.01    +0.222 HD
DOCKED: ENDBRANCH  43  45
DOCKED: BRANCH  43  47
DOCKED: ATOM     47  O   UNL d   1      14.090  -5.435 -14.063 -0.04 -0.01    -0.303 OA
DOCKED: ATOM     48  H   UNL d   1      14.898  -5.801 -13.647 +0.06 +0.01    +0.222 HD
DOCKED: ENDBRANCH  43  47
DOCKED: ENDBRANCH  42  43
DOCKED: ENDBRANCH   4  42
DOCKED: TORSDOF 24
DOCKED: TER
DOCKED: ENDMDL
________________________________________________________________________________


	BEGINNING GENETIC ALGORITHM DOCKING 67 of 100
Run: 67 Seed: 1936009034 1550823342 [ Run 67 of 100 GA/GALS ]
Beginning LAMARCKIAN GENETIC ALGORITHM (LGA), with a maximum of 25000000 energy evaluations.

Final-Value: -18.876


	FINAL GENETIC ALGORITHM DOCKED STATE
	_______________________________________________


Detailed state:  trans 33.929 -20.624 22.733 quatxyzw 0.004608 0.630510 0.070793 0.772932 center 0.035 0.082 -0.065 ntor 24 -111.8060 18.8852 165.5905 5.4599 -12.7083 180.0000 -26.5938 -125.7494 112.9885 19.2380 -11.3775 -29.1701 -138.8168 79.7294 -85.9859 -43.5353 23.0982 -75.9843 22.1267 -38.6648 -1.1318 -26.1072 171.4521 19.7061
State:	 33.929 -20.624  22.733   0.007  0.994  0.112 78.764   -111.81   18.89  165.59    5.46  -12.71  180.00  -26.59 -125.75  112.99   19.24  -11.38  -29.17 -138.82   79.73  -85.99  -43.54   23.10  -75.98   22.13  -38.66   -1.13  -26.11  171.45   19.71

DOCKED: MODEL       67
DOCKED: USER    Run = 67
DOCKED: USER    DPF = D:/Protein_go_brrr/autodock/final/1A3N/IHP/dock.dpf
DOCKED: USER  
DOCKED: USER    Estimated Free Energy of Binding    =   +1.32 kcal/mol  [=(1)+(2)+(3)-(4)]
DOCKED: USER    
DOCKED: USER    (1) Final Intermolecular Energy     =   -5.84 kcal/mol
DOCKED: USER        vdW + Hbond + desolv Energy     =   -5.54 kcal/mol
DOCKED: USER        Electrostatic Energy            =   -0.31 kcal/mol
DOCKED: USER    (2) Final Total Internal Energy     =  -13.03 kcal/mol
DOCKED: USER    (3) Torsional Free Energy           =   +7.16 kcal/mol
DOCKED: USER    (4) Unbound System's Energy  [=(2)] =  -13.03 kcal/mol
DOCKED: USER    
DOCKED: USER    
DOCKED: USER    NEWDPF move IHP_ideal_opt.pdbqt
DOCKED: USER    NEWDPF about 0.035000 0.082000 -0.065000
DOCKED: USER    NEWDPF tran0 33.928798 -20.624327 22.732818
DOCKED: USER    NEWDPF quaternion0 0.004608 0.630510 0.070793 0.772932
DOCKED: USER    NEWDPF axisangle0 0.007263 0.993729 0.111576 78.764111
DOCKED: USER    NEWDPF quat0 0.007263 0.993729 0.111576 78.764111
DOCKED: USER    NEWDPF dihe0 -111.81 18.89 165.59 5.46 -12.71 180.00 -26.59 -125.75 112.99 19.24 -11.38 -29.17 -138.82 79.73 -85.99 -43.54 23.10 -75.98 22.13 -38.66 -1.13 -26.11 171.45 19.71 
DOCKED: USER  keepresnum = 1 
DOCKED: USER  
DOCKED: REMARK  24 active torsions:
DOCKED: REMARK  status: ('A' for Active; 'I' for Inactive)
DOCKED: REMARK    1  A    between atoms: C_1  and  O_7 
DOCKED: REMARK    2  A    between atoms: C_2  and  O_12 
DOCKED: REMARK    3  A    between atoms: C_3  and  O_17 
DOCKED: REMARK    4  A    between atoms: C_4  and  O_22 
DOCKED: REMARK    5  A    between atoms: C_5  and  O_27 
DOCKED: REMARK    6  A    between atoms: C_6  and  O_32 
DOCKED: REMARK    7  A    between atoms: O_7  and  P_8 
DOCKED: REMARK    8  A    between atoms: P_8  and  O_10 
DOCKED: REMARK    9  A    between atoms: P_8  and  O_11 
DOCKED: REMARK   10  A    between atoms: O_12  and  P_13 
DOCKED: REMARK   11  A    between atoms: P_13  and  O_15 
DOCKED: REMARK   12  A    between atoms: P_13  and  O_16 
DOCKED: REMARK   13  A    between atoms: O_17  and  P_18 
DOCKED: REMARK   14  A    between atoms: P_18  and  O_20 
DOCKED: REMARK   15  A    between atoms: P_18  and  O_21 
DOCKED: REMARK   16  A    between atoms: O_22  and  P_23 
DOCKED: REMARK   17  A    between atoms: P_23  and  O_25 
DOCKED: REMARK   18  A    between atoms: P_23  and  O_26 
DOCKED: REMARK   19  A    between atoms: O_27  and  P_28 
DOCKED: REMARK   20  A    between atoms: P_28  and  O_30 
DOCKED: REMARK   21  A    between atoms: P_28  and  O_31 
DOCKED: REMARK   22  A    between atoms: O_32  and  P_33 
DOCKED: REMARK   23  A    between atoms: P_33  and  O_35 
DOCKED: REMARK   24  A    between atoms: P_33  and  O_36 
DOCKED: USER                              x       y       z     vdW  Elec       q    Type
DOCKED: USER                           _______ _______ _______ _____ _____    ______ ____
DOCKED: ROOT
DOCKED: ATOM      1  C   UNL d   1      33.300 -21.557  24.044 -0.11 -0.05    +0.194 C 
DOCKED: ATOM      2  C   UNL d   1      33.324 -22.259  22.685 -0.10 -0.03    +0.194 C 
DOCKED: ATOM      3  C   UNL d   1      32.854 -21.333  21.561 -0.21 -0.03    +0.194 C 
DOCKED: ATOM      4  C   UNL d   1      33.594 -19.998  21.533 -0.25 -0.04    +0.194 C 
DOCKED: ATOM      5  C   UNL d   1      33.694 -19.316  22.892 -0.29 -0.07    +0.194 C 
DOCKED: ATOM      6  C   UNL d   1      34.104 -20.256  24.028 -0.14 -0.06    +0.194 C 
DOCKED: ENDROOT
DOCKED: BRANCH   1   7
DOCKED: ATOM      7  O   UNL d   1      33.910 -22.423  25.004 -0.02 +0.07    -0.278 OA
DOCKED: BRANCH   7   8
DOCKED: ATOM      8  P   UNL d   1      32.963 -23.276  25.967 -0.00 -0.11    +0.473 P 
DOCKED: ATOM      9  O   UNL d   1      32.545 -22.584  27.216 -0.06 +0.09    -0.228 OA
DOCKED: BRANCH   8  10
DOCKED: ATOM     10  O   UNL d   1      31.734 -23.687  25.036 -0.03 +0.05    -0.303 OA
DOCKED: ATOM     11  H   UNL d   1      31.923 -24.541  24.604 +0.04 -0.03    +0.222 HD
DOCKED: ENDBRANCH   8  10
DOCKED: BRANCH   8  12
DOCKED: ATOM     12  O   UNL d   1      33.713 -24.664  26.160 -0.00 +0.04    -0.303 OA
DOCKED: ATOM     13  H   UNL d   1      34.304 -24.890  25.407 +0.01 -0.03    +0.222 HD
DOCKED: ENDBRANCH   8  12
DOCKED: ENDBRANCH   7   8
DOCKED: ENDBRANCH   1   7
DOCKED: BRANCH   2  14
DOCKED: ATOM     14  O   UNL d   1      34.664 -22.680  22.400 -0.02 +0.03    -0.278 OA
DOCKED: BRANCH  14  15
DOCKED: ATOM     15  P   UNL d   1      35.053 -24.171  22.837 -0.00 -0.05    +0.473 P 
DOCKED: ATOM     16  O   UNL d   1      35.814 -24.986  21.839 -0.01 +0.02    -0.228 OA
DOCKED: BRANCH  15  17
DOCKED: ATOM     17  O   UNL d   1      35.842 -23.979  24.208 -0.00 +0.03    -0.303 OA
DOCKED: ATOM     18  H   UNL d   1      35.241 -23.691  24.922 +0.01 -0.03    +0.222 HD
DOCKED: ENDBRANCH  15  17
DOCKED: BRANCH  15  19
DOCKED: ATOM     19  O   UNL d   1      33.685 -24.807  23.342 -0.02 +0.03    -0.303 OA
DOCKED: ATOM     20  H   UNL d   1      33.267 -24.260  24.032 +0.03 -0.03    +0.222 HD
DOCKED: ENDBRANCH  15  19
DOCKED: ENDBRANCH  14  15
DOCKED: ENDBRANCH   2  14
DOCKED: BRANCH   6  21
DOCKED: ATOM     21  O   UNL d   1      33.823 -19.575  25.248 -0.18 +0.16    -0.278 OA
DOCKED: BRANCH  21  22
DOCKED: ATOM     22  P   UNL d   1      35.014 -18.922  26.084 -0.10 -0.24    +0.473 P 
DOCKED: ATOM     23  O   UNL d   1      36.150 -19.798  26.494 -0.02 +0.07    -0.228 OA
DOCKED: BRANCH  22  24
DOCKED: ATOM     24  O   UNL d   1      35.421 -17.690  25.162 -0.11 +0.09    -0.303 OA
DOCKED: ATOM     25  H   UNL d   1      35.977 -18.033  24.417 +0.09 -0.07    +0.222 HD
DOCKED: ENDBRANCH  22  24
DOCKED: BRANCH  22  26
DOCKED: ATOM     26  O   UNL d   1      34.220 -18.198  27.273 -0.18 +0.32    -0.303 OA
DOCKED: ATOM     27  H   UNL d   1      33.270 -18.430  27.214 -0.45 -0.47    +0.222 HD
DOCKED: ENDBRANCH  22  26
DOCKED: ENDBRANCH  21  22
DOCKED: ENDBRANCH   6  21
DOCKED: BRANCH   3  28
DOCKED: ATOM     28  O   UNL d   1      33.170 -21.965  20.326 -0.14 +0.04    -0.278 OA
DOCKED: BRANCH  28  29
DOCKED: ATOM     29  P   UNL d   1      32.178 -23.039  19.696 -0.14 -0.05    +0.473 P 
DOCKED: ATOM     30  O   UNL d   1      32.084 -24.330  20.426 -0.09 +0.01    -0.228 OA
DOCKED: BRANCH  29  31
DOCKED: ATOM     31  O   UNL d   1      30.843 -22.162  19.596 -0.17 +0.07    -0.303 OA
DOCKED: ATOM     32  H   UNL d   1      31.095 -21.212  19.544 -0.11 -0.09    +0.222 HD
DOCKED: ENDBRANCH  29  31
DOCKED: BRANCH  29  33
DOCKED: ATOM     33  O   UNL d   1      32.671 -23.103  18.183 -0.04 +0.05    -0.303 OA
DOCKED: ATOM     34  H   UNL d   1      32.483 -22.236  17.748 -0.41 -0.11    +0.222 HD
DOCKED: ENDBRANCH  29  33
DOCKED: ENDBRANCH  28  29
DOCKED: ENDBRANCH   3  28
DOCKED: BRANCH   5  35
DOCKED: ATOM     35  O   UNL d   1      34.727 -18.342  22.760 -0.17 +0.09    -0.278 OA
DOCKED: BRANCH  35  36
DOCKED: ATOM     36  P   UNL d   1      36.198 -18.782  22.328 -0.11 -0.10    +0.473 P 
DOCKED: ATOM     37  O   UNL d   1      36.334 -19.292  20.929 -0.26 +0.04    -0.228 OA
DOCKED: BRANCH  36  38
DOCKED: ATOM     38  O   UNL d   1      37.035 -17.460  22.627 -0.23 +0.09    -0.303 OA
DOCKED: ATOM     39  H   UNL d   1      36.750 -17.088  23.490 +0.11 -0.07    +0.222 HD
DOCKED: ENDBRANCH  36  38
DOCKED: BRANCH  36  40
DOCKED: ATOM     40  O   UNL d   1      36.615 -19.772  23.501 -0.03 +0.06    -0.303 OA
DOCKED: ATOM     41  H   UNL d   1      36.094 -19.608  24.319 +0.07 -0.06    +0.222 HD
DOCKED: ENDBRANCH  36  40
DOCKED: ENDBRANCH  35  36
DOCKED: ENDBRANCH   5  35
DOCKED: BRANCH   4  42
DOCKED: ATOM     42  O   UNL d   1      32.844 -19.127  20.680 -0.31 +0.05    -0.278 OA
DOCKED: BRANCH  42  43
DOCKED: ATOM     43  P   UNL d   1      33.208 -19.067  19.128 -0.28 -0.06    +0.473 P 
DOCKED: ATOM     44  O   UNL d   1      34.625 -19.321  18.744 -0.33 +0.02    -0.228 OA
DOCKED: BRANCH  43  45
DOCKED: ATOM     45  O   UNL d   1      32.168 -20.086  18.486 -0.25 +0.09    -0.303 OA
DOCKED: ATOM     46  H   UNL d   1      32.492 -21.007  18.535 -0.16 -0.08    +0.222 HD
DOCKED: ENDBRANCH  43  45
DOCKED: BRANCH  43  47
DOCKED: ATOM     47  O   UNL d   1      32.609 -17.655  18.665 -0.47 +0.02    -0.303 OA
DOCKED: ATOM     48  H   UNL d   1      33.150 -17.300  17.930 +0.10 -0.01    +0.222 HD
DOCKED: ENDBRANCH  43  47
DOCKED: ENDBRANCH  42  43
DOCKED: ENDBRANCH   4  42
DOCKED: TORSDOF 24
DOCKED: TER
DOCKED: ENDMDL
________________________________________________________________________________


	BEGINNING GENETIC ALGORITHM DOCKING 68 of 100
Run: 68 Seed: 1242345413 251217128 [ Run 68 of 100 GA/GALS ]
Beginning LAMARCKIAN GENETIC ALGORITHM (LGA), with a maximum of 25000000 energy evaluations.

Final-Value: -18.937


	FINAL GENETIC ALGORITHM DOCKED STATE
	_______________________________________________


Detailed state:  trans -14.215 8.498 5.394 quatxyzw 0.709959 -0.549343 0.193768 -0.395770 center 0.035 0.082 -0.065 ntor 24 -165.8526 110.6899 4.0535 167.7002 47.6165 132.6058 -36.8994 -92.5534 30.3453 77.2380 147.2220 127.6495 -22.9494 -89.3380 142.9706 -62.1408 -73.6464 -165.0075 -8.4457 6.5633 -9.5297 -6.3048 179.6051 17.5961
State:	-14.215   8.498   5.394   0.773 -0.598  0.211 -133.372   -165.85  110.69    4.05  167.70   47.62  132.61  -36.90  -92.55   30.35   77.24  147.22  127.65  -22.95  -89.34  142.97  -62.14  -73.65 -165.01   -8.45    6.56   -9.53   -6.30  179.61   17.60

DOCKED: MODEL       68
DOCKED: USER    Run = 68
DOCKED: USER    DPF = D:/Protein_go_brrr/autodock/final/1A3N/IHP/dock.dpf
DOCKED: USER  
DOCKED: USER    Estimated Free Energy of Binding    =   +2.21 kcal/mol  [=(1)+(2)+(3)-(4)]
DOCKED: USER    
DOCKED: USER    (1) Final Intermolecular Energy     =   -4.95 kcal/mol
DOCKED: USER        vdW + Hbond + desolv Energy     =   -5.05 kcal/mol
DOCKED: USER        Electrostatic Energy            =   +0.10 kcal/mol
DOCKED: USER    (2) Final Total Internal Energy     =  -13.99 kcal/mol
DOCKED: USER    (3) Torsional Free Energy           =   +7.16 kcal/mol
DOCKED: USER    (4) Unbound System's Energy  [=(2)] =  -13.99 kcal/mol
DOCKED: USER    
DOCKED: USER    
DOCKED: USER    NEWDPF move IHP_ideal_opt.pdbqt
DOCKED: USER    NEWDPF about 0.035000 0.082000 -0.065000
DOCKED: USER    NEWDPF tran0 -14.214840 8.498278 5.394390
DOCKED: USER    NEWDPF quaternion0 0.709959 -0.549343 0.193768 -0.395770
DOCKED: USER    NEWDPF axisangle0 0.773082 -0.598185 0.210996 -133.372011
DOCKED: USER    NEWDPF quat0 0.773082 -0.598185 0.210996 -133.372011
DOCKED: USER    NEWDPF dihe0 -165.85 110.69 4.05 167.70 47.62 132.61 -36.90 -92.55 30.35 77.24 147.22 127.65 -22.95 -89.34 142.97 -62.14 -73.65 -165.01 -8.45 6.56 -9.53 -6.30 179.61 17.60 
DOCKED: USER  keepresnum = 1 
DOCKED: USER  
DOCKED: REMARK  24 active torsions:
DOCKED: REMARK  status: ('A' for Active; 'I' for Inactive)
DOCKED: REMARK    1  A    between atoms: C_1  and  O_7 
DOCKED: REMARK    2  A    between atoms: C_2  and  O_12 
DOCKED: REMARK    3  A    between atoms: C_3  and  O_17 
DOCKED: REMARK    4  A    between atoms: C_4  and  O_22 
DOCKED: REMARK    5  A    between atoms: C_5  and  O_27 
DOCKED: REMARK    6  A    between atoms: C_6  and  O_32 
DOCKED: REMARK    7  A    between atoms: O_7  and  P_8 
DOCKED: REMARK    8  A    between atoms: P_8  and  O_10 
DOCKED: REMARK    9  A    between atoms: P_8  and  O_11 
DOCKED: REMARK   10  A    between atoms: O_12  and  P_13 
DOCKED: REMARK   11  A    between atoms: P_13  and  O_15 
DOCKED: REMARK   12  A    between atoms: P_13  and  O_16 
DOCKED: REMARK   13  A    between atoms: O_17  and  P_18 
DOCKED: REMARK   14  A    between atoms: P_18  and  O_20 
DOCKED: REMARK   15  A    between atoms: P_18  and  O_21 
DOCKED: REMARK   16  A    between atoms: O_22  and  P_23 
DOCKED: REMARK   17  A    between atoms: P_23  and  O_25 
DOCKED: REMARK   18  A    between atoms: P_23  and  O_26 
DOCKED: REMARK   19  A    between atoms: O_27  and  P_28 
DOCKED: REMARK   20  A    between atoms: P_28  and  O_30 
DOCKED: REMARK   21  A    between atoms: P_28  and  O_31 
DOCKED: REMARK   22  A    between atoms: O_32  and  P_33 
DOCKED: REMARK   23  A    between atoms: P_33  and  O_35 
DOCKED: REMARK   24  A    between atoms: P_33  and  O_36 
DOCKED: USER                              x       y       z     vdW  Elec       q    Type
DOCKED: USER                           _______ _______ _______ _____ _____    ______ ____
DOCKED: ROOT
DOCKED: ATOM      1  C   UNL d   1     -13.110   7.174   5.490 -0.13 -0.08    +0.194 C 
DOCKED: ATOM      2  C   UNL d   1     -12.701   8.309   4.549 -0.12 -0.08    +0.194 C 
DOCKED: ATOM      3  C   UNL d   1     -13.883   8.805   3.713 -0.02 -0.06    +0.194 C 
DOCKED: ATOM      4  C   UNL d   1     -15.106   9.163   4.554 -0.01 -0.04    +0.194 C 
DOCKED: ATOM      5  C   UNL d   1     -15.481   8.108   5.586 -0.03 -0.05    +0.194 C 
DOCKED: ATOM      6  C   UNL d   1     -14.289   7.568   6.380 -0.10 -0.06    +0.194 C 
DOCKED: ENDROOT
DOCKED: BRANCH   1   7
DOCKED: ATOM      7  O   UNL d   1     -12.004   6.888   6.350 -0.16 +0.14    -0.278 OA
DOCKED: BRANCH   7   8
DOCKED: ATOM      8  P   UNL d   1     -11.549   5.366   6.521 -0.27 -0.24    +0.473 P 
DOCKED: ATOM      9  O   UNL d   1     -11.821   4.491   5.349 -0.27 +0.14    -0.228 OA
DOCKED: BRANCH   8  10
DOCKED: ATOM     10  O   UNL d   1      -9.999   5.465   6.885 -0.45 +0.14    -0.303 OA
DOCKED: ATOM     11  H   UNL d   1      -9.844   6.246   7.449 -0.36 -0.13    +0.222 HD
DOCKED: ENDBRANCH   8  10
DOCKED: BRANCH   8  12
DOCKED: ATOM     12  O   UNL d   1     -12.185   4.898   7.900 -0.27 +0.10    -0.303 OA
DOCKED: ATOM     13  H   UNL d   1     -13.169   4.877   7.883 -0.07 -0.09    +0.222 HD
DOCKED: ENDBRANCH   8  12
DOCKED: ENDBRANCH   7   8
DOCKED: ENDBRANCH   1   7
DOCKED: BRANCH   2  14
DOCKED: ATOM     14  O   UNL d   1     -12.201   9.404   5.327 -0.13 +0.07    -0.278 OA
DOCKED: BRANCH  14  15
DOCKED: ATOM     15  P   UNL d   1     -10.897  10.143   4.767 -0.23 -0.05    +0.473 P 
DOCKED: ATOM     16  O   UNL d   1      -9.898   9.291   4.047 -0.49 +0.06    -0.228 OA
DOCKED: BRANCH  15  17
DOCKED: ATOM     17  O   UNL d   1     -11.476  11.316   3.858 -0.13 +0.04    -0.303 OA
DOCKED: ATOM     18  H   UNL d   1     -11.573  11.027   2.930 +0.08 -0.04    +0.222 HD
DOCKED: ENDBRANCH  15  17
DOCKED: BRANCH  15  19
DOCKED: ATOM     19  O   UNL d   1     -10.334  10.954   6.014 -0.40 -0.03    -0.303 OA
DOCKED: ATOM     20  H   UNL d   1      -9.515  10.556   6.363 -0.23 +0.12    +0.222 HD
DOCKED: ENDBRANCH  15  19
DOCKED: ENDBRANCH  14  15
DOCKED: ENDBRANCH   2  14
DOCKED: BRANCH   6  21
DOCKED: ATOM     21  O   UNL d   1     -14.734   6.381   7.034 -0.12 +0.09    -0.278 OA
DOCKED: BRANCH  21  22
DOCKED: ATOM     22  P   UNL d   1     -14.874   6.359   8.623 -0.23 -0.16    +0.473 P 
DOCKED: ATOM     23  O   UNL d   1     -15.488   5.157   9.260 -0.23 +0.11    -0.228 OA
DOCKED: BRANCH  22  24
DOCKED: ATOM     24  O   UNL d   1     -13.384   6.671   9.086 -0.38 +0.13    -0.303 OA
DOCKED: ATOM     25  H   UNL d   1     -12.779   6.488   8.322 +0.13 -0.09    +0.222 HD
DOCKED: ENDBRANCH  22  24
DOCKED: BRANCH  22  26
DOCKED: ATOM     26  O   UNL d   1     -15.608   7.756   8.906 -0.13 +0.07    -0.303 OA
DOCKED: ATOM     27  H   UNL d   1     -15.214   8.447   8.335 +0.09 -0.06    +0.222 HD
DOCKED: ENDBRANCH  22  26
DOCKED: ENDBRANCH  21  22
DOCKED: ENDBRANCH   6  21
DOCKED: BRANCH   3  28
DOCKED: ATOM     28  O   UNL d   1     -13.486  10.018   3.087 -0.01 +0.07    -0.278 OA
DOCKED: BRANCH  28  29
DOCKED: ATOM     29  P   UNL d   1     -13.115  10.041   1.539 +0.01 -0.12    +0.473 P 
DOCKED: ATOM     30  O   UNL d   1     -11.695   9.744   1.216 -0.07 +0.08    -0.228 OA
DOCKED: BRANCH  29  31
DOCKED: ATOM     31  O   UNL d   1     -14.216   9.026   0.973 +0.00 +0.07    -0.303 OA
DOCKED: ATOM     32  H   UNL d   1     -14.905   8.894   1.664 +0.01 -0.05    +0.222 HD
DOCKED: ENDBRANCH  29  31
DOCKED: BRANCH  29  33
DOCKED: ATOM     33  O   UNL d   1     -13.675  11.459   1.082 -0.00 +0.06    -0.303 OA
DOCKED: ATOM     34  H   UNL d   1     -14.488  11.667   1.605 +0.01 -0.04    +0.222 HD
DOCKED: ENDBRANCH  29  33
DOCKED: ENDBRANCH  28  29
DOCKED: ENDBRANCH   3  28
DOCKED: BRANCH   5  35
DOCKED: ATOM     35  O   UNL d   1     -16.341   8.764   6.515 -0.02 +0.05    -0.278 OA
DOCKED: BRANCH  35  36
DOCKED: ATOM     36  P   UNL d   1     -15.917  10.161   7.157 -0.08 -0.09    +0.473 P 
DOCKED: ATOM     37  O   UNL d   1     -14.445  10.383   7.303 -0.21 +0.08    -0.228 OA
DOCKED: BRANCH  36  38
DOCKED: ATOM     38  O   UNL d   1     -16.643  11.198   6.191 -0.02 +0.05    -0.303 OA
DOCKED: ATOM     39  H   UNL d   1     -16.570  10.879   5.265 +0.02 -0.03    +0.222 HD
DOCKED: ENDBRANCH  36  38
DOCKED: BRANCH  36  40
DOCKED: ATOM     40  O   UNL d   1     -16.788  10.203   8.487 -0.11 +0.04    -0.303 OA
DOCKED: ATOM     41  H   UNL d   1     -16.886   9.310   8.887 +0.06 -0.03    +0.222 HD
DOCKED: ENDBRANCH  36  40
DOCKED: ENDBRANCH  35  36
DOCKED: ENDBRANCH   5  35
DOCKED: BRANCH   4  42
DOCKED: ATOM     42  O   UNL d   1     -16.210   9.280   3.650 +0.00 +0.05    -0.278 OA
DOCKED: BRANCH  42  43
DOCKED: ATOM     43  P   UNL d   1     -16.576  10.715   3.060 +0.00 -0.07    +0.473 P 
DOCKED: ATOM     44  O   UNL d   1     -17.930  11.258   3.362 -0.00 +0.02    -0.228 OA
DOCKED: BRANCH  43  45
DOCKED: ATOM     45  O   UNL d   1     -15.379  11.624   3.584 -0.00 +0.05    -0.303 OA
DOCKED: ATOM     46  H   UNL d   1     -14.554  11.448   3.089 +0.02 -0.04    +0.222 HD
DOCKED: ENDBRANCH  43  45
DOCKED: BRANCH  43  47
DOCKED: ATOM     47  O   UNL d   1     -16.220  10.573   1.503 +0.00 +0.04    -0.303 OA
DOCKED: ATOM     48  H   UNL d   1     -15.298  10.255   1.411 +0.00 -0.04    +0.222 HD
DOCKED: ENDBRANCH  43  47
DOCKED: ENDBRANCH  42  43
DOCKED: ENDBRANCH   4  42
DOCKED: TORSDOF 24
DOCKED: TER
DOCKED: ENDMDL
________________________________________________________________________________


	BEGINNING GENETIC ALGORITHM DOCKING 69 of 100
Run: 69 Seed: 816450919 1500217673 [ Run 69 of 100 GA/GALS ]
Beginning LAMARCKIAN GENETIC ALGORITHM (LGA), with a maximum of 25000000 energy evaluations.

Final-Value: -18.720


	FINAL GENETIC ALGORITHM DOCKED STATE
	_______________________________________________


Detailed state:  trans 10.129 26.080 29.555 quatxyzw -0.311151 0.801119 -0.485050 -0.161615 center 0.035 0.082 -0.065 ntor 24 -167.0458 129.6122 137.8661 105.1205 -180.0000 121.5344 -46.5317 33.1213 -18.2753 -25.6718 -7.9162 -149.5194 -117.6953 67.3905 48.9519 130.0117 180.0000 -4.9969 53.9251 13.3343 -168.5462 -6.0497 -30.8289 164.8449
State:	 10.129  26.080  29.555  -0.315  0.812 -0.492 -161.399   -167.05  129.61  137.87  105.12 -180.00  121.53  -46.53   33.12  -18.28  -25.67   -7.92 -149.52 -117.70   67.39   48.95  130.01  180.00   -5.00   53.93   13.33 -168.55   -6.05  -30.83  164.84

DOCKED: MODEL       69
DOCKED: USER    Run = 69
DOCKED: USER    DPF = D:/Protein_go_brrr/autodock/final/1A3N/IHP/dock.dpf
DOCKED: USER  
DOCKED: USER    Estimated Free Energy of Binding    =   +0.31 kcal/mol  [=(1)+(2)+(3)-(4)]
DOCKED: USER    
DOCKED: USER    (1) Final Intermolecular Energy     =   -6.85 kcal/mol
DOCKED: USER        vdW + Hbond + desolv Energy     =   -6.58 kcal/mol
DOCKED: USER        Electrostatic Energy            =   -0.27 kcal/mol
DOCKED: USER    (2) Final Total Internal Energy     =  -11.87 kcal/mol
DOCKED: USER    (3) Torsional Free Energy           =   +7.16 kcal/mol
DOCKED: USER    (4) Unbound System's Energy  [=(2)] =  -11.87 kcal/mol
DOCKED: USER    
DOCKED: USER    
DOCKED: USER    NEWDPF move IHP_ideal_opt.pdbqt
DOCKED: USER    NEWDPF about 0.035000 0.082000 -0.065000
DOCKED: USER    NEWDPF tran0 10.128958 26.080480 29.555278
DOCKED: USER    NEWDPF quaternion0 -0.311151 0.801119 -0.485050 -0.161615
DOCKED: USER    NEWDPF axisangle0 -0.315296 0.811791 -0.491511 -161.398733
DOCKED: USER    NEWDPF quat0 -0.315296 0.811791 -0.491511 -161.398733
DOCKED: USER    NEWDPF dihe0 -167.05 129.61 137.87 105.12 -180.00 121.53 -46.53 33.12 -18.28 -25.67 -7.92 -149.52 -117.70 67.39 48.95 130.01 180.00 -5.00 53.93 13.33 -168.55 -6.05 -30.83 164.84 
DOCKED: USER  keepresnum = 1 
DOCKED: USER  
DOCKED: REMARK  24 active torsions:
DOCKED: REMARK  status: ('A' for Active; 'I' for Inactive)
DOCKED: REMARK    1  A    between atoms: C_1  and  O_7 
DOCKED: REMARK    2  A    between atoms: C_2  and  O_12 
DOCKED: REMARK    3  A    between atoms: C_3  and  O_17 
DOCKED: REMARK    4  A    between atoms: C_4  and  O_22 
DOCKED: REMARK    5  A    between atoms: C_5  and  O_27 
DOCKED: REMARK    6  A    between atoms: C_6  and  O_32 
DOCKED: REMARK    7  A    between atoms: O_7  and  P_8 
DOCKED: REMARK    8  A    between atoms: P_8  and  O_10 
DOCKED: REMARK    9  A    between atoms: P_8  and  O_11 
DOCKED: REMARK   10  A    between atoms: O_12  and  P_13 
DOCKED: REMARK   11  A    between atoms: P_13  and  O_15 
DOCKED: REMARK   12  A    between atoms: P_13  and  O_16 
DOCKED: REMARK   13  A    between atoms: O_17  and  P_18 
DOCKED: REMARK   14  A    between atoms: P_18  and  O_20 
DOCKED: REMARK   15  A    between atoms: P_18  and  O_21 
DOCKED: REMARK   16  A    between atoms: O_22  and  P_23 
DOCKED: REMARK   17  A    between atoms: P_23  and  O_25 
DOCKED: REMARK   18  A    between atoms: P_23  and  O_26 
DOCKED: REMARK   19  A    between atoms: O_27  and  P_28 
DOCKED: REMARK   20  A    between atoms: P_28  and  O_30 
DOCKED: REMARK   21  A    between atoms: P_28  and  O_31 
DOCKED: REMARK   22  A    between atoms: O_32  and  P_33 
DOCKED: REMARK   23  A    between atoms: P_33  and  O_35 
DOCKED: REMARK   24  A    between atoms: P_33  and  O_36 
DOCKED: USER                              x       y       z     vdW  Elec       q    Type
DOCKED: USER                           _______ _______ _______ _____ _____    ______ ____
DOCKED: ROOT
DOCKED: ATOM      1  C   UNL d   1       9.931  24.426  30.011 -0.07 +0.01    +0.194 C 
DOCKED: ATOM      2  C   UNL d   1      10.940  25.223  30.839 -0.03 +0.01    +0.194 C 
DOCKED: ATOM      3  C   UNL d   1      11.822  26.110  29.957 -0.04 +0.01    +0.194 C 
DOCKED: ATOM      4  C   UNL d   1      11.023  26.999  29.008 -0.06 -0.00    +0.194 C 
DOCKED: ATOM      5  C   UNL d   1       9.928  26.266  28.245 -0.12 -0.01    +0.194 C 
DOCKED: ATOM      6  C   UNL d   1       9.085  25.332  29.116 -0.08 -0.00    +0.194 C 
DOCKED: ENDROOT
DOCKED: BRANCH   1   7
DOCKED: ATOM      7  O   UNL d   1       9.040  23.763  30.911 -0.04 -0.02    -0.278 OA
DOCKED: BRANCH   7   8
DOCKED: ATOM      8  P   UNL d   1       9.615  22.577  31.814 -0.05 +0.05    +0.473 P 
DOCKED: ATOM      9  O   UNL d   1      10.049  21.367  31.064 -0.19 -0.03    -0.228 OA
DOCKED: BRANCH   8  10
DOCKED: ATOM     10  O   UNL d   1      10.796  23.260  32.642 -0.04 -0.02    -0.303 OA
DOCKED: ATOM     11  H   UNL d   1      10.556  24.181  32.854 +0.02 +0.01    +0.222 HD
DOCKED: ENDBRANCH   8  10
DOCKED: BRANCH   8  12
DOCKED: ATOM     12  O   UNL d   1       8.516  22.341  32.936 -0.01 -0.03    -0.303 OA
DOCKED: ATOM     13  H   UNL d   1       7.789  21.746  32.644 +0.03 +0.03    +0.222 HD
DOCKED: ENDBRANCH   8  12
DOCKED: ENDBRANCH   7   8
DOCKED: ENDBRANCH   1   7
DOCKED: BRANCH   2  14
DOCKED: ATOM     14  O   UNL d   1      10.230  26.060  31.761 -0.02 -0.01    -0.278 OA
DOCKED: BRANCH  14  15
DOCKED: ATOM     15  P   UNL d   1      10.911  26.285  33.193 -0.00 +0.01    +0.473 P 
DOCKED: ATOM     16  O   UNL d   1      11.181  27.701  33.594 -0.00 -0.00    -0.228 OA
DOCKED: BRANCH  15  17
DOCKED: ATOM     17  O   UNL d   1       9.939  25.532  34.207 -0.00 -0.01    -0.303 OA
DOCKED: ATOM     18  H   UNL d   1       9.647  24.674  33.843 +0.01 +0.01    +0.222 HD
DOCKED: ENDBRANCH  15  17
DOCKED: BRANCH  15  19
DOCKED: ATOM     19  O   UNL d   1      12.175  25.320  33.188 -0.02 -0.01    -0.303 OA
DOCKED: ATOM     20  H   UNL d   1      12.674  25.384  32.352 +0.02 +0.00    +0.222 HD
DOCKED: ENDBRANCH  15  19
DOCKED: ENDBRANCH  14  15
DOCKED: ENDBRANCH   2  14
DOCKED: BRANCH   6  21
DOCKED: ATOM     21  O   UNL d   1       8.359  24.484  28.229 -0.12 +0.01    -0.278 OA
DOCKED: BRANCH  21  22
DOCKED: ATOM     22  P   UNL d   1       9.004  23.108  27.744 -0.26 +0.01    +0.473 P 
DOCKED: ATOM     23  O   UNL d   1       8.962  21.944  28.675 -0.25 -0.03    -0.228 OA
DOCKED: BRANCH  22  24
DOCKED: ATOM     24  O   UNL d   1       8.268  22.876  26.352 -0.27 +0.02    -0.303 OA
DOCKED: ATOM     25  H   UNL d   1       8.944  22.942  25.631 -0.40 -0.07    +0.222 HD
DOCKED: ENDBRANCH  22  24
DOCKED: BRANCH  22  26
DOCKED: ATOM     26  O   UNL d   1      10.462  23.580  27.273 -0.55 -0.02    -0.303 OA
DOCKED: ATOM     27  H   UNL d   1      10.371  24.323  26.642 -0.31 -0.06    +0.222 HD
DOCKED: ENDBRANCH  22  26
DOCKED: ENDBRANCH  21  22
DOCKED: ENDBRANCH   6  21
DOCKED: BRANCH   3  28
DOCKED: ATOM     28  O   UNL d   1      12.522  27.004  30.813 -0.02 -0.00    -0.278 OA
DOCKED: BRANCH  28  29
DOCKED: ATOM     29  P   UNL d   1      14.066  26.771  31.131 -0.01 -0.01    +0.473 P 
DOCKED: ATOM     30  O   UNL d   1      15.009  27.674  30.421 -0.01 +0.01    -0.228 OA
DOCKED: BRANCH  29  31
DOCKED: ATOM     31  O   UNL d   1      14.038  26.861  32.729 -0.01 +0.01    -0.303 OA
DOCKED: ATOM     32  H   UNL d   1      13.102  26.943  33.022 +0.01 +0.00    +0.222 HD
DOCKED: ENDBRANCH  29  31
DOCKED: BRANCH  29  33
DOCKED: ATOM     33  O   UNL d   1      14.229  25.209  30.869 -0.05 +0.01    -0.303 OA
DOCKED: ATOM     34  H   UNL d   1      14.507  25.069  29.930 +0.06 -0.01    +0.222 HD
DOCKED: ENDBRANCH  29  33
DOCKED: ENDBRANCH  28  29
DOCKED: ENDBRANCH   3  28
DOCKED: BRANCH   5  35
DOCKED: ATOM     35  O   UNL d   1       9.056  27.280  27.750 -0.06 +0.02    -0.278 OA
DOCKED: BRANCH  35  36
DOCKED: ATOM     36  P   UNL d   1       9.167  27.768  26.236 -0.14 -0.05    +0.473 P 
DOCKED: ATOM     37  O   UNL d   1       9.111  29.249  26.030 -0.10 +0.02    -0.228 OA
DOCKED: BRANCH  36  38
DOCKED: ATOM     38  O   UNL d   1      10.535  27.095  25.776 -0.16 +0.09    -0.303 OA
DOCKED: ATOM     39  H   UNL d   1      11.278  27.702  25.985 -0.05 -0.06    +0.222 HD
DOCKED: ENDBRANCH  36  38
DOCKED: BRANCH  36  40
DOCKED: ATOM     40  O   UNL d   1       8.050  26.897  25.514 -0.77 +0.01    -0.303 OA
DOCKED: ATOM     41  H   UNL d   1       8.283  25.942  25.504 -0.45 -0.04    +0.222 HD
DOCKED: ENDBRANCH  36  40
DOCKED: ENDBRANCH  35  36
DOCKED: ENDBRANCH   5  35
DOCKED: BRANCH   4  42
DOCKED: ATOM     42  O   UNL d   1      11.947  27.504  28.038 -0.07 +0.01    -0.278 OA
DOCKED: BRANCH  42  43
DOCKED: ATOM     43  P   UNL d   1      12.850  26.473  27.223 -0.22 -0.00    +0.473 P 
DOCKED: ATOM     44  O   UNL d   1      12.205  25.214  26.757 -0.92 -0.05    -0.228 OA
DOCKED: BRANCH  43  45
DOCKED: ATOM     45  O   UNL d   1      13.439  27.375  26.051 -0.24 +0.07    -0.303 OA
DOCKED: ATOM     46  H   UNL d   1      12.795  27.481  25.323 -0.39 -0.13    +0.222 HD
DOCKED: ENDBRANCH  43  45
DOCKED: BRANCH  43  47
DOCKED: ATOM     47  O   UNL d   1      14.133  26.286  28.165 -0.17 -0.00    -0.303 OA
DOCKED: ATOM     48  H   UNL d   1      13.868  26.414  29.100 +0.06 -0.00    +0.222 HD
DOCKED: ENDBRANCH  43  47
DOCKED: ENDBRANCH  42  43
DOCKED: ENDBRANCH   4  42
DOCKED: TORSDOF 24
DOCKED: TER
DOCKED: ENDMDL
________________________________________________________________________________


	BEGINNING GENETIC ALGORITHM DOCKING 70 of 100
Run: 70 Seed: 1278858556 91614925 [ Run 70 of 100 GA/GALS ]
Beginning LAMARCKIAN GENETIC ALGORITHM (LGA), with a maximum of 25000000 energy evaluations.

Final-Value: -15.746


	FINAL GENETIC ALGORITHM DOCKED STATE
	_______________________________________________


Detailed state:  trans 40.590 -2.940 38.704 quatxyzw -0.782394 0.218023 0.563715 -0.150173 center 0.035 0.082 -0.065 ntor 24 99.3393 30.7826 174.2799 13.1058 -80.7977 140.3346 -134.7738 -30.8495 -8.3269 34.1789 92.4111 -165.5343 -179.9538 -169.7384 -175.4702 -149.6805 -133.0439 150.9929 38.5784 6.8996 175.6085 3.3242 152.1620 -9.2489
State:	 40.590  -2.940  38.704  -0.791  0.221  0.570 -162.726     99.34   30.78  174.28   13.11  -80.80  140.33 -134.77  -30.85   -8.33   34.18   92.41 -165.53 -179.95 -169.74 -175.47 -149.68 -133.04  150.99   38.58    6.90  175.61    3.32  152.16   -9.25

DOCKED: MODEL       70
DOCKED: USER    Run = 70
DOCKED: USER    DPF = D:/Protein_go_brrr/autodock/final/1A3N/IHP/dock.dpf
DOCKED: USER  
DOCKED: USER    Estimated Free Energy of Binding    =   +4.09 kcal/mol  [=(1)+(2)+(3)-(4)]
DOCKED: USER    
DOCKED: USER    (1) Final Intermolecular Energy     =   -3.07 kcal/mol
DOCKED: USER        vdW + Hbond + desolv Energy     =   -2.68 kcal/mol
DOCKED: USER        Electrostatic Energy            =   -0.39 kcal/mol
DOCKED: USER    (2) Final Total Internal Energy     =  -12.67 kcal/mol
DOCKED: USER    (3) Torsional Free Energy           =   +7.16 kcal/mol
DOCKED: USER    (4) Unbound System's Energy  [=(2)] =  -12.67 kcal/mol
DOCKED: USER    
DOCKED: USER    
DOCKED: USER    NEWDPF move IHP_ideal_opt.pdbqt
DOCKED: USER    NEWDPF about 0.035000 0.082000 -0.065000
DOCKED: USER    NEWDPF tran0 40.589518 -2.940009 38.703574
DOCKED: USER    NEWDPF quaternion0 -0.782394 0.218023 0.563715 -0.150173
DOCKED: USER    NEWDPF axisangle0 -0.791368 0.220523 0.570181 -162.726063
DOCKED: USER    NEWDPF quat0 -0.791368 0.220523 0.570181 -162.726063
DOCKED: USER    NEWDPF dihe0 99.34 30.78 174.28 13.11 -80.80 140.33 -134.77 -30.85 -8.33 34.18 92.41 -165.53 -179.95 -169.74 -175.47 -149.68 -133.04 150.99 38.58 6.90 175.61 3.32 152.16 -9.25 
DOCKED: USER  keepresnum = 1 
DOCKED: USER  
DOCKED: REMARK  24 active torsions:
DOCKED: REMARK  status: ('A' for Active; 'I' for Inactive)
DOCKED: REMARK    1  A    between atoms: C_1  and  O_7 
DOCKED: REMARK    2  A    between atoms: C_2  and  O_12 
DOCKED: REMARK    3  A    between atoms: C_3  and  O_17 
DOCKED: REMARK    4  A    between atoms: C_4  and  O_22 
DOCKED: REMARK    5  A    between atoms: C_5  and  O_27 
DOCKED: REMARK    6  A    between atoms: C_6  and  O_32 
DOCKED: REMARK    7  A    between atoms: O_7  and  P_8 
DOCKED: REMARK    8  A    between atoms: P_8  and  O_10 
DOCKED: REMARK    9  A    between atoms: P_8  and  O_11 
DOCKED: REMARK   10  A    between atoms: O_12  and  P_13 
DOCKED: REMARK   11  A    between atoms: P_13  and  O_15 
DOCKED: REMARK   12  A    between atoms: P_13  and  O_16 
DOCKED: REMARK   13  A    between atoms: O_17  and  P_18 
DOCKED: REMARK   14  A    between atoms: P_18  and  O_20 
DOCKED: REMARK   15  A    between atoms: P_18  and  O_21 
DOCKED: REMARK   16  A    between atoms: O_22  and  P_23 
DOCKED: REMARK   17  A    between atoms: P_23  and  O_25 
DOCKED: REMARK   18  A    between atoms: P_23  and  O_26 
DOCKED: REMARK   19  A    between atoms: O_27  and  P_28 
DOCKED: REMARK   20  A    between atoms: P_28  and  O_30 
DOCKED: REMARK   21  A    between atoms: P_28  and  O_31 
DOCKED: REMARK   22  A    between atoms: O_32  and  P_33 
DOCKED: REMARK   23  A    between atoms: P_33  and  O_35 
DOCKED: REMARK   24  A    between atoms: P_33  and  O_36 
DOCKED: USER                              x       y       z     vdW  Elec       q    Type
DOCKED: USER                           _______ _______ _______ _____ _____    ______ ____
DOCKED: ROOT
DOCKED: ATOM      1  C   UNL d   1      40.734  -2.012  37.254 -0.11 +0.08    +0.194 C 
DOCKED: ATOM      2  C   UNL d   1      41.110  -1.283  38.546 -0.08 +0.05    +0.194 C 
DOCKED: ATOM      3  C   UNL d   1      40.113  -1.573  39.670 -0.08 +0.05    +0.194 C 
DOCKED: ATOM      4  C   UNL d   1      39.878  -3.064  39.896 -0.04 +0.05    +0.194 C 
DOCKED: ATOM      5  C   UNL d   1      39.613  -3.851  38.618 -0.07 +0.08    +0.194 C 
DOCKED: ATOM      6  C   UNL d   1      40.572  -3.516  37.474 -0.07 +0.09    +0.194 C 
DOCKED: ENDROOT
DOCKED: BRANCH   1   7
DOCKED: ATOM      7  O   UNL d   1      41.797  -1.831  36.315 -0.06 -0.13    -0.278 OA
DOCKED: BRANCH   7   8
DOCKED: ATOM      8  P   UNL d   1      41.818  -0.494  35.441 -0.13 +0.32    +0.473 P 
DOCKED: ATOM      9  O   UNL d   1      41.949  -0.702  33.973 -0.37 -0.38    -0.228 OA
DOCKED: BRANCH   8  10
DOCKED: ATOM     10  O   UNL d   1      40.472   0.258  35.851 -0.22 -0.16    -0.303 OA
DOCKED: ATOM     11  H   UNL d   1      39.707  -0.316  35.661 +0.11 +0.14    +0.222 HD
DOCKED: ENDBRANCH   8  10
DOCKED: BRANCH   8  12
DOCKED: ATOM     12  O   UNL d   1      42.929   0.422  36.114 -0.05 -0.12    -0.303 OA
DOCKED: ATOM     13  H   UNL d   1      43.195   0.111  37.008 +0.03 +0.06    +0.222 HD
DOCKED: ENDBRANCH   8  12
DOCKED: ENDBRANCH   7   8
DOCKED: ENDBRANCH   1   7
DOCKED: BRANCH   2  14
DOCKED: ATOM     14  O   UNL d   1      42.410  -1.717  38.965 -0.02 -0.06    -0.278 OA
DOCKED: BRANCH  14  15
DOCKED: ATOM     15  P   UNL d   1      43.399  -0.584  39.516 -0.01 +0.07    +0.473 P 
DOCKED: ATOM     16  O   UNL d   1      44.626  -0.310  38.704 -0.00 -0.03    -0.228 OA
DOCKED: BRANCH  15  17
DOCKED: ATOM     17  O   UNL d   1      42.468   0.698  39.680 -0.03 -0.05    -0.303 OA
DOCKED: ATOM     18  H   UNL d   1      41.932   0.641  40.494 +0.02 +0.03    +0.222 HD
DOCKED: ENDBRANCH  15  17
DOCKED: BRANCH  15  19
DOCKED: ATOM     19  O   UNL d   1      43.657  -0.987  41.033 -0.00 -0.03    -0.303 OA
DOCKED: ATOM     20  H   UNL d   1      42.827  -1.211  41.493 +0.01 +0.03    +0.222 HD
DOCKED: ENDBRANCH  15  19
DOCKED: ENDBRANCH  14  15
DOCKED: ENDBRANCH   2  14
DOCKED: BRANCH   6  21
DOCKED: ATOM     21  O   UNL d   1      39.998  -4.053  36.285 -0.12 -0.23    -0.278 OA
DOCKED: BRANCH  21  22
DOCKED: ATOM     22  P   UNL d   1      38.726  -3.347  35.630 -0.27 +0.34    +0.473 P 
DOCKED: ATOM     23  O   UNL d   1      37.705  -4.209  34.968 -0.38 -0.21    -0.228 OA
DOCKED: BRANCH  22  24
DOCKED: ATOM     24  O   UNL d   1      38.179  -2.474  36.843 -0.19 -0.12    -0.303 OA
DOCKED: ATOM     25  H   UNL d   1      37.191  -2.432  36.771 -0.34 +0.00    +0.222 HD
DOCKED: ENDBRANCH  22  24
DOCKED: BRANCH  22  26
DOCKED: ATOM     26  O   UNL d   1      39.413  -2.233  34.704 -0.16 -0.23    -0.303 OA
DOCKED: ATOM     27  H   UNL d   1      40.230  -1.913  35.138 +0.08 +0.16    +0.222 HD
DOCKED: ENDBRANCH  22  26
DOCKED: ENDBRANCH  21  22
DOCKED: ENDBRANCH   6  21
DOCKED: BRANCH   3  28
DOCKED: ATOM     28  O   UNL d   1      40.682  -1.093  40.881 -0.04 -0.05    -0.278 OA
DOCKED: BRANCH  28  29
DOCKED: ATOM     29  P   UNL d   1      40.013   0.127  41.657 -0.04 +0.09    +0.473 P 
DOCKED: ATOM     30  O   UNL d   1      40.750   0.607  42.854 -0.01 -0.03    -0.228 OA
DOCKED: BRANCH  29  31
DOCKED: ATOM     31  O   UNL d   1      39.838   1.163  40.449 -0.06 -0.07    -0.303 OA
DOCKED: ATOM     32  H   UNL d   1      40.689   1.640  40.319 +0.03 +0.04    +0.222 HD
DOCKED: ENDBRANCH  29  31
DOCKED: BRANCH  29  33
DOCKED: ATOM     33  O   UNL d   1      38.528  -0.398  41.888 -0.05 -0.07    -0.303 OA
DOCKED: ATOM     34  H   UNL d   1      38.541  -1.386  41.936 +0.03 +0.05    +0.222 HD
DOCKED: ENDBRANCH  29  33
DOCKED: ENDBRANCH  28  29
DOCKED: ENDBRANCH   3  28
DOCKED: BRANCH   5  35
DOCKED: ATOM     35  O   UNL d   1      39.824  -5.220  38.956 -0.02 -0.12    -0.278 OA
DOCKED: BRANCH  35  36
DOCKED: ATOM     36  P   UNL d   1      41.306  -5.796  39.092 +0.00 +0.16    +0.473 P 
DOCKED: ATOM     37  O   UNL d   1      41.910  -6.325  37.830 -0.02 -0.11    -0.228 OA
DOCKED: BRANCH  36  38
DOCKED: ATOM     38  O   UNL d   1      42.081  -4.555  39.720 +0.00 -0.07    -0.303 OA
DOCKED: ATOM     39  H   UNL d   1      42.273  -3.904  39.010 +0.01 +0.05    +0.222 HD
DOCKED: ENDBRANCH  36  38
DOCKED: BRANCH  36  40
DOCKED: ATOM     40  O   UNL d   1      41.165  -6.813  40.307 +0.00 -0.07    -0.303 OA
DOCKED: ATOM     41  H   UNL d   1      40.281  -6.751  40.733 +0.00 +0.05    +0.222 HD
DOCKED: ENDBRANCH  36  40
DOCKED: ENDBRANCH  35  36
DOCKED: ENDBRANCH   5  35
DOCKED: BRANCH   4  42
DOCKED: ATOM     42  O   UNL d   1      38.707  -3.180  40.712 -0.03 -0.07    -0.278 OA
DOCKED: BRANCH  42  43
DOCKED: ATOM     43  P   UNL d   1      38.824  -3.904  42.129 +0.00 +0.09    +0.473 P 
DOCKED: ATOM     44  O   UNL d   1      37.560  -4.349  42.779 -0.01 -0.04    -0.228 OA
DOCKED: BRANCH  43  45
DOCKED: ATOM     45  O   UNL d   1      39.855  -5.081  41.836 +0.00 -0.05    -0.303 OA
DOCKED: ATOM     46  H   UNL d   1      40.376  -4.907  41.026 +0.01 +0.04    +0.222 HD
DOCKED: ENDBRANCH  43  45
DOCKED: BRANCH  43  47
DOCKED: ATOM     47  O   UNL d   1      39.723  -2.890  42.985 -0.00 -0.04    -0.303 OA
DOCKED: ATOM     48  H   UNL d   1      39.777  -2.032  42.516 +0.01 +0.04    +0.222 HD
DOCKED: ENDBRANCH  43  47
DOCKED: ENDBRANCH  42  43
DOCKED: ENDBRANCH   4  42
DOCKED: TORSDOF 24
DOCKED: TER
DOCKED: ENDMDL
________________________________________________________________________________


	BEGINNING GENETIC ALGORITHM DOCKING 71 of 100
Run: 71 Seed: 2139243632 513810923 [ Run 71 of 100 GA/GALS ]
Beginning LAMARCKIAN GENETIC ALGORITHM (LGA), with a maximum of 25000000 energy evaluations.

Final-Value: -18.359


	FINAL GENETIC ALGORITHM DOCKED STATE
	_______________________________________________


Detailed state:  trans 28.161 21.358 -5.715 quatxyzw -0.198709 0.009871 -0.928808 -0.312624 center 0.035 0.082 -0.065 ntor 24 92.6420 109.9022 153.2222 22.0196 133.7646 88.3605 173.5777 -101.2642 124.1919 107.3882 -122.6333 -155.9414 -71.8289 -141.5574 -168.0906 -50.4031 34.5051 -13.8800 -152.4422 2.2660 11.7046 143.1864 -168.7120 139.2531
State:	 28.161  21.358  -5.715  -0.209  0.010 -0.978 -143.565     92.64  109.90  153.22   22.02  133.76   88.36  173.58 -101.26  124.19  107.39 -122.63 -155.94  -71.83 -141.56 -168.09  -50.40   34.51  -13.88 -152.44    2.27   11.70  143.19 -168.71  139.25

DOCKED: MODEL       71
DOCKED: USER    Run = 71
DOCKED: USER    DPF = D:/Protein_go_brrr/autodock/final/1A3N/IHP/dock.dpf
DOCKED: USER  
DOCKED: USER    Estimated Free Energy of Binding    =   +4.12 kcal/mol  [=(1)+(2)+(3)-(4)]
DOCKED: USER    
DOCKED: USER    (1) Final Intermolecular Energy     =   -3.04 kcal/mol
DOCKED: USER        vdW + Hbond + desolv Energy     =   -2.96 kcal/mol
DOCKED: USER        Electrostatic Energy            =   -0.08 kcal/mol
DOCKED: USER    (2) Final Total Internal Energy     =  -15.32 kcal/mol
DOCKED: USER    (3) Torsional Free Energy           =   +7.16 kcal/mol
DOCKED: USER    (4) Unbound System's Energy  [=(2)] =  -15.32 kcal/mol
DOCKED: USER    
DOCKED: USER    
DOCKED: USER    NEWDPF move IHP_ideal_opt.pdbqt
DOCKED: USER    NEWDPF about 0.035000 0.082000 -0.065000
DOCKED: USER    NEWDPF tran0 28.160754 21.357718 -5.714895
DOCKED: USER    NEWDPF quaternion0 -0.198709 0.009871 -0.928808 -0.312624
DOCKED: USER    NEWDPF axisangle0 -0.209195 0.010392 -0.977819 -143.565157
DOCKED: USER    NEWDPF quat0 -0.209195 0.010392 -0.977819 -143.565157
DOCKED: USER    NEWDPF dihe0 92.64 109.90 153.22 22.02 133.76 88.36 173.58 -101.26 124.19 107.39 -122.63 -155.94 -71.83 -141.56 -168.09 -50.40 34.51 -13.88 -152.44 2.27 11.70 143.19 -168.71 139.25 
DOCKED: USER  keepresnum = 1 
DOCKED: USER  
DOCKED: REMARK  24 active torsions:
DOCKED: REMARK  status: ('A' for Active; 'I' for Inactive)
DOCKED: REMARK    1  A    between atoms: C_1  and  O_7 
DOCKED: REMARK    2  A    between atoms: C_2  and  O_12 
DOCKED: REMARK    3  A    between atoms: C_3  and  O_17 
DOCKED: REMARK    4  A    between atoms: C_4  and  O_22 
DOCKED: REMARK    5  A    between atoms: C_5  and  O_27 
DOCKED: REMARK    6  A    between atoms: C_6  and  O_32 
DOCKED: REMARK    7  A    between atoms: O_7  and  P_8 
DOCKED: REMARK    8  A    between atoms: P_8  and  O_10 
DOCKED: REMARK    9  A    between atoms: P_8  and  O_11 
DOCKED: REMARK   10  A    between atoms: O_12  and  P_13 
DOCKED: REMARK   11  A    between atoms: P_13  and  O_15 
DOCKED: REMARK   12  A    between atoms: P_13  and  O_16 
DOCKED: REMARK   13  A    between atoms: O_17  and  P_18 
DOCKED: REMARK   14  A    between atoms: P_18  and  O_20 
DOCKED: REMARK   15  A    between atoms: P_18  and  O_21 
DOCKED: REMARK   16  A    between atoms: O_22  and  P_23 
DOCKED: REMARK   17  A    between atoms: P_23  and  O_25 
DOCKED: REMARK   18  A    between atoms: P_23  and  O_26 
DOCKED: REMARK   19  A    between atoms: O_27  and  P_28 
DOCKED: REMARK   20  A    between atoms: P_28  and  O_30 
DOCKED: REMARK   21  A    between atoms: P_28  and  O_31 
DOCKED: REMARK   22  A    between atoms: O_32  and  P_33 
DOCKED: REMARK   23  A    between atoms: P_33  and  O_35 
DOCKED: REMARK   24  A    between atoms: P_33  and  O_36 
DOCKED: USER                              x       y       z     vdW  Elec       q    Type
DOCKED: USER                           _______ _______ _______ _____ _____    ______ ____
DOCKED: ROOT
DOCKED: ATOM      1  C   UNL d   1      27.036  21.423  -4.405 -0.14 -0.03    +0.194 C 
DOCKED: ATOM      2  C   UNL d   1      27.340  22.760  -5.083 -0.09 -0.01    +0.194 C 
DOCKED: ATOM      3  C   UNL d   1      28.834  22.925  -5.368 -0.04 -0.01    +0.194 C 
DOCKED: ATOM      4  C   UNL d   1      29.436  21.744  -6.126 -0.03 -0.01    +0.194 C 
DOCKED: ATOM      5  C   UNL d   1      29.064  20.384  -5.551 -0.11 -0.01    +0.194 C 
DOCKED: ATOM      6  C   UNL d   1      27.579  20.240  -5.208 -0.15 -0.01    +0.194 C 
DOCKED: ENDROOT
DOCKED: BRANCH   1   7
DOCKED: ATOM      7  O   UNL d   1      25.617  21.272  -4.332 -0.24 +0.04    -0.278 OA
DOCKED: BRANCH   7   8
DOCKED: ATOM      8  P   UNL d   1      24.851  20.667  -5.596 -0.18 +0.04    +0.473 P 
DOCKED: ATOM      9  O   UNL d   1      25.594  20.749  -6.883 -0.07 -0.01    -0.228 OA
DOCKED: BRANCH   8  10
DOCKED: ATOM     10  O   UNL d   1      24.511  19.170  -5.162 -0.57 -0.08    -0.303 OA
DOCKED: ATOM     11  H   UNL d   1      25.339  18.666  -5.049 +0.07 +0.02    +0.222 HD
DOCKED: ENDBRANCH   8  10
DOCKED: BRANCH   8  12
DOCKED: ATOM     12  O   UNL d   1      23.418  21.352  -5.578 -0.40 -0.05    -0.303 OA
DOCKED: ATOM     13  H   UNL d   1      23.453  22.324  -5.721 +0.07 +0.01    +0.222 HD
DOCKED: ENDBRANCH   8  12
DOCKED: ENDBRANCH   7   8
DOCKED: ENDBRANCH   1   7
DOCKED: BRANCH   2  14
DOCKED: ATOM     14  O   UNL d   1      26.628  22.826  -6.326 -0.02 +0.00    -0.278 OA
DOCKED: BRANCH  14  15
DOCKED: ATOM     15  P   UNL d   1      25.845  24.189  -6.631 +0.02 -0.01    +0.473 P 
DOCKED: ATOM     16  O   UNL d   1      24.457  24.304  -6.082 -0.03 +0.00    -0.228 OA
DOCKED: BRANCH  15  17
DOCKED: ATOM     17  O   UNL d   1      26.819  25.326  -6.088 -0.00 +0.01    -0.303 OA
DOCKED: ATOM     18  H   UNL d   1      27.694  25.274  -6.519 +0.01 -0.00    +0.222 HD
DOCKED: ENDBRANCH  15  17
DOCKED: BRANCH  15  19
DOCKED: ATOM     19  O   UNL d   1      25.977  24.379  -8.204 -0.00 -0.00    -0.303 OA
DOCKED: ATOM     20  H   UNL d   1      26.854  24.100  -8.528 +0.00 +0.00    +0.222 HD
DOCKED: ENDBRANCH  15  19
DOCKED: ENDBRANCH  14  15
DOCKED: ENDBRANCH   2  14
DOCKED: BRANCH   6  21
DOCKED: ATOM     21  O   UNL d   1      27.456  19.083  -4.384 -0.21 +0.03    -0.278 OA
DOCKED: BRANCH  21  22
DOCKED: ATOM     22  P   UNL d   1      27.187  17.660  -5.053 -0.10 +0.03    +0.473 P 
DOCKED: ATOM     23  O   UNL d   1      26.197  16.752  -4.404 -0.36 -0.03    -0.228 OA
DOCKED: BRANCH  22  24
DOCKED: ATOM     24  O   UNL d   1      26.840  18.065  -6.552 -0.06 -0.02    -0.303 OA
DOCKED: ATOM     25  H   UNL d   1      27.660  18.430  -6.971 +0.05 +0.01    +0.222 HD
DOCKED: ENDBRANCH  22  24
DOCKED: BRANCH  22  26
DOCKED: ATOM     26  O   UNL d   1      28.676  17.085  -5.202 -0.14 -0.03    -0.303 OA
DOCKED: ATOM     27  H   UNL d   1      29.064  17.408  -6.041 +0.07 +0.01    +0.222 HD
DOCKED: ENDBRANCH  22  26
DOCKED: ENDBRANCH  21  22
DOCKED: ENDBRANCH   6  21
DOCKED: BRANCH   3  28
DOCKED: ATOM     28  O   UNL d   1      28.984  24.044  -6.232 -0.00 +0.01    -0.278 OA
DOCKED: BRANCH  28  29
DOCKED: ATOM     29  P   UNL d   1      29.337  23.831  -7.771 +0.01 -0.00    +0.473 P 
DOCKED: ATOM     30  O   UNL d   1      30.751  23.481  -8.062 -0.00 +0.00    -0.228 OA
DOCKED: BRANCH  29  31
DOCKED: ATOM     31  O   UNL d   1      28.225  22.749  -8.164 +0.00 -0.00    -0.303 OA
DOCKED: ATOM     32  H   UNL d   1      28.653  22.037  -8.695 +0.00 +0.00    +0.222 HD
DOCKED: ENDBRANCH  29  31
DOCKED: BRANCH  29  33
DOCKED: ATOM     33  O   UNL d   1      28.776  25.167  -8.431 +0.00 +0.00    -0.303 OA
DOCKED: ATOM     34  H   UNL d   1      27.897  25.379  -8.030 +0.00 -0.00    +0.222 HD
DOCKED: ENDBRANCH  29  33
DOCKED: ENDBRANCH  28  29
DOCKED: ENDBRANCH   3  28
DOCKED: BRANCH   5  35
DOCKED: ATOM     35  O   UNL d   1      29.351  19.437  -6.578 -0.03 +0.00    -0.278 OA
DOCKED: BRANCH  35  36
DOCKED: ATOM     36  P   UNL d   1      29.059  19.795  -8.105 +0.01 +0.01    +0.473 P 
DOCKED: ATOM     37  O   UNL d   1      30.074  20.671  -8.768 -0.00 -0.00    -0.228 OA
DOCKED: BRANCH  36  38
DOCKED: ATOM     38  O   UNL d   1      28.917  18.349  -8.757 +0.00 -0.01    -0.303 OA
DOCKED: ATOM     39  H   UNL d   1      28.242  17.838  -8.261 +0.02 +0.01    +0.222 HD
DOCKED: ENDBRANCH  36  38
DOCKED: BRANCH  36  40
DOCKED: ATOM     40  O   UNL d   1      27.564  20.337  -8.048 -0.00 -0.01    -0.303 OA
DOCKED: ATOM     41  H   UNL d   1      27.501  21.175  -7.538 +0.02 +0.00    +0.222 HD
DOCKED: ENDBRANCH  36  40
DOCKED: ENDBRANCH  35  36
DOCKED: ENDBRANCH   5  35
DOCKED: BRANCH   4  42
DOCKED: ATOM     42  O   UNL d   1      30.858  21.869  -6.026 -0.02 +0.01    -0.278 OA
DOCKED: BRANCH  42  43
DOCKED: ATOM     43  P   UNL d   1      31.481  22.605  -4.755 -0.07 -0.04    +0.473 P 
DOCKED: ATOM     44  O   UNL d   1      30.746  22.488  -3.465 -0.19 +0.04    -0.228 OA
DOCKED: BRANCH  43  45
DOCKED: ATOM     45  O   UNL d   1      32.965  22.034  -4.713 -0.07 +0.02    -0.303 OA
DOCKED: ATOM     46  H   UNL d   1      33.541  22.576  -4.137 +0.04 -0.02    +0.222 HD
DOCKED: ENDBRANCH  43  45
DOCKED: BRANCH  43  47
DOCKED: ATOM     47  O   UNL d   1      31.722  24.101  -5.280 -0.02 +0.02    -0.303 OA
DOCKED: ATOM     48  H   UNL d   1      31.127  24.276  -6.038 +0.02 -0.01    +0.222 HD
DOCKED: ENDBRANCH  43  47
DOCKED: ENDBRANCH  42  43
DOCKED: ENDBRANCH   4  42
DOCKED: TORSDOF 24
DOCKED: TER
DOCKED: ENDMDL
________________________________________________________________________________


	BEGINNING GENETIC ALGORITHM DOCKING 72 of 100
Run: 72 Seed: 976070465 596221111 [ Run 72 of 100 GA/GALS ]
Beginning LAMARCKIAN GENETIC ALGORITHM (LGA), with a maximum of 25000000 energy evaluations.

Final-Value: -16.995


	FINAL GENETIC ALGORITHM DOCKED STATE
	_______________________________________________


Detailed state:  trans 8.349 -12.201 18.338 quatxyzw -0.472467 -0.112415 0.402153 0.776151 center 0.035 0.082 -0.065 ntor 24 101.2007 179.8716 24.5569 24.8410 15.0325 143.2897 -162.8241 -5.0377 21.5838 9.7806 168.9774 95.7069 -37.1164 -175.3684 -179.9807 52.2081 178.6599 -125.7515 39.7511 -24.2947 -20.0712 157.9499 -26.4881 158.0953
State:	  8.349 -12.201  18.338  -0.749 -0.178  0.638 78.181    101.20  179.87   24.56   24.84   15.03  143.29 -162.82   -5.04   21.58    9.78  168.98   95.71  -37.12 -175.37 -179.98   52.21  178.66 -125.75   39.75  -24.29  -20.07  157.95  -26.49  158.10

DOCKED: MODEL       72
DOCKED: USER    Run = 72
DOCKED: USER    DPF = D:/Protein_go_brrr/autodock/final/1A3N/IHP/dock.dpf
DOCKED: USER  
DOCKED: USER    Estimated Free Energy of Binding    =   +2.54 kcal/mol  [=(1)+(2)+(3)-(4)]
DOCKED: USER    
DOCKED: USER    (1) Final Intermolecular Energy     =   -4.62 kcal/mol
DOCKED: USER        vdW + Hbond + desolv Energy     =   -4.27 kcal/mol
DOCKED: USER        Electrostatic Energy            =   -0.35 kcal/mol
DOCKED: USER    (2) Final Total Internal Energy     =  -12.37 kcal/mol
DOCKED: USER    (3) Torsional Free Energy           =   +7.16 kcal/mol
DOCKED: USER    (4) Unbound System's Energy  [=(2)] =  -12.37 kcal/mol
DOCKED: USER    
DOCKED: USER    
DOCKED: USER    NEWDPF move IHP_ideal_opt.pdbqt
DOCKED: USER    NEWDPF about 0.035000 0.082000 -0.065000
DOCKED: USER    NEWDPF tran0 8.348640 -12.200875 18.337639
DOCKED: USER    NEWDPF quaternion0 -0.472467 -0.112415 0.402153 0.776151
DOCKED: USER    NEWDPF axisangle0 -0.749297 -0.178281 0.637785 78.181026
DOCKED: USER    NEWDPF quat0 -0.749297 -0.178281 0.637785 78.181026
DOCKED: USER    NEWDPF dihe0 101.20 179.87 24.56 24.84 15.03 143.29 -162.82 -5.04 21.58 9.78 168.98 95.71 -37.12 -175.37 -179.98 52.21 178.66 -125.75 39.75 -24.29 -20.07 157.95 -26.49 158.10 
DOCKED: USER  keepresnum = 1 
DOCKED: USER  
DOCKED: REMARK  24 active torsions:
DOCKED: REMARK  status: ('A' for Active; 'I' for Inactive)
DOCKED: REMARK    1  A    between atoms: C_1  and  O_7 
DOCKED: REMARK    2  A    between atoms: C_2  and  O_12 
DOCKED: REMARK    3  A    between atoms: C_3  and  O_17 
DOCKED: REMARK    4  A    between atoms: C_4  and  O_22 
DOCKED: REMARK    5  A    between atoms: C_5  and  O_27 
DOCKED: REMARK    6  A    between atoms: C_6  and  O_32 
DOCKED: REMARK    7  A    between atoms: O_7  and  P_8 
DOCKED: REMARK    8  A    between atoms: P_8  and  O_10 
DOCKED: REMARK    9  A    between atoms: P_8  and  O_11 
DOCKED: REMARK   10  A    between atoms: O_12  and  P_13 
DOCKED: REMARK   11  A    between atoms: P_13  and  O_15 
DOCKED: REMARK   12  A    between atoms: P_13  and  O_16 
DOCKED: REMARK   13  A    between atoms: O_17  and  P_18 
DOCKED: REMARK   14  A    between atoms: P_18  and  O_20 
DOCKED: REMARK   15  A    between atoms: P_18  and  O_21 
DOCKED: REMARK   16  A    between atoms: O_22  and  P_23 
DOCKED: REMARK   17  A    between atoms: P_23  and  O_25 
DOCKED: REMARK   18  A    between atoms: P_23  and  O_26 
DOCKED: REMARK   19  A    between atoms: O_27  and  P_28 
DOCKED: REMARK   20  A    between atoms: P_28  and  O_30 
DOCKED: REMARK   21  A    between atoms: P_28  and  O_31 
DOCKED: REMARK   22  A    between atoms: O_32  and  P_33 
DOCKED: REMARK   23  A    between atoms: P_33  and  O_35 
DOCKED: REMARK   24  A    between atoms: P_33  and  O_36 
DOCKED: USER                              x       y       z     vdW  Elec       q    Type
DOCKED: USER                           _______ _______ _______ _____ _____    ______ ____
DOCKED: ROOT
DOCKED: ATOM      1  C   UNL d   1       8.353 -13.706  17.490 -0.02 +0.11    +0.194 C 
DOCKED: ATOM      2  C   UNL d   1       7.029 -12.940  17.470 -0.04 +0.08    +0.194 C 
DOCKED: ATOM      3  C   UNL d   1       6.690 -12.358  18.844 -0.07 +0.07    +0.194 C 
DOCKED: ATOM      4  C   UNL d   1       7.826 -11.532  19.444 -0.05 +0.06    +0.194 C 
DOCKED: ATOM      5  C   UNL d   1       9.188 -12.211  19.380 -0.08 +0.08    +0.194 C 
DOCKED: ATOM      6  C   UNL d   1       9.501 -12.847  18.024 -0.05 +0.10    +0.194 C 
DOCKED: ENDROOT
DOCKED: BRANCH   1   7
DOCKED: ATOM      7  O   UNL d   1       8.681 -14.066  16.145 -0.00 -0.19    -0.278 OA
DOCKED: BRANCH   7   8
DOCKED: ATOM      8  P   UNL d   1       8.012 -15.378  15.526 +0.01 +0.41    +0.473 P 
DOCKED: ATOM      9  O   UNL d   1       6.854 -15.916  16.291 -0.02 -0.14    -0.228 OA
DOCKED: BRANCH   8  10
DOCKED: ATOM     10  O   UNL d   1       7.637 -14.954  14.035 -0.17 -0.40    -0.303 OA
DOCKED: ATOM     11  H   UNL d   1       7.060 -14.168  14.053 +0.07 +0.21    +0.222 HD
DOCKED: ENDBRANCH   8  10
DOCKED: BRANCH   8  12
DOCKED: ATOM     12  O   UNL d   1       9.218 -16.385  15.293 -0.08 -0.35    -0.303 OA
DOCKED: ATOM     13  H   UNL d   1       9.021 -17.300  15.599 +0.03 +0.23    +0.222 HD
DOCKED: ENDBRANCH   8  12
DOCKED: ENDBRANCH   7   8
DOCKED: ENDBRANCH   1   7
DOCKED: BRANCH   2  14
DOCKED: ATOM     14  O   UNL d   1       7.126 -11.864  16.529 -0.03 -0.11    -0.278 OA
DOCKED: BRANCH  14  15
DOCKED: ATOM     15  P   UNL d   1       6.314 -12.034  15.160 -0.08 +0.21    +0.473 P 
DOCKED: ATOM     16  O   UNL d   1       7.116 -12.017  13.896 -0.69 -0.17    -0.228 OA
DOCKED: BRANCH  15  17
DOCKED: ATOM     17  O   UNL d   1       5.502 -13.390  15.357 -0.05 -0.13    -0.303 OA
DOCKED: ATOM     18  H   UNL d   1       6.097 -14.163  15.333 +0.07 +0.12    +0.222 HD
DOCKED: ENDBRANCH  15  17
DOCKED: BRANCH  15  19
DOCKED: ATOM     19  O   UNL d   1       5.153 -10.950  15.250 -0.22 -0.08    -0.303 OA
DOCKED: ATOM     20  H   UNL d   1       4.831 -10.842  16.163 +0.10 +0.05    +0.222 HD
DOCKED: ENDBRANCH  15  19
DOCKED: ENDBRANCH  14  15
DOCKED: ENDBRANCH   2  14
DOCKED: BRANCH   6  21
DOCKED: ATOM     21  O   UNL d   1      10.615 -13.714  18.222 -0.11 -0.23    -0.278 OA
DOCKED: BRANCH  21  22
DOCKED: ATOM     22  P   UNL d   1      11.946 -13.501  17.369 -0.06 +0.39    +0.473 P 
DOCKED: ATOM     23  O   UNL d   1      12.781 -14.696  17.055 -0.31 -0.31    -0.228 OA
DOCKED: BRANCH  22  24
DOCKED: ATOM     24  O   UNL d   1      11.395 -12.720  16.096 -0.01 -0.18    -0.303 OA
DOCKED: ATOM     25  H   UNL d   1      10.624 -13.227  15.733 +0.04 +0.15    +0.222 HD
DOCKED: ENDBRANCH  22  24
DOCKED: BRANCH  22  26
DOCKED: ATOM     26  O   UNL d   1      12.673 -12.330  18.187 -0.14 -0.18    -0.303 OA
DOCKED: ATOM     27  H   UNL d   1      11.995 -11.760  18.604 +0.09 +0.11    +0.222 HD
DOCKED: ENDBRANCH  22  26
DOCKED: ENDBRANCH  21  22
DOCKED: ENDBRANCH   6  21
DOCKED: BRANCH   3  28
DOCKED: ATOM     28  O   UNL d   1       5.613 -11.448  18.669 -0.10 -0.09    -0.278 OA
DOCKED: BRANCH  28  29
DOCKED: ATOM     29  P   UNL d   1       5.899  -9.906  18.393 -0.06 +0.13    +0.473 P 
DOCKED: ATOM     30  O   UNL d   1       7.202  -9.602  17.747 -0.04 -0.06    -0.228 OA
DOCKED: BRANCH  29  31
DOCKED: ATOM     31  O   UNL d   1       4.577  -9.518  17.579 -0.21 -0.08    -0.303 OA
DOCKED: ATOM     32  H   UNL d   1       4.827  -9.332  16.644 +0.09 +0.05    +0.222 HD
DOCKED: ENDBRANCH  29  31
DOCKED: BRANCH  29  33
DOCKED: ATOM     33  O   UNL d   1       5.636  -9.255  19.822 -0.08 -0.09    -0.303 OA
DOCKED: ATOM     34  H   UNL d   1       6.190  -9.722  20.495 +0.07 +0.06    +0.222 HD
DOCKED: ENDBRANCH  29  33
DOCKED: ENDBRANCH  28  29
DOCKED: ENDBRANCH   3  28
DOCKED: BRANCH   5  35
DOCKED: ATOM     35  O   UNL d   1      10.146 -11.177  19.590 -0.07 -0.10    -0.278 OA
DOCKED: BRANCH  35  36
DOCKED: ATOM     36  P   UNL d   1      10.887 -11.038  20.996 -0.15 +0.13    +0.473 P 
DOCKED: ATOM     37  O   UNL d   1      11.017  -9.643  21.521 -0.26 -0.03    -0.228 OA
DOCKED: BRANCH  36  38
DOCKED: ATOM     38  O   UNL d   1      10.020 -12.005  21.917 -0.16 -0.05    -0.303 OA
DOCKED: ATOM     39  H   UNL d   1       9.068 -11.802  21.790 +0.06 +0.03    +0.222 HD
DOCKED: ENDBRANCH  36  38
DOCKED: BRANCH  36  40
DOCKED: ATOM     40  O   UNL d   1      12.234 -11.847  20.752 -0.26 -0.12    -0.303 OA
DOCKED: ATOM     41  H   UNL d   1      12.103 -12.591  20.123 +0.10 +0.12    +0.222 HD
DOCKED: ENDBRANCH  36  40
DOCKED: ENDBRANCH  35  36
DOCKED: ENDBRANCH   5  35
DOCKED: BRANCH   4  42
DOCKED: ATOM     42  O   UNL d   1       7.514 -11.343  20.828 -0.05 -0.07    -0.278 OA
DOCKED: BRANCH  42  43
DOCKED: ATOM     43  P   UNL d   1       7.046 -12.599  21.692 -0.09 +0.14    +0.473 P 
DOCKED: ATOM     44  O   UNL d   1       5.625 -13.027  21.567 -0.70 -0.14    -0.228 OA
DOCKED: BRANCH  43  45
DOCKED: ATOM     45  O   UNL d   1       8.101 -13.717  21.283 -0.14 -0.11    -0.303 OA
DOCKED: ATOM     46  H   UNL d   1       8.838 -13.766  21.925 +0.05 +0.05    +0.222 HD
DOCKED: ENDBRANCH  43  45
DOCKED: BRANCH  43  47
DOCKED: ATOM     47  O   UNL d   1       7.527 -12.223  23.174 -0.14 -0.01    -0.303 OA
DOCKED: ATOM     48  H   UNL d   1       8.462 -12.494  23.288 -0.25 -0.04    +0.222 HD
DOCKED: ENDBRANCH  43  47
DOCKED: ENDBRANCH  42  43
DOCKED: ENDBRANCH   4  42
DOCKED: TORSDOF 24
DOCKED: TER
DOCKED: ENDMDL
________________________________________________________________________________


	BEGINNING GENETIC ALGORITHM DOCKING 73 of 100
Run: 73 Seed: 1676127055 722611136 [ Run 73 of 100 GA/GALS ]
Beginning LAMARCKIAN GENETIC ALGORITHM (LGA), with a maximum of 25000000 energy evaluations.

Final-Value: -15.997


	FINAL GENETIC ALGORITHM DOCKED STATE
	_______________________________________________


Detailed state:  trans 39.907 14.802 20.857 quatxyzw 0.287427 -0.884525 0.345287 -0.125609 center 0.035 0.082 -0.065 ntor 24 63.1347 -4.6900 -174.2359 -179.8068 -180.0000 -150.3762 46.8860 -66.6799 14.8281 105.4953 168.9336 148.8640 -179.9265 43.1027 83.3276 -66.5473 -72.1888 180.0000 -157.9650 6.3092 12.5900 -19.7361 -174.1801 29.0535
State:	 39.907  14.802  20.857   0.290 -0.892  0.348 -165.568     63.13   -4.69 -174.24 -179.81 -180.00 -150.38   46.89  -66.68   14.83  105.50  168.93  148.86 -179.93   43.10   83.33  -66.55  -72.19  180.00 -157.96    6.31   12.59  -19.74 -174.18   29.05

DOCKED: MODEL       73
DOCKED: USER    Run = 73
DOCKED: USER    DPF = D:/Protein_go_brrr/autodock/final/1A3N/IHP/dock.dpf
DOCKED: USER  
DOCKED: USER    Estimated Free Energy of Binding    =   +4.76 kcal/mol  [=(1)+(2)+(3)-(4)]
DOCKED: USER    
DOCKED: USER    (1) Final Intermolecular Energy     =   -2.39 kcal/mol
DOCKED: USER        vdW + Hbond + desolv Energy     =   -2.34 kcal/mol
DOCKED: USER        Electrostatic Energy            =   -0.05 kcal/mol
DOCKED: USER    (2) Final Total Internal Energy     =  -13.60 kcal/mol
DOCKED: USER    (3) Torsional Free Energy           =   +7.16 kcal/mol
DOCKED: USER    (4) Unbound System's Energy  [=(2)] =  -13.60 kcal/mol
DOCKED: USER    
DOCKED: USER    
DOCKED: USER    NEWDPF move IHP_ideal_opt.pdbqt
DOCKED: USER    NEWDPF about 0.035000 0.082000 -0.065000
DOCKED: USER    NEWDPF tran0 39.906906 14.802007 20.857239
DOCKED: USER    NEWDPF quaternion0 0.287427 -0.884525 0.345287 -0.125609
DOCKED: USER    NEWDPF axisangle0 0.289722 -0.891587 0.348044 -165.568109
DOCKED: USER    NEWDPF quat0 0.289722 -0.891587 0.348044 -165.568109
DOCKED: USER    NEWDPF dihe0 63.13 -4.69 -174.24 -179.81 -180.00 -150.38 46.89 -66.68 14.83 105.50 168.93 148.86 -179.93 43.10 83.33 -66.55 -72.19 180.00 -157.96 6.31 12.59 -19.74 -174.18 29.05 
DOCKED: USER  keepresnum = 1 
DOCKED: USER  
DOCKED: REMARK  24 active torsions:
DOCKED: REMARK  status: ('A' for Active; 'I' for Inactive)
DOCKED: REMARK    1  A    between atoms: C_1  and  O_7 
DOCKED: REMARK    2  A    between atoms: C_2  and  O_12 
DOCKED: REMARK    3  A    between atoms: C_3  and  O_17 
DOCKED: REMARK    4  A    between atoms: C_4  and  O_22 
DOCKED: REMARK    5  A    between atoms: C_5  and  O_27 
DOCKED: REMARK    6  A    between atoms: C_6  and  O_32 
DOCKED: REMARK    7  A    between atoms: O_7  and  P_8 
DOCKED: REMARK    8  A    between atoms: P_8  and  O_10 
DOCKED: REMARK    9  A    between atoms: P_8  and  O_11 
DOCKED: REMARK   10  A    between atoms: O_12  and  P_13 
DOCKED: REMARK   11  A    between atoms: P_13  and  O_15 
DOCKED: REMARK   12  A    between atoms: P_13  and  O_16 
DOCKED: REMARK   13  A    between atoms: O_17  and  P_18 
DOCKED: REMARK   14  A    between atoms: P_18  and  O_20 
DOCKED: REMARK   15  A    between atoms: P_18  and  O_21 
DOCKED: REMARK   16  A    between atoms: O_22  and  P_23 
DOCKED: REMARK   17  A    between atoms: P_23  and  O_25 
DOCKED: REMARK   18  A    between atoms: P_23  and  O_26 
DOCKED: REMARK   19  A    between atoms: O_27  and  P_28 
DOCKED: REMARK   20  A    between atoms: P_28  and  O_30 
DOCKED: REMARK   21  A    between atoms: P_28  and  O_31 
DOCKED: REMARK   22  A    between atoms: O_32  and  P_33 
DOCKED: REMARK   23  A    between atoms: P_33  and  O_35 
DOCKED: REMARK   24  A    between atoms: P_33  and  O_36 
DOCKED: USER                              x       y       z     vdW  Elec       q    Type
DOCKED: USER                           _______ _______ _______ _____ _____    ______ ____
DOCKED: ROOT
DOCKED: ATOM      1  C   UNL d   1      39.410  13.204  21.285 -0.08 -0.01    +0.194 C 
DOCKED: ATOM      2  C   UNL d   1      40.900  13.503  21.463 -0.05 -0.03    +0.194 C 
DOCKED: ATOM      3  C   UNL d   1      41.466  14.288  20.277 -0.04 -0.02    +0.194 C 
DOCKED: ATOM      4  C   UNL d   1      40.660  15.542  19.947 -0.07 -0.03    +0.194 C 
DOCKED: ATOM      5  C   UNL d   1      39.156  15.313  19.874 -0.14 -0.03    +0.194 C 
DOCKED: ATOM      6  C   UNL d   1      38.600  14.475  21.028 -0.13 -0.01    +0.194 C 
DOCKED: ENDROOT
DOCKED: BRANCH   1   7
DOCKED: ATOM      7  O   UNL d   1      38.923  12.627  22.499 -0.08 +0.03    -0.278 OA
DOCKED: BRANCH   7   8
DOCKED: ATOM      8  P   UNL d   1      38.590  13.600  23.721 -0.08 -0.08    +0.473 P 
DOCKED: ATOM      9  O   UNL d   1      39.222  13.227  25.016 -0.20 +0.10    -0.228 OA
DOCKED: BRANCH   8  10
DOCKED: ATOM     10  O   UNL d   1      39.031  15.042  23.199 -0.02 +0.04    -0.303 OA
DOCKED: ATOM     11  H   UNL d   1      39.940  15.233  23.496 +0.04 -0.04    +0.222 HD
DOCKED: ENDBRANCH   8  10
DOCKED: BRANCH   8  12
DOCKED: ATOM     12  O   UNL d   1      37.005  13.721  23.732 -0.11 +0.00    -0.303 OA
DOCKED: ATOM     13  H   UNL d   1      36.629  13.940  22.850 +0.08 +0.00    +0.222 HD
DOCKED: ENDBRANCH   8  12
DOCKED: ENDBRANCH   7   8
DOCKED: ENDBRANCH   1   7
DOCKED: BRANCH   2  14
DOCKED: ATOM     14  O   UNL d   1      41.082  14.280  22.653 -0.01 +0.06    -0.278 OA
DOCKED: BRANCH  14  15
DOCKED: ATOM     15  P   UNL d   1      42.322  13.882  23.585 -0.00 -0.17    +0.473 P 
DOCKED: ATOM     16  O   UNL d   1      43.565  14.702  23.436 -0.00 +0.05    -0.228 OA
DOCKED: BRANCH  15  17
DOCKED: ATOM     17  O   UNL d   1      41.726  13.925  25.062 -0.06 +0.19    -0.303 OA
DOCKED: ATOM     18  H   UNL d   1      41.363  13.057  25.320 -0.05 -0.25    +0.222 HD
DOCKED: ENDBRANCH  15  17
DOCKED: BRANCH  15  19
DOCKED: ATOM     19  O   UNL d   1      42.502  12.318  23.359 -0.04 +0.16    -0.303 OA
DOCKED: ATOM     20  H   UNL d   1      43.386  12.103  23.010 +0.02 -0.09    +0.222 HD
DOCKED: ENDBRANCH  15  19
DOCKED: ENDBRANCH  14  15
DOCKED: ENDBRANCH   2  14
DOCKED: BRANCH   6  21
DOCKED: ATOM     21  O   UNL d   1      37.289  14.065  20.645 -0.45 -0.02    -0.278 OA
DOCKED: BRANCH  21  22
DOCKED: ATOM     22  P   UNL d   1      36.036  14.985  21.005 -0.10 -0.00    +0.473 P 
DOCKED: ATOM     23  O   UNL d   1      35.287  15.625  19.886 -0.40 +0.02    -0.228 OA
DOCKED: BRANCH  22  24
DOCKED: ATOM     24  O   UNL d   1      35.169  14.010  21.917 -0.15 +0.01    -0.303 OA
DOCKED: ATOM     25  H   UNL d   1      35.150  14.382  22.835 +0.08 -0.00    +0.222 HD
DOCKED: ENDBRANCH  22  24
DOCKED: BRANCH  22  26
DOCKED: ATOM     26  O   UNL d   1      36.665  15.982  22.092 -0.06 +0.01    -0.303 OA
DOCKED: ATOM     27  H   UNL d   1      37.593  16.177  21.850 +0.05 -0.01    +0.222 HD
DOCKED: ENDBRANCH  22  26
DOCKED: ENDBRANCH  21  22
DOCKED: ENDBRANCH   6  21
DOCKED: BRANCH   3  28
DOCKED: ATOM     28  O   UNL d   1      42.756  14.754  20.649 -0.00 +0.03    -0.278 OA
DOCKED: BRANCH  28  29
DOCKED: ATOM     29  P   UNL d   1      44.048  13.875  20.344 +0.01 -0.06    +0.473 P 
DOCKED: ATOM     30  O   UNL d   1      44.476  12.964  21.437 -0.00 +0.04    -0.228 OA
DOCKED: BRANCH  29  31
DOCKED: ATOM     31  O   UNL d   1      43.605  13.197  18.964 -0.01 +0.03    -0.303 OA
DOCKED: ATOM     32  H   UNL d   1      44.009  13.702  18.222 +0.02 -0.02    +0.222 HD
DOCKED: ENDBRANCH  29  31
DOCKED: BRANCH  29  33
DOCKED: ATOM     33  O   UNL d   1      45.098  14.976  19.873 +0.00 +0.03    -0.303 OA
DOCKED: ATOM     34  H   UNL d   1      44.634  15.844  19.784 +0.00 -0.02    +0.222 HD
DOCKED: ENDBRANCH  29  33
DOCKED: ENDBRANCH  28  29
DOCKED: ENDBRANCH   3  28
DOCKED: BRANCH   5  35
DOCKED: ATOM     35  O   UNL d   1      38.562  16.606  19.970 -0.15 +0.03    -0.278 OA
DOCKED: BRANCH  35  36
DOCKED: ATOM     36  P   UNL d   1      39.100  17.661  21.038 -0.02 -0.02    +0.473 P 
DOCKED: ATOM     37  O   UNL d   1      39.718  17.076  22.268 -0.01 +0.02    -0.228 OA
DOCKED: BRANCH  36  38
DOCKED: ATOM     38  O   UNL d   1      40.097  18.536  20.157 -0.03 +0.01    -0.303 OA
DOCKED: ATOM     39  H   UNL d   1      40.757  17.945  19.735 +0.04 -0.01    +0.222 HD
DOCKED: ENDBRANCH  36  38
DOCKED: BRANCH  36  40
DOCKED: ATOM     40  O   UNL d   1      37.840  18.608  21.244 -0.05 -0.01    -0.303 OA
DOCKED: ATOM     41  H   UNL d   1      37.080  18.123  21.636 +0.05 +0.01    +0.222 HD
DOCKED: ENDBRANCH  36  40
DOCKED: ENDBRANCH  35  36
DOCKED: ENDBRANCH   5  35
DOCKED: BRANCH   4  42
DOCKED: ATOM     42  O   UNL d   1      41.084  15.977  18.651 -0.08 +0.04    -0.278 OA
DOCKED: BRANCH  42  43
DOCKED: ATOM     43  P   UNL d   1      42.415  16.846  18.526 -0.02 -0.04    +0.473 P 
DOCKED: ATOM     44  O   UNL d   1      42.367  18.056  17.658 -0.06 +0.01    -0.228 OA
DOCKED: BRANCH  43  45
DOCKED: ATOM     45  O   UNL d   1      42.778  17.149  20.045 -0.00 +0.02    -0.303 OA
DOCKED: ATOM     46  H   UNL d   1      43.431  16.509  20.392 +0.01 -0.02    +0.222 HD
DOCKED: ENDBRANCH  43  45
DOCKED: BRANCH  43  47
DOCKED: ATOM     47  O   UNL d   1      43.527  15.759  18.136 -0.01 +0.02    -0.303 OA
DOCKED: ATOM     48  H   UNL d   1      43.300  14.902  18.554 +0.02 -0.02    +0.222 HD
DOCKED: ENDBRANCH  43  47
DOCKED: ENDBRANCH  42  43
DOCKED: ENDBRANCH   4  42
DOCKED: TORSDOF 24
DOCKED: TER
DOCKED: ENDMDL
________________________________________________________________________________


	BEGINNING GENETIC ALGORITHM DOCKING 74 of 100
Run: 74 Seed: 788764254 920956389 [ Run 74 of 100 GA/GALS ]
Beginning LAMARCKIAN GENETIC ALGORITHM (LGA), with a maximum of 25000000 energy evaluations.

Final-Value: -19.370


	FINAL GENETIC ALGORITHM DOCKED STATE
	_______________________________________________


Detailed state:  trans -8.386 -19.720 16.282 quatxyzw 0.467377 -0.352841 -0.393322 0.708773 center 0.035 0.082 -0.065 ntor 24 92.9629 100.9929 70.4413 98.6771 -25.4023 123.1016 4.0997 -103.4295 107.7723 93.7803 -2.0073 -117.5378 -61.2976 -83.5692 -156.2367 -116.4835 109.6134 -51.1924 -156.3077 -16.7199 -3.3422 19.1444 -16.7448 171.5702
State:	 -8.386 -19.720  16.282   0.663 -0.500 -0.558 89.730     92.96  100.99   70.44   98.68  -25.40  123.10    4.10 -103.43  107.77   93.78   -2.01 -117.54  -61.30  -83.57 -156.24 -116.48  109.61  -51.19 -156.31  -16.72   -3.34   19.14  -16.74  171.57

DOCKED: MODEL       74
DOCKED: USER    Run = 74
DOCKED: USER    DPF = D:/Protein_go_brrr/autodock/final/1A3N/IHP/dock.dpf
DOCKED: USER  
DOCKED: USER    Estimated Free Energy of Binding    =   +3.80 kcal/mol  [=(1)+(2)+(3)-(4)]
DOCKED: USER    
DOCKED: USER    (1) Final Intermolecular Energy     =   -3.36 kcal/mol
DOCKED: USER        vdW + Hbond + desolv Energy     =   -3.30 kcal/mol
DOCKED: USER        Electrostatic Energy            =   -0.06 kcal/mol
DOCKED: USER    (2) Final Total Internal Energy     =  -16.01 kcal/mol
DOCKED: USER    (3) Torsional Free Energy           =   +7.16 kcal/mol
DOCKED: USER    (4) Unbound System's Energy  [=(2)] =  -16.01 kcal/mol
DOCKED: USER    
DOCKED: USER    
DOCKED: USER    NEWDPF move IHP_ideal_opt.pdbqt
DOCKED: USER    NEWDPF about 0.035000 0.082000 -0.065000
DOCKED: USER    NEWDPF tran0 -8.386234 -19.719829 16.282140
DOCKED: USER    NEWDPF quaternion0 0.467377 -0.352841 -0.393322 0.708773
DOCKED: USER    NEWDPF axisangle0 0.662536 -0.500175 -0.557558 89.729598
DOCKED: USER    NEWDPF quat0 0.662536 -0.500175 -0.557558 89.729598
DOCKED: USER    NEWDPF dihe0 92.96 100.99 70.44 98.68 -25.40 123.10 4.10 -103.43 107.77 93.78 -2.01 -117.54 -61.30 -83.57 -156.24 -116.48 109.61 -51.19 -156.31 -16.72 -3.34 19.14 -16.74 171.57 
DOCKED: USER  keepresnum = 1 
DOCKED: USER  
DOCKED: REMARK  24 active torsions:
DOCKED: REMARK  status: ('A' for Active; 'I' for Inactive)
DOCKED: REMARK    1  A    between atoms: C_1  and  O_7 
DOCKED: REMARK    2  A    between atoms: C_2  and  O_12 
DOCKED: REMARK    3  A    between atoms: C_3  and  O_17 
DOCKED: REMARK    4  A    between atoms: C_4  and  O_22 
DOCKED: REMARK    5  A    between atoms: C_5  and  O_27 
DOCKED: REMARK    6  A    between atoms: C_6  and  O_32 
DOCKED: REMARK    7  A    between atoms: O_7  and  P_8 
DOCKED: REMARK    8  A    between atoms: P_8  and  O_10 
DOCKED: REMARK    9  A    between atoms: P_8  and  O_11 
DOCKED: REMARK   10  A    between atoms: O_12  and  P_13 
DOCKED: REMARK   11  A    between atoms: P_13  and  O_15 
DOCKED: REMARK   12  A    between atoms: P_13  and  O_16 
DOCKED: REMARK   13  A    between atoms: O_17  and  P_18 
DOCKED: REMARK   14  A    between atoms: P_18  and  O_20 
DOCKED: REMARK   15  A    between atoms: P_18  and  O_21 
DOCKED: REMARK   16  A    between atoms: O_22  and  P_23 
DOCKED: REMARK   17  A    between atoms: P_23  and  O_25 
DOCKED: REMARK   18  A    between atoms: P_23  and  O_26 
DOCKED: REMARK   19  A    between atoms: O_27  and  P_28 
DOCKED: REMARK   20  A    between atoms: P_28  and  O_30 
DOCKED: REMARK   21  A    between atoms: P_28  and  O_31 
DOCKED: REMARK   22  A    between atoms: O_32  and  P_33 
DOCKED: REMARK   23  A    between atoms: P_33  and  O_35 
DOCKED: REMARK   24  A    between atoms: P_33  and  O_36 
DOCKED: USER                              x       y       z     vdW  Elec       q    Type
DOCKED: USER                           _______ _______ _______ _____ _____    ______ ____
DOCKED: ROOT
DOCKED: ATOM      1  C   UNL d   1      -6.940 -18.916  15.785 -0.13 +0.04    +0.194 C 
DOCKED: ATOM      2  C   UNL d   1      -6.827 -19.751  17.062 -0.04 +0.05    +0.194 C 
DOCKED: ATOM      3  C   UNL d   1      -8.035 -19.551  17.979 -0.11 +0.02    +0.194 C 
DOCKED: ATOM      4  C   UNL d   1      -9.370 -19.761  17.269 -0.05 +0.00    +0.194 C 
DOCKED: ATOM      5  C   UNL d   1      -9.483 -19.037  15.933 -0.07 -0.00    +0.194 C 
DOCKED: ATOM      6  C   UNL d   1      -8.249 -19.186  15.041 -0.09 +0.00    +0.194 C 
DOCKED: ENDROOT
DOCKED: BRANCH   1   7
DOCKED: ATOM      7  O   UNL d   1      -5.870 -19.287  14.913 -0.17 -0.05    -0.278 OA
DOCKED: BRANCH   7   8
DOCKED: ATOM      8  P   UNL d   1      -6.035 -20.606  14.027 -0.09 -0.06    +0.473 P 
DOCKED: ATOM      9  O   UNL d   1      -7.213 -21.451  14.367 -0.03 +0.02    -0.228 OA
DOCKED: BRANCH   8  10
DOCKED: ATOM     10  O   UNL d   1      -6.063 -20.064  12.527 -0.19 +0.05    -0.303 OA
DOCKED: ATOM     11  H   UNL d   1      -6.856 -19.513  12.393 +0.09 -0.03    +0.222 HD
DOCKED: ENDBRANCH   8  10
DOCKED: BRANCH   8  12
DOCKED: ATOM     12  O   UNL d   1      -4.621 -21.328  14.094 -0.12 +0.17    -0.303 OA
DOCKED: ATOM     13  H   UNL d   1      -4.324 -21.510  15.014 -0.27 -0.23    +0.222 HD
DOCKED: ENDBRANCH   8  12
DOCKED: ENDBRANCH   7   8
DOCKED: ENDBRANCH   1   7
DOCKED: BRANCH   2  14
DOCKED: ATOM     14  O   UNL d   1      -6.747 -21.138  16.707 -0.05 -0.01    -0.278 OA
DOCKED: BRANCH  14  15
DOCKED: ATOM     15  P   UNL d   1      -5.376 -21.888  17.056 -0.07 -0.03    +0.473 P 
DOCKED: ATOM     16  O   UNL d   1      -4.139 -21.046  17.093 -0.49 -0.06    -0.228 OA
DOCKED: BRANCH  15  17
DOCKED: ATOM     17  O   UNL d   1      -5.672 -22.610  18.445 -0.02 +0.00    -0.303 OA
DOCKED: ATOM     18  H   UNL d   1      -6.379 -22.150  18.937 +0.03 +0.01    +0.222 HD
DOCKED: ENDBRANCH  15  17
DOCKED: BRANCH  15  19
DOCKED: ATOM     19  O   UNL d   1      -5.334 -23.124  16.056 -0.04 +0.09    -0.303 OA
DOCKED: ATOM     20  H   UNL d   1      -5.670 -22.884  15.172 +0.03 -0.06    +0.222 HD
DOCKED: ENDBRANCH  15  19
DOCKED: ENDBRANCH  14  15
DOCKED: ENDBRANCH   2  14
DOCKED: BRANCH   6  21
DOCKED: ATOM     21  O   UNL d   1      -8.359 -18.201  14.017 -0.10 +0.02    -0.278 OA
DOCKED: BRANCH  21  22
DOCKED: ATOM     22  P   UNL d   1      -8.754 -18.640  12.535 -0.10 -0.06    +0.473 P 
DOCKED: ATOM     23  O   UNL d   1      -7.860 -18.226  11.415 -0.25 +0.04    -0.228 OA
DOCKED: BRANCH  22  24
DOCKED: ATOM     24  O   UNL d   1      -8.934 -20.213  12.699 -0.03 +0.03    -0.303 OA
DOCKED: ATOM     25  H   UNL d   1      -8.065 -20.645  12.501 +0.06 -0.03    +0.222 HD
DOCKED: ENDBRANCH  22  24
DOCKED: BRANCH  22  26
DOCKED: ATOM     26  O   UNL d   1     -10.274 -18.140  12.442 -0.07 +0.04    -0.303 OA
DOCKED: ATOM     27  H   UNL d   1     -10.771 -18.475  13.217 +0.05 -0.02    +0.222 HD
DOCKED: ENDBRANCH  22  26
DOCKED: ENDBRANCH  21  22
DOCKED: ENDBRANCH   6  21
DOCKED: BRANCH   3  28
DOCKED: ATOM     28  O   UNL d   1      -7.981 -20.555  18.984 -0.04 -0.02    -0.278 OA
DOCKED: BRANCH  28  29
DOCKED: ATOM     29  P   UNL d   1      -8.118 -20.163  20.522 -0.06 +0.01    +0.473 P 
DOCKED: ATOM     30  O   UNL d   1      -7.262 -20.935  21.459 -0.08 -0.00    -0.228 OA
DOCKED: BRANCH  29  31
DOCKED: ATOM     31  O   UNL d   1      -7.857 -18.586  20.431 -0.21 -0.02    -0.303 OA
DOCKED: ATOM     32  H   UNL d   1      -8.501 -18.198  19.795 +0.09 +0.00    +0.222 HD
DOCKED: ENDBRANCH  29  31
DOCKED: BRANCH  29  33
DOCKED: ATOM     33  O   UNL d   1      -9.691 -20.246  20.749 -0.03 +0.01    -0.303 OA
DOCKED: ATOM     34  H   UNL d   1     -10.149 -19.810  19.989 +0.05 -0.01    +0.222 HD
DOCKED: ENDBRANCH  29  33
DOCKED: ENDBRANCH  28  29
DOCKED: ENDBRANCH   3  28
DOCKED: BRANCH   5  35
DOCKED: ATOM     35  O   UNL d   1     -10.572 -19.654  15.249 -0.02 +0.01    -0.278 OA
DOCKED: BRANCH  35  36
DOCKED: ATOM     36  P   UNL d   1     -11.904 -18.829  14.949 -0.02 -0.03    +0.473 P 
DOCKED: ATOM     37  O   UNL d   1     -12.698 -19.294  13.769 -0.02 +0.01    -0.228 OA
DOCKED: BRANCH  36  38
DOCKED: ATOM     38  O   UNL d   1     -12.674 -18.935  16.338 -0.01 +0.02    -0.303 OA
DOCKED: ATOM     39  H   UNL d   1     -12.023 -18.880  17.071 +0.04 -0.01    +0.222 HD
DOCKED: ENDBRANCH  36  38
DOCKED: BRANCH  36  40
DOCKED: ATOM     40  O   UNL d   1     -11.376 -17.329  14.917 -0.10 +0.03    -0.303 OA
DOCKED: ATOM     41  H   UNL d   1     -10.611 -17.225  14.308 -0.02 -0.04    +0.222 HD
DOCKED: ENDBRANCH  36  40
DOCKED: ENDBRANCH  35  36
DOCKED: ENDBRANCH   5  35
DOCKED: BRANCH   4  42
DOCKED: ATOM     42  O   UNL d   1     -10.384 -19.224  18.125 -0.04 +0.01    -0.278 OA
DOCKED: BRANCH  42  43
DOCKED: ATOM     43  P   UNL d   1     -10.332 -17.676  18.507 -0.14 -0.06    +0.473 P 
DOCKED: ATOM     44  O   UNL d   1      -9.151 -16.895  18.046 -0.29 -0.00    -0.228 OA
DOCKED: BRANCH  43  45
DOCKED: ATOM     45  O   UNL d   1     -11.725 -17.135  17.959 -0.14 +0.04    -0.303 OA
DOCKED: ATOM     46  H   UNL d   1     -11.717 -17.050  16.985 +0.07 -0.02    +0.222 HD
DOCKED: ENDBRANCH  43  45
DOCKED: BRANCH  43  47
DOCKED: ATOM     47  O   UNL d   1     -10.584 -17.680  20.090 -0.09 +0.08    -0.303 OA
DOCKED: ATOM     48  H   UNL d   1      -9.865 -18.181  20.529 +0.07 -0.03    +0.222 HD
DOCKED: ENDBRANCH  43  47
DOCKED: ENDBRANCH  42  43
DOCKED: ENDBRANCH   4  42
DOCKED: TORSDOF 24
DOCKED: TER
DOCKED: ENDMDL
________________________________________________________________________________


	BEGINNING GENETIC ALGORITHM DOCKING 75 of 100
Run: 75 Seed: 1246308370 1166005930 [ Run 75 of 100 GA/GALS ]
Beginning LAMARCKIAN GENETIC ALGORITHM (LGA), with a maximum of 25000000 energy evaluations.

Final-Value: -19.901


	FINAL GENETIC ALGORITHM DOCKED STATE
	_______________________________________________


Detailed state:  trans 12.098 13.233 8.549 quatxyzw -0.952981 0.201193 -0.200645 -0.105314 center 0.035 0.082 -0.065 ntor 24 83.2408 128.1648 142.7205 0.9748 -7.3195 123.4776 -24.3608 -112.8603 -180.0000 -3.1393 -101.1652 137.6840 -60.6814 -114.4177 -160.7166 -31.8226 -125.5497 -159.8455 -156.4163 -2.7667 1.8390 140.9409 -27.8748 168.9935
State:	 12.098  13.233   8.549  -0.958  0.202 -0.202 -167.909     83.24  128.16  142.72    0.97   -7.32  123.48  -24.36 -112.86 -180.00   -3.14 -101.17  137.68  -60.68 -114.42 -160.72  -31.82 -125.55 -159.85 -156.42   -2.77    1.84  140.94  -27.87  168.99

DOCKED: MODEL       75
DOCKED: USER    Run = 75
DOCKED: USER    DPF = D:/Protein_go_brrr/autodock/final/1A3N/IHP/dock.dpf
DOCKED: USER  
DOCKED: USER    Estimated Free Energy of Binding    =   +0.44 kcal/mol  [=(1)+(2)+(3)-(4)]
DOCKED: USER    
DOCKED: USER    (1) Final Intermolecular Energy     =   -6.72 kcal/mol
DOCKED: USER        vdW + Hbond + desolv Energy     =   -6.32 kcal/mol
DOCKED: USER        Electrostatic Energy            =   -0.40 kcal/mol
DOCKED: USER    (2) Final Total Internal Energy     =  -13.19 kcal/mol
DOCKED: USER    (3) Torsional Free Energy           =   +7.16 kcal/mol
DOCKED: USER    (4) Unbound System's Energy  [=(2)] =  -13.19 kcal/mol
DOCKED: USER    
DOCKED: USER    
DOCKED: USER    NEWDPF move IHP_ideal_opt.pdbqt
DOCKED: USER    NEWDPF about 0.035000 0.082000 -0.065000
DOCKED: USER    NEWDPF tran0 12.098275 13.233348 8.549398
DOCKED: USER    NEWDPF quaternion0 -0.952981 0.201193 -0.200645 -0.105314
DOCKED: USER    NEWDPF axisangle0 -0.958310 0.202318 -0.201767 -167.909450
DOCKED: USER    NEWDPF quat0 -0.958310 0.202318 -0.201767 -167.909450
DOCKED: USER    NEWDPF dihe0 83.24 128.16 142.72 0.97 -7.32 123.48 -24.36 -112.86 -180.00 -3.14 -101.17 137.68 -60.68 -114.42 -160.72 -31.82 -125.55 -159.85 -156.42 -2.77 1.84 140.94 -27.87 168.99 
DOCKED: USER  keepresnum = 1 
DOCKED: USER  
DOCKED: REMARK  24 active torsions:
DOCKED: REMARK  status: ('A' for Active; 'I' for Inactive)
DOCKED: REMARK    1  A    between atoms: C_1  and  O_7 
DOCKED: REMARK    2  A    between atoms: C_2  and  O_12 
DOCKED: REMARK    3  A    between atoms: C_3  and  O_17 
DOCKED: REMARK    4  A    between atoms: C_4  and  O_22 
DOCKED: REMARK    5  A    between atoms: C_5  and  O_27 
DOCKED: REMARK    6  A    between atoms: C_6  and  O_32 
DOCKED: REMARK    7  A    between atoms: O_7  and  P_8 
DOCKED: REMARK    8  A    between atoms: P_8  and  O_10 
DOCKED: REMARK    9  A    between atoms: P_8  and  O_11 
DOCKED: REMARK   10  A    between atoms: O_12  and  P_13 
DOCKED: REMARK   11  A    between atoms: P_13  and  O_15 
DOCKED: REMARK   12  A    between atoms: P_13  and  O_16 
DOCKED: REMARK   13  A    between atoms: O_17  and  P_18 
DOCKED: REMARK   14  A    between atoms: P_18  and  O_20 
DOCKED: REMARK   15  A    between atoms: P_18  and  O_21 
DOCKED: REMARK   16  A    between atoms: O_22  and  P_23 
DOCKED: REMARK   17  A    between atoms: P_23  and  O_25 
DOCKED: REMARK   18  A    between atoms: P_23  and  O_26 
DOCKED: REMARK   19  A    between atoms: O_27  and  P_28 
DOCKED: REMARK   20  A    between atoms: P_28  and  O_30 
DOCKED: REMARK   21  A    between atoms: P_28  and  O_31 
DOCKED: REMARK   22  A    between atoms: O_32  and  P_33 
DOCKED: REMARK   23  A    between atoms: P_33  and  O_35 
DOCKED: REMARK   24  A    between atoms: P_33  and  O_36 
DOCKED: USER                              x       y       z     vdW  Elec       q    Type
DOCKED: USER                           _______ _______ _______ _____ _____    ______ ____
DOCKED: ROOT
DOCKED: ATOM      1  C   UNL d   1      13.788  13.591   8.516 -0.12 +0.02    +0.194 C 
DOCKED: ATOM      2  C   UNL d   1      12.859  14.799   8.649 -0.07 +0.05    +0.194 C 
DOCKED: ATOM      3  C   UNL d   1      11.654  14.693   7.712 -0.11 +0.07    +0.194 C 
DOCKED: ATOM      4  C   UNL d   1      10.903  13.371   7.845 -0.15 +0.08    +0.194 C 
DOCKED: ATOM      5  C   UNL d   1      11.804  12.142   7.833 -0.12 +0.05    +0.194 C 
DOCKED: ATOM      6  C   UNL d   1      13.042  12.273   8.723 -0.07 +0.03    +0.194 C 
DOCKED: ENDROOT
DOCKED: BRANCH   1   7
DOCKED: ATOM      7  O   UNL d   1      14.785  13.681   9.536 -0.10 -0.03    -0.278 OA
DOCKED: BRANCH   7   8
DOCKED: ATOM      8  P   UNL d   1      14.409  13.193  11.010 -0.05 +0.02    +0.473 P 
DOCKED: ATOM      9  O   UNL d   1      12.970  12.882  11.224 -0.13 -0.02    -0.228 OA
DOCKED: BRANCH   8  10
DOCKED: ATOM     10  O   UNL d   1      15.367  11.942  11.259 -0.05 -0.03    -0.303 OA
DOCKED: ATOM     11  H   UNL d   1      15.041  11.175  10.752 +0.06 +0.04    +0.222 HD
DOCKED: ENDBRANCH   8  10
DOCKED: BRANCH   8  12
DOCKED: ATOM     12  O   UNL d   1      15.034  14.287  11.979 -0.07 +0.02    -0.303 OA
DOCKED: ATOM     13  H   UNL d   1      14.460  15.079  12.087 -0.34 -0.03    +0.222 HD
DOCKED: ENDBRANCH   8  12
DOCKED: ENDBRANCH   7   8
DOCKED: ENDBRANCH   1   7
DOCKED: BRANCH   2  14
DOCKED: ATOM     14  O   UNL d   1      12.383  14.876   9.998 -0.09 -0.06    -0.278 OA
DOCKED: BRANCH  14  15
DOCKED: ATOM     15  P   UNL d   1      12.544  16.289  10.735 -0.14 +0.11    +0.473 P 
DOCKED: ATOM     16  O   UNL d   1      13.934  16.828  10.858 -0.13 -0.05    -0.228 OA
DOCKED: BRANCH  15  17
DOCKED: ATOM     17  O   UNL d   1      11.575  17.260   9.926 -0.13 -0.12    -0.303 OA
DOCKED: ATOM     18  H   UNL d   1      10.701  16.847   9.783 +0.03 +0.08    +0.222 HD
DOCKED: ENDBRANCH  15  17
DOCKED: BRANCH  15  19
DOCKED: ATOM     19  O   UNL d   1      11.752  16.115  12.103 -0.19 -0.06    -0.303 OA
DOCKED: ATOM     20  H   UNL d   1      10.816  15.886  11.952 -0.00 +0.03    +0.222 HD
DOCKED: ENDBRANCH  15  19
DOCKED: ENDBRANCH  14  15
DOCKED: ENDBRANCH   2  14
DOCKED: BRANCH   6  21
DOCKED: ATOM     21  O   UNL d   1      13.932  11.225   8.347 -0.10 -0.02    -0.278 OA
DOCKED: BRANCH  21  22
DOCKED: ATOM     22  P   UNL d   1      14.017   9.901   9.233 -0.02 +0.08    +0.473 P 
DOCKED: ATOM     23  O   UNL d   1      15.365   9.413   9.645 -0.09 -0.07    -0.228 OA
DOCKED: BRANCH  22  24
DOCKED: ATOM     24  O   UNL d   1      13.038  10.253  10.438 -0.01 -0.06    -0.303 OA
DOCKED: ATOM     25  H   UNL d   1      13.491  10.913  11.021 +0.05 +0.04    +0.222 HD
DOCKED: ENDBRANCH  22  24
DOCKED: BRANCH  22  26
DOCKED: ATOM     26  O   UNL d   1      13.131   8.877   8.375 -0.10 -0.04    -0.303 OA
DOCKED: ATOM     27  H   UNL d   1      12.271   9.294   8.163 +0.09 +0.03    +0.222 HD
DOCKED: ENDBRANCH  22  26
DOCKED: ENDBRANCH  21  22
DOCKED: ENDBRANCH   6  21
DOCKED: BRANCH   3  28
DOCKED: ATOM     28  O   UNL d   1      10.722  15.696   8.097 -0.11 -0.16    -0.278 OA
DOCKED: BRANCH  28  29
DOCKED: ATOM     29  P   UNL d   1       9.362  15.295   8.821 -0.23 +0.25    +0.473 P 
DOCKED: ATOM     30  O   UNL d   1       8.489  14.357   8.069 -0.49 -0.19    -0.228 OA
DOCKED: BRANCH  29  31
DOCKED: ATOM     31  O   UNL d   1       9.932  14.786  10.227 -0.24 -0.10    -0.303 OA
DOCKED: ATOM     32  H   UNL d   1      10.783  15.249  10.406 +0.11 +0.06    +0.222 HD
DOCKED: ENDBRANCH  29  31
DOCKED: BRANCH  29  33
DOCKED: ATOM     33  O   UNL d   1       8.745  16.717   9.185 -0.35 -0.16    -0.303 OA
DOCKED: ATOM     34  H   UNL d   1       9.415  17.237   9.693 -0.16 +0.07    +0.222 HD
DOCKED: ENDBRANCH  29  33
DOCKED: ENDBRANCH  28  29
DOCKED: ENDBRANCH   3  28
DOCKED: BRANCH   5  35
DOCKED: ATOM     35  O   UNL d   1      11.015  11.079   8.364 -0.11 -0.10    -0.278 OA
DOCKED: BRANCH  35  36
DOCKED: ATOM     36  P   UNL d   1      10.376   9.988   7.391 -0.15 +0.16    +0.473 P 
DOCKED: ATOM     37  O   UNL d   1       9.107  10.393   6.712 -0.02 -0.19    -0.228 OA
DOCKED: BRANCH  36  38
DOCKED: ATOM     38  O   UNL d   1      11.584   9.690   6.397 -0.22 -0.05    -0.303 OA
DOCKED: ATOM     39  H   UNL d   1      11.927   8.787   6.570 +0.14 +0.02    +0.222 HD
DOCKED: ENDBRANCH  36  38
DOCKED: BRANCH  36  40
DOCKED: ATOM     40  O   UNL d   1      10.318   8.698   8.320 -0.11 -0.04    -0.303 OA
DOCKED: ATOM     41  H   UNL d   1      11.153   8.572   8.822 +0.09 +0.03    +0.222 HD
DOCKED: ENDBRANCH  36  40
DOCKED: ENDBRANCH  35  36
DOCKED: ENDBRANCH   5  35
DOCKED: BRANCH   4  42
DOCKED: ATOM     42  O   UNL d   1      10.037  13.269   6.709 -0.72 -0.18    -0.278 OA
DOCKED: BRANCH  42  43
DOCKED: ATOM     43  P   UNL d   1      10.673  13.323   5.247 -0.27 +0.12    +0.473 P 
DOCKED: ATOM     44  O   UNL d   1      10.328  14.493   4.391 -0.52 +0.02    -0.228 OA
DOCKED: BRANCH  43  45
DOCKED: ATOM     45  O   UNL d   1      12.230  13.166   5.538 -0.24 -0.00    -0.303 OA
DOCKED: ATOM     46  H   UNL d   1      12.759  13.273   4.722 -0.34 -0.10    +0.222 HD
DOCKED: ENDBRANCH  43  45
DOCKED: BRANCH  43  47
DOCKED: ATOM     47  O   UNL d   1      10.309  11.887   4.636 -0.40 -0.10    -0.303 OA
DOCKED: ATOM     48  H   UNL d   1      10.469  11.198   5.314 +0.16 +0.08    +0.222 HD
DOCKED: ENDBRANCH  43  47
DOCKED: ENDBRANCH  42  43
DOCKED: ENDBRANCH   4  42
DOCKED: TORSDOF 24
DOCKED: TER
DOCKED: ENDMDL
________________________________________________________________________________


	BEGINNING GENETIC ALGORITHM DOCKING 76 of 100
Run: 76 Seed: 2079648754 279985417 [ Run 76 of 100 GA/GALS ]
Beginning LAMARCKIAN GENETIC ALGORITHM (LGA), with a maximum of 25000000 energy evaluations.

Final-Value: -17.799


	FINAL GENETIC ALGORITHM DOCKED STATE
	_______________________________________________


Detailed state:  trans -10.086 15.411 31.933 quatxyzw -0.787308 0.076489 -0.413346 -0.451044 center 0.035 0.082 -0.065 ntor 24 -90.8088 21.4656 179.7460 26.2267 13.2821 80.1961 -162.0607 -75.1366 51.7198 91.2029 30.2682 149.5248 177.0863 35.3919 -75.4030 -8.8616 -27.9216 -129.4121 67.8383 20.3133 2.0958 59.0470 171.3744 -48.0124
State:	-10.086  15.411  31.933  -0.882  0.086 -0.463 -126.379    -90.81   21.47  179.75   26.23   13.28   80.20 -162.06  -75.14   51.72   91.20   30.27  149.52  177.09   35.39  -75.40   -8.86  -27.92 -129.41   67.84   20.31    2.10   59.05  171.37  -48.01

DOCKED: MODEL       76
DOCKED: USER    Run = 76
DOCKED: USER    DPF = D:/Protein_go_brrr/autodock/final/1A3N/IHP/dock.dpf
DOCKED: USER  
DOCKED: USER    Estimated Free Energy of Binding    =   +3.15 kcal/mol  [=(1)+(2)+(3)-(4)]
DOCKED: USER    
DOCKED: USER    (1) Final Intermolecular Energy     =   -4.01 kcal/mol
DOCKED: USER        vdW + Hbond + desolv Energy     =   -3.73 kcal/mol
DOCKED: USER        Electrostatic Energy            =   -0.28 kcal/mol
DOCKED: USER    (2) Final Total Internal Energy     =  -13.79 kcal/mol
DOCKED: USER    (3) Torsional Free Energy           =   +7.16 kcal/mol
DOCKED: USER    (4) Unbound System's Energy  [=(2)] =  -13.79 kcal/mol
DOCKED: USER    
DOCKED: USER    
DOCKED: USER    NEWDPF move IHP_ideal_opt.pdbqt
DOCKED: USER    NEWDPF about 0.035000 0.082000 -0.065000
DOCKED: USER    NEWDPF tran0 -10.086295 15.411017 31.932931
DOCKED: USER    NEWDPF quaternion0 -0.787308 0.076489 -0.413346 -0.451044
DOCKED: USER    NEWDPF axisangle0 -0.882136 0.085702 -0.463132 -126.378617
DOCKED: USER    NEWDPF quat0 -0.882136 0.085702 -0.463132 -126.378617
DOCKED: USER    NEWDPF dihe0 -90.81 21.47 179.75 26.23 13.28 80.20 -162.06 -75.14 51.72 91.20 30.27 149.52 177.09 35.39 -75.40 -8.86 -27.92 -129.41 67.84 20.31 2.10 59.05 171.37 -48.01 
DOCKED: USER  keepresnum = 1 
DOCKED: USER  
DOCKED: REMARK  24 active torsions:
DOCKED: REMARK  status: ('A' for Active; 'I' for Inactive)
DOCKED: REMARK    1  A    between atoms: C_1  and  O_7 
DOCKED: REMARK    2  A    between atoms: C_2  and  O_12 
DOCKED: REMARK    3  A    between atoms: C_3  and  O_17 
DOCKED: REMARK    4  A    between atoms: C_4  and  O_22 
DOCKED: REMARK    5  A    between atoms: C_5  and  O_27 
DOCKED: REMARK    6  A    between atoms: C_6  and  O_32 
DOCKED: REMARK    7  A    between atoms: O_7  and  P_8 
DOCKED: REMARK    8  A    between atoms: P_8  and  O_10 
DOCKED: REMARK    9  A    between atoms: P_8  and  O_11 
DOCKED: REMARK   10  A    between atoms: O_12  and  P_13 
DOCKED: REMARK   11  A    between atoms: P_13  and  O_15 
DOCKED: REMARK   12  A    between atoms: P_13  and  O_16 
DOCKED: REMARK   13  A    between atoms: O_17  and  P_18 
DOCKED: REMARK   14  A    between atoms: P_18  and  O_20 
DOCKED: REMARK   15  A    between atoms: P_18  and  O_21 
DOCKED: REMARK   16  A    between atoms: O_22  and  P_23 
DOCKED: REMARK   17  A    between atoms: P_23  and  O_25 
DOCKED: REMARK   18  A    between atoms: P_23  and  O_26 
DOCKED: REMARK   19  A    between atoms: O_27  and  P_28 
DOCKED: REMARK   20  A    between atoms: P_28  and  O_30 
DOCKED: REMARK   21  A    between atoms: P_28  and  O_31 
DOCKED: REMARK   22  A    between atoms: O_32  and  P_33 
DOCKED: REMARK   23  A    between atoms: P_33  and  O_35 
DOCKED: REMARK   24  A    between atoms: P_33  and  O_36 
DOCKED: USER                              x       y       z     vdW  Elec       q    Type
DOCKED: USER                           _______ _______ _______ _____ _____    ______ ____
DOCKED: ROOT
DOCKED: ATOM      1  C   UNL d   1      -8.931  15.821  33.150 -0.04 +0.19    +0.194 C 
DOCKED: ATOM      2  C   UNL d   1     -10.206  16.665  33.138 -0.02 +0.08    +0.194 C 
DOCKED: ATOM      3  C   UNL d   1     -10.615  17.056  31.716 -0.03 +0.03    +0.194 C 
DOCKED: ATOM      4  C   UNL d   1     -10.703  15.863  30.767 -0.07 +0.01    +0.194 C 
DOCKED: ATOM      5  C   UNL d   1      -9.501  14.929  30.830 -0.14 +0.04    +0.194 C 
DOCKED: ATOM      6  C   UNL d   1      -9.055  14.589  32.253 -0.10 +0.13    +0.194 C 
DOCKED: ENDROOT
DOCKED: BRANCH   1   7
DOCKED: ATOM      7  O   UNL d   1      -8.716  15.357  34.485 -0.10 -0.37    -0.278 OA
DOCKED: BRANCH   7   8
DOCKED: ATOM      8  P   UNL d   1      -8.654  16.434  35.663 -0.02 +0.47    +0.473 P 
DOCKED: ATOM      9  O   UNL d   1      -7.496  16.294  36.586 -0.04 -0.28    -0.228 OA
DOCKED: BRANCH   8  10
DOCKED: ATOM     10  O   UNL d   1      -8.688  17.838  34.905 -0.16 -0.23    -0.303 OA
DOCKED: ATOM     11  H   UNL d   1      -9.535  18.286  35.086 +0.01 +0.10    +0.222 HD
DOCKED: ENDBRANCH   8  10
DOCKED: BRANCH   8  12
DOCKED: ATOM     12  O   UNL d   1     -10.091  16.387  36.340 -0.00 -0.13    -0.303 OA
DOCKED: ATOM     13  H   UNL d   1     -10.791  16.048  35.737 +0.01 +0.08    +0.222 HD
DOCKED: ENDBRANCH   8  12
DOCKED: ENDBRANCH   7   8
DOCKED: ENDBRANCH   1   7
DOCKED: BRANCH   2  14
DOCKED: ATOM     14  O   UNL d   1     -11.272  15.910  33.728 +0.00 -0.08    -0.278 OA
DOCKED: BRANCH  14  15
DOCKED: ATOM     15  P   UNL d   1     -12.435  16.749  34.440 +0.01 +0.08    +0.473 P 
DOCKED: ATOM     16  O   UNL d   1     -13.606  17.131  33.589 +0.00 -0.02    -0.228 OA
DOCKED: BRANCH  15  17
DOCKED: ATOM     17  O   UNL d   1     -12.848  15.854  35.692 +0.00 -0.05    -0.303 OA
DOCKED: ATOM     18  H   UNL d   1     -12.256  16.017  36.451 +0.00 +0.04    +0.222 HD
DOCKED: ENDBRANCH  15  17
DOCKED: BRANCH  15  19
DOCKED: ATOM     19  O   UNL d   1     -11.678  17.957  35.146 +0.00 -0.06    -0.303 OA
DOCKED: ATOM     20  H   UNL d   1     -10.793  17.694  35.459 +0.01 +0.06    +0.222 HD
DOCKED: ENDBRANCH  15  19
DOCKED: ENDBRANCH  14  15
DOCKED: ENDBRANCH   2  14
DOCKED: BRANCH   6  21
DOCKED: ATOM     21  O   UNL d   1      -7.754  14.013  32.150 -0.20 -0.29    -0.278 OA
DOCKED: BRANCH  21  22
DOCKED: ATOM     22  P   UNL d   1      -7.581  12.429  32.217 -0.20 +0.40    +0.473 P 
DOCKED: ATOM     23  O   UNL d   1      -8.326  11.682  33.272 -0.58 -0.31    -0.228 OA
DOCKED: BRANCH  22  24
DOCKED: ATOM     24  O   UNL d   1      -7.931  12.001  30.724 -0.22 -0.12    -0.303 OA
DOCKED: ATOM     25  H   UNL d   1      -8.810  12.392  30.489 +0.10 +0.05    +0.222 HD
DOCKED: ENDBRANCH  22  24
DOCKED: BRANCH  22  26
DOCKED: ATOM     26  O   UNL d   1      -5.986  12.276  32.240 -0.33 -0.25    -0.303 OA
DOCKED: ATOM     27  H   UNL d   1      -5.661  12.145  31.326 +0.13 +0.11    +0.222 HD
DOCKED: ENDBRANCH  22  26
DOCKED: ENDBRANCH  21  22
DOCKED: ENDBRANCH   6  21
DOCKED: BRANCH   3  28
DOCKED: ATOM     28  O   UNL d   1     -11.932  17.586  31.779 -0.01 -0.02    -0.278 OA
DOCKED: BRANCH  28  29
DOCKED: ATOM     29  P   UNL d   1     -12.568  18.314  30.513 -0.02 -0.01    +0.473 P 
DOCKED: ATOM     30  O   UNL d   1     -11.618  19.094  29.679 -0.12 +0.01    -0.228 OA
DOCKED: BRANCH  29  31
DOCKED: ATOM     31  O   UNL d   1     -13.298  17.073  29.815 -0.03 +0.03    -0.303 OA
DOCKED: ATOM     32  H   UNL d   1     -12.822  16.858  28.980 +0.06 -0.04    +0.222 HD
DOCKED: ENDBRANCH  29  31
DOCKED: BRANCH  29  33
DOCKED: ATOM     33  O   UNL d   1     -13.781  19.115  31.163 -0.01 -0.00    -0.303 OA
DOCKED: ATOM     34  H   UNL d   1     -13.961  18.751  32.064 +0.01 +0.01    +0.222 HD
DOCKED: ENDBRANCH  29  33
DOCKED: ENDBRANCH  28  29
DOCKED: ENDBRANCH   3  28
DOCKED: BRANCH   5  35
DOCKED: ATOM     35  O   UNL d   1      -9.924  13.712  30.220 -0.15 +0.01    -0.278 OA
DOCKED: BRANCH  35  36
DOCKED: ATOM     36  P   UNL d   1     -11.183  12.918  30.795 -0.05 -0.04    +0.473 P 
DOCKED: ATOM     37  O   UNL d   1     -12.074  13.698  31.709 -0.02 -0.01    -0.228 OA
DOCKED: BRANCH  36  38
DOCKED: ATOM     38  O   UNL d   1     -11.892  12.418  29.460 -0.12 +0.25    -0.303 OA
DOCKED: ATOM     39  H   UNL d   1     -11.565  12.952  28.704 -0.36 -0.38    +0.222 HD
DOCKED: ENDBRANCH  36  38
DOCKED: BRANCH  36  40
DOCKED: ATOM     40  O   UNL d   1     -10.513  11.603  31.388 -0.09 -0.09    -0.303 OA
DOCKED: ATOM     41  H   UNL d   1      -9.746  11.814  31.967 +0.06 +0.14    +0.222 HD
DOCKED: ENDBRANCH  36  40
DOCKED: ENDBRANCH  35  36
DOCKED: ENDBRANCH   5  35
DOCKED: BRANCH   4  42
DOCKED: ATOM     42  O   UNL d   1     -10.756  16.393  29.439 -0.15 +0.05    -0.278 OA
DOCKED: BRANCH  42  43
DOCKED: ATOM     43  P   UNL d   1     -11.346  15.484  28.268 -0.22 -0.24    +0.473 P 
DOCKED: ATOM     44  O   UNL d   1     -10.422  14.510  27.623 -0.29 +0.19    -0.228 OA
DOCKED: BRANCH  43  45
DOCKED: ATOM     45  O   UNL d   1     -12.619  14.817  28.952 -0.13 +0.15    -0.303 OA
DOCKED: ATOM     46  H   UNL d   1     -12.422  14.522  29.864 +0.06 -0.07    +0.222 HD
DOCKED: ENDBRANCH  43  45
DOCKED: BRANCH  43  47
DOCKED: ATOM     47  O   UNL d   1     -12.026  16.550  27.284 -0.27 +0.14    -0.303 OA
DOCKED: ATOM     48  H   UNL d   1     -12.359  17.308  27.808 +0.07 -0.06    +0.222 HD
DOCKED: ENDBRANCH  43  47
DOCKED: ENDBRANCH  42  43
DOCKED: ENDBRANCH   4  42
DOCKED: TORSDOF 24
DOCKED: TER
DOCKED: ENDMDL
________________________________________________________________________________


	BEGINNING GENETIC ALGORITHM DOCKING 77 of 100
Run: 77 Seed: 150204797 1447232508 [ Run 77 of 100 GA/GALS ]
Beginning LAMARCKIAN GENETIC ALGORITHM (LGA), with a maximum of 25000000 energy evaluations.

Final-Value: -16.698


	FINAL GENETIC ALGORITHM DOCKED STATE
	_______________________________________________


Detailed state:  trans 41.804 -15.994 8.196 quatxyzw 0.606655 0.192785 -0.542753 -0.547926 center 0.035 0.082 -0.065 ntor 24 106.7466 119.3535 45.1223 79.0719 62.9843 102.1398 46.2819 -81.4397 53.6105 -142.9552 117.4936 153.9694 -67.4000 144.0699 63.6352 -142.4425 -134.4075 22.3233 -152.9705 -19.3271 177.6583 14.9943 -9.8235 -179.7975
State:	 41.804 -15.994   8.196   0.725  0.230 -0.649 -113.550    106.75  119.35   45.12   79.07   62.98  102.14   46.28  -81.44   53.61 -142.96  117.49  153.97  -67.40  144.07   63.64 -142.44 -134.41   22.32 -152.97  -19.33  177.66   14.99   -9.82 -179.80

DOCKED: MODEL       77
DOCKED: USER    Run = 77
DOCKED: USER    DPF = D:/Protein_go_brrr/autodock/final/1A3N/IHP/dock.dpf
DOCKED: USER  
DOCKED: USER    Estimated Free Energy of Binding    =   +3.64 kcal/mol  [=(1)+(2)+(3)-(4)]
DOCKED: USER    
DOCKED: USER    (1) Final Intermolecular Energy     =   -3.52 kcal/mol
DOCKED: USER        vdW + Hbond + desolv Energy     =   -3.30 kcal/mol
DOCKED: USER        Electrostatic Energy            =   -0.22 kcal/mol
DOCKED: USER    (2) Final Total Internal Energy     =  -13.18 kcal/mol
DOCKED: USER    (3) Torsional Free Energy           =   +7.16 kcal/mol
DOCKED: USER    (4) Unbound System's Energy  [=(2)] =  -13.18 kcal/mol
DOCKED: USER    
DOCKED: USER    
DOCKED: USER    NEWDPF move IHP_ideal_opt.pdbqt
DOCKED: USER    NEWDPF about 0.035000 0.082000 -0.065000
DOCKED: USER    NEWDPF tran0 41.804397 -15.994293 8.196253
DOCKED: USER    NEWDPF quaternion0 0.606655 0.192785 -0.542753 -0.547926
DOCKED: USER    NEWDPF axisangle0 0.725207 0.230459 -0.648817 -113.550375
DOCKED: USER    NEWDPF quat0 0.725207 0.230459 -0.648817 -113.550375
DOCKED: USER    NEWDPF dihe0 106.75 119.35 45.12 79.07 62.98 102.14 46.28 -81.44 53.61 -142.96 117.49 153.97 -67.40 144.07 63.64 -142.44 -134.41 22.32 -152.97 -19.33 177.66 14.99 -9.82 -179.80 
DOCKED: USER  keepresnum = 1 
DOCKED: USER  
DOCKED: REMARK  24 active torsions:
DOCKED: REMARK  status: ('A' for Active; 'I' for Inactive)
DOCKED: REMARK    1  A    between atoms: C_1  and  O_7 
DOCKED: REMARK    2  A    between atoms: C_2  and  O_12 
DOCKED: REMARK    3  A    between atoms: C_3  and  O_17 
DOCKED: REMARK    4  A    between atoms: C_4  and  O_22 
DOCKED: REMARK    5  A    between atoms: C_5  and  O_27 
DOCKED: REMARK    6  A    between atoms: C_6  and  O_32 
DOCKED: REMARK    7  A    between atoms: O_7  and  P_8 
DOCKED: REMARK    8  A    between atoms: P_8  and  O_10 
DOCKED: REMARK    9  A    between atoms: P_8  and  O_11 
DOCKED: REMARK   10  A    between atoms: O_12  and  P_13 
DOCKED: REMARK   11  A    between atoms: P_13  and  O_15 
DOCKED: REMARK   12  A    between atoms: P_13  and  O_16 
DOCKED: REMARK   13  A    between atoms: O_17  and  P_18 
DOCKED: REMARK   14  A    between atoms: P_18  and  O_20 
DOCKED: REMARK   15  A    between atoms: P_18  and  O_21 
DOCKED: REMARK   16  A    between atoms: O_22  and  P_23 
DOCKED: REMARK   17  A    between atoms: P_23  and  O_25 
DOCKED: REMARK   18  A    between atoms: P_23  and  O_26 
DOCKED: REMARK   19  A    between atoms: O_27  and  P_28 
DOCKED: REMARK   20  A    between atoms: P_28  and  O_30 
DOCKED: REMARK   21  A    between atoms: P_28  and  O_31 
DOCKED: REMARK   22  A    between atoms: O_32  and  P_33 
DOCKED: REMARK   23  A    between atoms: P_33  and  O_35 
DOCKED: REMARK   24  A    between atoms: P_33  and  O_36 
DOCKED: USER                              x       y       z     vdW  Elec       q    Type
DOCKED: USER                           _______ _______ _______ _____ _____    ______ ____
DOCKED: ROOT
DOCKED: ATOM      1  C   UNL d   1      41.136 -16.849   6.852 -0.01 -0.01    +0.194 C 
DOCKED: ATOM      2  C   UNL d   1      40.215 -15.815   7.501 -0.07 -0.02    +0.194 C 
DOCKED: ATOM      3  C   UNL d   1      40.280 -15.878   9.029 -0.14 -0.03    +0.194 C 
DOCKED: ATOM      4  C   UNL d   1      41.704 -15.805   9.574 -0.06 -0.03    +0.194 C 
DOCKED: ATOM      5  C   UNL d   1      42.684 -16.740   8.876 -0.07 +0.02    +0.194 C 
DOCKED: ATOM      6  C   UNL d   1      42.577 -16.722   7.350 -0.01 +0.00    +0.194 C 
DOCKED: ENDROOT
DOCKED: BRANCH   1   7
DOCKED: ATOM      7  O   UNL d   1      41.150 -16.612   5.442 -0.00 +0.00    -0.278 OA
DOCKED: BRANCH   7   8
DOCKED: ATOM      8  P   UNL d   1      42.158 -15.514   4.867 +0.01 +0.01    +0.473 P 
DOCKED: ATOM      9  O   UNL d   1      42.727 -14.586   5.882 -0.03 -0.01    -0.228 OA
DOCKED: BRANCH   8  10
DOCKED: ATOM     10  O   UNL d   1      43.269 -16.369   4.106 +0.00 -0.01    -0.303 OA
DOCKED: ATOM     11  H   UNL d   1      43.606 -17.068   4.698 +0.00 +0.00    +0.222 HD
DOCKED: ENDBRANCH   8  10
DOCKED: BRANCH   8  12
DOCKED: ATOM     12  O   UNL d   1      41.380 -14.831   3.662 -0.01 -0.00    -0.303 OA
DOCKED: ATOM     13  H   UNL d   1      40.667 -14.222   3.958 +0.03 +0.00    +0.222 HD
DOCKED: ENDBRANCH   8  12
DOCKED: ENDBRANCH   7   8
DOCKED: ENDBRANCH   1   7
DOCKED: BRANCH   2  14
DOCKED: ATOM     14  O   UNL d   1      40.615 -14.504   7.081 -0.09 +0.03    -0.278 OA
DOCKED: BRANCH  14  15
DOCKED: ATOM     15  P   UNL d   1      39.595 -13.714   6.133 -0.13 -0.04    +0.473 P 
DOCKED: ATOM     16  O   UNL d   1      40.160 -12.581   5.334 -0.12 +0.00    -0.228 OA
DOCKED: BRANCH  15  17
DOCKED: ATOM     17  O   UNL d   1      38.953 -14.852   5.221 -0.06 +0.01    -0.303 OA
DOCKED: ATOM     18  H   UNL d   1      39.644 -15.409   4.815 +0.03 -0.01    +0.222 HD
DOCKED: ENDBRANCH  15  17
DOCKED: BRANCH  15  19
DOCKED: ATOM     19  O   UNL d   1      38.376 -13.341   7.085 -0.26 +0.07    -0.303 OA
DOCKED: ATOM     20  H   UNL d   1      38.628 -13.382   8.026 -0.11 -0.07    +0.222 HD
DOCKED: ENDBRANCH  15  19
DOCKED: ENDBRANCH  14  15
DOCKED: ENDBRANCH   2  14
DOCKED: BRANCH   6  21
DOCKED: ATOM     21  O   UNL d   1      43.286 -17.863   6.873 +0.00 -0.01    -0.278 OA
DOCKED: BRANCH  21  22
DOCKED: ATOM     22  P   UNL d   1      42.636 -19.314   7.010 +0.01 +0.01    +0.473 P 
DOCKED: ATOM     23  O   UNL d   1      41.856 -19.848   5.856 +0.00 +0.00    -0.228 OA
DOCKED: BRANCH  22  24
DOCKED: ATOM     24  O   UNL d   1      43.892 -20.195   7.432 +0.00 -0.01    -0.303 OA
DOCKED: ATOM     25  H   UNL d   1      44.692 -19.610   7.434 +0.00 +0.01    +0.222 HD
DOCKED: ENDBRANCH  22  24
DOCKED: BRANCH  22  26
DOCKED: ATOM     26  O   UNL d   1      41.841 -19.185   8.396 -0.00 -0.01    -0.303 OA
DOCKED: ATOM     27  H   UNL d   1      42.483 -19.166   9.134 +0.02 +0.02    +0.222 HD
DOCKED: ENDBRANCH  22  26
DOCKED: ENDBRANCH  21  22
DOCKED: ENDBRANCH   6  21
DOCKED: BRANCH   3  28
DOCKED: ATOM     28  O   UNL d   1      39.623 -14.722   9.533 -0.22 +0.10    -0.278 OA
DOCKED: BRANCH  28  29
DOCKED: ATOM     29  P   UNL d   1      38.436 -14.866  10.585 -0.29 -0.12    +0.473 P 
DOCKED: ATOM     30  O   UNL d   1      37.651 -13.631  10.839 -0.38 +0.05    -0.228 OA
DOCKED: BRANCH  29  31
DOCKED: ATOM     31  O   UNL d   1      37.651 -16.108   9.951 -0.26 +0.03    -0.303 OA
DOCKED: ATOM     32  H   UNL d   1      37.926 -16.928  10.424 +0.10 -0.02    +0.222 HD
DOCKED: ENDBRANCH  29  31
DOCKED: BRANCH  29  33
DOCKED: ATOM     33  O   UNL d   1      39.175 -15.518  11.836 -0.38 +0.07    -0.303 OA
DOCKED: ATOM     34  H   UNL d   1      39.997 -15.970  11.523 +0.08 -0.04    +0.222 HD
DOCKED: ENDBRANCH  29  33
DOCKED: ENDBRANCH  28  29
DOCKED: ENDBRANCH   3  28
DOCKED: BRANCH   5  35
DOCKED: ATOM     35  O   UNL d   1      43.984 -16.258   9.211 -0.12 -0.07    -0.278 OA
DOCKED: BRANCH  35  36
DOCKED: ATOM     36  P   UNL d   1      45.020 -17.202   9.973 -0.03 +0.21    +0.473 P 
DOCKED: ATOM     37  O   UNL d   1      44.970 -17.141  11.466 -0.29 -0.27    -0.228 OA
DOCKED: BRANCH  36  38
DOCKED: ATOM     38  O   UNL d   1      44.669 -18.630   9.363 -0.01 -0.05    -0.303 OA
DOCKED: ATOM     39  H   UNL d   1      43.791 -18.586   8.927 +0.02 +0.03    +0.222 HD
DOCKED: ENDBRANCH  36  38
DOCKED: BRANCH  36  40
DOCKED: ATOM     40  O   UNL d   1      46.400 -16.819   9.280 -0.00 -0.06    -0.303 OA
DOCKED: ATOM     41  H   UNL d   1      47.159 -17.278   9.703 +0.01 +0.04    +0.222 HD
DOCKED: ENDBRANCH  36  40
DOCKED: ENDBRANCH  35  36
DOCKED: ENDBRANCH   5  35
DOCKED: BRANCH   4  42
DOCKED: ATOM     42  O   UNL d   1      41.644 -16.208  10.946 -0.16 -0.04    -0.278 OA
DOCKED: BRANCH  42  43
DOCKED: ATOM     43  P   UNL d   1      41.318 -17.731  11.290 -0.13 +0.12    +0.473 P 
DOCKED: ATOM     44  O   UNL d   1      42.343 -18.750  10.932 -0.09 -0.06    -0.228 OA
DOCKED: BRANCH  43  45
DOCKED: ATOM     45  O   UNL d   1      40.973 -17.673  12.842 -0.24 -0.08    -0.303 OA
DOCKED: ATOM     46  H   UNL d   1      40.386 -16.918  13.050 +0.09 +0.02    +0.222 HD
DOCKED: ENDBRANCH  43  45
DOCKED: BRANCH  43  47
DOCKED: ATOM     47  O   UNL d   1      39.868 -17.951  10.642 -0.08 -0.01    -0.303 OA
DOCKED: ATOM     48  H   UNL d   1      39.395 -17.094  10.612 +0.10 -0.01    +0.222 HD
DOCKED: ENDBRANCH  43  47
DOCKED: ENDBRANCH  42  43
DOCKED: ENDBRANCH   4  42
DOCKED: TORSDOF 24
DOCKED: TER
DOCKED: ENDMDL
________________________________________________________________________________


	BEGINNING GENETIC ALGORITHM DOCKING 78 of 100
Run: 78 Seed: 1080617864 293563498 [ Run 78 of 100 GA/GALS ]
Beginning LAMARCKIAN GENETIC ALGORITHM (LGA), with a maximum of 25000000 energy evaluations.

Final-Value: -17.711


	FINAL GENETIC ALGORITHM DOCKED STATE
	_______________________________________________


Detailed state:  trans 9.593 20.180 34.083 quatxyzw 0.047474 -0.570276 0.811386 0.119099 center 0.035 0.082 -0.065 ntor 24 -140.7241 -9.0806 158.4703 2.9845 39.9829 157.2666 -25.6355 -128.5072 20.2966 46.2422 -133.4730 -88.8831 74.4724 180.0000 166.5821 114.8159 7.0864 15.4240 -16.9379 10.5774 -9.8636 0.7731 174.5565 -25.5014
State:	  9.593  20.180  34.083   0.048 -0.574  0.817 166.320   -140.72   -9.08  158.47    2.98   39.98  157.27  -25.64 -128.51   20.30   46.24 -133.47  -88.88   74.47  180.00  166.58  114.82    7.09   15.42  -16.94   10.58   -9.86    0.77  174.56  -25.50

DOCKED: MODEL       78
DOCKED: USER    Run = 78
DOCKED: USER    DPF = D:/Protein_go_brrr/autodock/final/1A3N/IHP/dock.dpf
DOCKED: USER  
DOCKED: USER    Estimated Free Energy of Binding    =   +4.07 kcal/mol  [=(1)+(2)+(3)-(4)]
DOCKED: USER    
DOCKED: USER    (1) Final Intermolecular Energy     =   -3.09 kcal/mol
DOCKED: USER        vdW + Hbond + desolv Energy     =   -2.98 kcal/mol
DOCKED: USER        Electrostatic Energy            =   -0.11 kcal/mol
DOCKED: USER    (2) Final Total Internal Energy     =  -14.63 kcal/mol
DOCKED: USER    (3) Torsional Free Energy           =   +7.16 kcal/mol
DOCKED: USER    (4) Unbound System's Energy  [=(2)] =  -14.63 kcal/mol
DOCKED: USER    
DOCKED: USER    
DOCKED: USER    NEWDPF move IHP_ideal_opt.pdbqt
DOCKED: USER    NEWDPF about 0.035000 0.082000 -0.065000
DOCKED: USER    NEWDPF tran0 9.592772 20.179676 34.082842
DOCKED: USER    NEWDPF quaternion0 0.047474 -0.570276 0.811386 0.119099
DOCKED: USER    NEWDPF axisangle0 0.047814 -0.574364 0.817203 166.319785
DOCKED: USER    NEWDPF quat0 0.047814 -0.574364 0.817203 166.319785
DOCKED: USER    NEWDPF dihe0 -140.72 -9.08 158.47 2.98 39.98 157.27 -25.64 -128.51 20.30 46.24 -133.47 -88.88 74.47 180.00 166.58 114.82 7.09 15.42 -16.94 10.58 -9.86 0.77 174.56 -25.50 
DOCKED: USER  keepresnum = 1 
DOCKED: USER  
DOCKED: REMARK  24 active torsions:
DOCKED: REMARK  status: ('A' for Active; 'I' for Inactive)
DOCKED: REMARK    1  A    between atoms: C_1  and  O_7 
DOCKED: REMARK    2  A    between atoms: C_2  and  O_12 
DOCKED: REMARK    3  A    between atoms: C_3  and  O_17 
DOCKED: REMARK    4  A    between atoms: C_4  and  O_22 
DOCKED: REMARK    5  A    between atoms: C_5  and  O_27 
DOCKED: REMARK    6  A    between atoms: C_6  and  O_32 
DOCKED: REMARK    7  A    between atoms: O_7  and  P_8 
DOCKED: REMARK    8  A    between atoms: P_8  and  O_10 
DOCKED: REMARK    9  A    between atoms: P_8  and  O_11 
DOCKED: REMARK   10  A    between atoms: O_12  and  P_13 
DOCKED: REMARK   11  A    between atoms: P_13  and  O_15 
DOCKED: REMARK   12  A    between atoms: P_13  and  O_16 
DOCKED: REMARK   13  A    between atoms: O_17  and  P_18 
DOCKED: REMARK   14  A    between atoms: P_18  and  O_20 
DOCKED: REMARK   15  A    between atoms: P_18  and  O_21 
DOCKED: REMARK   16  A    between atoms: O_22  and  P_23 
DOCKED: REMARK   17  A    between atoms: P_23  and  O_25 
DOCKED: REMARK   18  A    between atoms: P_23  and  O_26 
DOCKED: REMARK   19  A    between atoms: O_27  and  P_28 
DOCKED: REMARK   20  A    between atoms: P_28  and  O_30 
DOCKED: REMARK   21  A    between atoms: P_28  and  O_31 
DOCKED: REMARK   22  A    between atoms: O_32  and  P_33 
DOCKED: REMARK   23  A    between atoms: P_33  and  O_35 
DOCKED: REMARK   24  A    between atoms: P_33  and  O_36 
DOCKED: USER                              x       y       z     vdW  Elec       q    Type
DOCKED: USER                           _______ _______ _______ _____ _____    ______ ____
DOCKED: ROOT
DOCKED: ATOM      1  C   UNL d   1       8.426  19.432  35.114 -0.03 +0.06    +0.194 C 
DOCKED: ATOM      2  C   UNL d   1       9.442  20.336  35.813 -0.01 +0.04    +0.194 C 
DOCKED: ATOM      3  C   UNL d   1      10.859  20.118  35.276 -0.04 +0.03    +0.194 C 
DOCKED: ATOM      4  C   UNL d   1      10.947  20.217  33.755 -0.09 +0.03    +0.194 C 
DOCKED: ATOM      5  C   UNL d   1       9.879  19.421  33.018 -0.13 +0.04    +0.194 C 
DOCKED: ATOM      6  C   UNL d   1       8.471  19.592  33.594 -0.06 +0.05    +0.194 C 
DOCKED: ENDROOT
DOCKED: BRANCH   1   7
DOCKED: ATOM      7  O   UNL d   1       7.118  19.816  35.544 -0.02 -0.10    -0.278 OA
DOCKED: BRANCH   7   8
DOCKED: ATOM      8  P   UNL d   1       6.049  18.666  35.844 -0.06 +0.37    +0.473 P 
DOCKED: ATOM      9  O   UNL d   1       5.419  18.727  37.191 -0.07 -0.15    -0.228 OA
DOCKED: BRANCH   8  10
DOCKED: ATOM     10  O   UNL d   1       4.998  18.794  34.651 -0.04 -0.23    -0.303 OA
DOCKED: ATOM     11  H   UNL d   1       5.448  18.637  33.800 +0.04 +0.15    +0.222 HD
DOCKED: ENDBRANCH   8  10
DOCKED: BRANCH   8  12
DOCKED: ATOM     12  O   UNL d   1       6.793  17.308  35.487 -0.57 -0.43    -0.303 OA
DOCKED: ATOM     13  H   UNL d   1       7.161  17.298  34.575 +0.03 +0.23    +0.222 HD
DOCKED: ENDBRANCH   8  12
DOCKED: ENDBRANCH   7   8
DOCKED: ENDBRANCH   1   7
DOCKED: BRANCH   2  14
DOCKED: ATOM     14  O   UNL d   1       9.078  21.705  35.595 -0.00 -0.04    -0.278 OA
DOCKED: BRANCH  14  15
DOCKED: ATOM     15  P   UNL d   1       9.300  22.709  36.822 +0.00 +0.05    +0.473 P 
DOCKED: ATOM     16  O   UNL d   1       8.107  23.488  37.278 +0.00 -0.02    -0.228 OA
DOCKED: BRANCH  15  17
DOCKED: ATOM     17  O   UNL d   1       9.913  21.789  37.970 +0.00 -0.04    -0.303 OA
DOCKED: ATOM     18  H   UNL d   1      10.775  21.418  37.700 +0.00 +0.03    +0.222 HD
DOCKED: ENDBRANCH  15  17
DOCKED: BRANCH  15  19
DOCKED: ATOM     19  O   UNL d   1      10.565  23.577  36.400 -0.00 -0.02    -0.303 OA
DOCKED: ATOM     20  H   UNL d   1      11.339  23.017  36.207 +0.00 +0.02    +0.222 HD
DOCKED: ENDBRANCH  15  19
DOCKED: ENDBRANCH  14  15
DOCKED: ENDBRANCH   2  14
DOCKED: BRANCH   6  21
DOCKED: ATOM     21  O   UNL d   1       7.670  18.550  33.040 -0.08 -0.11    -0.278 OA
DOCKED: BRANCH  21  22
DOCKED: ATOM     22  P   UNL d   1       6.501  18.911  32.016 -0.11 +0.14    +0.473 P 
DOCKED: ATOM     23  O   UNL d   1       5.454  17.882  31.751 -0.17 -0.10    -0.228 OA
DOCKED: BRANCH  22  24
DOCKED: ATOM     24  O   UNL d   1       5.954  20.280  32.615 -0.05 -0.06    -0.303 OA
DOCKED: ATOM     25  H   UNL d   1       6.150  20.292  33.586 +0.03 +0.06    +0.222 HD
DOCKED: ENDBRANCH  22  24
DOCKED: BRANCH  22  26
DOCKED: ATOM     26  O   UNL d   1       7.330  19.415  30.740 -0.10 -0.05    -0.303 OA
DOCKED: ATOM     27  H   UNL d   1       8.247  19.620  31.012 +0.07 +0.04    +0.222 HD
DOCKED: ENDBRANCH  22  26
DOCKED: ENDBRANCH  21  22
DOCKED: ENDBRANCH   6  21
DOCKED: BRANCH   3  28
DOCKED: ATOM     28  O   UNL d   1      11.672  21.173  35.772 -0.01 -0.03    -0.278 OA
DOCKED: BRANCH  28  29
DOCKED: ATOM     29  P   UNL d   1      12.811  20.876  36.844 -0.01 +0.05    +0.473 P 
DOCKED: ATOM     30  O   UNL d   1      14.140  20.519  36.285 -0.02 -0.02    -0.228 OA
DOCKED: BRANCH  29  31
DOCKED: ATOM     31  O   UNL d   1      12.727  22.213  37.720 -0.00 -0.02    -0.303 OA
DOCKED: ATOM     32  H   UNL d   1      11.816  22.581  37.643 +0.00 +0.02    +0.222 HD
DOCKED: ENDBRANCH  29  31
DOCKED: BRANCH  29  33
DOCKED: ATOM     33  O   UNL d   1      12.112  19.796  37.783 -0.00 -0.05    -0.303 OA
DOCKED: ATOM     34  H   UNL d   1      11.390  20.236  38.295 +0.00 +0.03    +0.222 HD
DOCKED: ENDBRANCH  29  33
DOCKED: ENDBRANCH  28  29
DOCKED: ENDBRANCH   3  28
DOCKED: BRANCH   5  35
DOCKED: ATOM     35  O   UNL d   1       9.855  19.942  31.690 -0.15 -0.05    -0.278 OA
DOCKED: BRANCH  35  36
DOCKED: ATOM     36  P   UNL d   1       9.640  21.502  31.442 -0.11 +0.06    +0.473 P 
DOCKED: ATOM     37  O   UNL d   1      10.546  22.409  32.212 -0.08 -0.02    -0.228 OA
DOCKED: BRANCH  36  38
DOCKED: ATOM     38  O   UNL d   1       9.799  21.606  29.861 -0.22 -0.04    -0.303 OA
DOCKED: ATOM     39  H   UNL d   1      10.622  21.145  29.590 +0.09 +0.04    +0.222 HD
DOCKED: ENDBRANCH  36  38
DOCKED: BRANCH  36  40
DOCKED: ATOM     40  O   UNL d   1       8.076  21.672  31.681 -0.04 -0.03    -0.303 OA
DOCKED: ATOM     41  H   UNL d   1       7.661  20.834  31.982 +0.05 +0.03    +0.222 HD
DOCKED: ENDBRANCH  36  40
DOCKED: ENDBRANCH  35  36
DOCKED: ENDBRANCH   5  35
DOCKED: BRANCH   4  42
DOCKED: ATOM     42  O   UNL d   1      12.215  19.671  33.378 -0.14 -0.04    -0.278 OA
DOCKED: BRANCH  42  43
DOCKED: ATOM     43  P   UNL d   1      13.087  20.432  32.279 -0.18 +0.02    +0.473 P 
DOCKED: ATOM     44  O   UNL d   1      13.523  21.822  32.591 -0.13 -0.00    -0.228 OA
DOCKED: BRANCH  43  45
DOCKED: ATOM     45  O   UNL d   1      14.284  19.417  32.019 -0.24 -0.00    -0.303 OA
DOCKED: ATOM     46  H   UNL d   1      14.656  19.524  31.120 -0.31 -0.05    +0.222 HD
DOCKED: ENDBRANCH  43  45
DOCKED: BRANCH  43  47
DOCKED: ATOM     47  O   UNL d   1      12.219  20.262  30.942 -0.10 -0.01    -0.303 OA
DOCKED: ATOM     48  H   UNL d   1      11.598  21.016  30.862 +0.10 +0.03    +0.222 HD
DOCKED: ENDBRANCH  43  47
DOCKED: ENDBRANCH  42  43
DOCKED: ENDBRANCH   4  42
DOCKED: TORSDOF 24
DOCKED: TER
DOCKED: ENDMDL
________________________________________________________________________________


	BEGINNING GENETIC ALGORITHM DOCKING 79 of 100
Run: 79 Seed: 1599716154 1991672105 [ Run 79 of 100 GA/GALS ]
Beginning LAMARCKIAN GENETIC ALGORITHM (LGA), with a maximum of 25000000 energy evaluations.

Final-Value: -18.614


	FINAL GENETIC ALGORITHM DOCKED STATE
	_______________________________________________


Detailed state:  trans 4.517 -11.762 26.728 quatxyzw 0.120113 -0.829306 0.341097 -0.426001 center 0.035 0.082 -0.065 ntor 24 129.8573 112.6436 66.4318 29.9883 -13.5408 177.5396 -106.9147 -141.6299 138.3568 -18.6786 -94.8726 -175.3524 -46.2455 168.3371 -179.9404 -142.0465 167.9863 1.0505 46.4354 -14.6761 -180.0000 -31.9029 22.8724 166.1775
State:	  4.517 -11.762  26.728   0.133 -0.917  0.377 -129.572    129.86  112.64   66.43   29.99  -13.54  177.54 -106.91 -141.63  138.36  -18.68  -94.87 -175.35  -46.25  168.34 -179.94 -142.05  167.99    1.05   46.44  -14.68 -180.00  -31.90   22.87  166.18

DOCKED: MODEL       79
DOCKED: USER    Run = 79
DOCKED: USER    DPF = D:/Protein_go_brrr/autodock/final/1A3N/IHP/dock.dpf
DOCKED: USER  
DOCKED: USER    Estimated Free Energy of Binding    =   +2.21 kcal/mol  [=(1)+(2)+(3)-(4)]
DOCKED: USER    
DOCKED: USER    (1) Final Intermolecular Energy     =   -4.94 kcal/mol
DOCKED: USER        vdW + Hbond + desolv Energy     =   -4.84 kcal/mol
DOCKED: USER        Electrostatic Energy            =   -0.11 kcal/mol
DOCKED: USER    (2) Final Total Internal Energy     =  -13.67 kcal/mol
DOCKED: USER    (3) Torsional Free Energy           =   +7.16 kcal/mol
DOCKED: USER    (4) Unbound System's Energy  [=(2)] =  -13.67 kcal/mol
DOCKED: USER    
DOCKED: USER    
DOCKED: USER    NEWDPF move IHP_ideal_opt.pdbqt
DOCKED: USER    NEWDPF about 0.035000 0.082000 -0.065000
DOCKED: USER    NEWDPF tran0 4.516519 -11.761875 26.728314
DOCKED: USER    NEWDPF quaternion0 0.120113 -0.829306 0.341097 -0.426001
DOCKED: USER    NEWDPF axisangle0 0.132763 -0.916641 0.377018 -129.571947
DOCKED: USER    NEWDPF quat0 0.132763 -0.916641 0.377018 -129.571947
DOCKED: USER    NEWDPF dihe0 129.86 112.64 66.43 29.99 -13.54 177.54 -106.91 -141.63 138.36 -18.68 -94.87 -175.35 -46.25 168.34 -179.94 -142.05 167.99 1.05 46.44 -14.68 -180.00 -31.90 22.87 166.18 
DOCKED: USER  keepresnum = 1 
DOCKED: USER  
DOCKED: REMARK  24 active torsions:
DOCKED: REMARK  status: ('A' for Active; 'I' for Inactive)
DOCKED: REMARK    1  A    between atoms: C_1  and  O_7 
DOCKED: REMARK    2  A    between atoms: C_2  and  O_12 
DOCKED: REMARK    3  A    between atoms: C_3  and  O_17 
DOCKED: REMARK    4  A    between atoms: C_4  and  O_22 
DOCKED: REMARK    5  A    between atoms: C_5  and  O_27 
DOCKED: REMARK    6  A    between atoms: C_6  and  O_32 
DOCKED: REMARK    7  A    between atoms: O_7  and  P_8 
DOCKED: REMARK    8  A    between atoms: P_8  and  O_10 
DOCKED: REMARK    9  A    between atoms: P_8  and  O_11 
DOCKED: REMARK   10  A    between atoms: O_12  and  P_13 
DOCKED: REMARK   11  A    between atoms: P_13  and  O_15 
DOCKED: REMARK   12  A    between atoms: P_13  and  O_16 
DOCKED: REMARK   13  A    between atoms: O_17  and  P_18 
DOCKED: REMARK   14  A    between atoms: P_18  and  O_20 
DOCKED: REMARK   15  A    between atoms: P_18  and  O_21 
DOCKED: REMARK   16  A    between atoms: O_22  and  P_23 
DOCKED: REMARK   17  A    between atoms: P_23  and  O_25 
DOCKED: REMARK   18  A    between atoms: P_23  and  O_26 
DOCKED: REMARK   19  A    between atoms: O_27  and  P_28 
DOCKED: REMARK   20  A    between atoms: P_28  and  O_30 
DOCKED: REMARK   21  A    between atoms: P_28  and  O_31 
DOCKED: REMARK   22  A    between atoms: O_32  and  P_33 
DOCKED: REMARK   23  A    between atoms: P_33  and  O_35 
DOCKED: REMARK   24  A    between atoms: P_33  and  O_36 
DOCKED: USER                              x       y       z     vdW  Elec       q    Type
DOCKED: USER                           _______ _______ _______ _____ _____    ______ ____
DOCKED: ROOT
DOCKED: ATOM      1  C   UNL d   1       3.695 -12.832  27.808 -0.06 +0.00    +0.194 C 
DOCKED: ATOM      2  C   UNL d   1       5.079 -13.293  27.346 -0.10 +0.02    +0.194 C 
DOCKED: ATOM      3  C   UNL d   1       5.285 -13.053  25.849 -0.10 +0.02    +0.194 C 
DOCKED: ATOM      4  C   UNL d   1       4.983 -11.618  25.422 -0.14 +0.02    +0.194 C 
DOCKED: ATOM      5  C   UNL d   1       3.663 -11.077  25.958 -0.12 +0.03    +0.194 C 
DOCKED: ATOM      6  C   UNL d   1       3.429 -11.371  27.441 -0.08 -0.00    +0.194 C 
DOCKED: ENDROOT
DOCKED: BRANCH   1   7
DOCKED: ATOM      7  O   UNL d   1       3.646 -12.928  29.233 -0.06 +0.01    -0.278 OA
DOCKED: BRANCH   7   8
DOCKED: ATOM      8  P   UNL d   1       3.476 -14.374  29.891 +0.00 +0.00    +0.473 P 
DOCKED: ATOM      9  O   UNL d   1       3.510 -15.512  28.931 -0.01 -0.01    -0.228 OA
DOCKED: BRANCH   8  10
DOCKED: ATOM     10  O   UNL d   1       4.636 -14.441  30.985 -0.02 -0.00    -0.303 OA
DOCKED: ATOM     11  H   UNL d   1       5.378 -13.871  30.709 +0.06 +0.00    +0.222 HD
DOCKED: ENDBRANCH   8  10
DOCKED: BRANCH   8  12
DOCKED: ATOM     12  O   UNL d   1       2.173 -14.267  30.793 -0.00 +0.01    -0.303 OA
DOCKED: ATOM     13  H   UNL d   1       1.349 -14.149  30.269 +0.02 -0.01    +0.222 HD
DOCKED: ENDBRANCH   8  12
DOCKED: ENDBRANCH   7   8
DOCKED: ENDBRANCH   1   7
DOCKED: BRANCH   2  14
DOCKED: ATOM     14  O   UNL d   1       6.079 -12.564  28.067 -0.19 -0.01    -0.278 OA
DOCKED: BRANCH  14  15
DOCKED: ATOM     15  P   UNL d   1       7.046 -13.420  29.014 -0.22 +0.16    +0.473 P 
DOCKED: ATOM     16  O   UNL d   1       7.323 -12.860  30.374 -0.24 -0.00    -0.228 OA
DOCKED: BRANCH  15  17
DOCKED: ATOM     17  O   UNL d   1       6.362 -14.858  29.066 -0.12 -0.16    -0.303 OA
DOCKED: ATOM     18  H   UNL d   1       5.394 -14.792  28.957 +0.05 +0.05    +0.222 HD
DOCKED: ENDBRANCH  15  17
DOCKED: BRANCH  15  19
DOCKED: ATOM     19  O   UNL d   1       8.327 -13.708  28.117 -0.61 -0.31    -0.303 OA
DOCKED: ATOM     20  H   UNL d   1       8.101 -13.754  27.169 +0.09 +0.14    +0.222 HD
DOCKED: ENDBRANCH  15  19
DOCKED: ENDBRANCH  14  15
DOCKED: ENDBRANCH   2  14
DOCKED: BRANCH   6  21
DOCKED: ATOM     21  O   UNL d   1       2.049 -11.120  27.698 -0.04 +0.01    -0.278 OA
DOCKED: BRANCH  21  22
DOCKED: ATOM     22  P   UNL d   1       0.954 -12.192  27.256 +0.00 +0.00    +0.473 P 
DOCKED: ATOM     23  O   UNL d   1      -0.406 -11.700  26.889 -0.04 +0.01    -0.228 OA
DOCKED: BRANCH  22  24
DOCKED: ATOM     24  O   UNL d   1       1.714 -12.977  26.099 -0.08 -0.04    -0.303 OA
DOCKED: ATOM     25  H   UNL d   1       1.664 -12.432  25.273 +0.08 +0.08    +0.222 HD
DOCKED: ENDBRANCH  22  24
DOCKED: BRANCH  22  26
DOCKED: ATOM     26  O   UNL d   1       1.018 -13.242  28.466 -0.01 +0.01    -0.303 OA
DOCKED: ATOM     27  H   UNL d   1       1.647 -12.916  29.142 +0.03 -0.01    +0.222 HD
DOCKED: ENDBRANCH  22  26
DOCKED: ENDBRANCH  21  22
DOCKED: ENDBRANCH   6  21
DOCKED: BRANCH   3  28
DOCKED: ATOM     28  O   UNL d   1       6.666 -13.246  25.570 -0.14 -0.02    -0.278 OA
DOCKED: BRANCH  28  29
DOCKED: ATOM     29  P   UNL d   1       7.260 -14.717  25.430 -0.15 +0.13    +0.473 P 
DOCKED: ATOM     30  O   UNL d   1       8.743 -14.810  25.417 -0.37 -0.07    -0.228 OA
DOCKED: BRANCH  29  31
DOCKED: ATOM     31  O   UNL d   1       6.498 -15.442  26.636 -0.08 -0.12    -0.303 OA
DOCKED: ATOM     32  H   UNL d   1       6.675 -14.941  27.466 +0.08 +0.12    +0.222 HD
DOCKED: ENDBRANCH  29  31
DOCKED: BRANCH  29  33
DOCKED: ATOM     33  O   UNL d   1       6.493 -15.266  24.148 -0.09 -0.07    -0.303 OA
DOCKED: ATOM     34  H   UNL d   1       5.603 -15.597  24.423 +0.07 +0.04    +0.222 HD
DOCKED: ENDBRANCH  29  33
DOCKED: ENDBRANCH  28  29
DOCKED: ENDBRANCH   3  28
DOCKED: BRANCH   5  35
DOCKED: ATOM     35  O   UNL d   1       3.741  -9.660  25.818 -0.14 -0.01    -0.278 OA
DOCKED: BRANCH  35  36
DOCKED: ATOM     36  P   UNL d   1       2.412  -8.792  25.660 -0.09 +0.03    +0.473 P 
DOCKED: ATOM     37  O   UNL d   1       2.539  -7.565  24.816 -0.21 +0.00    -0.228 OA
DOCKED: BRANCH  36  38
DOCKED: ATOM     38  O   UNL d   1       1.384  -9.871  25.098 -0.29 -0.13    -0.303 OA
DOCKED: ATOM     39  H   UNL d   1       1.194 -10.531  25.799 +0.08 +0.05    +0.222 HD
DOCKED: ENDBRANCH  36  38
DOCKED: BRANCH  36  40
DOCKED: ATOM     40  O   UNL d   1       1.960  -8.585  27.171 -0.08 +0.04    -0.303 OA
DOCKED: ATOM     41  H   UNL d   1       1.784  -9.442  27.620 +0.07 -0.02    +0.222 HD
DOCKED: ENDBRANCH  36  40
DOCKED: ENDBRANCH  35  36
DOCKED: ENDBRANCH   5  35
DOCKED: BRANCH   4  42
DOCKED: ATOM     42  O   UNL d   1       4.888 -11.621  23.994 -0.11 -0.09    -0.278 OA
DOCKED: BRANCH  42  43
DOCKED: ATOM     43  P   UNL d   1       3.864 -12.623  23.291 -0.08 +0.35    +0.473 P 
DOCKED: ATOM     44  O   UNL d   1       2.483 -12.693  23.844 -0.43 -0.21    -0.228 OA
DOCKED: BRANCH  43  45
DOCKED: ATOM     45  O   UNL d   1       3.932 -12.178  21.765 -0.51 -0.34    -0.303 OA
DOCKED: ATOM     46  H   UNL d   1       3.212 -12.582  21.241 -0.35 +0.25    +0.222 HD
DOCKED: ENDBRANCH  43  45
DOCKED: BRANCH  43  47
DOCKED: ATOM     47  O   UNL d   1       4.669 -14.009  23.262 -0.19 -0.09    -0.303 OA
DOCKED: ATOM     48  H   UNL d   1       5.526 -13.894  23.723 +0.09 +0.05    +0.222 HD
DOCKED: ENDBRANCH  43  47
DOCKED: ENDBRANCH  42  43
DOCKED: ENDBRANCH   4  42
DOCKED: TORSDOF 24
DOCKED: TER
DOCKED: ENDMDL
________________________________________________________________________________


	BEGINNING GENETIC ALGORITHM DOCKING 80 of 100
Run: 80 Seed: 1720044387 1816866782 [ Run 80 of 100 GA/GALS ]
Beginning LAMARCKIAN GENETIC ALGORITHM (LGA), with a maximum of 25000000 energy evaluations.

Final-Value: -16.814


	FINAL GENETIC ALGORITHM DOCKED STATE
	_______________________________________________


Detailed state:  trans -9.943 -9.614 -9.672 quatxyzw 0.147412 -0.661538 0.268765 0.684400 center 0.035 0.082 -0.065 ntor 24 -163.3504 4.9378 24.4922 -39.8498 -2.2677 -179.8744 -48.6327 -45.3636 180.0000 -43.1489 164.3223 -126.2141 18.8828 -178.5006 159.0319 -175.0923 108.5617 -16.0265 0.1560 -36.9202 -27.1619 -29.4372 -54.4517 140.1904
State:	 -9.943  -9.614  -9.672   0.202 -0.907  0.369 93.623   -163.35    4.94   24.49  -39.85   -2.27 -179.87  -48.63  -45.36  180.00  -43.15  164.32 -126.21   18.88 -178.50  159.03 -175.09  108.56  -16.03    0.16  -36.92  -27.16  -29.44  -54.45  140.19

DOCKED: MODEL       80
DOCKED: USER    Run = 80
DOCKED: USER    DPF = D:/Protein_go_brrr/autodock/final/1A3N/IHP/dock.dpf
DOCKED: USER  
DOCKED: USER    Estimated Free Energy of Binding    =   +4.38 kcal/mol  [=(1)+(2)+(3)-(4)]
DOCKED: USER    
DOCKED: USER    (1) Final Intermolecular Energy     =   -2.78 kcal/mol
DOCKED: USER        vdW + Hbond + desolv Energy     =   -2.70 kcal/mol
DOCKED: USER        Electrostatic Energy            =   -0.08 kcal/mol
DOCKED: USER    (2) Final Total Internal Energy     =  -14.03 kcal/mol
DOCKED: USER    (3) Torsional Free Energy           =   +7.16 kcal/mol
DOCKED: USER    (4) Unbound System's Energy  [=(2)] =  -14.03 kcal/mol
DOCKED: USER    
DOCKED: USER    
DOCKED: USER    NEWDPF move IHP_ideal_opt.pdbqt
DOCKED: USER    NEWDPF about 0.035000 0.082000 -0.065000
DOCKED: USER    NEWDPF tran0 -9.942946 -9.614329 -9.671637
DOCKED: USER    NEWDPF quaternion0 0.147412 -0.661538 0.268765 0.684400
DOCKED: USER    NEWDPF axisangle0 0.202181 -0.907326 0.368622 93.623176
DOCKED: USER    NEWDPF quat0 0.202181 -0.907326 0.368622 93.623176
DOCKED: USER    NEWDPF dihe0 -163.35 4.94 24.49 -39.85 -2.27 -179.87 -48.63 -45.36 180.00 -43.15 164.32 -126.21 18.88 -178.50 159.03 -175.09 108.56 -16.03 0.16 -36.92 -27.16 -29.44 -54.45 140.19 
DOCKED: USER  keepresnum = 1 
DOCKED: USER  
DOCKED: REMARK  24 active torsions:
DOCKED: REMARK  status: ('A' for Active; 'I' for Inactive)
DOCKED: REMARK    1  A    between atoms: C_1  and  O_7 
DOCKED: REMARK    2  A    between atoms: C_2  and  O_12 
DOCKED: REMARK    3  A    between atoms: C_3  and  O_17 
DOCKED: REMARK    4  A    between atoms: C_4  and  O_22 
DOCKED: REMARK    5  A    between atoms: C_5  and  O_27 
DOCKED: REMARK    6  A    between atoms: C_6  and  O_32 
DOCKED: REMARK    7  A    between atoms: O_7  and  P_8 
DOCKED: REMARK    8  A    between atoms: P_8  and  O_10 
DOCKED: REMARK    9  A    between atoms: P_8  and  O_11 
DOCKED: REMARK   10  A    between atoms: O_12  and  P_13 
DOCKED: REMARK   11  A    between atoms: P_13  and  O_15 
DOCKED: REMARK   12  A    between atoms: P_13  and  O_16 
DOCKED: REMARK   13  A    between atoms: O_17  and  P_18 
DOCKED: REMARK   14  A    between atoms: P_18  and  O_20 
DOCKED: REMARK   15  A    between atoms: P_18  and  O_21 
DOCKED: REMARK   16  A    between atoms: O_22  and  P_23 
DOCKED: REMARK   17  A    between atoms: P_23  and  O_25 
DOCKED: REMARK   18  A    between atoms: P_23  and  O_26 
DOCKED: REMARK   19  A    between atoms: O_27  and  P_28 
DOCKED: REMARK   20  A    between atoms: P_28  and  O_30 
DOCKED: REMARK   21  A    between atoms: P_28  and  O_31 
DOCKED: REMARK   22  A    between atoms: O_32  and  P_33 
DOCKED: REMARK   23  A    between atoms: P_33  and  O_35 
DOCKED: REMARK   24  A    between atoms: P_33  and  O_36 
DOCKED: USER                              x       y       z     vdW  Elec       q    Type
DOCKED: USER                           _______ _______ _______ _____ _____    ______ ____
DOCKED: ROOT
DOCKED: ATOM      1  C   UNL d   1      -9.342 -11.162 -10.148 -0.00 +0.04    +0.194 C 
DOCKED: ATOM      2  C   UNL d   1      -9.820 -11.056  -8.698 -0.02 +0.05    +0.194 C 
DOCKED: ATOM      3  C   UNL d   1      -9.350  -9.757  -8.041 -0.09 +0.10    +0.194 C 
DOCKED: ATOM      4  C   UNL d   1      -9.695  -8.512  -8.855 -0.06 +0.19    +0.194 C 
DOCKED: ATOM      5  C   UNL d   1      -9.340  -8.619 -10.333 -0.05 +0.10    +0.194 C 
DOCKED: ATOM      6  C   UNL d   1      -9.755  -9.944 -10.975 -0.01 +0.06    +0.194 C 
DOCKED: ENDROOT
DOCKED: BRANCH   1   7
DOCKED: ATOM      7  O   UNL d   1      -9.961 -12.308 -10.738 +0.00 -0.04    -0.278 OA
DOCKED: BRANCH   7   8
DOCKED: ATOM      8  P   UNL d   1      -9.022 -13.447 -11.350 +0.00 +0.04    +0.473 P 
DOCKED: ATOM      9  O   UNL d   1      -8.270 -14.250 -10.349 +0.00 -0.01    -0.228 OA
DOCKED: BRANCH   8  10
DOCKED: ATOM     10  O   UNL d   1     -10.011 -14.324 -12.244 +0.00 -0.02    -0.303 OA
DOCKED: ATOM     11  H   UNL d   1     -10.646 -13.739 -12.698 +0.00 +0.01    +0.222 HD
DOCKED: ENDBRANCH   8  10
DOCKED: BRANCH   8  12
DOCKED: ATOM     12  O   UNL d   1      -8.144 -12.710 -12.451 +0.00 -0.03    -0.303 OA
DOCKED: ATOM     13  H   UNL d   1      -8.655 -12.054 -12.976 +0.00 +0.03    +0.222 HD
DOCKED: ENDBRANCH   8  12
DOCKED: ENDBRANCH   7   8
DOCKED: ENDBRANCH   1   7
DOCKED: BRANCH   2  14
DOCKED: ATOM     14  O   UNL d   1     -11.252 -11.088  -8.675 -0.02 -0.09    -0.278 OA
DOCKED: BRANCH  14  15
DOCKED: ATOM     15  P   UNL d   1     -11.933 -12.517  -8.433 +0.01 +0.06    +0.473 P 
DOCKED: ATOM     16  O   UNL d   1     -12.892 -12.991  -9.479 +0.00 -0.02    -0.228 OA
DOCKED: BRANCH  15  17
DOCKED: ATOM     17  O   UNL d   1     -10.700 -13.504  -8.232 +0.00 -0.02    -0.303 OA
DOCKED: ATOM     18  H   UNL d   1     -10.226 -13.651  -9.074 +0.00 +0.01    +0.222 HD
DOCKED: ENDBRANCH  15  17
DOCKED: BRANCH  15  19
DOCKED: ATOM     19  O   UNL d   1     -12.517 -12.432  -6.956 +0.00 -0.02    -0.303 OA
DOCKED: ATOM     20  H   UNL d   1     -11.930 -12.866  -6.310 +0.01 +0.00    +0.222 HD
DOCKED: ENDBRANCH  15  19
DOCKED: ENDBRANCH  14  15
DOCKED: ENDBRANCH   2  14
DOCKED: BRANCH   6  21
DOCKED: ATOM     21  O   UNL d   1      -9.067 -10.032 -12.221 +0.00 -0.06    -0.278 OA
DOCKED: BRANCH  21  22
DOCKED: ATOM     22  P   UNL d   1      -9.878 -10.371 -13.552 +0.01 +0.07    +0.473 P 
DOCKED: ATOM     23  O   UNL d   1      -9.105 -10.660 -14.794 +0.00 -0.03    -0.228 OA
DOCKED: BRANCH  22  24
DOCKED: ATOM     24  O   UNL d   1     -10.824 -11.555 -13.063 +0.00 -0.04    -0.303 OA
DOCKED: ATOM     25  H   UNL d   1     -10.257 -12.345 -12.876 +0.00 +0.02    +0.222 HD
DOCKED: ENDBRANCH  22  24
DOCKED: BRANCH  22  26
DOCKED: ATOM     26  O   UNL d   1     -10.902  -9.140 -13.631 +0.00 -0.06    -0.303 OA
DOCKED: ATOM     27  H   UNL d   1     -10.687  -8.497 -12.925 +0.01 +0.06    +0.222 HD
DOCKED: ENDBRANCH  22  26
DOCKED: ENDBRANCH  21  22
DOCKED: ENDBRANCH   6  21
DOCKED: BRANCH   3  28
DOCKED: ATOM     28  O   UNL d   1     -10.060  -9.615  -6.817 -0.07 -0.16    -0.278 OA
DOCKED: BRANCH  28  29
DOCKED: ATOM     29  P   UNL d   1      -9.582 -10.398  -5.515 -0.07 +0.05    +0.473 P 
DOCKED: ATOM     30  O   UNL d   1     -10.051  -9.837  -4.222 -0.18 +0.03    -0.228 OA
DOCKED: BRANCH  29  31
DOCKED: ATOM     31  O   UNL d   1     -10.068 -11.877  -5.884 -0.01 -0.01    -0.303 OA
DOCKED: ATOM     32  H   UNL d   1     -10.454 -11.864  -6.790 +0.02 +0.02    +0.222 HD
DOCKED: ENDBRANCH  29  31
DOCKED: BRANCH  29  33
DOCKED: ATOM     33  O   UNL d   1      -8.007 -10.480  -5.734 -0.10 -0.03    -0.303 OA
DOCKED: ATOM     34  H   UNL d   1      -7.750  -9.857  -6.458 +0.08 +0.05    +0.222 HD
DOCKED: ENDBRANCH  29  33
DOCKED: ENDBRANCH  28  29
DOCKED: ENDBRANCH   3  28
DOCKED: BRANCH   5  35
DOCKED: ATOM     35  O   UNL d   1     -10.079  -7.587 -10.984 -0.04 -0.17    -0.278 OA
DOCKED: BRANCH  35  36
DOCKED: ATOM     36  P   UNL d   1      -9.604  -6.068 -10.878 -0.05 +0.31    +0.473 P 
DOCKED: ATOM     37  O   UNL d   1      -9.998  -5.188 -12.021 -0.02 -0.09    -0.228 OA
DOCKED: BRANCH  36  38
DOCKED: ATOM     38  O   UNL d   1     -10.218  -5.633  -9.474 -0.64 -0.45    -0.303 OA
DOCKED: ATOM     39  H   UNL d   1      -9.488  -5.512  -8.828 +0.06 +0.28    +0.222 HD
DOCKED: ENDBRANCH  36  38
DOCKED: BRANCH  36  40
DOCKED: ATOM     40  O   UNL d   1      -8.048  -6.218 -10.585 -0.06 -0.17    -0.303 OA
DOCKED: ATOM     41  H   UNL d   1      -7.868  -6.344  -9.627 +0.08 +0.14    +0.222 HD
DOCKED: ENDBRANCH  36  40
DOCKED: ENDBRANCH  35  36
DOCKED: ENDBRANCH   5  35
DOCKED: BRANCH   4  42
DOCKED: ATOM     42  O   UNL d   1      -8.923  -7.435  -8.314 -0.26 -0.28    -0.278 OA
DOCKED: BRANCH  42  43
DOCKED: ATOM     43  P   UNL d   1      -7.516  -7.760  -7.634 -0.23 +0.25    +0.473 P 
DOCKED: ATOM     44  O   UNL d   1      -6.762  -8.938  -8.147 -0.16 -0.10    -0.228 OA
DOCKED: BRANCH  43  45
DOCKED: ATOM     45  O   UNL d   1      -6.737  -6.379  -7.768 -0.34 -0.16    -0.303 OA
DOCKED: ATOM     46  H   UNL d   1      -6.874  -5.813  -6.983 -0.30 +0.02    +0.222 HD
DOCKED: ENDBRANCH  43  45
DOCKED: BRANCH  43  47
DOCKED: ATOM     47  O   UNL d   1      -7.863  -7.788  -6.070 -0.30 -0.12    -0.303 OA
DOCKED: ATOM     48  H   UNL d   1      -8.613  -8.399  -5.916 +0.09 +0.09    +0.222 HD
DOCKED: ENDBRANCH  43  47
DOCKED: ENDBRANCH  42  43
DOCKED: ENDBRANCH   4  42
DOCKED: TORSDOF 24
DOCKED: TER
DOCKED: ENDMDL
________________________________________________________________________________


	BEGINNING GENETIC ALGORITHM DOCKING 81 of 100
Run: 81 Seed: 1133808704 1375338067 [ Run 81 of 100 GA/GALS ]
Beginning LAMARCKIAN GENETIC ALGORITHM (LGA), with a maximum of 25000000 energy evaluations.

Final-Value: -17.477


	FINAL GENETIC ALGORITHM DOCKED STATE
	_______________________________________________


Detailed state:  trans 30.955 26.460 -1.789 quatxyzw -0.742793 -0.360209 0.301913 -0.476820 center 0.035 0.082 -0.065 ntor 24 72.4803 6.3154 127.2778 121.5836 81.6900 99.7576 138.8168 -4.5393 84.9042 49.9114 166.7030 172.7348 -175.6064 86.4660 53.8628 33.0944 117.2810 34.0747 29.4390 -24.2030 -179.8572 -46.1618 -7.0611 -13.1943
State:	 30.955  26.460  -1.789  -0.845 -0.410  0.343 -123.044     72.48    6.32  127.28  121.58   81.69   99.76  138.82   -4.54   84.90   49.91  166.70  172.73 -175.61   86.47   53.86   33.09  117.28   34.07   29.44  -24.20 -179.86  -46.16   -7.06  -13.19

DOCKED: MODEL       81
DOCKED: USER    Run = 81
DOCKED: USER    DPF = D:/Protein_go_brrr/autodock/final/1A3N/IHP/dock.dpf
DOCKED: USER  
DOCKED: USER    Estimated Free Energy of Binding    =   +4.03 kcal/mol  [=(1)+(2)+(3)-(4)]
DOCKED: USER    
DOCKED: USER    (1) Final Intermolecular Energy     =   -3.13 kcal/mol
DOCKED: USER        vdW + Hbond + desolv Energy     =   -3.03 kcal/mol
DOCKED: USER        Electrostatic Energy            =   -0.09 kcal/mol
DOCKED: USER    (2) Final Total Internal Energy     =  -14.35 kcal/mol
DOCKED: USER    (3) Torsional Free Energy           =   +7.16 kcal/mol
DOCKED: USER    (4) Unbound System's Energy  [=(2)] =  -14.35 kcal/mol
DOCKED: USER    
DOCKED: USER    
DOCKED: USER    NEWDPF move IHP_ideal_opt.pdbqt
DOCKED: USER    NEWDPF about 0.035000 0.082000 -0.065000
DOCKED: USER    NEWDPF tran0 30.955054 26.460350 -1.788773
DOCKED: USER    NEWDPF quaternion0 -0.742793 -0.360209 0.301913 -0.476820
DOCKED: USER    NEWDPF axisangle0 -0.845042 -0.409793 0.343473 -123.044208
DOCKED: USER    NEWDPF quat0 -0.845042 -0.409793 0.343473 -123.044208
DOCKED: USER    NEWDPF dihe0 72.48 6.32 127.28 121.58 81.69 99.76 138.82 -4.54 84.90 49.91 166.70 172.73 -175.61 86.47 53.86 33.09 117.28 34.07 29.44 -24.20 -179.86 -46.16 -7.06 -13.19 
DOCKED: USER  keepresnum = 1 
DOCKED: USER  
DOCKED: REMARK  24 active torsions:
DOCKED: REMARK  status: ('A' for Active; 'I' for Inactive)
DOCKED: REMARK    1  A    between atoms: C_1  and  O_7 
DOCKED: REMARK    2  A    between atoms: C_2  and  O_12 
DOCKED: REMARK    3  A    between atoms: C_3  and  O_17 
DOCKED: REMARK    4  A    between atoms: C_4  and  O_22 
DOCKED: REMARK    5  A    between atoms: C_5  and  O_27 
DOCKED: REMARK    6  A    between atoms: C_6  and  O_32 
DOCKED: REMARK    7  A    between atoms: O_7  and  P_8 
DOCKED: REMARK    8  A    between atoms: P_8  and  O_10 
DOCKED: REMARK    9  A    between atoms: P_8  and  O_11 
DOCKED: REMARK   10  A    between atoms: O_12  and  P_13 
DOCKED: REMARK   11  A    between atoms: P_13  and  O_15 
DOCKED: REMARK   12  A    between atoms: P_13  and  O_16 
DOCKED: REMARK   13  A    between atoms: O_17  and  P_18 
DOCKED: REMARK   14  A    between atoms: P_18  and  O_20 
DOCKED: REMARK   15  A    between atoms: P_18  and  O_21 
DOCKED: REMARK   16  A    between atoms: O_22  and  P_23 
DOCKED: REMARK   17  A    between atoms: P_23  and  O_25 
DOCKED: REMARK   18  A    between atoms: P_23  and  O_26 
DOCKED: REMARK   19  A    between atoms: O_27  and  P_28 
DOCKED: REMARK   20  A    between atoms: P_28  and  O_30 
DOCKED: REMARK   21  A    between atoms: P_28  and  O_31 
DOCKED: REMARK   22  A    between atoms: O_32  and  P_33 
DOCKED: REMARK   23  A    between atoms: P_33  and  O_35 
DOCKED: REMARK   24  A    between atoms: P_33  and  O_36 
DOCKED: USER                              x       y       z     vdW  Elec       q    Type
DOCKED: USER                           _______ _______ _______ _____ _____    ______ ____
DOCKED: ROOT
DOCKED: ATOM      1  C   UNL d   1      30.808  28.134  -1.385 -0.03 -0.02    +0.194 C 
DOCKED: ATOM      2  C   UNL d   1      30.205  27.155  -0.376 -0.08 -0.02    +0.194 C 
DOCKED: ATOM      3  C   UNL d   1      29.429  26.033  -1.069 -0.11 -0.03    +0.194 C 
DOCKED: ATOM      4  C   UNL d   1      30.237  25.322  -2.151 -0.10 -0.03    +0.194 C 
DOCKED: ATOM      5  C   UNL d   1      30.951  26.263  -3.113 -0.06 -0.02    +0.194 C 
DOCKED: ATOM      6  C   UNL d   1      31.676  27.420  -2.423 -0.04 -0.01    +0.194 C 
DOCKED: ENDROOT
DOCKED: BRANCH   1   7
DOCKED: ATOM      7  O   UNL d   1      31.654  29.042  -0.675 -0.01 +0.02    -0.278 OA
DOCKED: BRANCH   7   8
DOCKED: ATOM      8  P   UNL d   1      31.030  30.426  -0.175 +0.00 -0.03    +0.473 P 
DOCKED: ATOM      9  O   UNL d   1      31.742  31.645  -0.645 -0.00 +0.01    -0.228 OA
DOCKED: BRANCH   8  10
DOCKED: ATOM     10  O   UNL d   1      29.510  30.361  -0.656 -0.00 +0.03    -0.303 OA
DOCKED: ATOM     11  H   UNL d   1      29.446  30.674  -1.578 +0.00 -0.02    +0.222 HD
DOCKED: ENDBRANCH   8  10
DOCKED: BRANCH   8  12
DOCKED: ATOM     12  O   UNL d   1      30.888  30.269   1.399 -0.00 +0.03    -0.303 OA
DOCKED: ATOM     13  H   UNL d   1      30.598  29.370   1.673 +0.02 -0.03    +0.222 HD
DOCKED: ENDBRANCH   8  12
DOCKED: ENDBRANCH   7   8
DOCKED: ENDBRANCH   1   7
DOCKED: BRANCH   2  14
DOCKED: ATOM     14  O   UNL d   1      31.262  26.570   0.396 -0.04 +0.03    -0.278 OA
DOCKED: BRANCH  14  15
DOCKED: ATOM     15  P   UNL d   1      31.394  27.059   1.915 -0.04 -0.05    +0.473 P 
DOCKED: ATOM     16  O   UNL d   1      31.765  26.019   2.925 -0.19 +0.02    -0.228 OA
DOCKED: BRANCH  15  17
DOCKED: ATOM     17  O   UNL d   1      32.442  28.256   1.847 -0.02 +0.03    -0.303 OA
DOCKED: ATOM     18  H   UNL d   1      32.379  28.731   0.996 +0.02 -0.02    +0.222 HD
DOCKED: ENDBRANCH  15  17
DOCKED: BRANCH  15  19
DOCKED: ATOM     19  O   UNL d   1      30.037  27.838   2.200 -0.04 +0.06    -0.303 OA
DOCKED: ATOM     20  H   UNL d   1      29.261  27.254   2.114 +0.08 -0.06    +0.222 HD
DOCKED: ENDBRANCH  15  19
DOCKED: ENDBRANCH  14  15
DOCKED: ENDBRANCH   2  14
DOCKED: BRANCH   6  21
DOCKED: ATOM     21  O   UNL d   1      31.987  28.374  -3.436 -0.01 +0.01    -0.278 OA
DOCKED: BRANCH  21  22
DOCKED: ATOM     22  P   UNL d   1      30.847  29.347  -3.983 +0.00 -0.02    +0.473 P 
DOCKED: ATOM     23  O   UNL d   1      30.560  30.596  -3.220 -0.00 +0.01    -0.228 OA
DOCKED: BRANCH  22  24
DOCKED: ATOM     24  O   UNL d   1      31.311  29.576  -5.489 -0.00 +0.01    -0.303 OA
DOCKED: ATOM     25  H   UNL d   1      31.981  28.882  -5.714 +0.00 -0.00    +0.222 HD
DOCKED: ENDBRANCH  22  24
DOCKED: BRANCH  22  26
DOCKED: ATOM     26  O   UNL d   1      29.616  28.336  -4.166 -0.00 +0.01    -0.303 OA
DOCKED: ATOM     27  H   UNL d   1      29.772  27.779  -4.956 +0.01 -0.01    +0.222 HD
DOCKED: ENDBRANCH  22  26
DOCKED: ENDBRANCH  21  22
DOCKED: ENDBRANCH   6  21
DOCKED: BRANCH   3  28
DOCKED: ATOM     28  O   UNL d   1      29.149  25.039  -0.091 -0.17 +0.04    -0.278 OA
DOCKED: BRANCH  28  29
DOCKED: ATOM     29  P   UNL d   1      28.202  25.371   1.145 -0.25 -0.16    +0.473 P 
DOCKED: ATOM     30  O   UNL d   1      27.529  26.695   1.100 -0.21 +0.14    -0.228 OA
DOCKED: BRANCH  29  31
DOCKED: ATOM     31  O   UNL d   1      27.260  24.077   1.131 -0.34 +0.14    -0.303 OA
DOCKED: ATOM     32  H   UNL d   1      26.509  24.229   1.750 -0.44 -0.22    +0.222 HD
DOCKED: ENDBRANCH  29  31
DOCKED: BRANCH  29  33
DOCKED: ATOM     33  O   UNL d   1      29.162  25.094   2.385 -0.32 +0.05    -0.303 OA
DOCKED: ATOM     34  H   UNL d   1      29.987  25.628   2.278 +0.11 -0.02    +0.222 HD
DOCKED: ENDBRANCH  29  33
DOCKED: ENDBRANCH  28  29
DOCKED: ENDBRANCH   3  28
DOCKED: BRANCH   5  35
DOCKED: ATOM     35  O   UNL d   1      31.944  25.472  -3.762 -0.06 +0.03    -0.278 OA
DOCKED: BRANCH  35  36
DOCKED: ATOM     36  P   UNL d   1      31.972  25.363  -5.353 -0.01 -0.02    +0.473 P 
DOCKED: ATOM     37  O   UNL d   1      33.260  24.886  -5.945 -0.01 +0.01    -0.228 OA
DOCKED: BRANCH  36  38
DOCKED: ATOM     38  O   UNL d   1      30.728  24.410  -5.637 -0.01 +0.01    -0.303 OA
DOCKED: ATOM     39  H   UNL d   1      30.173  24.357  -4.829 +0.03 -0.02    +0.222 HD
DOCKED: ENDBRANCH  36  38
DOCKED: BRANCH  36  40
DOCKED: ATOM     40  O   UNL d   1      31.461  26.802  -5.801 -0.00 +0.01    -0.303 OA
DOCKED: ATOM     41  H   UNL d   1      31.389  27.416  -5.038 +0.01 -0.01    +0.222 HD
DOCKED: ENDBRANCH  36  40
DOCKED: ENDBRANCH  35  36
DOCKED: ENDBRANCH   5  35
DOCKED: BRANCH   4  42
DOCKED: ATOM     42  O   UNL d   1      29.309  24.554  -2.924 -0.11 +0.03    -0.278 OA
DOCKED: BRANCH  42  43
DOCKED: ATOM     43  P   UNL d   1      29.553  22.986  -3.088 -0.18 -0.07    +0.473 P 
DOCKED: ATOM     44  O   UNL d   1      29.144  22.105  -1.958 -0.33 +0.05    -0.228 OA
DOCKED: BRANCH  43  45
DOCKED: ATOM     45  O   UNL d   1      28.823  22.661  -4.464 -0.07 +0.03    -0.303 OA
DOCKED: ATOM     46  H   UNL d   1      29.445  22.699  -5.217 +0.05 -0.01    +0.222 HD
DOCKED: ENDBRANCH  43  45
DOCKED: BRANCH  43  47
DOCKED: ATOM     47  O   UNL d   1      31.097  22.898  -3.510 -0.12 +0.06    -0.303 OA
DOCKED: ATOM     48  H   UNL d   1      31.436  23.800  -3.683 +0.04 -0.03    +0.222 HD
DOCKED: ENDBRANCH  43  47
DOCKED: ENDBRANCH  42  43
DOCKED: ENDBRANCH   4  42
DOCKED: TORSDOF 24
DOCKED: TER
DOCKED: ENDMDL
________________________________________________________________________________


	BEGINNING GENETIC ALGORITHM DOCKING 82 of 100
Run: 82 Seed: 1511989310 1183049878 [ Run 82 of 100 GA/GALS ]
Beginning LAMARCKIAN GENETIC ALGORITHM (LGA), with a maximum of 25000000 energy evaluations.

Final-Value: -18.044


	FINAL GENETIC ALGORITHM DOCKED STATE
	_______________________________________________


Detailed state:  trans 38.600 -16.462 26.450 quatxyzw 0.049527 -0.379540 0.903120 -0.194602 center 0.035 0.082 -0.065 ntor 24 69.9671 98.1891 141.5791 21.5485 -24.4178 -161.4808 -30.5805 -152.1107 180.0000 -49.6370 40.1103 -168.1215 25.2171 -178.8304 7.2265 119.9208 -123.6110 158.4399 -7.2459 6.8954 147.6156 -8.8736 156.6448 -8.1211
State:	 38.600 -16.462  26.450   0.050 -0.387  0.921 -157.557     69.97   98.19  141.58   21.55  -24.42 -161.48  -30.58 -152.11  180.00  -49.64   40.11 -168.12   25.22 -178.83    7.23  119.92 -123.61  158.44   -7.25    6.90  147.62   -8.87  156.64   -8.12

DOCKED: MODEL       82
DOCKED: USER    Run = 82
DOCKED: USER    DPF = D:/Protein_go_brrr/autodock/final/1A3N/IHP/dock.dpf
DOCKED: USER  
DOCKED: USER    Estimated Free Energy of Binding    =   +2.63 kcal/mol  [=(1)+(2)+(3)-(4)]
DOCKED: USER    
DOCKED: USER    (1) Final Intermolecular Energy     =   -4.53 kcal/mol
DOCKED: USER        vdW + Hbond + desolv Energy     =   -4.43 kcal/mol
DOCKED: USER        Electrostatic Energy            =   -0.09 kcal/mol
DOCKED: USER    (2) Final Total Internal Energy     =  -13.52 kcal/mol
DOCKED: USER    (3) Torsional Free Energy           =   +7.16 kcal/mol
DOCKED: USER    (4) Unbound System's Energy  [=(2)] =  -13.52 kcal/mol
DOCKED: USER    
DOCKED: USER    
DOCKED: USER    NEWDPF move IHP_ideal_opt.pdbqt
DOCKED: USER    NEWDPF about 0.035000 0.082000 -0.065000
DOCKED: USER    NEWDPF tran0 38.600475 -16.462351 26.449609
DOCKED: USER    NEWDPF quaternion0 0.049527 -0.379540 0.903120 -0.194602
DOCKED: USER    NEWDPF axisangle0 0.050493 -0.386938 0.920722 -157.557001
DOCKED: USER    NEWDPF quat0 0.050493 -0.386938 0.920722 -157.557001
DOCKED: USER    NEWDPF dihe0 69.97 98.19 141.58 21.55 -24.42 -161.48 -30.58 -152.11 180.00 -49.64 40.11 -168.12 25.22 -178.83 7.23 119.92 -123.61 158.44 -7.25 6.90 147.62 -8.87 156.64 -8.12 
DOCKED: USER  keepresnum = 1 
DOCKED: USER  
DOCKED: REMARK  24 active torsions:
DOCKED: REMARK  status: ('A' for Active; 'I' for Inactive)
DOCKED: REMARK    1  A    between atoms: C_1  and  O_7 
DOCKED: REMARK    2  A    between atoms: C_2  and  O_12 
DOCKED: REMARK    3  A    between atoms: C_3  and  O_17 
DOCKED: REMARK    4  A    between atoms: C_4  and  O_22 
DOCKED: REMARK    5  A    between atoms: C_5  and  O_27 
DOCKED: REMARK    6  A    between atoms: C_6  and  O_32 
DOCKED: REMARK    7  A    between atoms: O_7  and  P_8 
DOCKED: REMARK    8  A    between atoms: P_8  and  O_10 
DOCKED: REMARK    9  A    between atoms: P_8  and  O_11 
DOCKED: REMARK   10  A    between atoms: O_12  and  P_13 
DOCKED: REMARK   11  A    between atoms: P_13  and  O_15 
DOCKED: REMARK   12  A    between atoms: P_13  and  O_16 
DOCKED: REMARK   13  A    between atoms: O_17  and  P_18 
DOCKED: REMARK   14  A    between atoms: P_18  and  O_20 
DOCKED: REMARK   15  A    between atoms: P_18  and  O_21 
DOCKED: REMARK   16  A    between atoms: O_22  and  P_23 
DOCKED: REMARK   17  A    between atoms: P_23  and  O_25 
DOCKED: REMARK   18  A    between atoms: P_23  and  O_26 
DOCKED: REMARK   19  A    between atoms: O_27  and  P_28 
DOCKED: REMARK   20  A    between atoms: P_28  and  O_30 
DOCKED: REMARK   21  A    between atoms: P_28  and  O_31 
DOCKED: REMARK   22  A    between atoms: O_32  and  P_33 
DOCKED: REMARK   23  A    between atoms: P_33  and  O_35 
DOCKED: REMARK   24  A    between atoms: P_33  and  O_36 
DOCKED: USER                              x       y       z     vdW  Elec       q    Type
DOCKED: USER                           _______ _______ _______ _____ _____    ______ ____
DOCKED: ROOT
DOCKED: ATOM      1  C   UNL d   1      37.748 -16.062  27.898 -0.10 -0.04    +0.194 C 
DOCKED: ATOM      2  C   UNL d   1      39.230 -15.682  27.876 -0.09 -0.04    +0.194 C 
DOCKED: ATOM      3  C   UNL d   1      40.092 -16.797  27.282 -0.03 -0.03    +0.194 C 
DOCKED: ATOM      4  C   UNL d   1      39.599 -17.277  25.919 -0.05 -0.04    +0.194 C 
DOCKED: ATOM      5  C   UNL d   1      38.103 -17.558  25.864 -0.07 -0.04    +0.194 C 
DOCKED: ATOM      6  C   UNL d   1      37.244 -16.471  26.513 -0.14 -0.04    +0.194 C 
DOCKED: ENDROOT
DOCKED: BRANCH   1   7
DOCKED: ATOM      7  O   UNL d   1      36.999 -14.913  28.301 -0.15 +0.07    -0.278 OA
DOCKED: BRANCH   7   8
DOCKED: ATOM      8  P   UNL d   1      35.931 -15.078  29.478 -0.08 -0.19    +0.473 P 
DOCKED: ATOM      9  O   UNL d   1      36.508 -15.145  30.848 -0.05 +0.09    -0.228 OA
DOCKED: BRANCH   8  10
DOCKED: ATOM     10  O   UNL d   1      34.938 -13.845  29.274 -0.19 +0.12    -0.303 OA
DOCKED: ATOM     11  H   UNL d   1      35.279 -13.068  29.755 +0.13 -0.13    +0.222 HD
DOCKED: ENDBRANCH   8  10
DOCKED: BRANCH   8  12
DOCKED: ATOM     12  O   UNL d   1      35.026 -16.309  29.044 -0.12 +0.17    -0.303 OA
DOCKED: ATOM     13  H   UNL d   1      35.548 -17.114  28.828 +0.06 -0.12    +0.222 HD
DOCKED: ENDBRANCH   8  12
DOCKED: ENDBRANCH   7   8
DOCKED: ENDBRANCH   1   7
DOCKED: BRANCH   2  14
DOCKED: ATOM     14  O   UNL d   1      39.398 -14.502  27.081 -0.41 +0.04    -0.278 OA
DOCKED: BRANCH  14  15
DOCKED: ATOM     15  P   UNL d   1      40.410 -13.397  27.645 -0.22 -0.09    +0.473 P 
DOCKED: ATOM     16  O   UNL d   1      39.859 -12.020  27.845 -0.93 +0.04    -0.228 OA
DOCKED: BRANCH  15  17
DOCKED: ATOM     17  O   UNL d   1      40.974 -14.038  28.990 -0.06 +0.08    -0.303 OA
DOCKED: ATOM     18  H   UNL d   1      41.228 -14.971  28.855 +0.05 -0.05    +0.222 HD
DOCKED: ENDBRANCH  15  17
DOCKED: BRANCH  15  19
DOCKED: ATOM     19  O   UNL d   1      41.678 -13.495  26.689 -0.24 +0.05    -0.303 OA
DOCKED: ATOM     20  H   UNL d   1      41.873 -14.419  26.444 +0.07 -0.04    +0.222 HD
DOCKED: ENDBRANCH  15  19
DOCKED: ENDBRANCH  14  15
DOCKED: ENDBRANCH   2  14
DOCKED: BRANCH   6  21
DOCKED: ATOM     21  O   UNL d   1      35.942 -17.025  26.688 -0.47 +0.06    -0.278 OA
DOCKED: BRANCH  21  22
DOCKED: ATOM     22  P   UNL d   1      35.781 -18.497  27.280 -0.05 -0.21    +0.473 P 
DOCKED: ATOM     23  O   UNL d   1      36.720 -18.932  28.355 -0.02 +0.08    -0.228 OA
DOCKED: BRANCH  22  24
DOCKED: ATOM     24  O   UNL d   1      34.243 -18.517  27.690 -0.10 +0.36    -0.303 OA
DOCKED: ATOM     25  H   UNL d   1      34.170 -18.209  28.629 -0.24 -0.32    +0.222 HD
DOCKED: ENDBRANCH  22  24
DOCKED: BRANCH  22  26
DOCKED: ATOM     26  O   UNL d   1      35.779 -19.386  25.946 -0.04 +0.11    -0.303 OA
DOCKED: ATOM     27  H   UNL d   1      36.246 -18.901  25.236 +0.07 -0.06    +0.222 HD
DOCKED: ENDBRANCH  22  26
DOCKED: ENDBRANCH  21  22
DOCKED: ENDBRANCH   6  21
DOCKED: BRANCH   3  28
DOCKED: ATOM     28  O   UNL d   1      41.387 -16.259  27.048 -0.02 +0.05    -0.278 OA
DOCKED: BRANCH  28  29
DOCKED: ATOM     29  P   UNL d   1      42.582 -16.570  28.054 +0.01 -0.06    +0.473 P 
DOCKED: ATOM     30  O   UNL d   1      43.440 -17.726  27.691 -0.00 +0.02    -0.228 OA
DOCKED: BRANCH  29  31
DOCKED: ATOM     31  O   UNL d   1      43.284 -15.132  28.106 -0.01 +0.04    -0.303 OA
DOCKED: ATOM     32  H   UNL d   1      42.630 -14.453  27.821 +0.05 -0.04    +0.222 HD
DOCKED: ENDBRANCH  29  31
DOCKED: BRANCH  29  33
DOCKED: ATOM     33  O   UNL d   1      41.828 -16.644  29.454 +0.00 +0.04    -0.303 OA
DOCKED: ATOM     34  H   UNL d   1      41.855 -15.752  29.881 +0.02 -0.04    +0.222 HD
DOCKED: ENDBRANCH  29  33
DOCKED: ENDBRANCH  28  29
DOCKED: ENDBRANCH   3  28
DOCKED: BRANCH   5  35
DOCKED: ATOM     35  O   UNL d   1      37.766 -17.588  24.478 -0.10 +0.07    -0.278 OA
DOCKED: BRANCH  35  36
DOCKED: ATOM     36  P   UNL d   1      37.721 -16.236  23.632 -0.26 -0.17    +0.473 P 
DOCKED: ATOM     37  O   UNL d   1      36.487 -15.409  23.804 +0.19 +0.07    -0.228 OA
DOCKED: BRANCH  36  38
DOCKED: ATOM     38  O   UNL d   1      39.063 -15.515  24.097 -0.14 +0.15    -0.303 OA
DOCKED: ATOM     39  H   UNL d   1      39.703 -15.517  23.354 -0.37 -0.15    +0.222 HD
DOCKED: ENDBRANCH  36  38
DOCKED: BRANCH  36  40
DOCKED: ATOM     40  O   UNL d   1      38.051 -16.745  22.161 -0.13 +0.14    -0.303 OA
DOCKED: ATOM     41  H   UNL d   1      39.015 -16.715  21.973 -0.17 -0.11    +0.222 HD
DOCKED: ENDBRANCH  36  40
DOCKED: ENDBRANCH  35  36
DOCKED: ENDBRANCH   5  35
DOCKED: BRANCH   4  42
DOCKED: ATOM     42  O   UNL d   1      40.270 -18.512  25.647 -0.01 +0.05    -0.278 OA
DOCKED: BRANCH  42  43
DOCKED: ATOM     43  P   UNL d   1      41.210 -18.613  24.362 -0.01 -0.09    +0.473 P 
DOCKED: ATOM     44  O   UNL d   1      41.445 -19.967  23.787 -0.02 +0.03    -0.228 OA
DOCKED: BRANCH  43  45
DOCKED: ATOM     45  O   UNL d   1      40.532 -17.586  23.353 -0.13 +0.09    -0.303 OA
DOCKED: ATOM     46  H   UNL d   1      39.561 -17.559  23.468 +0.09 -0.06    +0.222 HD
DOCKED: ENDBRANCH  43  45
DOCKED: BRANCH  43  47
DOCKED: ATOM     47  O   UNL d   1      42.525 -17.811  24.806 -0.02 +0.05    -0.303 OA
DOCKED: ATOM     48  H   UNL d   1      42.484 -17.632  25.768 +0.03 -0.03    +0.222 HD
DOCKED: ENDBRANCH  43  47
DOCKED: ENDBRANCH  42  43
DOCKED: ENDBRANCH   4  42
DOCKED: TORSDOF 24
DOCKED: TER
DOCKED: ENDMDL
________________________________________________________________________________


	BEGINNING GENETIC ALGORITHM DOCKING 83 of 100
Run: 83 Seed: 425004409 396815554 [ Run 83 of 100 GA/GALS ]
Beginning LAMARCKIAN GENETIC ALGORITHM (LGA), with a maximum of 25000000 energy evaluations.

Final-Value: -16.391


	FINAL GENETIC ALGORITHM DOCKED STATE
	_______________________________________________


Detailed state:  trans 38.034 -17.059 28.732 quatxyzw 0.263334 0.213042 0.729362 -0.594390 center 0.035 0.082 -0.065 ntor 24 136.5251 -101.5685 17.4486 29.6877 2.3556 -96.4113 -60.0359 -45.9616 -175.9453 -46.5577 -68.2265 -133.5447 105.1368 -174.7242 -64.5796 -171.6691 -56.2621 -13.6803 -12.2205 -39.5757 -5.8677 -30.2850 164.9570 139.3230
State:	 38.034 -17.059  28.732   0.327  0.265  0.907 -107.062    136.53 -101.57   17.45   29.69    2.36  -96.41  -60.04  -45.96 -175.95  -46.56  -68.23 -133.54  105.14 -174.72  -64.58 -171.67  -56.26  -13.68  -12.22  -39.58   -5.87  -30.29  164.96  139.32

DOCKED: MODEL       83
DOCKED: USER    Run = 83
DOCKED: USER    DPF = D:/Protein_go_brrr/autodock/final/1A3N/IHP/dock.dpf
DOCKED: USER  
DOCKED: USER    Estimated Free Energy of Binding    =   +1.99 kcal/mol  [=(1)+(2)+(3)-(4)]
DOCKED: USER    
DOCKED: USER    (1) Final Intermolecular Energy     =   -5.17 kcal/mol
DOCKED: USER        vdW + Hbond + desolv Energy     =   -4.44 kcal/mol
DOCKED: USER        Electrostatic Energy            =   -0.73 kcal/mol
DOCKED: USER    (2) Final Total Internal Energy     =  -11.22 kcal/mol
DOCKED: USER    (3) Torsional Free Energy           =   +7.16 kcal/mol
DOCKED: USER    (4) Unbound System's Energy  [=(2)] =  -11.22 kcal/mol
DOCKED: USER    
DOCKED: USER    
DOCKED: USER    NEWDPF move IHP_ideal_opt.pdbqt
DOCKED: USER    NEWDPF about 0.035000 0.082000 -0.065000
DOCKED: USER    NEWDPF tran0 38.034012 -17.059316 28.731659
DOCKED: USER    NEWDPF quaternion0 0.263334 0.213042 0.729362 -0.594390
DOCKED: USER    NEWDPF axisangle0 0.327458 0.264919 0.906967 -107.061693
DOCKED: USER    NEWDPF quat0 0.327458 0.264919 0.906967 -107.061693
DOCKED: USER    NEWDPF dihe0 136.53 -101.57 17.45 29.69 2.36 -96.41 -60.04 -45.96 -175.95 -46.56 -68.23 -133.54 105.14 -174.72 -64.58 -171.67 -56.26 -13.68 -12.22 -39.58 -5.87 -30.29 164.96 139.32 
DOCKED: USER  keepresnum = 1 
DOCKED: USER  
DOCKED: REMARK  24 active torsions:
DOCKED: REMARK  status: ('A' for Active; 'I' for Inactive)
DOCKED: REMARK    1  A    between atoms: C_1  and  O_7 
DOCKED: REMARK    2  A    between atoms: C_2  and  O_12 
DOCKED: REMARK    3  A    between atoms: C_3  and  O_17 
DOCKED: REMARK    4  A    between atoms: C_4  and  O_22 
DOCKED: REMARK    5  A    between atoms: C_5  and  O_27 
DOCKED: REMARK    6  A    between atoms: C_6  and  O_32 
DOCKED: REMARK    7  A    between atoms: O_7  and  P_8 
DOCKED: REMARK    8  A    between atoms: P_8  and  O_10 
DOCKED: REMARK    9  A    between atoms: P_8  and  O_11 
DOCKED: REMARK   10  A    between atoms: O_12  and  P_13 
DOCKED: REMARK   11  A    between atoms: P_13  and  O_15 
DOCKED: REMARK   12  A    between atoms: P_13  and  O_16 
DOCKED: REMARK   13  A    between atoms: O_17  and  P_18 
DOCKED: REMARK   14  A    between atoms: P_18  and  O_20 
DOCKED: REMARK   15  A    between atoms: P_18  and  O_21 
DOCKED: REMARK   16  A    between atoms: O_22  and  P_23 
DOCKED: REMARK   17  A    between atoms: P_23  and  O_25 
DOCKED: REMARK   18  A    between atoms: P_23  and  O_26 
DOCKED: REMARK   19  A    between atoms: O_27  and  P_28 
DOCKED: REMARK   20  A    between atoms: P_28  and  O_30 
DOCKED: REMARK   21  A    between atoms: P_28  and  O_31 
DOCKED: REMARK   22  A    between atoms: O_32  and  P_33 
DOCKED: REMARK   23  A    between atoms: P_33  and  O_35 
DOCKED: REMARK   24  A    between atoms: P_33  and  O_36 
DOCKED: USER                              x       y       z     vdW  Elec       q    Type
DOCKED: USER                           _______ _______ _______ _____ _____    ______ ____
DOCKED: ROOT
DOCKED: ATOM      1  C   UNL d   1      39.015 -15.654  28.951 -0.05 -0.05    +0.194 C 
DOCKED: ATOM      2  C   UNL d   1      39.579 -16.713  28.002 -0.03 -0.04    +0.194 C 
DOCKED: ATOM      3  C   UNL d   1      39.398 -18.127  28.558 -0.00 -0.03    +0.194 C 
DOCKED: ATOM      4  C   UNL d   1      37.960 -18.431  28.971 -0.00 -0.05    +0.194 C 
DOCKED: ATOM      5  C   UNL d   1      37.318 -17.345  29.826 -0.01 -0.06    +0.194 C 
DOCKED: ATOM      6  C   UNL d   1      37.551 -15.926  29.303 -0.05 -0.06    +0.194 C 
DOCKED: ENDROOT
DOCKED: BRANCH   1   7
DOCKED: ATOM      7  O   UNL d   1      39.065 -14.388  28.289 -0.16 +0.07    -0.278 OA
DOCKED: BRANCH   7   8
DOCKED: ATOM      8  P   UNL d   1      39.610 -13.127  29.103 -0.24 -0.20    +0.473 P 
DOCKED: ATOM      9  O   UNL d   1      40.141 -12.017  28.266 -0.97 +0.07    -0.228 OA
DOCKED: BRANCH   8  10
DOCKED: ATOM     10  O   UNL d   1      38.374 -12.691  30.014 -0.23 +0.31    -0.303 OA
DOCKED: ATOM     11  H   UNL d   1      37.547 -13.037  29.629 +0.08 -0.17    +0.222 HD
DOCKED: ENDBRANCH   8  10
DOCKED: BRANCH   8  12
DOCKED: ATOM     12  O   UNL d   1      40.616 -13.730  30.175 -0.06 +0.12    -0.303 OA
DOCKED: ATOM     13  H   UNL d   1      40.625 -13.227  31.021 +0.05 -0.13    +0.222 HD
DOCKED: ENDBRANCH   8  12
DOCKED: ENDBRANCH   7   8
DOCKED: ENDBRANCH   1   7
DOCKED: BRANCH   2  14
DOCKED: ATOM     14  O   UNL d   1      38.896 -16.625  26.745 -0.05 +0.06    -0.278 OA
DOCKED: BRANCH  14  15
DOCKED: ATOM     15  P   UNL d   1      39.559 -15.681  25.635 -0.12 -0.12    +0.473 P 
DOCKED: ATOM     16  O   UNL d   1      38.735 -14.527  25.154 -0.27 +0.06    -0.228 OA
DOCKED: BRANCH  15  17
DOCKED: ATOM     17  O   UNL d   1      40.939 -15.224  26.287 -0.11 +0.06    -0.303 OA
DOCKED: ATOM     18  H   UNL d   1      40.800 -14.514  26.943 +0.08 -0.04    +0.222 HD
DOCKED: ENDBRANCH  15  17
DOCKED: BRANCH  15  19
DOCKED: ATOM     19  O   UNL d   1      40.057 -16.685  24.506 -0.10 +0.09    -0.303 OA
DOCKED: ATOM     20  H   UNL d   1      40.298 -17.554  24.877 +0.06 -0.05    +0.222 HD
DOCKED: ENDBRANCH  15  19
DOCKED: ENDBRANCH  14  15
DOCKED: ENDBRANCH   2  14
DOCKED: BRANCH   6  21
DOCKED: ATOM     21  O   UNL d   1      37.203 -15.035  30.360 -0.05 +0.11    -0.278 OA
DOCKED: BRANCH  21  22
DOCKED: ATOM     22  P   UNL d   1      35.872 -14.161  30.252 -0.10 -0.24    +0.473 P 
DOCKED: ATOM     23  O   UNL d   1      35.456 -13.674  28.905 -0.14 +0.09    -0.228 OA
DOCKED: BRANCH  22  24
DOCKED: ATOM     24  O   UNL d   1      34.810 -15.096  30.981 -0.07 +0.14    -0.303 OA
DOCKED: ATOM     25  H   UNL d   1      34.718 -15.929  30.453 +0.07 -0.12    +0.222 HD
DOCKED: ENDBRANCH  22  24
DOCKED: BRANCH  22  26
DOCKED: ATOM     26  O   UNL d   1      36.134 -13.032  31.359 -0.13 +0.29    -0.303 OA
DOCKED: ATOM     27  H   UNL d   1      36.595 -12.275  30.944 -0.30 -0.43    +0.222 HD
DOCKED: ENDBRANCH  22  26
DOCKED: ENDBRANCH  21  22
DOCKED: ENDBRANCH   6  21
DOCKED: BRANCH   3  28
DOCKED: ATOM     28  O   UNL d   1      39.690 -19.040  27.508 +0.00 +0.04    -0.278 OA
DOCKED: BRANCH  28  29
DOCKED: ATOM     29  P   UNL d   1      41.200 -19.399  27.150 +0.00 -0.06    +0.473 P 
DOCKED: ATOM     30  O   UNL d   1      41.392 -20.633  26.346 -0.00 +0.02    -0.228 OA
DOCKED: BRANCH  29  31
DOCKED: ATOM     31  O   UNL d   1      41.664 -18.019  26.485 -0.00 +0.04    -0.303 OA
DOCKED: ATOM     32  H   UNL d   1      40.874 -17.442  26.375 +0.04 -0.04    +0.222 HD
DOCKED: ENDBRANCH  29  31
DOCKED: BRANCH  29  33
DOCKED: ATOM     33  O   UNL d   1      41.901 -19.354  28.578 +0.00 +0.03    -0.303 OA
DOCKED: ATOM     34  H   UNL d   1      41.204 -19.336  29.279 +0.00 -0.03    +0.222 HD
DOCKED: ENDBRANCH  29  33
DOCKED: ENDBRANCH  28  29
DOCKED: ENDBRANCH   3  28
DOCKED: BRANCH   5  35
DOCKED: ATOM     35  O   UNL d   1      35.914 -17.588  29.768 -0.02 +0.13    -0.278 OA
DOCKED: BRANCH  35  36
DOCKED: ATOM     36  P   UNL d   1      35.131 -17.458  28.384 -0.09 -0.31    +0.473 P 
DOCKED: ATOM     37  O   UNL d   1      35.893 -16.814  27.270 -0.40 +0.06    -0.228 OA
DOCKED: BRANCH  36  38
DOCKED: ATOM     38  O   UNL d   1      34.713 -18.969  28.103 -0.08 +0.27    -0.303 OA
DOCKED: ATOM     39  H   UNL d   1      33.735 -19.045  28.148 -0.44 -0.42    +0.222 HD
DOCKED: ENDBRANCH  36  38
DOCKED: BRANCH  36  40
DOCKED: ATOM     40  O   UNL d   1      33.772 -16.761  28.826 -0.18 +0.38    -0.303 OA
DOCKED: ATOM     41  H   UNL d   1      33.093 -17.421  29.091 -0.37 -0.59    +0.222 HD
DOCKED: ENDBRANCH  36  40
DOCKED: ENDBRANCH  35  36
DOCKED: ENDBRANCH   5  35
DOCKED: BRANCH   4  42
DOCKED: ATOM     42  O   UNL d   1      38.000 -19.622  29.764 +0.00 +0.06    -0.278 OA
DOCKED: BRANCH  42  43
DOCKED: ATOM     43  P   UNL d   1      39.322 -19.953  30.594 +0.00 -0.07    +0.473 P 
DOCKED: ATOM     44  O   UNL d   1      40.114 -18.802  31.112 +0.00 +0.03    -0.228 OA
DOCKED: BRANCH  43  45
DOCKED: ATOM     45  O   UNL d   1      38.788 -20.937  31.724 +0.00 +0.04    -0.303 OA
DOCKED: ATOM     46  H   UNL d   1      39.223 -20.765  32.583 +0.00 -0.02    +0.222 HD
DOCKED: ENDBRANCH  43  45
DOCKED: BRANCH  43  47
DOCKED: ATOM     47  O   UNL d   1      40.115 -20.961  29.633 +0.00 +0.03    -0.303 OA
DOCKED: ATOM     48  H   UNL d   1      40.103 -20.611  28.718 +0.00 -0.03    +0.222 HD
DOCKED: ENDBRANCH  43  47
DOCKED: ENDBRANCH  42  43
DOCKED: ENDBRANCH   4  42
DOCKED: TORSDOF 24
DOCKED: TER
DOCKED: ENDMDL
________________________________________________________________________________


	BEGINNING GENETIC ALGORITHM DOCKING 84 of 100
Run: 84 Seed: 736847726 1127021605 [ Run 84 of 100 GA/GALS ]
Beginning LAMARCKIAN GENETIC ALGORITHM (LGA), with a maximum of 25000000 energy evaluations.

Final-Value: -16.782


	FINAL GENETIC ALGORITHM DOCKED STATE
	_______________________________________________


Detailed state:  trans 7.876 15.979 -5.359 quatxyzw 0.392422 0.467709 -0.260802 0.747820 center 0.035 0.082 -0.065 ntor 24 93.8070 -0.4088 115.9291 146.8888 117.8468 149.7704 1.3150 -180.0000 116.6960 44.5309 156.8071 124.5372 161.2938 65.3271 23.8942 -48.0783 20.7839 34.2270 57.0598 20.7705 -179.9539 13.3560 -6.1929 -18.0528
State:	  7.876  15.979  -5.359   0.591  0.704 -0.393 83.196     93.81   -0.41  115.93  146.89  117.85  149.77    1.31 -180.00  116.70   44.53  156.81  124.54  161.29   65.33   23.89  -48.08   20.78   34.23   57.06   20.77 -179.95   13.36   -6.19  -18.05

DOCKED: MODEL       84
DOCKED: USER    Run = 84
DOCKED: USER    DPF = D:/Protein_go_brrr/autodock/final/1A3N/IHP/dock.dpf
DOCKED: USER  
DOCKED: USER    Estimated Free Energy of Binding    =   +3.27 kcal/mol  [=(1)+(2)+(3)-(4)]
DOCKED: USER    
DOCKED: USER    (1) Final Intermolecular Energy     =   -3.89 kcal/mol
DOCKED: USER        vdW + Hbond + desolv Energy     =   -3.92 kcal/mol
DOCKED: USER        Electrostatic Energy            =   +0.03 kcal/mol
DOCKED: USER    (2) Final Total Internal Energy     =  -12.89 kcal/mol
DOCKED: USER    (3) Torsional Free Energy           =   +7.16 kcal/mol
DOCKED: USER    (4) Unbound System's Energy  [=(2)] =  -12.89 kcal/mol
DOCKED: USER    
DOCKED: USER    
DOCKED: USER    NEWDPF move IHP_ideal_opt.pdbqt
DOCKED: USER    NEWDPF about 0.035000 0.082000 -0.065000
DOCKED: USER    NEWDPF tran0 7.875766 15.978879 -5.359199
DOCKED: USER    NEWDPF quaternion0 0.392422 0.467709 -0.260802 0.747820
DOCKED: USER    NEWDPF axisangle0 0.591085 0.704486 -0.392833 83.196176
DOCKED: USER    NEWDPF quat0 0.591085 0.704486 -0.392833 83.196176
DOCKED: USER    NEWDPF dihe0 93.81 -0.41 115.93 146.89 117.85 149.77 1.31 -180.00 116.70 44.53 156.81 124.54 161.29 65.33 23.89 -48.08 20.78 34.23 57.06 20.77 -179.95 13.36 -6.19 -18.05 
DOCKED: USER  keepresnum = 1 
DOCKED: USER  
DOCKED: REMARK  24 active torsions:
DOCKED: REMARK  status: ('A' for Active; 'I' for Inactive)
DOCKED: REMARK    1  A    between atoms: C_1  and  O_7 
DOCKED: REMARK    2  A    between atoms: C_2  and  O_12 
DOCKED: REMARK    3  A    between atoms: C_3  and  O_17 
DOCKED: REMARK    4  A    between atoms: C_4  and  O_22 
DOCKED: REMARK    5  A    between atoms: C_5  and  O_27 
DOCKED: REMARK    6  A    between atoms: C_6  and  O_32 
DOCKED: REMARK    7  A    between atoms: O_7  and  P_8 
DOCKED: REMARK    8  A    between atoms: P_8  and  O_10 
DOCKED: REMARK    9  A    between atoms: P_8  and  O_11 
DOCKED: REMARK   10  A    between atoms: O_12  and  P_13 
DOCKED: REMARK   11  A    between atoms: P_13  and  O_15 
DOCKED: REMARK   12  A    between atoms: P_13  and  O_16 
DOCKED: REMARK   13  A    between atoms: O_17  and  P_18 
DOCKED: REMARK   14  A    between atoms: P_18  and  O_20 
DOCKED: REMARK   15  A    between atoms: P_18  and  O_21 
DOCKED: REMARK   16  A    between atoms: O_22  and  P_23 
DOCKED: REMARK   17  A    between atoms: P_23  and  O_25 
DOCKED: REMARK   18  A    between atoms: P_23  and  O_26 
DOCKED: REMARK   19  A    between atoms: O_27  and  P_28 
DOCKED: REMARK   20  A    between atoms: P_28  and  O_30 
DOCKED: REMARK   21  A    between atoms: P_28  and  O_31 
DOCKED: REMARK   22  A    between atoms: O_32  and  P_33 
DOCKED: REMARK   23  A    between atoms: P_33  and  O_35 
DOCKED: REMARK   24  A    between atoms: P_33  and  O_36 
DOCKED: USER                              x       y       z     vdW  Elec       q    Type
DOCKED: USER                           _______ _______ _______ _____ _____    ______ ____
DOCKED: ROOT
DOCKED: ATOM      1  C   UNL d   1       7.715  16.705  -3.800 -0.10 -0.02    +0.194 C 
DOCKED: ATOM      2  C   UNL d   1       7.535  15.187  -3.843 -0.14 -0.03    +0.194 C 
DOCKED: ATOM      3  C   UNL d   1       6.684  14.751  -5.038 -0.08 -0.02    +0.194 C 
DOCKED: ATOM      4  C   UNL d   1       7.183  15.311  -6.368 -0.07 -0.01    +0.194 C 
DOCKED: ATOM      5  C   UNL d   1       7.485  16.804  -6.338 -0.07 -0.01    +0.194 C 
DOCKED: ATOM      6  C   UNL d   1       8.284  17.250  -5.111 -0.08 -0.01    +0.194 C 
DOCKED: ENDROOT
DOCKED: BRANCH   1   7
DOCKED: ATOM      7  O   UNL d   1       8.655  17.013  -2.768 -0.13 +0.05    -0.278 OA
DOCKED: BRANCH   7   8
DOCKED: ATOM      8  P   UNL d   1       8.251  16.698  -1.255 -0.20 -0.17    +0.473 P 
DOCKED: ATOM      9  O   UNL d   1       8.802  17.642  -0.245 -0.27 +0.10    -0.228 OA
DOCKED: BRANCH   8  10
DOCKED: ATOM     10  O   UNL d   1       6.656  16.666  -1.279 -0.11 +0.09    -0.303 OA
DOCKED: ATOM     11  H   UNL d   1       6.314  17.549  -1.515 +0.05 -0.05    +0.222 HD
DOCKED: ENDBRANCH   8  10
DOCKED: BRANCH   8  12
DOCKED: ATOM     12  O   UNL d   1       8.611  15.166  -1.041 -0.25 +0.16    -0.303 OA
DOCKED: ATOM     13  H   UNL d   1       8.309  14.592  -1.781 +0.08 -0.09    +0.222 HD
DOCKED: ENDBRANCH   8  12
DOCKED: ENDBRANCH   7   8
DOCKED: ENDBRANCH   1   7
DOCKED: BRANCH   2  14
DOCKED: ATOM     14  O   UNL d   1       8.823  14.567  -3.950 -0.17 +0.07    -0.278 OA
DOCKED: BRANCH  14  15
DOCKED: ATOM     15  P   UNL d   1       8.958  13.090  -3.346 -0.24 -0.12    +0.473 P 
DOCKED: ATOM     16  O   UNL d   1       9.377  12.011  -4.295 -0.39 +0.03    -0.228 OA
DOCKED: BRANCH  15  17
DOCKED: ATOM     17  O   UNL d   1       9.966  13.262  -2.124 -0.41 +0.14    -0.303 OA
DOCKED: ATOM     18  H   UNL d   1      10.007  14.192  -1.830 -0.14 -0.12    +0.222 HD
DOCKED: ENDBRANCH  15  17
DOCKED: BRANCH  15  19
DOCKED: ATOM     19  O   UNL d   1       7.580  12.842  -2.591 -0.25 +0.06    -0.303 OA
DOCKED: ATOM     20  H   UNL d   1       6.900  12.484  -3.191 +0.14 -0.02    +0.222 HD
DOCKED: ENDBRANCH  15  19
DOCKED: ENDBRANCH  14  15
DOCKED: ENDBRANCH   2  14
DOCKED: BRANCH   6  21
DOCKED: ATOM     21  O   UNL d   1       8.187  18.671  -5.050 -0.05 +0.01    -0.278 OA
DOCKED: BRANCH  21  22
DOCKED: ATOM     22  P   UNL d   1       6.855  19.351  -4.497 +0.00 -0.02    +0.473 P 
DOCKED: ATOM     23  O   UNL d   1       6.359  18.939  -3.152 -0.01 +0.02    -0.228 OA
DOCKED: BRANCH  22  24
DOCKED: ATOM     24  O   UNL d   1       7.198  20.899  -4.637 -0.00 +0.00    -0.303 OA
DOCKED: ATOM     25  H   UNL d   1       7.505  21.064  -5.564 +0.01 -0.00    +0.222 HD
DOCKED: ENDBRANCH  22  24
DOCKED: BRANCH  22  26
DOCKED: ATOM     26  O   UNL d   1       5.842  19.125  -5.719 -0.00 +0.01    -0.303 OA
DOCKED: ATOM     27  H   UNL d   1       6.355  19.020  -6.547 +0.01 -0.01    +0.222 HD
DOCKED: ENDBRANCH  22  26
DOCKED: ENDBRANCH  21  22
DOCKED: ENDBRANCH   6  21
DOCKED: BRANCH   3  28
DOCKED: ATOM     28  O   UNL d   1       6.802  13.339  -5.156 -0.08 +0.02    -0.278 OA
DOCKED: BRANCH  28  29
DOCKED: ATOM     29  P   UNL d   1       5.502  12.419  -5.143 -0.12 -0.07    +0.473 P 
DOCKED: ATOM     30  O   UNL d   1       4.851  12.249  -3.819 -0.26 +0.02    -0.228 OA
DOCKED: BRANCH  29  31
DOCKED: ATOM     31  O   UNL d   1       4.643  13.134  -6.288 -0.11 +0.06    -0.303 OA
DOCKED: ATOM     32  H   UNL d   1       5.197  13.204  -7.100 +0.07 -0.03    +0.222 HD
DOCKED: ENDBRANCH  29  31
DOCKED: BRANCH  29  33
DOCKED: ATOM     33  O   UNL d   1       6.020  11.098  -5.865 -0.20 +0.04    -0.303 OA
DOCKED: ATOM     34  H   UNL d   1       5.470  10.935  -6.670 -0.27 -0.08    +0.222 HD
DOCKED: ENDBRANCH  29  33
DOCKED: ENDBRANCH  28  29
DOCKED: ENDBRANCH   3  28
DOCKED: BRANCH   5  35
DOCKED: ATOM     35  O   UNL d   1       8.298  17.057  -7.482 -0.06 +0.00    -0.278 OA
DOCKED: BRANCH  35  36
DOCKED: ATOM     36  P   UNL d   1       7.859  18.155  -8.553 -0.01 +0.00    +0.473 P 
DOCKED: ATOM     37  O   UNL d   1       7.830  19.566  -8.057 -0.01 +0.00    -0.228 OA
DOCKED: BRANCH  36  38
DOCKED: ATOM     38  O   UNL d   1       8.900  17.896  -9.730 -0.01 -0.01    -0.303 OA
DOCKED: ATOM     39  H   UNL d   1       8.951  16.933  -9.908 +0.03 +0.01    +0.222 HD
DOCKED: ENDBRANCH  36  38
DOCKED: BRANCH  36  40
DOCKED: ATOM     40  O   UNL d   1       6.495  17.558  -9.112 -0.00 +0.00    -0.303 OA
DOCKED: ATOM     41  H   UNL d   1       6.244  16.727  -8.650 +0.02 -0.01    +0.222 HD
DOCKED: ENDBRANCH  36  40
DOCKED: ENDBRANCH  35  36
DOCKED: ENDBRANCH   5  35
DOCKED: BRANCH   4  42
DOCKED: ATOM     42  O   UNL d   1       6.133  15.114  -7.321 -0.02 +0.02    -0.278 OA
DOCKED: BRANCH  42  43
DOCKED: ATOM     43  P   UNL d   1       6.476  14.414  -8.713 +0.02 -0.01    +0.473 P 
DOCKED: ATOM     44  O   UNL d   1       6.589  12.929  -8.725 -0.04 +0.01    -0.228 OA
DOCKED: BRANCH  43  45
DOCKED: ATOM     45  O   UNL d   1       5.351  14.989  -9.679 -0.01 +0.02    -0.303 OA
DOCKED: ATOM     46  H   UNL d   1       5.600  15.865 -10.037 +0.02 -0.01    +0.222 HD
DOCKED: ENDBRANCH  43  45
DOCKED: BRANCH  43  47
DOCKED: ATOM     47  O   UNL d   1       7.774  15.211  -9.213 -0.02 -0.01    -0.303 OA
DOCKED: ATOM     48  H   UNL d   1       7.567  16.167  -9.260 +0.02 +0.00    +0.222 HD
DOCKED: ENDBRANCH  43  47
DOCKED: ENDBRANCH  42  43
DOCKED: ENDBRANCH   4  42
DOCKED: TORSDOF 24
DOCKED: TER
DOCKED: ENDMDL
________________________________________________________________________________


	BEGINNING GENETIC ALGORITHM DOCKING 85 of 100
Run: 85 Seed: 240481345 527533464 [ Run 85 of 100 GA/GALS ]
Beginning LAMARCKIAN GENETIC ALGORITHM (LGA), with a maximum of 25000000 energy evaluations.

Final-Value: -15.515


	FINAL GENETIC ALGORITHM DOCKED STATE
	_______________________________________________


Detailed state:  trans 10.141 26.923 6.974 quatxyzw 0.598394 0.496200 0.600939 0.185964 center 0.035 0.082 -0.065 ntor 24 79.8776 39.9264 94.3755 89.0406 67.5110 -51.6334 -0.0560 -142.4574 -90.0670 51.0009 108.5311 106.0686 -35.9822 128.8404 -43.5624 -143.1657 14.2108 17.8414 13.9658 -13.7437 -41.3801 25.6938 -6.5296 -179.9287
State:	 10.141  26.923   6.974   0.609  0.505  0.612 158.565     79.88   39.93   94.38   89.04   67.51  -51.63   -0.06 -142.46  -90.07   51.00  108.53  106.07  -35.98  128.84  -43.56 -143.17   14.21   17.84   13.97  -13.74  -41.38   25.69   -6.53 -179.93

DOCKED: MODEL       85
DOCKED: USER    Run = 85
DOCKED: USER    DPF = D:/Protein_go_brrr/autodock/final/1A3N/IHP/dock.dpf
DOCKED: USER  
DOCKED: USER    Estimated Free Energy of Binding    =   +3.81 kcal/mol  [=(1)+(2)+(3)-(4)]
DOCKED: USER    
DOCKED: USER    (1) Final Intermolecular Energy     =   -3.35 kcal/mol
DOCKED: USER        vdW + Hbond + desolv Energy     =   -3.25 kcal/mol
DOCKED: USER        Electrostatic Energy            =   -0.10 kcal/mol
DOCKED: USER    (2) Final Total Internal Energy     =  -12.16 kcal/mol
DOCKED: USER    (3) Torsional Free Energy           =   +7.16 kcal/mol
DOCKED: USER    (4) Unbound System's Energy  [=(2)] =  -12.16 kcal/mol
DOCKED: USER    
DOCKED: USER    
DOCKED: USER    NEWDPF move IHP_ideal_opt.pdbqt
DOCKED: USER    NEWDPF about 0.035000 0.082000 -0.065000
DOCKED: USER    NEWDPF tran0 10.140924 26.922523 6.973980
DOCKED: USER    NEWDPF quaternion0 0.598394 0.496200 0.600939 0.185964
DOCKED: USER    NEWDPF axisangle0 0.609017 0.505009 0.611607 158.565264
DOCKED: USER    NEWDPF quat0 0.609017 0.505009 0.611607 158.565264
DOCKED: USER    NEWDPF dihe0 79.88 39.93 94.38 89.04 67.51 -51.63 -0.06 -142.46 -90.07 51.00 108.53 106.07 -35.98 128.84 -43.56 -143.17 14.21 17.84 13.97 -13.74 -41.38 25.69 -6.53 -179.93 
DOCKED: USER  keepresnum = 1 
DOCKED: USER  
DOCKED: REMARK  24 active torsions:
DOCKED: REMARK  status: ('A' for Active; 'I' for Inactive)
DOCKED: REMARK    1  A    between atoms: C_1  and  O_7 
DOCKED: REMARK    2  A    between atoms: C_2  and  O_12 
DOCKED: REMARK    3  A    between atoms: C_3  and  O_17 
DOCKED: REMARK    4  A    between atoms: C_4  and  O_22 
DOCKED: REMARK    5  A    between atoms: C_5  and  O_27 
DOCKED: REMARK    6  A    between atoms: C_6  and  O_32 
DOCKED: REMARK    7  A    between atoms: O_7  and  P_8 
DOCKED: REMARK    8  A    between atoms: P_8  and  O_10 
DOCKED: REMARK    9  A    between atoms: P_8  and  O_11 
DOCKED: REMARK   10  A    between atoms: O_12  and  P_13 
DOCKED: REMARK   11  A    between atoms: P_13  and  O_15 
DOCKED: REMARK   12  A    between atoms: P_13  and  O_16 
DOCKED: REMARK   13  A    between atoms: O_17  and  P_18 
DOCKED: REMARK   14  A    between atoms: P_18  and  O_20 
DOCKED: REMARK   15  A    between atoms: P_18  and  O_21 
DOCKED: REMARK   16  A    between atoms: O_22  and  P_23 
DOCKED: REMARK   17  A    between atoms: P_23  and  O_25 
DOCKED: REMARK   18  A    between atoms: P_23  and  O_26 
DOCKED: REMARK   19  A    between atoms: O_27  and  P_28 
DOCKED: REMARK   20  A    between atoms: P_28  and  O_30 
DOCKED: REMARK   21  A    between atoms: P_28  and  O_31 
DOCKED: REMARK   22  A    between atoms: O_32  and  P_33 
DOCKED: REMARK   23  A    between atoms: P_33  and  O_35 
DOCKED: REMARK   24  A    between atoms: P_33  and  O_36 
DOCKED: USER                              x       y       z     vdW  Elec       q    Type
DOCKED: USER                           _______ _______ _______ _____ _____    ______ ____
DOCKED: ROOT
DOCKED: ATOM      1  C   UNL d   1       9.569  28.424   7.609 -0.07 +0.09    +0.194 C 
DOCKED: ATOM      2  C   UNL d   1       8.983  28.012   6.258 -0.08 +0.09    +0.194 C 
DOCKED: ATOM      3  C   UNL d   1      10.056  27.457   5.320 -0.05 +0.06    +0.194 C 
DOCKED: ATOM      4  C   UNL d   1      10.890  26.345   5.950 -0.04 +0.06    +0.194 C 
DOCKED: ATOM      5  C   UNL d   1      11.400  26.668   7.349 -0.06 +0.06    +0.194 C 
DOCKED: ATOM      6  C   UNL d   1      10.341  27.280   8.268 -0.09 +0.09    +0.194 C 
DOCKED: ENDROOT
DOCKED: BRANCH   1   7
DOCKED: ATOM      7  O   UNL d   1       8.487  28.764   8.480 -0.11 -0.24    -0.278 OA
DOCKED: BRANCH   7   8
DOCKED: ATOM      8  P   UNL d   1       8.270  30.302   8.855 -0.09 +0.09    +0.473 P 
DOCKED: ATOM      9  O   UNL d   1       8.986  31.271   7.982 -0.01 -0.02    -0.228 OA
DOCKED: BRANCH   8  10
DOCKED: ATOM     10  O   UNL d   1       6.686  30.486   8.831 -0.13 -0.02    -0.303 OA
DOCKED: ATOM     11  H   UNL d   1       6.379  30.557   7.908 +0.05 +0.05    +0.222 HD
DOCKED: ENDBRANCH   8  10
DOCKED: BRANCH   8  12
DOCKED: ATOM     12  O   UNL d   1       8.592  30.397  10.408 -0.11 +0.02    -0.303 OA
DOCKED: ATOM     13  H   UNL d   1       8.766  29.521  10.820 +0.04 +0.02    +0.222 HD
DOCKED: ENDBRANCH   8  12
DOCKED: ENDBRANCH   7   8
DOCKED: ENDBRANCH   1   7
DOCKED: BRANCH   2  14
DOCKED: ATOM     14  O   UNL d   1       7.992  26.997   6.468 -0.33 -0.25    -0.278 OA
DOCKED: BRANCH  14  15
DOCKED: ATOM     15  P   UNL d   1       6.495  27.357   6.029 -0.14 +0.41    +0.473 P 
DOCKED: ATOM     16  O   UNL d   1       5.441  26.340   6.338 -0.44 -0.20    -0.228 OA
DOCKED: BRANCH  15  17
DOCKED: ATOM     17  O   UNL d   1       6.216  28.765   6.720 -0.29 -0.28    -0.303 OA
DOCKED: ATOM     18  H   UNL d   1       6.984  29.056   7.247 +0.06 +0.20    +0.222 HD
DOCKED: ENDBRANCH  15  17
DOCKED: BRANCH  15  19
DOCKED: ATOM     19  O   UNL d   1       6.620  27.771   4.498 -0.14 -0.12    -0.303 OA
DOCKED: ATOM     20  H   UNL d   1       7.360  27.313   4.060 +0.06 +0.08    +0.222 HD
DOCKED: ENDBRANCH  15  19
DOCKED: ENDBRANCH  14  15
DOCKED: ENDBRANCH   2  14
DOCKED: BRANCH   6  21
DOCKED: ATOM     21  O   UNL d   1      11.035  27.832   9.385 -0.04 -0.07    -0.278 OA
DOCKED: BRANCH  21  22
DOCKED: ATOM     22  P   UNL d   1      10.380  27.761  10.838 -0.11 +0.07    +0.473 P 
DOCKED: ATOM     23  O   UNL d   1       8.938  27.394  10.944 -0.30 -0.13    -0.228 OA
DOCKED: BRANCH  22  24
DOCKED: ATOM     24  O   UNL d   1      11.376  26.778  11.596 -0.11 -0.01    -0.303 OA
DOCKED: ATOM     25  H   UNL d   1      12.099  26.527  10.967 +0.06 +0.02    +0.222 HD
DOCKED: ENDBRANCH  22  24
DOCKED: BRANCH  22  26
DOCKED: ATOM     26  O   UNL d   1      10.790  29.185  11.450 -0.09 +0.05    -0.303 OA
DOCKED: ATOM     27  H   UNL d   1      10.009  29.585  11.884 -0.41 -0.06    +0.222 HD
DOCKED: ENDBRANCH  22  26
DOCKED: ENDBRANCH  21  22
DOCKED: ENDBRANCH   6  21
DOCKED: BRANCH   3  28
DOCKED: ATOM     28  O   UNL d   1       9.392  26.853   4.218 -0.05 -0.08    -0.278 OA
DOCKED: BRANCH  28  29
DOCKED: ATOM     29  P   UNL d   1       9.914  27.093   2.732 -0.00 +0.09    +0.473 P 
DOCKED: ATOM     30  O   UNL d   1       9.008  26.627   1.651 -0.03 -0.04    -0.228 OA
DOCKED: BRANCH  29  31
DOCKED: ATOM     31  O   UNL d   1      10.222  28.662   2.796 -0.00 -0.04    -0.303 OA
DOCKED: ATOM     32  H   UNL d   1      10.793  28.839   3.579 +0.01 +0.03    +0.222 HD
DOCKED: ENDBRANCH  29  31
DOCKED: BRANCH  29  33
DOCKED: ATOM     33  O   UNL d   1      11.368  26.447   2.781 -0.02 -0.05    -0.303 OA
DOCKED: ATOM     34  H   UNL d   1      12.002  27.109   3.152 +0.01 +0.03    +0.222 HD
DOCKED: ENDBRANCH  29  33
DOCKED: ENDBRANCH  28  29
DOCKED: ENDBRANCH   3  28
DOCKED: BRANCH   5  35
DOCKED: ATOM     35  O   UNL d   1      11.781  25.418   7.920 +0.03 -0.10    -0.278 OA
DOCKED: BRANCH  35  36
DOCKED: ATOM     36  P   UNL d   1      13.261  25.206   8.476 -0.04 +0.12    +0.473 P 
DOCKED: ATOM     37  O   UNL d   1      13.687  26.151   9.554 -0.02 -0.03    -0.228 OA
DOCKED: BRANCH  36  38
DOCKED: ATOM     38  O   UNL d   1      13.226  23.677   8.922 -0.09 -0.11    -0.303 OA
DOCKED: ATOM     39  H   UNL d   1      13.954  23.511   9.559 +0.03 +0.06    +0.222 HD
DOCKED: ENDBRANCH  36  38
DOCKED: BRANCH  36  40
DOCKED: ATOM     40  O   UNL d   1      14.127  25.195   7.142 -0.05 -0.07    -0.303 OA
DOCKED: ATOM     41  H   UNL d   1      13.595  25.462   6.360 +0.02 +0.05    +0.222 HD
DOCKED: ENDBRANCH  36  40
DOCKED: ENDBRANCH  35  36
DOCKED: ENDBRANCH   5  35
DOCKED: BRANCH   4  42
DOCKED: ATOM     42  O   UNL d   1      12.038  26.163   5.115 -0.07 -0.07    -0.278 OA
DOCKED: BRANCH  42  43
DOCKED: ATOM     43  P   UNL d   1      13.143  27.312   5.061 -0.02 +0.07    +0.473 P 
DOCKED: ATOM     44  O   UNL d   1      13.879  27.616   6.320 -0.01 -0.03    -0.228 OA
DOCKED: BRANCH  43  45
DOCKED: ATOM     45  O   UNL d   1      14.075  26.844   3.859 -0.01 -0.04    -0.303 OA
DOCKED: ATOM     46  H   UNL d   1      13.556  26.415   3.150 +0.01 +0.03    +0.222 HD
DOCKED: ENDBRANCH  43  45
DOCKED: BRANCH  43  47
DOCKED: ATOM     47  O   UNL d   1      12.358  28.545   4.404 -0.00 -0.04    -0.303 OA
DOCKED: ATOM     48  H   UNL d   1      12.249  28.383   3.444 +0.01 +0.02    +0.222 HD
DOCKED: ENDBRANCH  43  47
DOCKED: ENDBRANCH  42  43
DOCKED: ENDBRANCH   4  42
DOCKED: TORSDOF 24
DOCKED: TER
DOCKED: ENDMDL
________________________________________________________________________________


	BEGINNING GENETIC ALGORITHM DOCKING 86 of 100
Run: 86 Seed: 2112985121 602266025 [ Run 86 of 100 GA/GALS ]
Beginning LAMARCKIAN GENETIC ALGORITHM (LGA), with a maximum of 25000000 energy evaluations.

Final-Value: -18.078


	FINAL GENETIC ALGORITHM DOCKED STATE
	_______________________________________________


Detailed state:  trans 36.611 -13.480 1.712 quatxyzw -0.428595 0.014990 0.707005 -0.562339 center 0.035 0.082 -0.065 ntor 24 -177.5876 -16.8013 91.2184 86.2091 42.7639 -127.0882 -32.4984 45.1115 51.2791 93.4935 156.1767 114.1290 30.6820 105.3531 138.6388 117.3569 134.9378 38.5139 -9.9071 -10.2512 -11.5582 -6.1206 -6.3145 -18.5334
State:	 36.611 -13.480   1.712  -0.518  0.018  0.855 -111.565   -177.59  -16.80   91.22   86.21   42.76 -127.09  -32.50   45.11   51.28   93.49  156.18  114.13   30.68  105.35  138.64  117.36  134.94   38.51   -9.91  -10.25  -11.56   -6.12   -6.31  -18.53

DOCKED: MODEL       86
DOCKED: USER    Run = 86
DOCKED: USER    DPF = D:/Protein_go_brrr/autodock/final/1A3N/IHP/dock.dpf
DOCKED: USER  
DOCKED: USER    Estimated Free Energy of Binding    =   +4.04 kcal/mol  [=(1)+(2)+(3)-(4)]
DOCKED: USER    
DOCKED: USER    (1) Final Intermolecular Energy     =   -3.12 kcal/mol
DOCKED: USER        vdW + Hbond + desolv Energy     =   -3.18 kcal/mol
DOCKED: USER        Electrostatic Energy            =   +0.07 kcal/mol
DOCKED: USER    (2) Final Total Internal Energy     =  -14.96 kcal/mol
DOCKED: USER    (3) Torsional Free Energy           =   +7.16 kcal/mol
DOCKED: USER    (4) Unbound System's Energy  [=(2)] =  -14.96 kcal/mol
DOCKED: USER    
DOCKED: USER    
DOCKED: USER    NEWDPF move IHP_ideal_opt.pdbqt
DOCKED: USER    NEWDPF about 0.035000 0.082000 -0.065000
DOCKED: USER    NEWDPF tran0 36.611158 -13.480313 1.711675
DOCKED: USER    NEWDPF quaternion0 -0.428595 0.014990 0.707005 -0.562339
DOCKED: USER    NEWDPF axisangle0 -0.518311 0.018128 0.855000 -111.564531
DOCKED: USER    NEWDPF quat0 -0.518311 0.018128 0.855000 -111.564531
DOCKED: USER    NEWDPF dihe0 -177.59 -16.80 91.22 86.21 42.76 -127.09 -32.50 45.11 51.28 93.49 156.18 114.13 30.68 105.35 138.64 117.36 134.94 38.51 -9.91 -10.25 -11.56 -6.12 -6.31 -18.53 
DOCKED: USER  keepresnum = 1 
DOCKED: USER  
DOCKED: REMARK  24 active torsions:
DOCKED: REMARK  status: ('A' for Active; 'I' for Inactive)
DOCKED: REMARK    1  A    between atoms: C_1  and  O_7 
DOCKED: REMARK    2  A    between atoms: C_2  and  O_12 
DOCKED: REMARK    3  A    between atoms: C_3  and  O_17 
DOCKED: REMARK    4  A    between atoms: C_4  and  O_22 
DOCKED: REMARK    5  A    between atoms: C_5  and  O_27 
DOCKED: REMARK    6  A    between atoms: C_6  and  O_32 
DOCKED: REMARK    7  A    between atoms: O_7  and  P_8 
DOCKED: REMARK    8  A    between atoms: P_8  and  O_10 
DOCKED: REMARK    9  A    between atoms: P_8  and  O_11 
DOCKED: REMARK   10  A    between atoms: O_12  and  P_13 
DOCKED: REMARK   11  A    between atoms: P_13  and  O_15 
DOCKED: REMARK   12  A    between atoms: P_13  and  O_16 
DOCKED: REMARK   13  A    between atoms: O_17  and  P_18 
DOCKED: REMARK   14  A    between atoms: P_18  and  O_20 
DOCKED: REMARK   15  A    between atoms: P_18  and  O_21 
DOCKED: REMARK   16  A    between atoms: O_22  and  P_23 
DOCKED: REMARK   17  A    between atoms: P_23  and  O_25 
DOCKED: REMARK   18  A    between atoms: P_23  and  O_26 
DOCKED: REMARK   19  A    between atoms: O_27  and  P_28 
DOCKED: REMARK   20  A    between atoms: P_28  and  O_30 
DOCKED: REMARK   21  A    between atoms: P_28  and  O_31 
DOCKED: REMARK   22  A    between atoms: O_32  and  P_33 
DOCKED: REMARK   23  A    between atoms: P_33  and  O_35 
DOCKED: REMARK   24  A    between atoms: P_33  and  O_36 
DOCKED: USER                              x       y       z     vdW  Elec       q    Type
DOCKED: USER                           _______ _______ _______ _____ _____    ______ ____
DOCKED: ROOT
DOCKED: ATOM      1  C   UNL d   1      36.862 -11.776   1.840 -0.21 +0.01    +0.194 C 
DOCKED: ATOM      2  C   UNL d   1      37.730 -12.643   2.755 -0.06 +0.02    +0.194 C 
DOCKED: ATOM      3  C   UNL d   1      36.922 -13.771   3.400 -0.19 +0.02    +0.194 C 
DOCKED: ATOM      4  C   UNL d   1      36.138 -14.604   2.388 -0.13 +0.00    +0.194 C 
DOCKED: ATOM      5  C   UNL d   1      35.348 -13.776   1.382 -0.03 -0.00    +0.194 C 
DOCKED: ATOM      6  C   UNL d   1      36.138 -12.610   0.783 -0.14 -0.01    +0.194 C 
DOCKED: ENDROOT
DOCKED: BRANCH   1   7
DOCKED: ATOM      7  O   UNL d   1      37.718 -10.862   1.149 -0.12 +0.02    -0.278 OA
DOCKED: BRANCH   7   8
DOCKED: ATOM      8  P   UNL d   1      37.301  -9.321   1.102 -0.13 -0.07    +0.473 P 
DOCKED: ATOM      9  O   UNL d   1      37.668  -8.531   2.308 -0.23 +0.01    -0.228 OA
DOCKED: BRANCH   8  10
DOCKED: ATOM     10  O   UNL d   1      37.981  -8.778  -0.235 -0.10 +0.08    -0.303 OA
DOCKED: ATOM     11  H   UNL d   1      38.120  -9.518  -0.856 +0.06 -0.06    +0.222 HD
DOCKED: ENDBRANCH   8  10
DOCKED: BRANCH   8  12
DOCKED: ATOM     12  O   UNL d   1      35.760  -9.321   0.714 -0.28 +0.11    -0.303 OA
DOCKED: ATOM     13  H   UNL d   1      35.585  -9.718  -0.169 +0.10 -0.12    +0.222 HD
DOCKED: ENDBRANCH   8  12
DOCKED: ENDBRANCH   7   8
DOCKED: ENDBRANCH   1   7
DOCKED: BRANCH   2  14
DOCKED: ATOM     14  O   UNL d   1      38.788 -13.223   1.982 -0.05 -0.00    -0.278 OA
DOCKED: BRANCH  14  15
DOCKED: ATOM     15  P   UNL d   1      40.282 -12.889   2.450 -0.02 +0.01    +0.473 P 
DOCKED: ATOM     16  O   UNL d   1      41.361 -13.805   1.962 -0.01 -0.01    -0.228 OA
DOCKED: BRANCH  15  17
DOCKED: ATOM     17  O   UNL d   1      40.502 -11.378   1.994 -0.04 -0.01    -0.303 OA
DOCKED: ATOM     18  H   UNL d   1      39.734 -11.047   1.491 +0.05 -0.00    +0.222 HD
DOCKED: ENDBRANCH  15  17
DOCKED: BRANCH  15  19
DOCKED: ATOM     19  O   UNL d   1      40.178 -12.733   4.030 -0.06 -0.01    -0.303 OA
DOCKED: ATOM     20  H   UNL d   1      39.434 -13.247   4.395 +0.07 +0.00    +0.222 HD
DOCKED: ENDBRANCH  15  19
DOCKED: ENDBRANCH  14  15
DOCKED: ENDBRANCH   2  14
DOCKED: BRANCH   6  21
DOCKED: ATOM     21  O   UNL d   1      35.190 -11.753   0.151 -0.15 +0.05    -0.278 OA
DOCKED: BRANCH  21  22
DOCKED: ATOM     22  P   UNL d   1      35.215 -11.578  -1.435 -0.15 -0.16    +0.473 P 
DOCKED: ATOM     23  O   UNL d   1      34.066 -10.884  -2.085 -0.25 +0.16    -0.228 OA
DOCKED: BRANCH  22  24
DOCKED: ATOM     24  O   UNL d   1      36.630 -10.885  -1.664 -0.15 +0.10    -0.303 OA
DOCKED: ATOM     25  H   UNL d   1      36.891 -10.433  -0.821 +0.07 -0.07    +0.222 HD
DOCKED: ENDBRANCH  22  24
DOCKED: BRANCH  22  26
DOCKED: ATOM     26  O   UNL d   1      35.498 -13.078  -1.923 -0.06 +0.05    -0.303 OA
DOCKED: ATOM     27  H   UNL d   1      34.787 -13.664  -1.593 +0.05 -0.03    +0.222 HD
DOCKED: ENDBRANCH  22  26
DOCKED: ENDBRANCH  21  22
DOCKED: ENDBRANCH   6  21
DOCKED: BRANCH   3  28
DOCKED: ATOM     28  O   UNL d   1      37.845 -14.673   3.996 -0.08 -0.00    -0.278 OA
DOCKED: BRANCH  28  29
DOCKED: ATOM     29  P   UNL d   1      38.048 -14.689   5.576 -0.10 -0.02    +0.473 P 
DOCKED: ATOM     30  O   UNL d   1      37.181 -15.637   6.323 -0.12 +0.01    -0.228 OA
DOCKED: BRANCH  29  31
DOCKED: ATOM     31  O   UNL d   1      39.627 -14.934   5.652 -0.04 +0.01    -0.303 OA
DOCKED: ATOM     32  H   UNL d   1      40.025 -14.695   4.783 +0.04 -0.00    +0.222 HD
DOCKED: ENDBRANCH  29  31
DOCKED: BRANCH  29  33
DOCKED: ATOM     33  O   UNL d   1      37.913 -13.146   5.946 -0.06 +0.03    -0.303 OA
DOCKED: ATOM     34  H   UNL d   1      37.027 -12.991   6.355 -0.34 -0.06    +0.222 HD
DOCKED: ENDBRANCH  29  33
DOCKED: ENDBRANCH  28  29
DOCKED: ENDBRANCH   3  28
DOCKED: BRANCH   5  35
DOCKED: ATOM     35  O   UNL d   1      35.034 -14.664   0.312 -0.05 +0.02    -0.278 OA
DOCKED: BRANCH  35  36
DOCKED: ATOM     36  P   UNL d   1      33.519 -14.880  -0.137 -0.04 -0.05    +0.473 P 
DOCKED: ATOM     37  O   UNL d   1      33.313 -15.822  -1.281 -0.02 +0.03    -0.228 OA
DOCKED: BRANCH  36  38
DOCKED: ATOM     38  O   UNL d   1      32.839 -15.346   1.225 -0.08 +0.03    -0.303 OA
DOCKED: ATOM     39  H   UNL d   1      33.536 -15.657   1.842 +0.04 -0.02    +0.222 HD
DOCKED: ENDBRANCH  36  38
DOCKED: BRANCH  36  40
DOCKED: ATOM     40  O   UNL d   1      33.006 -13.387  -0.330 -0.09 +0.05    -0.303 OA
DOCKED: ATOM     41  H   UNL d   1      33.603 -12.870  -0.915 +0.08 -0.05    +0.222 HD
DOCKED: ENDBRANCH  36  40
DOCKED: ENDBRANCH  35  36
DOCKED: ENDBRANCH   5  35
DOCKED: BRANCH   4  42
DOCKED: ATOM     42  O   UNL d   1      35.191 -15.378   3.132 -0.11 +0.00    -0.278 OA
DOCKED: BRANCH  42  43
DOCKED: ATOM     43  P   UNL d   1      35.103 -16.948   2.870 -0.02 -0.04    +0.473 P 
DOCKED: ATOM     44  O   UNL d   1      36.064 -17.822   3.600 -0.02 +0.02    -0.228 OA
DOCKED: BRANCH  43  45
DOCKED: ATOM     45  O   UNL d   1      33.574 -17.267   3.174 -0.05 +0.04    -0.303 OA
DOCKED: ATOM     46  H   UNL d   1      33.008 -17.078   2.399 +0.05 -0.04    +0.222 HD
DOCKED: ENDBRANCH  43  45
DOCKED: BRANCH  43  47
DOCKED: ATOM     47  O   UNL d   1      35.147 -17.056   1.272 -0.01 +0.03    -0.303 OA
DOCKED: ATOM     48  H   UNL d   1      34.330 -16.664   0.899 +0.02 -0.02    +0.222 HD
DOCKED: ENDBRANCH  43  47
DOCKED: ENDBRANCH  42  43
DOCKED: ENDBRANCH   4  42
DOCKED: TORSDOF 24
DOCKED: TER
DOCKED: ENDMDL
________________________________________________________________________________


	BEGINNING GENETIC ALGORITHM DOCKING 87 of 100
Run: 87 Seed: 1406783815 1517098655 [ Run 87 of 100 GA/GALS ]
Beginning LAMARCKIAN GENETIC ALGORITHM (LGA), with a maximum of 25000000 energy evaluations.

Final-Value: -15.023


	FINAL GENETIC ALGORITHM DOCKED STATE
	_______________________________________________


Detailed state:  trans 35.132 17.463 23.040 quatxyzw -0.071242 -0.935542 -0.344041 -0.036369 center 0.035 0.082 -0.065 ntor 24 96.8017 -60.3320 165.7595 12.5021 10.4189 -166.4019 158.9529 32.3940 -6.3590 34.7638 109.7580 -161.4050 -169.1878 -172.8449 5.2712 179.8288 -129.8165 127.3648 -24.2074 16.6255 139.1975 28.3022 155.6875 -4.8213
State:	 35.132  17.463  23.040  -0.071 -0.936 -0.344 -175.832     96.80  -60.33  165.76   12.50   10.42 -166.40  158.95   32.39   -6.36   34.76  109.76 -161.41 -169.19 -172.84    5.27  179.83 -129.82  127.36  -24.21   16.63  139.20   28.30  155.69   -4.82

DOCKED: MODEL       87
DOCKED: USER    Run = 87
DOCKED: USER    DPF = D:/Protein_go_brrr/autodock/final/1A3N/IHP/dock.dpf
DOCKED: USER  
DOCKED: USER    Estimated Free Energy of Binding    =   +4.10 kcal/mol  [=(1)+(2)+(3)-(4)]
DOCKED: USER    
DOCKED: USER    (1) Final Intermolecular Energy     =   -3.06 kcal/mol
DOCKED: USER        vdW + Hbond + desolv Energy     =   -2.90 kcal/mol
DOCKED: USER        Electrostatic Energy            =   -0.16 kcal/mol
DOCKED: USER    (2) Final Total Internal Energy     =  -11.96 kcal/mol
DOCKED: USER    (3) Torsional Free Energy           =   +7.16 kcal/mol
DOCKED: USER    (4) Unbound System's Energy  [=(2)] =  -11.96 kcal/mol
DOCKED: USER    
DOCKED: USER    
DOCKED: USER    NEWDPF move IHP_ideal_opt.pdbqt
DOCKED: USER    NEWDPF about 0.035000 0.082000 -0.065000
DOCKED: USER    NEWDPF tran0 35.132430 17.462804 23.040300
DOCKED: USER    NEWDPF quaternion0 -0.071242 -0.935542 -0.344041 -0.036369
DOCKED: USER    NEWDPF axisangle0 -0.071289 -0.936161 -0.344268 -175.831546
DOCKED: USER    NEWDPF quat0 -0.071289 -0.936161 -0.344268 -175.831546
DOCKED: USER    NEWDPF dihe0 96.80 -60.33 165.76 12.50 10.42 -166.40 158.95 32.39 -6.36 34.76 109.76 -161.41 -169.19 -172.84 5.27 179.83 -129.82 127.36 -24.21 16.63 139.20 28.30 155.69 -4.82 
DOCKED: USER  keepresnum = 1 
DOCKED: USER  
DOCKED: REMARK  24 active torsions:
DOCKED: REMARK  status: ('A' for Active; 'I' for Inactive)
DOCKED: REMARK    1  A    between atoms: C_1  and  O_7 
DOCKED: REMARK    2  A    between atoms: C_2  and  O_12 
DOCKED: REMARK    3  A    between atoms: C_3  and  O_17 
DOCKED: REMARK    4  A    between atoms: C_4  and  O_22 
DOCKED: REMARK    5  A    between atoms: C_5  and  O_27 
DOCKED: REMARK    6  A    between atoms: C_6  and  O_32 
DOCKED: REMARK    7  A    between atoms: O_7  and  P_8 
DOCKED: REMARK    8  A    between atoms: P_8  and  O_10 
DOCKED: REMARK    9  A    between atoms: P_8  and  O_11 
DOCKED: REMARK   10  A    between atoms: O_12  and  P_13 
DOCKED: REMARK   11  A    between atoms: P_13  and  O_15 
DOCKED: REMARK   12  A    between atoms: P_13  and  O_16 
DOCKED: REMARK   13  A    between atoms: O_17  and  P_18 
DOCKED: REMARK   14  A    between atoms: P_18  and  O_20 
DOCKED: REMARK   15  A    between atoms: P_18  and  O_21 
DOCKED: REMARK   16  A    between atoms: O_22  and  P_23 
DOCKED: REMARK   17  A    between atoms: P_23  and  O_25 
DOCKED: REMARK   18  A    between atoms: P_23  and  O_26 
DOCKED: REMARK   19  A    between atoms: O_27  and  P_28 
DOCKED: REMARK   20  A    between atoms: P_28  and  O_30 
DOCKED: REMARK   21  A    between atoms: P_28  and  O_31 
DOCKED: REMARK   22  A    between atoms: O_32  and  P_33 
DOCKED: REMARK   23  A    between atoms: P_33  and  O_35 
DOCKED: REMARK   24  A    between atoms: P_33  and  O_36 
DOCKED: USER                              x       y       z     vdW  Elec       q    Type
DOCKED: USER                           _______ _______ _______ _____ _____    ______ ____
DOCKED: ROOT
DOCKED: ATOM      1  C   UNL d   1      33.740  17.443  22.018 -0.03 +0.00    +0.194 C 
DOCKED: ATOM      2  C   UNL d   1      34.852  16.463  21.639 -0.05 -0.01    +0.194 C 
DOCKED: ATOM      3  C   UNL d   1      36.235  17.109  21.740 +0.04 +0.00    +0.194 C 
DOCKED: ATOM      4  C   UNL d   1      36.490  17.777  23.089 -0.04 -0.00    +0.194 C 
DOCKED: ATOM      5  C   UNL d   1      35.354  18.676  23.561 -0.03 +0.00    +0.194 C 
DOCKED: ATOM      6  C   UNL d   1      33.965  18.053  23.402 -0.03 +0.00    +0.194 C 
DOCKED: ENDROOT
DOCKED: BRANCH   1   7
DOCKED: ATOM      7  O   UNL d   1      32.507  16.722  22.066 -0.06 +0.03    -0.278 OA
DOCKED: BRANCH   7   8
DOCKED: ATOM      8  P   UNL d   1      31.167  17.480  21.639 -0.05 -0.04    +0.473 P 
DOCKED: ATOM      9  O   UNL d   1      30.147  17.613  22.715 -0.04 +0.02    -0.228 OA
DOCKED: BRANCH   8  10
DOCKED: ATOM     10  O   UNL d   1      31.678  18.884  21.081 -0.07 -0.08    -0.303 OA
DOCKED: ATOM     11  H   UNL d   1      32.145  19.366  21.788 +0.07 +0.04    +0.222 HD
DOCKED: ENDBRANCH   8  10
DOCKED: BRANCH   8  12
DOCKED: ATOM     12  O   UNL d   1      30.684  16.750  20.313 -0.23 +0.14    -0.303 OA
DOCKED: ATOM     13  H   UNL d   1      30.845  17.281  19.500 -0.41 -0.21    +0.222 HD
DOCKED: ENDBRANCH   8  12
DOCKED: ENDBRANCH   7   8
DOCKED: ENDBRANCH   1   7
DOCKED: BRANCH   2  14
DOCKED: ATOM     14  O   UNL d   1      34.806  15.339  22.528 -0.07 +0.01    -0.278 OA
DOCKED: BRANCH  14  15
DOCKED: ATOM     15  P   UNL d   1      35.261  13.929  21.922 +0.01 -0.01    +0.473 P 
DOCKED: ATOM     16  O   UNL d   1      34.223  12.851  21.877 -0.24 +0.01    -0.228 OA
DOCKED: BRANCH  15  17
DOCKED: ATOM     17  O   UNL d   1      35.835  14.293  20.481 -0.48 -0.01    -0.303 OA
DOCKED: ATOM     18  H   UNL d   1      36.678  14.780  20.552 +0.09 +0.02    +0.222 HD
DOCKED: ENDBRANCH  15  17
DOCKED: BRANCH  15  19
DOCKED: ATOM     19  O   UNL d   1      36.592  13.567  22.714 -0.09 -0.01    -0.303 OA
DOCKED: ATOM     20  H   UNL d   1      37.206  14.323  22.751 +0.07 -0.01    +0.222 HD
DOCKED: ENDBRANCH  15  19
DOCKED: ENDBRANCH  14  15
DOCKED: ENDBRANCH   2  14
DOCKED: BRANCH   6  21
DOCKED: ATOM     21  O   UNL d   1      33.020  19.110  23.552 -0.02 -0.01    -0.278 OA
DOCKED: BRANCH  21  22
DOCKED: ATOM     22  P   UNL d   1      33.353  20.559  22.973 -0.03 +0.04    +0.473 P 
DOCKED: ATOM     23  O   UNL d   1      34.127  20.648  21.700 -0.14 -0.04    -0.228 OA
DOCKED: BRANCH  22  24
DOCKED: ATOM     24  O   UNL d   1      31.911  21.231  22.926 -0.03 -0.03    -0.303 OA
DOCKED: ATOM     25  H   UNL d   1      31.318  20.649  22.387 +0.05 +0.03    +0.222 HD
DOCKED: ENDBRANCH  22  24
DOCKED: BRANCH  22  26
DOCKED: ATOM     26  O   UNL d   1      34.011  21.275  24.247 -0.01 -0.01    -0.303 OA
DOCKED: ATOM     27  H   UNL d   1      34.310  20.592  24.882 +0.01 +0.00    +0.222 HD
DOCKED: ENDBRANCH  22  26
DOCKED: ENDBRANCH  21  22
DOCKED: ENDBRANCH   6  21
DOCKED: BRANCH   3  28
DOCKED: ATOM     28  O   UNL d   1      37.201  16.070  21.646 -0.08 +0.01    -0.278 OA
DOCKED: BRANCH  28  29
DOCKED: ATOM     29  P   UNL d   1      38.527  16.279  20.789 -0.07 -0.03    +0.473 P 
DOCKED: ATOM     30  O   UNL d   1      39.696  15.464  21.208 -0.05 +0.02    -0.228 OA
DOCKED: BRANCH  29  31
DOCKED: ATOM     31  O   UNL d   1      37.952  16.022  19.318 -0.31 +0.05    -0.303 OA
DOCKED: ATOM     32  H   UNL d   1      38.670  15.639  18.763 -0.47 -0.11    +0.222 HD
DOCKED: ENDBRANCH  29  31
DOCKED: BRANCH  29  33
DOCKED: ATOM     33  O   UNL d   1      38.702  17.861  20.826 -0.05 +0.01    -0.303 OA
DOCKED: ATOM     34  H   UNL d   1      39.272  18.103  21.597 +0.03 -0.01    +0.222 HD
DOCKED: ENDBRANCH  29  33
DOCKED: ENDBRANCH  28  29
DOCKED: ENDBRANCH   3  28
DOCKED: BRANCH   5  35
DOCKED: ATOM     35  O   UNL d   1      35.569  18.872  24.957 -0.01 +0.01    -0.278 OA
DOCKED: BRANCH  35  36
DOCKED: ATOM     36  P   UNL d   1      35.271  17.693  25.990 -0.02 -0.02    +0.473 P 
DOCKED: ATOM     37  O   UNL d   1      33.855  17.591  26.461 -0.04 +0.01    -0.228 OA
DOCKED: BRANCH  36  38
DOCKED: ATOM     38  O   UNL d   1      35.788  16.418  25.188 -0.05 +0.01    -0.303 OA
DOCKED: ATOM     39  H   UNL d   1      35.129  16.182  24.501 +0.05 -0.01    +0.222 HD
DOCKED: ENDBRANCH  36  38
DOCKED: BRANCH  36  40
DOCKED: ATOM     40  O   UNL d   1      36.386  17.925  27.101 -0.03 +0.02    -0.303 OA
DOCKED: ATOM     41  H   UNL d   1      37.022  18.627  26.838 +0.02 -0.01    +0.222 HD
DOCKED: ENDBRANCH  36  40
DOCKED: ENDBRANCH  35  36
DOCKED: ENDBRANCH   5  35
DOCKED: BRANCH   4  42
DOCKED: ATOM     42  O   UNL d   1      37.645  18.608  22.929 -0.02 +0.00    -0.278 OA
DOCKED: BRANCH  42  43
DOCKED: ATOM     43  P   UNL d   1      38.961  18.268  23.763 +0.00 -0.02    +0.473 P 
DOCKED: ATOM     44  O   UNL d   1      40.190  19.053  23.457 -0.00 +0.01    -0.228 OA
DOCKED: BRANCH  43  45
DOCKED: ATOM     45  O   UNL d   1      38.463  18.399  25.269 -0.00 +0.02    -0.303 OA
DOCKED: ATOM     46  H   UNL d   1      37.546  18.074  25.372 +0.02 -0.01    +0.222 HD
DOCKED: ENDBRANCH  43  45
DOCKED: BRANCH  43  47
DOCKED: ATOM     47  O   UNL d   1      39.097  16.679  23.602 -0.01 +0.03    -0.303 OA
DOCKED: ATOM     48  H   UNL d   1      38.549  16.383  22.845 +0.03 -0.02    +0.222 HD
DOCKED: ENDBRANCH  43  47
DOCKED: ENDBRANCH  42  43
DOCKED: ENDBRANCH   4  42
DOCKED: TORSDOF 24
DOCKED: TER
DOCKED: ENDMDL
________________________________________________________________________________


	BEGINNING GENETIC ALGORITHM DOCKING 88 of 100
Run: 88 Seed: 261516674 858370407 [ Run 88 of 100 GA/GALS ]
Beginning LAMARCKIAN GENETIC ALGORITHM (LGA), with a maximum of 25000000 energy evaluations.

Final-Value: -17.459


	FINAL GENETIC ALGORITHM DOCKED STATE
	_______________________________________________


Detailed state:  trans 0.135 18.002 38.352 quatxyzw -0.758877 0.519272 -0.385882 -0.074545 center 0.035 0.082 -0.065 ntor 24 120.0677 96.7131 58.9449 40.0454 93.4331 82.6025 -43.3245 -12.2163 71.9359 54.8459 57.3026 -14.4390 -38.7586 164.8854 46.4486 180.0000 122.7225 -97.2882 38.7687 -15.2956 176.7327 -13.5729 -7.3266 171.1276
State:	  0.135  18.002  38.352  -0.761  0.521 -0.387 -171.450    120.07   96.71   58.94   40.05   93.43   82.60  -43.32  -12.22   71.94   54.85   57.30  -14.44  -38.76  164.89   46.45  180.00  122.72  -97.29   38.77  -15.30  176.73  -13.57   -7.33  171.13

DOCKED: MODEL       88
DOCKED: USER    Run = 88
DOCKED: USER    DPF = D:/Protein_go_brrr/autodock/final/1A3N/IHP/dock.dpf
DOCKED: USER  
DOCKED: USER    Estimated Free Energy of Binding    =   +4.70 kcal/mol  [=(1)+(2)+(3)-(4)]
DOCKED: USER    
DOCKED: USER    (1) Final Intermolecular Energy     =   -2.46 kcal/mol
DOCKED: USER        vdW + Hbond + desolv Energy     =   -2.18 kcal/mol
DOCKED: USER        Electrostatic Energy            =   -0.28 kcal/mol
DOCKED: USER    (2) Final Total Internal Energy     =  -15.00 kcal/mol
DOCKED: USER    (3) Torsional Free Energy           =   +7.16 kcal/mol
DOCKED: USER    (4) Unbound System's Energy  [=(2)] =  -15.00 kcal/mol
DOCKED: USER    
DOCKED: USER    
DOCKED: USER    NEWDPF move IHP_ideal_opt.pdbqt
DOCKED: USER    NEWDPF about 0.035000 0.082000 -0.065000
DOCKED: USER    NEWDPF tran0 0.135215 18.002199 38.351754
DOCKED: USER    NEWDPF quaternion0 -0.758877 0.519272 -0.385882 -0.074545
DOCKED: USER    NEWDPF axisangle0 -0.760994 0.520721 -0.386959 -171.449843
DOCKED: USER    NEWDPF quat0 -0.760994 0.520721 -0.386959 -171.449843
DOCKED: USER    NEWDPF dihe0 120.07 96.71 58.94 40.05 93.43 82.60 -43.32 -12.22 71.94 54.85 57.30 -14.44 -38.76 164.89 46.45 180.00 122.72 -97.29 38.77 -15.30 176.73 -13.57 -7.33 171.13 
DOCKED: USER  keepresnum = 1 
DOCKED: USER  
DOCKED: REMARK  24 active torsions:
DOCKED: REMARK  status: ('A' for Active; 'I' for Inactive)
DOCKED: REMARK    1  A    between atoms: C_1  and  O_7 
DOCKED: REMARK    2  A    between atoms: C_2  and  O_12 
DOCKED: REMARK    3  A    between atoms: C_3  and  O_17 
DOCKED: REMARK    4  A    between atoms: C_4  and  O_22 
DOCKED: REMARK    5  A    between atoms: C_5  and  O_27 
DOCKED: REMARK    6  A    between atoms: C_6  and  O_32 
DOCKED: REMARK    7  A    between atoms: O_7  and  P_8 
DOCKED: REMARK    8  A    between atoms: P_8  and  O_10 
DOCKED: REMARK    9  A    between atoms: P_8  and  O_11 
DOCKED: REMARK   10  A    between atoms: O_12  and  P_13 
DOCKED: REMARK   11  A    between atoms: P_13  and  O_15 
DOCKED: REMARK   12  A    between atoms: P_13  and  O_16 
DOCKED: REMARK   13  A    between atoms: O_17  and  P_18 
DOCKED: REMARK   14  A    between atoms: P_18  and  O_20 
DOCKED: REMARK   15  A    between atoms: P_18  and  O_21 
DOCKED: REMARK   16  A    between atoms: O_22  and  P_23 
DOCKED: REMARK   17  A    between atoms: P_23  and  O_25 
DOCKED: REMARK   18  A    between atoms: P_23  and  O_26 
DOCKED: REMARK   19  A    between atoms: O_27  and  P_28 
DOCKED: REMARK   20  A    between atoms: P_28  and  O_30 
DOCKED: REMARK   21  A    between atoms: P_28  and  O_31 
DOCKED: REMARK   22  A    between atoms: O_32  and  P_33 
DOCKED: REMARK   23  A    between atoms: P_33  and  O_35 
DOCKED: REMARK   24  A    between atoms: P_33  and  O_36 
DOCKED: USER                              x       y       z     vdW  Elec       q    Type
DOCKED: USER                           _______ _______ _______ _____ _____    ______ ____
DOCKED: ROOT
DOCKED: ATOM      1  C   UNL d   1       1.513  17.114  38.898 -0.03 +0.08    +0.194 C 
DOCKED: ATOM      2  C   UNL d   1       1.652  18.637  38.932 -0.02 +0.06    +0.194 C 
DOCKED: ATOM      3  C   UNL d   1       1.090  19.286  37.665 -0.03 +0.05    +0.194 C 
DOCKED: ATOM      4  C   UNL d   1      -0.336  18.844  37.345 -0.03 +0.05    +0.194 C 
DOCKED: ATOM      5  C   UNL d   1      -0.548  17.337  37.413 -0.05 +0.07    +0.194 C 
DOCKED: ATOM      6  C   UNL d   1       0.068  16.679  38.649 -0.03 +0.07    +0.194 C 
DOCKED: ENDROOT
DOCKED: BRANCH   1   7
DOCKED: ATOM      7  O   UNL d   1       1.897  16.603  40.176 -0.01 -0.10    -0.278 OA
DOCKED: BRANCH   7   8
DOCKED: ATOM      8  P   UNL d   1       3.451  16.362  40.461 -0.00 +0.19    +0.473 P 
DOCKED: ATOM      9  O   UNL d   1       4.377  16.974  39.470 -0.04 -0.14    -0.228 OA
DOCKED: BRANCH   8  10
DOCKED: ATOM     10  O   UNL d   1       3.662  16.914  41.943 +0.00 -0.07    -0.303 OA
DOCKED: ATOM     11  H   UNL d   1       3.119  17.713  42.075 +0.00 +0.04    +0.222 HD
DOCKED: ENDBRANCH   8  10
DOCKED: BRANCH   8  12
DOCKED: ATOM     12  O   UNL d   1       3.594  14.793  40.667 -0.00 -0.12    -0.303 OA
DOCKED: ATOM     13  H   UNL d   1       3.191  14.270  39.939 +0.02 +0.11    +0.222 HD
DOCKED: ENDBRANCH   8  12
DOCKED: ENDBRANCH   7   8
DOCKED: ENDBRANCH   1   7
DOCKED: BRANCH   2  14
DOCKED: ATOM     14  O   UNL d   1       0.934  19.147  40.063 -0.00 -0.05    -0.278 OA
DOCKED: BRANCH  14  15
DOCKED: ATOM     15  P   UNL d   1       1.803  19.879  41.192 +0.00 +0.07    +0.473 P 
DOCKED: ATOM     16  O   UNL d   1       1.428  19.602  42.614 +0.00 -0.03    -0.228 OA
DOCKED: BRANCH  15  17
DOCKED: ATOM     17  O   UNL d   1       3.304  19.462  40.857 +0.00 -0.06    -0.303 OA
DOCKED: ATOM     18  H   UNL d   1       3.350  18.541  40.537 +0.01 +0.06    +0.222 HD
DOCKED: ENDBRANCH  15  17
DOCKED: BRANCH  15  19
DOCKED: ATOM     19  O   UNL d   1       1.795  21.412  40.766 +0.00 -0.03    -0.303 OA
DOCKED: ATOM     20  H   UNL d   1       1.567  21.523  39.825 +0.00 +0.03    +0.222 HD
DOCKED: ENDBRANCH  15  19
DOCKED: ENDBRANCH  14  15
DOCKED: ENDBRANCH   2  14
DOCKED: BRANCH   6  21
DOCKED: ATOM     21  O   UNL d   1       0.090  15.275  38.402 -0.04 -0.12    -0.278 OA
DOCKED: BRANCH  21  22
DOCKED: ATOM     22  P   UNL d   1       1.161  14.668  37.387 -0.08 +0.35    +0.473 P 
DOCKED: ATOM     23  O   UNL d   1       2.570  14.521  37.853 -0.25 -0.26    -0.228 OA
DOCKED: BRANCH  22  24
DOCKED: ATOM     24  O   UNL d   1       0.458  13.309  36.948 -0.07 -0.18    -0.303 OA
DOCKED: ATOM     25  H   UNL d   1      -0.522  13.428  37.032 +0.12 +0.13    +0.222 HD
DOCKED: ENDBRANCH  22  24
DOCKED: BRANCH  22  26
DOCKED: ATOM     26  O   UNL d   1       0.940  15.587  36.092 -0.13 -0.24    -0.303 OA
DOCKED: ATOM     27  H   UNL d   1       0.278  15.166  35.507 -0.04 +0.14    +0.222 HD
DOCKED: ENDBRANCH  22  26
DOCKED: ENDBRANCH  21  22
DOCKED: ENDBRANCH   6  21
DOCKED: BRANCH   3  28
DOCKED: ATOM     28  O   UNL d   1       1.007  20.686  37.902 -0.00 -0.05    -0.278 OA
DOCKED: BRANCH  28  29
DOCKED: ATOM     29  P   UNL d   1       2.164  21.657  37.398 +0.00 +0.06    +0.473 P 
DOCKED: ATOM     30  O   UNL d   1       1.755  23.061  37.140 -0.00 -0.02    -0.228 OA
DOCKED: BRANCH  29  31
DOCKED: ATOM     31  O   UNL d   1       3.251  21.416  38.548 -0.00 -0.05    -0.303 OA
DOCKED: ATOM     32  H   UNL d   1       2.946  20.671  39.117 +0.01 +0.04    +0.222 HD
DOCKED: ENDBRANCH  29  31
DOCKED: BRANCH  29  33
DOCKED: ATOM     33  O   UNL d   1       2.769  20.846  36.168 -0.02 -0.06    -0.303 OA
DOCKED: ATOM     34  H   UNL d   1       2.027  20.522  35.601 +0.03 +0.04    +0.222 HD
DOCKED: ENDBRANCH  29  33
DOCKED: ENDBRANCH  28  29
DOCKED: ENDBRANCH   3  28
DOCKED: BRANCH   5  35
DOCKED: ATOM     35  O   UNL d   1      -1.959  17.148  37.496 -0.03 -0.11    -0.278 OA
DOCKED: BRANCH  35  36
DOCKED: ATOM     36  P   UNL d   1      -2.716  16.251  36.416 -0.11 +0.37    +0.473 P 
DOCKED: ATOM     37  O   UNL d   1      -4.122  15.875  36.761 -0.70 -0.29    -0.228 OA
DOCKED: BRANCH  36  38
DOCKED: ATOM     38  O   UNL d   1      -2.580  17.139  35.101 -0.02 -0.24    -0.303 OA
DOCKED: ATOM     39  H   UNL d   1      -2.060  17.945  35.310 +0.06 +0.10    +0.222 HD
DOCKED: ENDBRANCH  36  38
DOCKED: BRANCH  36  40
DOCKED: ATOM     40  O   UNL d   1      -1.688  15.060  36.183 -0.14 -0.20    -0.303 OA
DOCKED: ATOM     41  H   UNL d   1      -0.985  15.046  36.870 +0.09 +0.12    +0.222 HD
DOCKED: ENDBRANCH  36  40
DOCKED: ENDBRANCH  35  36
DOCKED: ENDBRANCH   5  35
DOCKED: BRANCH   4  42
DOCKED: ATOM     42  O   UNL d   1      -0.602  19.247  35.998 -0.05 -0.05    -0.278 OA
DOCKED: BRANCH  42  43
DOCKED: ATOM     43  P   UNL d   1       0.315  18.673  34.826 -0.13 +0.09    +0.473 P 
DOCKED: ATOM     44  O   UNL d   1       1.791  18.799  34.984 -0.13 -0.09    -0.228 OA
DOCKED: BRANCH  43  45
DOCKED: ATOM     45  O   UNL d   1      -0.198  17.173  34.684 -0.27 -0.11    -0.303 OA
DOCKED: ATOM     46  H   UNL d   1      -0.726  16.900  35.461 +0.08 +0.10    +0.222 HD
DOCKED: ENDBRANCH  43  45
DOCKED: BRANCH  43  47
DOCKED: ATOM     47  O   UNL d   1      -0.301  19.353  33.512 -0.18 +0.09    -0.303 OA
DOCKED: ATOM     48  H   UNL d   1       0.335  19.262  32.773 +0.01 -0.12    +0.222 HD
DOCKED: ENDBRANCH  43  47
DOCKED: ENDBRANCH  42  43
DOCKED: ENDBRANCH   4  42
DOCKED: TORSDOF 24
DOCKED: TER
DOCKED: ENDMDL
________________________________________________________________________________


	BEGINNING GENETIC ALGORITHM DOCKING 89 of 100
Run: 89 Seed: 546082289 1726436416 [ Run 89 of 100 GA/GALS ]
Beginning LAMARCKIAN GENETIC ALGORITHM (LGA), with a maximum of 25000000 energy evaluations.

Final-Value: -18.773


	FINAL GENETIC ALGORITHM DOCKED STATE
	_______________________________________________


Detailed state:  trans 3.743 17.001 -0.649 quatxyzw -0.515264 -0.739451 0.077625 -0.426250 center 0.035 0.082 -0.065 ntor 24 25.4707 -83.5734 79.7951 158.0782 5.5530 146.6272 -90.7286 -39.7962 120.5747 -64.8274 95.5643 69.9369 -144.9021 46.8739 179.8376 0.4251 101.1443 -132.4130 179.6810 35.3712 -16.3763 5.9747 168.1332 -5.9210
State:	  3.743  17.001  -0.649  -0.570 -0.817  0.086 -129.540     25.47  -83.57   79.80  158.08    5.55  146.63  -90.73  -39.80  120.57  -64.83   95.56   69.94 -144.90   46.87  179.84    0.43  101.14 -132.41  179.68   35.37  -16.38    5.97  168.13   -5.92

DOCKED: MODEL       89
DOCKED: USER    Run = 89
DOCKED: USER    DPF = D:/Protein_go_brrr/autodock/final/1A3N/IHP/dock.dpf
DOCKED: USER  
DOCKED: USER    Estimated Free Energy of Binding    =   +1.78 kcal/mol  [=(1)+(2)+(3)-(4)]
DOCKED: USER    
DOCKED: USER    (1) Final Intermolecular Energy     =   -5.38 kcal/mol
DOCKED: USER        vdW + Hbond + desolv Energy     =   -5.21 kcal/mol
DOCKED: USER        Electrostatic Energy            =   -0.17 kcal/mol
DOCKED: USER    (2) Final Total Internal Energy     =  -13.39 kcal/mol
DOCKED: USER    (3) Torsional Free Energy           =   +7.16 kcal/mol
DOCKED: USER    (4) Unbound System's Energy  [=(2)] =  -13.39 kcal/mol
DOCKED: USER    
DOCKED: USER    
DOCKED: USER    NEWDPF move IHP_ideal_opt.pdbqt
DOCKED: USER    NEWDPF about 0.035000 0.082000 -0.065000
DOCKED: USER    NEWDPF tran0 3.743141 17.000514 -0.648831
DOCKED: USER    NEWDPF quaternion0 -0.515264 -0.739451 0.077625 -0.426250
DOCKED: USER    NEWDPF axisangle0 -0.569601 -0.817430 0.085811 -129.540367
DOCKED: USER    NEWDPF quat0 -0.569601 -0.817430 0.085811 -129.540367
DOCKED: USER    NEWDPF dihe0 25.47 -83.57 79.80 158.08 5.55 146.63 -90.73 -39.80 120.57 -64.83 95.56 69.94 -144.90 46.87 179.84 0.43 101.14 -132.41 179.68 35.37 -16.38 5.97 168.13 -5.92 
DOCKED: USER  keepresnum = 1 
DOCKED: USER  
DOCKED: REMARK  24 active torsions:
DOCKED: REMARK  status: ('A' for Active; 'I' for Inactive)
DOCKED: REMARK    1  A    between atoms: C_1  and  O_7 
DOCKED: REMARK    2  A    between atoms: C_2  and  O_12 
DOCKED: REMARK    3  A    between atoms: C_3  and  O_17 
DOCKED: REMARK    4  A    between atoms: C_4  and  O_22 
DOCKED: REMARK    5  A    between atoms: C_5  and  O_27 
DOCKED: REMARK    6  A    between atoms: C_6  and  O_32 
DOCKED: REMARK    7  A    between atoms: O_7  and  P_8 
DOCKED: REMARK    8  A    between atoms: P_8  and  O_10 
DOCKED: REMARK    9  A    between atoms: P_8  and  O_11 
DOCKED: REMARK   10  A    between atoms: O_12  and  P_13 
DOCKED: REMARK   11  A    between atoms: P_13  and  O_15 
DOCKED: REMARK   12  A    between atoms: P_13  and  O_16 
DOCKED: REMARK   13  A    between atoms: O_17  and  P_18 
DOCKED: REMARK   14  A    between atoms: P_18  and  O_20 
DOCKED: REMARK   15  A    between atoms: P_18  and  O_21 
DOCKED: REMARK   16  A    between atoms: O_22  and  P_23 
DOCKED: REMARK   17  A    between atoms: P_23  and  O_25 
DOCKED: REMARK   18  A    between atoms: P_23  and  O_26 
DOCKED: REMARK   19  A    between atoms: O_27  and  P_28 
DOCKED: REMARK   20  A    between atoms: P_28  and  O_30 
DOCKED: REMARK   21  A    between atoms: P_28  and  O_31 
DOCKED: REMARK   22  A    between atoms: O_32  and  P_33 
DOCKED: REMARK   23  A    between atoms: P_33  and  O_35 
DOCKED: REMARK   24  A    between atoms: P_33  and  O_36 
DOCKED: USER                              x       y       z     vdW  Elec       q    Type
DOCKED: USER                           _______ _______ _______ _____ _____    ______ ____
DOCKED: ROOT
DOCKED: ATOM      1  C   UNL d   1       2.431  17.889   0.039 -0.02 -0.03    +0.194 C 
DOCKED: ATOM      2  C   UNL d   1       2.265  16.368   0.028 -0.07 -0.03    +0.194 C 
DOCKED: ATOM      3  C   UNL d   1       2.712  15.759  -1.303 -0.08 -0.03    +0.194 C 
DOCKED: ATOM      4  C   UNL d   1       4.116  16.190  -1.720 -0.05 -0.03    +0.194 C 
DOCKED: ATOM      5  C   UNL d   1       4.362  17.690  -1.615 -0.01 -0.03    +0.194 C 
DOCKED: ATOM      6  C   UNL d   1       3.859  18.310  -0.309 -0.03 -0.03    +0.194 C 
DOCKED: ENDROOT
DOCKED: BRANCH   1   7
DOCKED: ATOM      7  O   UNL d   1       2.159  18.358   1.362 -0.06 +0.07    -0.278 OA
DOCKED: BRANCH   7   8
DOCKED: ATOM      8  P   UNL d   1       3.020  17.765   2.569 -0.13 -0.25    +0.473 P 
DOCKED: ATOM      9  O   UNL d   1       2.417  16.591   3.258 -0.26 +0.13    -0.228 OA
DOCKED: BRANCH   8  10
DOCKED: ATOM     10  O   UNL d   1       4.439  17.446   1.912 -0.01 +0.20    -0.303 OA
DOCKED: ATOM     11  H   UNL d   1       4.724  16.549   2.169 -0.41 -0.28    +0.222 HD
DOCKED: ENDBRANCH   8  10
DOCKED: BRANCH   8  12
DOCKED: ATOM     12  O   UNL d   1       3.354  19.015   3.492 -0.26 +0.31    -0.303 OA
DOCKED: ATOM     13  H   UNL d   1       4.311  19.093   3.703 -0.21 -0.06    +0.222 HD
DOCKED: ENDBRANCH   8  12
DOCKED: ENDBRANCH   7   8
DOCKED: ENDBRANCH   1   7
DOCKED: BRANCH   2  14
DOCKED: ATOM     14  O   UNL d   1       3.061  15.805   1.078 -0.10 +0.09    -0.278 OA
DOCKED: BRANCH  14  15
DOCKED: ATOM     15  P   UNL d   1       2.781  14.271   1.443 -0.14 -0.14    +0.473 P 
DOCKED: ATOM     16  O   UNL d   1       3.761  13.266   0.921 -0.14 +0.06    -0.228 OA
DOCKED: BRANCH  15  17
DOCKED: ATOM     17  O   UNL d   1       2.677  14.263   3.033 -0.26 +0.07    -0.303 OA
DOCKED: ATOM     18  H   UNL d   1       3.044  15.084   3.413 +0.17 -0.06    +0.222 HD
DOCKED: ENDBRANCH  15  17
DOCKED: BRANCH  15  19
DOCKED: ATOM     19  O   UNL d   1       1.266  14.033   1.022 -0.22 +0.07    -0.303 OA
DOCKED: ATOM     20  H   UNL d   1       1.197  13.610   0.146 +0.04 -0.05    +0.222 HD
DOCKED: ENDBRANCH  15  19
DOCKED: ENDBRANCH  14  15
DOCKED: ENDBRANCH   2  14
DOCKED: BRANCH   6  21
DOCKED: ATOM     21  O   UNL d   1       3.844  19.722  -0.503 -0.01 +0.02    -0.278 OA
DOCKED: BRANCH  21  22
DOCKED: ATOM     22  P   UNL d   1       4.751  20.657   0.418 -0.01 +0.01    +0.473 P 
DOCKED: ATOM     23  O   UNL d   1       4.275  22.042   0.703 -0.11 -0.04    -0.228 OA
DOCKED: BRANCH  22  24
DOCKED: ATOM     24  O   UNL d   1       4.957  19.745   1.706 -0.15 +0.02    -0.303 OA
DOCKED: ATOM     25  H   UNL d   1       4.066  19.558   2.097 +0.09 -0.04    +0.222 HD
DOCKED: ENDBRANCH  22  24
DOCKED: BRANCH  22  26
DOCKED: ATOM     26  O   UNL d   1       6.178  20.539  -0.303 -0.01 +0.00    -0.303 OA
DOCKED: ATOM     27  H   UNL d   1       6.236  19.677  -0.763 +0.04 -0.02    +0.222 HD
DOCKED: ENDBRANCH  22  26
DOCKED: ENDBRANCH  21  22
DOCKED: ENDBRANCH   6  21
DOCKED: BRANCH   3  28
DOCKED: ATOM     28  O   UNL d   1       2.787  14.351  -1.125 -0.13 +0.04    -0.278 OA
DOCKED: BRANCH  28  29
DOCKED: ATOM     29  P   UNL d   1       1.833  13.383  -1.957 -0.24 -0.06    +0.473 P 
DOCKED: ATOM     30  O   UNL d   1       0.555  13.984  -2.417 -0.32 +0.02    -0.228 OA
DOCKED: BRANCH  29  31
DOCKED: ATOM     31  O   UNL d   1       2.853  12.890  -3.088 -0.50 +0.02    -0.303 OA
DOCKED: ATOM     32  H   UNL d   1       3.415  13.653  -3.358 +0.11 -0.03    +0.222 HD
DOCKED: ENDBRANCH  29  31
DOCKED: BRANCH  29  33
DOCKED: ATOM     33  O   UNL d   1       1.729  12.115  -1.001 -0.35 +0.07    -0.303 OA
DOCKED: ATOM     34  H   UNL d   1       1.989  12.380  -0.085 -0.38 -0.11    +0.222 HD
DOCKED: ENDBRANCH  29  33
DOCKED: ENDBRANCH  28  29
DOCKED: ENDBRANCH   3  28
DOCKED: BRANCH   5  35
DOCKED: ATOM     35  O   UNL d   1       5.779  17.852  -1.638 -0.02 +0.05    -0.278 OA
DOCKED: BRANCH  35  36
DOCKED: ATOM     36  P   UNL d   1       6.683  17.199  -0.498 -0.08 -0.21    +0.473 P 
DOCKED: ATOM     37  O   UNL d   1       8.026  16.711  -0.940 -0.25 +0.09    -0.228 OA
DOCKED: BRANCH  36  38
DOCKED: ATOM     38  O   UNL d   1       6.734  18.364   0.586 -0.12 +0.15    -0.303 OA
DOCKED: ATOM     39  H   UNL d   1       5.820  18.672   0.771 +0.05 -0.08    +0.222 HD
DOCKED: ENDBRANCH  36  38
DOCKED: BRANCH  36  40
DOCKED: ATOM     40  O   UNL d   1       5.699  16.125   0.141 -0.15 +0.19    -0.303 OA
DOCKED: ATOM     41  H   UNL d   1       5.374  16.409   1.025 -0.33 -0.27    +0.222 HD
DOCKED: ENDBRANCH  36  40
DOCKED: ENDBRANCH  35  36
DOCKED: ENDBRANCH   5  35
DOCKED: BRANCH   4  42
DOCKED: ATOM     42  O   UNL d   1       4.267  15.835  -3.099 -0.03 +0.04    -0.278 OA
DOCKED: BRANCH  42  43
DOCKED: ATOM     43  P   UNL d   1       5.378  14.765  -3.502 -0.03 -0.06    +0.473 P 
DOCKED: ATOM     44  O   UNL d   1       6.757  15.269  -3.757 -0.08 +0.03    -0.228 OA
DOCKED: BRANCH  43  45
DOCKED: ATOM     45  O   UNL d   1       5.283  13.700  -2.324 -0.07 +0.03    -0.303 OA
DOCKED: ATOM     46  H   UNL d   1       4.411  13.734  -1.881 +0.10 -0.02    +0.222 HD
DOCKED: ENDBRANCH  43  45
DOCKED: BRANCH  43  47
DOCKED: ATOM     47  O   UNL d   1       4.697  13.969  -4.716 -0.07 +0.04    -0.303 OA
DOCKED: ATOM     48  H   UNL d   1       4.493  13.055  -4.428 +0.09 -0.03    +0.222 HD
DOCKED: ENDBRANCH  43  47
DOCKED: ENDBRANCH  42  43
DOCKED: ENDBRANCH   4  42
DOCKED: TORSDOF 24
DOCKED: TER
DOCKED: ENDMDL
________________________________________________________________________________


	BEGINNING GENETIC ALGORITHM DOCKING 90 of 100
Run: 90 Seed: 1717087419 1939056392 [ Run 90 of 100 GA/GALS ]
Beginning LAMARCKIAN GENETIC ALGORITHM (LGA), with a maximum of 25000000 energy evaluations.

Final-Value: -19.157


	FINAL GENETIC ALGORITHM DOCKED STATE
	_______________________________________________


Detailed state:  trans 26.435 18.480 -7.064 quatxyzw -0.118636 -0.291818 0.748711 -0.583267 center 0.035 0.082 -0.065 ntor 24 -154.3967 -49.7649 170.6423 3.0903 130.0636 127.5103 -50.3533 -6.7430 19.9866 107.6067 136.4688 -179.7720 78.4879 176.4725 177.7813 -4.5285 -58.7165 -143.9367 -28.5222 15.1149 4.4981 -4.2962 168.4868 1.1586
State:	 26.435  18.480  -7.064  -0.146 -0.359  0.922 -108.639   -154.40  -49.76  170.64    3.09  130.06  127.51  -50.35   -6.74   19.99  107.61  136.47 -179.77   78.49  176.47  177.78   -4.53  -58.72 -143.94  -28.52   15.11    4.50   -4.30  168.49    1.16

DOCKED: MODEL       90
DOCKED: USER    Run = 90
DOCKED: USER    DPF = D:/Protein_go_brrr/autodock/final/1A3N/IHP/dock.dpf
DOCKED: USER  
DOCKED: USER    Estimated Free Energy of Binding    =   +4.26 kcal/mol  [=(1)+(2)+(3)-(4)]
DOCKED: USER    
DOCKED: USER    (1) Final Intermolecular Energy     =   -2.90 kcal/mol
DOCKED: USER        vdW + Hbond + desolv Energy     =   -2.93 kcal/mol
DOCKED: USER        Electrostatic Energy            =   +0.03 kcal/mol
DOCKED: USER    (2) Final Total Internal Energy     =  -16.26 kcal/mol
DOCKED: USER    (3) Torsional Free Energy           =   +7.16 kcal/mol
DOCKED: USER    (4) Unbound System's Energy  [=(2)] =  -16.26 kcal/mol
DOCKED: USER    
DOCKED: USER    
DOCKED: USER    NEWDPF move IHP_ideal_opt.pdbqt
DOCKED: USER    NEWDPF about 0.035000 0.082000 -0.065000
DOCKED: USER    NEWDPF tran0 26.434847 18.480177 -7.064422
DOCKED: USER    NEWDPF quaternion0 -0.118636 -0.291818 0.748711 -0.583267
DOCKED: USER    NEWDPF axisangle0 -0.146053 -0.359258 0.921739 -108.638711
DOCKED: USER    NEWDPF quat0 -0.146053 -0.359258 0.921739 -108.638711
DOCKED: USER    NEWDPF dihe0 -154.40 -49.76 170.64 3.09 130.06 127.51 -50.35 -6.74 19.99 107.61 136.47 -179.77 78.49 176.47 177.78 -4.53 -58.72 -143.94 -28.52 15.11 4.50 -4.30 168.49 1.16 
DOCKED: USER  keepresnum = 1 
DOCKED: USER  
DOCKED: REMARK  24 active torsions:
DOCKED: REMARK  status: ('A' for Active; 'I' for Inactive)
DOCKED: REMARK    1  A    between atoms: C_1  and  O_7 
DOCKED: REMARK    2  A    between atoms: C_2  and  O_12 
DOCKED: REMARK    3  A    between atoms: C_3  and  O_17 
DOCKED: REMARK    4  A    between atoms: C_4  and  O_22 
DOCKED: REMARK    5  A    between atoms: C_5  and  O_27 
DOCKED: REMARK    6  A    between atoms: C_6  and  O_32 
DOCKED: REMARK    7  A    between atoms: O_7  and  P_8 
DOCKED: REMARK    8  A    between atoms: P_8  and  O_10 
DOCKED: REMARK    9  A    between atoms: P_8  and  O_11 
DOCKED: REMARK   10  A    between atoms: O_12  and  P_13 
DOCKED: REMARK   11  A    between atoms: P_13  and  O_15 
DOCKED: REMARK   12  A    between atoms: P_13  and  O_16 
DOCKED: REMARK   13  A    between atoms: O_17  and  P_18 
DOCKED: REMARK   14  A    between atoms: P_18  and  O_20 
DOCKED: REMARK   15  A    between atoms: P_18  and  O_21 
DOCKED: REMARK   16  A    between atoms: O_22  and  P_23 
DOCKED: REMARK   17  A    between atoms: P_23  and  O_25 
DOCKED: REMARK   18  A    between atoms: P_23  and  O_26 
DOCKED: REMARK   19  A    between atoms: O_27  and  P_28 
DOCKED: REMARK   20  A    between atoms: P_28  and  O_30 
DOCKED: REMARK   21  A    between atoms: P_28  and  O_31 
DOCKED: REMARK   22  A    between atoms: O_32  and  P_33 
DOCKED: REMARK   23  A    between atoms: P_33  and  O_35 
DOCKED: REMARK   24  A    between atoms: P_33  and  O_36 
DOCKED: USER                              x       y       z     vdW  Elec       q    Type
DOCKED: USER                           _______ _______ _______ _____ _____    ______ ____
DOCKED: ROOT
DOCKED: ATOM      1  C   UNL d   1      26.374  19.558  -5.716 -0.18 -0.00    +0.194 C 
DOCKED: ATOM      2  C   UNL d   1      27.575  18.611  -5.752 -0.14 +0.00    +0.194 C 
DOCKED: ATOM      3  C   UNL d   1      27.167  17.192  -6.151 -0.13 +0.02    +0.194 C 
DOCKED: ATOM      4  C   UNL d   1      26.352  17.141  -7.441 -0.08 +0.02    +0.194 C 
DOCKED: ATOM      5  C   UNL d   1      25.212  18.149  -7.496 +0.01 +0.03    +0.194 C 
DOCKED: ATOM      6  C   UNL d   1      25.606  19.555  -7.038 -0.09 +0.02    +0.194 C 
DOCKED: ENDROOT
DOCKED: BRANCH   1   7
DOCKED: ATOM      7  O   UNL d   1      26.859  20.886  -5.507 -0.10 +0.01    -0.278 OA
DOCKED: BRANCH   7   8
DOCKED: ATOM      8  P   UNL d   1      25.914  21.930  -4.752 -0.13 -0.04    +0.473 P 
DOCKED: ATOM      9  O   UNL d   1      26.556  22.664  -3.628 -0.23 +0.03    -0.228 OA
DOCKED: BRANCH   8  10
DOCKED: ATOM     10  O   UNL d   1      25.393  22.891  -5.914 -0.04 +0.00    -0.303 OA
DOCKED: ATOM     11  H   UNL d   1      25.079  22.354  -6.666 +0.05 +0.00    +0.222 HD
DOCKED: ENDBRANCH   8  10
DOCKED: BRANCH   8  12
DOCKED: ATOM     12  O   UNL d   1      24.603  21.110  -4.386 -0.52 -0.00    -0.303 OA
DOCKED: ATOM     13  H   UNL d   1      23.886  21.211  -5.052 +0.08 +0.04    +0.222 HD
DOCKED: ENDBRANCH   8  12
DOCKED: ENDBRANCH   7   8
DOCKED: ENDBRANCH   1   7
DOCKED: BRANCH   2  14
DOCKED: ATOM     14  O   UNL d   1      28.525  19.099  -6.708 -0.03 -0.00    -0.278 OA
DOCKED: BRANCH  14  15
DOCKED: ATOM     15  P   UNL d   1      30.070  18.842  -6.377 -0.04 -0.00    +0.473 P 
DOCKED: ATOM     16  O   UNL d   1      30.975  20.033  -6.427 -0.04 +0.01    -0.228 OA
DOCKED: BRANCH  15  17
DOCKED: ATOM     17  O   UNL d   1      30.049  18.141  -4.947 -0.05 +0.00    -0.303 OA
DOCKED: ATOM     18  H   UNL d   1      29.759  17.211  -5.015 +0.08 +0.02    +0.222 HD
DOCKED: ENDBRANCH  15  17
DOCKED: BRANCH  15  19
DOCKED: ATOM     19  O   UNL d   1      30.481  17.629  -7.321 -0.01 -0.00    -0.303 OA
DOCKED: ATOM     20  H   UNL d   1      29.914  16.850  -7.175 +0.04 +0.01    +0.222 HD
DOCKED: ENDBRANCH  15  19
DOCKED: ENDBRANCH  14  15
DOCKED: ENDBRANCH   2  14
DOCKED: BRANCH   6  21
DOCKED: ATOM     21  O   UNL d   1      24.393  20.272  -6.818 -0.07 -0.04    -0.278 OA
DOCKED: BRANCH  21  22
DOCKED: ATOM     22  P   UNL d   1      23.832  21.244  -7.952 -0.02 +0.03    +0.473 P 
DOCKED: ATOM     23  O   UNL d   1      23.000  22.409  -7.533 -0.06 -0.01    -0.228 OA
DOCKED: BRANCH  22  24
DOCKED: ATOM     24  O   UNL d   1      25.161  21.623  -8.742 -0.01 -0.01    -0.303 OA
DOCKED: ATOM     25  H   UNL d   1      25.523  20.796  -9.150 +0.02 +0.01    +0.222 HD
DOCKED: ENDBRANCH  22  24
DOCKED: BRANCH  22  26
DOCKED: ATOM     26  O   UNL d   1      23.134  20.207  -8.955 -0.00 -0.03    -0.303 OA
DOCKED: ATOM     27  H   UNL d   1      23.742  19.456  -9.116 +0.03 +0.02    +0.222 HD
DOCKED: ENDBRANCH  22  26
DOCKED: ENDBRANCH  21  22
DOCKED: ENDBRANCH   6  21
DOCKED: BRANCH   3  28
DOCKED: ATOM     28  O   UNL d   1      28.357  16.465  -6.427 -0.06 -0.02    -0.278 OA
DOCKED: BRANCH  28  29
DOCKED: ATOM     29  P   UNL d   1      28.885  15.367  -5.401 -0.14 +0.05    +0.473 P 
DOCKED: ATOM     30  O   UNL d   1      28.566  15.618  -3.972 -0.80 -0.06    -0.228 OA
DOCKED: BRANCH  29  31
DOCKED: ATOM     31  O   UNL d   1      28.266  14.047  -6.063 -0.13 -0.03    -0.303 OA
DOCKED: ATOM     32  H   UNL d   1      27.784  14.303  -6.882 +0.08 +0.03    +0.222 HD
DOCKED: ENDBRANCH  29  31
DOCKED: BRANCH  29  33
DOCKED: ATOM     33  O   UNL d   1      30.426  15.263  -5.787 -0.14 -0.00    -0.303 OA
DOCKED: ATOM     34  H   UNL d   1      30.821  16.170  -5.781 +0.08 +0.00    +0.222 HD
DOCKED: ENDBRANCH  29  33
DOCKED: ENDBRANCH  28  29
DOCKED: ENDBRANCH   3  28
DOCKED: BRANCH   5  35
DOCKED: ATOM     35  O   UNL d   1      24.844  18.243  -8.870 -0.05 -0.03    -0.278 OA
DOCKED: BRANCH  35  36
DOCKED: ATOM     36  P   UNL d   1      25.903  18.739  -9.955 -0.01 +0.04    +0.473 P 
DOCKED: ATOM     37  O   UNL d   1      27.130  19.393  -9.405 -0.01 -0.01    -0.228 OA
DOCKED: BRANCH  36  38
DOCKED: ATOM     38  O   UNL d   1      26.184  17.401 -10.771 -0.01 -0.03    -0.303 OA
DOCKED: ATOM     39  H   UNL d   1      26.390  16.677 -10.141 +0.02 +0.02    +0.222 HD
DOCKED: ENDBRANCH  36  38
DOCKED: BRANCH  36  40
DOCKED: ATOM     40  O   UNL d   1      25.002  19.605 -10.938 -0.01 -0.02    -0.303 OA
DOCKED: ATOM     41  H   UNL d   1      24.649  20.409 -10.496 +0.01 +0.01    +0.222 HD
DOCKED: ENDBRANCH  36  40
DOCKED: ENDBRANCH  35  36
DOCKED: ENDBRANCH   5  35
DOCKED: BRANCH   4  42
DOCKED: ATOM     42  O   UNL d   1      25.765  15.837  -7.509 -0.09 -0.04    -0.278 OA
DOCKED: BRANCH  42  43
DOCKED: ATOM     43  P   UNL d   1      26.296  14.808  -8.607 -0.03 +0.08    +0.473 P 
DOCKED: ATOM     44  O   UNL d   1      25.510  14.682  -9.866 -0.03 -0.04    -0.228 OA
DOCKED: BRANCH  43  45
DOCKED: ATOM     45  O   UNL d   1      27.802  15.275  -8.823 -0.01 -0.03    -0.303 OA
DOCKED: ATOM     46  H   UNL d   1      28.330  15.170  -8.006 +0.05 +0.02    +0.222 HD
DOCKED: ENDBRANCH  43  45
DOCKED: BRANCH  43  47
DOCKED: ATOM     47  O   UNL d   1      26.491  13.452  -7.774 -0.08 -0.06    -0.303 OA
DOCKED: ATOM     48  H   UNL d   1      26.253  13.612  -6.837 +0.08 +0.04    +0.222 HD
DOCKED: ENDBRANCH  43  47
DOCKED: ENDBRANCH  42  43
DOCKED: ENDBRANCH   4  42
DOCKED: TORSDOF 24
DOCKED: TER
DOCKED: ENDMDL
________________________________________________________________________________


	BEGINNING GENETIC ALGORITHM DOCKING 91 of 100
Run: 91 Seed: 1173038947 86499466 [ Run 91 of 100 GA/GALS ]
Beginning LAMARCKIAN GENETIC ALGORITHM (LGA), with a maximum of 25000000 energy evaluations.

Final-Value: -19.010


	FINAL GENETIC ALGORITHM DOCKED STATE
	_______________________________________________


Detailed state:  trans 17.332 28.393 19.861 quatxyzw 0.117533 -0.702299 -0.297940 -0.635763 center 0.035 0.082 -0.065 ntor 24 113.4565 109.4680 151.2799 -14.8838 106.6981 122.1356 -124.4312 -66.0137 94.8080 -31.7686 89.0172 -144.5700 -39.2201 169.0788 -134.8147 19.3236 -140.3494 110.4256 -161.6302 21.2127 -3.2589 12.7601 -7.1664 -0.7463
State:	 17.332  28.393  19.861   0.152 -0.910 -0.386 -101.047    113.46  109.47  151.28  -14.88  106.70  122.14 -124.43  -66.01   94.81  -31.77   89.02 -144.57  -39.22  169.08 -134.81   19.32 -140.35  110.43 -161.63   21.21   -3.26   12.76   -7.17   -0.75

DOCKED: MODEL       91
DOCKED: USER    Run = 91
DOCKED: USER    DPF = D:/Protein_go_brrr/autodock/final/1A3N/IHP/dock.dpf
DOCKED: USER  
DOCKED: USER    Estimated Free Energy of Binding    =   +3.93 kcal/mol  [=(1)+(2)+(3)-(4)]
DOCKED: USER    
DOCKED: USER    (1) Final Intermolecular Energy     =   -3.23 kcal/mol
DOCKED: USER        vdW + Hbond + desolv Energy     =   -2.94 kcal/mol
DOCKED: USER        Electrostatic Energy            =   -0.29 kcal/mol
DOCKED: USER    (2) Final Total Internal Energy     =  -15.78 kcal/mol
DOCKED: USER    (3) Torsional Free Energy           =   +7.16 kcal/mol
DOCKED: USER    (4) Unbound System's Energy  [=(2)] =  -15.78 kcal/mol
DOCKED: USER    
DOCKED: USER    
DOCKED: USER    NEWDPF move IHP_ideal_opt.pdbqt
DOCKED: USER    NEWDPF about 0.035000 0.082000 -0.065000
DOCKED: USER    NEWDPF tran0 17.331758 28.392512 19.861250
DOCKED: USER    NEWDPF quaternion0 0.117533 -0.702299 -0.297940 -0.635763
DOCKED: USER    NEWDPF axisangle0 0.152268 -0.909850 -0.385990 -101.046861
DOCKED: USER    NEWDPF quat0 0.152268 -0.909850 -0.385990 -101.046861
DOCKED: USER    NEWDPF dihe0 113.46 109.47 151.28 -14.88 106.70 122.14 -124.43 -66.01 94.81 -31.77 89.02 -144.57 -39.22 169.08 -134.81 19.32 -140.35 110.43 -161.63 21.21 -3.26 12.76 -7.17 -0.75 
DOCKED: USER  keepresnum = 1 
DOCKED: USER  
DOCKED: REMARK  24 active torsions:
DOCKED: REMARK  status: ('A' for Active; 'I' for Inactive)
DOCKED: REMARK    1  A    between atoms: C_1  and  O_7 
DOCKED: REMARK    2  A    between atoms: C_2  and  O_12 
DOCKED: REMARK    3  A    between atoms: C_3  and  O_17 
DOCKED: REMARK    4  A    between atoms: C_4  and  O_22 
DOCKED: REMARK    5  A    between atoms: C_5  and  O_27 
DOCKED: REMARK    6  A    between atoms: C_6  and  O_32 
DOCKED: REMARK    7  A    between atoms: O_7  and  P_8 
DOCKED: REMARK    8  A    between atoms: P_8  and  O_10 
DOCKED: REMARK    9  A    between atoms: P_8  and  O_11 
DOCKED: REMARK   10  A    between atoms: O_12  and  P_13 
DOCKED: REMARK   11  A    between atoms: P_13  and  O_15 
DOCKED: REMARK   12  A    between atoms: P_13  and  O_16 
DOCKED: REMARK   13  A    between atoms: O_17  and  P_18 
DOCKED: REMARK   14  A    between atoms: P_18  and  O_20 
DOCKED: REMARK   15  A    between atoms: P_18  and  O_21 
DOCKED: REMARK   16  A    between atoms: O_22  and  P_23 
DOCKED: REMARK   17  A    between atoms: P_23  and  O_25 
DOCKED: REMARK   18  A    between atoms: P_23  and  O_26 
DOCKED: REMARK   19  A    between atoms: O_27  and  P_28 
DOCKED: REMARK   20  A    between atoms: P_28  and  O_30 
DOCKED: REMARK   21  A    between atoms: P_28  and  O_31 
DOCKED: REMARK   22  A    between atoms: O_32  and  P_33 
DOCKED: REMARK   23  A    between atoms: P_33  and  O_35 
DOCKED: REMARK   24  A    between atoms: P_33  and  O_36 
DOCKED: USER                              x       y       z     vdW  Elec       q    Type
DOCKED: USER                           _______ _______ _______ _____ _____    ______ ____
DOCKED: ROOT
DOCKED: ATOM      1  C   UNL d   1      16.175  27.218  20.377 -0.19 +0.01    +0.194 C 
DOCKED: ATOM      2  C   UNL d   1      16.563  27.158  18.898 -0.16 +0.01    +0.194 C 
DOCKED: ATOM      3  C   UNL d   1      16.634  28.554  18.275 -0.10 -0.03    +0.194 C 
DOCKED: ATOM      4  C   UNL d   1      17.512  29.521  19.064 -0.04 -0.02    +0.194 C 
DOCKED: ATOM      5  C   UNL d   1      17.237  29.529  20.562 -0.08 -0.02    +0.194 C 
DOCKED: ATOM      6  C   UNL d   1      17.105  28.133  21.174 -0.14 +0.00    +0.194 C 
DOCKED: ENDROOT
DOCKED: BRANCH   1   7
DOCKED: ATOM      7  O   UNL d   1      16.299  25.903  20.924 -0.27 -0.07    -0.278 OA
DOCKED: BRANCH   7   8
DOCKED: ATOM      8  P   UNL d   1      17.763  25.346  21.237 -0.15 +0.23    +0.473 P 
DOCKED: ATOM      9  O   UNL d   1      18.848  26.365  21.196 -0.06 -0.06    -0.228 OA
DOCKED: BRANCH   8  10
DOCKED: ATOM     10  O   UNL d   1      17.613  24.646  22.663 -0.57 -0.44    -0.303 OA
DOCKED: ATOM     11  H   UNL d   1      17.096  25.221  23.257 -0.41 +0.15    +0.222 HD
DOCKED: ENDBRANCH   8  10
DOCKED: BRANCH   8  12
DOCKED: ATOM     12  O   UNL d   1      17.946  24.098  20.271 -0.16 -0.17    -0.303 OA
DOCKED: ATOM     13  H   UNL d   1      17.939  24.344  19.319 +0.08 +0.08    +0.222 HD
DOCKED: ENDBRANCH   8  12
DOCKED: ENDBRANCH   7   8
DOCKED: ENDBRANCH   1   7
DOCKED: BRANCH   2  14
DOCKED: ATOM     14  O   UNL d   1      17.849  26.539  18.778 -0.07 -0.03    -0.278 OA
DOCKED: BRANCH  14  15
DOCKED: ATOM     15  P   UNL d   1      18.152  25.780  17.401 -0.04 +0.07    +0.473 P 
DOCKED: ATOM     16  O   UNL d   1      18.797  24.434  17.503 -0.06 -0.05    -0.228 OA
DOCKED: BRANCH  15  17
DOCKED: ATOM     17  O   UNL d   1      16.740  25.735  16.665 -0.08 -0.04    -0.303 OA
DOCKED: ATOM     18  H   UNL d   1      16.364  26.631  16.571 +0.05 +0.01    +0.222 HD
DOCKED: ENDBRANCH  15  17
DOCKED: BRANCH  15  19
DOCKED: ATOM     19  O   UNL d   1      18.936  26.851  16.523 -0.01 -0.02    -0.303 OA
DOCKED: ATOM     20  H   UNL d   1      18.339  27.540  16.178 +0.02 +0.01    +0.222 HD
DOCKED: ENDBRANCH  15  19
DOCKED: ENDBRANCH  14  15
DOCKED: ENDBRANCH   2  14
DOCKED: BRANCH   6  21
DOCKED: ATOM     21  O   UNL d   1      16.521  28.302  22.464 -0.02 +0.04    -0.278 OA
DOCKED: BRANCH  21  22
DOCKED: ATOM     22  P   UNL d   1      17.425  28.147  23.769 -0.07 -0.02    +0.473 P 
DOCKED: ATOM     23  O   UNL d   1      17.288  26.901  24.577 -0.15 -0.03    -0.228 OA
DOCKED: BRANCH  22  24
DOCKED: ATOM     24  O   UNL d   1      18.883  28.410  23.188 -0.02 -0.01    -0.303 OA
DOCKED: ATOM     25  H   UNL d   1      18.826  29.155  22.538 +0.03 -0.00    +0.222 HD
DOCKED: ENDBRANCH  22  24
DOCKED: BRANCH  22  26
DOCKED: ATOM     26  O   UNL d   1      17.123  29.521  24.539 -0.06 +0.05    -0.303 OA
DOCKED: ATOM     27  H   UNL d   1      17.266  30.271  23.927 +0.01 -0.03    +0.222 HD
DOCKED: ENDBRANCH  22  26
DOCKED: ENDBRANCH  21  22
DOCKED: ENDBRANCH   6  21
DOCKED: BRANCH   3  28
DOCKED: ATOM     28  O   UNL d   1      17.261  28.424  17.005 -0.03 +0.02    -0.278 OA
DOCKED: BRANCH  28  29
DOCKED: ATOM     29  P   UNL d   1      16.522  28.929  15.688 -0.01 -0.08    +0.473 P 
DOCKED: ATOM     30  O   UNL d   1      15.119  29.381  15.873 -0.09 +0.11    -0.228 OA
DOCKED: BRANCH  29  31
DOCKED: ATOM     31  O   UNL d   1      17.575  30.022  15.179 -0.00 +0.03    -0.303 OA
DOCKED: ATOM     32  H   UNL d   1      17.524  30.807  15.771 +0.01 -0.03    +0.222 HD
DOCKED: ENDBRANCH  29  31
DOCKED: BRANCH  29  33
DOCKED: ATOM     33  O   UNL d   1      16.762  27.716  14.685 -0.02 +0.01    -0.303 OA
DOCKED: ATOM     34  H   UNL d   1      17.376  27.067  15.107 +0.03 +0.00    +0.222 HD
DOCKED: ENDBRANCH  29  33
DOCKED: ENDBRANCH  28  29
DOCKED: ENDBRANCH   3  28
DOCKED: BRANCH   5  35
DOCKED: ATOM     35  O   UNL d   1      18.375  30.144  21.161 -0.01 +0.01    -0.278 OA
DOCKED: BRANCH  35  36
DOCKED: ATOM     36  P   UNL d   1      18.200  31.432  22.087 -0.01 -0.03    +0.473 P 
DOCKED: ATOM     37  O   UNL d   1      18.406  32.748  21.407 -0.00 +0.01    -0.228 OA
DOCKED: BRANCH  36  38
DOCKED: ATOM     38  O   UNL d   1      16.733  31.217  22.668 -0.07 +0.05    -0.303 OA
DOCKED: ATOM     39  H   UNL d   1      16.517  30.260  22.651 -0.03 -0.05    +0.222 HD
DOCKED: ENDBRANCH  36  38
DOCKED: BRANCH  36  40
DOCKED: ATOM     40  O   UNL d   1      19.151  31.098  23.317 -0.00 +0.01    -0.303 OA
DOCKED: ATOM     41  H   UNL d   1      18.765  30.407  23.900 +0.02 -0.01    +0.222 HD
DOCKED: ENDBRANCH  36  40
DOCKED: ENDBRANCH  35  36
DOCKED: ENDBRANCH   5  35
DOCKED: BRANCH   4  42
DOCKED: ATOM     42  O   UNL d   1      17.223  30.836  18.576 -0.01 +0.04    -0.278 OA
DOCKED: BRANCH  42  43
DOCKED: ATOM     43  P   UNL d   1      18.347  31.620  17.759 +0.01 -0.04    +0.473 P 
DOCKED: ATOM     44  O   UNL d   1      17.896  32.688  16.823 +0.00 +0.02    -0.228 OA
DOCKED: BRANCH  43  45
DOCKED: ATOM     45  O   UNL d   1      19.322  32.130  18.908 -0.00 +0.01    -0.303 OA
DOCKED: ATOM     46  H   UNL d   1      19.164  31.656  19.748 +0.01 -0.01    +0.222 HD
DOCKED: ENDBRANCH  43  45
DOCKED: BRANCH  43  47
DOCKED: ATOM     47  O   UNL d   1      19.209  30.441  17.099 +0.00 +0.01    -0.303 OA
DOCKED: ATOM     48  H   UNL d   1      18.616  29.694  16.874 +0.01 -0.01    +0.222 HD
DOCKED: ENDBRANCH  43  47
DOCKED: ENDBRANCH  42  43
DOCKED: ENDBRANCH   4  42
DOCKED: TORSDOF 24
DOCKED: TER
DOCKED: ENDMDL
________________________________________________________________________________


	BEGINNING GENETIC ALGORITHM DOCKING 92 of 100
Run: 92 Seed: 643855083 44311757 [ Run 92 of 100 GA/GALS ]
Beginning LAMARCKIAN GENETIC ALGORITHM (LGA), with a maximum of 25000000 energy evaluations.

Final-Value: -17.630


	FINAL GENETIC ALGORITHM DOCKED STATE
	_______________________________________________


Detailed state:  trans -7.272 26.554 17.135 quatxyzw -0.680799 0.458318 -0.345586 0.455003 center 0.035 0.082 -0.065 ntor 24 -174.0313 -48.0188 79.1731 105.7731 33.7091 -121.7650 -27.2584 -5.9961 -5.6343 126.8651 85.1399 95.7410 -123.5288 110.8642 -13.1394 148.3052 -72.2271 51.5217 40.6308 -6.0729 -49.2984 25.3146 40.7447 -173.8833
State:	 -7.272  26.554  17.135  -0.765  0.515 -0.388 125.870   -174.03  -48.02   79.17  105.77   33.71 -121.76  -27.26   -6.00   -5.63  126.87   85.14   95.74 -123.53  110.86  -13.14  148.31  -72.23   51.52   40.63   -6.07  -49.30   25.31   40.74 -173.88

DOCKED: MODEL       92
DOCKED: USER    Run = 92
DOCKED: USER    DPF = D:/Protein_go_brrr/autodock/final/1A3N/IHP/dock.dpf
DOCKED: USER  
DOCKED: USER    Estimated Free Energy of Binding    =   +3.28 kcal/mol  [=(1)+(2)+(3)-(4)]
DOCKED: USER    
DOCKED: USER    (1) Final Intermolecular Energy     =   -3.88 kcal/mol
DOCKED: USER        vdW + Hbond + desolv Energy     =   -3.85 kcal/mol
DOCKED: USER        Electrostatic Energy            =   -0.03 kcal/mol
DOCKED: USER    (2) Final Total Internal Energy     =  -13.75 kcal/mol
DOCKED: USER    (3) Torsional Free Energy           =   +7.16 kcal/mol
DOCKED: USER    (4) Unbound System's Energy  [=(2)] =  -13.75 kcal/mol
DOCKED: USER    
DOCKED: USER    
DOCKED: USER    NEWDPF move IHP_ideal_opt.pdbqt
DOCKED: USER    NEWDPF about 0.035000 0.082000 -0.065000
DOCKED: USER    NEWDPF tran0 -7.272398 26.553750 17.134905
DOCKED: USER    NEWDPF quaternion0 -0.680799 0.458318 -0.345586 0.455003
DOCKED: USER    NEWDPF axisangle0 -0.764522 0.514681 -0.388086 125.869751
DOCKED: USER    NEWDPF quat0 -0.764522 0.514681 -0.388086 125.869751
DOCKED: USER    NEWDPF dihe0 -174.03 -48.02 79.17 105.77 33.71 -121.76 -27.26 -6.00 -5.63 126.87 85.14 95.74 -123.53 110.86 -13.14 148.31 -72.23 51.52 40.63 -6.07 -49.30 25.31 40.74 -173.88 
DOCKED: USER  keepresnum = 1 
DOCKED: USER  
DOCKED: REMARK  24 active torsions:
DOCKED: REMARK  status: ('A' for Active; 'I' for Inactive)
DOCKED: REMARK    1  A    between atoms: C_1  and  O_7 
DOCKED: REMARK    2  A    between atoms: C_2  and  O_12 
DOCKED: REMARK    3  A    between atoms: C_3  and  O_17 
DOCKED: REMARK    4  A    between atoms: C_4  and  O_22 
DOCKED: REMARK    5  A    between atoms: C_5  and  O_27 
DOCKED: REMARK    6  A    between atoms: C_6  and  O_32 
DOCKED: REMARK    7  A    between atoms: O_7  and  P_8 
DOCKED: REMARK    8  A    between atoms: P_8  and  O_10 
DOCKED: REMARK    9  A    between atoms: P_8  and  O_11 
DOCKED: REMARK   10  A    between atoms: O_12  and  P_13 
DOCKED: REMARK   11  A    between atoms: P_13  and  O_15 
DOCKED: REMARK   12  A    between atoms: P_13  and  O_16 
DOCKED: REMARK   13  A    between atoms: O_17  and  P_18 
DOCKED: REMARK   14  A    between atoms: P_18  and  O_20 
DOCKED: REMARK   15  A    between atoms: P_18  and  O_21 
DOCKED: REMARK   16  A    between atoms: O_22  and  P_23 
DOCKED: REMARK   17  A    between atoms: P_23  and  O_25 
DOCKED: REMARK   18  A    between atoms: P_23  and  O_26 
DOCKED: REMARK   19  A    between atoms: O_27  and  P_28 
DOCKED: REMARK   20  A    between atoms: P_28  and  O_30 
DOCKED: REMARK   21  A    between atoms: P_28  and  O_31 
DOCKED: REMARK   22  A    between atoms: O_32  and  P_33 
DOCKED: REMARK   23  A    between atoms: P_33  and  O_35 
DOCKED: REMARK   24  A    between atoms: P_33  and  O_36 
DOCKED: USER                              x       y       z     vdW  Elec       q    Type
DOCKED: USER                           _______ _______ _______ _____ _____    ______ ____
DOCKED: ROOT
DOCKED: ATOM      1  C   UNL d   1      -5.969  25.573  17.704 -0.19 +0.01    +0.194 C 
DOCKED: ATOM      2  C   UNL d   1      -5.660  26.438  16.481 -0.19 +0.03    +0.194 C 
DOCKED: ATOM      3  C   UNL d   1      -6.804  26.412  15.464 -0.18 +0.01    +0.194 C 
DOCKED: ATOM      4  C   UNL d   1      -8.162  26.744  16.078 -0.08 +0.01    +0.194 C 
DOCKED: ATOM      5  C   UNL d   1      -8.463  25.987  17.365 -0.10 +0.01    +0.194 C 
DOCKED: ATOM      6  C   UNL d   1      -7.297  25.961  18.356 -0.10 +0.01    +0.194 C 
DOCKED: ENDROOT
DOCKED: BRANCH   1   7
DOCKED: ATOM      7  O   UNL d   1      -4.940  25.786  18.673 -0.10 -0.02    -0.278 OA
DOCKED: BRANCH   7   8
DOCKED: ATOM      8  P   UNL d   1      -3.569  24.983  18.513 -0.19 +0.04    +0.473 P 
DOCKED: ATOM      9  O   UNL d   1      -3.650  23.528  18.818 -0.41 -0.01    -0.228 OA
DOCKED: BRANCH   8  10
DOCKED: ATOM     10  O   UNL d   1      -3.116  25.286  17.013 -0.18 -0.08    -0.303 OA
DOCKED: ATOM     11  H   UNL d   1      -3.463  26.154  16.736 +0.10 +0.07    +0.222 HD
DOCKED: ENDBRANCH   8  10
DOCKED: BRANCH   8  12
DOCKED: ATOM     12  O   UNL d   1      -2.505  25.810  19.355 -0.23 -0.02    -0.303 OA
DOCKED: ATOM     13  H   UNL d   1      -2.010  26.466  18.813 +0.11 +0.03    +0.222 HD
DOCKED: ENDBRANCH   8  12
DOCKED: ENDBRANCH   7   8
DOCKED: ENDBRANCH   1   7
DOCKED: BRANCH   2  14
DOCKED: ATOM     14  O   UNL d   1      -5.458  27.791  16.905 -0.05 -0.05    -0.278 OA
DOCKED: BRANCH  14  15
DOCKED: ATOM     15  P   UNL d   1      -4.081  28.481  16.466 -0.09 +0.19    +0.473 P 
DOCKED: ATOM     16  O   UNL d   1      -3.992  29.966  16.625 -0.04 -0.08    -0.228 OA
DOCKED: BRANCH  15  17
DOCKED: ATOM     17  O   UNL d   1      -2.972  27.703  17.305 -0.15 -0.11    -0.303 OA
DOCKED: ATOM     18  H   UNL d   1      -3.374  27.209  18.045 +0.09 +0.05    +0.222 HD
DOCKED: ENDBRANCH  15  17
DOCKED: BRANCH  15  19
DOCKED: ATOM     19  O   UNL d   1      -3.813  27.932  14.997 -0.04 -0.22    -0.303 OA
DOCKED: ATOM     20  H   UNL d   1      -4.615  27.975  14.444 +0.05 +0.11    +0.222 HD
DOCKED: ENDBRANCH  15  19
DOCKED: ENDBRANCH  14  15
DOCKED: ENDBRANCH   2  14
DOCKED: BRANCH   6  21
DOCKED: ATOM     21  O   UNL d   1      -7.599  24.956  19.321 -0.10 -0.01    -0.278 OA
DOCKED: BRANCH  21  22
DOCKED: ATOM     22  P   UNL d   1      -7.024  25.084  20.804 -0.07 -0.01    +0.473 P 
DOCKED: ATOM     23  O   UNL d   1      -6.519  26.414  21.252 -0.03 -0.00    -0.228 OA
DOCKED: BRANCH  22  24
DOCKED: ATOM     24  O   UNL d   1      -8.224  24.499  21.670 -0.11 +0.01    -0.303 OA
DOCKED: ATOM     25  H   UNL d   1      -9.073  24.722  21.210 +0.06 -0.01    +0.222 HD
DOCKED: ENDBRANCH  22  24
DOCKED: BRANCH  22  26
DOCKED: ATOM     26  O   UNL d   1      -5.966  23.879  20.848 -0.19 +0.02    -0.303 OA
DOCKED: ATOM     27  H   UNL d   1      -5.252  24.054  20.201 +0.13 -0.01    +0.222 HD
DOCKED: ENDBRANCH  22  26
DOCKED: ENDBRANCH  21  22
DOCKED: ENDBRANCH   6  21
DOCKED: BRANCH   3  28
DOCKED: ATOM     28  O   UNL d   1      -6.557  27.441  14.515 -0.09 -0.04    -0.278 OA
DOCKED: BRANCH  28  29
DOCKED: ATOM     29  P   UNL d   1      -6.752  27.164  12.959 -0.10 +0.07    +0.473 P 
DOCKED: ATOM     30  O   UNL d   1      -7.715  28.057  12.265 -0.03 -0.02    -0.228 OA
DOCKED: BRANCH  29  31
DOCKED: ATOM     31  O   UNL d   1      -5.229  27.220  12.472 -0.17 -0.09    -0.303 OA
DOCKED: ATOM     32  H   UNL d   1      -4.646  27.008  13.237 +0.09 +0.10    +0.222 HD
DOCKED: ENDBRANCH  29  31
DOCKED: BRANCH  29  33
DOCKED: ATOM     33  O   UNL d   1      -7.071  25.604  12.935 -0.21 -0.02    -0.303 OA
DOCKED: ATOM     34  H   UNL d   1      -7.819  25.420  13.554 +0.08 +0.01    +0.222 HD
DOCKED: ENDBRANCH  29  33
DOCKED: ENDBRANCH  28  29
DOCKED: ENDBRANCH   3  28
DOCKED: BRANCH   5  35
DOCKED: ATOM     35  O   UNL d   1      -9.530  26.697  17.991 -0.04 -0.00    -0.278 OA
DOCKED: BRANCH  35  36
DOCKED: ATOM     36  P   UNL d   1     -10.262  26.086  19.270 -0.04 -0.01    +0.473 P 
DOCKED: ATOM     37  O   UNL d   1     -10.258  24.593  19.363 -0.11 +0.03    -0.228 OA
DOCKED: BRANCH  36  38
DOCKED: ATOM     38  O   UNL d   1      -9.501  26.817  20.462 -0.01 +0.00    -0.303 OA
DOCKED: ATOM     39  H   UNL d   1      -8.616  26.410  20.577 +0.03 -0.00    +0.222 HD
DOCKED: ENDBRANCH  36  38
DOCKED: BRANCH  36  40
DOCKED: ATOM     40  O   UNL d   1     -11.681  26.803  19.224 -0.01 +0.00    -0.303 OA
DOCKED: ATOM     41  H   UNL d   1     -12.311  26.326  18.639 +0.02 -0.00    +0.222 HD
DOCKED: ENDBRANCH  36  40
DOCKED: ENDBRANCH  35  36
DOCKED: ENDBRANCH   5  35
DOCKED: BRANCH   4  42
DOCKED: ATOM     42  O   UNL d   1      -9.154  26.360  15.121 -0.05 -0.01    -0.278 OA
DOCKED: BRANCH  42  43
DOCKED: ATOM     43  P   UNL d   1      -9.483  24.810  14.931 -0.17 -0.01    +0.473 P 
DOCKED: ATOM     44  O   UNL d   1     -10.662  24.263  15.658 -0.18 +0.00    -0.228 OA
DOCKED: BRANCH  43  45
DOCKED: ATOM     45  O   UNL d   1      -9.569  24.664  13.348 -0.14 +0.00    -0.303 OA
DOCKED: ATOM     46  H   UNL d   1      -9.226  25.460  12.896 +0.06 +0.00    +0.222 HD
DOCKED: ENDBRANCH  43  45
DOCKED: BRANCH  43  47
DOCKED: ATOM     47  O   UNL d   1      -8.082  24.098  15.247 -0.19 +0.03    -0.303 OA
DOCKED: ATOM     48  H   UNL d   1      -7.537  24.082  14.434 -0.31 -0.05    +0.222 HD
DOCKED: ENDBRANCH  43  47
DOCKED: ENDBRANCH  42  43
DOCKED: ENDBRANCH   4  42
DOCKED: TORSDOF 24
DOCKED: TER
DOCKED: ENDMDL
________________________________________________________________________________


	BEGINNING GENETIC ALGORITHM DOCKING 93 of 100
Run: 93 Seed: 9587200 717602431 [ Run 93 of 100 GA/GALS ]
Beginning LAMARCKIAN GENETIC ALGORITHM (LGA), with a maximum of 25000000 energy evaluations.

Final-Value: -18.336


	FINAL GENETIC ALGORITHM DOCKED STATE
	_______________________________________________


Detailed state:  trans 6.271 14.758 -7.979 quatxyzw 0.725028 0.551683 -0.410473 -0.038625 center 0.035 0.082 -0.065 ntor 24 144.0343 71.0436 157.8655 112.1052 9.6256 151.6766 -26.5113 -163.3110 79.5803 -61.1137 77.7895 -95.1591 -28.2087 91.8596 174.4493 151.8748 -123.1967 -41.0090 -1.1947 -31.9231 -22.4617 -42.3052 -1.4922 -20.1485
State:	  6.271  14.758  -7.979   0.726  0.552 -0.411 -175.573    144.03   71.04  157.87  112.11    9.63  151.68  -26.51 -163.31   79.58  -61.11   77.79  -95.16  -28.21   91.86  174.45  151.87 -123.20  -41.01   -1.19  -31.92  -22.46  -42.31   -1.49  -20.15

DOCKED: MODEL       93
DOCKED: USER    Run = 93
DOCKED: USER    DPF = D:/Protein_go_brrr/autodock/final/1A3N/IHP/dock.dpf
DOCKED: USER  
DOCKED: USER    Estimated Free Energy of Binding    =   +2.60 kcal/mol  [=(1)+(2)+(3)-(4)]
DOCKED: USER    
DOCKED: USER    (1) Final Intermolecular Energy     =   -4.56 kcal/mol
DOCKED: USER        vdW + Hbond + desolv Energy     =   -4.31 kcal/mol
DOCKED: USER        Electrostatic Energy            =   -0.24 kcal/mol
DOCKED: USER    (2) Final Total Internal Energy     =  -13.78 kcal/mol
DOCKED: USER    (3) Torsional Free Energy           =   +7.16 kcal/mol
DOCKED: USER    (4) Unbound System's Energy  [=(2)] =  -13.78 kcal/mol
DOCKED: USER    
DOCKED: USER    
DOCKED: USER    NEWDPF move IHP_ideal_opt.pdbqt
DOCKED: USER    NEWDPF about 0.035000 0.082000 -0.065000
DOCKED: USER    NEWDPF tran0 6.271026 14.758360 -7.978850
DOCKED: USER    NEWDPF quaternion0 0.725028 0.551683 -0.410473 -0.038625
DOCKED: USER    NEWDPF axisangle0 0.725569 0.552095 -0.410780 -175.572829
DOCKED: USER    NEWDPF quat0 0.725569 0.552095 -0.410780 -175.572829
DOCKED: USER    NEWDPF dihe0 144.03 71.04 157.87 112.11 9.63 151.68 -26.51 -163.31 79.58 -61.11 77.79 -95.16 -28.21 91.86 174.45 151.87 -123.20 -41.01 -1.19 -31.92 -22.46 -42.31 -1.49 -20.15 
DOCKED: USER  keepresnum = 1 
DOCKED: USER  
DOCKED: REMARK  24 active torsions:
DOCKED: REMARK  status: ('A' for Active; 'I' for Inactive)
DOCKED: REMARK    1  A    between atoms: C_1  and  O_7 
DOCKED: REMARK    2  A    between atoms: C_2  and  O_12 
DOCKED: REMARK    3  A    between atoms: C_3  and  O_17 
DOCKED: REMARK    4  A    between atoms: C_4  and  O_22 
DOCKED: REMARK    5  A    between atoms: C_5  and  O_27 
DOCKED: REMARK    6  A    between atoms: C_6  and  O_32 
DOCKED: REMARK    7  A    between atoms: O_7  and  P_8 
DOCKED: REMARK    8  A    between atoms: P_8  and  O_10 
DOCKED: REMARK    9  A    between atoms: P_8  and  O_11 
DOCKED: REMARK   10  A    between atoms: O_12  and  P_13 
DOCKED: REMARK   11  A    between atoms: P_13  and  O_15 
DOCKED: REMARK   12  A    between atoms: P_13  and  O_16 
DOCKED: REMARK   13  A    between atoms: O_17  and  P_18 
DOCKED: REMARK   14  A    between atoms: P_18  and  O_20 
DOCKED: REMARK   15  A    between atoms: P_18  and  O_21 
DOCKED: REMARK   16  A    between atoms: O_22  and  P_23 
DOCKED: REMARK   17  A    between atoms: P_23  and  O_25 
DOCKED: REMARK   18  A    between atoms: P_23  and  O_26 
DOCKED: REMARK   19  A    between atoms: O_27  and  P_28 
DOCKED: REMARK   20  A    between atoms: P_28  and  O_30 
DOCKED: REMARK   21  A    between atoms: P_28  and  O_31 
DOCKED: REMARK   22  A    between atoms: O_32  and  P_33 
DOCKED: REMARK   23  A    between atoms: P_33  and  O_35 
DOCKED: REMARK   24  A    between atoms: P_33  and  O_36 
DOCKED: USER                              x       y       z     vdW  Elec       q    Type
DOCKED: USER                           _______ _______ _______ _____ _____    ______ ____
DOCKED: ROOT
DOCKED: ATOM      1  C   UNL d   1       5.163  15.663  -8.948 -0.02 -0.01    +0.194 C 
DOCKED: ATOM      2  C   UNL d   1       4.631  15.204  -7.589 -0.06 -0.02    +0.194 C 
DOCKED: ATOM      3  C   UNL d   1       5.027  13.758  -7.284 -0.08 -0.02    +0.194 C 
DOCKED: ATOM      4  C   UNL d   1       6.524  13.500  -7.434 -0.05 -0.01    +0.194 C 
DOCKED: ATOM      5  C   UNL d   1       7.121  14.044  -8.726 -0.03 -0.00    +0.194 C 
DOCKED: ATOM      6  C   UNL d   1       6.676  15.469  -9.063 -0.02 -0.00    +0.194 C 
DOCKED: ENDROOT
DOCKED: BRANCH   1   7
DOCKED: ATOM      7  O   UNL d   1       4.903  17.063  -9.080 -0.01 +0.01    -0.278 OA
DOCKED: BRANCH   7   8
DOCKED: ATOM      8  P   UNL d   1       4.061  17.562 -10.342 -0.00 -0.03    +0.473 P 
DOCKED: ATOM      9  O   UNL d   1       3.180  16.534 -10.960 -0.04 +0.02    -0.228 OA
DOCKED: BRANCH   8  10
DOCKED: ATOM     10  O   UNL d   1       3.261  18.830  -9.797 -0.01 +0.02    -0.303 OA
DOCKED: ATOM     11  H   UNL d   1       3.303  18.849  -8.822 +0.02 -0.02    +0.222 HD
DOCKED: ENDBRANCH   8  10
DOCKED: BRANCH   8  12
DOCKED: ATOM     12  O   UNL d   1       5.128  18.234 -11.310 -0.00 +0.01    -0.303 OA
DOCKED: ATOM     13  H   UNL d   1       6.037  17.878 -11.188 +0.00 -0.00    +0.222 HD
DOCKED: ENDBRANCH   8  12
DOCKED: ENDBRANCH   7   8
DOCKED: ENDBRANCH   1   7
DOCKED: BRANCH   2  14
DOCKED: ATOM     14  O   UNL d   1       5.170  16.051  -6.566 -0.02 +0.03    -0.278 OA
DOCKED: BRANCH  14  15
DOCKED: ATOM     15  P   UNL d   1       4.217  17.219  -6.027 -0.02 -0.05    +0.473 P 
DOCKED: ATOM     16  O   UNL d   1       4.366  17.597  -4.587 -0.02 +0.02    -0.228 OA
DOCKED: BRANCH  15  17
DOCKED: ATOM     17  O   UNL d   1       4.497  18.435  -7.017 -0.01 +0.02    -0.303 OA
DOCKED: ATOM     18  H   UNL d   1       4.249  18.207  -7.933 +0.02 -0.02    +0.222 HD
DOCKED: ENDBRANCH  15  17
DOCKED: BRANCH  15  19
DOCKED: ATOM     19  O   UNL d   1       2.755  16.775  -6.472 -0.09 +0.08    -0.303 OA
DOCKED: ATOM     20  H   UNL d   1       2.552  15.866  -6.185 -0.23 -0.09    +0.222 HD
DOCKED: ENDBRANCH  15  19
DOCKED: ENDBRANCH  14  15
DOCKED: ENDBRANCH   2  14
DOCKED: BRANCH   6  21
DOCKED: ATOM     21  O   UNL d   1       7.025  15.699 -10.426 -0.01 -0.00    -0.278 OA
DOCKED: BRANCH  21  22
DOCKED: ATOM     22  P   UNL d   1       7.935  16.951 -10.810 +0.00 +0.02    +0.473 P 
DOCKED: ATOM     23  O   UNL d   1       7.835  17.497 -12.194 -0.00 -0.01    -0.228 OA
DOCKED: BRANCH  22  24
DOCKED: ATOM     24  O   UNL d   1       7.569  17.985  -9.657 -0.00 -0.00    -0.303 OA
DOCKED: ATOM     25  H   UNL d   1       6.588  18.126  -9.669 +0.01 -0.00    +0.222 HD
DOCKED: ENDBRANCH  22  24
DOCKED: BRANCH  22  26
DOCKED: ATOM     26  O   UNL d   1       9.388  16.449 -10.355 -0.02 -0.03    -0.303 OA
DOCKED: ATOM     27  H   UNL d   1       9.289  15.745  -9.683 +0.04 +0.02    +0.222 HD
DOCKED: ENDBRANCH  22  26
DOCKED: ENDBRANCH  21  22
DOCKED: ENDBRANCH   6  21
DOCKED: BRANCH   3  28
DOCKED: ATOM     28  O   UNL d   1       4.738  13.515  -5.914 -0.09 +0.04    -0.278 OA
DOCKED: BRANCH  28  29
DOCKED: ATOM     29  P   UNL d   1       3.229  13.464  -5.406 -0.19 -0.12    +0.473 P 
DOCKED: ATOM     30  O   UNL d   1       2.842  12.235  -4.667 -0.64 +0.02    -0.228 OA
DOCKED: BRANCH  29  31
DOCKED: ATOM     31  O   UNL d   1       3.157  14.847  -4.604 -0.10 +0.06    -0.303 OA
DOCKED: ATOM     32  H   UNL d   1       3.833  15.461  -4.976 +0.05 -0.04    +0.222 HD
DOCKED: ENDBRANCH  29  31
DOCKED: BRANCH  29  33
DOCKED: ATOM     33  O   UNL d   1       2.418  13.788  -6.738 -0.04 +0.11    -0.303 OA
DOCKED: ATOM     34  H   UNL d   1       2.092  14.720  -6.697 -0.35 -0.11    +0.222 HD
DOCKED: ENDBRANCH  29  33
DOCKED: ENDBRANCH  28  29
DOCKED: ENDBRANCH   3  28
DOCKED: BRANCH   5  35
DOCKED: ATOM     35  O   UNL d   1       8.531  14.084  -8.514 -0.10 -0.01    -0.278 OA
DOCKED: BRANCH  35  36
DOCKED: ATOM     36  P   UNL d   1       9.523  13.426  -9.576 -0.12 +0.07    +0.473 P 
DOCKED: ATOM     37  O   UNL d   1       9.654  11.938  -9.501 -0.16 -0.02    -0.228 OA
DOCKED: BRANCH  36  38
DOCKED: ATOM     38  O   UNL d   1       8.928  13.961 -10.953 -0.03 -0.04    -0.303 OA
DOCKED: ATOM     39  H   UNL d   1       8.247  14.642 -10.765 +0.03 +0.02    +0.222 HD
DOCKED: ENDBRANCH  36  38
DOCKED: BRANCH  36  40
DOCKED: ATOM     40  O   UNL d   1      10.850  14.279  -9.375 -0.20 -0.10    -0.303 OA
DOCKED: ATOM     41  H   UNL d   1      10.968  14.943 -10.090 +0.06 +0.08    +0.222 HD
DOCKED: ENDBRANCH  36  40
DOCKED: ENDBRANCH  35  36
DOCKED: ENDBRANCH   5  35
DOCKED: BRANCH   4  42
DOCKED: ATOM     42  O   UNL d   1       6.700  12.080  -7.455 -0.08 +0.00    -0.278 OA
DOCKED: BRANCH  42  43
DOCKED: ATOM     43  P   UNL d   1       7.809  11.426  -6.512 -0.18 +0.08    +0.473 P 
DOCKED: ATOM     44  O   UNL d   1       8.533  12.330  -5.575 -0.29 -0.00    -0.228 OA
DOCKED: BRANCH  43  45
DOCKED: ATOM     45  O   UNL d   1       7.009  10.252  -5.795 -0.59 -0.08    -0.303 OA
DOCKED: ATOM     46  H   UNL d   1       6.100  10.171  -6.147 -0.07 -0.02    +0.222 HD
DOCKED: ENDBRANCH  43  45
DOCKED: BRANCH  43  47
DOCKED: ATOM     47  O   UNL d   1       8.731  10.613  -7.540 -0.15 -0.13    -0.303 OA
DOCKED: ATOM     48  H   UNL d   1       9.390  11.221  -7.933 -0.46 +0.01    +0.222 HD
DOCKED: ENDBRANCH  43  47
DOCKED: ENDBRANCH  42  43
DOCKED: ENDBRANCH   4  42
DOCKED: TORSDOF 24
DOCKED: TER
DOCKED: ENDMDL
________________________________________________________________________________


	BEGINNING GENETIC ALGORITHM DOCKING 94 of 100
Run: 94 Seed: 70017278 534723494 [ Run 94 of 100 GA/GALS ]
Beginning LAMARCKIAN GENETIC ALGORITHM (LGA), with a maximum of 25000000 energy evaluations.

Final-Value: -16.833


	FINAL GENETIC ALGORITHM DOCKED STATE
	_______________________________________________


Detailed state:  trans 6.130 -17.433 26.156 quatxyzw -0.172712 0.398408 -0.870154 -0.232967 center 0.035 0.082 -0.065 ntor 24 87.1697 -58.7739 74.0170 81.4742 71.0580 177.9229 71.3506 41.5556 -5.8646 94.8470 -103.6448 -168.2705 153.8187 -62.9427 175.0799 73.3066 -83.9143 153.8559 -144.2707 -11.3397 34.3830 149.8122 -177.1675 -164.6394
State:	  6.130 -17.433  26.156  -0.178  0.410 -0.895 -153.056     87.17  -58.77   74.02   81.47   71.06  177.92   71.35   41.56   -5.86   94.85 -103.64 -168.27  153.82  -62.94  175.08   73.31  -83.91  153.86 -144.27  -11.34   34.38  149.81 -177.17 -164.64

DOCKED: MODEL       94
DOCKED: USER    Run = 94
DOCKED: USER    DPF = D:/Protein_go_brrr/autodock/final/1A3N/IHP/dock.dpf
DOCKED: USER  
DOCKED: USER    Estimated Free Energy of Binding    =   +3.43 kcal/mol  [=(1)+(2)+(3)-(4)]
DOCKED: USER    
DOCKED: USER    (1) Final Intermolecular Energy     =   -3.73 kcal/mol
DOCKED: USER        vdW + Hbond + desolv Energy     =   -3.64 kcal/mol
DOCKED: USER        Electrostatic Energy            =   -0.08 kcal/mol
DOCKED: USER    (2) Final Total Internal Energy     =  -13.10 kcal/mol
DOCKED: USER    (3) Torsional Free Energy           =   +7.16 kcal/mol
DOCKED: USER    (4) Unbound System's Energy  [=(2)] =  -13.10 kcal/mol
DOCKED: USER    
DOCKED: USER    
DOCKED: USER    NEWDPF move IHP_ideal_opt.pdbqt
DOCKED: USER    NEWDPF about 0.035000 0.082000 -0.065000
DOCKED: USER    NEWDPF tran0 6.130163 -17.432829 26.156447
DOCKED: USER    NEWDPF quaternion0 -0.172712 0.398408 -0.870154 -0.232967
DOCKED: USER    NEWDPF axisangle0 -0.177599 0.409680 -0.894774 -153.056413
DOCKED: USER    NEWDPF quat0 -0.177599 0.409680 -0.894774 -153.056413
DOCKED: USER    NEWDPF dihe0 87.17 -58.77 74.02 81.47 71.06 177.92 71.35 41.56 -5.86 94.85 -103.64 -168.27 153.82 -62.94 175.08 73.31 -83.91 153.86 -144.27 -11.34 34.38 149.81 -177.17 -164.64 
DOCKED: USER  keepresnum = 1 
DOCKED: USER  
DOCKED: REMARK  24 active torsions:
DOCKED: REMARK  status: ('A' for Active; 'I' for Inactive)
DOCKED: REMARK    1  A    between atoms: C_1  and  O_7 
DOCKED: REMARK    2  A    between atoms: C_2  and  O_12 
DOCKED: REMARK    3  A    between atoms: C_3  and  O_17 
DOCKED: REMARK    4  A    between atoms: C_4  and  O_22 
DOCKED: REMARK    5  A    between atoms: C_5  and  O_27 
DOCKED: REMARK    6  A    between atoms: C_6  and  O_32 
DOCKED: REMARK    7  A    between atoms: O_7  and  P_8 
DOCKED: REMARK    8  A    between atoms: P_8  and  O_10 
DOCKED: REMARK    9  A    between atoms: P_8  and  O_11 
DOCKED: REMARK   10  A    between atoms: O_12  and  P_13 
DOCKED: REMARK   11  A    between atoms: P_13  and  O_15 
DOCKED: REMARK   12  A    between atoms: P_13  and  O_16 
DOCKED: REMARK   13  A    between atoms: O_17  and  P_18 
DOCKED: REMARK   14  A    between atoms: P_18  and  O_20 
DOCKED: REMARK   15  A    between atoms: P_18  and  O_21 
DOCKED: REMARK   16  A    between atoms: O_22  and  P_23 
DOCKED: REMARK   17  A    between atoms: P_23  and  O_25 
DOCKED: REMARK   18  A    between atoms: P_23  and  O_26 
DOCKED: REMARK   19  A    between atoms: O_27  and  P_28 
DOCKED: REMARK   20  A    between atoms: P_28  and  O_30 
DOCKED: REMARK   21  A    between atoms: P_28  and  O_31 
DOCKED: REMARK   22  A    between atoms: O_32  and  P_33 
DOCKED: REMARK   23  A    between atoms: P_33  and  O_35 
DOCKED: REMARK   24  A    between atoms: P_33  and  O_36 
DOCKED: USER                              x       y       z     vdW  Elec       q    Type
DOCKED: USER                           _______ _______ _______ _____ _____    ______ ____
DOCKED: ROOT
DOCKED: ATOM      1  C   UNL d   1       5.235 -18.088  27.480 -0.02 +0.04    +0.194 C 
DOCKED: ATOM      2  C   UNL d   1       5.878 -16.723  27.729 -0.05 +0.07    +0.194 C 
DOCKED: ATOM      3  C   UNL d   1       7.306 -16.661  27.183 -0.09 +0.15    +0.194 C 
DOCKED: ATOM      4  C   UNL d   1       7.409 -17.091  25.721 -0.12 +0.08    +0.194 C 
DOCKED: ATOM      5  C   UNL d   1       6.683 -18.391  25.403 -0.04 +0.05    +0.194 C 
DOCKED: ATOM      6  C   UNL d   1       5.278 -18.478  26.002 -0.03 +0.03    +0.194 C 
DOCKED: ENDROOT
DOCKED: BRANCH   1   7
DOCKED: ATOM      7  O   UNL d   1       3.859 -18.009  27.860 -0.01 -0.03    -0.278 OA
DOCKED: BRANCH   7   8
DOCKED: ATOM      8  P   UNL d   1       2.781 -17.645  26.738 -0.04 +0.03    +0.473 P 
DOCKED: ATOM      9  O   UNL d   1       1.533 -17.011  27.244 -0.06 -0.00    -0.228 OA
DOCKED: BRANCH   8  10
DOCKED: ATOM     10  O   UNL d   1       3.585 -16.722  25.715 -0.09 -0.02    -0.303 OA
DOCKED: ATOM     11  H   UNL d   1       3.766 -15.857  26.129 +0.05 +0.02    +0.222 HD
DOCKED: ENDBRANCH   8  10
DOCKED: BRANCH   8  12
DOCKED: ATOM     12  O   UNL d   1       2.590 -18.982  25.900 -0.08 -0.02    -0.303 OA
DOCKED: ATOM     13  H   UNL d   1       3.045 -18.958  25.028 +0.03 +0.01    +0.222 HD
DOCKED: ENDBRANCH   8  12
DOCKED: ENDBRANCH   7   8
DOCKED: ENDBRANCH   1   7
DOCKED: BRANCH   2  14
DOCKED: ATOM     14  O   UNL d   1       5.096 -15.713  27.079 -0.03 -0.06    -0.278 OA
DOCKED: BRANCH  14  15
DOCKED: ATOM     15  P   UNL d   1       4.482 -14.569  28.017 +0.01 +0.06    +0.473 P 
DOCKED: ATOM     16  O   UNL d   1       4.636 -14.756  29.493 -0.03 -0.02    -0.228 OA
DOCKED: BRANCH  15  17
DOCKED: ATOM     17  O   UNL d   1       5.164 -13.229  27.490 -0.07 -0.03    -0.303 OA
DOCKED: ATOM     18  H   UNL d   1       5.993 -13.421  27.011 +0.09 +0.03    +0.222 HD
DOCKED: ENDBRANCH  15  17
DOCKED: BRANCH  15  19
DOCKED: ATOM     19  O   UNL d   1       2.988 -14.392  27.500 -0.02 -0.02    -0.303 OA
DOCKED: ATOM     20  H   UNL d   1       2.676 -15.183  27.022 +0.04 +0.01    +0.222 HD
DOCKED: ENDBRANCH  15  19
DOCKED: ENDBRANCH  14  15
DOCKED: ENDBRANCH   2  14
DOCKED: BRANCH   6  21
DOCKED: ATOM     21  O   UNL d   1       4.877 -19.844  25.918 -0.01 -0.03    -0.278 OA
DOCKED: BRANCH  21  22
DOCKED: ATOM     22  P   UNL d   1       4.602 -20.502  24.491 -0.03 +0.05    +0.473 P 
DOCKED: ATOM     23  O   UNL d   1       3.675 -21.668  24.420 -0.02 -0.01    -0.228 OA
DOCKED: BRANCH  22  24
DOCKED: ATOM     24  O   UNL d   1       4.153 -19.239  23.632 -0.13 -0.03    -0.303 OA
DOCKED: ATOM     25  H   UNL d   1       4.253 -18.431  24.196 +0.03 +0.02    +0.222 HD
DOCKED: ENDBRANCH  22  24
DOCKED: BRANCH  22  26
DOCKED: ATOM     26  O   UNL d   1       6.092 -20.753  23.955 -0.01 -0.04    -0.303 OA
DOCKED: ATOM     27  H   UNL d   1       6.731 -20.502  24.653 +0.02 +0.04    +0.222 HD
DOCKED: ENDBRANCH  22  26
DOCKED: ENDBRANCH  21  22
DOCKED: ENDBRANCH   6  21
DOCKED: BRANCH   3  28
DOCKED: ATOM     28  O   UNL d   1       7.715 -15.300  27.206 -0.70 -0.31    -0.278 OA
DOCKED: BRANCH  28  29
DOCKED: ATOM     29  P   UNL d   1       7.662 -14.421  25.879 -0.21 +0.16    +0.473 P 
DOCKED: ATOM     30  O   UNL d   1       6.398 -14.509  25.103 -0.10 -0.05    -0.228 OA
DOCKED: BRANCH  29  31
DOCKED: ATOM     31  O   UNL d   1       8.049 -12.988  26.477 -0.34 -0.02    -0.303 OA
DOCKED: ATOM     32  H   UNL d   1       8.843 -12.653  26.001 -0.47 -0.05    +0.222 HD
DOCKED: ENDBRANCH  29  31
DOCKED: BRANCH  29  33
DOCKED: ATOM     33  O   UNL d   1       8.997 -14.863  25.132 -0.25 -0.07    -0.303 OA
DOCKED: ATOM     34  H   UNL d   1       8.769 -15.515  24.425 +0.06 +0.06    +0.222 HD
DOCKED: ENDBRANCH  29  33
DOCKED: ENDBRANCH  28  29
DOCKED: ENDBRANCH   3  28
DOCKED: BRANCH   5  35
DOCKED: ATOM     35  O   UNL d   1       6.537 -18.416  23.985 -0.04 -0.06    -0.278 OA
DOCKED: BRANCH  35  36
DOCKED: ATOM     36  P   UNL d   1       6.018 -17.125  23.206 -0.10 +0.11    +0.473 P 
DOCKED: ATOM     37  O   UNL d   1       4.923 -16.361  23.882 -0.17 -0.03    -0.228 OA
DOCKED: BRANCH  36  38
DOCKED: ATOM     38  O   UNL d   1       7.365 -16.299  23.008 -0.12 -0.10    -0.303 OA
DOCKED: ATOM     39  H   UNL d   1       7.612 -15.878  23.860 +0.08 +0.06    +0.222 HD
DOCKED: ENDBRANCH  36  38
DOCKED: BRANCH  36  40
DOCKED: ATOM     40  O   UNL d   1       5.707 -17.703  21.758 -0.12 -0.09    -0.303 OA
DOCKED: ATOM     41  H   UNL d   1       5.110 -18.483  21.797 +0.04 +0.05    +0.222 HD
DOCKED: ENDBRANCH  36  40
DOCKED: ENDBRANCH  35  36
DOCKED: ENDBRANCH   5  35
DOCKED: BRANCH   4  42
DOCKED: ATOM     42  O   UNL d   1       8.798 -17.307  25.450 -0.18 -0.14    -0.278 OA
DOCKED: BRANCH  42  43
DOCKED: ATOM     43  P   UNL d   1       9.445 -18.718  25.817 -0.07 +0.21    +0.473 P 
DOCKED: ATOM     44  O   UNL d   1      10.927 -18.780  25.950 -0.18 -0.10    -0.228 OA
DOCKED: BRANCH  43  45
DOCKED: ATOM     45  O   UNL d   1       8.655 -19.133  27.134 -0.07 -0.14    -0.303 OA
DOCKED: ATOM     46  H   UNL d   1       8.992 -19.973  27.505 +0.03 +0.07    +0.222 HD
DOCKED: ENDBRANCH  43  45
DOCKED: BRANCH  43  47
DOCKED: ATOM     47  O   UNL d   1       8.807 -19.707  24.729 -0.04 -0.08    -0.303 OA
DOCKED: ATOM     48  H   UNL d   1       8.345 -19.180  24.044 +0.05 +0.07    +0.222 HD
DOCKED: ENDBRANCH  43  47
DOCKED: ENDBRANCH  42  43
DOCKED: ENDBRANCH   4  42
DOCKED: TORSDOF 24
DOCKED: TER
DOCKED: ENDMDL
________________________________________________________________________________


	BEGINNING GENETIC ALGORITHM DOCKING 95 of 100
Run: 95 Seed: 1509472163 486616649 [ Run 95 of 100 GA/GALS ]
Beginning LAMARCKIAN GENETIC ALGORITHM (LGA), with a maximum of 25000000 energy evaluations.

Final-Value: -16.540


	FINAL GENETIC ALGORITHM DOCKED STATE
	_______________________________________________


Detailed state:  trans 21.446 9.765 -13.346 quatxyzw -0.600052 -0.171465 -0.115032 -0.772855 center 0.035 0.082 -0.065 ntor 24 -122.8997 -26.6235 152.7734 4.4273 46.0322 172.5694 -87.9231 39.9684 -5.8289 -5.9488 107.8742 131.9178 76.6142 176.9734 163.3027 166.6164 -154.4639 99.3582 -18.3995 21.1301 -10.8977 32.8112 167.6647 -9.9195
State:	 21.446   9.765 -13.346  -0.946 -0.270 -0.181 -78.778   -122.90  -26.62  152.77    4.43   46.03  172.57  -87.92   39.97   -5.83   -5.95  107.87  131.92   76.61  176.97  163.30  166.62 -154.46   99.36  -18.40   21.13  -10.90   32.81  167.66   -9.92

DOCKED: MODEL       95
DOCKED: USER    Run = 95
DOCKED: USER    DPF = D:/Protein_go_brrr/autodock/final/1A3N/IHP/dock.dpf
DOCKED: USER  
DOCKED: USER    Estimated Free Energy of Binding    =   +4.57 kcal/mol  [=(1)+(2)+(3)-(4)]
DOCKED: USER    
DOCKED: USER    (1) Final Intermolecular Energy     =   -2.59 kcal/mol
DOCKED: USER        vdW + Hbond + desolv Energy     =   -2.26 kcal/mol
DOCKED: USER        Electrostatic Energy            =   -0.32 kcal/mol
DOCKED: USER    (2) Final Total Internal Energy     =  -13.95 kcal/mol
DOCKED: USER    (3) Torsional Free Energy           =   +7.16 kcal/mol
DOCKED: USER    (4) Unbound System's Energy  [=(2)] =  -13.95 kcal/mol
DOCKED: USER    
DOCKED: USER    
DOCKED: USER    NEWDPF move IHP_ideal_opt.pdbqt
DOCKED: USER    NEWDPF about 0.035000 0.082000 -0.065000
DOCKED: USER    NEWDPF tran0 21.446017 9.764644 -13.346276
DOCKED: USER    NEWDPF quaternion0 -0.600052 -0.171465 -0.115032 -0.772855
DOCKED: USER    NEWDPF axisangle0 -0.945586 -0.270201 -0.181272 -78.778038
DOCKED: USER    NEWDPF quat0 -0.945586 -0.270201 -0.181272 -78.778038
DOCKED: USER    NEWDPF dihe0 -122.90 -26.62 152.77 4.43 46.03 172.57 -87.92 39.97 -5.83 -5.95 107.87 131.92 76.61 176.97 163.30 166.62 -154.46 99.36 -18.40 21.13 -10.90 32.81 167.66 -9.92 
DOCKED: USER  keepresnum = 1 
DOCKED: USER  
DOCKED: REMARK  24 active torsions:
DOCKED: REMARK  status: ('A' for Active; 'I' for Inactive)
DOCKED: REMARK    1  A    between atoms: C_1  and  O_7 
DOCKED: REMARK    2  A    between atoms: C_2  and  O_12 
DOCKED: REMARK    3  A    between atoms: C_3  and  O_17 
DOCKED: REMARK    4  A    between atoms: C_4  and  O_22 
DOCKED: REMARK    5  A    between atoms: C_5  and  O_27 
DOCKED: REMARK    6  A    between atoms: C_6  and  O_32 
DOCKED: REMARK    7  A    between atoms: O_7  and  P_8 
DOCKED: REMARK    8  A    between atoms: P_8  and  O_10 
DOCKED: REMARK    9  A    between atoms: P_8  and  O_11 
DOCKED: REMARK   10  A    between atoms: O_12  and  P_13 
DOCKED: REMARK   11  A    between atoms: P_13  and  O_15 
DOCKED: REMARK   12  A    between atoms: P_13  and  O_16 
DOCKED: REMARK   13  A    between atoms: O_17  and  P_18 
DOCKED: REMARK   14  A    between atoms: P_18  and  O_20 
DOCKED: REMARK   15  A    between atoms: P_18  and  O_21 
DOCKED: REMARK   16  A    between atoms: O_22  and  P_23 
DOCKED: REMARK   17  A    between atoms: P_23  and  O_25 
DOCKED: REMARK   18  A    between atoms: P_23  and  O_26 
DOCKED: REMARK   19  A    between atoms: O_27  and  P_28 
DOCKED: REMARK   20  A    between atoms: P_28  and  O_30 
DOCKED: REMARK   21  A    between atoms: P_28  and  O_31 
DOCKED: REMARK   22  A    between atoms: O_32  and  P_33 
DOCKED: REMARK   23  A    between atoms: P_33  and  O_35 
DOCKED: REMARK   24  A    between atoms: P_33  and  O_36 
DOCKED: USER                              x       y       z     vdW  Elec       q    Type
DOCKED: USER                           _______ _______ _______ _____ _____    ______ ____
DOCKED: ROOT
DOCKED: ATOM      1  C   UNL d   1      22.151  10.340 -11.878 -0.07 +0.08    +0.194 C 
DOCKED: ATOM      2  C   UNL d   1      20.748   9.744 -11.748 -0.10 +0.08    +0.194 C 
DOCKED: ATOM      3  C   UNL d   1      19.829  10.209 -12.880 -0.06 +0.08    +0.194 C 
DOCKED: ATOM      4  C   UNL d   1      20.424   9.987 -14.268 -0.01 +0.06    +0.194 C 
DOCKED: ATOM      5  C   UNL d   1      21.864  10.463 -14.409 +0.00 +0.06    +0.194 C 
DOCKED: ATOM      6  C   UNL d   1      22.769  10.050 -13.246 -0.01 +0.08    +0.194 C 
DOCKED: ENDROOT
DOCKED: BRANCH   1   7
DOCKED: ATOM      7  O   UNL d   1      22.988   9.727 -10.894 -0.07 -0.16    -0.278 OA
DOCKED: BRANCH   7   8
DOCKED: ATOM      8  P   UNL d   1      24.060  10.637 -10.136 -0.10 +0.29    +0.473 P 
DOCKED: ATOM      9  O   UNL d   1      24.020  10.556  -8.651 -0.14 -0.11    -0.228 OA
DOCKED: BRANCH   8  10
DOCKED: ATOM     10  O   UNL d   1      25.459  10.181 -10.753 -0.37 -0.40    -0.303 OA
DOCKED: ATOM     11  H   UNL d   1      25.586  10.603 -11.623 +0.02 +0.22    +0.222 HD
DOCKED: ENDBRANCH   8  10
DOCKED: BRANCH   8  12
DOCKED: ATOM     12  O   UNL d   1      23.881  12.089 -10.756 -0.05 -0.12    -0.303 OA
DOCKED: ATOM     13  H   UNL d   1      24.217  12.158 -11.679 +0.02 +0.08    +0.222 HD
DOCKED: ENDBRANCH   8  12
DOCKED: ENDBRANCH   7   8
DOCKED: ENDBRANCH   1   7
DOCKED: BRANCH   2  14
DOCKED: ATOM     14  O   UNL d   1      20.841   8.315 -11.794 -0.05 -0.10    -0.278 OA
DOCKED: BRANCH  14  15
DOCKED: ATOM     15  P   UNL d   1      19.691   7.498 -11.036 -0.07 +0.16    +0.473 P 
DOCKED: ATOM     16  O   UNL d   1      20.139   6.464 -10.051 -0.09 -0.07    -0.228 OA
DOCKED: BRANCH  15  17
DOCKED: ATOM     17  O   UNL d   1      18.785   8.629 -10.374 -0.13 -0.13    -0.303 OA
DOCKED: ATOM     18  H   UNL d   1      18.449   9.250 -11.049 +0.07 +0.12    +0.222 HD
DOCKED: ENDBRANCH  15  17
DOCKED: BRANCH  15  19
DOCKED: ATOM     19  O   UNL d   1      18.745   6.971 -12.201 -0.04 -0.09    -0.303 OA
DOCKED: ATOM     20  H   UNL d   1      18.426   7.700 -12.764 +0.04 +0.07    +0.222 HD
DOCKED: ENDBRANCH  15  19
DOCKED: ENDBRANCH  14  15
DOCKED: ENDBRANCH   2  14
DOCKED: BRANCH   6  21
DOCKED: ATOM     21  O   UNL d   1      23.953  10.838 -13.345 -0.01 -0.12    -0.278 OA
DOCKED: BRANCH  21  22
DOCKED: ATOM     22  P   UNL d   1      25.345  10.137 -13.687 -0.03 +0.31    +0.473 P 
DOCKED: ATOM     23  O   UNL d   1      26.598  10.922 -13.485 -0.06 -0.13    -0.228 OA
DOCKED: BRANCH  22  24
DOCKED: ATOM     24  O   UNL d   1      25.252   8.797 -12.835 -0.28 -0.45    -0.303 OA
DOCKED: ATOM     25  H   UNL d   1      24.573   8.929 -12.126 +0.01 +0.30    +0.222 HD
DOCKED: ENDBRANCH  22  24
DOCKED: BRANCH  22  26
DOCKED: ATOM     26  O   UNL d   1      25.083   9.602 -15.176 -0.00 -0.12    -0.303 OA
DOCKED: ATOM     27  H   UNL d   1      24.167   9.824 -15.441 +0.01 +0.07    +0.222 HD
DOCKED: ENDBRANCH  22  26
DOCKED: ENDBRANCH  21  22
DOCKED: ENDBRANCH   6  21
DOCKED: BRANCH   3  28
DOCKED: ATOM     28  O   UNL d   1      18.658   9.403 -12.839 -0.06 -0.13    -0.278 OA
DOCKED: BRANCH  28  29
DOCKED: ATOM     29  P   UNL d   1      17.235  10.035 -13.175 -0.09 +0.41    +0.473 P 
DOCKED: ATOM     30  O   UNL d   1      16.322   9.171 -13.967 -0.07 -0.13    -0.228 OA
DOCKED: BRANCH  29  31
DOCKED: ATOM     31  O   UNL d   1      16.755  10.442 -11.703 -0.52 -0.46    -0.303 OA
DOCKED: ATOM     32  H   UNL d   1      17.069   9.756 -11.070 +0.07 +0.20    +0.222 HD
DOCKED: ENDBRANCH  29  31
DOCKED: BRANCH  29  33
DOCKED: ATOM     33  O   UNL d   1      17.634  11.437 -13.814 -0.09 -0.31    -0.303 OA
DOCKED: ATOM     34  H   UNL d   1      17.597  11.363 -14.799 +0.02 +0.15    +0.222 HD
DOCKED: ENDBRANCH  29  33
DOCKED: ENDBRANCH  28  29
DOCKED: ENDBRANCH   3  28
DOCKED: BRANCH   5  35
DOCKED: ATOM     35  O   UNL d   1      22.370   9.826 -15.581 +0.00 -0.07    -0.278 OA
DOCKED: BRANCH  35  36
DOCKED: ATOM     36  P   UNL d   1      22.455   8.235 -15.658 +0.01 +0.12    +0.473 P 
DOCKED: ATOM     37  O   UNL d   1      23.836   7.661 -15.634 +0.00 -0.07    -0.228 OA
DOCKED: BRANCH  36  38
DOCKED: ATOM     38  O   UNL d   1      21.543   7.799 -14.428 +0.00 -0.09    -0.303 OA
DOCKED: ATOM     39  H   UNL d   1      22.041   7.941 -13.594 +0.02 +0.08    +0.222 HD
DOCKED: ENDBRANCH  36  38
DOCKED: BRANCH  36  40
DOCKED: ATOM     40  O   UNL d   1      21.560   7.909 -16.932 +0.00 -0.05    -0.303 OA
DOCKED: ATOM     41  H   UNL d   1      20.701   8.387 -16.906 +0.00 +0.04    +0.222 HD
DOCKED: ENDBRANCH  36  40
DOCKED: ENDBRANCH  35  36
DOCKED: ENDBRANCH   5  35
DOCKED: BRANCH   4  42
DOCKED: ATOM     42  O   UNL d   1      19.636  10.754 -15.185 -0.00 -0.09    -0.278 OA
DOCKED: BRANCH  42  43
DOCKED: ATOM     43  P   UNL d   1      18.899  10.003 -16.384 +0.01 +0.12    +0.473 P 
DOCKED: ATOM     44  O   UNL d   1      17.569  10.523 -16.805 +0.00 -0.07    -0.228 OA
DOCKED: BRANCH  43  45
DOCKED: ATOM     45  O   UNL d   1      19.999  10.020 -17.534 +0.00 -0.05    -0.303 OA
DOCKED: ATOM     46  H   UNL d   1      20.902   9.932 -17.168 +0.00 +0.04    +0.222 HD
DOCKED: ENDBRANCH  43  45
DOCKED: BRANCH  43  47
DOCKED: ATOM     47  O   UNL d   1      18.929   8.467 -15.928 +0.00 -0.07    -0.303 OA
DOCKED: ATOM     48  H   UNL d   1      19.839   8.230 -15.652 +0.00 +0.05    +0.222 HD
DOCKED: ENDBRANCH  43  47
DOCKED: ENDBRANCH  42  43
DOCKED: ENDBRANCH   4  42
DOCKED: TORSDOF 24
DOCKED: TER
DOCKED: ENDMDL
________________________________________________________________________________


	BEGINNING GENETIC ALGORITHM DOCKING 96 of 100
Run: 96 Seed: 1735016484 2062459493 [ Run 96 of 100 GA/GALS ]
Beginning LAMARCKIAN GENETIC ALGORITHM (LGA), with a maximum of 25000000 energy evaluations.

Final-Value: -16.119


	FINAL GENETIC ALGORITHM DOCKED STATE
	_______________________________________________


Detailed state:  trans -11.765 17.739 30.897 quatxyzw 0.100228 -0.004736 0.393178 -0.913971 center 0.035 0.082 -0.065 ntor 24 -110.6545 16.6610 16.6279 29.2226 174.3568 140.0598 21.0632 -173.0481 33.6661 76.0732 167.5129 -179.8864 54.3888 -179.8429 -169.8857 -46.3394 -9.1555 102.1360 37.3982 -7.3812 -178.6281 145.4061 151.6554 -49.9243
State:	-11.765  17.739  30.897   0.247 -0.012  0.969 -47.880   -110.65   16.66   16.63   29.22  174.36  140.06   21.06 -173.05   33.67   76.07  167.51 -179.89   54.39 -179.84 -169.89  -46.34   -9.16  102.14   37.40   -7.38 -178.63  145.41  151.66  -49.92

DOCKED: MODEL       96
DOCKED: USER    Run = 96
DOCKED: USER    DPF = D:/Protein_go_brrr/autodock/final/1A3N/IHP/dock.dpf
DOCKED: USER  
DOCKED: USER    Estimated Free Energy of Binding    =   +3.72 kcal/mol  [=(1)+(2)+(3)-(4)]
DOCKED: USER    
DOCKED: USER    (1) Final Intermolecular Energy     =   -3.44 kcal/mol
DOCKED: USER        vdW + Hbond + desolv Energy     =   -3.31 kcal/mol
DOCKED: USER        Electrostatic Energy            =   -0.13 kcal/mol
DOCKED: USER    (2) Final Total Internal Energy     =  -12.68 kcal/mol
DOCKED: USER    (3) Torsional Free Energy           =   +7.16 kcal/mol
DOCKED: USER    (4) Unbound System's Energy  [=(2)] =  -12.68 kcal/mol
DOCKED: USER    
DOCKED: USER    
DOCKED: USER    NEWDPF move IHP_ideal_opt.pdbqt
DOCKED: USER    NEWDPF about 0.035000 0.082000 -0.065000
DOCKED: USER    NEWDPF tran0 -11.765141 17.738985 30.896501
DOCKED: USER    NEWDPF quaternion0 0.100228 -0.004736 0.393178 -0.913971
DOCKED: USER    NEWDPF axisangle0 0.247002 -0.011671 0.968945 -47.880010
DOCKED: USER    NEWDPF quat0 0.247002 -0.011671 0.968945 -47.880010
DOCKED: USER    NEWDPF dihe0 -110.65 16.66 16.63 29.22 174.36 140.06 21.06 -173.05 33.67 76.07 167.51 -179.89 54.39 -179.84 -169.89 -46.34 -9.16 102.14 37.40 -7.38 -178.63 145.41 151.66 -49.92 
DOCKED: USER  keepresnum = 1 
DOCKED: USER  
DOCKED: REMARK  24 active torsions:
DOCKED: REMARK  status: ('A' for Active; 'I' for Inactive)
DOCKED: REMARK    1  A    between atoms: C_1  and  O_7 
DOCKED: REMARK    2  A    between atoms: C_2  and  O_12 
DOCKED: REMARK    3  A    between atoms: C_3  and  O_17 
DOCKED: REMARK    4  A    between atoms: C_4  and  O_22 
DOCKED: REMARK    5  A    between atoms: C_5  and  O_27 
DOCKED: REMARK    6  A    between atoms: C_6  and  O_32 
DOCKED: REMARK    7  A    between atoms: O_7  and  P_8 
DOCKED: REMARK    8  A    between atoms: P_8  and  O_10 
DOCKED: REMARK    9  A    between atoms: P_8  and  O_11 
DOCKED: REMARK   10  A    between atoms: O_12  and  P_13 
DOCKED: REMARK   11  A    between atoms: P_13  and  O_15 
DOCKED: REMARK   12  A    between atoms: P_13  and  O_16 
DOCKED: REMARK   13  A    between atoms: O_17  and  P_18 
DOCKED: REMARK   14  A    between atoms: P_18  and  O_20 
DOCKED: REMARK   15  A    between atoms: P_18  and  O_21 
DOCKED: REMARK   16  A    between atoms: O_22  and  P_23 
DOCKED: REMARK   17  A    between atoms: P_23  and  O_25 
DOCKED: REMARK   18  A    between atoms: P_23  and  O_26 
DOCKED: REMARK   19  A    between atoms: O_27  and  P_28 
DOCKED: REMARK   20  A    between atoms: P_28  and  O_30 
DOCKED: REMARK   21  A    between atoms: P_28  and  O_31 
DOCKED: REMARK   22  A    between atoms: O_32  and  P_33 
DOCKED: REMARK   23  A    between atoms: P_33  and  O_35 
DOCKED: REMARK   24  A    between atoms: P_33  and  O_36 
DOCKED: USER                              x       y       z     vdW  Elec       q    Type
DOCKED: USER                           _______ _______ _______ _____ _____    ______ ____
DOCKED: ROOT
DOCKED: ATOM      1  C   UNL d   1     -10.205  17.895  31.622 -0.04 +0.03    +0.194 C 
DOCKED: ATOM      2  C   UNL d   1     -10.514  16.529  31.007 -0.06 +0.02    +0.194 C 
DOCKED: ATOM      3  C   UNL d   1     -11.933  16.065  31.342 -0.02 +0.01    +0.194 C 
DOCKED: ATOM      4  C   UNL d   1     -13.001  17.104  31.008 -0.02 -0.00    +0.194 C 
DOCKED: ATOM      5  C   UNL d   1     -12.678  18.507  31.503 -0.02 +0.01    +0.194 C 
DOCKED: ATOM      6  C   UNL d   1     -11.240  18.948  31.222 -0.04 +0.01    +0.194 C 
DOCKED: ENDROOT
DOCKED: BRANCH   1   7
DOCKED: ATOM      7  O   UNL d   1      -8.938  18.332  31.124 -0.06 -0.05    -0.278 OA
DOCKED: BRANCH   7   8
DOCKED: ATOM      8  P   UNL d   1      -7.616  17.835  31.870 -0.04 +0.31    +0.473 P 
DOCKED: ATOM      9  O   UNL d   1      -6.835  16.796  31.146 -0.11 -0.18    -0.228 OA
DOCKED: BRANCH   8  10
DOCKED: ATOM     10  O   UNL d   1      -6.791  19.175  32.128 -0.08 -0.12    -0.303 OA
DOCKED: ATOM     11  H   UNL d   1      -7.024  19.540  33.002 +0.03 +0.09    +0.222 HD
DOCKED: ENDBRANCH   8  10
DOCKED: BRANCH   8  12
DOCKED: ATOM     12  O   UNL d   1      -8.091  17.449  33.337 -0.53 -0.37    -0.303 OA
DOCKED: ATOM     13  H   UNL d   1      -8.874  17.964  33.637 +0.02 +0.15    +0.222 HD
DOCKED: ENDBRANCH   8  12
DOCKED: ENDBRANCH   7   8
DOCKED: ENDBRANCH   1   7
DOCKED: BRANCH   2  14
DOCKED: ATOM     14  O   UNL d   1     -10.388  16.619  29.582 -0.14 +0.04    -0.278 OA
DOCKED: BRANCH  14  15
DOCKED: ATOM     15  P   UNL d   1      -9.378  15.590  28.886 -0.24 -0.05    +0.473 P 
DOCKED: ATOM     16  O   UNL d   1      -8.295  16.180  28.038 -0.79 +0.00    -0.228 OA
DOCKED: BRANCH  15  17
DOCKED: ATOM     17  O   UNL d   1      -8.811  14.725  30.098 -0.20 -0.06    -0.303 OA
DOCKED: ATOM     18  H   UNL d   1      -8.113  15.210  30.580 +0.10 +0.10    +0.222 HD
DOCKED: ENDBRANCH  15  17
DOCKED: BRANCH  15  19
DOCKED: ATOM     19  O   UNL d   1     -10.323  14.537  28.158 -0.26 +0.19    -0.303 OA
DOCKED: ATOM     20  H   UNL d   1     -11.168  14.424  28.630 +0.01 -0.16    +0.222 HD
DOCKED: ENDBRANCH  15  19
DOCKED: ENDBRANCH  14  15
DOCKED: ENDBRANCH   2  14
DOCKED: BRANCH   6  21
DOCKED: ATOM     21  O   UNL d   1     -10.997  20.099  32.027 -0.01 -0.02    -0.278 OA
DOCKED: BRANCH  21  22
DOCKED: ATOM     22  P   UNL d   1     -10.666  19.927  33.578 +0.01 +0.07    +0.473 P 
DOCKED: ATOM     23  O   UNL d   1     -11.270  20.893  34.539 +0.00 -0.02    -0.228 OA
DOCKED: BRANCH  22  24
DOCKED: ATOM     24  O   UNL d   1     -11.058  18.404  33.826 +0.00 -0.06    -0.303 OA
DOCKED: ATOM     25  H   UNL d   1     -10.222  17.887  33.952 +0.01 +0.08    +0.222 HD
DOCKED: ENDBRANCH  22  24
DOCKED: BRANCH  22  26
DOCKED: ATOM     26  O   UNL d   1      -9.064  19.858  33.563 -0.01 -0.08    -0.303 OA
DOCKED: ATOM     27  H   UNL d   1      -8.769  19.408  32.745 +0.02 +0.06    +0.222 HD
DOCKED: ENDBRANCH  22  26
DOCKED: ENDBRANCH  21  22
DOCKED: ENDBRANCH   6  21
DOCKED: BRANCH   3  28
DOCKED: ATOM     28  O   UNL d   1     -12.224  14.945  30.516 -0.03 +0.03    -0.278 OA
DOCKED: BRANCH  28  29
DOCKED: ATOM     29  P   UNL d   1     -13.178  15.105  29.250 -0.07 -0.15    +0.473 P 
DOCKED: ATOM     30  O   UNL d   1     -14.620  15.291  29.555 -0.03 +0.04    -0.228 OA
DOCKED: BRANCH  29  31
DOCKED: ATOM     31  O   UNL d   1     -12.436  16.303  28.491 -0.18 +0.10    -0.303 OA
DOCKED: ATOM     32  H   UNL d   1     -11.604  15.955  28.095 +0.08 -0.10    +0.222 HD
DOCKED: ENDBRANCH  29  31
DOCKED: BRANCH  29  33
DOCKED: ATOM     33  O   UNL d   1     -12.786  13.836  28.373 -0.10 +0.32    -0.303 OA
DOCKED: ATOM     34  H   UNL d   1     -12.357  14.143  27.537 -0.33 -0.34    +0.222 HD
DOCKED: ENDBRANCH  29  33
DOCKED: ENDBRANCH  28  29
DOCKED: ENDBRANCH   3  28
DOCKED: BRANCH   5  35
DOCKED: ATOM     35  O   UNL d   1     -13.535  19.382  30.773 -0.02 -0.00    -0.278 OA
DOCKED: BRANCH  35  36
DOCKED: ATOM     36  P   UNL d   1     -13.194  19.769  29.264 -0.02 -0.00    +0.473 P 
DOCKED: ATOM     37  O   UNL d   1     -12.562  18.686  28.448 -0.14 +0.02    -0.228 OA
DOCKED: BRANCH  36  38
DOCKED: ATOM     38  O   UNL d   1     -14.611  20.253  28.723 -0.03 -0.00    -0.303 OA
DOCKED: ATOM     39  H   UNL d   1     -15.315  19.699  29.125 +0.02 -0.00    +0.222 HD
DOCKED: ENDBRANCH  36  38
DOCKED: BRANCH  36  40
DOCKED: ATOM     40  O   UNL d   1     -12.369  21.117  29.437 -0.05 -0.01    -0.303 OA
DOCKED: ATOM     41  H   UNL d   1     -11.821  21.107  30.253 +0.02 +0.01    +0.222 HD
DOCKED: ENDBRANCH  36  40
DOCKED: ENDBRANCH  35  36
DOCKED: ENDBRANCH   5  35
DOCKED: BRANCH   4  42
DOCKED: ATOM     42  O   UNL d   1     -14.203  16.690  31.667 -0.00 +0.00    -0.278 OA
DOCKED: BRANCH  42  43
DOCKED: ATOM     43  P   UNL d   1     -15.598  17.282  31.169 +0.00 -0.01    +0.473 P 
DOCKED: ATOM     44  O   UNL d   1     -16.796  16.404  31.284 -0.00 +0.00    -0.228 OA
DOCKED: BRANCH  43  45
DOCKED: ATOM     45  O   UNL d   1     -15.709  18.645  31.983 -0.00 -0.00    -0.303 OA
DOCKED: ATOM     46  H   UNL d   1     -15.371  19.401  31.462 +0.01 +0.00    +0.222 HD
DOCKED: ENDBRANCH  43  45
DOCKED: BRANCH  43  47
DOCKED: ATOM     47  O   UNL d   1     -15.266  17.810  29.693 -0.01 +0.01    -0.303 OA
DOCKED: ATOM     48  H   UNL d   1     -14.320  17.649  29.497 +0.04 -0.01    +0.222 HD
DOCKED: ENDBRANCH  43  47
DOCKED: ENDBRANCH  42  43
DOCKED: ENDBRANCH   4  42
DOCKED: TORSDOF 24
DOCKED: TER
DOCKED: ENDMDL
________________________________________________________________________________


	BEGINNING GENETIC ALGORITHM DOCKING 97 of 100
Run: 97 Seed: 818533659 2143510193 [ Run 97 of 100 GA/GALS ]
Beginning LAMARCKIAN GENETIC ALGORITHM (LGA), with a maximum of 25000000 energy evaluations.

Final-Value: -17.871


	FINAL GENETIC ALGORITHM DOCKED STATE
	_______________________________________________


Detailed state:  trans 15.825 -23.406 17.206 quatxyzw 0.941803 0.039637 -0.279311 0.182815 center 0.035 0.082 -0.065 ntor 24 -153.4426 61.8131 138.2167 18.4229 -176.7597 130.9112 -23.6203 0.8013 -180.0000 112.1769 149.6903 127.4469 -16.0193 -171.1491 60.1094 13.9591 -7.5462 -163.3711 8.4166 -2.3260 -27.5529 -20.6065 159.9325 22.2448
State:	 15.825 -23.406  17.206   0.958  0.040 -0.284 158.933   -153.44   61.81  138.22   18.42 -176.76  130.91  -23.62    0.80 -180.00  112.18  149.69  127.45  -16.02 -171.15   60.11   13.96   -7.55 -163.37    8.42   -2.33  -27.55  -20.61  159.93   22.24

DOCKED: MODEL       97
DOCKED: USER    Run = 97
DOCKED: USER    DPF = D:/Protein_go_brrr/autodock/final/1A3N/IHP/dock.dpf
DOCKED: USER  
DOCKED: USER    Estimated Free Energy of Binding    =   +2.79 kcal/mol  [=(1)+(2)+(3)-(4)]
DOCKED: USER    
DOCKED: USER    (1) Final Intermolecular Energy     =   -4.37 kcal/mol
DOCKED: USER        vdW + Hbond + desolv Energy     =   -4.14 kcal/mol
DOCKED: USER        Electrostatic Energy            =   -0.23 kcal/mol
DOCKED: USER    (2) Final Total Internal Energy     =  -13.50 kcal/mol
DOCKED: USER    (3) Torsional Free Energy           =   +7.16 kcal/mol
DOCKED: USER    (4) Unbound System's Energy  [=(2)] =  -13.50 kcal/mol
DOCKED: USER    
DOCKED: USER    
DOCKED: USER    NEWDPF move IHP_ideal_opt.pdbqt
DOCKED: USER    NEWDPF about 0.035000 0.082000 -0.065000
DOCKED: USER    NEWDPF tran0 15.825482 -23.405878 17.205914
DOCKED: USER    NEWDPF quaternion0 0.941803 0.039637 -0.279311 0.182815
DOCKED: USER    NEWDPF axisangle0 0.957947 0.040316 -0.284099 158.932505
DOCKED: USER    NEWDPF quat0 0.957947 0.040316 -0.284099 158.932505
DOCKED: USER    NEWDPF dihe0 -153.44 61.81 138.22 18.42 -176.76 130.91 -23.62 0.80 -180.00 112.18 149.69 127.45 -16.02 -171.15 60.11 13.96 -7.55 -163.37 8.42 -2.33 -27.55 -20.61 159.93 22.24 
DOCKED: USER  keepresnum = 1 
DOCKED: USER  
DOCKED: REMARK  24 active torsions:
DOCKED: REMARK  status: ('A' for Active; 'I' for Inactive)
DOCKED: REMARK    1  A    between atoms: C_1  and  O_7 
DOCKED: REMARK    2  A    between atoms: C_2  and  O_12 
DOCKED: REMARK    3  A    between atoms: C_3  and  O_17 
DOCKED: REMARK    4  A    between atoms: C_4  and  O_22 
DOCKED: REMARK    5  A    between atoms: C_5  and  O_27 
DOCKED: REMARK    6  A    between atoms: C_6  and  O_32 
DOCKED: REMARK    7  A    between atoms: O_7  and  P_8 
DOCKED: REMARK    8  A    between atoms: P_8  and  O_10 
DOCKED: REMARK    9  A    between atoms: P_8  and  O_11 
DOCKED: REMARK   10  A    between atoms: O_12  and  P_13 
DOCKED: REMARK   11  A    between atoms: P_13  and  O_15 
DOCKED: REMARK   12  A    between atoms: P_13  and  O_16 
DOCKED: REMARK   13  A    between atoms: O_17  and  P_18 
DOCKED: REMARK   14  A    between atoms: P_18  and  O_20 
DOCKED: REMARK   15  A    between atoms: P_18  and  O_21 
DOCKED: REMARK   16  A    between atoms: O_22  and  P_23 
DOCKED: REMARK   17  A    between atoms: P_23  and  O_25 
DOCKED: REMARK   18  A    between atoms: P_23  and  O_26 
DOCKED: REMARK   19  A    between atoms: O_27  and  P_28 
DOCKED: REMARK   20  A    between atoms: P_28  and  O_30 
DOCKED: REMARK   21  A    between atoms: P_28  and  O_31 
DOCKED: REMARK   22  A    between atoms: O_32  and  P_33 
DOCKED: REMARK   23  A    between atoms: P_33  and  O_35 
DOCKED: REMARK   24  A    between atoms: P_33  and  O_36 
DOCKED: USER                              x       y       z     vdW  Elec       q    Type
DOCKED: USER                           _______ _______ _______ _____ _____    ______ ____
DOCKED: ROOT
DOCKED: ATOM      1  C   UNL d   1      16.476 -22.104  16.276 -0.06 +0.01    +0.194 C 
DOCKED: ATOM      2  C   UNL d   1      15.648 -21.695  17.496 -0.07 +0.05    +0.194 C 
DOCKED: ATOM      3  C   UNL d   1      14.376 -22.537  17.625 -0.03 +0.05    +0.194 C 
DOCKED: ATOM      4  C   UNL d   1      14.643 -24.039  17.584 -0.02 +0.02    +0.194 C 
DOCKED: ATOM      5  C   UNL d   1      15.559 -24.477  16.449 -0.02 +0.00    +0.194 C 
DOCKED: ATOM      6  C   UNL d   1      16.800 -23.598  16.281 -0.08 -0.02    +0.194 C 
DOCKED: ENDROOT
DOCKED: BRANCH   1   7
DOCKED: ATOM      7  O   UNL d   1      17.718 -21.398  16.323 -0.12 -0.00    -0.278 OA
DOCKED: BRANCH   7   8
DOCKED: ATOM      8  P   UNL d   1      18.021 -20.318  15.186 -0.03 +0.03    +0.473 P 
DOCKED: ATOM      9  O   UNL d   1      16.838 -19.548  14.715 -0.03 -0.05    -0.228 OA
DOCKED: BRANCH   8  10
DOCKED: ATOM     10  O   UNL d   1      19.157 -19.395  15.822 -0.12 -0.01    -0.303 OA
DOCKED: ATOM     11  H   UNL d   1      19.864 -19.956  16.193 -0.06 -0.04    +0.222 HD
DOCKED: ENDBRANCH   8  10
DOCKED: BRANCH   8  12
DOCKED: ATOM     12  O   UNL d   1      18.824 -21.110  14.067 -0.09 +0.02    -0.303 OA
DOCKED: ATOM     13  H   UNL d   1      18.743 -22.087  14.153 +0.07 -0.05    +0.222 HD
DOCKED: ENDBRANCH   8  12
DOCKED: ENDBRANCH   7   8
DOCKED: ENDBRANCH   1   7
DOCKED: BRANCH   2  14
DOCKED: ATOM     14  O   UNL d   1      16.438 -21.877  18.678 -0.16 -0.04    -0.278 OA
DOCKED: BRANCH  14  15
DOCKED: ATOM     15  P   UNL d   1      16.518 -20.633  19.683 -0.28 +0.21    +0.473 P 
DOCKED: ATOM     16  O   UNL d   1      17.864 -20.008  19.872 -0.83 -0.14    -0.228 OA
DOCKED: BRANCH  15  17
DOCKED: ATOM     17  O   UNL d   1      15.435 -19.609  19.120 -0.13 -0.24    -0.303 OA
DOCKED: ATOM     18  H   UNL d   1      14.617 -20.073  18.856 +0.06 +0.20    +0.222 HD
DOCKED: ENDBRANCH  15  17
DOCKED: BRANCH  15  19
DOCKED: ATOM     19  O   UNL d   1      15.809 -21.149  21.010 -0.40 -0.11    -0.303 OA
DOCKED: ATOM     20  H   UNL d   1      15.010 -21.671  20.812 +0.08 +0.07    +0.222 HD
DOCKED: ENDBRANCH  15  19
DOCKED: ENDBRANCH  14  15
DOCKED: ENDBRANCH   2  14
DOCKED: BRANCH   6  21
DOCKED: ATOM     21  O   UNL d   1      17.356 -23.910  15.005 -0.05 +0.04    -0.278 OA
DOCKED: BRANCH  21  22
DOCKED: ATOM     22  P   UNL d   1      18.910 -24.248  14.881 -0.10 -0.23    +0.473 P 
DOCKED: ATOM     23  O   UNL d   1      19.335 -25.672  15.016 -0.15 +0.12    -0.228 OA
DOCKED: BRANCH  22  24
DOCKED: ATOM     24  O   UNL d   1      19.280 -23.572  13.488 -0.09 +0.14    -0.303 OA
DOCKED: ATOM     25  H   UNL d   1      19.946 -22.858  13.660 -0.01 -0.15    +0.222 HD
DOCKED: ENDBRANCH  22  24
DOCKED: BRANCH  22  26
DOCKED: ATOM     26  O   UNL d   1      19.553 -23.220  15.930 -0.05 +0.19    -0.303 OA
DOCKED: ATOM     27  H   UNL d   1      19.124 -22.346  15.827 +0.04 -0.08    +0.222 HD
DOCKED: ENDBRANCH  22  26
DOCKED: ENDBRANCH  21  22
DOCKED: ENDBRANCH   6  21
DOCKED: BRANCH   3  28
DOCKED: ATOM     28  O   UNL d   1      13.826 -22.286  18.911 -0.03 -0.10    -0.278 OA
DOCKED: BRANCH  28  29
DOCKED: ATOM     29  P   UNL d   1      12.775 -21.107  19.120 -0.06 +0.36    +0.473 P 
DOCKED: ATOM     30  O   UNL d   1      12.643 -20.157  17.985 -0.61 -0.35    -0.228 OA
DOCKED: BRANCH  29  31
DOCKED: ATOM     31  O   UNL d   1      11.476 -21.957  19.510 -0.02 -0.14    -0.303 OA
DOCKED: ATOM     32  H   UNL d   1      11.766 -22.796  19.936 +0.02 +0.07    +0.222 HD
DOCKED: ENDBRANCH  29  31
DOCKED: BRANCH  29  33
DOCKED: ATOM     33  O   UNL d   1      13.230 -20.498  20.519 -0.13 -0.24    -0.303 OA
DOCKED: ATOM     34  H   UNL d   1      14.163 -20.181  20.443 +0.08 +0.18    +0.222 HD
DOCKED: ENDBRANCH  29  33
DOCKED: ENDBRANCH  28  29
DOCKED: ENDBRANCH   3  28
DOCKED: BRANCH   5  35
DOCKED: ATOM     35  O   UNL d   1      16.014 -25.783  16.800 -0.02 +0.01    -0.278 OA
DOCKED: BRANCH  35  36
DOCKED: ATOM     36  P   UNL d   1      17.021 -25.983  18.020 -0.05 -0.06    +0.473 P 
DOCKED: ATOM     37  O   UNL d   1      16.801 -25.081  19.193 -0.13 +0.03    -0.228 OA
DOCKED: BRANCH  36  38
DOCKED: ATOM     38  O   UNL d   1      16.839 -27.532  18.343 -0.01 +0.02    -0.303 OA
DOCKED: ATOM     39  H   UNL d   1      17.654 -28.012  18.082 +0.03 -0.02    +0.222 HD
DOCKED: ENDBRANCH  36  38
DOCKED: BRANCH  36  40
DOCKED: ATOM     40  O   UNL d   1      18.440 -25.905  17.306 -0.11 +0.09    -0.303 OA
DOCKED: ATOM     41  H   UNL d   1      18.644 -24.993  17.001 -0.41 -0.10    +0.222 HD
DOCKED: ENDBRANCH  36  40
DOCKED: ENDBRANCH  35  36
DOCKED: ENDBRANCH   5  35
DOCKED: BRANCH   4  42
DOCKED: ATOM     42  O   UNL d   1      13.379 -24.679  17.376 -0.00 -0.03    -0.278 OA
DOCKED: BRANCH  42  43
DOCKED: ATOM     43  P   UNL d   1      12.494 -25.070  18.644 +0.00 +0.05    +0.473 P 
DOCKED: ATOM     44  O   UNL d   1      12.206 -26.515  18.861 -0.00 -0.01    -0.228 OA
DOCKED: BRANCH  43  45
DOCKED: ATOM     45  O   UNL d   1      13.276 -24.375  19.843 -0.00 -0.04    -0.303 OA
DOCKED: ATOM     46  H   UNL d   1      13.113 -23.411  19.866 +0.03 +0.05    +0.222 HD
DOCKED: ENDBRANCH  43  45
DOCKED: BRANCH  43  47
DOCKED: ATOM     47  O   UNL d   1      11.210 -24.122  18.501 +0.00 -0.06    -0.303 OA
DOCKED: ATOM     48  H   UNL d   1      11.503 -23.192  18.413 +0.01 +0.06    +0.222 HD
DOCKED: ENDBRANCH  43  47
DOCKED: ENDBRANCH  42  43
DOCKED: ENDBRANCH   4  42
DOCKED: TORSDOF 24
DOCKED: TER
DOCKED: ENDMDL
________________________________________________________________________________


	BEGINNING GENETIC ALGORITHM DOCKING 98 of 100
Run: 98 Seed: 365867559 983553660 [ Run 98 of 100 GA/GALS ]
Beginning LAMARCKIAN GENETIC ALGORITHM (LGA), with a maximum of 25000000 energy evaluations.

Final-Value: -17.231


	FINAL GENETIC ALGORITHM DOCKED STATE
	_______________________________________________


Detailed state:  trans 10.909 30.328 26.370 quatxyzw -0.009739 0.136527 -0.448684 -0.883147 center 0.035 0.082 -0.065 ntor 24 89.0518 56.4965 140.1644 15.1766 87.3785 95.6686 -78.6130 11.6332 58.5338 -30.4242 77.8172 -96.8014 -180.0000 -172.9140 56.6290 157.7408 -161.1061 -94.6129 38.8653 4.8263 -177.7847 23.5060 11.3889 -177.6176
State:	 10.909  30.328  26.370  -0.021  0.291 -0.956 -55.951     89.05   56.50  140.16   15.18   87.38   95.67  -78.61   11.63   58.53  -30.42   77.82  -96.80 -180.00 -172.91   56.63  157.74 -161.11  -94.61   38.87    4.83 -177.78   23.51   11.39 -177.62

DOCKED: MODEL       98
DOCKED: USER    Run = 98
DOCKED: USER    DPF = D:/Protein_go_brrr/autodock/final/1A3N/IHP/dock.dpf
DOCKED: USER  
DOCKED: USER    Estimated Free Energy of Binding    =   +2.68 kcal/mol  [=(1)+(2)+(3)-(4)]
DOCKED: USER    
DOCKED: USER    (1) Final Intermolecular Energy     =   -4.47 kcal/mol
DOCKED: USER        vdW + Hbond + desolv Energy     =   -4.38 kcal/mol
DOCKED: USER        Electrostatic Energy            =   -0.09 kcal/mol
DOCKED: USER    (2) Final Total Internal Energy     =  -12.76 kcal/mol
DOCKED: USER    (3) Torsional Free Energy           =   +7.16 kcal/mol
DOCKED: USER    (4) Unbound System's Energy  [=(2)] =  -12.76 kcal/mol
DOCKED: USER    
DOCKED: USER    
DOCKED: USER    NEWDPF move IHP_ideal_opt.pdbqt
DOCKED: USER    NEWDPF about 0.035000 0.082000 -0.065000
DOCKED: USER    NEWDPF tran0 10.908992 30.327748 26.370085
DOCKED: USER    NEWDPF quaternion0 -0.009739 0.136527 -0.448684 -0.883147
DOCKED: USER    NEWDPF axisangle0 -0.020761 0.291042 -0.956485 -55.951328
DOCKED: USER    NEWDPF quat0 -0.020761 0.291042 -0.956485 -55.951328
DOCKED: USER    NEWDPF dihe0 89.05 56.50 140.16 15.18 87.38 95.67 -78.61 11.63 58.53 -30.42 77.82 -96.80 -180.00 -172.91 56.63 157.74 -161.11 -94.61 38.87 4.83 -177.78 23.51 11.39 -177.62 
DOCKED: USER  keepresnum = 1 
DOCKED: USER  
DOCKED: REMARK  24 active torsions:
DOCKED: REMARK  status: ('A' for Active; 'I' for Inactive)
DOCKED: REMARK    1  A    between atoms: C_1  and  O_7 
DOCKED: REMARK    2  A    between atoms: C_2  and  O_12 
DOCKED: REMARK    3  A    between atoms: C_3  and  O_17 
DOCKED: REMARK    4  A    between atoms: C_4  and  O_22 
DOCKED: REMARK    5  A    between atoms: C_5  and  O_27 
DOCKED: REMARK    6  A    between atoms: C_6  and  O_32 
DOCKED: REMARK    7  A    between atoms: O_7  and  P_8 
DOCKED: REMARK    8  A    between atoms: P_8  and  O_10 
DOCKED: REMARK    9  A    between atoms: P_8  and  O_11 
DOCKED: REMARK   10  A    between atoms: O_12  and  P_13 
DOCKED: REMARK   11  A    between atoms: P_13  and  O_15 
DOCKED: REMARK   12  A    between atoms: P_13  and  O_16 
DOCKED: REMARK   13  A    between atoms: O_17  and  P_18 
DOCKED: REMARK   14  A    between atoms: P_18  and  O_20 
DOCKED: REMARK   15  A    between atoms: P_18  and  O_21 
DOCKED: REMARK   16  A    between atoms: O_22  and  P_23 
DOCKED: REMARK   17  A    between atoms: P_23  and  O_25 
DOCKED: REMARK   18  A    between atoms: P_23  and  O_26 
DOCKED: REMARK   19  A    between atoms: O_27  and  P_28 
DOCKED: REMARK   20  A    between atoms: P_28  and  O_30 
DOCKED: REMARK   21  A    between atoms: P_28  and  O_31 
DOCKED: REMARK   22  A    between atoms: O_32  and  P_33 
DOCKED: REMARK   23  A    between atoms: P_33  and  O_35 
DOCKED: REMARK   24  A    between atoms: P_33  and  O_36 
DOCKED: USER                              x       y       z     vdW  Elec       q    Type
DOCKED: USER                           _______ _______ _______ _____ _____    ______ ____
DOCKED: ROOT
DOCKED: ATOM      1  C   UNL d   1      11.107  28.718  26.964 -0.13 -0.02    +0.194 C 
DOCKED: ATOM      2  C   UNL d   1       9.681  29.269  27.012 -0.06 -0.01    +0.194 C 
DOCKED: ATOM      3  C   UNL d   1       9.649  30.716  27.507 -0.01 -0.01    +0.194 C 
DOCKED: ATOM      4  C   UNL d   1      10.598  31.635  26.740 -0.04 -0.01    +0.194 C 
DOCKED: ATOM      5  C   UNL d   1      12.003  31.073  26.570 -0.06 -0.01    +0.194 C 
DOCKED: ATOM      6  C   UNL d   1      12.034  29.606  26.134 +0.00 -0.02    +0.194 C 
DOCKED: ENDROOT
DOCKED: BRANCH   1   7
DOCKED: ATOM      7  O   UNL d   1      11.069  27.435  26.334 -0.23 +0.06    -0.278 OA
DOCKED: BRANCH   7   8
DOCKED: ATOM      8  P   UNL d   1      10.703  26.162  27.226 -0.17 -0.05    +0.473 P 
DOCKED: ATOM      9  O   UNL d   1      11.660  25.026  27.129 -0.95 -0.04    -0.228 OA
DOCKED: BRANCH   8  10
DOCKED: ATOM     10  O   UNL d   1      10.573  26.749  28.704 -0.05 +0.01    -0.303 OA
DOCKED: ATOM     11  H   UNL d   1      11.452  27.025  29.024 +0.06 -0.00    +0.222 HD
DOCKED: ENDBRANCH   8  10
DOCKED: BRANCH   8  12
DOCKED: ATOM     12  O   UNL d   1       9.191  25.827  26.868 +0.07 +0.07    -0.303 OA
DOCKED: ATOM     13  H   UNL d   1       8.863  26.321  26.083 -0.39 -0.06    +0.222 HD
DOCKED: ENDBRANCH   8  12
DOCKED: ENDBRANCH   7   8
DOCKED: ENDBRANCH   1   7
DOCKED: BRANCH   2  14
DOCKED: ATOM     14  O   UNL d   1       9.119  29.225  25.694 -0.11 +0.03    -0.278 OA
DOCKED: BRANCH  14  15
DOCKED: ATOM     15  P   UNL d   1       7.611  28.700  25.576 -0.17 -0.06    +0.473 P 
DOCKED: ATOM     16  O   UNL d   1       7.394  27.449  24.785 -0.75 +0.01    -0.228 OA
DOCKED: BRANCH  15  17
DOCKED: ATOM     17  O   UNL d   1       7.128  28.566  27.088 -0.05 +0.03    -0.303 OA
DOCKED: ATOM     18  H   UNL d   1       7.396  29.345  27.613 +0.04 -0.01    +0.222 HD
DOCKED: ENDBRANCH  15  17
DOCKED: BRANCH  15  19
DOCKED: ATOM     19  O   UNL d   1       6.786  29.971  25.089 -0.13 +0.06    -0.303 OA
DOCKED: ATOM     20  H   UNL d   1       7.037  30.774  25.582 +0.05 -0.03    +0.222 HD
DOCKED: ENDBRANCH  15  19
DOCKED: ENDBRANCH  14  15
DOCKED: ENDBRANCH   2  14
DOCKED: BRANCH   6  21
DOCKED: ATOM     21  O   UNL d   1      13.364  29.140  26.351 -0.14 +0.06    -0.278 OA
DOCKED: BRANCH  21  22
DOCKED: ATOM     22  P   UNL d   1      13.827  28.719  27.818 -0.04 -0.04    +0.473 P 
DOCKED: ATOM     23  O   UNL d   1      13.570  27.319  28.263 -0.09 +0.01    -0.228 OA
DOCKED: BRANCH  22  24
DOCKED: ATOM     24  O   UNL d   1      15.359  29.147  27.812 -0.02 +0.02    -0.303 OA
DOCKED: ATOM     25  H   UNL d   1      15.487  29.826  27.102 +0.03 -0.02    +0.222 HD
DOCKED: ENDBRANCH  22  24
DOCKED: BRANCH  22  26
DOCKED: ATOM     26  O   UNL d   1      13.164  29.873  28.712 -0.01 +0.01    -0.303 OA
DOCKED: ATOM     27  H   UNL d   1      13.709  30.684  28.647 +0.01 -0.01    +0.222 HD
DOCKED: ENDBRANCH  22  26
DOCKED: ENDBRANCH  21  22
DOCKED: ENDBRANCH   6  21
DOCKED: BRANCH   3  28
DOCKED: ATOM     28  O   UNL d   1       8.345  31.226  27.255 -0.00 +0.02    -0.278 OA
DOCKED: BRANCH  28  29
DOCKED: ATOM     29  P   UNL d   1       7.571  32.045  28.381 +0.01 -0.02    +0.473 P 
DOCKED: ATOM     30  O   UNL d   1       6.964  33.326  27.938 -0.00 +0.01    -0.228 OA
DOCKED: BRANCH  29  31
DOCKED: ATOM     31  O   UNL d   1       6.573  30.914  28.913 +0.00 +0.01    -0.303 OA
DOCKED: ATOM     32  H   UNL d   1       6.407  30.273  28.183 +0.02 -0.01    +0.222 HD
DOCKED: ENDBRANCH  29  31
DOCKED: BRANCH  29  33
DOCKED: ATOM     33  O   UNL d   1       8.659  32.128  29.541 +0.00 +0.01    -0.303 OA
DOCKED: ATOM     34  H   UNL d   1       9.382  32.741  29.261 +0.00 -0.01    +0.222 HD
DOCKED: ENDBRANCH  29  33
DOCKED: ENDBRANCH  28  29
DOCKED: ENDBRANCH   3  28
DOCKED: BRANCH   5  35
DOCKED: ATOM     35  O   UNL d   1      12.600  31.835  25.522 -0.54 +0.00    -0.278 OA
DOCKED: BRANCH  35  36
DOCKED: ATOM     36  P   UNL d   1      14.141  32.241  25.601 -0.06 -0.05    +0.473 P 
DOCKED: ATOM     37  O   UNL d   1      14.418  33.709  25.670 -0.01 +0.02    -0.228 OA
DOCKED: BRANCH  36  38
DOCKED: ATOM     38  O   UNL d   1      14.630  31.421  26.876 -0.04 +0.03    -0.303 OA
DOCKED: ATOM     39  H   UNL d   1      13.846  31.065  27.348 +0.02 -0.02    +0.222 HD
DOCKED: ENDBRANCH  36  38
DOCKED: BRANCH  36  40
DOCKED: ATOM     40  O   UNL d   1      14.764  31.445  24.372 -0.06 +0.08    -0.303 OA
DOCKED: ATOM     41  H   UNL d   1      14.806  30.479  24.548 -0.39 -0.14    +0.222 HD
DOCKED: ENDBRANCH  36  40
DOCKED: ENDBRANCH  35  36
DOCKED: ENDBRANCH   5  35
DOCKED: BRANCH   4  42
DOCKED: ATOM     42  O   UNL d   1      10.716  32.839  27.505 -0.00 +0.01    -0.278 OA
DOCKED: BRANCH  42  43
DOCKED: ATOM     43  P   UNL d   1      11.528  32.804  28.878 +0.01 -0.01    +0.473 P 
DOCKED: ATOM     44  O   UNL d   1      11.202  31.715  29.841 +0.00 +0.00    -0.228 OA
DOCKED: BRANCH  43  45
DOCKED: ATOM     45  O   UNL d   1      13.042  32.809  28.389 +0.00 +0.01    -0.303 OA
DOCKED: ATOM     46  H   UNL d   1      13.104  32.907  27.418 +0.01 -0.01    +0.222 HD
DOCKED: ENDBRANCH  43  45
DOCKED: BRANCH  43  47
DOCKED: ATOM     47  O   UNL d   1      11.362  34.297  29.440 +0.00 +0.01    -0.303 OA
DOCKED: ATOM     48  H   UNL d   1      10.498  34.376  29.895 +0.00 -0.00    +0.222 HD
DOCKED: ENDBRANCH  43  47
DOCKED: ENDBRANCH  42  43
DOCKED: ENDBRANCH   4  42
DOCKED: TORSDOF 24
DOCKED: TER
DOCKED: ENDMDL
________________________________________________________________________________


	BEGINNING GENETIC ALGORITHM DOCKING 99 of 100
Run: 99 Seed: 655949923 1039829119 [ Run 99 of 100 GA/GALS ]
Beginning LAMARCKIAN GENETIC ALGORITHM (LGA), with a maximum of 25000000 energy evaluations.

Final-Value: -17.303


	FINAL GENETIC ALGORITHM DOCKED STATE
	_______________________________________________


Detailed state:  trans 37.140 4.372 -11.924 quatxyzw -0.312037 -0.134578 0.939912 -0.032963 center 0.035 0.082 -0.065 ntor 24 85.1935 104.2166 130.5666 15.9373 84.8691 87.6345 69.5483 -73.6793 107.3966 -14.7321 39.1856 -107.9490 -73.7807 33.5239 -173.0345 -121.8419 23.2371 -75.3345 -146.4846 -22.0781 16.4594 56.3428 -158.3501 -159.0261
State:	 37.140   4.372 -11.924  -0.312 -0.135  0.940 -176.222     85.19  104.22  130.57   15.94   84.87   87.63   69.55  -73.68  107.40  -14.73   39.19 -107.95  -73.78   33.52 -173.03 -121.84   23.24  -75.33 -146.48  -22.08   16.46   56.34 -158.35 -159.03

DOCKED: MODEL       99
DOCKED: USER    Run = 99
DOCKED: USER    DPF = D:/Protein_go_brrr/autodock/final/1A3N/IHP/dock.dpf
DOCKED: USER  
DOCKED: USER    Estimated Free Energy of Binding    =   +4.57 kcal/mol  [=(1)+(2)+(3)-(4)]
DOCKED: USER    
DOCKED: USER    (1) Final Intermolecular Energy     =   -2.59 kcal/mol
DOCKED: USER        vdW + Hbond + desolv Energy     =   -2.23 kcal/mol
DOCKED: USER        Electrostatic Energy            =   -0.35 kcal/mol
DOCKED: USER    (2) Final Total Internal Energy     =  -14.72 kcal/mol
DOCKED: USER    (3) Torsional Free Energy           =   +7.16 kcal/mol
DOCKED: USER    (4) Unbound System's Energy  [=(2)] =  -14.72 kcal/mol
DOCKED: USER    
DOCKED: USER    
DOCKED: USER    NEWDPF move IHP_ideal_opt.pdbqt
DOCKED: USER    NEWDPF about 0.035000 0.082000 -0.065000
DOCKED: USER    NEWDPF tran0 37.139533 4.372487 -11.923747
DOCKED: USER    NEWDPF quaternion0 -0.312037 -0.134578 0.939912 -0.032963
DOCKED: USER    NEWDPF axisangle0 -0.312207 -0.134651 0.940423 -176.222009
DOCKED: USER    NEWDPF quat0 -0.312207 -0.134651 0.940423 -176.222009
DOCKED: USER    NEWDPF dihe0 85.19 104.22 130.57 15.94 84.87 87.63 69.55 -73.68 107.40 -14.73 39.19 -107.95 -73.78 33.52 -173.03 -121.84 23.24 -75.33 -146.48 -22.08 16.46 56.34 -158.35 -159.03 
DOCKED: USER  keepresnum = 1 
DOCKED: USER  
DOCKED: REMARK  24 active torsions:
DOCKED: REMARK  status: ('A' for Active; 'I' for Inactive)
DOCKED: REMARK    1  A    between atoms: C_1  and  O_7 
DOCKED: REMARK    2  A    between atoms: C_2  and  O_12 
DOCKED: REMARK    3  A    between atoms: C_3  and  O_17 
DOCKED: REMARK    4  A    between atoms: C_4  and  O_22 
DOCKED: REMARK    5  A    between atoms: C_5  and  O_27 
DOCKED: REMARK    6  A    between atoms: C_6  and  O_32 
DOCKED: REMARK    7  A    between atoms: O_7  and  P_8 
DOCKED: REMARK    8  A    between atoms: P_8  and  O_10 
DOCKED: REMARK    9  A    between atoms: P_8  and  O_11 
DOCKED: REMARK   10  A    between atoms: O_12  and  P_13 
DOCKED: REMARK   11  A    between atoms: P_13  and  O_15 
DOCKED: REMARK   12  A    between atoms: P_13  and  O_16 
DOCKED: REMARK   13  A    between atoms: O_17  and  P_18 
DOCKED: REMARK   14  A    between atoms: P_18  and  O_20 
DOCKED: REMARK   15  A    between atoms: P_18  and  O_21 
DOCKED: REMARK   16  A    between atoms: O_22  and  P_23 
DOCKED: REMARK   17  A    between atoms: P_23  and  O_25 
DOCKED: REMARK   18  A    between atoms: P_23  and  O_26 
DOCKED: REMARK   19  A    between atoms: O_27  and  P_28 
DOCKED: REMARK   20  A    between atoms: P_28  and  O_30 
DOCKED: REMARK   21  A    between atoms: P_28  and  O_31 
DOCKED: REMARK   22  A    between atoms: O_32  and  P_33 
DOCKED: REMARK   23  A    between atoms: P_33  and  O_35 
DOCKED: REMARK   24  A    between atoms: P_33  and  O_36 
DOCKED: USER                              x       y       z     vdW  Elec       q    Type
DOCKED: USER                           _______ _______ _______ _____ _____    ______ ____
DOCKED: ROOT
DOCKED: ATOM      1  C   UNL d   1      35.643   5.225 -11.796 -0.12 +0.06    +0.194 C 
DOCKED: ATOM      2  C   UNL d   1      36.847   5.902 -11.139 -0.06 +0.11    +0.194 C 
DOCKED: ATOM      3  C   UNL d   1      37.707   4.901 -10.365 -0.12 +0.12    +0.194 C 
DOCKED: ATOM      4  C   UNL d   1      38.110   3.686 -11.196 -0.06 +0.07    +0.194 C 
DOCKED: ATOM      5  C   UNL d   1      36.958   3.047 -11.962 -0.07 +0.06    +0.194 C 
DOCKED: ATOM      6  C   UNL d   1      36.062   4.054 -12.685 -0.06 +0.05    +0.194 C 
DOCKED: ENDROOT
DOCKED: BRANCH   1   7
DOCKED: ATOM      7  O   UNL d   1      34.994   6.185 -12.634 -0.05 -0.08    -0.278 OA
DOCKED: BRANCH   7   8
DOCKED: ATOM      8  P   UNL d   1      35.443   6.284 -14.164 +0.00 +0.09    +0.473 P 
DOCKED: ATOM      9  O   UNL d   1      36.805   5.759 -14.457 -0.01 -0.04    -0.228 OA
DOCKED: BRANCH   8  10
DOCKED: ATOM     10  O   UNL d   1      34.290   5.518 -14.956 -0.00 -0.05    -0.303 OA
DOCKED: ATOM     11  H   UNL d   1      34.369   4.558 -14.801 +0.02 +0.04    +0.222 HD
DOCKED: ENDBRANCH   8  10
DOCKED: BRANCH   8  12
DOCKED: ATOM     12  O   UNL d   1      35.180   7.797 -14.574 -0.00 -0.05    -0.303 OA
DOCKED: ATOM     13  H   UNL d   1      35.679   8.439 -14.021 +0.01 +0.04    +0.222 HD
DOCKED: ENDBRANCH   8  12
DOCKED: ENDBRANCH   7   8
DOCKED: ENDBRANCH   1   7
DOCKED: BRANCH   2  14
DOCKED: ATOM     14  O   UNL d   1      37.655   6.507 -12.156 -0.06 -0.14    -0.278 OA
DOCKED: BRANCH  14  15
DOCKED: ATOM     15  P   UNL d   1      37.656   8.108 -12.211 -0.06 +0.27    +0.473 P 
DOCKED: ATOM     16  O   UNL d   1      38.681   8.808 -11.375 -0.24 -0.27    -0.228 OA
DOCKED: BRANCH  15  17
DOCKED: ATOM     17  O   UNL d   1      37.793   8.442 -13.763 -0.01 -0.08    -0.303 OA
DOCKED: ATOM     18  H   UNL d   1      37.320   7.783 -14.308 +0.01 +0.05    +0.222 HD
DOCKED: ENDBRANCH  15  17
DOCKED: BRANCH  15  19
DOCKED: ATOM     19  O   UNL d   1      36.145   8.516 -11.929 -0.07 -0.13    -0.303 OA
DOCKED: ATOM     20  H   UNL d   1      35.521   7.955 -12.426 +0.04 +0.07    +0.222 HD
DOCKED: ENDBRANCH  15  19
DOCKED: ENDBRANCH  14  15
DOCKED: ENDBRANCH   2  14
DOCKED: BRANCH   6  21
DOCKED: ATOM     21  O   UNL d   1      34.872   3.359 -13.050 -0.07 -0.06    -0.278 OA
DOCKED: BRANCH  21  22
DOCKED: ATOM     22  P   UNL d   1      34.822   2.536 -14.416 -0.03 +0.08    +0.473 P 
DOCKED: ATOM     23  O   UNL d   1      33.550   2.539 -15.194 -0.05 -0.03    -0.228 OA
DOCKED: BRANCH  22  24
DOCKED: ATOM     24  O   UNL d   1      36.082   3.120 -15.194 -0.01 -0.04    -0.303 OA
DOCKED: ATOM     25  H   UNL d   1      36.677   3.557 -14.532 +0.02 +0.04    +0.222 HD
DOCKED: ENDBRANCH  22  24
DOCKED: BRANCH  22  26
DOCKED: ATOM     26  O   UNL d   1      35.358   1.099 -13.950 -0.08 -0.06    -0.303 OA
DOCKED: ATOM     27  H   UNL d   1      36.336   1.091 -13.992 +0.04 +0.05    +0.222 HD
DOCKED: ENDBRANCH  22  26
DOCKED: ENDBRANCH  21  22
DOCKED: ENDBRANCH   6  21
DOCKED: BRANCH   3  28
DOCKED: ATOM     28  O   UNL d   1      38.926   5.552 -10.032 -0.38 -0.31    -0.278 OA
DOCKED: BRANCH  28  29
DOCKED: ATOM     29  P   UNL d   1      39.918   4.905  -8.966 -0.04 +0.39    +0.473 P 
DOCKED: ATOM     30  O   UNL d   1      40.698   5.870  -8.150 -0.34 -0.26    -0.228 OA
DOCKED: BRANCH  29  31
DOCKED: ATOM     31  O   UNL d   1      38.901   3.948  -8.184 -0.10 -0.16    -0.303 OA
DOCKED: ATOM     32  H   UNL d   1      39.226   3.020  -8.255 +0.07 +0.09    +0.222 HD
DOCKED: ENDBRANCH  29  31
DOCKED: BRANCH  29  33
DOCKED: ATOM     33  O   UNL d   1      40.748   3.882  -9.860 -0.01 -0.12    -0.303 OA
DOCKED: ATOM     34  H   UNL d   1      40.282   3.758 -10.723 +0.02 +0.08    +0.222 HD
DOCKED: ENDBRANCH  29  33
DOCKED: ENDBRANCH  28  29
DOCKED: ENDBRANCH   3  28
DOCKED: BRANCH   5  35
DOCKED: ATOM     35  O   UNL d   1      37.563   2.229 -12.961 -0.02 -0.07    -0.278 OA
DOCKED: BRANCH  35  36
DOCKED: ATOM     36  P   UNL d   1      39.005   2.597 -13.537 +0.01 +0.10    +0.473 P 
DOCKED: ATOM     37  O   UNL d   1      40.139   2.463 -12.572 -0.00 -0.05    -0.228 OA
DOCKED: BRANCH  36  38
DOCKED: ATOM     38  O   UNL d   1      39.105   1.635 -14.803 -0.00 -0.05    -0.303 OA
DOCKED: ATOM     39  H   UNL d   1      38.224   1.574 -15.230 +0.01 +0.03    +0.222 HD
DOCKED: ENDBRANCH  36  38
DOCKED: BRANCH  36  40
DOCKED: ATOM     40  O   UNL d   1      38.761   4.036 -14.169 +0.00 -0.06    -0.303 OA
DOCKED: ATOM     41  H   UNL d   1      38.037   4.024 -14.834 +0.01 +0.04    +0.222 HD
DOCKED: ENDBRANCH  36  40
DOCKED: ENDBRANCH  35  36
DOCKED: ENDBRANCH   5  35
DOCKED: BRANCH   4  42
DOCKED: ATOM     42  O   UNL d   1      38.604   2.702 -10.281 -0.04 -0.11    -0.278 OA
DOCKED: BRANCH  42  43
DOCKED: ATOM     43  P   UNL d   1      37.581   1.654  -9.649 -0.08 +0.24    +0.473 P 
DOCKED: ATOM     44  O   UNL d   1      36.169   2.095  -9.468 -0.19 -0.09    -0.228 OA
DOCKED: BRANCH  43  45
DOCKED: ATOM     45  O   UNL d   1      37.750   0.387 -10.597 -0.11 -0.21    -0.303 OA
DOCKED: ATOM     46  H   UNL d   1      37.935   0.652 -11.520 +0.05 +0.11    +0.222 HD
DOCKED: ENDBRANCH  43  45
DOCKED: BRANCH  43  47
DOCKED: ATOM     47  O   UNL d   1      38.329   1.168  -8.318 -0.11 -0.18    -0.303 OA
DOCKED: ATOM     48  H   UNL d   1      38.329   1.896  -7.663 +0.10 +0.09    +0.222 HD
DOCKED: ENDBRANCH  43  47
DOCKED: ENDBRANCH  42  43
DOCKED: ENDBRANCH   4  42
DOCKED: TORSDOF 24
DOCKED: TER
DOCKED: ENDMDL
________________________________________________________________________________


	BEGINNING GENETIC ALGORITHM DOCKING 100 of 100
Run: 100 Seed: 678810320 1234597306 [ Run 100 of 100 GA/GALS ]
Beginning LAMARCKIAN GENETIC ALGORITHM (LGA), with a maximum of 25000000 energy evaluations.

Final-Value: -17.056


	FINAL GENETIC ALGORITHM DOCKED STATE
	_______________________________________________


Detailed state:  trans 2.788 -22.841 15.128 quatxyzw 0.164690 -0.301084 0.937011 -0.065079 center 0.035 0.082 -0.065 ntor 24 138.0303 18.2355 125.3131 134.5292 122.3362 58.7399 -26.3896 180.0000 54.6877 135.6213 -3.0738 132.4094 -79.7866 86.6835 103.8356 138.9458 9.0242 -95.5818 28.2513 -18.6625 159.5640 -32.4956 -33.6206 -179.9064
State:	  2.788 -22.841  15.128   0.165 -0.302  0.939 -172.537    138.03   18.24  125.31  134.53  122.34   58.74  -26.39  180.00   54.69  135.62   -3.07  132.41  -79.79   86.68  103.84  138.95    9.02  -95.58   28.25  -18.66  159.56  -32.50  -33.62 -179.91

DOCKED: MODEL      100
DOCKED: USER    Run = 100
DOCKED: USER    DPF = D:/Protein_go_brrr/autodock/final/1A3N/IHP/dock.dpf
DOCKED: USER  
DOCKED: USER    Estimated Free Energy of Binding    =   +3.18 kcal/mol  [=(1)+(2)+(3)-(4)]
DOCKED: USER    
DOCKED: USER    (1) Final Intermolecular Energy     =   -3.98 kcal/mol
DOCKED: USER        vdW + Hbond + desolv Energy     =   -3.67 kcal/mol
DOCKED: USER        Electrostatic Energy            =   -0.31 kcal/mol
DOCKED: USER    (2) Final Total Internal Energy     =  -13.07 kcal/mol
DOCKED: USER    (3) Torsional Free Energy           =   +7.16 kcal/mol
DOCKED: USER    (4) Unbound System's Energy  [=(2)] =  -13.07 kcal/mol
DOCKED: USER    
DOCKED: USER    
DOCKED: USER    NEWDPF move IHP_ideal_opt.pdbqt
DOCKED: USER    NEWDPF about 0.035000 0.082000 -0.065000
DOCKED: USER    NEWDPF tran0 2.787983 -22.840606 15.127885
DOCKED: USER    NEWDPF quaternion0 0.164690 -0.301084 0.937011 -0.065079
DOCKED: USER    NEWDPF axisangle0 0.165040 -0.301724 0.939002 -172.537208
DOCKED: USER    NEWDPF quat0 0.165040 -0.301724 0.939002 -172.537208
DOCKED: USER    NEWDPF dihe0 138.03 18.24 125.31 134.53 122.34 58.74 -26.39 180.00 54.69 135.62 -3.07 132.41 -79.79 86.68 103.84 138.95 9.02 -95.58 28.25 -18.66 159.56 -32.50 -33.62 -179.91 
DOCKED: USER  keepresnum = 1 
DOCKED: USER  
DOCKED: REMARK  24 active torsions:
DOCKED: REMARK  status: ('A' for Active; 'I' for Inactive)
DOCKED: REMARK    1  A    between atoms: C_1  and  O_7 
DOCKED: REMARK    2  A    between atoms: C_2  and  O_12 
DOCKED: REMARK    3  A    between atoms: C_3  and  O_17 
DOCKED: REMARK    4  A    between atoms: C_4  and  O_22 
DOCKED: REMARK    5  A    between atoms: C_5  and  O_27 
DOCKED: REMARK    6  A    between atoms: C_6  and  O_32 
DOCKED: REMARK    7  A    between atoms: O_7  and  P_8 
DOCKED: REMARK    8  A    between atoms: P_8  and  O_10 
DOCKED: REMARK    9  A    between atoms: P_8  and  O_11 
DOCKED: REMARK   10  A    between atoms: O_12  and  P_13 
DOCKED: REMARK   11  A    between atoms: P_13  and  O_15 
DOCKED: REMARK   12  A    between atoms: P_13  and  O_16 
DOCKED: REMARK   13  A    between atoms: O_17  and  P_18 
DOCKED: REMARK   14  A    between atoms: P_18  and  O_20 
DOCKED: REMARK   15  A    between atoms: P_18  and  O_21 
DOCKED: REMARK   16  A    between atoms: O_22  and  P_23 
DOCKED: REMARK   17  A    between atoms: P_23  and  O_25 
DOCKED: REMARK   18  A    between atoms: P_23  and  O_26 
DOCKED: REMARK   19  A    between atoms: O_27  and  P_28 
DOCKED: REMARK   20  A    between atoms: P_28  and  O_30 
DOCKED: REMARK   21  A    between atoms: P_28  and  O_31 
DOCKED: REMARK   22  A    between atoms: O_32  and  P_33 
DOCKED: REMARK   23  A    between atoms: P_33  and  O_35 
DOCKED: REMARK   24  A    between atoms: P_33  and  O_36 
DOCKED: USER                              x       y       z     vdW  Elec       q    Type
DOCKED: USER                           _______ _______ _______ _____ _____    ______ ____
DOCKED: ROOT
DOCKED: ATOM      1  C   UNL d   1       2.023 -22.556  16.650 -0.11 -0.05    +0.194 C 
DOCKED: ATOM      2  C   UNL d   1       3.271 -21.717  16.371 -0.11 -0.02    +0.194 C 
DOCKED: ATOM      3  C   UNL d   1       4.390 -22.555  15.748 -0.06 +0.00    +0.194 C 
DOCKED: ATOM      4  C   UNL d   1       3.938 -23.344  14.521 -0.12 -0.01    +0.194 C 
DOCKED: ATOM      5  C   UNL d   1       2.633 -24.106  14.719 -0.13 -0.03    +0.194 C 
DOCKED: ATOM      6  C   UNL d   1       1.534 -23.286  15.399 -0.05 -0.06    +0.194 C 
DOCKED: ENDROOT
DOCKED: BRANCH   1   7
DOCKED: ATOM      7  O   UNL d   1       0.977 -21.674  17.065 -0.05 +0.20    -0.278 OA
DOCKED: BRANCH   7   8
DOCKED: ATOM      8  P   UNL d   1       0.757 -21.440  18.630 -0.05 -0.13    +0.473 P 
DOCKED: ATOM      9  O   UNL d   1       1.165 -22.576  19.501 -0.03 +0.02    -0.228 OA
DOCKED: BRANCH   8  10
DOCKED: ATOM     10  O   UNL d   1       1.558 -20.095  18.936 -0.12 +0.01    -0.303 OA
DOCKED: ATOM     11  H   UNL d   1       2.210 -19.934  18.228 +0.07 -0.01    +0.222 HD
DOCKED: ENDBRANCH   8  10
DOCKED: BRANCH   8  12
DOCKED: ATOM     12  O   UNL d   1      -0.753 -20.967  18.769 -0.15 +0.05    -0.303 OA
DOCKED: ATOM     13  H   UNL d   1      -1.093 -20.519  17.962 -0.38 -0.16    +0.222 HD
DOCKED: ENDBRANCH   8  12
DOCKED: ENDBRANCH   7   8
DOCKED: ENDBRANCH   1   7
DOCKED: BRANCH   2  14
DOCKED: ATOM     14  O   UNL d   1       2.931 -20.662  15.462 -0.16 +0.05    -0.278 OA
DOCKED: BRANCH  14  15
DOCKED: ATOM     15  P   UNL d   1       2.990 -19.171  16.042 -0.10 -0.01    +0.473 P 
DOCKED: ATOM     16  O   UNL d   1       3.501 -18.110  15.118 -0.18 -0.03    -0.228 OA
DOCKED: BRANCH  15  17
DOCKED: ATOM     17  O   UNL d   1       1.504 -18.890  16.543 -0.21 +0.11    -0.303 OA
DOCKED: ATOM     18  H   UNL d   1       1.066 -19.716  16.825 -0.35 -0.21    +0.222 HD
DOCKED: ENDBRANCH  15  17
DOCKED: BRANCH  15  19
DOCKED: ATOM     19  O   UNL d   1       3.771 -19.312  17.421 -0.05 -0.04    -0.303 OA
DOCKED: ATOM     20  H   UNL d   1       4.726 -19.447  17.282 +0.05 +0.04    +0.222 HD
DOCKED: ENDBRANCH  15  19
DOCKED: ENDBRANCH  14  15
DOCKED: ENDBRANCH   2  14
DOCKED: BRANCH   6  21
DOCKED: ATOM     21  O   UNL d   1       0.531 -24.208  15.817 -0.10 +0.11    -0.278 OA
DOCKED: BRANCH  21  22
DOCKED: ATOM     22  P   UNL d   1       0.918 -25.410  16.792 -0.00 -0.07    +0.473 P 
DOCKED: ATOM     23  O   UNL d   1       0.033 -25.683  17.961 -0.01 +0.03    -0.228 OA
DOCKED: BRANCH  22  24
DOCKED: ATOM     24  O   UNL d   1       1.067 -26.622  15.771 -0.00 +0.03    -0.303 OA
DOCKED: ATOM     25  H   UNL d   1       1.735 -26.367  15.085 +0.02 -0.02    +0.222 HD
DOCKED: ENDBRANCH  22  24
DOCKED: BRANCH  22  26
DOCKED: ATOM     26  O   UNL d   1       2.448 -25.074  17.132 -0.00 +0.02    -0.303 OA
DOCKED: ATOM     27  H   UNL d   1       3.021 -25.782  16.773 +0.02 -0.01    +0.222 HD
DOCKED: ENDBRANCH  22  26
DOCKED: ENDBRANCH  21  22
DOCKED: ENDBRANCH   6  21
DOCKED: BRANCH   3  28
DOCKED: ATOM     28  O   UNL d   1       5.384 -21.657  15.273 -0.03 -0.03    -0.278 OA
DOCKED: BRANCH  28  29
DOCKED: ATOM     29  P   UNL d   1       6.414 -20.987  16.287 +0.02 +0.12    +0.473 P 
DOCKED: ATOM     30  O   UNL d   1       7.830 -21.409  16.134 +0.00 -0.07    -0.228 OA
DOCKED: BRANCH  29  31
DOCKED: ATOM     31  O   UNL d   1       6.086 -19.441  16.038 -0.00 -0.10    -0.303 OA
DOCKED: ATOM     32  H   UNL d   1       5.161 -19.366  15.707 +0.05 +0.06    +0.222 HD
DOCKED: ENDBRANCH  29  31
DOCKED: BRANCH  29  33
DOCKED: ATOM     33  O   UNL d   1       5.727 -21.270  17.695 -0.00 -0.05    -0.303 OA
DOCKED: ATOM     34  H   UNL d   1       5.552 -20.408  18.147 +0.03 +0.05    +0.222 HD
DOCKED: ENDBRANCH  29  33
DOCKED: ENDBRANCH  28  29
DOCKED: ENDBRANCH   3  28
DOCKED: BRANCH   5  35
DOCKED: ATOM     35  O   UNL d   1       2.169 -24.426  13.409 -0.25 +0.04    -0.278 OA
DOCKED: BRANCH  35  36
DOCKED: ATOM     36  P   UNL d   1       2.468 -25.860  12.778 -0.04 -0.01    +0.473 P 
DOCKED: ATOM     37  O   UNL d   1       2.055 -27.031  13.613 -0.02 +0.01    -0.228 OA
DOCKED: BRANCH  36  38
DOCKED: ATOM     38  O   UNL d   1       1.721 -25.760  11.375 -0.22 +0.03    -0.303 OA
DOCKED: ATOM     39  H   UNL d   1       1.106 -24.996  11.392 -0.51 -0.11    +0.222 HD
DOCKED: ENDBRANCH  36  38
DOCKED: BRANCH  36  40
DOCKED: ATOM     40  O   UNL d   1       4.009 -25.751  12.400 -0.37 -0.03    -0.303 OA
DOCKED: ATOM     41  H   UNL d   1       4.585 -26.101  13.115 +0.02 +0.01    +0.222 HD
DOCKED: ENDBRANCH  36  40
DOCKED: ENDBRANCH  35  36
DOCKED: ENDBRANCH   5  35
DOCKED: BRANCH   4  42
DOCKED: ATOM     42  O   UNL d   1       4.956 -24.315  14.255 -0.03 -0.01    -0.278 OA
DOCKED: BRANCH  42  43
DOCKED: ATOM     43  P   UNL d   1       5.156 -25.523  15.277 +0.01 +0.02    +0.473 P 
DOCKED: ATOM     44  O   UNL d   1       5.273 -25.186  16.723 -0.00 -0.01    -0.228 OA
DOCKED: BRANCH  43  45
DOCKED: ATOM     45  O   UNL d   1       3.934 -26.481  14.929 -0.00 -0.00    -0.303 OA
DOCKED: ATOM     46  H   UNL d   1       3.094 -26.136  15.291 +0.02 -0.01    +0.222 HD
DOCKED: ENDBRANCH  43  45
DOCKED: BRANCH  43  47
DOCKED: ATOM     47  O   UNL d   1       6.392 -26.330  14.652 +0.00 -0.02    -0.303 OA
DOCKED: ATOM     48  H   UNL d   1       6.232 -26.476  13.697 +0.01 +0.01    +0.222 HD
DOCKED: ENDBRANCH  43  47
DOCKED: ENDBRANCH  42  43
DOCKED: ENDBRANCH   4  42
DOCKED: TORSDOF 24
DOCKED: TER
DOCKED: ENDMDL
________________________________________________________________________________

DPF> analysis                             # perform a ranked cluster analysis


		CLUSTER ANALYSIS OF CONFORMATIONS
		_________________________________

Number of conformations = 100

RMSD cluster analysis will be performed using the ligand atoms only (48 / 48 total atoms).

Outputting structurally similar clusters, ranked in order of increasing energy.


________________________________________________________________________________

Number of distinct conformational clusters found = 97,  out of 100 runs,
Using an rmsd-tolerance of 2.0 A


	CLUSTERING HISTOGRAM
	____________________

________________________________________________________________________________
     |           |     |           |     |                                    
Clus | Lowest    | Run | Mean      | Num | Histogram                          
-ter | Binding   |     | Binding   | in  |                                    
Rank | Energy    |     | Energy    | Clus|    5    10   15   20   25   30   35
_____|___________|_____|___________|_____|____:____|____:____|____:____|____:___
   1 |     -0.04 |  59 |     -0.04 |   1 |#
   2 |     +0.10 |  52 |     +0.53 |   2 |##
   3 |     +0.31 |  69 |     +0.31 |   1 |#
   4 |     +0.44 |  75 |     +0.44 |   1 |#
   5 |     +0.99 |  58 |     +0.99 |   1 |#
   6 |     +1.14 |  43 |     +2.63 |   2 |##
   7 |     +1.31 |  12 |     +1.31 |   1 |#
   8 |     +1.32 |  67 |     +1.32 |   1 |#
   9 |     +1.43 |  39 |     +1.43 |   1 |#
  10 |     +1.78 |  89 |     +1.78 |   1 |#
  11 |     +1.82 |   3 |     +1.82 |   1 |#
  12 |     +1.83 |  25 |     +1.83 |   1 |#
  13 |     +1.98 |  51 |     +1.98 |   1 |#
  14 |     +1.99 |  83 |     +1.99 |   1 |#
  15 |     +2.10 |  48 |     +2.10 |   1 |#
  16 |     +2.18 |  63 |     +2.18 |   1 |#
  17 |     +2.19 |  38 |     +2.19 |   1 |#
  18 |     +2.21 |  68 |     +2.21 |   1 |#
  19 |     +2.21 |  79 |     +2.21 |   1 |#
  20 |     +2.22 |  61 |     +2.22 |   1 |#
  21 |     +2.29 |  66 |     +2.29 |   1 |#
  22 |     +2.30 |  46 |     +2.30 |   1 |#
  23 |     +2.32 |   8 |     +2.32 |   1 |#
  24 |     +2.35 |   7 |     +2.35 |   1 |#
  25 |     +2.38 |  40 |     +2.38 |   1 |#
  26 |     +2.46 |  53 |     +2.46 |   1 |#
  27 |     +2.47 |   9 |     +2.47 |   1 |#
  28 |     +2.47 |  32 |     +2.47 |   1 |#
  29 |     +2.49 |  34 |     +2.49 |   1 |#
  30 |     +2.49 |   1 |     +3.15 |   2 |##
  31 |     +2.54 |  72 |     +2.54 |   1 |#
  32 |     +2.57 |  42 |     +2.57 |   1 |#
  33 |     +2.58 |  27 |     +2.58 |   1 |#
  34 |     +2.60 |  93 |     +2.60 |   1 |#
  35 |     +2.61 |  28 |     +2.61 |   1 |#
  36 |     +2.63 |  45 |     +2.63 |   1 |#
  37 |     +2.63 |  16 |     +2.63 |   1 |#
  38 |     +2.63 |  82 |     +2.63 |   1 |#
  39 |     +2.68 |  98 |     +2.68 |   1 |#
  40 |     +2.71 |   5 |     +2.71 |   1 |#
  41 |     +2.79 |  97 |     +2.79 |   1 |#
  42 |     +2.90 |  14 |     +2.90 |   1 |#
  43 |     +2.97 |  29 |     +2.97 |   1 |#
  44 |     +3.07 |  36 |     +3.07 |   1 |#
  45 |     +3.15 |  76 |     +3.15 |   1 |#
  46 |     +3.16 |  37 |     +3.16 |   1 |#
  47 |     +3.18 | 100 |     +3.18 |   1 |#
  48 |     +3.22 |  18 |     +3.22 |   1 |#
  49 |     +3.27 |  84 |     +3.27 |   1 |#
  50 |     +3.28 |  92 |     +3.28 |   1 |#
  51 |     +3.30 |  19 |     +3.30 |   1 |#
  52 |     +3.35 |  57 |     +3.35 |   1 |#
  53 |     +3.42 |  44 |     +3.42 |   1 |#
  54 |     +3.43 |  94 |     +3.43 |   1 |#
  55 |     +3.44 |  55 |     +3.44 |   1 |#
  56 |     +3.48 |   6 |     +3.48 |   1 |#
  57 |     +3.49 |  22 |     +3.49 |   1 |#
  58 |     +3.49 |  31 |     +3.49 |   1 |#
  59 |     +3.57 |  23 |     +3.57 |   1 |#
  60 |     +3.62 |  26 |     +3.62 |   1 |#
  61 |     +3.64 |  77 |     +3.64 |   1 |#
  62 |     +3.66 |  56 |     +3.66 |   1 |#
  63 |     +3.67 |  30 |     +3.67 |   1 |#
  64 |     +3.72 |  96 |     +3.72 |   1 |#
  65 |     +3.73 |  15 |     +3.73 |   1 |#
  66 |     +3.74 |  65 |     +3.74 |   1 |#
  67 |     +3.78 |  24 |     +3.78 |   1 |#
  68 |     +3.81 |  85 |     +3.81 |   1 |#
  69 |     +3.85 |  62 |     +3.85 |   1 |#
  70 |     +3.88 |   2 |     +3.88 |   1 |#
  71 |     +3.89 |   4 |     +3.89 |   1 |#
  72 |     +3.93 |  91 |     +3.93 |   1 |#
  73 |     +4.01 |  20 |     +4.01 |   1 |#
  74 |     +4.03 |  81 |     +4.03 |   1 |#
  75 |     +4.04 |  86 |     +4.04 |   1 |#
  76 |     +4.07 |  78 |     +4.07 |   1 |#
  77 |     +4.09 |  70 |     +4.09 |   1 |#
  78 |     +4.10 |  87 |     +4.10 |   1 |#
  79 |     +4.11 |  54 |     +4.11 |   1 |#
  80 |     +4.21 |  60 |     +4.21 |   1 |#
  81 |     +4.21 |  33 |     +4.21 |   1 |#
  82 |     +4.24 |  35 |     +4.24 |   1 |#
  83 |     +4.26 |  90 |     +4.26 |   1 |#
  84 |     +4.33 |  50 |     +4.33 |   1 |#
  85 |     +4.38 |  80 |     +4.38 |   1 |#
  86 |     +4.43 |  17 |     +4.43 |   1 |#
  87 |     +4.54 |  47 |     +4.54 |   1 |#
  88 |     +4.57 |  49 |     +4.57 |   1 |#
  89 |     +4.57 |  99 |     +4.57 |   1 |#
  90 |     +4.57 |  95 |     +4.57 |   1 |#
  91 |     +4.70 |  88 |     +4.70 |   1 |#
  92 |     +4.76 |  73 |     +4.76 |   1 |#
  93 |     +4.80 |  13 |     +4.80 |   1 |#
  94 |     +4.90 |  64 |     +4.90 |   1 |#
  95 |     +4.95 |  11 |     +4.95 |   1 |#
  96 |     +5.01 |  41 |     +5.01 |   1 |#
  97 |     +5.46 |  21 |     +5.46 |   1 |#
_____|___________|_____|___________|_____|______________________________________


Number of multi-member conformational clusters found = 3, out of 100 runs.

	RMSD TABLE
	__________

_____________________________________________________________________
     |      |      |           |         |                 |
Rank | Sub- | Run  | Binding   | Cluster | Reference       | Grep
     | Rank |      | Energy    | RMSD    | RMSD            | Pattern
_____|______|______|___________|_________|_________________|___________
   1      1     59       -0.04      0.00     26.93           RANKING
   2      1     52       +0.10      0.00     21.79           RANKING
   2      2     10       +0.96      1.70     22.07           RANKING
   3      1     69       +0.31      0.00     37.53           RANKING
   4      1     75       +0.44      0.00     16.12           RANKING
   5      1     58       +0.99      0.00     17.10           RANKING
   6      1     43       +1.14      0.00     30.79           RANKING
   6      2     71       +4.12      1.98     31.75           RANKING
   7      1     12       +1.31      0.00     35.22           RANKING
   8      1     67       +1.32      0.00     41.56           RANKING
   9      1     39       +1.43      0.00     37.86           RANKING
  10      1     89       +1.78      0.00     13.28           RANKING
  11      1      3       +1.82      0.00     13.93           RANKING
  12      1     25       +1.83      0.00     32.25           RANKING
  13      1     51       +1.98      0.00     25.18           RANKING
  14      1     83       +1.99      0.00     46.57           RANKING
  15      1     48       +2.10      0.00     41.45           RANKING
  16      1     63       +2.18      0.00     13.93           RANKING
  17      1     38       +2.19      0.00     28.63           RANKING
  18      1     68       +2.21      0.00     13.43           RANKING
  19      1     79       +2.21      0.00     27.34           RANKING
  20      1     61       +2.22      0.00     13.81           RANKING
  21      1     66       +2.29      0.00     17.98           RANKING
  22      1     46       +2.30      0.00     30.24           RANKING
  23      1      8       +2.32      0.00     28.17           RANKING
  24      1      7       +2.35      0.00     42.27           RANKING
  25      1     40       +2.38      0.00     20.60           RANKING
  26      1     53       +2.46      0.00     20.84           RANKING
  27      1      9       +2.47      0.00     31.83           RANKING
  28      1     32       +2.47      0.00     22.40           RANKING
  29      1     34       +2.49      0.00     19.83           RANKING
  30      1      1       +2.49      0.00     23.36           RANKING
  30      2     74       +3.80      1.85     23.64           RANKING
  31      1     72       +2.54      0.00     20.33           RANKING
  32      1     42       +2.57      0.00     37.54           RANKING
  33      1     27       +2.58      0.00     19.83           RANKING
  34      1     93       +2.60      0.00     14.70           RANKING
  35      1     28       +2.61      0.00     15.80           RANKING
  36      1     45       +2.63      0.00     21.73           RANKING
  37      1     16       +2.63      0.00     40.74           RANKING
  38      1     82       +2.63      0.00     45.72           RANKING
  39      1     98       +2.68      0.00     38.92           RANKING
  40      1      5       +2.71      0.00     41.04           RANKING
  41      1     97       +2.79      0.00     28.95           RANKING
  42      1     14       +2.90      0.00     39.56           RANKING
  43      1     29       +2.97      0.00     34.20           RANKING
  44      1     36       +3.07      0.00     52.83           RANKING
  45      1     76       +3.15      0.00     34.81           RANKING
  46      1     37       +3.16      0.00     30.41           RANKING
  47      1    100       +3.18      0.00     25.17           RANKING
  48      1     18       +3.22      0.00     27.88           RANKING
  49      1     84       +3.27      0.00     14.64           RANKING
  50      1     92       +3.28      0.00     28.78           RANKING
  51      1     19       +3.30      0.00     29.51           RANKING
  52      1     57       +3.35      0.00     34.29           RANKING
  53      1     44       +3.42      0.00     28.05           RANKING
  54      1     94       +3.43      0.00     28.42           RANKING
  55      1     55       +3.44      0.00     50.71           RANKING
  56      1      6       +3.48      0.00     39.63           RANKING
  57      1     22       +3.49      0.00     22.02           RANKING
  58      1     31       +3.49      0.00     53.24           RANKING
  59      1     23       +3.57      0.00     43.77           RANKING
  60      1     26       +3.62      0.00     17.83           RANKING
  61      1     77       +3.64      0.00     40.76           RANKING
  62      1     56       +3.66      0.00     39.90           RANKING
  63      1     30       +3.67      0.00     13.34           RANKING
  64      1     96       +3.72      0.00     34.84           RANKING
  65      1     15       +3.73      0.00     20.96           RANKING
  66      1     65       +3.74      0.00     43.23           RANKING
  67      1     24       +3.78      0.00     12.30           RANKING
  68      1     85       +3.81      0.00     26.49           RANKING
  69      1     62       +3.85      0.00     27.14           RANKING
  70      1      2       +3.88      0.00     12.47           RANKING
  71      1      4       +3.89      0.00     36.74           RANKING
  72      1     91       +3.93      0.00     35.18           RANKING
  73      1     20       +4.01      0.00     49.60           RANKING
  74      1     81       +4.03      0.00     36.34           RANKING
  75      1     86       +4.04      0.00     34.34           RANKING
  76      1     78       +4.07      0.00     38.43           RANKING
  77      1     70       +4.09      0.00     52.66           RANKING
  78      1     87       +4.10      0.00     41.84           RANKING
  79      1     54       +4.11      0.00     18.83           RANKING
  80      1     60       +4.21      0.00     17.81           RANKING
  81      1     33       +4.21      0.00     51.09           RANKING
  82      1     35       +4.24      0.00     22.29           RANKING
  83      1     90       +4.26      0.00     29.13           RANKING
  84      1     50       +4.33      0.00     43.75           RANKING
  85      1     80       +4.38      0.00     13.77           RANKING
  86      1     17       +4.43      0.00     17.90           RANKING
  87      1     47       +4.54      0.00     29.89           RANKING
  88      1     49       +4.57      0.00     38.98           RANKING
  89      1     99       +4.57      0.00     35.47           RANKING
  90      1     95       +4.57      0.00     23.23           RANKING
  91      1     88       +4.70      0.00     39.98           RANKING
  92      1     73       +4.76      0.00     44.28           RANKING
  93      1     13       +4.80      0.00     40.67           RANKING
  94      1     64       +4.90      0.00     42.19           RANKING
  95      1     11       +4.95      0.00     40.69           RANKING
  96      1     41       +5.01      0.00     13.35           RANKING
  97      1     21       +5.46      0.00     45.80           RANKING
_______________________________________________________________________



	INFORMATION ENTROPY ANALYSIS FOR THIS CLUSTERING
	________________________________________________


Information entropy for this clustering = 0.99  (rmstol = 2.00 Angstrom)

_______________________________________________________________________


	STATISTICAL MECHANICAL ANALYSIS
	_______________________________


Partition function, Q =    99.48            at Temperature, T = 298.15 K
Free energy,        A ~ -2725.37 kcal/mol   at Temperature, T = 298.15 K
Internal energy,    U =     3.11 kcal/mol   at Temperature, T = 298.15 K
Entropy,            S =     9.15 kcal/mol/K at Temperature, T = 298.15 K

_______________________________________________________________________


	LOWEST ENERGY DOCKED CONFORMATION from EACH CLUSTER
	___________________________________________________



Keeping original residue number (specified in the input PDBQ file) for outputting.

MODEL       59
USER    Run = 59
USER    Cluster Rank = 1
USER    Number of conformations in this cluster = 1
USER  
USER    RMSD from reference structure       = 26.929 A
USER  
USER    Estimated Free Energy of Binding    =   -0.04 kcal/mol  [=(1)+(2)+(3)-(4)]
USER    Estimated Inhibition Constant, Ki   =  938.52 mM (millimolar)  [Temperature = 298.15 K]
USER    
USER    (1) Final Intermolecular Energy     =   -7.20 kcal/mol
USER        vdW + Hbond + desolv Energy     =   -6.89 kcal/mol
USER        Electrostatic Energy            =   -0.31 kcal/mol
USER    (2) Final Total Internal Energy     =  -13.43 kcal/mol
USER    (3) Torsional Free Energy           =   +7.16 kcal/mol
USER    (4) Unbound System's Energy  [=(2)] =  -13.43 kcal/mol
USER    
USER    
USER  
USER    DPF = D:/Protein_go_brrr/autodock/final/1A3N/IHP/dock.dpf
USER    NEWDPF move	IHP_ideal_opt.pdbqt
USER    NEWDPF about	0.035000 0.082000 -0.065000
USER    NEWDPF tran0	18.401359 -19.091128 15.571192
USER    NEWDPF axisangle0	-0.597116 0.706155 0.380523 172.104380
USER    NEWDPF quaternion0	-0.595699 0.704479 0.379620 0.068848
USER    NEWDPF dihe0	-143.80 27.98 161.05 4.97 -95.44 -164.66 26.21 -101.86 33.17 102.22 129.11 -166.22 26.66 34.11 178.12 109.14 -1.96 136.57 -130.51 -31.49 -176.13 -37.26 158.32 -15.74 
USER  
USER                              x       y       z    vdW   Elec        q     RMS 
ATOM      1  C   UNL d   1      18.314 -19.852  14.023 -0.10 +0.02    +0.194    26.929
ATOM      2  C   UNL d   1      19.500 -18.908  14.229 -0.16 +0.02    +0.194    26.929
ATOM      3  C   UNL d   1      19.081 -17.618  14.939 -0.12 +0.03    +0.194    26.929
ATOM      4  C   UNL d   1      18.309 -17.867  16.232 -0.12 +0.05    +0.194    26.929
ATOM      5  C   UNL d   1      17.188 -18.890  16.099 -0.07 +0.06    +0.194    26.929
ATOM      6  C   UNL d   1      17.590 -20.154  15.335 -0.06 +0.02    +0.194    26.929
ATOM      7  O   UNL d   1      18.814 -21.092  13.517 -0.10 +0.01    -0.278    26.929
ATOM      8  P   UNL d   1      18.841 -22.355  14.495 -0.10 -0.13    +0.473    26.929
ATOM      9  O   UNL d   1      17.530 -23.031  14.689 -0.06 +0.03    -0.228    26.929
ATOM     10  O   UNL d   1      19.952 -23.309  13.863 -0.05 +0.26    -0.303    26.929
ATOM     11  H   UNL d   1      20.803 -22.835  13.817 -0.33 -0.30    +0.222    26.929
ATOM     12  O   UNL d   1      19.558 -21.839  15.816 -0.23 +0.11    -0.303    26.929
ATOM     13  H   UNL d   1      20.059 -21.003  15.681 +0.01 -0.07    +0.222    26.929
ATOM     14  O   UNL d   1      20.489 -19.568  15.029 -0.19 +0.03    -0.278    26.929
ATOM     15  P   UNL d   1      21.735 -20.201  14.248 -0.28 -0.07    +0.473    26.929
ATOM     16  O   UNL d   1      22.920 -19.311  14.041 -0.50 -0.04    -0.228    26.929
ATOM     17  O   UNL d   1      22.087 -21.514  15.079 +0.30 +0.28    -0.303    26.929
ATOM     18  H   UNL d   1      21.361 -22.166  15.030 -0.49 -0.38    +0.222    26.929
ATOM     19  O   UNL d   1      21.103 -20.819  12.926 -0.26 +0.01    -0.303    26.929
ATOM     20  H   UNL d   1      20.379 -21.441  13.129 +0.09 -0.05    +0.222    26.929
ATOM     21  O   UNL d   1      16.383 -20.835  15.001 -0.01 -0.05    -0.278    26.929
ATOM     22  P   UNL d   1      15.541 -20.373  13.727 +0.01 +0.11    +0.473    26.929
ATOM     23  O   UNL d   1      14.067 -20.601  13.736 -0.01 -0.08    -0.228    26.929
ATOM     24  O   UNL d   1      15.980 -18.850  13.581 -0.01 -0.09    -0.303    26.929
ATOM     25  H   UNL d   1      15.307 -18.388  13.019 +0.04 +0.08    +0.222    26.929
ATOM     26  O   UNL d   1      16.352 -21.067  12.531 -0.06 -0.04    -0.303    26.929
ATOM     27  H   UNL d   1      16.878 -21.812  12.889 +0.04 +0.01    +0.222    26.929
ATOM     28  O   UNL d   1      20.267 -16.941  15.332 -0.15 -0.04    -0.278    26.929
ATOM     29  P   UNL d   1      21.172 -16.207  14.245 -0.23 +0.06    +0.473    26.929
ATOM     30  O   UNL d   1      20.737 -14.837  13.870 -0.30 -0.02    -0.228    26.929
ATOM     31  O   UNL d   1      22.609 -16.349  14.936 -0.28 -0.03    -0.303    26.929
ATOM     32  H   UNL d   1      22.936 -17.267  14.793 +0.18 +0.03    +0.222    26.929
ATOM     33  O   UNL d   1      21.235 -17.288  13.078 -0.28 -0.08    -0.303    26.929
ATOM     34  H   UNL d   1      21.375 -18.182  13.475 +0.12 +0.06    +0.222    26.929
ATOM     35  O   UNL d   1      16.867 -19.288  17.430 -0.12 -0.11    -0.278    26.929
ATOM     36  P   UNL d   1      17.881 -20.193  18.266 -0.27 +0.13    +0.473    26.929
ATOM     37  O   UNL d   1      19.324 -19.817  18.153 -0.98 -0.05    -0.228    26.929
ATOM     38  O   UNL d   1      17.287 -20.073  19.738 -0.87 -0.18    -0.303    26.929
ATOM     39  H   UNL d   1      16.948 -19.162  19.875 +0.11 +0.19    +0.222    26.929
ATOM     40  O   UNL d   1      17.479 -21.663  17.810 -0.17 -0.01    -0.303    26.929
ATOM     41  H   UNL d   1      17.598 -21.789  16.842 +0.07 -0.01    +0.222    26.929
ATOM     42  O   UNL d   1      17.702 -16.623  16.599 -0.10 -0.10    -0.278    26.929
ATOM     43  P   UNL d   1      17.949 -16.048  18.066 -0.26 +0.18    +0.473    26.929
ATOM     44  O   UNL d   1      17.260 -14.778  18.430 -0.42 -0.10    -0.228    26.929
ATOM     45  O   UNL d   1      17.569 -17.284  18.994 -0.39 -0.16    -0.303    26.929
ATOM     46  H   UNL d   1      18.092 -18.078  18.763 +0.12 +0.11    +0.222    26.929
ATOM     47  O   UNL d   1      19.547 -16.028  18.188 -0.03 -0.08    -0.303    26.929
ATOM     48  H   UNL d   1      19.940 -16.165  17.301 +0.16 +0.06    +0.222    26.929
TER
ENDMDL
MODEL       52
USER    Run = 52
USER    Cluster Rank = 2
USER    Number of conformations in this cluster = 2
USER  
USER    RMSD from reference structure       = 21.790 A
USER  
USER    Estimated Free Energy of Binding    =   +0.10 kcal/mol  [=(1)+(2)+(3)-(4)]
USER    
USER    (1) Final Intermolecular Energy     =   -7.06 kcal/mol
USER        vdW + Hbond + desolv Energy     =   -6.58 kcal/mol
USER        Electrostatic Energy            =   -0.48 kcal/mol
USER    (2) Final Total Internal Energy     =  -13.27 kcal/mol
USER    (3) Torsional Free Energy           =   +7.16 kcal/mol
USER    (4) Unbound System's Energy  [=(2)] =  -13.27 kcal/mol
USER    
USER    
USER  
USER    DPF = D:/Protein_go_brrr/autodock/final/1A3N/IHP/dock.dpf
USER    NEWDPF move	IHP_ideal_opt.pdbqt
USER    NEWDPF about	0.035000 0.082000 -0.065000
USER    NEWDPF tran0	3.880868 -18.962098 15.535016
USER    NEWDPF axisangle0	0.924164 -0.131204 -0.358758 -153.621583
USER    NEWDPF quaternion0	0.899786 -0.127743 -0.349295 -0.228167
USER    NEWDPF dihe0	-110.20 35.62 173.32 -1.82 -56.59 -133.73 20.42 -162.91 -7.49 53.91 155.88 125.45 27.70 86.80 -2.62 -114.67 -146.13 113.82 13.70 -44.20 -31.79 49.09 159.44 -40.94 
USER  
USER                              x       y       z    vdW   Elec        q     RMS 
ATOM      1  C   UNL d   1       4.307 -18.938  13.861 -0.07 +0.04    +0.194    21.790
ATOM      2  C   UNL d   1       3.714 -17.639  14.411 -0.20 +0.04    +0.194    21.790
ATOM      3  C   UNL d   1       2.514 -17.905  15.322 -0.20 -0.00    +0.194    21.790
ATOM      4  C   UNL d   1       2.810 -18.918  16.426 -0.19 -0.00    +0.194    21.790
ATOM      5  C   UNL d   1       3.506 -20.182  15.938 -0.13 -0.01    +0.194    21.790
ATOM      6  C   UNL d   1       4.668 -19.918  14.978 -0.09 +0.02    +0.194    21.790
ATOM      7  O   UNL d   1       5.515 -18.617  13.168 -0.15 -0.19    -0.278    21.790
ATOM      8  P   UNL d   1       5.527 -18.724  11.574 -0.30 +0.47    +0.473    21.790
ATOM      9  O   UNL d   1       4.908 -17.574  10.860 -0.99 -0.28    -0.228    21.790
ATOM     10  O   UNL d   1       7.066 -18.933  11.211 -0.50 -0.50    -0.303    21.790
ATOM     11  H   UNL d   1       7.265 -19.887  11.167 +0.07 +0.22    +0.222    21.790
ATOM     12  O   UNL d   1       4.912 -20.153  11.251 -0.35 -0.16    -0.303    21.790
ATOM     13  H   UNL d   1       4.801 -20.715  12.051 -0.13 +0.04    +0.222    21.790
ATOM     14  O   UNL d   1       4.718 -16.951  15.168 -0.04 -0.11    -0.278    21.790
ATOM     15  P   UNL d   1       5.679 -15.965  14.352 -0.01 +0.34    +0.473    21.790
ATOM     16  O   UNL d   1       6.073 -14.692  15.035 -0.04 -0.14    -0.228    21.790
ATOM     17  O   UNL d   1       6.931 -16.872  13.969 -0.08 -0.40    -0.303    21.790
ATOM     18  H   UNL d   1       6.722 -17.461  13.218 +0.06 +0.35    +0.222    21.790
ATOM     19  O   UNL d   1       4.965 -15.793  12.941 -0.14 -0.23    -0.303    21.790
ATOM     20  H   UNL d   1       4.890 -16.643  12.469 +0.12 +0.19    +0.222    21.790
ATOM     21  O   UNL d   1       4.980 -21.163  14.357 -0.09 -0.02    -0.278    21.790
ATOM     22  P   UNL d   1       6.502 -21.626  14.234 +0.00 +0.12    +0.473    21.790
ATOM     23  O   UNL d   1       7.474 -21.131  15.251 -0.00 -0.08    -0.228    21.790
ATOM     24  O   UNL d   1       6.356 -23.209  14.165 -0.01 -0.04    -0.303    21.790
ATOM     25  H   UNL d   1       6.885 -23.600  14.906 +0.01 +0.03    +0.222    21.790
ATOM     26  O   UNL d   1       6.832 -21.257  12.709 -0.04 -0.13    -0.303    21.790
ATOM     27  H   UNL d   1       6.590 -20.324  12.544 +0.07 +0.13    +0.222    21.790
ATOM     28  O   UNL d   1       2.210 -16.691  15.997 -0.21 -0.04    -0.278    21.790
ATOM     29  P   UNL d   1       0.769 -16.465  16.637 -0.30 +0.15    +0.473    21.790
ATOM     30  O   UNL d   1       0.210 -15.097  16.488 -0.73 -0.10    -0.228    21.790
ATOM     31  O   UNL d   1      -0.037 -17.659  15.939 -0.66 +0.01    -0.303    21.790
ATOM     32  H   UNL d   1       0.259 -18.511  16.336 -0.39 -0.19    +0.222    21.790
ATOM     33  O   UNL d   1       0.976 -17.001  18.122 -0.46 -0.13    -0.303    21.790
ATOM     34  H   UNL d   1       0.556 -17.892  18.203 +0.09 +0.07    +0.222    21.790
ATOM     35  O   UNL d   1       4.055 -20.796  17.102 -0.03 -0.01    -0.278    21.790
ATOM     36  P   UNL d   1       5.288 -20.125  17.860 +0.02 +0.10    +0.473    21.790
ATOM     37  O   UNL d   1       6.623 -20.744  17.593 -0.00 -0.06    -0.228    21.790
ATOM     38  O   UNL d   1       5.167 -18.606  17.398 -0.02 -0.09    -0.303    21.790
ATOM     39  H   UNL d   1       5.514 -18.520  16.484 +0.05 +0.07    +0.222    21.790
ATOM     40  O   UNL d   1       4.790 -20.106  19.370 -0.04 -0.05    -0.303    21.790
ATOM     41  H   UNL d   1       3.987 -20.659  19.495 +0.04 +0.02    +0.222    21.790
ATOM     42  O   UNL d   1       1.548 -19.317  16.972 -0.18 +0.11    -0.278    21.790
ATOM     43  P   UNL d   1       1.482 -19.797  18.492 -0.10 -0.04    +0.473    21.790
ATOM     44  O   UNL d   1       0.155 -19.757  19.168 -0.25 -0.02    -0.228    21.790
ATOM     45  O   UNL d   1       2.137 -21.245  18.429 -0.06 +0.03    -0.303    21.790
ATOM     46  H   UNL d   1       3.114 -21.198  18.453 +0.05 -0.00    +0.222    21.790
ATOM     47  O   UNL d   1       2.643 -18.944  19.195 -0.01 -0.06    -0.303    21.790
ATOM     48  H   UNL d   1       3.488 -19.101  18.726 +0.06 +0.04    +0.222    21.790
TER
ENDMDL
MODEL       69
USER    Run = 69
USER    Cluster Rank = 3
USER    Number of conformations in this cluster = 1
USER  
USER    RMSD from reference structure       = 37.531 A
USER  
USER    Estimated Free Energy of Binding    =   +0.31 kcal/mol  [=(1)+(2)+(3)-(4)]
USER    
USER    (1) Final Intermolecular Energy     =   -6.85 kcal/mol
USER        vdW + Hbond + desolv Energy     =   -6.58 kcal/mol
USER        Electrostatic Energy            =   -0.27 kcal/mol
USER    (2) Final Total Internal Energy     =  -11.87 kcal/mol
USER    (3) Torsional Free Energy           =   +7.16 kcal/mol
USER    (4) Unbound System's Energy  [=(2)] =  -11.87 kcal/mol
USER    
USER    
USER  
USER    DPF = D:/Protein_go_brrr/autodock/final/1A3N/IHP/dock.dpf
USER    NEWDPF move	IHP_ideal_opt.pdbqt
USER    NEWDPF about	0.035000 0.082000 -0.065000
USER    NEWDPF tran0	10.128958 26.080480 29.555278
USER    NEWDPF axisangle0	-0.315296 0.811791 -0.491511 -161.398733
USER    NEWDPF quaternion0	-0.311151 0.801119 -0.485050 -0.161615
USER    NEWDPF dihe0	-167.05 129.61 137.87 105.12 -180.00 121.53 -46.53 33.12 -18.28 -25.67 -7.92 -149.52 -117.70 67.39 48.95 130.01 180.00 -5.00 53.93 13.33 -168.55 -6.05 -30.83 164.84 
USER  
USER                              x       y       z    vdW   Elec        q     RMS 
ATOM      1  C   UNL d   1       9.931  24.426  30.011 -0.07 +0.01    +0.194    37.531
ATOM      2  C   UNL d   1      10.940  25.223  30.839 -0.03 +0.01    +0.194    37.531
ATOM      3  C   UNL d   1      11.822  26.110  29.957 -0.04 +0.01    +0.194    37.531
ATOM      4  C   UNL d   1      11.023  26.999  29.008 -0.06 -0.00    +0.194    37.531
ATOM      5  C   UNL d   1       9.928  26.266  28.245 -0.12 -0.01    +0.194    37.531
ATOM      6  C   UNL d   1       9.085  25.332  29.116 -0.08 -0.00    +0.194    37.531
ATOM      7  O   UNL d   1       9.040  23.763  30.911 -0.04 -0.02    -0.278    37.531
ATOM      8  P   UNL d   1       9.615  22.577  31.814 -0.05 +0.05    +0.473    37.531
ATOM      9  O   UNL d   1      10.049  21.367  31.064 -0.19 -0.03    -0.228    37.531
ATOM     10  O   UNL d   1      10.796  23.260  32.642 -0.04 -0.02    -0.303    37.531
ATOM     11  H   UNL d   1      10.556  24.181  32.854 +0.02 +0.01    +0.222    37.531
ATOM     12  O   UNL d   1       8.516  22.341  32.936 -0.01 -0.03    -0.303    37.531
ATOM     13  H   UNL d   1       7.789  21.746  32.644 +0.03 +0.03    +0.222    37.531
ATOM     14  O   UNL d   1      10.230  26.060  31.761 -0.02 -0.01    -0.278    37.531
ATOM     15  P   UNL d   1      10.911  26.285  33.193 -0.00 +0.01    +0.473    37.531
ATOM     16  O   UNL d   1      11.181  27.701  33.594 -0.00 -0.00    -0.228    37.531
ATOM     17  O   UNL d   1       9.939  25.532  34.207 -0.00 -0.01    -0.303    37.531
ATOM     18  H   UNL d   1       9.647  24.674  33.843 +0.01 +0.01    +0.222    37.531
ATOM     19  O   UNL d   1      12.175  25.320  33.188 -0.02 -0.01    -0.303    37.531
ATOM     20  H   UNL d   1      12.674  25.384  32.352 +0.02 +0.00    +0.222    37.531
ATOM     21  O   UNL d   1       8.359  24.484  28.229 -0.12 +0.01    -0.278    37.531
ATOM     22  P   UNL d   1       9.004  23.108  27.744 -0.26 +0.01    +0.473    37.531
ATOM     23  O   UNL d   1       8.962  21.944  28.675 -0.25 -0.03    -0.228    37.531
ATOM     24  O   UNL d   1       8.268  22.876  26.352 -0.27 +0.02    -0.303    37.531
ATOM     25  H   UNL d   1       8.944  22.942  25.631 -0.40 -0.07    +0.222    37.531
ATOM     26  O   UNL d   1      10.462  23.580  27.273 -0.55 -0.02    -0.303    37.531
ATOM     27  H   UNL d   1      10.371  24.323  26.642 -0.31 -0.06    +0.222    37.531
ATOM     28  O   UNL d   1      12.522  27.004  30.813 -0.02 -0.00    -0.278    37.531
ATOM     29  P   UNL d   1      14.066  26.771  31.131 -0.01 -0.01    +0.473    37.531
ATOM     30  O   UNL d   1      15.009  27.674  30.421 -0.01 +0.01    -0.228    37.531
ATOM     31  O   UNL d   1      14.038  26.861  32.729 -0.01 +0.01    -0.303    37.531
ATOM     32  H   UNL d   1      13.102  26.943  33.022 +0.01 +0.00    +0.222    37.531
ATOM     33  O   UNL d   1      14.229  25.209  30.869 -0.05 +0.01    -0.303    37.531
ATOM     34  H   UNL d   1      14.507  25.069  29.930 +0.06 -0.01    +0.222    37.531
ATOM     35  O   UNL d   1       9.056  27.280  27.750 -0.06 +0.02    -0.278    37.531
ATOM     36  P   UNL d   1       9.167  27.768  26.236 -0.14 -0.05    +0.473    37.531
ATOM     37  O   UNL d   1       9.111  29.249  26.030 -0.10 +0.02    -0.228    37.531
ATOM     38  O   UNL d   1      10.535  27.095  25.776 -0.16 +0.09    -0.303    37.531
ATOM     39  H   UNL d   1      11.278  27.702  25.985 -0.05 -0.06    +0.222    37.531
ATOM     40  O   UNL d   1       8.050  26.897  25.514 -0.77 +0.01    -0.303    37.531
ATOM     41  H   UNL d   1       8.283  25.942  25.504 -0.45 -0.04    +0.222    37.531
ATOM     42  O   UNL d   1      11.947  27.504  28.038 -0.07 +0.01    -0.278    37.531
ATOM     43  P   UNL d   1      12.850  26.473  27.223 -0.22 -0.00    +0.473    37.531
ATOM     44  O   UNL d   1      12.205  25.214  26.757 -0.92 -0.05    -0.228    37.531
ATOM     45  O   UNL d   1      13.439  27.375  26.051 -0.24 +0.07    -0.303    37.531
ATOM     46  H   UNL d   1      12.795  27.481  25.323 -0.39 -0.13    +0.222    37.531
ATOM     47  O   UNL d   1      14.133  26.286  28.165 -0.17 -0.00    -0.303    37.531
ATOM     48  H   UNL d   1      13.868  26.414  29.100 +0.06 -0.00    +0.222    37.531
TER
ENDMDL
MODEL       75
USER    Run = 75
USER    Cluster Rank = 4
USER    Number of conformations in this cluster = 1
USER  
USER    RMSD from reference structure       = 16.115 A
USER  
USER    Estimated Free Energy of Binding    =   +0.44 kcal/mol  [=(1)+(2)+(3)-(4)]
USER    
USER    (1) Final Intermolecular Energy     =   -6.72 kcal/mol
USER        vdW + Hbond + desolv Energy     =   -6.32 kcal/mol
USER        Electrostatic Energy            =   -0.40 kcal/mol
USER    (2) Final Total Internal Energy     =  -13.19 kcal/mol
USER    (3) Torsional Free Energy           =   +7.16 kcal/mol
USER    (4) Unbound System's Energy  [=(2)] =  -13.19 kcal/mol
USER    
USER    
USER  
USER    DPF = D:/Protein_go_brrr/autodock/final/1A3N/IHP/dock.dpf
USER    NEWDPF move	IHP_ideal_opt.pdbqt
USER    NEWDPF about	0.035000 0.082000 -0.065000
USER    NEWDPF tran0	12.098275 13.233348 8.549398
USER    NEWDPF axisangle0	-0.958310 0.202318 -0.201767 -167.909450
USER    NEWDPF quaternion0	-0.952981 0.201193 -0.200645 -0.105314
USER    NEWDPF dihe0	83.24 128.16 142.72 0.97 -7.32 123.48 -24.36 -112.86 -180.00 -3.14 -101.17 137.68 -60.68 -114.42 -160.72 -31.82 -125.55 -159.85 -156.42 -2.77 1.84 140.94 -27.87 168.99 
USER  
USER                              x       y       z    vdW   Elec        q     RMS 
ATOM      1  C   UNL d   1      13.788  13.591   8.516 -0.12 +0.02    +0.194    16.115
ATOM      2  C   UNL d   1      12.859  14.799   8.649 -0.07 +0.05    +0.194    16.115
ATOM      3  C   UNL d   1      11.654  14.693   7.712 -0.11 +0.07    +0.194    16.115
ATOM      4  C   UNL d   1      10.903  13.371   7.845 -0.15 +0.08    +0.194    16.115
ATOM      5  C   UNL d   1      11.804  12.142   7.833 -0.12 +0.05    +0.194    16.115
ATOM      6  C   UNL d   1      13.042  12.273   8.723 -0.07 +0.03    +0.194    16.115
ATOM      7  O   UNL d   1      14.785  13.681   9.536 -0.10 -0.03    -0.278    16.115
ATOM      8  P   UNL d   1      14.409  13.193  11.010 -0.05 +0.02    +0.473    16.115
ATOM      9  O   UNL d   1      12.970  12.882  11.224 -0.13 -0.02    -0.228    16.115
ATOM     10  O   UNL d   1      15.367  11.942  11.259 -0.05 -0.03    -0.303    16.115
ATOM     11  H   UNL d   1      15.041  11.175  10.752 +0.06 +0.04    +0.222    16.115
ATOM     12  O   UNL d   1      15.034  14.287  11.979 -0.07 +0.02    -0.303    16.115
ATOM     13  H   UNL d   1      14.460  15.079  12.087 -0.34 -0.03    +0.222    16.115
ATOM     14  O   UNL d   1      12.383  14.876   9.998 -0.09 -0.06    -0.278    16.115
ATOM     15  P   UNL d   1      12.544  16.289  10.735 -0.14 +0.11    +0.473    16.115
ATOM     16  O   UNL d   1      13.934  16.828  10.858 -0.13 -0.05    -0.228    16.115
ATOM     17  O   UNL d   1      11.575  17.260   9.926 -0.13 -0.12    -0.303    16.115
ATOM     18  H   UNL d   1      10.701  16.847   9.783 +0.03 +0.08    +0.222    16.115
ATOM     19  O   UNL d   1      11.752  16.115  12.103 -0.19 -0.06    -0.303    16.115
ATOM     20  H   UNL d   1      10.816  15.886  11.952 -0.00 +0.03    +0.222    16.115
ATOM     21  O   UNL d   1      13.932  11.225   8.347 -0.10 -0.02    -0.278    16.115
ATOM     22  P   UNL d   1      14.017   9.901   9.233 -0.02 +0.08    +0.473    16.115
ATOM     23  O   UNL d   1      15.365   9.413   9.645 -0.09 -0.07    -0.228    16.115
ATOM     24  O   UNL d   1      13.038  10.253  10.438 -0.01 -0.06    -0.303    16.115
ATOM     25  H   UNL d   1      13.491  10.913  11.021 +0.05 +0.04    +0.222    16.115
ATOM     26  O   UNL d   1      13.131   8.877   8.375 -0.10 -0.04    -0.303    16.115
ATOM     27  H   UNL d   1      12.271   9.294   8.163 +0.09 +0.03    +0.222    16.115
ATOM     28  O   UNL d   1      10.722  15.696   8.097 -0.11 -0.16    -0.278    16.115
ATOM     29  P   UNL d   1       9.362  15.295   8.821 -0.23 +0.25    +0.473    16.115
ATOM     30  O   UNL d   1       8.489  14.357   8.069 -0.49 -0.19    -0.228    16.115
ATOM     31  O   UNL d   1       9.932  14.786  10.227 -0.24 -0.10    -0.303    16.115
ATOM     32  H   UNL d   1      10.783  15.249  10.406 +0.11 +0.06    +0.222    16.115
ATOM     33  O   UNL d   1       8.745  16.717   9.185 -0.35 -0.16    -0.303    16.115
ATOM     34  H   UNL d   1       9.415  17.237   9.693 -0.16 +0.07    +0.222    16.115
ATOM     35  O   UNL d   1      11.015  11.079   8.364 -0.11 -0.10    -0.278    16.115
ATOM     36  P   UNL d   1      10.376   9.988   7.391 -0.15 +0.16    +0.473    16.115
ATOM     37  O   UNL d   1       9.107  10.393   6.712 -0.02 -0.19    -0.228    16.115
ATOM     38  O   UNL d   1      11.584   9.690   6.397 -0.22 -0.05    -0.303    16.115
ATOM     39  H   UNL d   1      11.927   8.787   6.570 +0.14 +0.02    +0.222    16.115
ATOM     40  O   UNL d   1      10.318   8.698   8.320 -0.11 -0.04    -0.303    16.115
ATOM     41  H   UNL d   1      11.153   8.572   8.822 +0.09 +0.03    +0.222    16.115
ATOM     42  O   UNL d   1      10.037  13.269   6.709 -0.72 -0.18    -0.278    16.115
ATOM     43  P   UNL d   1      10.673  13.323   5.247 -0.27 +0.12    +0.473    16.115
ATOM     44  O   UNL d   1      10.328  14.493   4.391 -0.52 +0.02    -0.228    16.115
ATOM     45  O   UNL d   1      12.230  13.166   5.538 -0.24 -0.00    -0.303    16.115
ATOM     46  H   UNL d   1      12.759  13.273   4.722 -0.34 -0.10    +0.222    16.115
ATOM     47  O   UNL d   1      10.309  11.887   4.636 -0.40 -0.10    -0.303    16.115
ATOM     48  H   UNL d   1      10.469  11.198   5.314 +0.16 +0.08    +0.222    16.115
TER
ENDMDL
MODEL       58
USER    Run = 58
USER    Cluster Rank = 5
USER    Number of conformations in this cluster = 1
USER  
USER    RMSD from reference structure       = 17.105 A
USER  
USER    Estimated Free Energy of Binding    =   +0.99 kcal/mol  [=(1)+(2)+(3)-(4)]
USER    
USER    (1) Final Intermolecular Energy     =   -6.17 kcal/mol
USER        vdW + Hbond + desolv Energy     =   -5.45 kcal/mol
USER        Electrostatic Energy            =   -0.72 kcal/mol
USER    (2) Final Total Internal Energy     =  -12.06 kcal/mol
USER    (3) Torsional Free Energy           =   +7.16 kcal/mol
USER    (4) Unbound System's Energy  [=(2)] =  -12.06 kcal/mol
USER    
USER    
USER  
USER    DPF = D:/Protein_go_brrr/autodock/final/1A3N/IHP/dock.dpf
USER    NEWDPF move	IHP_ideal_opt.pdbqt
USER    NEWDPF about	0.035000 0.082000 -0.065000
USER    NEWDPF tran0	8.283353 19.015409 0.278657
USER    NEWDPF axisangle0	-0.982123 -0.160823 0.097828 61.670758
USER    NEWDPF quaternion0	-0.503410 -0.082433 0.050144 0.858644
USER    NEWDPF dihe0	-144.26 16.89 49.01 93.83 -13.42 149.78 -111.23 -47.28 -14.62 13.35 66.44 -52.14 29.27 -65.02 -74.20 63.73 174.44 -82.77 -133.00 -19.85 40.59 -22.59 -178.01 29.90 
USER  
USER                              x       y       z    vdW   Elec        q     RMS 
ATOM      1  C   UNL d   1       9.435  17.888  -0.343 -0.25 -0.07    +0.194    17.105
ATOM      2  C   UNL d   1       8.041  17.821  -0.969 -0.17 -0.05    +0.194    17.105
ATOM      3  C   UNL d   1       6.939  17.925   0.089 -0.11 -0.10    +0.194    17.105
ATOM      4  C   UNL d   1       7.102  19.132   1.009 -0.13 -0.05    +0.194    17.105
ATOM      5  C   UNL d   1       8.510  19.303   1.566 -0.19 -0.03    +0.194    17.105
ATOM      6  C   UNL d   1       9.614  19.138   0.520 -0.20 -0.02    +0.194    17.105
ATOM      7  O   UNL d   1      10.395  17.958  -1.400 -0.23 +0.05    -0.278    17.105
ATOM      8  P   UNL d   1      11.089  19.365  -1.702 -0.13 +0.02    +0.473    17.105
ATOM      9  O   UNL d   1      12.221  19.716  -0.802 -0.15 -0.05    -0.228    17.105
ATOM     10  O   UNL d   1      11.514  19.265  -3.236 -0.31 -0.03    -0.303    17.105
ATOM     11  H   UNL d   1      10.726  19.088  -3.783 +0.06 +0.01    +0.222    17.105
ATOM     12  O   UNL d   1       9.895  20.412  -1.756 -0.03 -0.01    -0.303    17.105
ATOM     13  H   UNL d   1       9.043  20.010  -2.041 +0.05 -0.00    +0.222    17.105
ATOM     14  O   UNL d   1       7.891  18.907  -1.892 -0.03 +0.03    -0.278    17.105
ATOM     15  P   UNL d   1       7.799  18.520  -3.443 -0.02 -0.03    +0.473    17.105
ATOM     16  O   UNL d   1       8.098  17.097  -3.799 -0.11 +0.02    -0.228    17.105
ATOM     17  O   UNL d   1       6.331  18.968  -3.869 -0.00 +0.02    -0.303    17.105
ATOM     18  H   UNL d   1       5.669  18.666  -3.218 +0.02 -0.02    +0.222    17.105
ATOM     19  O   UNL d   1       8.692  19.612  -4.178 -0.04 +0.01    -0.303    17.105
ATOM     20  H   UNL d   1       9.455  19.881  -3.633 +0.04 -0.00    +0.222    17.105
ATOM     21  O   UNL d   1      10.838  18.982   1.233 -0.26 -0.01    -0.278    17.105
ATOM     22  P   UNL d   1      11.359  20.156   2.179 -0.19 +0.21    +0.473    17.105
ATOM     23  O   UNL d   1      11.286  21.556   1.670 -0.11 -0.08    -0.228    17.105
ATOM     24  O   UNL d   1      10.534  19.888   3.514 -0.80 -0.45    -0.303    17.105
ATOM     25  H   UNL d   1       9.620  20.251   3.390 +0.05 +0.22    +0.222    17.105
ATOM     26  O   UNL d   1      12.818  19.629   2.580 -0.28 -0.12    -0.303    17.105
ATOM     27  H   UNL d   1      12.842  18.654   2.496 -0.23 +0.01    +0.222    17.105
ATOM     28  O   UNL d   1       5.709  18.134  -0.593 -0.06 +0.07    -0.278    17.105
ATOM     29  P   UNL d   1       4.843  16.892  -1.087 -0.03 -0.11    +0.473    17.105
ATOM     30  O   UNL d   1       4.820  15.722  -0.173 -0.17 +0.08    -0.228    17.105
ATOM     31  O   UNL d   1       3.446  17.621  -1.369 -0.00 +0.04    -0.303    17.105
ATOM     32  H   UNL d   1       3.132  18.033  -0.531 +0.04 -0.03    +0.222    17.105
ATOM     33  O   UNL d   1       5.414  16.649  -2.553 -0.02 +0.04    -0.303    17.105
ATOM     34  H   UNL d   1       6.240  17.179  -2.668 +0.05 -0.03    +0.222    17.105
ATOM     35  O   UNL d   1       8.578  20.646   2.040 -0.14 -0.08    -0.278    17.105
ATOM     36  P   UNL d   1       8.058  21.848   1.129 -0.01 +0.09    +0.473    17.105
ATOM     37  O   UNL d   1       8.879  23.098   1.180 -0.04 -0.05    -0.228    17.105
ATOM     38  O   UNL d   1       7.995  21.165  -0.308 -0.00 -0.02    -0.303    17.105
ATOM     39  H   UNL d   1       8.883  21.209  -0.724 +0.05 +0.01    +0.222    17.105
ATOM     40  O   UNL d   1       6.533  21.968   1.563 -0.08 -0.08    -0.303    17.105
ATOM     41  H   UNL d   1       6.173  21.107   1.871 +0.10 +0.05    +0.222    17.105
ATOM     42  O   UNL d   1       6.231  18.922   2.126 -0.16 +0.04    -0.278    17.105
ATOM     43  P   UNL d   1       4.682  19.273   1.972 -0.12 -0.07    +0.473    17.105
ATOM     44  O   UNL d   1       4.326  20.470   1.160 -0.11 -0.00    -0.228    17.105
ATOM     45  O   UNL d   1       4.069  17.910   1.425 -0.11 +0.12    -0.303    17.105
ATOM     46  H   UNL d   1       4.769  17.258   1.223 -0.14 -0.17    +0.222    17.105
ATOM     47  O   UNL d   1       4.156  19.282   3.486 -0.29 +0.13    -0.303    17.105
ATOM     48  H   UNL d   1       3.698  20.130   3.663 -0.42 -0.27    +0.222    17.105
TER
ENDMDL
MODEL       43
USER    Run = 43
USER    Cluster Rank = 6
USER    Number of conformations in this cluster = 2
USER  
USER    RMSD from reference structure       = 30.787 A
USER  
USER    Estimated Free Energy of Binding    =   +1.14 kcal/mol  [=(1)+(2)+(3)-(4)]
USER    
USER    (1) Final Intermolecular Energy     =   -6.02 kcal/mol
USER        vdW + Hbond + desolv Energy     =   -5.76 kcal/mol
USER        Electrostatic Energy            =   -0.26 kcal/mol
USER    (2) Final Total Internal Energy     =  -12.57 kcal/mol
USER    (3) Torsional Free Energy           =   +7.16 kcal/mol
USER    (4) Unbound System's Energy  [=(2)] =  -12.57 kcal/mol
USER    
USER    
USER  
USER    DPF = D:/Protein_go_brrr/autodock/final/1A3N/IHP/dock.dpf
USER    NEWDPF move	IHP_ideal_opt.pdbqt
USER    NEWDPF about	0.035000 0.082000 -0.065000
USER    NEWDPF tran0	28.568877 19.173948 -6.329060
USER    NEWDPF axisangle0	0.167484 0.197326 0.965925 159.032505
USER    NEWDPF quaternion0	0.164688 0.194032 0.949801 0.181957
USER    NEWDPF dihe0	71.85 -172.24 130.75 2.64 74.47 114.99 20.70 -142.75 57.77 84.28 55.88 -4.32 -41.69 73.62 106.69 136.62 143.48 110.18 42.76 -19.67 -38.78 -31.92 -1.28 151.33 
USER  
USER                              x       y       z    vdW   Elec        q     RMS 
ATOM      1  C   UNL d   1      27.295  19.922  -5.434 -0.15 -0.01    +0.194    30.787
ATOM      2  C   UNL d   1      27.974  20.806  -6.482 -0.04 -0.00    +0.194    30.787
ATOM      3  C   UNL d   1      29.495  20.642  -6.462 -0.04 -0.00    +0.194    30.787
ATOM      4  C   UNL d   1      29.944  19.186  -6.556 -0.06 -0.00    +0.194    30.787
ATOM      5  C   UNL d   1      29.210  18.247  -5.607 -0.09 +0.00    +0.194    30.787
ATOM      6  C   UNL d   1      27.694  18.453  -5.582 -0.15 +0.00    +0.194    30.787
ATOM      7  O   UNL d   1      25.881  20.001  -5.632 -0.16 -0.00    -0.278    30.787
ATOM      8  P   UNL d   1      25.105  21.275  -5.061 -0.21 -0.00    +0.473    30.787
ATOM      9  O   UNL d   1      25.976  22.378  -4.572 -0.19 +0.02    -0.228    30.787
ATOM     10  O   UNL d   1      24.149  21.715  -6.260 -0.12 -0.02    -0.303    30.787
ATOM     11  H   UNL d   1      24.635  22.305  -6.866 +0.05 +0.01    +0.222    30.787
ATOM     12  O   UNL d   1      24.069  20.690  -4.008 -0.90 -0.05    -0.303    30.787
ATOM     13  H   UNL d   1      23.958  21.263  -3.216 -0.45 -0.01    +0.222    30.787
ATOM     14  O   UNL d   1      27.493  20.442  -7.782 -0.01 -0.01    -0.278    30.787
ATOM     15  P   UNL d   1      26.584  21.523  -8.537 +0.01 +0.01    +0.473    30.787
ATOM     16  O   UNL d   1      26.975  21.866  -9.941 -0.00 -0.01    -0.228    30.787
ATOM     17  O   UNL d   1      25.109  20.930  -8.434 -0.03 -0.02    -0.303    30.787
ATOM     18  H   UNL d   1      24.976  20.464  -7.586 +0.05 +0.02    +0.222    30.787
ATOM     19  O   UNL d   1      26.506  22.750  -7.528 -0.00 -0.00    -0.303    30.787
ATOM     20  H   UNL d   1      26.148  22.482  -6.661 +0.04 -0.00    +0.222    30.787
ATOM     21  O   UNL d   1      27.204  17.769  -4.431 -0.18 -0.01    -0.278    30.787
ATOM     22  P   UNL d   1      25.822  16.976  -4.509 -0.34 +0.06    +0.473    30.787
ATOM     23  O   UNL d   1      25.747  15.627  -3.879 -0.19 -0.05    -0.228    30.787
ATOM     24  O   UNL d   1      24.800  18.045  -3.922 -0.59 -0.05    -0.303    30.787
ATOM     25  H   UNL d   1      25.280  18.905  -3.815 -0.37 -0.05    +0.222    30.787
ATOM     26  O   UNL d   1      25.500  17.038  -6.079 -0.19 -0.05    -0.303    30.787
ATOM     27  H   UNL d   1      25.440  17.975  -6.358 +0.08 +0.03    +0.222    30.787
ATOM     28  O   UNL d   1      30.009  21.272  -7.628 -0.00 +0.00    -0.278    30.787
ATOM     29  P   UNL d   1      30.166  22.856  -7.684 +0.01 -0.00    +0.473    30.787
ATOM     30  O   UNL d   1      31.563  23.361  -7.688 -0.00 +0.00    -0.228    30.787
ATOM     31  O   UNL d   1      29.274  23.179  -8.973 +0.00 -0.00    -0.303    30.787
ATOM     32  H   UNL d   1      28.325  23.056  -8.737 +0.00 +0.00    +0.222    30.787
ATOM     33  O   UNL d   1      29.233  23.327  -6.483 -0.00 +0.01    -0.303    30.787
ATOM     34  H   UNL d   1      28.299  23.374  -6.802 +0.02 -0.00    +0.222    30.787
ATOM     35  O   UNL d   1      29.447  16.932  -6.104 -0.08 -0.01    -0.278    30.787
ATOM     36  P   UNL d   1      29.977  15.786  -5.128 -0.16 +0.04    +0.473    30.787
ATOM     37  O   UNL d   1      30.362  14.502  -5.791 -0.22 +0.00    -0.228    30.787
ATOM     38  O   UNL d   1      31.175  16.523  -4.381 -0.16 -0.03    -0.303    30.787
ATOM     39  H   UNL d   1      31.376  17.363  -4.848 +0.08 +0.01    +0.222    30.787
ATOM     40  O   UNL d   1      28.827  15.716  -4.031 -0.64 -0.08    -0.303    30.787
ATOM     41  H   UNL d   1      27.933  15.762  -4.437 +0.12 +0.04    +0.222    30.787
ATOM     42  O   UNL d   1      31.328  19.155  -6.192 -0.05 +0.00    -0.278    30.787
ATOM     43  P   UNL d   1      31.828  20.067  -4.982 -0.09 -0.03    +0.473    30.787
ATOM     44  O   UNL d   1      33.068  19.646  -4.271 -0.17 +0.01    -0.228    30.787
ATOM     45  O   UNL d   1      31.917  21.510  -5.646 -0.03 +0.02    -0.303    30.787
ATOM     46  H   UNL d   1      31.924  21.455  -6.623 +0.02 -0.01    +0.222    30.787
ATOM     47  O   UNL d   1      30.520  20.210  -4.066 +0.11 +0.07    -0.303    30.787
ATOM     48  H   UNL d   1      30.753  20.689  -3.244 -0.28 -0.10    +0.222    30.787
TER
ENDMDL
MODEL       12
USER    Run = 12
USER    Cluster Rank = 7
USER    Number of conformations in this cluster = 1
USER  
USER    RMSD from reference structure       = 35.218 A
USER  
USER    Estimated Free Energy of Binding    =   +1.31 kcal/mol  [=(1)+(2)+(3)-(4)]
USER    
USER    (1) Final Intermolecular Energy     =   -5.84 kcal/mol
USER        vdW + Hbond + desolv Energy     =   -5.61 kcal/mol
USER        Electrostatic Energy            =   -0.23 kcal/mol
USER    (2) Final Total Internal Energy     =  -13.02 kcal/mol
USER    (3) Torsional Free Energy           =   +7.16 kcal/mol
USER    (4) Unbound System's Energy  [=(2)] =  -13.02 kcal/mol
USER    
USER    
USER  
USER    DPF = D:/Protein_go_brrr/autodock/final/1A3N/IHP/dock.dpf
USER    NEWDPF move	IHP_ideal_opt.pdbqt
USER    NEWDPF about	0.035000 0.082000 -0.065000
USER    NEWDPF tran0	7.496781 -5.201001 35.820465
USER    NEWDPF axisangle0	0.419706 0.783504 -0.458224 93.383947
USER    NEWDPF quaternion0	0.305410 0.570137 -0.333439 0.685920
USER    NEWDPF dihe0	-180.00 1.79 102.02 153.07 -42.00 122.12 -5.65 175.14 144.07 -36.65 62.23 -64.42 22.59 82.01 60.16 133.09 114.78 27.31 -130.14 -16.30 179.73 -31.96 147.91 -161.55 
USER  
USER                              x       y       z    vdW   Elec        q     RMS 
ATOM      1  C   UNL d   1       6.974  -4.686  37.384 -0.03 -0.02    +0.194    35.218
ATOM      2  C   UNL d   1       7.266  -6.181  37.245 -0.06 -0.03    +0.194    35.218
ATOM      3  C   UNL d   1       6.707  -6.748  35.938 -0.09 -0.06    +0.194    35.218
ATOM      4  C   UNL d   1       7.139  -5.957  34.705 -0.16 -0.07    +0.194    35.218
ATOM      5  C   UNL d   1       6.972  -4.450  34.845 -0.10 -0.04    +0.194    35.218
ATOM      6  C   UNL d   1       7.476  -3.891  36.178 -0.11 -0.03    +0.194    35.218
ATOM      7  O   UNL d   1       7.671  -4.200  38.534 -0.04 +0.02    -0.278    35.218
ATOM      8  P   UNL d   1       8.957  -3.279  38.309 -0.11 -0.03    +0.473    35.218
ATOM      9  O   UNL d   1       8.666  -1.887  37.869 -0.25 +0.03    -0.228    35.218
ATOM     10  O   UNL d   1       9.731  -3.349  39.702 -0.10 -0.02    -0.303    35.218
ATOM     11  H   UNL d   1       9.465  -4.154  40.184 +0.06 +0.03    +0.222    35.218
ATOM     12  O   UNL d   1       9.908  -4.123  37.357 +0.09 +0.06    -0.303    35.218
ATOM     13  H   UNL d   1       9.968  -5.071  37.613 -0.38 -0.07    +0.222    35.218
ATOM     14  O   UNL d   1       8.685  -6.382  37.259 -0.16 +0.06    -0.278    35.218
ATOM     15  P   UNL d   1       9.277  -7.212  38.494 -0.14 +0.09    +0.473    35.218
ATOM     16  O   UNL d   1      10.330  -8.228  38.178 -0.26 -0.09    -0.228    35.218
ATOM     17  O   UNL d   1       9.783  -6.092  39.507 -0.26 -0.13    -0.303    35.218
ATOM     18  H   UNL d   1       9.533  -5.200  39.199 +0.05 +0.03    +0.222    35.218
ATOM     19  O   UNL d   1       7.993  -7.769  39.250 -0.04 -0.06    -0.303    35.218
ATOM     20  H   UNL d   1       7.755  -8.664  38.945 +0.04 +0.02    +0.222    35.218
ATOM     21  O   UNL d   1       6.949  -2.572  36.297 -0.13 +0.04    -0.278    35.218
ATOM     22  P   UNL d   1       5.424  -2.363  36.716 -0.09 -0.08    +0.473    35.218
ATOM     23  O   UNL d   1       5.102  -2.238  38.167 -0.11 +0.05    -0.228    35.218
ATOM     24  O   UNL d   1       5.012  -1.106  35.830 -0.26 +0.09    -0.303    35.218
ATOM     25  H   UNL d   1       4.918  -0.324  36.430 -0.37 -0.15    +0.222    35.218
ATOM     26  O   UNL d   1       4.705  -3.566  35.937 -0.03 +0.02    -0.303    35.218
ATOM     27  H   UNL d   1       4.964  -3.540  34.994 +0.09 +0.00    +0.222    35.218
ATOM     28  O   UNL d   1       7.257  -8.047  35.765 -0.18 +0.16    -0.278    35.218
ATOM     29  P   UNL d   1       6.665  -9.286  36.574 -0.08 -0.19    +0.473    35.218
ATOM     30  O   UNL d   1       5.861 -10.247  35.776 -0.10 +0.09    -0.228    35.218
ATOM     31  O   UNL d   1       8.005  -9.844  37.248 -0.12 +0.15    -0.303    35.218
ATOM     32  H   UNL d   1       8.506  -9.085  37.627 +0.06 -0.07    +0.222    35.218
ATOM     33  O   UNL d   1       5.931  -8.569  37.791 -0.01 +0.04    -0.303    35.218
ATOM     34  H   UNL d   1       6.267  -8.950  38.639 +0.03 -0.01    +0.222    35.218
ATOM     35  O   UNL d   1       7.777  -3.874  33.818 -0.13 +0.07    -0.278    35.218
ATOM     36  P   UNL d   1       9.348  -3.697  34.031 -0.16 -0.18    +0.473    35.218
ATOM     37  O   UNL d   1      10.156  -3.555  32.781 -0.45 +0.10    -0.228    35.218
ATOM     38  O   UNL d   1       9.405  -2.432  34.995 -0.19 +0.08    -0.303    35.218
ATOM     39  H   UNL d   1       9.126  -2.702  35.897 +0.13 -0.04    +0.222    35.218
ATOM     40  O   UNL d   1       9.702  -4.921  34.984 -0.29 +0.15    -0.303    35.218
ATOM     41  H   UNL d   1       9.450  -4.741  35.917 +0.06 -0.08    +0.222    35.218
ATOM     42  O   UNL d   1       6.296  -6.377  33.627 -0.18 +0.11    -0.278    35.218
ATOM     43  P   UNL d   1       4.898  -5.639  33.410 -0.12 +0.09    +0.473    35.218
ATOM     44  O   UNL d   1       4.930  -4.257  32.855 -0.56 -0.19    -0.228    35.218
ATOM     45  O   UNL d   1       4.090  -6.680  32.518 -0.24 -0.06    -0.303    35.218
ATOM     46  H   UNL d   1       4.670  -7.395  32.188 -0.14 -0.11    +0.222    35.218
ATOM     47  O   UNL d   1       4.175  -5.798  34.832 -0.04 -0.01    -0.303    35.218
ATOM     48  H   UNL d   1       4.067  -4.913  35.239 +0.06 +0.01    +0.222    35.218
TER
ENDMDL
MODEL       67
USER    Run = 67
USER    Cluster Rank = 8
USER    Number of conformations in this cluster = 1
USER  
USER    RMSD from reference structure       = 41.557 A
USER  
USER    Estimated Free Energy of Binding    =   +1.32 kcal/mol  [=(1)+(2)+(3)-(4)]
USER    
USER    (1) Final Intermolecular Energy     =   -5.84 kcal/mol
USER        vdW + Hbond + desolv Energy     =   -5.54 kcal/mol
USER        Electrostatic Energy            =   -0.31 kcal/mol
USER    (2) Final Total Internal Energy     =  -13.03 kcal/mol
USER    (3) Torsional Free Energy           =   +7.16 kcal/mol
USER    (4) Unbound System's Energy  [=(2)] =  -13.03 kcal/mol
USER    
USER    
USER  
USER    DPF = D:/Protein_go_brrr/autodock/final/1A3N/IHP/dock.dpf
USER    NEWDPF move	IHP_ideal_opt.pdbqt
USER    NEWDPF about	0.035000 0.082000 -0.065000
USER    NEWDPF tran0	33.928798 -20.624327 22.732818
USER    NEWDPF axisangle0	0.007263 0.993729 0.111576 78.764111
USER    NEWDPF quaternion0	0.004608 0.630510 0.070793 0.772932
USER    NEWDPF dihe0	-111.81 18.89 165.59 5.46 -12.71 180.00 -26.59 -125.75 112.99 19.24 -11.38 -29.17 -138.82 79.73 -85.99 -43.54 23.10 -75.98 22.13 -38.66 -1.13 -26.11 171.45 19.71 
USER  
USER                              x       y       z    vdW   Elec        q     RMS 
ATOM      1  C   UNL d   1      33.300 -21.557  24.044 -0.11 -0.05    +0.194    41.557
ATOM      2  C   UNL d   1      33.324 -22.259  22.685 -0.10 -0.03    +0.194    41.557
ATOM      3  C   UNL d   1      32.854 -21.333  21.561 -0.21 -0.03    +0.194    41.557
ATOM      4  C   UNL d   1      33.594 -19.998  21.533 -0.25 -0.04    +0.194    41.557
ATOM      5  C   UNL d   1      33.694 -19.316  22.892 -0.29 -0.07    +0.194    41.557
ATOM      6  C   UNL d   1      34.104 -20.256  24.028 -0.14 -0.06    +0.194    41.557
ATOM      7  O   UNL d   1      33.910 -22.423  25.004 -0.02 +0.07    -0.278    41.557
ATOM      8  P   UNL d   1      32.963 -23.276  25.967 -0.00 -0.11    +0.473    41.557
ATOM      9  O   UNL d   1      32.545 -22.584  27.216 -0.06 +0.09    -0.228    41.557
ATOM     10  O   UNL d   1      31.734 -23.687  25.036 -0.03 +0.05    -0.303    41.557
ATOM     11  H   UNL d   1      31.923 -24.541  24.604 +0.04 -0.03    +0.222    41.557
ATOM     12  O   UNL d   1      33.713 -24.664  26.160 -0.00 +0.04    -0.303    41.557
ATOM     13  H   UNL d   1      34.304 -24.890  25.407 +0.01 -0.03    +0.222    41.557
ATOM     14  O   UNL d   1      34.664 -22.680  22.400 -0.02 +0.03    -0.278    41.557
ATOM     15  P   UNL d   1      35.053 -24.171  22.837 -0.00 -0.05    +0.473    41.557
ATOM     16  O   UNL d   1      35.814 -24.986  21.839 -0.01 +0.02    -0.228    41.557
ATOM     17  O   UNL d   1      35.842 -23.979  24.208 -0.00 +0.03    -0.303    41.557
ATOM     18  H   UNL d   1      35.241 -23.691  24.922 +0.01 -0.03    +0.222    41.557
ATOM     19  O   UNL d   1      33.685 -24.807  23.342 -0.02 +0.03    -0.303    41.557
ATOM     20  H   UNL d   1      33.267 -24.260  24.032 +0.03 -0.03    +0.222    41.557
ATOM     21  O   UNL d   1      33.823 -19.575  25.248 -0.18 +0.16    -0.278    41.557
ATOM     22  P   UNL d   1      35.014 -18.922  26.084 -0.10 -0.24    +0.473    41.557
ATOM     23  O   UNL d   1      36.150 -19.798  26.494 -0.02 +0.07    -0.228    41.557
ATOM     24  O   UNL d   1      35.421 -17.690  25.162 -0.11 +0.09    -0.303    41.557
ATOM     25  H   UNL d   1      35.977 -18.033  24.417 +0.09 -0.07    +0.222    41.557
ATOM     26  O   UNL d   1      34.220 -18.198  27.273 -0.18 +0.32    -0.303    41.557
ATOM     27  H   UNL d   1      33.270 -18.430  27.214 -0.45 -0.47    +0.222    41.557
ATOM     28  O   UNL d   1      33.170 -21.965  20.326 -0.14 +0.04    -0.278    41.557
ATOM     29  P   UNL d   1      32.178 -23.039  19.696 -0.14 -0.05    +0.473    41.557
ATOM     30  O   UNL d   1      32.084 -24.330  20.426 -0.09 +0.01    -0.228    41.557
ATOM     31  O   UNL d   1      30.843 -22.162  19.596 -0.17 +0.07    -0.303    41.557
ATOM     32  H   UNL d   1      31.095 -21.212  19.544 -0.11 -0.09    +0.222    41.557
ATOM     33  O   UNL d   1      32.671 -23.103  18.183 -0.04 +0.05    -0.303    41.557
ATOM     34  H   UNL d   1      32.483 -22.236  17.748 -0.41 -0.11    +0.222    41.557
ATOM     35  O   UNL d   1      34.727 -18.342  22.760 -0.17 +0.09    -0.278    41.557
ATOM     36  P   UNL d   1      36.198 -18.782  22.328 -0.11 -0.10    +0.473    41.557
ATOM     37  O   UNL d   1      36.334 -19.292  20.929 -0.26 +0.04    -0.228    41.557
ATOM     38  O   UNL d   1      37.035 -17.460  22.627 -0.23 +0.09    -0.303    41.557
ATOM     39  H   UNL d   1      36.750 -17.088  23.490 +0.11 -0.07    +0.222    41.557
ATOM     40  O   UNL d   1      36.615 -19.772  23.501 -0.03 +0.06    -0.303    41.557
ATOM     41  H   UNL d   1      36.094 -19.608  24.319 +0.07 -0.06    +0.222    41.557
ATOM     42  O   UNL d   1      32.844 -19.127  20.680 -0.31 +0.05    -0.278    41.557
ATOM     43  P   UNL d   1      33.208 -19.067  19.128 -0.28 -0.06    +0.473    41.557
ATOM     44  O   UNL d   1      34.625 -19.321  18.744 -0.33 +0.02    -0.228    41.557
ATOM     45  O   UNL d   1      32.168 -20.086  18.486 -0.25 +0.09    -0.303    41.557
ATOM     46  H   UNL d   1      32.492 -21.007  18.535 -0.16 -0.08    +0.222    41.557
ATOM     47  O   UNL d   1      32.609 -17.655  18.665 -0.47 +0.02    -0.303    41.557
ATOM     48  H   UNL d   1      33.150 -17.300  17.930 +0.10 -0.01    +0.222    41.557
TER
ENDMDL
MODEL       39
USER    Run = 39
USER    Cluster Rank = 9
USER    Number of conformations in this cluster = 1
USER  
USER    RMSD from reference structure       = 37.861 A
USER  
USER    Estimated Free Energy of Binding    =   +1.43 kcal/mol  [=(1)+(2)+(3)-(4)]
USER    
USER    (1) Final Intermolecular Energy     =   -5.73 kcal/mol
USER        vdW + Hbond + desolv Energy     =   -5.49 kcal/mol
USER        Electrostatic Energy            =   -0.24 kcal/mol
USER    (2) Final Total Internal Energy     =  -11.18 kcal/mol
USER    (3) Torsional Free Energy           =   +7.16 kcal/mol
USER    (4) Unbound System's Energy  [=(2)] =  -11.18 kcal/mol
USER    
USER    
USER  
USER    DPF = D:/Protein_go_brrr/autodock/final/1A3N/IHP/dock.dpf
USER    NEWDPF move	IHP_ideal_opt.pdbqt
USER    NEWDPF about	0.035000 0.082000 -0.065000
USER    NEWDPF tran0	29.357422 14.480718 25.006701
USER    NEWDPF axisangle0	-0.184935 -0.844232 0.503062 101.435787
USER    NEWDPF quaternion0	-0.143147 -0.653468 0.389389 0.633139
USER    NEWDPF dihe0	-180.00 -48.27 168.99 -44.38 94.08 149.26 102.14 -78.98 59.08 -36.18 74.24 -63.70 88.15 174.43 -99.54 -125.00 114.05 35.13 -33.17 18.70 137.26 -0.45 152.37 -148.89 
USER  
USER                              x       y       z    vdW   Elec        q     RMS 
ATOM      1  C   UNL d   1      29.123  12.969  24.204 -0.19 -0.04    +0.194    37.861
ATOM      2  C   UNL d   1      28.508  13.078  25.601 -0.15 -0.03    +0.194    37.861
ATOM      3  C   UNL d   1      29.460  13.758  26.587 -0.10 -0.03    +0.194    37.861
ATOM      4  C   UNL d   1      29.991  15.098  26.084 -0.04 -0.03    +0.194    37.861
ATOM      5  C   UNL d   1      30.510  15.062  24.652 -0.04 -0.03    +0.194    37.861
ATOM      6  C   UNL d   1      29.586  14.328  23.677 -0.10 -0.05    +0.194    37.861
ATOM      7  O   UNL d   1      28.117  12.486  23.311 -0.24 +0.08    -0.278    37.861
ATOM      8  P   UNL d   1      28.581  11.732  21.981 -0.26 -0.15    +0.473    37.861
ATOM      9  O   UNL d   1      27.765  10.543  21.613 -0.42 +0.04    -0.228    37.861
ATOM     10  O   UNL d   1      28.568  12.872  20.865 -0.27 +0.18    -0.303    37.861
ATOM     11  H   UNL d   1      28.639  13.747  21.291 -0.33 -0.21    +0.222    37.861
ATOM     12  O   UNL d   1      30.137  11.474  22.175 -0.20 +0.10    -0.303    37.861
ATOM     13  H   UNL d   1      30.697  12.182  21.784 +0.15 -0.06    +0.222    37.861
ATOM     14  O   UNL d   1      27.304  13.852  25.522 -0.14 +0.05    -0.278    37.861
ATOM     15  P   UNL d   1      26.161  13.508  26.589 -0.12 -0.08    +0.473    37.861
ATOM     16  O   UNL d   1      24.782  13.289  26.051 -0.36 +0.07    -0.228    37.861
ATOM     17  O   UNL d   1      26.728  12.239  27.368 -0.04 +0.02    -0.303    37.861
ATOM     18  H   UNL d   1      27.453  12.492  27.972 +0.11 -0.02    +0.222    37.861
ATOM     19  O   UNL d   1      26.294  14.645  27.693 -0.10 +0.05    -0.303    37.861
ATOM     20  H   UNL d   1      26.724  14.314  28.502 +0.08 -0.03    +0.222    37.861
ATOM     21  O   UNL d   1      30.346  14.081  22.496 -0.07 +0.08    -0.278    37.861
ATOM     22  P   UNL d   1      31.904  13.759  22.610 -0.02 -0.09    +0.473    37.861
ATOM     23  O   UNL d   1      32.822  14.857  23.033 -0.07 +0.03    -0.228    37.861
ATOM     24  O   UNL d   1      31.905  12.484  23.562 -0.15 +0.04    -0.303    37.861
ATOM     25  H   UNL d   1      31.046  12.006  23.436 +0.12 -0.04    +0.222    37.861
ATOM     26  O   UNL d   1      32.207  13.104  21.178 -0.16 +0.09    -0.303    37.861
ATOM     27  H   UNL d   1      31.380  12.723  20.818 +0.16 -0.07    +0.222    37.861
ATOM     28  O   UNL d   1      28.715  14.064  27.759 -0.05 +0.04    -0.278    37.861
ATOM     29  P   UNL d   1      28.990  13.275  29.115 -0.14 -0.10    +0.473    37.861
ATOM     30  O   UNL d   1      27.825  13.146  30.029 -0.14 +0.05    -0.228    37.861
ATOM     31  O   UNL d   1      29.607  11.919  28.530 -0.67 +0.05    -0.303    37.861
ATOM     32  H   UNL d   1      30.196  11.522  29.212 -0.23 -0.09    +0.222    37.861
ATOM     33  O   UNL d   1      30.272  14.027  29.686 -0.15 +0.11    -0.303    37.861
ATOM     34  H   UNL d   1      30.716  14.511  28.947 -0.15 -0.09    +0.222    37.861
ATOM     35  O   UNL d   1      30.572  16.422  24.228 -0.00 +0.03    -0.278    37.861
ATOM     36  P   UNL d   1      29.241  17.196  23.811 +0.02 -0.07    +0.473    37.861
ATOM     37  O   UNL d   1      29.317  18.688  23.871 -0.01 +0.01    -0.228    37.861
ATOM     38  O   UNL d   1      28.968  16.613  22.354 -0.09 +0.10    -0.303    37.861
ATOM     39  H   UNL d   1      29.754  16.104  22.059 +0.08 -0.07    +0.222    37.861
ATOM     40  O   UNL d   1      28.140  16.492  24.717 -0.03 +0.06    -0.303    37.861
ATOM     41  H   UNL d   1      27.876  15.616  24.355 +0.06 -0.07    +0.222    37.861
ATOM     42  O   UNL d   1      31.097  15.447  26.923 -0.06 +0.04    -0.278    37.861
ATOM     43  P   UNL d   1      32.579  15.181  26.397 -0.12 -0.05    +0.473    37.861
ATOM     44  O   UNL d   1      33.166  16.180  25.462 -0.06 +0.01    -0.228    37.861
ATOM     45  O   UNL d   1      33.400  14.992  27.747 -0.20 +0.06    -0.303    37.861
ATOM     46  H   UNL d   1      32.821  15.063  28.532 -0.51 -0.14    +0.222    37.861
ATOM     47  O   UNL d   1      32.508  13.677  25.847 -0.17 +0.02    -0.303    37.861
ATOM     48  H   UNL d   1      32.658  13.680  24.879 +0.08 -0.01    +0.222    37.861
TER
ENDMDL
MODEL       89
USER    Run = 89
USER    Cluster Rank = 10
USER    Number of conformations in this cluster = 1
USER  
USER    RMSD from reference structure       = 13.284 A
USER  
USER    Estimated Free Energy of Binding    =   +1.78 kcal/mol  [=(1)+(2)+(3)-(4)]
USER    
USER    (1) Final Intermolecular Energy     =   -5.38 kcal/mol
USER        vdW + Hbond + desolv Energy     =   -5.21 kcal/mol
USER        Electrostatic Energy            =   -0.17 kcal/mol
USER    (2) Final Total Internal Energy     =  -13.39 kcal/mol
USER    (3) Torsional Free Energy           =   +7.16 kcal/mol
USER    (4) Unbound System's Energy  [=(2)] =  -13.39 kcal/mol
USER    
USER    
USER  
USER    DPF = D:/Protein_go_brrr/autodock/final/1A3N/IHP/dock.dpf
USER    NEWDPF move	IHP_ideal_opt.pdbqt
USER    NEWDPF about	0.035000 0.082000 -0.065000
USER    NEWDPF tran0	3.743141 17.000514 -0.648831
USER    NEWDPF axisangle0	-0.569601 -0.817430 0.085811 -129.540367
USER    NEWDPF quaternion0	-0.515264 -0.739451 0.077625 -0.426250
USER    NEWDPF dihe0	25.47 -83.57 79.80 158.08 5.55 146.63 -90.73 -39.80 120.57 -64.83 95.56 69.94 -144.90 46.87 179.84 0.43 101.14 -132.41 179.68 35.37 -16.38 5.97 168.13 -5.92 
USER  
USER                              x       y       z    vdW   Elec        q     RMS 
ATOM      1  C   UNL d   1       2.431  17.889   0.039 -0.02 -0.03    +0.194    13.284
ATOM      2  C   UNL d   1       2.265  16.368   0.028 -0.07 -0.03    +0.194    13.284
ATOM      3  C   UNL d   1       2.712  15.759  -1.303 -0.08 -0.03    +0.194    13.284
ATOM      4  C   UNL d   1       4.116  16.190  -1.720 -0.05 -0.03    +0.194    13.284
ATOM      5  C   UNL d   1       4.362  17.690  -1.615 -0.01 -0.03    +0.194    13.284
ATOM      6  C   UNL d   1       3.859  18.310  -0.309 -0.03 -0.03    +0.194    13.284
ATOM      7  O   UNL d   1       2.159  18.358   1.362 -0.06 +0.07    -0.278    13.284
ATOM      8  P   UNL d   1       3.020  17.765   2.569 -0.13 -0.25    +0.473    13.284
ATOM      9  O   UNL d   1       2.417  16.591   3.258 -0.26 +0.13    -0.228    13.284
ATOM     10  O   UNL d   1       4.439  17.446   1.912 -0.01 +0.20    -0.303    13.284
ATOM     11  H   UNL d   1       4.724  16.549   2.169 -0.41 -0.28    +0.222    13.284
ATOM     12  O   UNL d   1       3.354  19.015   3.492 -0.26 +0.31    -0.303    13.284
ATOM     13  H   UNL d   1       4.311  19.093   3.703 -0.21 -0.06    +0.222    13.284
ATOM     14  O   UNL d   1       3.061  15.805   1.078 -0.10 +0.09    -0.278    13.284
ATOM     15  P   UNL d   1       2.781  14.271   1.443 -0.14 -0.14    +0.473    13.284
ATOM     16  O   UNL d   1       3.761  13.266   0.921 -0.14 +0.06    -0.228    13.284
ATOM     17  O   UNL d   1       2.677  14.263   3.033 -0.26 +0.07    -0.303    13.284
ATOM     18  H   UNL d   1       3.044  15.084   3.413 +0.17 -0.06    +0.222    13.284
ATOM     19  O   UNL d   1       1.266  14.033   1.022 -0.22 +0.07    -0.303    13.284
ATOM     20  H   UNL d   1       1.197  13.610   0.146 +0.04 -0.05    +0.222    13.284
ATOM     21  O   UNL d   1       3.844  19.722  -0.503 -0.01 +0.02    -0.278    13.284
ATOM     22  P   UNL d   1       4.751  20.657   0.418 -0.01 +0.01    +0.473    13.284
ATOM     23  O   UNL d   1       4.275  22.042   0.703 -0.11 -0.04    -0.228    13.284
ATOM     24  O   UNL d   1       4.957  19.745   1.706 -0.15 +0.02    -0.303    13.284
ATOM     25  H   UNL d   1       4.066  19.558   2.097 +0.09 -0.04    +0.222    13.284
ATOM     26  O   UNL d   1       6.178  20.539  -0.303 -0.01 +0.00    -0.303    13.284
ATOM     27  H   UNL d   1       6.236  19.677  -0.763 +0.04 -0.02    +0.222    13.284
ATOM     28  O   UNL d   1       2.787  14.351  -1.125 -0.13 +0.04    -0.278    13.284
ATOM     29  P   UNL d   1       1.833  13.383  -1.957 -0.24 -0.06    +0.473    13.284
ATOM     30  O   UNL d   1       0.555  13.984  -2.417 -0.32 +0.02    -0.228    13.284
ATOM     31  O   UNL d   1       2.853  12.890  -3.088 -0.50 +0.02    -0.303    13.284
ATOM     32  H   UNL d   1       3.415  13.653  -3.358 +0.11 -0.03    +0.222    13.284
ATOM     33  O   UNL d   1       1.729  12.115  -1.001 -0.35 +0.07    -0.303    13.284
ATOM     34  H   UNL d   1       1.989  12.380  -0.085 -0.38 -0.11    +0.222    13.284
ATOM     35  O   UNL d   1       5.779  17.852  -1.638 -0.02 +0.05    -0.278    13.284
ATOM     36  P   UNL d   1       6.683  17.199  -0.498 -0.08 -0.21    +0.473    13.284
ATOM     37  O   UNL d   1       8.026  16.711  -0.940 -0.25 +0.09    -0.228    13.284
ATOM     38  O   UNL d   1       6.734  18.364   0.586 -0.12 +0.15    -0.303    13.284
ATOM     39  H   UNL d   1       5.820  18.672   0.771 +0.05 -0.08    +0.222    13.284
ATOM     40  O   UNL d   1       5.699  16.125   0.141 -0.15 +0.19    -0.303    13.284
ATOM     41  H   UNL d   1       5.374  16.409   1.025 -0.33 -0.27    +0.222    13.284
ATOM     42  O   UNL d   1       4.267  15.835  -3.099 -0.03 +0.04    -0.278    13.284
ATOM     43  P   UNL d   1       5.378  14.765  -3.502 -0.03 -0.06    +0.473    13.284
ATOM     44  O   UNL d   1       6.757  15.269  -3.757 -0.08 +0.03    -0.228    13.284
ATOM     45  O   UNL d   1       5.283  13.700  -2.324 -0.07 +0.03    -0.303    13.284
ATOM     46  H   UNL d   1       4.411  13.734  -1.881 +0.10 -0.02    +0.222    13.284
ATOM     47  O   UNL d   1       4.697  13.969  -4.716 -0.07 +0.04    -0.303    13.284
ATOM     48  H   UNL d   1       4.493  13.055  -4.428 +0.09 -0.03    +0.222    13.284
TER
ENDMDL
MODEL        3
USER    Run = 3
USER    Cluster Rank = 11
USER    Number of conformations in this cluster = 1
USER  
USER    RMSD from reference structure       = 13.929 A
USER  
USER    Estimated Free Energy of Binding    =   +1.82 kcal/mol  [=(1)+(2)+(3)-(4)]
USER    
USER    (1) Final Intermolecular Energy     =   -5.34 kcal/mol
USER        vdW + Hbond + desolv Energy     =   -5.17 kcal/mol
USER        Electrostatic Energy            =   -0.16 kcal/mol
USER    (2) Final Total Internal Energy     =  -12.19 kcal/mol
USER    (3) Torsional Free Energy           =   +7.16 kcal/mol
USER    (4) Unbound System's Energy  [=(2)] =  -12.19 kcal/mol
USER    
USER    
USER  
USER    DPF = D:/Protein_go_brrr/autodock/final/1A3N/IHP/dock.dpf
USER    NEWDPF move	IHP_ideal_opt.pdbqt
USER    NEWDPF about	0.035000 0.082000 -0.065000
USER    NEWDPF tran0	12.627518 -2.551159 -10.675457
USER    NEWDPF axisangle0	0.157698 0.843020 0.514245 139.929633
USER    NEWDPF quaternion0	0.148155 0.792003 0.483125 0.342597
USER    NEWDPF dihe0	115.33 66.72 -137.48 143.52 8.47 -153.57 -21.12 -162.58 105.30 127.88 157.63 -86.55 173.75 -21.03 -38.31 147.41 -175.24 112.78 22.45 -32.88 167.29 -44.96 -0.38 145.32 
USER  
USER                              x       y       z    vdW   Elec        q     RMS 
ATOM      1  C   UNL d   1      10.905  -2.421 -10.642 -0.12 +0.00    +0.194    13.929
ATOM      2  C   UNL d   1      11.498  -3.014 -11.921 -0.08 +0.00    +0.194    13.929
ATOM      3  C   UNL d   1      12.734  -2.239 -12.385 -0.05 +0.01    +0.194    13.929
ATOM      4  C   UNL d   1      13.782  -2.067 -11.289 -0.12 +0.02    +0.194    13.929
ATOM      5  C   UNL d   1      13.216  -1.586  -9.959 -0.16 +0.03    +0.194    13.929
ATOM      6  C   UNL d   1      11.945  -2.320  -9.525 -0.23 +0.01    +0.194    13.929
ATOM      7  O   UNL d   1       9.871  -3.294 -10.183 -0.16 +0.02    -0.278    13.929
ATOM      8  P   UNL d   1       8.354  -2.908 -10.502 -0.09 -0.01    +0.473    13.929
ATOM      9  O   UNL d   1       7.414  -3.047  -9.357 -0.23 +0.01    -0.228    13.929
ATOM     10  O   UNL d   1       8.444  -1.418 -11.063 -0.07 -0.00    -0.303    13.929
ATOM     11  H   UNL d   1       9.070  -0.902 -10.522 +0.10 +0.00    +0.222    13.929
ATOM     12  O   UNL d   1       7.984  -3.734 -11.808 -0.04 -0.01    -0.303    13.929
ATOM     13  H   UNL d   1       8.565  -4.515 -11.948 +0.06 -0.00    +0.222    13.929
ATOM     14  O   UNL d   1      11.878  -4.373 -11.673 -0.13 +0.00    -0.278    13.929
ATOM     15  P   UNL d   1      10.848  -5.502 -12.151 -0.11 -0.04    +0.473    13.929
ATOM     16  O   UNL d   1      10.077  -5.223 -13.403 -0.04 -0.00    -0.228    13.929
ATOM     17  O   UNL d   1      11.738  -6.820 -12.255 -0.19 +0.03    -0.303    13.929
ATOM     18  H   UNL d   1      11.345  -7.551 -11.740 -0.49 -0.08    +0.222    13.929
ATOM     19  O   UNL d   1       9.971  -5.811 -10.860 -0.10 +0.08    -0.303    13.929
ATOM     20  H   UNL d   1       9.237  -5.176 -10.763 +0.05 -0.02    +0.222    13.929
ATOM     21  O   UNL d   1      11.361  -1.548  -8.478 -0.23 -0.02    -0.278    13.929
ATOM     22  P   UNL d   1      10.811  -0.082  -8.787 -0.19 +0.08    +0.473    13.929
ATOM     23  O   UNL d   1      11.093   0.508 -10.127 -0.11 -0.02    -0.228    13.929
ATOM     24  O   UNL d   1       9.266  -0.234  -8.436 -0.26 -0.02    -0.303    13.929
ATOM     25  H   UNL d   1       8.893  -0.961  -8.996 +0.12 +0.00    +0.222    13.929
ATOM     26  O   UNL d   1      11.358   0.743  -7.526 -0.18 -0.20    -0.303    13.929
ATOM     27  H   UNL d   1      12.213   0.363  -7.239 +0.15 +0.22    +0.222    13.929
ATOM     28  O   UNL d   1      13.368  -3.011 -13.396 -0.03 -0.01    -0.278    13.929
ATOM     29  P   UNL d   1      12.639  -3.269 -14.788 +0.00 +0.02    +0.473    13.929
ATOM     30  O   UNL d   1      13.370  -2.798 -15.992 -0.00 -0.01    -0.228    13.929
ATOM     31  O   UNL d   1      12.366  -4.842 -14.673 -0.01 -0.01    -0.303    13.929
ATOM     32  H   UNL d   1      12.243  -5.071 -13.723 +0.04 +0.01    +0.222    13.929
ATOM     33  O   UNL d   1      11.198  -2.643 -14.531 -0.00 -0.01    -0.303    13.929
ATOM     34  H   UNL d   1      10.552  -3.375 -14.378 +0.01 +0.01    +0.222    13.929
ATOM     35  O   UNL d   1      14.219  -1.873  -8.985 -0.22 -0.05    -0.278    13.929
ATOM     36  P   UNL d   1      14.692  -0.744  -7.962 -0.25 +0.18    +0.473    13.929
ATOM     37  O   UNL d   1      16.172  -0.564  -7.839 -0.44 -0.06    -0.228    13.929
ATOM     38  O   UNL d   1      13.920   0.537  -8.509 -0.22 -0.19    -0.303    13.929
ATOM     39  H   UNL d   1      13.043   0.261  -8.852 +0.12 +0.09    +0.222    13.929
ATOM     40  O   UNL d   1      13.899  -1.132  -6.638 -0.92 -0.17    -0.303    13.929
ATOM     41  H   UNL d   1      14.388  -1.796  -6.103 -0.31 -0.04    +0.222    13.929
ATOM     42  O   UNL d   1      14.697  -1.065 -11.744 -0.08 -0.03    -0.278    13.929
ATOM     43  P   UNL d   1      14.144   0.139 -12.631 +0.01 +0.04    +0.473    13.929
ATOM     44  O   UNL d   1      14.957   1.386 -12.681 -0.02 -0.03    -0.228    13.929
ATOM     45  O   UNL d   1      13.917  -0.547 -14.049 -0.01 -0.02    -0.303    13.929
ATOM     46  H   UNL d   1      13.047  -0.990 -14.097 +0.02 +0.01    +0.222    13.929
ATOM     47  O   UNL d   1      12.638   0.315 -12.110 -0.00 -0.03    -0.303    13.929
ATOM     48  H   UNL d   1      12.620   0.983 -11.394 +0.05 +0.03    +0.222    13.929
TER
ENDMDL
MODEL       25
USER    Run = 25
USER    Cluster Rank = 12
USER    Number of conformations in this cluster = 1
USER  
USER    RMSD from reference structure       = 32.247 A
USER  
USER    Estimated Free Energy of Binding    =   +1.83 kcal/mol  [=(1)+(2)+(3)-(4)]
USER    
USER    (1) Final Intermolecular Energy     =   -5.33 kcal/mol
USER        vdW + Hbond + desolv Energy     =   -5.01 kcal/mol
USER        Electrostatic Energy            =   -0.32 kcal/mol
USER    (2) Final Total Internal Energy     =  -14.12 kcal/mol
USER    (3) Torsional Free Energy           =   +7.16 kcal/mol
USER    (4) Unbound System's Energy  [=(2)] =  -14.12 kcal/mol
USER    
USER    
USER  
USER    DPF = D:/Protein_go_brrr/autodock/final/1A3N/IHP/dock.dpf
USER    NEWDPF move	IHP_ideal_opt.pdbqt
USER    NEWDPF about	0.035000 0.082000 -0.065000
USER    NEWDPF tran0	24.667711 24.770929 11.061922
USER    NEWDPF axisangle0	-0.911814 0.314889 -0.263516 153.414830
USER    NEWDPF quaternion0	-0.887385 0.306453 -0.256456 0.229924
USER    NEWDPF dihe0	107.11 111.61 144.09 25.03 -71.56 -91.58 3.44 -87.21 123.13 -5.46 38.03 -95.08 -75.76 31.38 -65.45 -118.27 110.22 -47.06 -144.79 -24.06 160.26 16.68 -29.01 166.72 
USER  
USER                              x       y       z    vdW   Elec        q     RMS 
ATOM      1  C   UNL d   1      26.357  24.417  10.983 -0.21 +0.08    +0.194    32.247
ATOM      2  C   UNL d   1      25.924  25.726  10.319 -0.05 -0.00    +0.194    32.247
ATOM      3  C   UNL d   1      24.639  25.550   9.505 -0.05 -0.04    +0.194    32.247
ATOM      4  C   UNL d   1      23.508  24.904  10.301 -0.05 +0.00    +0.194    32.247
ATOM      5  C   UNL d   1      23.924  23.658  11.073 -0.08 +0.04    +0.194    32.247
ATOM      6  C   UNL d   1      25.241  23.814  11.836 -0.13 +0.07    +0.194    32.247
ATOM      7  O   UNL d   1      27.454  24.702  11.854 -0.43 -0.34    -0.278    32.247
ATOM      8  P   UNL d   1      27.141  25.027  13.387 +0.03 +0.39    +0.473    32.247
ATOM      9  O   UNL d   1      25.773  25.548  13.655 -0.06 -0.08    -0.228    32.247
ATOM     10  O   UNL d   1      27.451  23.657  14.144 -0.52 -0.31    -0.303    32.247
ATOM     11  H   UNL d   1      26.985  22.925  13.698 +0.05 +0.21    +0.222    32.247
ATOM     12  O   UNL d   1      28.341  25.950  13.867 -0.08 -0.21    -0.303    32.247
ATOM     13  H   UNL d   1      28.353  26.828  13.423 +0.05 +0.09    +0.222    32.247
ATOM     14  O   UNL d   1      25.690  26.710  11.334 -0.04 -0.02    -0.278    32.247
ATOM     15  P   UNL d   1      26.775  27.881  11.458 -0.01 +0.02    +0.473    32.247
ATOM     16  O   UNL d   1      26.574  29.079  10.583 -0.02 +0.01    -0.228    32.247
ATOM     17  O   UNL d   1      26.778  28.244  13.009 +0.00 -0.03    -0.303    32.247
ATOM     18  H   UNL d   1      26.843  27.439  13.558 +0.03 +0.04    +0.222    32.247
ATOM     19  O   UNL d   1      28.175  27.144  11.300 -0.11 -0.04    -0.303    32.247
ATOM     20  H   UNL d   1      28.160  26.253  11.695 +0.05 +0.11    +0.222    32.247
ATOM     21  O   UNL d   1      25.660  22.503  12.207 -0.14 -0.16    -0.278    32.247
ATOM     22  P   UNL d   1      25.891  21.397  11.081 -0.25 +0.22    +0.473    32.247
ATOM     23  O   UNL d   1      24.994  21.406   9.890 -0.20 -0.05    -0.228    32.247
ATOM     24  O   UNL d   1      27.437  21.586  10.753 -0.34 -0.19    -0.303    32.247
ATOM     25  H   UNL d   1      27.552  21.537   9.770 -0.38 +0.01    +0.222    32.247
ATOM     26  O   UNL d   1      25.899  20.048  11.946 -0.82 -0.23    -0.303    32.247
ATOM     27  H   UNL d   1      24.999  19.663  11.949 +0.10 +0.16    +0.222    32.247
ATOM     28  O   UNL d   1      24.168  26.847   9.164 -0.06 +0.06    -0.278    32.247
ATOM     29  P   UNL d   1      23.842  27.212   7.648 -0.09 -0.20    +0.473    32.247
ATOM     30  O   UNL d   1      24.162  28.604   7.241 -0.06 +0.09    -0.228    32.247
ATOM     31  O   UNL d   1      24.634  26.037   6.902 -0.21 +0.25    -0.303    32.247
ATOM     32  H   UNL d   1      24.321  25.173   7.257 -0.12 -0.15    +0.222    32.247
ATOM     33  O   UNL d   1      22.324  26.753   7.513 -0.05 +0.10    -0.303    32.247
ATOM     34  H   UNL d   1      22.153  26.015   8.149 +0.05 -0.05    +0.222    32.247
ATOM     35  O   UNL d   1      22.900  23.443  12.041 -0.06 -0.07    -0.278    32.247
ATOM     36  P   UNL d   1      21.785  22.328  11.799 -0.05 +0.13    +0.473    32.247
ATOM     37  O   UNL d   1      21.152  21.770  13.034 -0.09 -0.09    -0.228    32.247
ATOM     38  O   UNL d   1      20.773  23.084  10.829 -0.01 -0.05    -0.303    32.247
ATOM     39  H   UNL d   1      21.270  23.440  10.061 +0.04 +0.02    +0.222    32.247
ATOM     40  O   UNL d   1      22.534  21.300  10.845 -0.05 -0.08    -0.303    32.247
ATOM     41  H   UNL d   1      22.995  21.757  10.107 +0.09 +0.05    +0.222    32.247
ATOM     42  O   UNL d   1      22.513  24.499   9.353 -0.04 +0.01    -0.278    32.247
ATOM     43  P   UNL d   1      22.937  23.536   8.154 -0.12 -0.04    +0.473    32.247
ATOM     44  O   UNL d   1      24.369  23.132   8.071 -0.35 +0.02    -0.228    32.247
ATOM     45  O   UNL d   1      21.925  22.318   8.310 -0.05 -0.03    -0.303    32.247
ATOM     46  H   UNL d   1      21.728  22.135   9.250 +0.07 +0.03    +0.222    32.247
ATOM     47  O   UNL d   1      22.353  24.282   6.861 -0.19 +0.11    -0.303    32.247
ATOM     48  H   UNL d   1      22.991  24.966   6.567 +0.04 -0.17    +0.222    32.247
TER
ENDMDL
MODEL       51
USER    Run = 51
USER    Cluster Rank = 13
USER    Number of conformations in this cluster = 1
USER  
USER    RMSD from reference structure       = 25.180 A
USER  
USER    Estimated Free Energy of Binding    =   +1.98 kcal/mol  [=(1)+(2)+(3)-(4)]
USER    
USER    (1) Final Intermolecular Energy     =   -5.18 kcal/mol
USER        vdW + Hbond + desolv Energy     =   -4.92 kcal/mol
USER        Electrostatic Energy            =   -0.25 kcal/mol
USER    (2) Final Total Internal Energy     =  -13.30 kcal/mol
USER    (3) Torsional Free Energy           =   +7.16 kcal/mol
USER    (4) Unbound System's Energy  [=(2)] =  -13.30 kcal/mol
USER    
USER    
USER  
USER    DPF = D:/Protein_go_brrr/autodock/final/1A3N/IHP/dock.dpf
USER    NEWDPF move	IHP_ideal_opt.pdbqt
USER    NEWDPF about	0.035000 0.082000 -0.065000
USER    NEWDPF tran0	16.995654 -19.204708 13.867954
USER    NEWDPF axisangle0	-0.749996 0.466126 0.469289 -73.262095
USER    NEWDPF quaternion0	-0.447492 0.278119 0.280006 -0.802494
USER    NEWDPF dihe0	160.43 159.21 147.10 52.91 38.99 -167.37 -81.36 -30.72 -3.26 31.69 75.26 -125.18 117.33 159.23 18.49 -161.36 161.86 113.78 32.20 -17.38 164.49 -22.04 -22.23 -2.11 
USER  
USER                              x       y       z    vdW   Elec        q     RMS 
ATOM      1  C   UNL d   1      18.633 -18.655  13.846 -0.12 +0.03    +0.194    25.180
ATOM      2  C   UNL d   1      18.263 -19.584  15.004 -0.09 +0.02    +0.194    25.180
ATOM      3  C   UNL d   1      16.903 -19.224  15.606 -0.04 +0.05    +0.194    25.180
ATOM      4  C   UNL d   1      15.791 -19.128  14.565 -0.01 +0.07    +0.194    25.180
ATOM      5  C   UNL d   1      16.159 -18.305  13.338 -0.04 +0.06    +0.194    25.180
ATOM      6  C   UNL d   1      17.545 -18.621  12.772 -0.11 +0.04    +0.194    25.180
ATOM      7  O   UNL d   1      19.822 -19.160  13.232 -0.15 -0.06    -0.278    25.180
ATOM      8  P   UNL d   1      21.233 -18.644  13.774 -0.18 +0.08    +0.473    25.180
ATOM      9  O   UNL d   1      22.415 -19.395  13.270 -0.91 -0.08    -0.228    25.180
ATOM     10  O   UNL d   1      21.257 -17.098  13.380 -0.26 -0.07    -0.303    25.180
ATOM     11  H   UNL d   1      20.412 -16.855  12.958 +0.11 +0.05    +0.222    25.180
ATOM     12  O   UNL d   1      21.072 -18.582  15.353 -0.20 +0.01    -0.303    25.180
ATOM     13  H   UNL d   1      21.644 -19.229  15.825 -0.31 -0.09    +0.222    25.180
ATOM     14  O   UNL d   1      18.207 -20.932  14.521 -0.06 +0.00    -0.278    25.180
ATOM     15  P   UNL d   1      19.303 -21.946  15.100 -0.12 -0.17    +0.473    25.180
ATOM     16  O   UNL d   1      19.809 -22.996  14.161 -0.11 +0.18    -0.228    25.180
ATOM     17  O   UNL d   1      20.459 -20.996  15.646 -0.13 +0.13    -0.303    25.180
ATOM     18  H   UNL d   1      20.099 -20.310  16.240 -0.19 -0.06    +0.222    25.180
ATOM     19  O   UNL d   1      18.667 -22.486  16.455 -0.09 +0.09    -0.303    25.180
ATOM     20  H   UNL d   1      17.841 -22.019  16.677 +0.05 -0.02    +0.222    25.180
ATOM     21  O   UNL d   1      17.876 -17.564  11.875 -0.10 -0.05    -0.278    25.180
ATOM     22  P   UNL d   1      18.009 -16.072  12.424 -0.03 +0.09    +0.473    25.180
ATOM     23  O   UNL d   1      18.837 -15.841  13.643 -0.10 -0.05    -0.228    25.180
ATOM     24  O   UNL d   1      18.499 -15.290  11.127 -0.06 -0.03    -0.303    25.180
ATOM     25  H   UNL d   1      18.984 -15.930  10.547 -0.37 -0.04    +0.222    25.180
ATOM     26  O   UNL d   1      16.474 -15.622  12.522 -0.02 -0.09    -0.303    25.180
ATOM     27  H   UNL d   1      15.904 -16.419  12.521 +0.05 +0.07    +0.222    25.180
ATOM     28  O   UNL d   1      16.522 -20.288  16.469 -0.04 -0.08    -0.278    25.180
ATOM     29  P   UNL d   1      16.965 -20.282  17.999 -0.19 +0.15    +0.473    25.180
ATOM     30  O   UNL d   1      16.371 -21.351  18.842 -0.21 -0.06    -0.228    25.180
ATOM     31  O   UNL d   1      18.556 -20.291  17.829 -0.42 -0.05    -0.303    25.180
ATOM     32  H   UNL d   1      18.780 -20.760  16.992 +0.09 -0.00    +0.222    25.180
ATOM     33  O   UNL d   1      16.666 -18.778  18.427 -0.29 -0.18    -0.303    25.180
ATOM     34  H   UNL d   1      15.926 -18.427  17.872 +0.08 +0.17    +0.222    25.180
ATOM     35  O   UNL d   1      15.207 -18.656  12.336 -0.04 -0.09    -0.278    25.180
ATOM     36  P   UNL d   1      14.074 -17.619  11.903 -0.04 +0.24    +0.473    25.180
ATOM     37  O   UNL d   1      12.821 -18.224  11.356 -0.16 -0.16    -0.228    25.180
ATOM     38  O   UNL d   1      13.868 -16.784  13.243 -0.01 -0.18    -0.303    25.180
ATOM     39  H   UNL d   1      13.386 -17.337  13.895 +0.03 +0.16    +0.222    25.180
ATOM     40  O   UNL d   1      14.871 -16.624  10.952 -0.08 -0.12    -0.303    25.180
ATOM     41  H   UNL d   1      15.840 -16.781  10.990 +0.06 +0.06    +0.222    25.180
ATOM     42  O   UNL d   1      14.687 -18.472  15.197 -0.03 -0.17    -0.278    25.180
ATOM     43  P   UNL d   1      13.345 -19.294  15.455 -0.03 +0.38    +0.473    25.180
ATOM     44  O   UNL d   1      12.411 -18.777  16.494 -0.10 -0.41    -0.228    25.180
ATOM     45  O   UNL d   1      12.710 -19.391  13.999 -0.01 -0.19    -0.303    25.180
ATOM     46  H   UNL d   1      13.287 -18.974  13.329 +0.03 +0.12    +0.222    25.180
ATOM     47  O   UNL d   1      13.871 -20.792  15.681 -0.01 -0.15    -0.303    25.180
ATOM     48  H   UNL d   1      14.551 -20.792  16.386 +0.03 +0.10    +0.222    25.180
TER
ENDMDL
MODEL       83
USER    Run = 83
USER    Cluster Rank = 14
USER    Number of conformations in this cluster = 1
USER  
USER    RMSD from reference structure       = 46.574 A
USER  
USER    Estimated Free Energy of Binding    =   +1.99 kcal/mol  [=(1)+(2)+(3)-(4)]
USER    
USER    (1) Final Intermolecular Energy     =   -5.17 kcal/mol
USER        vdW + Hbond + desolv Energy     =   -4.44 kcal/mol
USER        Electrostatic Energy            =   -0.73 kcal/mol
USER    (2) Final Total Internal Energy     =  -11.22 kcal/mol
USER    (3) Torsional Free Energy           =   +7.16 kcal/mol
USER    (4) Unbound System's Energy  [=(2)] =  -11.22 kcal/mol
USER    
USER    
USER  
USER    DPF = D:/Protein_go_brrr/autodock/final/1A3N/IHP/dock.dpf
USER    NEWDPF move	IHP_ideal_opt.pdbqt
USER    NEWDPF about	0.035000 0.082000 -0.065000
USER    NEWDPF tran0	38.034012 -17.059316 28.731659
USER    NEWDPF axisangle0	0.327458 0.264919 0.906967 -107.061693
USER    NEWDPF quaternion0	0.263334 0.213042 0.729362 -0.594390
USER    NEWDPF dihe0	136.53 -101.57 17.45 29.69 2.36 -96.41 -60.04 -45.96 -175.95 -46.56 -68.23 -133.54 105.14 -174.72 -64.58 -171.67 -56.26 -13.68 -12.22 -39.58 -5.87 -30.29 164.96 139.32 
USER  
USER                              x       y       z    vdW   Elec        q     RMS 
ATOM      1  C   UNL d   1      39.015 -15.654  28.951 -0.05 -0.05    +0.194    46.574
ATOM      2  C   UNL d   1      39.579 -16.713  28.002 -0.03 -0.04    +0.194    46.574
ATOM      3  C   UNL d   1      39.398 -18.127  28.558 -0.00 -0.03    +0.194    46.574
ATOM      4  C   UNL d   1      37.960 -18.431  28.971 -0.00 -0.05    +0.194    46.574
ATOM      5  C   UNL d   1      37.318 -17.345  29.826 -0.01 -0.06    +0.194    46.574
ATOM      6  C   UNL d   1      37.551 -15.926  29.303 -0.05 -0.06    +0.194    46.574
ATOM      7  O   UNL d   1      39.065 -14.388  28.289 -0.16 +0.07    -0.278    46.574
ATOM      8  P   UNL d   1      39.610 -13.127  29.103 -0.24 -0.20    +0.473    46.574
ATOM      9  O   UNL d   1      40.141 -12.017  28.266 -0.97 +0.07    -0.228    46.574
ATOM     10  O   UNL d   1      38.374 -12.691  30.014 -0.23 +0.31    -0.303    46.574
ATOM     11  H   UNL d   1      37.547 -13.037  29.629 +0.08 -0.17    +0.222    46.574
ATOM     12  O   UNL d   1      40.616 -13.730  30.175 -0.06 +0.12    -0.303    46.574
ATOM     13  H   UNL d   1      40.625 -13.227  31.021 +0.05 -0.13    +0.222    46.574
ATOM     14  O   UNL d   1      38.896 -16.625  26.745 -0.05 +0.06    -0.278    46.574
ATOM     15  P   UNL d   1      39.559 -15.681  25.635 -0.12 -0.12    +0.473    46.574
ATOM     16  O   UNL d   1      38.735 -14.527  25.154 -0.27 +0.06    -0.228    46.574
ATOM     17  O   UNL d   1      40.939 -15.224  26.287 -0.11 +0.06    -0.303    46.574
ATOM     18  H   UNL d   1      40.800 -14.514  26.943 +0.08 -0.04    +0.222    46.574
ATOM     19  O   UNL d   1      40.057 -16.685  24.506 -0.10 +0.09    -0.303    46.574
ATOM     20  H   UNL d   1      40.298 -17.554  24.877 +0.06 -0.05    +0.222    46.574
ATOM     21  O   UNL d   1      37.203 -15.035  30.360 -0.05 +0.11    -0.278    46.574
ATOM     22  P   UNL d   1      35.872 -14.161  30.252 -0.10 -0.24    +0.473    46.574
ATOM     23  O   UNL d   1      35.456 -13.674  28.905 -0.14 +0.09    -0.228    46.574
ATOM     24  O   UNL d   1      34.810 -15.096  30.981 -0.07 +0.14    -0.303    46.574
ATOM     25  H   UNL d   1      34.718 -15.929  30.453 +0.07 -0.12    +0.222    46.574
ATOM     26  O   UNL d   1      36.134 -13.032  31.359 -0.13 +0.29    -0.303    46.574
ATOM     27  H   UNL d   1      36.595 -12.275  30.944 -0.30 -0.43    +0.222    46.574
ATOM     28  O   UNL d   1      39.690 -19.040  27.508 +0.00 +0.04    -0.278    46.574
ATOM     29  P   UNL d   1      41.200 -19.399  27.150 +0.00 -0.06    +0.473    46.574
ATOM     30  O   UNL d   1      41.392 -20.633  26.346 -0.00 +0.02    -0.228    46.574
ATOM     31  O   UNL d   1      41.664 -18.019  26.485 -0.00 +0.04    -0.303    46.574
ATOM     32  H   UNL d   1      40.874 -17.442  26.375 +0.04 -0.04    +0.222    46.574
ATOM     33  O   UNL d   1      41.901 -19.354  28.578 +0.00 +0.03    -0.303    46.574
ATOM     34  H   UNL d   1      41.204 -19.336  29.279 +0.00 -0.03    +0.222    46.574
ATOM     35  O   UNL d   1      35.914 -17.588  29.768 -0.02 +0.13    -0.278    46.574
ATOM     36  P   UNL d   1      35.131 -17.458  28.384 -0.09 -0.31    +0.473    46.574
ATOM     37  O   UNL d   1      35.893 -16.814  27.270 -0.40 +0.06    -0.228    46.574
ATOM     38  O   UNL d   1      34.713 -18.969  28.103 -0.08 +0.27    -0.303    46.574
ATOM     39  H   UNL d   1      33.735 -19.045  28.148 -0.44 -0.42    +0.222    46.574
ATOM     40  O   UNL d   1      33.772 -16.761  28.826 -0.18 +0.38    -0.303    46.574
ATOM     41  H   UNL d   1      33.093 -17.421  29.091 -0.37 -0.59    +0.222    46.574
ATOM     42  O   UNL d   1      38.000 -19.622  29.764 +0.00 +0.06    -0.278    46.574
ATOM     43  P   UNL d   1      39.322 -19.953  30.594 +0.00 -0.07    +0.473    46.574
ATOM     44  O   UNL d   1      40.114 -18.802  31.112 +0.00 +0.03    -0.228    46.574
ATOM     45  O   UNL d   1      38.788 -20.937  31.724 +0.00 +0.04    -0.303    46.574
ATOM     46  H   UNL d   1      39.223 -20.765  32.583 +0.00 -0.02    +0.222    46.574
ATOM     47  O   UNL d   1      40.115 -20.961  29.633 +0.00 +0.03    -0.303    46.574
ATOM     48  H   UNL d   1      40.103 -20.611  28.718 +0.00 -0.03    +0.222    46.574
TER
ENDMDL
MODEL       48
USER    Run = 48
USER    Cluster Rank = 15
USER    Number of conformations in this cluster = 1
USER  
USER    RMSD from reference structure       = 41.452 A
USER  
USER    Estimated Free Energy of Binding    =   +2.10 kcal/mol  [=(1)+(2)+(3)-(4)]
USER    
USER    (1) Final Intermolecular Energy     =   -5.06 kcal/mol
USER        vdW + Hbond + desolv Energy     =   -4.71 kcal/mol
USER        Electrostatic Energy            =   -0.34 kcal/mol
USER    (2) Final Total Internal Energy     =  -12.03 kcal/mol
USER    (3) Torsional Free Energy           =   +7.16 kcal/mol
USER    (4) Unbound System's Energy  [=(2)] =  -12.03 kcal/mol
USER    
USER    
USER  
USER    DPF = D:/Protein_go_brrr/autodock/final/1A3N/IHP/dock.dpf
USER    NEWDPF move	IHP_ideal_opt.pdbqt
USER    NEWDPF about	0.035000 0.082000 -0.065000
USER    NEWDPF tran0	21.343277 -3.733091 38.528549
USER    NEWDPF axisangle0	-0.280040 -0.213988 -0.935835 177.038276
USER    NEWDPF quaternion0	-0.279946 -0.213917 -0.935522 0.025843
USER    NEWDPF dihe0	25.45 144.03 -172.68 24.21 123.66 133.57 36.65 -165.26 88.01 -29.77 42.91 -155.00 -16.28 180.00 -100.04 124.09 -166.32 157.42 -43.54 -5.55 141.17 -18.97 -46.82 2.09 
USER  
USER                              x       y       z    vdW   Elec        q     RMS 
ATOM      1  C   UNL d   1      20.648  -2.412  39.397 -0.07 +0.02    +0.194    41.452
ATOM      2  C   UNL d   1      21.444  -2.035  38.147 -0.10 +0.02    +0.194    41.452
ATOM      3  C   UNL d   1      22.749  -2.827  38.045 -0.09 +0.03    +0.194    41.452
ATOM      4  C   UNL d   1      22.548  -4.335  38.168 -0.08 +0.04    +0.194    41.452
ATOM      5  C   UNL d   1      21.664  -4.750  39.337 -0.05 +0.03    +0.194    41.452
ATOM      6  C   UNL d   1      20.388  -3.917  39.475 -0.03 +0.02    +0.194    41.452
ATOM      7  O   UNL d   1      19.376  -1.763  39.329 -0.06 -0.02    -0.278    41.452
ATOM      8  P   UNL d   1      18.480  -1.708  40.651 -0.02 +0.03    +0.473    41.452
ATOM      9  O   UNL d   1      19.239  -1.557  41.922 -0.01 -0.02    -0.228    41.452
ATOM     10  O   UNL d   1      17.464  -0.508  40.380 -0.02 -0.02    -0.303    41.452
ATOM     11  H   UNL d   1      17.436   0.079  41.159 +0.02 +0.02    +0.222    41.452
ATOM     12  O   UNL d   1      17.528  -2.976  40.557 -0.07 -0.02    -0.303    41.452
ATOM     13  H   UNL d   1      17.849  -3.739  41.090 +0.05 +0.02    +0.222    41.452
ATOM     14  O   UNL d   1      20.650  -2.312  36.986 -0.16 -0.02    -0.278    41.452
ATOM     15  P   UNL d   1      20.439  -1.104  35.957 -0.25 +0.01    +0.473    41.452
ATOM     16  O   UNL d   1      19.025  -0.739  35.630 -0.33 +0.02    -0.228    41.452
ATOM     17  O   UNL d   1      21.254   0.103  36.604 -0.19 +0.01    -0.303    41.452
ATOM     18  H   UNL d   1      22.172   0.125  36.272 -0.40 -0.06    +0.222    41.452
ATOM     19  O   UNL d   1      21.357  -1.478  34.713 -0.30 -0.02    -0.303    41.452
ATOM     20  H   UNL d   1      22.177  -1.924  34.992 +0.13 +0.02    +0.222    41.452
ATOM     21  O   UNL d   1      19.860  -4.183  40.773 -0.05 -0.03    -0.278    41.452
ATOM     22  P   UNL d   1      20.850  -4.349  42.012 -0.01 +0.06    +0.473    41.452
ATOM     23  O   UNL d   1      21.714  -5.564  42.067 -0.01 -0.03    -0.228    41.452
ATOM     24  O   UNL d   1      21.642  -2.968  41.983 -0.00 -0.04    -0.303    41.452
ATOM     25  H   UNL d   1      20.981  -2.233  42.053 +0.01 +0.02    +0.222    41.452
ATOM     26  O   UNL d   1      19.858  -4.135  43.253 -0.00 -0.03    -0.303    41.452
ATOM     27  H   UNL d   1      19.236  -3.408  43.046 +0.01 +0.02    +0.222    41.452
ATOM     28  O   UNL d   1      23.274  -2.622  36.740 -0.11 -0.03    -0.278    41.452
ATOM     29  P   UNL d   1      24.301  -1.436  36.463 -0.22 +0.02    +0.473    41.452
ATOM     30  O   UNL d   1      25.736  -1.821  36.450 -0.30 -0.03    -0.228    41.452
ATOM     31  O   UNL d   1      23.693  -0.851  35.104 -0.27 +0.01    -0.303    41.452
ATOM     32  H   UNL d   1      23.014  -0.174  35.329 -0.33 -0.05    +0.222    41.452
ATOM     33  O   UNL d   1      23.858  -0.352  37.542 -0.19 +0.02    -0.303    41.452
ATOM     34  H   UNL d   1      23.384   0.384  37.082 -0.42 -0.10    +0.222    41.452
ATOM     35  O   UNL d   1      21.262  -6.091  39.062 -0.08 -0.05    -0.278    41.452
ATOM     36  P   UNL d   1      22.214  -7.311  39.446 -0.05 +0.11    +0.473    41.452
ATOM     37  O   UNL d   1      22.613  -8.200  38.311 -0.10 -0.06    -0.228    41.452
ATOM     38  O   UNL d   1      23.431  -6.565  40.153 -0.01 -0.09    -0.303    41.452
ATOM     39  H   UNL d   1      23.147  -5.662  40.412 +0.02 +0.05    +0.222    41.452
ATOM     40  O   UNL d   1      21.428  -7.989  40.652 -0.03 -0.05    -0.303    41.452
ATOM     41  H   UNL d   1      21.462  -7.437  41.465 +0.02 +0.04    +0.222    41.452
ATOM     42  O   UNL d   1      23.840  -4.909  38.393 -0.04 -0.08    -0.278    41.452
ATOM     43  P   UNL d   1      24.519  -5.762  37.229 -0.10 +0.23    +0.473    41.452
ATOM     44  O   UNL d   1      25.555  -6.757  37.621 -0.34 -0.27    -0.228    41.452
ATOM     45  O   UNL d   1      23.263  -6.390  36.479 -0.12 -0.09    -0.303    41.452
ATOM     46  H   UNL d   1      22.515  -6.533  37.092 +0.07 +0.05    +0.222    41.452
ATOM     47  O   UNL d   1      24.995  -4.642  36.185 -0.13 -0.11    -0.303    41.452
ATOM     48  H   UNL d   1      25.111  -3.791  36.656 +0.09 +0.06    +0.222    41.452
TER
ENDMDL
MODEL       63
USER    Run = 63
USER    Cluster Rank = 16
USER    Number of conformations in this cluster = 1
USER  
USER    RMSD from reference structure       = 13.928 A
USER  
USER    Estimated Free Energy of Binding    =   +2.18 kcal/mol  [=(1)+(2)+(3)-(4)]
USER    
USER    (1) Final Intermolecular Energy     =   -4.98 kcal/mol
USER        vdW + Hbond + desolv Energy     =   -4.77 kcal/mol
USER        Electrostatic Energy            =   -0.21 kcal/mol
USER    (2) Final Total Internal Energy     =  -12.88 kcal/mol
USER    (3) Torsional Free Energy           =   +7.16 kcal/mol
USER    (4) Unbound System's Energy  [=(2)] =  -12.88 kcal/mol
USER    
USER    
USER  
USER    DPF = D:/Protein_go_brrr/autodock/final/1A3N/IHP/dock.dpf
USER    NEWDPF move	IHP_ideal_opt.pdbqt
USER    NEWDPF about	0.035000 0.082000 -0.065000
USER    NEWDPF tran0	4.428951 16.523206 -0.759258
USER    NEWDPF axisangle0	0.968090 -0.144621 0.204664 172.328340
USER    NEWDPF quaternion0	0.965921 -0.144297 0.204206 0.066898
USER    NEWDPF dihe0	-107.13 17.82 -162.45 75.71 13.91 -179.74 1.47 -114.15 2.25 -75.39 -7.31 160.22 49.78 -22.87 -56.77 -81.42 -43.17 -147.25 37.24 -3.92 -171.42 27.11 -177.65 -12.74 
USER  
USER                              x       y       z    vdW   Elec        q     RMS 
ATOM      1  C   UNL d   1       6.076  17.038  -0.840 -0.12 -0.07    +0.194    13.928
ATOM      2  C   UNL d   1       5.033  18.158  -0.822 -0.04 -0.04    +0.194    13.928
ATOM      3  C   UNL d   1       3.847  17.842  -1.735 -0.01 -0.02    +0.194    13.928
ATOM      4  C   UNL d   1       3.228  16.472  -1.466 -0.04 -0.03    +0.194    13.928
ATOM      5  C   UNL d   1       4.244  15.342  -1.361 -0.11 -0.04    +0.194    13.928
ATOM      6  C   UNL d   1       5.461  15.681  -0.497 -0.18 -0.07    +0.194    13.928
ATOM      7  O   UNL d   1       7.057  17.326   0.159 -0.12 +0.19    -0.278    13.928
ATOM      8  P   UNL d   1       8.272  18.290  -0.225 -0.11 -0.15    +0.473    13.928
ATOM      9  O   UNL d   1       8.144  19.691   0.261 -0.08 +0.02    -0.228    13.928
ATOM     10  O   UNL d   1       9.557  17.540   0.351 -0.24 +0.16    -0.303    13.928
ATOM     11  H   UNL d   1       9.966  17.004  -0.354 -0.30 -0.14    +0.222    13.928
ATOM     12  O   UNL d   1       8.458  18.114  -1.793 -0.09 +0.05    -0.303    13.928
ATOM     13  H   UNL d   1       8.164  17.234  -2.120 +0.08 -0.04    +0.222    13.928
ATOM     14  O   UNL d   1       4.548  18.322   0.516 -0.07 +0.08    -0.278    13.928
ATOM     15  P   UNL d   1       4.595  19.806   1.117 -0.06 -0.04    +0.473    13.928
ATOM     16  O   UNL d   1       4.395  20.930   0.149 -0.06 -0.01    -0.228    13.928
ATOM     17  O   UNL d   1       3.503  19.789   2.277 -0.10 +0.08    -0.303    13.928
ATOM     18  H   UNL d   1       3.924  19.707   3.155 -0.17 -0.12    +0.222    13.928
ATOM     19  O   UNL d   1       5.948  19.853   1.953 -0.18 -0.03    -0.303    13.928
ATOM     20  H   UNL d   1       6.541  19.115   1.719 +0.03 -0.04    +0.222    13.928
ATOM     21  O   UNL d   1       6.450  14.692  -0.773 -0.25 +0.09    -0.278    13.928
ATOM     22  P   UNL d   1       7.447  14.890  -2.003 -0.18 -0.13    +0.473    13.928
ATOM     23  O   UNL d   1       6.988  15.719  -3.155 -0.09 +0.04    -0.228    13.928
ATOM     24  O   UNL d   1       8.758  15.424  -1.277 -0.29 +0.15    -0.303    13.928
ATOM     25  H   UNL d   1       8.504  16.194  -0.708 +0.04 -0.12    +0.222    13.928
ATOM     26  O   UNL d   1       7.850  13.376  -2.343 -0.25 +0.08    -0.303    13.928
ATOM     27  H   UNL d   1       7.315  12.769  -1.790 -0.02 -0.06    +0.222    13.928
ATOM     28  O   UNL d   1       2.821  18.783  -1.446 -0.00 +0.02    -0.278    13.928
ATOM     29  P   UNL d   1       1.988  19.453  -2.626 +0.00 -0.03    +0.473    13.928
ATOM     30  O   UNL d   1       2.294  20.881  -2.897 -0.01 +0.00    -0.228    13.928
ATOM     31  O   UNL d   1       2.285  18.411  -3.804 -0.02 +0.03    -0.303    13.928
ATOM     32  H   UNL d   1       2.059  17.506  -3.487 +0.04 -0.03    +0.222    13.928
ATOM     33  O   UNL d   1       0.489  19.103  -2.217 -0.03 +0.01    -0.303    13.928
ATOM     34  H   UNL d   1       0.408  18.125  -2.100 +0.05 -0.01    +0.222    13.928
ATOM     35  O   UNL d   1       3.561  14.266  -0.721 -0.16 +0.05    -0.278    13.928
ATOM     36  P   UNL d   1       2.694  14.530   0.591 -0.13 -0.11    +0.473    13.928
ATOM     37  O   UNL d   1       2.640  15.952   1.053 -0.10 +0.06    -0.228    13.928
ATOM     38  O   UNL d   1       1.282  13.923   0.176 -0.23 +0.06    -0.303    13.928
ATOM     39  H   UNL d   1       0.889  14.478  -0.532 +0.12 -0.02    +0.222    13.928
ATOM     40  O   UNL d   1       3.285  13.462   1.610 -0.29 +0.10    -0.303    13.928
ATOM     41  H   UNL d   1       2.608  12.804   1.882 -0.37 -0.15    +0.222    13.928
ATOM     42  O   UNL d   1       2.380  16.174  -2.580 -0.05 +0.04    -0.278    13.928
ATOM     43  P   UNL d   1       0.843  15.843  -2.312 -0.13 -0.04    +0.473    13.928
ATOM     44  O   UNL d   1       0.434  14.411  -2.341 -0.30 +0.02    -0.228    13.928
ATOM     45  O   UNL d   1       0.566  16.571  -0.924 -0.09 +0.02    -0.303    13.928
ATOM     46  H   UNL d   1       0.885  16.037  -0.169 +0.10 -0.02    +0.222    13.928
ATOM     47  O   UNL d   1       0.076  16.802  -3.342 -0.22 +0.02    -0.303    13.928
ATOM     48  H   UNL d   1       0.669  17.537  -3.600 +0.04 -0.03    +0.222    13.928
TER
ENDMDL
MODEL       38
USER    Run = 38
USER    Cluster Rank = 17
USER    Number of conformations in this cluster = 1
USER  
USER    RMSD from reference structure       = 28.635 A
USER  
USER    Estimated Free Energy of Binding    =   +2.19 kcal/mol  [=(1)+(2)+(3)-(4)]
USER    
USER    (1) Final Intermolecular Energy     =   -4.97 kcal/mol
USER        vdW + Hbond + desolv Energy     =   -4.59 kcal/mol
USER        Electrostatic Energy            =   -0.38 kcal/mol
USER    (2) Final Total Internal Energy     =  -12.77 kcal/mol
USER    (3) Torsional Free Energy           =   +7.16 kcal/mol
USER    (4) Unbound System's Energy  [=(2)] =  -12.77 kcal/mol
USER    
USER    
USER  
USER    DPF = D:/Protein_go_brrr/autodock/final/1A3N/IHP/dock.dpf
USER    NEWDPF move	IHP_ideal_opt.pdbqt
USER    NEWDPF about	0.035000 0.082000 -0.065000
USER    NEWDPF tran0	16.731877 -23.022634 16.666275
USER    NEWDPF axisangle0	0.470804 -0.424658 -0.773310 -172.521057
USER    NEWDPF quaternion0	0.469801 -0.423754 -0.771664 -0.065220
USER    NEWDPF dihe0	133.46 93.11 147.27 58.20 151.51 132.19 -106.42 -32.03 86.59 89.09 -166.65 140.33 -76.52 -55.94 47.05 -46.48 100.04 162.52 -145.22 -13.10 -179.84 14.82 3.19 -180.00 
USER  
USER                              x       y       z    vdW   Elec        q     RMS 
ATOM      1  C   UNL d   1      15.690 -22.617  15.350 -0.01 +0.02    +0.194    28.635
ATOM      2  C   UNL d   1      16.903 -21.705  15.537 -0.06 +0.01    +0.194    28.635
ATOM      3  C   UNL d   1      17.134 -21.364  17.011 -0.14 +0.02    +0.194    28.635
ATOM      4  C   UNL d   1      17.193 -22.596  17.911 +0.22 -0.02    +0.194    28.635
ATOM      5  C   UNL d   1      16.063 -23.590  17.677 -0.08 -0.00    +0.194    28.635
ATOM      6  C   UNL d   1      15.792 -23.884  16.200 -0.03 +0.00    +0.194    28.635
ATOM      7  O   UNL d   1      15.646 -23.026  13.980 -0.01 -0.02    -0.278    28.635
ATOM      8  P   UNL d   1      16.370 -24.390  13.572 +0.01 -0.01    +0.473    28.635
ATOM      9  O   UNL d   1      17.478 -24.810  14.472 -0.04 +0.04    -0.228    28.635
ATOM     10  O   UNL d   1      15.182 -25.452  13.500 -0.00 -0.01    -0.303    28.635
ATOM     11  H   UNL d   1      14.443 -25.155  14.063 +0.00 +0.01    +0.222    28.635
ATOM     12  O   UNL d   1      16.750 -24.212  12.039 -0.01 +0.01    -0.303    28.635
ATOM     13  H   UNL d   1      17.190 -23.353  11.848 +0.04 -0.01    +0.222    28.635
ATOM     14  O   UNL d   1      18.069 -22.370  15.034 -0.09 +0.04    -0.278    28.635
ATOM     15  P   UNL d   1      18.830 -21.659  13.818 -0.08 -0.06    +0.473    28.635
ATOM     16  O   UNL d   1      18.245 -20.375  13.318 -0.11 -0.02    -0.228    28.635
ATOM     17  O   UNL d   1      20.326 -21.493  14.340 -0.20 +0.14    -0.303    28.635
ATOM     18  H   UNL d   1      20.677 -22.340  14.676 -0.43 -0.28    +0.222    28.635
ATOM     19  O   UNL d   1      18.997 -22.806  12.729 -0.09 +0.06    -0.303    28.635
ATOM     20  H   UNL d   1      18.637 -23.656  13.043 +0.05 -0.05    +0.222    28.635
ATOM     21  O   UNL d   1      14.525 -24.535  16.135 -0.00 -0.02    -0.278    28.635
ATOM     22  P   UNL d   1      13.186 -23.676  16.263 +0.01 +0.09    +0.473    28.635
ATOM     23  O   UNL d   1      12.735 -22.893  15.077 +0.00 -0.06    -0.228    28.635
ATOM     24  O   UNL d   1      12.148 -24.768  16.777 +0.00 -0.04    -0.303    28.635
ATOM     25  H   UNL d   1      12.220 -24.822  17.764 +0.00 +0.03    +0.222    28.635
ATOM     26  O   UNL d   1      13.467 -22.833  17.598 -0.00 -0.08    -0.303    28.635
ATOM     27  H   UNL d   1      13.882 -23.416  18.265 +0.03 +0.04    +0.222    28.635
ATOM     28  O   UNL d   1      18.416 -20.759  17.115 -0.23 -0.01    -0.278    28.635
ATOM     29  P   UNL d   1      18.578 -19.330  17.800 -0.26 +0.12    +0.473    28.635
ATOM     30  O   UNL d   1      18.071 -18.179  17.009 -0.15 -0.07    -0.228    28.635
ATOM     31  O   UNL d   1      17.870 -19.613  19.207 -0.86 -0.16    -0.303    28.635
ATOM     32  H   UNL d   1      16.963 -19.960  19.038 +0.11 +0.11    +0.222    28.635
ATOM     33  O   UNL d   1      20.124 -19.316  18.181 -0.89 -0.05    -0.303    28.635
ATOM     34  H   UNL d   1      20.614 -19.904  17.556 -0.41 -0.11    +0.222    28.635
ATOM     35  O   UNL d   1      16.492 -24.811  18.276 -0.08 +0.03    -0.278    28.635
ATOM     36  P   UNL d   1      15.500 -25.642  19.209 -0.02 -0.00    +0.473    28.635
ATOM     37  O   UNL d   1      15.623 -27.130  19.118 -0.01 +0.00    -0.228    28.635
ATOM     38  O   UNL d   1      15.828 -25.045  20.648 -0.09 +0.01    -0.303    28.635
ATOM     39  H   UNL d   1      16.312 -24.198  20.541 +0.01 -0.02    +0.222    28.635
ATOM     40  O   UNL d   1      14.085 -25.012  18.846 -0.01 -0.02    -0.303    28.635
ATOM     41  H   UNL d   1      13.957 -24.941  17.874 +0.01 +0.02    +0.222    28.635
ATOM     42  O   UNL d   1      17.073 -22.130  19.259 -0.25 -0.02    -0.278    28.635
ATOM     43  P   UNL d   1      15.679 -21.524  19.744 -0.21 +0.15    +0.473    28.635
ATOM     44  O   UNL d   1      15.714 -20.505  20.830 -0.17 -0.12    -0.228    28.635
ATOM     45  O   UNL d   1      15.033 -21.005  18.385 -0.09 -0.15    -0.303    28.635
ATOM     46  H   UNL d   1      14.177 -21.444  18.206 +0.05 +0.11    +0.222    28.635
ATOM     47  O   UNL d   1      14.798 -22.828  20.047 -0.07 -0.05    -0.303    28.635
ATOM     48  H   UNL d   1      14.961 -23.497  19.350 +0.05 +0.02    +0.222    28.635
TER
ENDMDL
MODEL       68
USER    Run = 68
USER    Cluster Rank = 18
USER    Number of conformations in this cluster = 1
USER  
USER    RMSD from reference structure       = 13.426 A
USER  
USER    Estimated Free Energy of Binding    =   +2.21 kcal/mol  [=(1)+(2)+(3)-(4)]
USER    
USER    (1) Final Intermolecular Energy     =   -4.95 kcal/mol
USER        vdW + Hbond + desolv Energy     =   -5.05 kcal/mol
USER        Electrostatic Energy            =   +0.10 kcal/mol
USER    (2) Final Total Internal Energy     =  -13.99 kcal/mol
USER    (3) Torsional Free Energy           =   +7.16 kcal/mol
USER    (4) Unbound System's Energy  [=(2)] =  -13.99 kcal/mol
USER    
USER    
USER  
USER    DPF = D:/Protein_go_brrr/autodock/final/1A3N/IHP/dock.dpf
USER    NEWDPF move	IHP_ideal_opt.pdbqt
USER    NEWDPF about	0.035000 0.082000 -0.065000
USER    NEWDPF tran0	-14.214840 8.498278 5.394390
USER    NEWDPF axisangle0	0.773082 -0.598185 0.210996 -133.372011
USER    NEWDPF quaternion0	0.709959 -0.549343 0.193768 -0.395770
USER    NEWDPF dihe0	-165.85 110.69 4.05 167.70 47.62 132.61 -36.90 -92.55 30.35 77.24 147.22 127.65 -22.95 -89.34 142.97 -62.14 -73.65 -165.01 -8.45 6.56 -9.53 -6.30 179.61 17.60 
USER  
USER                              x       y       z    vdW   Elec        q     RMS 
ATOM      1  C   UNL d   1     -13.110   7.174   5.490 -0.13 -0.08    +0.194    13.426
ATOM      2  C   UNL d   1     -12.701   8.309   4.549 -0.12 -0.08    +0.194    13.426
ATOM      3  C   UNL d   1     -13.883   8.805   3.713 -0.02 -0.06    +0.194    13.426
ATOM      4  C   UNL d   1     -15.106   9.163   4.554 -0.01 -0.04    +0.194    13.426
ATOM      5  C   UNL d   1     -15.481   8.108   5.586 -0.03 -0.05    +0.194    13.426
ATOM      6  C   UNL d   1     -14.289   7.568   6.380 -0.10 -0.06    +0.194    13.426
ATOM      7  O   UNL d   1     -12.004   6.888   6.350 -0.16 +0.14    -0.278    13.426
ATOM      8  P   UNL d   1     -11.549   5.366   6.521 -0.27 -0.24    +0.473    13.426
ATOM      9  O   UNL d   1     -11.821   4.491   5.349 -0.27 +0.14    -0.228    13.426
ATOM     10  O   UNL d   1      -9.999   5.465   6.885 -0.45 +0.14    -0.303    13.426
ATOM     11  H   UNL d   1      -9.844   6.246   7.449 -0.36 -0.13    +0.222    13.426
ATOM     12  O   UNL d   1     -12.185   4.898   7.900 -0.27 +0.10    -0.303    13.426
ATOM     13  H   UNL d   1     -13.169   4.877   7.883 -0.07 -0.09    +0.222    13.426
ATOM     14  O   UNL d   1     -12.201   9.404   5.327 -0.13 +0.07    -0.278    13.426
ATOM     15  P   UNL d   1     -10.897  10.143   4.767 -0.23 -0.05    +0.473    13.426
ATOM     16  O   UNL d   1      -9.898   9.291   4.047 -0.49 +0.06    -0.228    13.426
ATOM     17  O   UNL d   1     -11.476  11.316   3.858 -0.13 +0.04    -0.303    13.426
ATOM     18  H   UNL d   1     -11.573  11.027   2.930 +0.08 -0.04    +0.222    13.426
ATOM     19  O   UNL d   1     -10.334  10.954   6.014 -0.40 -0.03    -0.303    13.426
ATOM     20  H   UNL d   1      -9.515  10.556   6.363 -0.23 +0.12    +0.222    13.426
ATOM     21  O   UNL d   1     -14.734   6.381   7.034 -0.12 +0.09    -0.278    13.426
ATOM     22  P   UNL d   1     -14.874   6.359   8.623 -0.23 -0.16    +0.473    13.426
ATOM     23  O   UNL d   1     -15.488   5.157   9.260 -0.23 +0.11    -0.228    13.426
ATOM     24  O   UNL d   1     -13.384   6.671   9.086 -0.38 +0.13    -0.303    13.426
ATOM     25  H   UNL d   1     -12.779   6.488   8.322 +0.13 -0.09    +0.222    13.426
ATOM     26  O   UNL d   1     -15.608   7.756   8.906 -0.13 +0.07    -0.303    13.426
ATOM     27  H   UNL d   1     -15.214   8.447   8.335 +0.09 -0.06    +0.222    13.426
ATOM     28  O   UNL d   1     -13.486  10.018   3.087 -0.01 +0.07    -0.278    13.426
ATOM     29  P   UNL d   1     -13.115  10.041   1.539 +0.01 -0.12    +0.473    13.426
ATOM     30  O   UNL d   1     -11.695   9.744   1.216 -0.07 +0.08    -0.228    13.426
ATOM     31  O   UNL d   1     -14.216   9.026   0.973 +0.00 +0.07    -0.303    13.426
ATOM     32  H   UNL d   1     -14.905   8.894   1.664 +0.01 -0.05    +0.222    13.426
ATOM     33  O   UNL d   1     -13.675  11.459   1.082 -0.00 +0.06    -0.303    13.426
ATOM     34  H   UNL d   1     -14.488  11.667   1.605 +0.01 -0.04    +0.222    13.426
ATOM     35  O   UNL d   1     -16.341   8.764   6.515 -0.02 +0.05    -0.278    13.426
ATOM     36  P   UNL d   1     -15.917  10.161   7.157 -0.08 -0.09    +0.473    13.426
ATOM     37  O   UNL d   1     -14.445  10.383   7.303 -0.21 +0.08    -0.228    13.426
ATOM     38  O   UNL d   1     -16.643  11.198   6.191 -0.02 +0.05    -0.303    13.426
ATOM     39  H   UNL d   1     -16.570  10.879   5.265 +0.02 -0.03    +0.222    13.426
ATOM     40  O   UNL d   1     -16.788  10.203   8.487 -0.11 +0.04    -0.303    13.426
ATOM     41  H   UNL d   1     -16.886   9.310   8.887 +0.06 -0.03    +0.222    13.426
ATOM     42  O   UNL d   1     -16.210   9.280   3.650 +0.00 +0.05    -0.278    13.426
ATOM     43  P   UNL d   1     -16.576  10.715   3.060 +0.00 -0.07    +0.473    13.426
ATOM     44  O   UNL d   1     -17.930  11.258   3.362 -0.00 +0.02    -0.228    13.426
ATOM     45  O   UNL d   1     -15.379  11.624   3.584 -0.00 +0.05    -0.303    13.426
ATOM     46  H   UNL d   1     -14.554  11.448   3.089 +0.02 -0.04    +0.222    13.426
ATOM     47  O   UNL d   1     -16.220  10.573   1.503 +0.00 +0.04    -0.303    13.426
ATOM     48  H   UNL d   1     -15.298  10.255   1.411 +0.00 -0.04    +0.222    13.426
TER
ENDMDL
MODEL       79
USER    Run = 79
USER    Cluster Rank = 19
USER    Number of conformations in this cluster = 1
USER  
USER    RMSD from reference structure       = 27.344 A
USER  
USER    Estimated Free Energy of Binding    =   +2.21 kcal/mol  [=(1)+(2)+(3)-(4)]
USER    
USER    (1) Final Intermolecular Energy     =   -4.94 kcal/mol
USER        vdW + Hbond + desolv Energy     =   -4.84 kcal/mol
USER        Electrostatic Energy            =   -0.11 kcal/mol
USER    (2) Final Total Internal Energy     =  -13.67 kcal/mol
USER    (3) Torsional Free Energy           =   +7.16 kcal/mol
USER    (4) Unbound System's Energy  [=(2)] =  -13.67 kcal/mol
USER    
USER    
USER  
USER    DPF = D:/Protein_go_brrr/autodock/final/1A3N/IHP/dock.dpf
USER    NEWDPF move	IHP_ideal_opt.pdbqt
USER    NEWDPF about	0.035000 0.082000 -0.065000
USER    NEWDPF tran0	4.516519 -11.761875 26.728314
USER    NEWDPF axisangle0	0.132763 -0.916641 0.377018 -129.571947
USER    NEWDPF quaternion0	0.120113 -0.829306 0.341097 -0.426001
USER    NEWDPF dihe0	129.86 112.64 66.43 29.99 -13.54 177.54 -106.91 -141.63 138.36 -18.68 -94.87 -175.35 -46.25 168.34 -179.94 -142.05 167.99 1.05 46.44 -14.68 -180.00 -31.90 22.87 166.18 
USER  
USER                              x       y       z    vdW   Elec        q     RMS 
ATOM      1  C   UNL d   1       3.695 -12.832  27.808 -0.06 +0.00    +0.194    27.344
ATOM      2  C   UNL d   1       5.079 -13.293  27.346 -0.10 +0.02    +0.194    27.344
ATOM      3  C   UNL d   1       5.285 -13.053  25.849 -0.10 +0.02    +0.194    27.344
ATOM      4  C   UNL d   1       4.983 -11.618  25.422 -0.14 +0.02    +0.194    27.344
ATOM      5  C   UNL d   1       3.663 -11.077  25.958 -0.12 +0.03    +0.194    27.344
ATOM      6  C   UNL d   1       3.429 -11.371  27.441 -0.08 -0.00    +0.194    27.344
ATOM      7  O   UNL d   1       3.646 -12.928  29.233 -0.06 +0.01    -0.278    27.344
ATOM      8  P   UNL d   1       3.476 -14.374  29.891 +0.00 +0.00    +0.473    27.344
ATOM      9  O   UNL d   1       3.510 -15.512  28.931 -0.01 -0.01    -0.228    27.344
ATOM     10  O   UNL d   1       4.636 -14.441  30.985 -0.02 -0.00    -0.303    27.344
ATOM     11  H   UNL d   1       5.378 -13.871  30.709 +0.06 +0.00    +0.222    27.344
ATOM     12  O   UNL d   1       2.173 -14.267  30.793 -0.00 +0.01    -0.303    27.344
ATOM     13  H   UNL d   1       1.349 -14.149  30.269 +0.02 -0.01    +0.222    27.344
ATOM     14  O   UNL d   1       6.079 -12.564  28.067 -0.19 -0.01    -0.278    27.344
ATOM     15  P   UNL d   1       7.046 -13.420  29.014 -0.22 +0.16    +0.473    27.344
ATOM     16  O   UNL d   1       7.323 -12.860  30.374 -0.24 -0.00    -0.228    27.344
ATOM     17  O   UNL d   1       6.362 -14.858  29.066 -0.12 -0.16    -0.303    27.344
ATOM     18  H   UNL d   1       5.394 -14.792  28.957 +0.05 +0.05    +0.222    27.344
ATOM     19  O   UNL d   1       8.327 -13.708  28.117 -0.61 -0.31    -0.303    27.344
ATOM     20  H   UNL d   1       8.101 -13.754  27.169 +0.09 +0.14    +0.222    27.344
ATOM     21  O   UNL d   1       2.049 -11.120  27.698 -0.04 +0.01    -0.278    27.344
ATOM     22  P   UNL d   1       0.954 -12.192  27.256 +0.00 +0.00    +0.473    27.344
ATOM     23  O   UNL d   1      -0.406 -11.700  26.889 -0.04 +0.01    -0.228    27.344
ATOM     24  O   UNL d   1       1.714 -12.977  26.099 -0.08 -0.04    -0.303    27.344
ATOM     25  H   UNL d   1       1.664 -12.432  25.273 +0.08 +0.08    +0.222    27.344
ATOM     26  O   UNL d   1       1.018 -13.242  28.466 -0.01 +0.01    -0.303    27.344
ATOM     27  H   UNL d   1       1.647 -12.916  29.142 +0.03 -0.01    +0.222    27.344
ATOM     28  O   UNL d   1       6.666 -13.246  25.570 -0.14 -0.02    -0.278    27.344
ATOM     29  P   UNL d   1       7.260 -14.717  25.430 -0.15 +0.13    +0.473    27.344
ATOM     30  O   UNL d   1       8.743 -14.810  25.417 -0.37 -0.07    -0.228    27.344
ATOM     31  O   UNL d   1       6.498 -15.442  26.636 -0.08 -0.12    -0.303    27.344
ATOM     32  H   UNL d   1       6.675 -14.941  27.466 +0.08 +0.12    +0.222    27.344
ATOM     33  O   UNL d   1       6.493 -15.266  24.148 -0.09 -0.07    -0.303    27.344
ATOM     34  H   UNL d   1       5.603 -15.597  24.423 +0.07 +0.04    +0.222    27.344
ATOM     35  O   UNL d   1       3.741  -9.660  25.818 -0.14 -0.01    -0.278    27.344
ATOM     36  P   UNL d   1       2.412  -8.792  25.660 -0.09 +0.03    +0.473    27.344
ATOM     37  O   UNL d   1       2.539  -7.565  24.816 -0.21 +0.00    -0.228    27.344
ATOM     38  O   UNL d   1       1.384  -9.871  25.098 -0.29 -0.13    -0.303    27.344
ATOM     39  H   UNL d   1       1.194 -10.531  25.799 +0.08 +0.05    +0.222    27.344
ATOM     40  O   UNL d   1       1.960  -8.585  27.171 -0.08 +0.04    -0.303    27.344
ATOM     41  H   UNL d   1       1.784  -9.442  27.620 +0.07 -0.02    +0.222    27.344
ATOM     42  O   UNL d   1       4.888 -11.621  23.994 -0.11 -0.09    -0.278    27.344
ATOM     43  P   UNL d   1       3.864 -12.623  23.291 -0.08 +0.35    +0.473    27.344
ATOM     44  O   UNL d   1       2.483 -12.693  23.844 -0.43 -0.21    -0.228    27.344
ATOM     45  O   UNL d   1       3.932 -12.178  21.765 -0.51 -0.34    -0.303    27.344
ATOM     46  H   UNL d   1       3.212 -12.582  21.241 -0.35 +0.25    +0.222    27.344
ATOM     47  O   UNL d   1       4.669 -14.009  23.262 -0.19 -0.09    -0.303    27.344
ATOM     48  H   UNL d   1       5.526 -13.894  23.723 +0.09 +0.05    +0.222    27.344
TER
ENDMDL
MODEL       61
USER    Run = 61
USER    Cluster Rank = 20
USER    Number of conformations in this cluster = 1
USER  
USER    RMSD from reference structure       = 13.814 A
USER  
USER    Estimated Free Energy of Binding    =   +2.22 kcal/mol  [=(1)+(2)+(3)-(4)]
USER    
USER    (1) Final Intermolecular Energy     =   -4.94 kcal/mol
USER        vdW + Hbond + desolv Energy     =   -4.09 kcal/mol
USER        Electrostatic Energy            =   -0.85 kcal/mol
USER    (2) Final Total Internal Energy     =  -13.34 kcal/mol
USER    (3) Torsional Free Energy           =   +7.16 kcal/mol
USER    (4) Unbound System's Energy  [=(2)] =  -13.34 kcal/mol
USER    
USER    
USER  
USER    DPF = D:/Protein_go_brrr/autodock/final/1A3N/IHP/dock.dpf
USER    NEWDPF move	IHP_ideal_opt.pdbqt
USER    NEWDPF about	0.035000 0.082000 -0.065000
USER    NEWDPF tran0	-12.793250 -12.170872 0.094394
USER    NEWDPF axisangle0	-0.911578 -0.284851 0.296454 163.077420
USER    NEWDPF quaternion0	-0.901656 -0.281751 0.293227 0.147141
USER    NEWDPF dihe0	120.30 96.95 -168.13 -37.22 159.88 143.25 -21.92 -134.67 -4.12 119.04 102.08 -159.55 166.22 73.31 -111.70 -47.94 -125.08 142.38 -5.02 -42.35 138.07 10.81 150.77 -10.08 
USER  
USER                              x       y       z    vdW   Elec        q     RMS 
ATOM      1  C   UNL d   1     -12.835 -11.274  -1.382 -0.04 -0.07    +0.194    13.814
ATOM      2  C   UNL d   1     -13.984 -11.000  -0.409 -0.04 -0.06    +0.194    13.814
ATOM      3  C   UNL d   1     -14.526 -12.292   0.205 -0.00 -0.04    +0.194    13.814
ATOM      4  C   UNL d   1     -13.439 -13.165   0.827 -0.01 -0.05    +0.194    13.814
ATOM      5  C   UNL d   1     -12.222 -13.371  -0.065 -0.02 -0.08    +0.194    13.814
ATOM      6  C   UNL d   1     -11.717 -12.088  -0.729 -0.05 -0.08    +0.194    13.814
ATOM      7  O   UNL d   1     -12.275 -10.019  -1.775 -0.11 +0.20    -0.278    13.814
ATOM      8  P   UNL d   1     -12.123  -9.712  -3.336 -0.04 -0.31    +0.473    13.814
ATOM      9  O   UNL d   1     -10.888  -8.974  -3.716 -0.22 +0.13    -0.228    13.814
ATOM     10  O   UNL d   1     -12.236 -11.146  -4.025 -0.03 +0.06    -0.303    13.814
ATOM     11  H   UNL d   1     -11.788 -11.812  -3.470 +0.04 -0.05    +0.222    13.814
ATOM     12  O   UNL d   1     -13.495  -9.032  -3.758 -0.13 +0.27    -0.303    13.814
ATOM     13  H   UNL d   1     -13.743  -8.274  -3.182 -0.32 -0.45    +0.222    13.814
ATOM     14  O   UNL d   1     -13.510 -10.156   0.647 -0.10 +0.09    -0.278    13.814
ATOM     15  P   UNL d   1     -13.623  -8.577   0.407 -0.17 -0.25    +0.473    13.814
ATOM     16  O   UNL d   1     -14.281  -7.778   1.488 -0.57 +0.04    -0.228    13.814
ATOM     17  O   UNL d   1     -12.123  -8.119   0.127 -0.01 +0.26    -0.303    13.814
ATOM     18  H   UNL d   1     -11.943  -8.070  -0.831 -0.27 -0.44    +0.222    13.814
ATOM     19  O   UNL d   1     -14.273  -8.441  -1.038 -0.16 +0.30    -0.303    13.814
ATOM     20  H   UNL d   1     -13.597  -8.299  -1.726 -0.19 -0.42    +0.222    13.814
ATOM     21  O   UNL d   1     -10.826 -12.484  -1.769 -0.03 +0.12    -0.278    13.814
ATOM     22  P   UNL d   1     -11.125 -13.810  -2.605 +0.01 -0.16    +0.473    13.814
ATOM     23  O   UNL d   1     -10.728 -15.121  -2.014 -0.03 +0.11    -0.228    13.814
ATOM     24  O   UNL d   1     -12.680 -13.658  -2.909 +0.00 +0.06    -0.303    13.814
ATOM     25  H   UNL d   1     -12.780 -13.226  -3.795 +0.01 -0.04    +0.222    13.814
ATOM     26  O   UNL d   1     -10.474 -13.453  -4.025 +0.00 +0.07    -0.303    13.814
ATOM     27  H   UNL d   1     -10.537 -12.487  -4.175 +0.04 -0.04    +0.222    13.814
ATOM     28  O   UNL d   1     -15.380 -11.929   1.282 -0.00 +0.05    -0.278    13.814
ATOM     29  P   UNL d   1     -16.907 -12.382   1.287 +0.00 -0.07    +0.473    13.814
ATOM     30  O   UNL d   1     -17.794 -11.656   0.342 +0.00 +0.03    -0.228    13.814
ATOM     31  O   UNL d   1     -16.732 -13.956   1.054 +0.00 +0.04    -0.303    13.814
ATOM     32  H   UNL d   1     -15.871 -14.237   1.443 +0.00 -0.03    +0.222    13.814
ATOM     33  O   UNL d   1     -17.277 -12.295   2.833 -0.00 +0.04    -0.303    13.814
ATOM     34  H   UNL d   1     -16.879 -13.068   3.303 +0.01 -0.03    +0.222    13.814
ATOM     35  O   UNL d   1     -11.184 -13.834   0.796 -0.07 +0.19    -0.278    13.814
ATOM     36  P   UNL d   1     -10.387 -12.807   1.720 -0.09 -0.33    +0.473    13.814
ATOM     37  O   UNL d   1      -9.294 -12.044   1.042 -0.37 +0.19    -0.228    13.814
ATOM     38  O   UNL d   1     -11.564 -11.899   2.290 -0.55 +0.06    -0.303    13.814
ATOM     39  H   UNL d   1     -11.878 -11.298   1.580 +0.09 -0.06    +0.222    13.814
ATOM     40  O   UNL d   1      -9.972 -13.716   2.958 -0.24 +0.30    -0.303    13.814
ATOM     41  H   UNL d   1      -9.208 -14.297   2.744 -0.49 -0.44    +0.222    13.814
ATOM     42  O   UNL d   1     -14.020 -14.455   1.050 +0.00 +0.06    -0.278    13.814
ATOM     43  P   UNL d   1     -14.053 -15.039   2.534 +0.01 -0.10    +0.473    13.814
ATOM     44  O   UNL d   1     -14.492 -16.452   2.706 +0.00 +0.04    -0.228    13.814
ATOM     45  O   UNL d   1     -12.578 -14.748   3.057 -0.01 +0.10    -0.303    13.814
ATOM     46  H   UNL d   1     -12.196 -13.957   2.626 +0.05 -0.08    +0.222    13.814
ATOM     47  O   UNL d   1     -14.906 -13.947   3.339 +0.00 +0.05    -0.303    13.814
ATOM     48  H   UNL d   1     -15.426 -13.412   2.705 +0.01 -0.04    +0.222    13.814
TER
ENDMDL
MODEL       66
USER    Run = 66
USER    Cluster Rank = 21
USER    Number of conformations in this cluster = 1
USER  
USER    RMSD from reference structure       = 17.985 A
USER  
USER    Estimated Free Energy of Binding    =   +2.29 kcal/mol  [=(1)+(2)+(3)-(4)]
USER    
USER    (1) Final Intermolecular Energy     =   -4.86 kcal/mol
USER        vdW + Hbond + desolv Energy     =   -4.58 kcal/mol
USER        Electrostatic Energy            =   -0.29 kcal/mol
USER    (2) Final Total Internal Energy     =  -14.78 kcal/mol
USER    (3) Torsional Free Energy           =   +7.16 kcal/mol
USER    (4) Unbound System's Energy  [=(2)] =  -14.78 kcal/mol
USER    
USER    
USER  
USER    DPF = D:/Protein_go_brrr/autodock/final/1A3N/IHP/dock.dpf
USER    NEWDPF move	IHP_ideal_opt.pdbqt
USER    NEWDPF about	0.035000 0.082000 -0.065000
USER    NEWDPF tran0	12.515762 -9.854649 -12.747146
USER    NEWDPF axisangle0	0.468127 -0.880156 -0.078634 160.051203
USER    NEWDPF quaternion0	0.461051 -0.866852 -0.077445 0.173208
USER    NEWDPF dihe0	-10.93 18.73 163.23 4.97 109.28 118.66 -13.68 -129.55 99.74 -39.42 9.63 -128.73 7.94 178.44 -130.11 110.11 -142.53 -55.95 -1.14 11.44 -4.62 3.58 -6.57 177.50 
USER  
USER                              x       y       z    vdW   Elec        q     RMS 
ATOM      1  C   UNL d   1      12.785 -11.090 -13.924 -0.12 +0.10    +0.194    17.985
ATOM      2  C   UNL d   1      14.008 -10.687 -13.098 -0.15 +0.08    +0.194    17.985
ATOM      3  C   UNL d   1      14.105  -9.169 -12.933 -0.16 +0.04    +0.194    17.985
ATOM      4  C   UNL d   1      12.818  -8.537 -12.407 -0.21 +0.02    +0.194    17.985
ATOM      5  C   UNL d   1      11.559  -9.000 -13.129 -0.19 +0.02    +0.194    17.985
ATOM      6  C   UNL d   1      11.492 -10.513 -13.348 -0.14 +0.08    +0.194    17.985
ATOM      7  O   UNL d   1      12.671 -12.514 -13.886 -0.58 -0.34    -0.278    17.985
ATOM      8  P   UNL d   1      12.646 -13.312 -15.269 -0.05 +0.28    +0.473    17.985
ATOM      9  O   UNL d   1      13.851 -13.130 -16.124 -0.01 -0.07    -0.228    17.985
ATOM     10  O   UNL d   1      12.405 -14.829 -14.838 -0.14 -0.24    -0.303    17.985
ATOM     11  H   UNL d   1      12.552 -15.414 -15.604 +0.01 +0.09    +0.222    17.985
ATOM     12  O   UNL d   1      11.257 -12.932 -15.940 -0.02 -0.10    -0.303    17.985
ATOM     13  H   UNL d   1      10.567 -12.683 -15.285 +0.02 +0.08    +0.222    17.985
ATOM     14  O   UNL d   1      13.909 -11.281 -11.797 -0.27 -0.21    -0.278    17.985
ATOM     15  P   UNL d   1      15.276 -11.791 -11.137 -0.06 +0.24    +0.473    17.985
ATOM     16  O   UNL d   1      15.311 -13.215 -10.678 -0.47 -0.25    -0.228    17.985
ATOM     17  O   UNL d   1      16.381 -11.469 -12.239 -0.04 -0.07    -0.303    17.985
ATOM     18  H   UNL d   1      16.497 -10.506 -12.350 +0.05 +0.02    +0.222    17.985
ATOM     19  O   UNL d   1      15.608 -10.703 -10.025 -0.07 +0.04    -0.303    17.985
ATOM     20  H   UNL d   1      15.636  -9.803 -10.398 -0.02 -0.02    +0.222    17.985
ATOM     21  O   UNL d   1      10.465 -10.744 -14.311 -0.08 -0.08    -0.278    17.985
ATOM     22  P   UNL d   1       9.073 -11.372 -13.848 -0.08 +0.14    +0.473    17.985
ATOM     23  O   UNL d   1       8.850 -12.830 -14.069 -0.10 -0.08    -0.228    17.985
ATOM     24  O   UNL d   1       8.996 -10.907 -12.328 -0.01 -0.10    -0.303    17.985
ATOM     25  H   UNL d   1       9.283  -9.960 -12.280 +0.06 +0.05    +0.222    17.985
ATOM     26  O   UNL d   1       8.022 -10.385 -14.550 -0.03 -0.04    -0.303    17.985
ATOM     27  H   UNL d   1       8.213  -9.465 -14.275 +0.04 +0.03    +0.222    17.985
ATOM     28  O   UNL d   1      15.087  -8.908 -11.939 -0.42 -0.05    -0.278    17.985
ATOM     29  P   UNL d   1      16.444  -8.167 -12.323 -0.13 +0.00    +0.473    17.985
ATOM     30  O   UNL d   1      16.377  -6.683 -12.353 -0.27 +0.01    -0.228    17.985
ATOM     31  O   UNL d   1      17.435  -8.828 -11.256 -0.15 +0.03    -0.303    17.985
ATOM     32  H   UNL d   1      17.197  -9.778 -11.152 +0.07 -0.01    +0.222    17.985
ATOM     33  O   UNL d   1      16.850  -8.896 -13.679 -0.03 -0.00    -0.303    17.985
ATOM     34  H   UNL d   1      17.133  -9.821 -13.474 +0.04 +0.01    +0.222    17.985
ATOM     35  O   UNL d   1      10.472  -8.650 -12.275 -0.15 +0.01    -0.278    17.985
ATOM     36  P   UNL d   1       9.285  -7.734 -12.817 -0.10 -0.01    +0.473    17.985
ATOM     37  O   UNL d   1       9.381  -6.282 -12.470 -0.13 +0.01    -0.228    17.985
ATOM     38  O   UNL d   1       9.327  -8.037 -14.380 -0.03 -0.02    -0.303    17.985
ATOM     39  H   UNL d   1       9.657  -8.951 -14.521 +0.04 +0.02    +0.222    17.985
ATOM     40  O   UNL d   1       7.995  -8.513 -12.310 -0.17 -0.02    -0.303    17.985
ATOM     41  H   UNL d   1       7.767  -9.264 -12.902 +0.06 +0.02    +0.222    17.985
ATOM     42  O   UNL d   1      12.932  -7.126 -12.621 -0.38 -0.02    -0.278    17.985
ATOM     43  P   UNL d   1      12.962  -6.572 -14.116 -0.03 +0.02    +0.473    17.985
ATOM     44  O   UNL d   1      13.104  -7.569 -15.215 -0.01 -0.02    -0.228    17.985
ATOM     45  O   UNL d   1      11.631  -5.704 -14.194 -0.02 -0.01    -0.303    17.985
ATOM     46  H   UNL d   1      10.834  -6.259 -14.075 +0.04 +0.01    +0.222    17.985
ATOM     47  O   UNL d   1      14.090  -5.435 -14.063 -0.04 -0.01    -0.303    17.985
ATOM     48  H   UNL d   1      14.898  -5.801 -13.647 +0.06 +0.01    +0.222    17.985
TER
ENDMDL
MODEL       46
USER    Run = 46
USER    Cluster Rank = 22
USER    Number of conformations in this cluster = 1
USER  
USER    RMSD from reference structure       = 30.242 A
USER  
USER    Estimated Free Energy of Binding    =   +2.30 kcal/mol  [=(1)+(2)+(3)-(4)]
USER    
USER    (1) Final Intermolecular Energy     =   -4.86 kcal/mol
USER        vdW + Hbond + desolv Energy     =   -4.71 kcal/mol
USER        Electrostatic Energy            =   -0.15 kcal/mol
USER    (2) Final Total Internal Energy     =  -13.12 kcal/mol
USER    (3) Torsional Free Energy           =   +7.16 kcal/mol
USER    (4) Unbound System's Energy  [=(2)] =  -13.12 kcal/mol
USER    
USER    
USER  
USER    DPF = D:/Protein_go_brrr/autodock/final/1A3N/IHP/dock.dpf
USER    NEWDPF move	IHP_ideal_opt.pdbqt
USER    NEWDPF about	0.035000 0.082000 -0.065000
USER    NEWDPF tran0	22.871318 22.455079 12.490585
USER    NEWDPF axisangle0	0.086228 -0.942514 -0.322849 -159.936907
USER    NEWDPF quaternion0	0.084910 -0.928105 -0.317913 -0.174190
USER    NEWDPF dihe0	-110.88 -1.89 30.09 -84.60 116.32 -180.00 46.12 -61.75 96.03 -158.55 147.52 128.08 23.23 -92.48 32.87 -73.89 -104.63 -163.27 -2.20 -3.12 -23.59 -1.65 -7.84 11.52 
USER  
USER                              x       y       z    vdW   Elec        q     RMS 
ATOM      1  C   UNL d   1      21.456  21.866  11.695 -0.07 +0.05    +0.194    30.242
ATOM      2  C   UNL d   1      22.787  21.365  11.132 -0.11 +0.06    +0.194    30.242
ATOM      3  C   UNL d   1      23.819  22.490  11.031 -0.11 +0.05    +0.194    30.242
ATOM      4  C   UNL d   1      23.998  23.261  12.336 -0.05 +0.07    +0.194    30.242
ATOM      5  C   UNL d   1      22.689  23.683  12.992 -0.08 +0.05    +0.194    30.242
ATOM      6  C   UNL d   1      21.635  22.575  13.038 -0.05 +0.07    +0.194    30.242
ATOM      7  O   UNL d   1      20.611  20.735  11.919 -0.04 -0.09    -0.278    30.242
ATOM      8  P   UNL d   1      19.168  20.717  11.234 -0.01 +0.11    +0.473    30.242
ATOM      9  O   UNL d   1      19.168  20.440   9.771 -0.05 -0.05    -0.228    30.242
ATOM     10  O   UNL d   1      18.353  19.636  12.078 -0.02 -0.08    -0.303    30.242
ATOM     11  H   UNL d   1      17.889  20.078  12.813 +0.04 +0.06    +0.222    30.242
ATOM     12  O   UNL d   1      18.481  22.077  11.683 -0.01 -0.06    -0.303    30.242
ATOM     13  H   UNL d   1      18.569  22.254  12.646 +0.02 +0.05    +0.222    30.242
ATOM     14  O   UNL d   1      23.305  20.346  11.997 -0.18 -0.15    -0.278    30.242
ATOM     15  P   UNL d   1      23.728  18.966  11.305 -0.20 +0.21    +0.473    30.242
ATOM     16  O   UNL d   1      22.870  18.491  10.174 -0.21 -0.07    -0.228    30.242
ATOM     17  O   UNL d   1      25.244  19.197  10.875 -0.30 -0.13    -0.303    30.242
ATOM     18  H   UNL d   1      25.314  19.886  10.187 +0.15 +0.07    +0.222    30.242
ATOM     19  O   UNL d   1      23.891  17.948  12.516 -0.30 -0.19    -0.303    30.242
ATOM     20  H   UNL d   1      24.619  17.317  12.362 -0.47 +0.06    +0.222    30.242
ATOM     21  O   UNL d   1      20.392  23.201  13.350 -0.04 -0.07    -0.278    30.242
ATOM     22  P   UNL d   1      19.532  22.680  14.588 -0.03 +0.13    +0.473    30.242
ATOM     23  O   UNL d   1      20.123  22.791  15.953 -0.06 -0.08    -0.228    30.242
ATOM     24  O   UNL d   1      18.163  23.467  14.387 -0.03 -0.06    -0.303    30.242
ATOM     25  H   UNL d   1      17.869  23.339  13.450 +0.02 +0.04    +0.222    30.242
ATOM     26  O   UNL d   1      19.137  21.202  14.111 -0.04 -0.10    -0.303    30.242
ATOM     27  H   UNL d   1      19.596  21.001  13.270 +0.03 +0.08    +0.222    30.242
ATOM     28  O   UNL d   1      25.082  21.890  10.771 -0.14 -0.09    -0.278    30.242
ATOM     29  P   UNL d   1      25.766  22.043   9.341 -0.25 +0.06    +0.473    30.242
ATOM     30  O   UNL d   1      25.613  20.879   8.430 -0.64 -0.04    -0.228    30.242
ATOM     31  O   UNL d   1      25.116  23.426   8.867 -0.18 +0.04    -0.303    30.242
ATOM     32  H   UNL d   1      25.755  24.153   9.051 -0.18 -0.09    +0.222    30.242
ATOM     33  O   UNL d   1      27.252  22.466   9.725 -0.11 -0.07    -0.303    30.242
ATOM     34  H   UNL d   1      27.317  22.554  10.707 +0.09 +0.17    +0.222    30.242
ATOM     35  O   UNL d   1      23.019  24.004  14.342 -0.07 -0.09    -0.278    30.242
ATOM     36  P   UNL d   1      22.690  25.451  14.928 -0.04 +0.09    +0.473    30.242
ATOM     37  O   UNL d   1      23.348  26.596  14.226 -0.01 -0.03    -0.228    30.242
ATOM     38  O   UNL d   1      21.099  25.473  14.865 -0.02 -0.05    -0.303    30.242
ATOM     39  H   UNL d   1      20.763  24.552  14.908 +0.02 +0.05    +0.222    30.242
ATOM     40  O   UNL d   1      23.010  25.272  16.475 -0.05 -0.07    -0.303    30.242
ATOM     41  H   UNL d   1      23.162  26.136  16.918 +0.01 +0.04    +0.222    30.242
ATOM     42  O   UNL d   1      24.712  24.460  12.014 -0.06 -0.07    -0.278    30.242
ATOM     43  P   UNL d   1      26.283  24.517  12.286 -0.10 +0.29    +0.473    30.242
ATOM     44  O   UNL d   1      26.773  25.524  13.269 -0.13 -0.12    -0.228    30.242
ATOM     45  O   UNL d   1      26.626  23.012  12.672 -0.53 -0.30    -0.303    30.242
ATOM     46  H   UNL d   1      26.622  22.431  11.884 +0.11 +0.19    +0.222    30.242
ATOM     47  O   UNL d   1      26.906  24.627  10.814 -0.24 -0.15    -0.303    30.242
ATOM     48  H   UNL d   1      26.553  23.901  10.259 +0.01 +0.06    +0.222    30.242
TER
ENDMDL
MODEL        8
USER    Run = 8
USER    Cluster Rank = 23
USER    Number of conformations in this cluster = 1
USER  
USER    RMSD from reference structure       = 28.170 A
USER  
USER    Estimated Free Energy of Binding    =   +2.32 kcal/mol  [=(1)+(2)+(3)-(4)]
USER    
USER    (1) Final Intermolecular Energy     =   -4.84 kcal/mol
USER        vdW + Hbond + desolv Energy     =   -4.36 kcal/mol
USER        Electrostatic Energy            =   -0.48 kcal/mol
USER    (2) Final Total Internal Energy     =  -12.44 kcal/mol
USER    (3) Torsional Free Energy           =   +7.16 kcal/mol
USER    (4) Unbound System's Energy  [=(2)] =  -12.44 kcal/mol
USER    
USER    
USER  
USER    DPF = D:/Protein_go_brrr/autodock/final/1A3N/IHP/dock.dpf
USER    NEWDPF move	IHP_ideal_opt.pdbqt
USER    NEWDPF about	0.035000 0.082000 -0.065000
USER    NEWDPF tran0	19.351606 -23.491086 10.599273
USER    NEWDPF axisangle0	-0.777102 0.565072 -0.277141 78.013767
USER    NEWDPF quaternion0	-0.489118 0.355664 -0.174436 0.777070
USER    NEWDPF dihe0	112.19 -173.84 20.89 76.27 -9.77 -177.44 -91.16 -32.55 92.76 38.10 -139.25 176.93 -46.85 -82.37 -177.62 -33.10 108.57 155.56 -164.20 10.47 172.58 4.56 -7.11 176.12 
USER  
USER                              x       y       z    vdW   Elec        q     RMS 
ATOM      1  C   UNL d   1      20.459 -24.696  11.153 -0.08 -0.05    +0.194    28.170
ATOM      2  C   UNL d   1      20.241 -24.644   9.640 -0.09 -0.02    +0.194    28.170
ATOM      3  C   UNL d   1      18.763 -24.470   9.286 -0.10 -0.01    +0.194    28.170
ATOM      4  C   UNL d   1      18.107 -23.293  10.004 -0.11 -0.01    +0.194    28.170
ATOM      5  C   UNL d   1      18.393 -23.241  11.499 -0.11 -0.02    +0.194    28.170
ATOM      6  C   UNL d   1      19.862 -23.477  11.857 -0.13 -0.05    +0.194    28.170
ATOM      7  O   UNL d   1      21.866 -24.685  11.402 -0.09 +0.11    -0.278    28.170
ATOM      8  P   UNL d   1      22.665 -23.318  11.184 -0.15 -0.15    +0.473    28.170
ATOM      9  O   UNL d   1      21.821 -22.142  10.841 -0.29 +0.04    -0.228    28.170
ATOM     10  O   UNL d   1      23.484 -23.129  12.540 -0.06 +0.09    -0.303    28.170
ATOM     11  H   UNL d   1      22.900 -23.302  13.302 -0.47 -0.32    +0.222    28.170
ATOM     12  O   UNL d   1      23.815 -23.673  10.147 -0.22 +0.08    -0.303    28.170
ATOM     13  H   UNL d   1      23.974 -22.960   9.489 -0.42 -0.12    +0.222    28.170
ATOM     14  O   UNL d   1      20.973 -23.536   9.101 -0.17 +0.03    -0.278    28.170
ATOM     15  P   UNL d   1      21.671 -23.764   7.677 -0.15 -0.04    +0.473    28.170
ATOM     16  O   UNL d   1      22.042 -25.172   7.329 -0.08 +0.02    -0.228    28.170
ATOM     17  O   UNL d   1      20.650 -23.120   6.638 -0.13 +0.01    -0.303    28.170
ATOM     18  H   UNL d   1      19.869 -23.693   6.510 +0.04 -0.01    +0.222    28.170
ATOM     19  O   UNL d   1      22.864 -22.713   7.647 -0.29 +0.05    -0.303    28.170
ATOM     20  H   UNL d   1      23.068 -22.374   8.538 -0.34 -0.11    +0.222    28.170
ATOM     21  O   UNL d   1      19.908 -23.738  13.258 -0.10 +0.19    -0.278    28.170
ATOM     22  P   UNL d   1      19.321 -25.108  13.827 -0.06 -0.25    +0.473    28.170
ATOM     23  O   UNL d   1      18.702 -25.100  15.185 -0.14 +0.09    -0.228    28.170
ATOM     24  O   UNL d   1      18.346 -25.558  12.652 -0.01 +0.06    -0.303    28.170
ATOM     25  H   UNL d   1      17.529 -24.999  12.699 +0.03 -0.02    +0.222    28.170
ATOM     26  O   UNL d   1      20.562 -26.103  13.627 -0.10 +0.23    -0.303    28.170
ATOM     27  H   UNL d   1      21.347 -25.586  13.354 -0.05 -0.26    +0.222    28.170
ATOM     28  O   UNL d   1      18.688 -24.156   7.901 -0.12 +0.01    -0.278    28.170
ATOM     29  P   UNL d   1      17.985 -25.161   6.885 -0.04 +0.00    +0.473    28.170
ATOM     30  O   UNL d   1      18.572 -26.524   6.823 -0.01 +0.00    -0.228    28.170
ATOM     31  O   UNL d   1      16.468 -25.046   7.383 -0.03 -0.01    -0.303    28.170
ATOM     32  H   UNL d   1      16.464 -25.000   8.367 +0.02 +0.01    +0.222    28.170
ATOM     33  O   UNL d   1      17.977 -24.319   5.534 -0.05 -0.01    -0.303    28.170
ATOM     34  H   UNL d   1      18.725 -23.673   5.554 +0.03 +0.00    +0.222    28.170
ATOM     35  O   UNL d   1      18.068 -21.914  11.909 -0.12 -0.00    -0.278    28.170
ATOM     36  P   UNL d   1      17.004 -21.669  13.072 -0.03 +0.02    +0.473    28.170
ATOM     37  O   UNL d   1      17.176 -20.402  13.847 -0.05 -0.03    -0.228    28.170
ATOM     38  O   UNL d   1      15.626 -21.770  12.280 -0.03 -0.04    -0.303    28.170
ATOM     39  H   UNL d   1      15.766 -22.288  11.457 +0.03 +0.02    +0.222    28.170
ATOM     40  O   UNL d   1      17.075 -23.031  13.891 -0.02 +0.01    -0.303    28.170
ATOM     41  H   UNL d   1      17.683 -23.679  13.468 +0.04 -0.03    +0.222    28.170
ATOM     42  O   UNL d   1      16.692 -23.451   9.851 -0.10 +0.00    -0.278    28.170
ATOM     43  P   UNL d   1      15.978 -24.706  10.530 -0.01 +0.01    +0.473    28.170
ATOM     44  O   UNL d   1      14.657 -25.123   9.983 -0.01 -0.02    -0.228    28.170
ATOM     45  O   UNL d   1      17.100 -25.831  10.449 -0.01 +0.01    -0.303    28.170
ATOM     46  H   UNL d   1      17.048 -26.444  11.210 +0.01 -0.01    +0.222    28.170
ATOM     47  O   UNL d   1      15.997 -24.338  12.090 -0.01 -0.00    -0.303    28.170
ATOM     48  H   UNL d   1      16.486 -23.499  12.218 +0.03 +0.00    +0.222    28.170
TER
ENDMDL
MODEL        7
USER    Run = 7
USER    Cluster Rank = 24
USER    Number of conformations in this cluster = 1
USER  
USER    RMSD from reference structure       = 42.271 A
USER  
USER    Estimated Free Energy of Binding    =   +2.35 kcal/mol  [=(1)+(2)+(3)-(4)]
USER    
USER    (1) Final Intermolecular Energy     =   -4.81 kcal/mol
USER        vdW + Hbond + desolv Energy     =   -4.78 kcal/mol
USER        Electrostatic Energy            =   -0.03 kcal/mol
USER    (2) Final Total Internal Energy     =  -14.59 kcal/mol
USER    (3) Torsional Free Energy           =   +7.16 kcal/mol
USER    (4) Unbound System's Energy  [=(2)] =  -14.59 kcal/mol
USER    
USER    
USER  
USER    DPF = D:/Protein_go_brrr/autodock/final/1A3N/IHP/dock.dpf
USER    NEWDPF move	IHP_ideal_opt.pdbqt
USER    NEWDPF about	0.035000 0.082000 -0.065000
USER    NEWDPF tran0	27.733629 13.698760 33.021975
USER    NEWDPF axisangle0	-0.875117 0.191344 0.444475 -118.347847
USER    NEWDPF quaternion0	-0.751486 0.164312 0.381683 -0.512434
USER    NEWDPF dihe0	-79.95 79.70 33.35 168.50 71.55 -118.96 -109.05 -29.57 13.15 60.48 7.02 177.29 -15.65 -77.29 128.09 20.00 148.29 147.70 -1.48 12.36 -3.12 0.62 -16.15 -16.04 
USER  
USER                              x       y       z    vdW   Elec        q     RMS 
ATOM      1  C   UNL d   1      28.800  14.962  32.520 -0.09 -0.03    +0.194    42.271
ATOM      2  C   UNL d   1      28.646  14.789  34.032 -0.05 -0.02    +0.194    42.271
ATOM      3  C   UNL d   1      27.186  14.563  34.430 -0.01 -0.02    +0.194    42.271
ATOM      4  C   UNL d   1      26.517  13.434  33.649 -0.04 -0.03    +0.194    42.271
ATOM      5  C   UNL d   1      26.742  13.503  32.144 -0.07 -0.03    +0.194    42.271
ATOM      6  C   UNL d   1      28.192  13.790  31.747 -0.13 -0.04    +0.194    42.271
ATOM      7  O   UNL d   1      30.196  14.994  32.215 -0.15 +0.04    -0.278    42.271
ATOM      8  P   UNL d   1      30.771  16.256  31.422 -0.04 -0.10    +0.473    42.271
ATOM      9  O   UNL d   1      30.141  17.559  31.767 -0.04 +0.03    -0.228    42.271
ATOM     10  O   UNL d   1      32.338  16.218  31.718 -0.07 +0.09    -0.303    42.271
ATOM     11  H   UNL d   1      32.829  16.167  30.876 -0.37 -0.11    +0.222    42.271
ATOM     12  O   UNL d   1      30.712  15.842  29.889 -0.05 +0.10    -0.303    42.271
ATOM     13  H   UNL d   1      29.939  15.273  29.672 +0.01 -0.06    +0.222    42.271
ATOM     14  O   UNL d   1      29.415  13.656  34.454 -0.13 +0.05    -0.278    42.271
ATOM     15  P   UNL d   1      30.129  13.768  35.883 -0.09 -0.10    +0.473    42.271
ATOM     16  O   UNL d   1      30.363  15.148  36.411 -0.04 +0.04    -0.228    42.271
ATOM     17  O   UNL d   1      29.213  12.886  36.843 -0.04 +0.06    -0.303    42.271
ATOM     18  H   UNL d   1      28.310  13.254  36.903 +0.05 -0.04    +0.222    42.271
ATOM     19  O   UNL d   1      31.425  12.855  35.751 -0.40 +0.14    -0.303    42.271
ATOM     20  H   UNL d   1      32.240  13.389  35.719 -0.01 -0.15    +0.222    42.271
ATOM     21  O   UNL d   1      28.176  14.160  30.370 -0.07 +0.05    -0.278    42.271
ATOM     22  P   UNL d   1      28.694  13.129  29.268 -0.14 -0.10    +0.473    42.271
ATOM     23  O   UNL d   1      28.231  13.310  27.862 -0.12 +0.03    -0.228    42.271
ATOM     24  O   UNL d   1      30.271  13.206  29.466 -0.23 +0.12    -0.303    42.271
ATOM     25  H   UNL d   1      30.456  13.783  30.250 -0.12 -0.10    +0.222    42.271
ATOM     26  O   UNL d   1      28.343  11.721  29.949 -0.41 +0.10    -0.303    42.271
ATOM     27  H   UNL d   1      27.371  11.623  30.002 -0.23 -0.08    +0.222    42.271
ATOM     28  O   UNL d   1      27.173  14.142  35.788 -0.00 +0.04    -0.278    42.271
ATOM     29  P   UNL d   1      26.582  15.094  36.920 +0.01 -0.05    +0.473    42.271
ATOM     30  O   UNL d   1      26.195  16.457  36.473 +0.00 +0.02    -0.228    42.271
ATOM     31  O   UNL d   1      25.416  14.159  37.491 -0.00 +0.05    -0.303    42.271
ATOM     32  H   UNL d   1      24.809  13.927  36.751 +0.03 -0.05    +0.222    42.271
ATOM     33  O   UNL d   1      27.697  14.998  38.053 +0.00 +0.03    -0.303    42.271
ATOM     34  H   UNL d   1      28.573  14.829  37.628 +0.02 -0.02    +0.222    42.271
ATOM     35  O   UNL d   1      26.420  12.206  31.646 -0.12 +0.05    -0.278    42.271
ATOM     36  P   UNL d   1      25.171  12.006  30.674 -0.16 +0.01    +0.473    42.271
ATOM     37  O   UNL d   1      24.749  10.588  30.450 -0.67 -0.08    -0.228    42.271
ATOM     38  O   UNL d   1      24.066  12.916  31.371 -0.22 -0.03    -0.303    42.271
ATOM     39  H   UNL d   1      23.941  12.617  32.297 +0.08 +0.03    +0.222    42.271
ATOM     40  O   UNL d   1      25.601  12.841  29.391 -0.14 +0.03    -0.303    42.271
ATOM     41  H   UNL d   1      26.571  13.003  29.370 +0.10 -0.03    +0.222    42.271
ATOM     42  O   UNL d   1      25.108  13.555  33.870 -0.04 +0.04    -0.278    42.271
ATOM     43  P   UNL d   1      24.297  12.284  34.389 -0.07 -0.16    +0.473    42.271
ATOM     44  O   UNL d   1      22.810  12.342  34.317 -0.26 +0.06    -0.228    42.271
ATOM     45  O   UNL d   1      24.942  11.093  33.553 -0.34 +0.00    -0.303    42.271
ATOM     46  H   UNL d   1      24.750  11.180  32.598 +0.11 +0.07    +0.222    42.271
ATOM     47  O   UNL d   1      24.910  12.028  35.848 -0.06 +0.21    -0.303    42.271
ATOM     48  H   UNL d   1      25.640  12.661  36.006 +0.05 -0.08    +0.222    42.271
TER
ENDMDL
MODEL       40
USER    Run = 40
USER    Cluster Rank = 25
USER    Number of conformations in this cluster = 1
USER  
USER    RMSD from reference structure       = 20.597 A
USER  
USER    Estimated Free Energy of Binding    =   +2.38 kcal/mol  [=(1)+(2)+(3)-(4)]
USER    
USER    (1) Final Intermolecular Energy     =   -4.78 kcal/mol
USER        vdW + Hbond + desolv Energy     =   -4.60 kcal/mol
USER        Electrostatic Energy            =   -0.18 kcal/mol
USER    (2) Final Total Internal Energy     =  -12.31 kcal/mol
USER    (3) Torsional Free Energy           =   +7.16 kcal/mol
USER    (4) Unbound System's Energy  [=(2)] =  -12.31 kcal/mol
USER    
USER    
USER  
USER    DPF = D:/Protein_go_brrr/autodock/final/1A3N/IHP/dock.dpf
USER    NEWDPF move	IHP_ideal_opt.pdbqt
USER    NEWDPF about	0.035000 0.082000 -0.065000
USER    NEWDPF tran0	9.340205 -8.201985 19.929431
USER    NEWDPF axisangle0	-0.120392 0.399081 0.908977 -169.884365
USER    NEWDPF quaternion0	-0.119924 0.397528 0.905438 -0.088161
USER    NEWDPF dihe0	104.19 107.57 135.69 -2.92 152.93 35.35 -1.38 -119.17 -18.93 -91.66 -137.74 120.92 -71.33 -135.41 129.19 -50.67 -104.91 174.37 -150.85 0.61 134.97 145.80 -85.91 168.66 
USER  
USER                              x       y       z    vdW   Elec        q     RMS 
ATOM      1  C   UNL d   1       8.253  -6.942  19.467 -0.04 +0.04    +0.194    20.597
ATOM      2  C   UNL d   1       9.705  -6.758  19.022 -0.03 +0.05    +0.194    20.597
ATOM      3  C   UNL d   1      10.689  -7.121  20.136 -0.10 +0.06    +0.194    20.597
ATOM      4  C   UNL d   1      10.439  -8.504  20.733 -0.12 +0.04    +0.194    20.597
ATOM      5  C   UNL d   1       8.981  -8.773  21.086 -0.08 +0.03    +0.194    20.597
ATOM      6  C   UNL d   1       7.993  -8.353  19.996 -0.03 +0.04    +0.194    20.597
ATOM      7  O   UNL d   1       7.410  -6.751  18.329 -0.03 -0.05    -0.278    20.597
ATOM      8  P   UNL d   1       7.113  -8.006  17.385 -0.02 +0.11    +0.473    20.597
ATOM      9  O   UNL d   1       8.083  -9.129  17.505 -0.02 -0.06    -0.228    20.597
ATOM     10  O   UNL d   1       5.619  -8.424  17.757 -0.11 -0.07    -0.303    20.597
ATOM     11  H   UNL d   1       5.547  -8.560  18.720 +0.08 +0.05    +0.222    20.597
ATOM     12  O   UNL d   1       6.936  -7.395  15.929 +0.01 -0.09    -0.303    20.597
ATOM     13  H   UNL d   1       7.747  -6.949  15.597 +0.06 +0.07    +0.222    20.597
ATOM     14  O   UNL d   1       9.958  -7.606  17.895 -0.00 -0.09    -0.278    20.597
ATOM     15  P   UNL d   1      10.693  -6.930  16.642 +0.02 +0.19    +0.473    20.597
ATOM     16  O   UNL d   1       9.839  -6.115  15.722 -0.02 -0.08    -0.228    20.597
ATOM     17  O   UNL d   1      11.876  -6.087  17.296 -0.34 -0.20    -0.303    20.597
ATOM     18  H   UNL d   1      12.291  -6.575  18.033 +0.04 +0.21    +0.222    20.597
ATOM     19  O   UNL d   1      11.491  -8.124  15.959 -0.01 -0.12    -0.303    20.597
ATOM     20  H   UNL d   1      12.167  -8.494  16.557 +0.05 +0.10    +0.222    20.597
ATOM     21  O   UNL d   1       6.699  -8.343  20.595 -0.05 -0.05    -0.278    20.597
ATOM     22  P   UNL d   1       6.542  -7.955  22.134 -0.07 +0.06    +0.473    20.597
ATOM     23  O   UNL d   1       5.205  -7.499  22.614 -0.14 -0.04    -0.228    20.597
ATOM     24  O   UNL d   1       7.102  -9.257  22.858 -0.10 -0.02    -0.303    20.597
ATOM     25  H   UNL d   1       8.085  -9.162  22.946 +0.11 -0.00    +0.222    20.597
ATOM     26  O   UNL d   1       7.750  -6.920  22.334 -0.16 -0.03    -0.303    20.597
ATOM     27  H   UNL d   1       8.183  -7.093  23.194 +0.13 +0.01    +0.222    20.597
ATOM     28  O   UNL d   1      11.986  -7.189  19.557 -0.31 -0.19    -0.278    20.597
ATOM     29  P   UNL d   1      12.659  -8.601  19.256 -0.08 +0.32    +0.473    20.597
ATOM     30  O   UNL d   1      13.212  -9.311  20.438 -0.47 -0.13    -0.228    20.597
ATOM     31  O   UNL d   1      11.464  -9.319  18.470 -0.04 -0.12    -0.303    20.597
ATOM     32  H   UNL d   1      11.150  -8.716  17.758 +0.05 +0.09    +0.222    20.597
ATOM     33  O   UNL d   1      13.682  -8.242  18.090 -0.29 -0.26    -0.303    20.597
ATOM     34  H   UNL d   1      13.177  -7.880  17.320 +0.04 +0.15    +0.222    20.597
ATOM     35  O   UNL d   1       8.873 -10.188  21.228 -0.07 -0.04    -0.278    20.597
ATOM     36  P   UNL d   1       9.977 -11.002  22.042 -0.12 +0.04    +0.473    20.597
ATOM     37  O   UNL d   1      11.370 -10.913  21.504 -0.32 -0.05    -0.228    20.597
ATOM     38  O   UNL d   1       9.803 -10.409  23.510 -0.27 +0.07    -0.303    20.597
ATOM     39  H   UNL d   1      10.382  -9.623  23.609 -0.32 -0.08    +0.222    20.597
ATOM     40  O   UNL d   1       9.330 -12.452  22.135 -0.11 -0.03    -0.303    20.597
ATOM     41  H   UNL d   1       9.386 -12.817  23.046 -0.49 -0.07    +0.222    20.597
ATOM     42  O   UNL d   1      11.186  -8.571  21.952 -0.21 -0.03    -0.278    20.597
ATOM     43  P   UNL d   1      10.909  -7.486  23.087 -0.11 +0.03    +0.473    20.597
ATOM     44  O   UNL d   1      12.086  -6.947  23.825 -0.43 -0.04    -0.228    20.597
ATOM     45  O   UNL d   1      10.063  -6.381  22.315 -0.10 -0.05    -0.303    20.597
ATOM     46  H   UNL d   1       9.433  -5.931  22.913 +0.15 +0.03    +0.222    20.597
ATOM     47  O   UNL d   1       9.785  -8.183  23.993 -0.25 +0.02    -0.303    20.597
ATOM     48  H   UNL d   1       8.994  -8.362  23.445 +0.13 -0.01    +0.222    20.597
TER
ENDMDL
MODEL       53
USER    Run = 53
USER    Cluster Rank = 26
USER    Number of conformations in this cluster = 1
USER  
USER    RMSD from reference structure       = 20.845 A
USER  
USER    Estimated Free Energy of Binding    =   +2.46 kcal/mol  [=(1)+(2)+(3)-(4)]
USER    
USER    (1) Final Intermolecular Energy     =   -4.69 kcal/mol
USER        vdW + Hbond + desolv Energy     =   -4.55 kcal/mol
USER        Electrostatic Energy            =   -0.14 kcal/mol
USER    (2) Final Total Internal Energy     =  -15.10 kcal/mol
USER    (3) Torsional Free Energy           =   +7.16 kcal/mol
USER    (4) Unbound System's Energy  [=(2)] =  -15.10 kcal/mol
USER    
USER    
USER  
USER    DPF = D:/Protein_go_brrr/autodock/final/1A3N/IHP/dock.dpf
USER    NEWDPF move	IHP_ideal_opt.pdbqt
USER    NEWDPF about	0.035000 0.082000 -0.065000
USER    NEWDPF tran0	19.655356 -13.538320 -6.639250
USER    NEWDPF axisangle0	-0.955563 -0.130703 -0.264227 -176.445260
USER    NEWDPF quaternion0	-0.955103 -0.130640 -0.264100 -0.031016
USER    NEWDPF dihe0	-120.73 -46.64 149.33 20.75 23.09 164.21 -106.11 -107.64 89.96 111.09 27.15 -98.95 57.42 -169.93 180.00 35.03 112.34 -40.72 -18.12 15.84 -21.61 24.63 -1.48 -2.72 
USER  
USER                              x       y       z    vdW   Elec        q     RMS 
ATOM      1  C   UNL d   1      20.847 -12.289  -6.685 -0.07 -0.01    +0.194    20.845
ATOM      2  C   UNL d   1      19.419 -11.852  -7.016 -0.08 -0.04    +0.194    20.845
ATOM      3  C   UNL d   1      18.720 -12.853  -7.937 -0.06 -0.05    +0.194    20.845
ATOM      4  C   UNL d   1      18.780 -14.289  -7.422 -0.06 -0.06    +0.194    20.845
ATOM      5  C   UNL d   1      20.167 -14.730  -6.972 -0.04 -0.04    +0.194    20.845
ATOM      6  C   UNL d   1      20.891 -13.701  -6.101 -0.07 -0.02    +0.194    20.845
ATOM      7  O   UNL d   1      21.366 -11.401  -5.692 -0.47 -0.10    -0.278    20.845
ATOM      8  P   UNL d   1      22.893 -10.943  -5.806 -0.06 +0.21    +0.473    20.845
ATOM      9  O   UNL d   1      23.098  -9.522  -6.195 -0.24 -0.05    -0.228    20.845
ATOM     10  O   UNL d   1      23.511 -11.299  -4.379 -0.13 -0.36    -0.303    20.845
ATOM     11  H   UNL d   1      23.741 -12.247  -4.349 +0.06 +0.15    +0.222    20.845
ATOM     12  O   UNL d   1      23.579 -12.026  -6.745 -0.02 -0.02    -0.303    20.845
ATOM     13  H   UNL d   1      23.975 -12.775  -6.245 +0.04 +0.01    +0.222    20.845
ATOM     14  O   UNL d   1      18.668 -11.750  -5.799 -0.15 +0.12    -0.278    20.845
ATOM     15  P   UNL d   1      17.530 -10.625  -5.753 -0.21 -0.25    +0.473    20.845
ATOM     16  O   UNL d   1      17.733  -9.502  -4.785 -0.29 +0.11    -0.228    20.845
ATOM     17  O   UNL d   1      17.416 -10.127  -7.262 -0.16 +0.10    -0.303    20.845
ATOM     18  H   UNL d   1      17.268 -10.876  -7.870 +0.11 -0.07    +0.222    20.845
ATOM     19  O   UNL d   1      16.174 -11.440  -5.583 -0.74 +0.34    -0.303    20.845
ATOM     20  H   UNL d   1      16.177 -12.259  -6.113 -0.34 -0.38    +0.222    20.845
ATOM     21  O   UNL d   1      22.261 -14.093  -6.054 -0.03 +0.01    -0.278    20.845
ATOM     22  P   UNL d   1      22.966 -14.341  -4.645 -0.04 +0.01    +0.473    20.845
ATOM     23  O   UNL d   1      24.429 -14.074  -4.532 -0.02 -0.01    -0.228    20.845
ATOM     24  O   UNL d   1      22.053 -13.478  -3.668 -0.19 -0.07    -0.303    20.845
ATOM     25  H   UNL d   1      21.860 -12.613  -4.110 +0.05 +0.18    +0.222    20.845
ATOM     26  O   UNL d   1      22.496 -15.835  -4.304 -0.04 +0.04    -0.303    20.845
ATOM     27  H   UNL d   1      21.807 -16.109  -4.944 +0.03 -0.04    +0.222    20.845
ATOM     28  O   UNL d   1      17.338 -12.519  -7.963 -0.15 +0.11    -0.278    20.845
ATOM     29  P   UNL d   1      16.543 -12.486  -9.343 -0.12 -0.02    +0.473    20.845
ATOM     30  O   UNL d   1      17.278 -13.022 -10.518 -0.04 -0.02    -0.228    20.845
ATOM     31  O   UNL d   1      15.205 -13.251  -8.913 -0.31 -0.04    -0.303    20.845
ATOM     32  H   UNL d   1      15.452 -14.121  -8.522 +0.08 -0.06    +0.222    20.845
ATOM     33  O   UNL d   1      16.071 -10.968  -9.421 -0.12 +0.05    -0.303    20.845
ATOM     34  H   UNL d   1      15.661 -10.714  -8.558 -0.36 -0.09    +0.222    20.845
ATOM     35  O   UNL d   1      19.963 -15.891  -6.170 -0.06 +0.07    -0.278    20.845
ATOM     36  P   UNL d   1      20.791 -17.223  -6.458 -0.01 -0.08    +0.473    20.845
ATOM     37  O   UNL d   1      20.926 -18.162  -5.301 -0.02 +0.04    -0.228    20.845
ATOM     38  O   UNL d   1      20.008 -17.830  -7.705 -0.00 +0.05    -0.303    20.845
ATOM     39  H   UNL d   1      19.487 -17.118  -8.135 +0.02 -0.04    +0.222    20.845
ATOM     40  O   UNL d   1      22.137 -16.657  -7.089 -0.00 +0.04    -0.303    20.845
ATOM     41  H   UNL d   1      22.680 -16.182  -6.422 +0.02 -0.02    +0.222    20.845
ATOM     42  O   UNL d   1      18.401 -15.137  -8.512 -0.03 +0.06    -0.278    20.845
ATOM     43  P   UNL d   1      17.043 -15.967  -8.407 -0.05 -0.15    +0.473    20.845
ATOM     44  O   UNL d   1      16.180 -15.725  -7.218 -0.19 +0.23    -0.228    20.845
ATOM     45  O   UNL d   1      16.336 -15.657  -9.799 -0.05 -0.03    -0.303    20.845
ATOM     46  H   UNL d   1      16.370 -14.703 -10.012 +0.05 +0.05    +0.222    20.845
ATOM     47  O   UNL d   1      17.524 -17.482  -8.616 -0.01 +0.06    -0.303    20.845
ATOM     48  H   UNL d   1      17.893 -17.823  -7.775 +0.02 -0.06    +0.222    20.845
TER
ENDMDL
MODEL        9
USER    Run = 9
USER    Cluster Rank = 27
USER    Number of conformations in this cluster = 1
USER  
USER    RMSD from reference structure       = 31.831 A
USER  
USER    Estimated Free Energy of Binding    =   +2.47 kcal/mol  [=(1)+(2)+(3)-(4)]
USER    
USER    (1) Final Intermolecular Energy     =   -4.69 kcal/mol
USER        vdW + Hbond + desolv Energy     =   -4.48 kcal/mol
USER        Electrostatic Energy            =   -0.20 kcal/mol
USER    (2) Final Total Internal Energy     =  -14.39 kcal/mol
USER    (3) Torsional Free Energy           =   +7.16 kcal/mol
USER    (4) Unbound System's Energy  [=(2)] =  -14.39 kcal/mol
USER    
USER    
USER  
USER    DPF = D:/Protein_go_brrr/autodock/final/1A3N/IHP/dock.dpf
USER    NEWDPF move	IHP_ideal_opt.pdbqt
USER    NEWDPF about	0.035000 0.082000 -0.065000
USER    NEWDPF tran0	-2.100558 -4.019381 33.122738
USER    NEWDPF axisangle0	-0.974980 -0.215319 -0.055251 -67.719286
USER    NEWDPF quaternion0	-0.543220 -0.119967 -0.030783 -0.830405
USER    NEWDPF dihe0	144.39 -66.54 -178.68 -0.15 10.37 143.00 -5.12 -90.34 2.13 111.00 105.03 102.60 113.74 179.09 -179.98 -75.20 -56.21 -147.80 3.60 14.74 -20.84 18.10 174.96 -0.41 
USER  
USER                              x       y       z    vdW   Elec        q     RMS 
ATOM      1  C   UNL d   1      -1.178  -3.563  34.510 -0.13 -0.01    +0.194    31.831
ATOM      2  C   UNL d   1      -2.473  -4.325  34.799 -0.04 -0.01    +0.194    31.831
ATOM      3  C   UNL d   1      -3.630  -3.826  33.931 +0.11 +0.01    +0.194    31.831
ATOM      4  C   UNL d   1      -3.296  -3.797  32.442 -0.16 +0.00    +0.194    31.831
ATOM      5  C   UNL d   1      -1.957  -3.147  32.118 -0.21 -0.00    +0.194    31.831
ATOM      6  C   UNL d   1      -0.813  -3.601  33.026 -0.19 +0.01    +0.194    31.831
ATOM      7  O   UNL d   1      -0.117  -4.199  35.227 -0.08 +0.03    -0.278    31.831
ATOM      8  P   UNL d   1       0.671  -3.349  36.327 -0.15 -0.12    +0.473    31.831
ATOM      9  O   UNL d   1       1.514  -4.149  37.257 -0.04 +0.04    -0.228    31.831
ATOM     10  O   UNL d   1       1.508  -2.293  35.473 -0.54 +0.02    -0.303    31.831
ATOM     11  H   UNL d   1       1.505  -2.556  34.534 +0.08 +0.01    +0.222    31.831
ATOM     12  O   UNL d   1      -0.431  -2.429  37.007 -0.25 +0.25    -0.303    31.831
ATOM     13  H   UNL d   1      -0.316  -1.474  36.802 -0.37 -0.36    +0.222    31.831
ATOM     14  O   UNL d   1      -2.266  -5.717  34.526 -0.02 +0.01    -0.278    31.831
ATOM     15  P   UNL d   1      -3.055  -6.754  35.456 +0.01 -0.03    +0.473    31.831
ATOM     16  O   UNL d   1      -2.233  -7.792  36.154 -0.00 +0.02    -0.228    31.831
ATOM     17  O   UNL d   1      -3.867  -5.828  36.467 -0.01 +0.03    -0.303    31.831
ATOM     18  H   UNL d   1      -4.720  -5.550  36.081 +0.03 -0.02    +0.222    31.831
ATOM     19  O   UNL d   1      -4.220  -7.312  34.528 -0.00 +0.02    -0.303    31.831
ATOM     20  H   UNL d   1      -4.809  -6.599  34.221 +0.02 -0.01    +0.222    31.831
ATOM     21  O   UNL d   1       0.257  -2.677  32.835 -0.24 -0.03    -0.278    31.831
ATOM     22  P   UNL d   1       1.688  -3.208  32.373 -0.10 +0.30    +0.473    31.831
ATOM     23  O   UNL d   1       2.896  -2.452  32.814 -0.33 -0.13    -0.228    31.831
ATOM     24  O   UNL d   1       1.641  -4.727  32.848 -0.15 -0.17    -0.303    31.831
ATOM     25  H   UNL d   1       1.441  -4.740  33.818 +0.06 +0.05    +0.222    31.831
ATOM     26  O   UNL d   1       1.488  -3.350  30.789 -0.34 -0.35    -0.303    31.831
ATOM     27  H   UNL d   1       0.553  -3.574  30.602 +0.11 +0.13    +0.222    31.831
ATOM     28  O   UNL d   1      -4.696  -4.757  34.062 -0.07 +0.01    -0.278    31.831
ATOM     29  P   UNL d   1      -6.162  -4.256  34.432 -0.06 -0.03    +0.473    31.831
ATOM     30  O   UNL d   1      -6.561  -4.436  35.851 -0.04 +0.02    -0.228    31.831
ATOM     31  O   UNL d   1      -6.090  -2.754  33.883 -0.35 -0.01    -0.303    31.831
ATOM     32  H   UNL d   1      -5.695  -2.768  32.980 +0.06 +0.03    +0.222    31.831
ATOM     33  O   UNL d   1      -7.053  -4.989  33.335 -0.02 +0.02    -0.303    31.831
ATOM     34  H   UNL d   1      -6.522  -5.095  32.508 +0.04 -0.01    +0.222    31.831
ATOM     35  O   UNL d   1      -1.634  -3.565  30.793 -0.12 -0.00    -0.278    31.831
ATOM     36  P   UNL d   1      -1.598  -5.117  30.426 +0.01 +0.02    +0.473    31.831
ATOM     37  O   UNL d   1      -1.644  -6.056  31.590 -0.02 -0.00    -0.228    31.831
ATOM     38  O   UNL d   1      -2.835  -5.246  29.432 -0.04 +0.02    -0.303    31.831
ATOM     39  H   UNL d   1      -3.666  -5.101  29.932 +0.06 -0.02    +0.222    31.831
ATOM     40  O   UNL d   1      -0.328  -5.212  29.473 -0.11 -0.06    -0.303    31.831
ATOM     41  H   UNL d   1       0.509  -5.065  29.966 +0.08 +0.13    +0.222    31.831
ATOM     42  O   UNL d   1      -4.310  -3.013  31.805 -0.61 -0.01    -0.278    31.831
ATOM     43  P   UNL d   1      -5.345  -3.735  30.828 -0.11 -0.05    +0.473    31.831
ATOM     44  O   UNL d   1      -5.121  -3.589  29.363 -0.19 +0.04    -0.228    31.831
ATOM     45  O   UNL d   1      -5.319  -5.240  31.344 -0.03 +0.02    -0.303    31.831
ATOM     46  H   UNL d   1      -5.156  -5.285  32.308 +0.04 -0.01    +0.222    31.831
ATOM     47  O   UNL d   1      -6.768  -3.230  31.365 -0.11 +0.03    -0.303    31.831
ATOM     48  H   UNL d   1      -7.008  -3.737  32.168 +0.06 -0.01    +0.222    31.831
TER
ENDMDL
MODEL       32
USER    Run = 32
USER    Cluster Rank = 28
USER    Number of conformations in this cluster = 1
USER  
USER    RMSD from reference structure       = 22.396 A
USER  
USER    Estimated Free Energy of Binding    =   +2.47 kcal/mol  [=(1)+(2)+(3)-(4)]
USER    
USER    (1) Final Intermolecular Energy     =   -4.68 kcal/mol
USER        vdW + Hbond + desolv Energy     =   -4.46 kcal/mol
USER        Electrostatic Energy            =   -0.22 kcal/mol
USER    (2) Final Total Internal Energy     =  -13.31 kcal/mol
USER    (3) Torsional Free Energy           =   +7.16 kcal/mol
USER    (4) Unbound System's Energy  [=(2)] =  -13.31 kcal/mol
USER    
USER    
USER  
USER    DPF = D:/Protein_go_brrr/autodock/final/1A3N/IHP/dock.dpf
USER    NEWDPF move	IHP_ideal_opt.pdbqt
USER    NEWDPF about	0.035000 0.082000 -0.065000
USER    NEWDPF tran0	23.550352 6.590992 -11.515795
USER    NEWDPF axisangle0	-0.496146 -0.188037 0.847633 -167.547328
USER    NEWDPF quaternion0	-0.493219 -0.186927 0.842633 -0.108456
USER    NEWDPF dihe0	142.14 99.71 -85.93 138.61 -96.82 -156.34 -134.24 -122.26 86.69 17.15 59.95 -87.22 125.68 -16.48 20.76 -111.07 166.86 116.02 44.23 -22.29 162.82 -45.74 -18.66 163.24 
USER  
USER                              x       y       z    vdW   Elec        q     RMS 
ATOM      1  C   UNL d   1      22.245   7.692 -11.781 -0.05 +0.10    +0.194    22.396
ATOM      2  C   UNL d   1      23.177   8.039 -10.619 -0.11 +0.15    +0.194    22.396
ATOM      3  C   UNL d   1      23.532   6.804  -9.788 -0.15 +0.16    +0.194    22.396
ATOM      4  C   UNL d   1      24.065   5.646 -10.629 -0.15 +0.18    +0.194    22.396
ATOM      5  C   UNL d   1      23.228   5.340 -11.864 -0.08 +0.11    +0.194    22.396
ATOM      6  C   UNL d   1      22.821   6.581 -12.661 -0.03 +0.10    +0.194    22.396
ATOM      7  O   UNL d   1      22.103   8.854 -12.601 -0.02 -0.12    -0.278    22.396
ATOM      8  P   UNL d   1      21.116  10.011 -12.112 -0.05 +0.18    +0.473    22.396
ATOM      9  O   UNL d   1      21.071  11.214 -12.988 -0.03 -0.08    -0.228    22.396
ATOM     10  O   UNL d   1      19.704   9.282 -11.971 -0.07 -0.12    -0.303    22.396
ATOM     11  H   UNL d   1      19.730   8.427 -12.439 +0.04 +0.08    +0.222    22.396
ATOM     12  O   UNL d   1      21.508  10.273 -10.594 -0.10 -0.12    -0.303    22.396
ATOM     13  H   UNL d   1      22.463  10.474 -10.471 +0.05 +0.10    +0.222    22.396
ATOM     14  O   UNL d   1      24.388   8.600 -11.142 -0.03 -0.43    -0.278    22.396
ATOM     15  P   UNL d   1      24.615  10.166 -10.897 -0.07 +0.45    +0.473    22.396
ATOM     16  O   UNL d   1      24.196  10.706  -9.565 -0.12 -0.13    -0.228    22.396
ATOM     17  O   UNL d   1      26.166  10.383 -11.190 -0.49 -0.43    -0.303    22.396
ATOM     18  H   UNL d   1      26.413  11.323 -11.095 +0.02 +0.17    +0.222    22.396
ATOM     19  O   UNL d   1      23.949  10.866 -12.160 -0.03 -0.16    -0.303    22.396
ATOM     20  H   UNL d   1      22.979  10.913 -12.077 +0.03 +0.09    +0.222    22.396
ATOM     21  O   UNL d   1      21.786   6.177 -13.554 -0.00 -0.09    -0.278    22.396
ATOM     22  P   UNL d   1      20.425   5.581 -12.972 -0.01 +0.12    +0.473    22.396
ATOM     23  O   UNL d   1      19.716   6.351 -11.910 -0.05 -0.06    -0.228    22.396
ATOM     24  O   UNL d   1      19.581   5.342 -14.300 -0.01 -0.06    -0.303    22.396
ATOM     25  H   UNL d   1      18.629   5.236 -14.044 +0.02 +0.04    +0.222    22.396
ATOM     26  O   UNL d   1      20.863   4.088 -12.585 -0.09 -0.08    -0.303    22.396
ATOM     27  H   UNL d   1      21.813   4.082 -12.349 +0.05 +0.07    +0.222    22.396
ATOM     28  O   UNL d   1      24.600   7.163  -8.921 -0.68 -0.35    -0.278    22.396
ATOM     29  P   UNL d   1      24.379   8.254  -7.782 -0.18 +0.30    +0.473    22.396
ATOM     30  O   UNL d   1      25.474   9.245  -7.623 -0.24 -0.15    -0.228    22.396
ATOM     31  O   UNL d   1      22.945   8.819  -8.211 -0.13 -0.14    -0.303    22.396
ATOM     32  H   UNL d   1      23.072   9.492  -8.920 +0.07 +0.11    +0.222    22.396
ATOM     33  O   UNL d   1      24.036   7.351  -6.516 -0.11 -0.11    -0.303    22.396
ATOM     34  H   UNL d   1      23.197   6.859  -6.690 +0.11 +0.07    +0.222    22.396
ATOM     35  O   UNL d   1      24.062   4.552 -12.711 -0.06 -0.15    -0.278    22.396
ATOM     36  P   UNL d   1      23.718   3.017 -12.977 -0.08 +0.15    +0.473    22.396
ATOM     37  O   UNL d   1      24.895   2.124 -13.214 -0.25 -0.08    -0.228    22.396
ATOM     38  O   UNL d   1      22.864   2.646 -11.685 -0.21 -0.10    -0.303    22.396
ATOM     39  H   UNL d   1      22.566   3.473 -11.249 +0.08 +0.09    +0.222    22.396
ATOM     40  O   UNL d   1      22.635   3.107 -14.139 -0.06 -0.07    -0.303    22.396
ATOM     41  H   UNL d   1      22.171   3.974 -14.137 +0.04 +0.05    +0.222    22.396
ATOM     42  O   UNL d   1      24.033   4.481  -9.798 -0.21 -0.15    -0.278    22.396
ATOM     43  P   UNL d   1      22.674   4.102  -9.054 -0.21 +0.16    +0.473    22.396
ATOM     44  O   UNL d   1      22.533   2.707  -8.550 -0.57 -0.06    -0.228    22.396
ATOM     45  O   UNL d   1      22.574   5.216  -7.922 -0.18 -0.09    -0.303    22.396
ATOM     46  H   UNL d   1      23.417   5.700  -7.821 +0.11 +0.08    +0.222    22.396
ATOM     47  O   UNL d   1      21.545   4.582 -10.085 -0.25 -0.11    -0.303    22.396
ATOM     48  H   UNL d   1      21.310   3.837 -10.677 +0.08 +0.09    +0.222    22.396
TER
ENDMDL
MODEL       34
USER    Run = 34
USER    Cluster Rank = 29
USER    Number of conformations in this cluster = 1
USER  
USER    RMSD from reference structure       = 19.832 A
USER  
USER    Estimated Free Energy of Binding    =   +2.49 kcal/mol  [=(1)+(2)+(3)-(4)]
USER    
USER    (1) Final Intermolecular Energy     =   -4.67 kcal/mol
USER        vdW + Hbond + desolv Energy     =   -3.99 kcal/mol
USER        Electrostatic Energy            =   -0.68 kcal/mol
USER    (2) Final Total Internal Energy     =  -14.51 kcal/mol
USER    (3) Torsional Free Energy           =   +7.16 kcal/mol
USER    (4) Unbound System's Energy  [=(2)] =  -14.51 kcal/mol
USER    
USER    
USER  
USER    DPF = D:/Protein_go_brrr/autodock/final/1A3N/IHP/dock.dpf
USER    NEWDPF move	IHP_ideal_opt.pdbqt
USER    NEWDPF about	0.035000 0.082000 -0.065000
USER    NEWDPF tran0	10.265316 -18.753017 -8.837080
USER    NEWDPF axisangle0	0.026752 -0.986555 0.161226 -158.135341
USER    NEWDPF quaternion0	0.026266 -0.968651 0.158300 -0.189649
USER    NEWDPF dihe0	-175.16 -29.13 65.15 80.44 114.59 85.44 50.78 -90.09 -70.74 75.44 35.48 51.90 49.19 -78.44 -180.00 101.10 -62.66 -79.64 -142.34 -21.90 13.37 -31.80 -179.91 17.24 
USER  
USER                              x       y       z    vdW   Elec        q     RMS 
ATOM      1  C   UNL d   1       8.919 -19.834  -8.797 -0.01 -0.04    +0.194    19.832
ATOM      2  C   UNL d   1      10.297 -20.491  -8.704 -0.01 -0.05    +0.194    19.832
ATOM      3  C   UNL d   1      11.288 -19.873  -9.692 -0.00 -0.02    +0.194    19.832
ATOM      4  C   UNL d   1      11.366 -18.351  -9.593 -0.05 -0.00    +0.194    19.832
ATOM      5  C   UNL d   1      10.008 -17.661  -9.567 -0.07 +0.01    +0.194    19.832
ATOM      6  C   UNL d   1       8.997 -18.317  -8.624 -0.06 -0.04    +0.194    19.832
ATOM      7  O   UNL d   1       8.109 -20.343  -7.735 -0.02 +0.08    -0.278    19.832
ATOM      8  P   UNL d   1       8.022 -19.504  -6.378 -0.11 -0.27    +0.473    19.832
ATOM      9  O   UNL d   1       6.790 -18.684  -6.221 -0.15 +0.07    -0.228    19.832
ATOM     10  O   UNL d   1       8.196 -20.601  -5.233 -0.14 +0.25    -0.303    19.832
ATOM     11  H   UNL d   1       8.713 -21.353  -5.577 +0.04 -0.15    +0.222    19.832
ATOM     12  O   UNL d   1       9.397 -18.713  -6.293 -0.11 +0.35    -0.303    19.832
ATOM     13  H   UNL d   1      10.158 -19.287  -6.049 -0.31 -0.41    +0.222    19.832
ATOM     14  O   UNL d   1      10.808 -20.318  -7.376 -0.05 +0.18    -0.278    19.832
ATOM     15  P   UNL d   1      10.885 -21.630  -6.462 -0.04 -0.30    +0.473    19.832
ATOM     16  O   UNL d   1       9.973 -22.759  -6.828 -0.01 +0.08    -0.228    19.832
ATOM     17  O   UNL d   1      12.424 -22.041  -6.502 -0.02 +0.14    -0.303    19.832
ATOM     18  H   UNL d   1      12.834 -21.784  -7.350 +0.01 -0.08    +0.222    19.832
ATOM     19  O   UNL d   1      10.739 -21.086  -4.974 -0.02 +0.47    -0.303    19.832
ATOM     20  H   UNL d   1      10.325 -20.204  -4.952 -0.36 -0.61    +0.222    19.832
ATOM     21  O   UNL d   1       7.716 -17.790  -8.962 -0.04 +0.02    -0.278    19.832
ATOM     22  P   UNL d   1       7.197 -16.457  -8.257 -0.12 -0.03    +0.473    19.832
ATOM     23  O   UNL d   1       5.728 -16.288  -8.063 -0.17 +0.00    -0.228    19.832
ATOM     24  O   UNL d   1       8.054 -16.444  -6.915 -0.26 +0.09    -0.303    19.832
ATOM     25  H   UNL d   1       9.002 -16.604  -7.153 +0.12 -0.09    +0.222    19.832
ATOM     26  O   UNL d   1       7.926 -15.324  -9.126 -0.19 -0.04    -0.303    19.832
ATOM     27  H   UNL d   1       8.805 -15.135  -8.737 +0.11 +0.03    +0.222    19.832
ATOM     28  O   UNL d   1      12.585 -20.341  -9.347 +0.00 +0.05    -0.278    19.832
ATOM     29  P   UNL d   1      13.054 -21.802  -9.774 +0.01 -0.05    +0.473    19.832
ATOM     30  O   UNL d   1      13.405 -21.969 -11.207 +0.00 +0.01    -0.228    19.832
ATOM     31  O   UNL d   1      14.222 -22.043  -8.707 +0.00 +0.05    -0.303    19.832
ATOM     32  H   UNL d   1      13.882 -22.635  -7.997 +0.01 -0.04    +0.222    19.832
ATOM     33  O   UNL d   1      11.872 -22.709  -9.212 +0.00 +0.04    -0.303    19.832
ATOM     34  H   UNL d   1      11.500 -22.285  -8.400 +0.01 -0.05    +0.222    19.832
ATOM     35  O   UNL d   1      10.252 -16.346  -9.071 -0.11 -0.05    -0.278    19.832
ATOM     36  P   UNL d   1      11.111 -16.133  -7.744 -0.21 -0.22    +0.473    19.832
ATOM     37  O   UNL d   1      11.253 -17.337  -6.868 -0.23 +0.27    -0.228    19.832
ATOM     38  O   UNL d   1      12.486 -15.583  -8.329 -0.06 +0.07    -0.303    19.832
ATOM     39  H   UNL d   1      13.230 -15.975  -7.823 -0.33 -0.28    +0.222    19.832
ATOM     40  O   UNL d   1      10.428 -14.848  -7.100 -0.42 +0.13    -0.303    19.832
ATOM     41  H   UNL d   1       9.462 -14.823  -7.276 +0.13 -0.04    +0.222    19.832
ATOM     42  O   UNL d   1      12.049 -17.894 -10.765 -0.09 -0.11    -0.278    19.832
ATOM     43  P   UNL d   1      13.626 -17.665 -10.698 -0.03 +0.21    +0.473    19.832
ATOM     44  O   UNL d   1      14.196 -17.181  -9.410 -0.11 -0.02    -0.228    19.832
ATOM     45  O   UNL d   1      14.203 -19.067 -11.179 -0.00 -0.03    -0.303    19.832
ATOM     46  H   UNL d   1      13.664 -19.811 -10.842 +0.01 +0.00    +0.222    19.832
ATOM     47  O   UNL d   1      13.915 -16.739 -11.974 -0.53 -0.39    -0.303    19.832
ATOM     48  H   UNL d   1      14.644 -17.131 -12.499 +0.01 +0.13    +0.222    19.832
TER
ENDMDL
MODEL        1
USER    Run = 1
USER    Cluster Rank = 30
USER    Number of conformations in this cluster = 2
USER  
USER    RMSD from reference structure       = 23.363 A
USER  
USER    Estimated Free Energy of Binding    =   +2.49 kcal/mol  [=(1)+(2)+(3)-(4)]
USER    
USER    (1) Final Intermolecular Energy     =   -4.67 kcal/mol
USER        vdW + Hbond + desolv Energy     =   -4.36 kcal/mol
USER        Electrostatic Energy            =   -0.31 kcal/mol
USER    (2) Final Total Internal Energy     =  -13.07 kcal/mol
USER    (3) Torsional Free Energy           =   +7.16 kcal/mol
USER    (4) Unbound System's Energy  [=(2)] =  -13.07 kcal/mol
USER    
USER    
USER  
USER    DPF = D:/Protein_go_brrr/autodock/final/1A3N/IHP/dock.dpf
USER    NEWDPF move	IHP_ideal_opt.pdbqt
USER    NEWDPF about	0.035000 0.082000 -0.065000
USER    NEWDPF tran0	-7.841298 -20.151768 15.706250
USER    NEWDPF axisangle0	-0.812853 0.581601 -0.031779 114.866540
USER    NEWDPF quaternion0	-0.685045 0.490153 -0.026783 0.538282
USER    NEWDPF dihe0	-173.84 67.28 54.85 77.86 96.49 116.35 61.13 4.65 86.20 74.33 56.09 110.24 -61.88 151.73 -147.98 -177.28 -142.62 -144.59 11.89 -14.47 -44.37 152.02 141.55 -55.07 
USER  
USER                              x       y       z    vdW   Elec        q     RMS 
ATOM      1  C   UNL d   1      -6.959 -21.614  15.450 -0.03 -0.01    +0.194    23.363
ATOM      2  C   UNL d   1      -6.861 -20.579  14.329 -0.08 -0.01    +0.194    23.363
ATOM      3  C   UNL d   1      -8.220 -19.949  14.019 -0.05 -0.01    +0.194    23.363
ATOM      4  C   UNL d   1      -8.922 -19.395  15.257 -0.05 -0.00    +0.194    23.363
ATOM      5  C   UNL d   1      -8.942 -20.354  16.440 -0.03 -0.00    +0.194    23.363
ATOM      6  C   UNL d   1      -7.597 -21.031  16.712 -0.04 +0.01    +0.194    23.363
ATOM      7  O   UNL d   1      -5.633 -22.026  15.795 -0.07 +0.06    -0.278    23.363
ATOM      8  P   UNL d   1      -5.180 -23.512  15.426 -0.01 -0.17    +0.473    23.363
ATOM      9  O   UNL d   1      -6.274 -24.410  14.966 -0.00 +0.04    -0.228    23.363
ATOM     10  O   UNL d   1      -4.034 -23.308  14.335 -0.03 +0.24    -0.303    23.363
ATOM     11  H   UNL d   1      -3.592 -22.452  14.482 -0.45 -0.40    +0.222    23.363
ATOM     12  O   UNL d   1      -4.354 -24.016  16.686 -0.04 +0.11    -0.303    23.363
ATOM     13  H   UNL d   1      -4.568 -23.523  17.510 +0.02 -0.05    +0.222    23.363
ATOM     14  O   UNL d   1      -5.957 -19.541  14.729 -0.16 -0.02    -0.278    23.363
ATOM     15  P   UNL d   1      -4.633 -19.366  13.846 -0.34 +0.01    +0.473    23.363
ATOM     16  O   UNL d   1      -3.436 -18.790  14.537 -0.39 -0.07    -0.228    23.363
ATOM     17  O   UNL d   1      -4.364 -20.821  13.257 -0.27 +0.12    -0.303    23.363
ATOM     18  H   UNL d   1      -4.528 -21.509  13.930 -0.01 -0.14    +0.222    23.363
ATOM     19  O   UNL d   1      -5.120 -18.581  12.551 -0.82 -0.03    -0.303    23.363
ATOM     20  H   UNL d   1      -5.980 -18.146  12.696 +0.09 -0.01    +0.222    23.363
ATOM     21  O   UNL d   1      -7.854 -22.121  17.593 -0.01 +0.00    -0.278    23.363
ATOM     22  P   UNL d   1      -6.761 -22.538  18.678 +0.00 +0.00    +0.473    23.363
ATOM     23  O   UNL d   1      -6.166 -23.903  18.591 -0.00 +0.01    -0.228    23.363
ATOM     24  O   UNL d   1      -5.715 -21.344  18.560 -0.06 -0.05    -0.303    23.363
ATOM     25  H   UNL d   1      -6.208 -20.527  18.294 +0.05 +0.06    +0.222    23.363
ATOM     26  O   UNL d   1      -7.513 -22.185  20.049 -0.01 -0.00    -0.303    23.363
ATOM     27  H   UNL d   1      -7.760 -21.238  20.047 +0.04 +0.01    +0.222    23.363
ATOM     28  O   UNL d   1      -7.990 -18.824  13.181 -0.10 +0.03    -0.278    23.363
ATOM     29  P   UNL d   1      -7.914 -17.359  13.803 -0.18 -0.04    +0.473    23.363
ATOM     30  O   UNL d   1      -7.166 -16.360  12.998 -0.24 +0.05    -0.228    23.363
ATOM     31  O   UNL d   1      -9.471 -17.078  14.045 -0.13 +0.06    -0.303    23.363
ATOM     32  H   UNL d   1      -9.635 -17.035  15.015 -0.01 -0.03    +0.222    23.363
ATOM     33  O   UNL d   1      -7.377 -17.648  15.273 -0.17 -0.04    -0.303    23.363
ATOM     34  H   UNL d   1      -6.469 -18.036  15.213 +0.10 +0.06    +0.222    23.363
ATOM     35  O   UNL d   1      -9.247 -19.554  17.581 -0.04 -0.00    -0.278    23.363
ATOM     36  P   UNL d   1      -8.078 -18.839  18.398 -0.11 +0.06    +0.473    23.363
ATOM     37  O   UNL d   1      -7.626 -19.550  19.633 -0.14 -0.02    -0.228    23.363
ATOM     38  O   UNL d   1      -6.952 -18.680  17.284 -0.09 -0.11    -0.303    23.363
ATOM     39  H   UNL d   1      -7.356 -18.808  16.398 +0.08 +0.05    +0.222    23.363
ATOM     40  O   UNL d   1      -8.646 -17.364  18.581 -0.23 -0.02    -0.303    23.363
ATOM     41  H   UNL d   1      -9.625 -17.358  18.664 +0.06 -0.02    +0.222    23.363
ATOM     42  O   UNL d   1     -10.284 -19.154  14.888 -0.03 +0.02    -0.278    23.363
ATOM     43  P   UNL d   1     -11.199 -18.269  15.850 -0.06 -0.03    +0.473    23.363
ATOM     44  O   UNL d   1     -12.114 -18.987  16.780 -0.03 +0.01    -0.228    23.363
ATOM     45  O   UNL d   1     -10.137 -17.332  16.577 -0.18 +0.01    -0.303    23.363
ATOM     46  H   UNL d   1      -9.228 -17.682  16.484 +0.09 +0.00    +0.222    23.363
ATOM     47  O   UNL d   1     -11.904 -17.241  14.842 -0.07 +0.03    -0.303    23.363
ATOM     48  H   UNL d   1     -11.238 -16.600  14.517 -0.16 -0.04    +0.222    23.363
TER
ENDMDL
MODEL       72
USER    Run = 72
USER    Cluster Rank = 31
USER    Number of conformations in this cluster = 1
USER  
USER    RMSD from reference structure       = 20.326 A
USER  
USER    Estimated Free Energy of Binding    =   +2.54 kcal/mol  [=(1)+(2)+(3)-(4)]
USER    
USER    (1) Final Intermolecular Energy     =   -4.62 kcal/mol
USER        vdW + Hbond + desolv Energy     =   -4.27 kcal/mol
USER        Electrostatic Energy            =   -0.35 kcal/mol
USER    (2) Final Total Internal Energy     =  -12.37 kcal/mol
USER    (3) Torsional Free Energy           =   +7.16 kcal/mol
USER    (4) Unbound System's Energy  [=(2)] =  -12.37 kcal/mol
USER    
USER    
USER  
USER    DPF = D:/Protein_go_brrr/autodock/final/1A3N/IHP/dock.dpf
USER    NEWDPF move	IHP_ideal_opt.pdbqt
USER    NEWDPF about	0.035000 0.082000 -0.065000
USER    NEWDPF tran0	8.348640 -12.200875 18.337639
USER    NEWDPF axisangle0	-0.749297 -0.178281 0.637785 78.181026
USER    NEWDPF quaternion0	-0.472467 -0.112415 0.402153 0.776151
USER    NEWDPF dihe0	101.20 179.87 24.56 24.84 15.03 143.29 -162.82 -5.04 21.58 9.78 168.98 95.71 -37.12 -175.37 -179.98 52.21 178.66 -125.75 39.75 -24.29 -20.07 157.95 -26.49 158.10 
USER  
USER                              x       y       z    vdW   Elec        q     RMS 
ATOM      1  C   UNL d   1       8.353 -13.706  17.490 -0.02 +0.11    +0.194    20.326
ATOM      2  C   UNL d   1       7.029 -12.940  17.470 -0.04 +0.08    +0.194    20.326
ATOM      3  C   UNL d   1       6.690 -12.358  18.844 -0.07 +0.07    +0.194    20.326
ATOM      4  C   UNL d   1       7.826 -11.532  19.444 -0.05 +0.06    +0.194    20.326
ATOM      5  C   UNL d   1       9.188 -12.211  19.380 -0.08 +0.08    +0.194    20.326
ATOM      6  C   UNL d   1       9.501 -12.847  18.024 -0.05 +0.10    +0.194    20.326
ATOM      7  O   UNL d   1       8.681 -14.066  16.145 -0.00 -0.19    -0.278    20.326
ATOM      8  P   UNL d   1       8.012 -15.378  15.526 +0.01 +0.41    +0.473    20.326
ATOM      9  O   UNL d   1       6.854 -15.916  16.291 -0.02 -0.14    -0.228    20.326
ATOM     10  O   UNL d   1       7.637 -14.954  14.035 -0.17 -0.40    -0.303    20.326
ATOM     11  H   UNL d   1       7.060 -14.168  14.053 +0.07 +0.21    +0.222    20.326
ATOM     12  O   UNL d   1       9.218 -16.385  15.293 -0.08 -0.35    -0.303    20.326
ATOM     13  H   UNL d   1       9.021 -17.300  15.599 +0.03 +0.23    +0.222    20.326
ATOM     14  O   UNL d   1       7.126 -11.864  16.529 -0.03 -0.11    -0.278    20.326
ATOM     15  P   UNL d   1       6.314 -12.034  15.160 -0.08 +0.21    +0.473    20.326
ATOM     16  O   UNL d   1       7.116 -12.017  13.896 -0.69 -0.17    -0.228    20.326
ATOM     17  O   UNL d   1       5.502 -13.390  15.357 -0.05 -0.13    -0.303    20.326
ATOM     18  H   UNL d   1       6.097 -14.163  15.333 +0.07 +0.12    +0.222    20.326
ATOM     19  O   UNL d   1       5.153 -10.950  15.250 -0.22 -0.08    -0.303    20.326
ATOM     20  H   UNL d   1       4.831 -10.842  16.163 +0.10 +0.05    +0.222    20.326
ATOM     21  O   UNL d   1      10.615 -13.714  18.222 -0.11 -0.23    -0.278    20.326
ATOM     22  P   UNL d   1      11.946 -13.501  17.369 -0.06 +0.39    +0.473    20.326
ATOM     23  O   UNL d   1      12.781 -14.696  17.055 -0.31 -0.31    -0.228    20.326
ATOM     24  O   UNL d   1      11.395 -12.720  16.096 -0.01 -0.18    -0.303    20.326
ATOM     25  H   UNL d   1      10.624 -13.227  15.733 +0.04 +0.15    +0.222    20.326
ATOM     26  O   UNL d   1      12.673 -12.330  18.187 -0.14 -0.18    -0.303    20.326
ATOM     27  H   UNL d   1      11.995 -11.760  18.604 +0.09 +0.11    +0.222    20.326
ATOM     28  O   UNL d   1       5.613 -11.448  18.669 -0.10 -0.09    -0.278    20.326
ATOM     29  P   UNL d   1       5.899  -9.906  18.393 -0.06 +0.13    +0.473    20.326
ATOM     30  O   UNL d   1       7.202  -9.602  17.747 -0.04 -0.06    -0.228    20.326
ATOM     31  O   UNL d   1       4.577  -9.518  17.579 -0.21 -0.08    -0.303    20.326
ATOM     32  H   UNL d   1       4.827  -9.332  16.644 +0.09 +0.05    +0.222    20.326
ATOM     33  O   UNL d   1       5.636  -9.255  19.822 -0.08 -0.09    -0.303    20.326
ATOM     34  H   UNL d   1       6.190  -9.722  20.495 +0.07 +0.06    +0.222    20.326
ATOM     35  O   UNL d   1      10.146 -11.177  19.590 -0.07 -0.10    -0.278    20.326
ATOM     36  P   UNL d   1      10.887 -11.038  20.996 -0.15 +0.13    +0.473    20.326
ATOM     37  O   UNL d   1      11.017  -9.643  21.521 -0.26 -0.03    -0.228    20.326
ATOM     38  O   UNL d   1      10.020 -12.005  21.917 -0.16 -0.05    -0.303    20.326
ATOM     39  H   UNL d   1       9.068 -11.802  21.790 +0.06 +0.03    +0.222    20.326
ATOM     40  O   UNL d   1      12.234 -11.847  20.752 -0.26 -0.12    -0.303    20.326
ATOM     41  H   UNL d   1      12.103 -12.591  20.123 +0.10 +0.12    +0.222    20.326
ATOM     42  O   UNL d   1       7.514 -11.343  20.828 -0.05 -0.07    -0.278    20.326
ATOM     43  P   UNL d   1       7.046 -12.599  21.692 -0.09 +0.14    +0.473    20.326
ATOM     44  O   UNL d   1       5.625 -13.027  21.567 -0.70 -0.14    -0.228    20.326
ATOM     45  O   UNL d   1       8.101 -13.717  21.283 -0.14 -0.11    -0.303    20.326
ATOM     46  H   UNL d   1       8.838 -13.766  21.925 +0.05 +0.05    +0.222    20.326
ATOM     47  O   UNL d   1       7.527 -12.223  23.174 -0.14 -0.01    -0.303    20.326
ATOM     48  H   UNL d   1       8.462 -12.494  23.288 -0.25 -0.04    +0.222    20.326
TER
ENDMDL
MODEL       42
USER    Run = 42
USER    Cluster Rank = 32
USER    Number of conformations in this cluster = 1
USER  
USER    RMSD from reference structure       = 37.537 A
USER  
USER    Estimated Free Energy of Binding    =   +2.57 kcal/mol  [=(1)+(2)+(3)-(4)]
USER    
USER    (1) Final Intermolecular Energy     =   -4.59 kcal/mol
USER        vdW + Hbond + desolv Energy     =   -4.06 kcal/mol
USER        Electrostatic Energy            =   -0.53 kcal/mol
USER    (2) Final Total Internal Energy     =  -14.44 kcal/mol
USER    (3) Torsional Free Energy           =   +7.16 kcal/mol
USER    (4) Unbound System's Energy  [=(2)] =  -14.44 kcal/mol
USER    
USER    
USER  
USER    DPF = D:/Protein_go_brrr/autodock/final/1A3N/IHP/dock.dpf
USER    NEWDPF move	IHP_ideal_opt.pdbqt
USER    NEWDPF about	0.035000 0.082000 -0.065000
USER    NEWDPF tran0	30.300509 27.726879 5.448886
USER    NEWDPF axisangle0	0.852511 0.332493 0.403328 165.090363
USER    NEWDPF quaternion0	0.845305 0.329683 0.399919 0.129744
USER    NEWDPF dihe0	91.59 55.80 150.57 -13.84 33.04 -147.46 29.10 -71.50 43.09 -2.95 -13.09 -131.53 151.25 179.99 -65.18 21.32 138.28 -41.68 50.13 10.74 167.57 5.27 -6.45 160.22 
USER  
USER                              x       y       z    vdW   Elec        q     RMS 
ATOM      1  C   UNL d   1      30.760  29.342   5.853 -0.05 -0.05    +0.194    37.537
ATOM      2  C   UNL d   1      29.433  29.200   5.105 -0.06 -0.05    +0.194    37.537
ATOM      3  C   UNL d   1      29.535  28.194   3.957 -0.10 -0.05    +0.194    37.537
ATOM      4  C   UNL d   1      30.102  26.844   4.389 -0.23 -0.04    +0.194    37.537
ATOM      5  C   UNL d   1      31.364  26.943   5.236 -0.17 -0.06    +0.194    37.537
ATOM      6  C   UNL d   1      31.285  27.993   6.346 -0.05 -0.12    +0.194    37.537
ATOM      7  O   UNL d   1      30.538  30.160   7.004 -0.02 +0.07    -0.278    37.537
ATOM      8  P   UNL d   1      30.299  31.725   6.790 +0.01 -0.06    +0.473    37.537
ATOM      9  O   UNL d   1      30.601  32.577   7.972 -0.00 +0.02    -0.228    37.537
ATOM     10  O   UNL d   1      31.189  32.081   5.515 +0.00 +0.03    -0.303    37.537
ATOM     11  H   UNL d   1      32.133  31.969   5.734 +0.00 -0.02    +0.222    37.537
ATOM     12  O   UNL d   1      28.825  31.841   6.209 -0.00 +0.04    -0.303    37.537
ATOM     13  H   UNL d   1      28.323  30.997   6.259 +0.02 -0.04    +0.222    37.537
ATOM     14  O   UNL d   1      28.428  28.748   6.020 -0.10 +0.09    -0.278    37.537
ATOM     15  P   UNL d   1      26.962  29.366   5.835 -0.06 -0.19    +0.473    37.537
ATOM     16  O   UNL d   1      26.357  30.032   7.030 -0.03 +0.06    -0.228    37.537
ATOM     17  O   UNL d   1      27.109  30.348   4.589 -0.03 +0.10    -0.303    37.537
ATOM     18  H   UNL d   1      27.474  29.880   3.814 +0.03 -0.09    +0.222    37.537
ATOM     19  O   UNL d   1      26.109  28.179   5.206 -0.03 +0.30    -0.303    37.537
ATOM     20  H   UNL d   1      26.336  28.028   4.270 -0.36 -0.36    +0.222    37.537
ATOM     21  O   UNL d   1      32.616  28.205   6.808 -0.06 +0.20    -0.278    37.537
ATOM     22  P   UNL d   1      33.702  28.845   5.830 -0.00 -0.10    +0.473    37.537
ATOM     23  O   UNL d   1      33.634  28.500   4.380 -0.01 +0.03    -0.228    37.537
ATOM     24  O   UNL d   1      33.558  30.397   6.154 -0.00 +0.04    -0.303    37.537
ATOM     25  H   UNL d   1      32.610  30.578   6.378 +0.01 -0.04    +0.222    37.537
ATOM     26  O   UNL d   1      35.071  28.476   6.577 -0.01 +0.04    -0.303    37.537
ATOM     27  H   UNL d   1      34.998  27.577   6.958 +0.03 -0.04    +0.222    37.537
ATOM     28  O   UNL d   1      28.214  27.922   3.507 -0.11 +0.15    -0.278    37.537
ATOM     29  P   UNL d   1      27.768  28.322   2.031 -0.02 -0.28    +0.473    37.537
ATOM     30  O   UNL d   1      28.776  29.072   1.239 -0.03 +0.06    -0.228    37.537
ATOM     31  O   UNL d   1      27.327  26.888   1.475 -0.13 +0.25    -0.303    37.537
ATOM     32  H   UNL d   1      26.417  26.692   1.798 -0.23 -0.41    +0.222    37.537
ATOM     33  O   UNL d   1      26.372  29.044   2.288 -0.05 +0.28    -0.303    37.537
ATOM     34  H   UNL d   1      26.086  28.868   3.218 -0.33 -0.30    +0.222    37.537
ATOM     35  O   UNL d   1      31.506  25.673   5.869 -0.24 +0.11    -0.278    37.537
ATOM     36  P   UNL d   1      32.850  24.832   5.694 -0.28 -0.04    +0.473    37.537
ATOM     37  O   UNL d   1      32.861  23.489   6.352 -0.94 -0.07    -0.228    37.537
ATOM     38  O   UNL d   1      33.002  24.786   4.110 -0.25 +0.03    -0.303    37.537
ATOM     39  H   UNL d   1      32.113  24.860   3.700 +0.08 +0.00    +0.222    37.537
ATOM     40  O   UNL d   1      33.963  25.871   6.155 -0.12 +0.06    -0.303    37.537
ATOM     41  H   UNL d   1      33.809  26.763   5.771 +0.06 -0.06    +0.222    37.537
ATOM     42  O   UNL d   1      30.451  26.139   3.193 -0.21 +0.03    -0.278    37.537
ATOM     43  P   UNL d   1      31.321  26.885   2.084 -0.05 -0.05    +0.473    37.537
ATOM     44  O   UNL d   1      31.803  28.259   2.399 -0.03 +0.03    -0.228    37.537
ATOM     45  O   UNL d   1      32.483  25.839   1.789 +0.04 +0.02    -0.303    37.537
ATOM     46  H   UNL d   1      33.227  25.944   2.416 +0.07 -0.02    +0.222    37.537
ATOM     47  O   UNL d   1      30.422  26.754   0.763 -0.08 +0.04    -0.303    37.537
ATOM     48  H   UNL d   1      29.498  27.002   0.976 +0.08 -0.04    +0.222    37.537
TER
ENDMDL
MODEL       27
USER    Run = 27
USER    Cluster Rank = 33
USER    Number of conformations in this cluster = 1
USER  
USER    RMSD from reference structure       = 19.828 A
USER  
USER    Estimated Free Energy of Binding    =   +2.58 kcal/mol  [=(1)+(2)+(3)-(4)]
USER    
USER    (1) Final Intermolecular Energy     =   -4.57 kcal/mol
USER        vdW + Hbond + desolv Energy     =   -4.58 kcal/mol
USER        Electrostatic Energy            =   +0.00 kcal/mol
USER    (2) Final Total Internal Energy     =  -13.61 kcal/mol
USER    (3) Torsional Free Energy           =   +7.16 kcal/mol
USER    (4) Unbound System's Energy  [=(2)] =  -13.61 kcal/mol
USER    
USER    
USER  
USER    DPF = D:/Protein_go_brrr/autodock/final/1A3N/IHP/dock.dpf
USER    NEWDPF move	IHP_ideal_opt.pdbqt
USER    NEWDPF about	0.035000 0.082000 -0.065000
USER    NEWDPF tran0	18.174310 -4.953236 14.658182
USER    NEWDPF axisangle0	-0.711894 -0.663499 -0.230165 -173.728878
USER    NEWDPF quaternion0	-0.710828 -0.662506 -0.229821 -0.054699
USER    NEWDPF dihe0	124.72 63.05 149.48 28.00 33.09 -179.98 4.25 -105.02 55.91 -70.42 129.62 179.13 -170.66 -142.26 -24.49 -56.09 166.70 -130.87 -5.39 1.85 163.81 146.30 -23.66 154.32 
USER  
USER                              x       y       z    vdW   Elec        q     RMS 
ATOM      1  C   UNL d   1      17.537  -3.399  14.254 -0.07 +0.01    +0.194    19.828
ATOM      2  C   UNL d   1      16.646  -4.591  13.902 -0.05 +0.04    +0.194    19.828
ATOM      3  C   UNL d   1      17.449  -5.736  13.283 -0.04 +0.03    +0.194    19.828
ATOM      4  C   UNL d   1      18.656  -6.147  14.123 -0.12 +0.03    +0.194    19.828
ATOM      5  C   UNL d   1      19.511  -4.978  14.594 -0.14 +0.02    +0.194    19.828
ATOM      6  C   UNL d   1      18.703  -3.806  15.157 -0.11 +0.01    +0.194    19.828
ATOM      7  O   UNL d   1      16.749  -2.451  14.978 -0.09 +0.02    -0.278    19.828
ATOM      8  P   UNL d   1      16.736  -0.934  14.476 -0.03 -0.10    +0.473    19.828
ATOM      9  O   UNL d   1      17.247   0.060  15.459 -0.15 +0.18    -0.228    19.828
ATOM     10  O   UNL d   1      17.577  -0.968  13.121 -0.02 +0.01    -0.303    19.828
ATOM     11  H   UNL d   1      18.279  -1.642  13.189 +0.06 -0.01    +0.222    19.828
ATOM     12  O   UNL d   1      15.259  -0.689  13.945 -0.02 -0.01    -0.303    19.828
ATOM     13  H   UNL d   1      14.615  -1.357  14.271 +0.05 +0.03    +0.222    19.828
ATOM     14  O   UNL d   1      16.012  -5.069  15.095 -0.12 -0.11    -0.278    19.828
ATOM     15  P   UNL d   1      14.440  -5.360  15.004 -0.02 +0.22    +0.473    19.828
ATOM     16  O   UNL d   1      13.527  -4.203  15.263 -0.05 -0.10    -0.228    19.828
ATOM     17  O   UNL d   1      14.246  -5.988  13.552 -0.00 -0.09    -0.303    19.828
ATOM     18  H   UNL d   1      14.840  -6.750  13.416 +0.04 +0.07    +0.222    19.828
ATOM     19  O   UNL d   1      14.218  -6.632  15.933 -0.12 -0.19    -0.303    19.828
ATOM     20  H   UNL d   1      14.995  -7.220  15.932 -0.06 +0.11    +0.222    19.828
ATOM     21  O   UNL d   1      19.588  -2.691  15.226 -0.15 +0.03    -0.278    19.828
ATOM     22  P   UNL d   1      20.251  -2.122  13.891 -0.07 -0.03    +0.473    19.828
ATOM     23  O   UNL d   1      19.818  -2.702  12.587 -0.09 +0.00    -0.228    19.828
ATOM     24  O   UNL d   1      19.997  -0.558  14.043 -0.11 +0.04    -0.303    19.828
ATOM     25  H   UNL d   1      19.138  -0.430  14.519 +0.08 -0.06    +0.222    19.828
ATOM     26  O   UNL d   1      21.814  -2.238  14.228 -0.49 +0.01    -0.303    19.828
ATOM     27  H   UNL d   1      21.925  -2.698  15.085 +0.03 -0.04    +0.222    19.828
ATOM     28  O   UNL d   1      16.606  -6.881  13.248 -0.04 -0.06    -0.278    19.828
ATOM     29  P   UNL d   1      16.790  -8.048  14.316 -0.05 +0.15    +0.473    19.828
ATOM     30  O   UNL d   1      17.862  -9.031  14.013 -0.32 -0.07    -0.228    19.828
ATOM     31  O   UNL d   1      16.957  -7.181  15.651 -0.23 -0.11    -0.303    19.828
ATOM     32  H   UNL d   1      16.173  -6.592  15.743 +0.02 +0.11    +0.222    19.828
ATOM     33  O   UNL d   1      15.309  -8.616  14.449 -0.45 -0.12    -0.303    19.828
ATOM     34  H   UNL d   1      14.681  -7.858  14.538 +0.04 +0.08    +0.222    19.828
ATOM     35  O   UNL d   1      20.309  -5.487  15.661 -0.22 -0.04    -0.278    19.828
ATOM     36  P   UNL d   1      21.867  -5.752  15.444 -0.26 +0.01    +0.473    19.828
ATOM     37  O   UNL d   1      22.448  -6.876  16.242 -0.31 -0.01    -0.228    19.828
ATOM     38  O   UNL d   1      21.946  -5.961  13.867 -0.21 -0.01    -0.303    19.828
ATOM     39  H   UNL d   1      21.040  -6.098  13.516 +0.12 +0.02    +0.222    19.828
ATOM     40  O   UNL d   1      22.492  -4.307  15.670 -0.30 +0.07    -0.303    19.828
ATOM     41  H   UNL d   1      22.862  -3.936  14.839 -0.25 -0.09    +0.222    19.828
ATOM     42  O   UNL d   1      19.483  -6.965  13.289 -0.06 -0.04    -0.278    19.828
ATOM     43  P   UNL d   1      19.738  -6.517  11.779 -0.07 +0.03    +0.473    19.828
ATOM     44  O   UNL d   1      18.723  -6.917  10.764 -0.07 -0.02    -0.228    19.828
ATOM     45  O   UNL d   1      19.941  -4.945  11.911 -0.09 -0.01    -0.303    19.828
ATOM     46  H   UNL d   1      20.666  -4.728  12.532 +0.10 +0.00    +0.222    19.828
ATOM     47  O   UNL d   1      21.234  -7.017  11.496 -0.19 -0.02    -0.303    19.828
ATOM     48  H   UNL d   1      21.597  -7.425  12.310 +0.12 +0.02    +0.222    19.828
TER
ENDMDL
MODEL       93
USER    Run = 93
USER    Cluster Rank = 34
USER    Number of conformations in this cluster = 1
USER  
USER    RMSD from reference structure       = 14.699 A
USER  
USER    Estimated Free Energy of Binding    =   +2.60 kcal/mol  [=(1)+(2)+(3)-(4)]
USER    
USER    (1) Final Intermolecular Energy     =   -4.56 kcal/mol
USER        vdW + Hbond + desolv Energy     =   -4.31 kcal/mol
USER        Electrostatic Energy            =   -0.24 kcal/mol
USER    (2) Final Total Internal Energy     =  -13.78 kcal/mol
USER    (3) Torsional Free Energy           =   +7.16 kcal/mol
USER    (4) Unbound System's Energy  [=(2)] =  -13.78 kcal/mol
USER    
USER    
USER  
USER    DPF = D:/Protein_go_brrr/autodock/final/1A3N/IHP/dock.dpf
USER    NEWDPF move	IHP_ideal_opt.pdbqt
USER    NEWDPF about	0.035000 0.082000 -0.065000
USER    NEWDPF tran0	6.271026 14.758360 -7.978850
USER    NEWDPF axisangle0	0.725569 0.552095 -0.410780 -175.572829
USER    NEWDPF quaternion0	0.725028 0.551683 -0.410473 -0.038625
USER    NEWDPF dihe0	144.03 71.04 157.87 112.11 9.63 151.68 -26.51 -163.31 79.58 -61.11 77.79 -95.16 -28.21 91.86 174.45 151.87 -123.20 -41.01 -1.19 -31.92 -22.46 -42.31 -1.49 -20.15 
USER  
USER                              x       y       z    vdW   Elec        q     RMS 
ATOM      1  C   UNL d   1       5.163  15.663  -8.948 -0.02 -0.01    +0.194    14.699
ATOM      2  C   UNL d   1       4.631  15.204  -7.589 -0.06 -0.02    +0.194    14.699
ATOM      3  C   UNL d   1       5.027  13.758  -7.284 -0.08 -0.02    +0.194    14.699
ATOM      4  C   UNL d   1       6.524  13.500  -7.434 -0.05 -0.01    +0.194    14.699
ATOM      5  C   UNL d   1       7.121  14.044  -8.726 -0.03 -0.00    +0.194    14.699
ATOM      6  C   UNL d   1       6.676  15.469  -9.063 -0.02 -0.00    +0.194    14.699
ATOM      7  O   UNL d   1       4.903  17.063  -9.080 -0.01 +0.01    -0.278    14.699
ATOM      8  P   UNL d   1       4.061  17.562 -10.342 -0.00 -0.03    +0.473    14.699
ATOM      9  O   UNL d   1       3.180  16.534 -10.960 -0.04 +0.02    -0.228    14.699
ATOM     10  O   UNL d   1       3.261  18.830  -9.797 -0.01 +0.02    -0.303    14.699
ATOM     11  H   UNL d   1       3.303  18.849  -8.822 +0.02 -0.02    +0.222    14.699
ATOM     12  O   UNL d   1       5.128  18.234 -11.310 -0.00 +0.01    -0.303    14.699
ATOM     13  H   UNL d   1       6.037  17.878 -11.188 +0.00 -0.00    +0.222    14.699
ATOM     14  O   UNL d   1       5.170  16.051  -6.566 -0.02 +0.03    -0.278    14.699
ATOM     15  P   UNL d   1       4.217  17.219  -6.027 -0.02 -0.05    +0.473    14.699
ATOM     16  O   UNL d   1       4.366  17.597  -4.587 -0.02 +0.02    -0.228    14.699
ATOM     17  O   UNL d   1       4.497  18.435  -7.017 -0.01 +0.02    -0.303    14.699
ATOM     18  H   UNL d   1       4.249  18.207  -7.933 +0.02 -0.02    +0.222    14.699
ATOM     19  O   UNL d   1       2.755  16.775  -6.472 -0.09 +0.08    -0.303    14.699
ATOM     20  H   UNL d   1       2.552  15.866  -6.185 -0.23 -0.09    +0.222    14.699
ATOM     21  O   UNL d   1       7.025  15.699 -10.426 -0.01 -0.00    -0.278    14.699
ATOM     22  P   UNL d   1       7.935  16.951 -10.810 +0.00 +0.02    +0.473    14.699
ATOM     23  O   UNL d   1       7.835  17.497 -12.194 -0.00 -0.01    -0.228    14.699
ATOM     24  O   UNL d   1       7.569  17.985  -9.657 -0.00 -0.00    -0.303    14.699
ATOM     25  H   UNL d   1       6.588  18.126  -9.669 +0.01 -0.00    +0.222    14.699
ATOM     26  O   UNL d   1       9.388  16.449 -10.355 -0.02 -0.03    -0.303    14.699
ATOM     27  H   UNL d   1       9.289  15.745  -9.683 +0.04 +0.02    +0.222    14.699
ATOM     28  O   UNL d   1       4.738  13.515  -5.914 -0.09 +0.04    -0.278    14.699
ATOM     29  P   UNL d   1       3.229  13.464  -5.406 -0.19 -0.12    +0.473    14.699
ATOM     30  O   UNL d   1       2.842  12.235  -4.667 -0.64 +0.02    -0.228    14.699
ATOM     31  O   UNL d   1       3.157  14.847  -4.604 -0.10 +0.06    -0.303    14.699
ATOM     32  H   UNL d   1       3.833  15.461  -4.976 +0.05 -0.04    +0.222    14.699
ATOM     33  O   UNL d   1       2.418  13.788  -6.738 -0.04 +0.11    -0.303    14.699
ATOM     34  H   UNL d   1       2.092  14.720  -6.697 -0.35 -0.11    +0.222    14.699
ATOM     35  O   UNL d   1       8.531  14.084  -8.514 -0.10 -0.01    -0.278    14.699
ATOM     36  P   UNL d   1       9.523  13.426  -9.576 -0.12 +0.07    +0.473    14.699
ATOM     37  O   UNL d   1       9.654  11.938  -9.501 -0.16 -0.02    -0.228    14.699
ATOM     38  O   UNL d   1       8.928  13.961 -10.953 -0.03 -0.04    -0.303    14.699
ATOM     39  H   UNL d   1       8.247  14.642 -10.765 +0.03 +0.02    +0.222    14.699
ATOM     40  O   UNL d   1      10.850  14.279  -9.375 -0.20 -0.10    -0.303    14.699
ATOM     41  H   UNL d   1      10.968  14.943 -10.090 +0.06 +0.08    +0.222    14.699
ATOM     42  O   UNL d   1       6.700  12.080  -7.455 -0.08 +0.00    -0.278    14.699
ATOM     43  P   UNL d   1       7.809  11.426  -6.512 -0.18 +0.08    +0.473    14.699
ATOM     44  O   UNL d   1       8.533  12.330  -5.575 -0.29 -0.00    -0.228    14.699
ATOM     45  O   UNL d   1       7.009  10.252  -5.795 -0.59 -0.08    -0.303    14.699
ATOM     46  H   UNL d   1       6.100  10.171  -6.147 -0.07 -0.02    +0.222    14.699
ATOM     47  O   UNL d   1       8.731  10.613  -7.540 -0.15 -0.13    -0.303    14.699
ATOM     48  H   UNL d   1       9.390  11.221  -7.933 -0.46 +0.01    +0.222    14.699
TER
ENDMDL
MODEL       28
USER    Run = 28
USER    Cluster Rank = 35
USER    Number of conformations in this cluster = 1
USER  
USER    RMSD from reference structure       = 15.801 A
USER  
USER    Estimated Free Energy of Binding    =   +2.61 kcal/mol  [=(1)+(2)+(3)-(4)]
USER    
USER    (1) Final Intermolecular Energy     =   -4.55 kcal/mol
USER        vdW + Hbond + desolv Energy     =   -4.33 kcal/mol
USER        Electrostatic Energy            =   -0.22 kcal/mol
USER    (2) Final Total Internal Energy     =  -13.92 kcal/mol
USER    (3) Torsional Free Energy           =   +7.16 kcal/mol
USER    (4) Unbound System's Energy  [=(2)] =  -13.92 kcal/mol
USER    
USER    
USER  
USER    DPF = D:/Protein_go_brrr/autodock/final/1A3N/IHP/dock.dpf
USER    NEWDPF move	IHP_ideal_opt.pdbqt
USER    NEWDPF about	0.035000 0.082000 -0.065000
USER    NEWDPF tran0	-7.680713 14.022315 -9.316146
USER    NEWDPF axisangle0	-0.077518 -0.969077 -0.234266 -109.266036
USER    NEWDPF quaternion0	-0.063213 -0.790245 -0.191035 -0.578811
USER    NEWDPF dihe0	77.86 67.82 103.56 99.98 38.28 149.07 -141.29 -45.33 97.66 -48.64 170.65 -53.61 135.25 88.78 -61.32 -173.91 159.62 46.61 47.71 2.73 170.49 5.94 19.35 -175.75 
USER  
USER                              x       y       z    vdW   Elec        q     RMS 
ATOM      1  C   UNL d   1      -9.074  13.351  -8.546 -0.16 -0.06    +0.194    15.801
ATOM      2  C   UNL d   1      -8.601  12.625  -9.807 -0.13 -0.06    +0.194    15.801
ATOM      3  C   UNL d   1      -8.222  13.607 -10.918 -0.08 -0.08    +0.194    15.801
ATOM      4  C   UNL d   1      -7.233  14.677 -10.463 -0.11 -0.12    +0.194    15.801
ATOM      5  C   UNL d   1      -7.606  15.348  -9.147 -0.13 -0.07    +0.194    15.801
ATOM      6  C   UNL d   1      -8.044  14.370  -8.055 -0.19 -0.07    +0.194    15.801
ATOM      7  O   UNL d   1      -9.241  12.381  -7.509 -0.21 +0.09    -0.278    15.801
ATOM      8  P   UNL d   1     -10.515  11.419  -7.569 -0.12 -0.07    +0.473    15.801
ATOM      9  O   UNL d   1     -10.705  10.549  -6.376 -0.18 +0.02    -0.228    15.801
ATOM     10  O   UNL d   1     -11.738  12.411  -7.824 -0.03 +0.04    -0.303    15.801
ATOM     11  H   UNL d   1     -11.999  12.830  -6.983 +0.05 -0.04    +0.222    15.801
ATOM     12  O   UNL d   1     -10.400  10.667  -8.964 -0.11 +0.02    -0.303    15.801
ATOM     13  H   UNL d   1      -9.481  10.646  -9.316 +0.10 -0.03    +0.222    15.801
ATOM     14  O   UNL d   1      -7.451  11.832  -9.486 -0.16 +0.12    -0.278    15.801
ATOM     15  P   UNL d   1      -7.437  10.333 -10.048 -0.24 -0.16    +0.473    15.801
ATOM     16  O   UNL d   1      -6.109   9.788 -10.473 -0.45 +0.10    -0.228    15.801
ATOM     17  O   UNL d   1      -8.112   9.477  -8.886 -0.30 +0.07    -0.303    15.801
ATOM     18  H   UNL d   1      -8.477  10.056  -8.189 +0.04 -0.05    +0.222    15.801
ATOM     19  O   UNL d   1      -8.574  10.315 -11.160 -0.08 +0.06    -0.303    15.801
ATOM     20  H   UNL d   1      -8.572  11.132 -11.691 +0.06 -0.05    +0.222    15.801
ATOM     21  O   UNL d   1      -8.674  15.144  -7.037 -0.07 +0.11    -0.278    15.801
ATOM     22  P   UNL d   1     -10.072  15.854  -7.333 -0.06 -0.19    +0.473    15.801
ATOM     23  O   UNL d   1     -10.352  16.305  -8.727 -0.02 +0.05    -0.228    15.801
ATOM     24  O   UNL d   1     -11.106  14.791  -6.755 -0.08 +0.12    -0.303    15.801
ATOM     25  H   UNL d   1     -10.691  13.893  -6.814 +0.06 -0.08    +0.222    15.801
ATOM     26  O   UNL d   1     -10.103  16.994  -6.206 -0.08 +0.23    -0.303    15.801
ATOM     27  H   UNL d   1      -9.541  16.718  -5.454 -0.53 -0.34    +0.222    15.801
ATOM     28  O   UNL d   1      -7.544  12.870 -11.927 -0.08 +0.17    -0.278    15.801
ATOM     29  P   UNL d   1      -8.165  12.748 -13.389 -0.01 -0.15    +0.473    15.801
ATOM     30  O   UNL d   1      -7.209  12.376 -14.462 -0.04 +0.07    -0.228    15.801
ATOM     31  O   UNL d   1      -9.364  11.728 -13.098 -0.01 +0.05    -0.303    15.801
ATOM     32  H   UNL d   1      -9.029  10.809 -13.217 +0.04 -0.03    +0.222    15.801
ATOM     33  O   UNL d   1      -8.920  14.141 -13.548 -0.00 +0.06    -0.303    15.801
ATOM     34  H   UNL d   1      -8.618  14.754 -12.833 +0.01 -0.06    +0.222    15.801
ATOM     35  O   UNL d   1      -6.416  15.985  -8.687 -0.17 +0.11    -0.278    15.801
ATOM     36  P   UNL d   1      -6.503  17.313  -7.808 -0.07 -0.11    +0.473    15.801
ATOM     37  O   UNL d   1      -5.293  18.192  -7.845 -0.08 +0.04    -0.228    15.801
ATOM     38  O   UNL d   1      -7.825  17.995  -8.377 -0.02 +0.07    -0.303    15.801
ATOM     39  H   UNL d   1      -8.422  17.297  -8.723 +0.04 -0.06    +0.222    15.801
ATOM     40  O   UNL d   1      -6.944  16.752  -6.386 -0.76 +0.06    -0.303    15.801
ATOM     41  H   UNL d   1      -7.922  16.725  -6.293 +0.04 -0.12    +0.222    15.801
ATOM     42  O   UNL d   1      -7.231  15.695 -11.469 -0.03 +0.13    -0.278    15.801
ATOM     43  P   UNL d   1      -8.488  16.671 -11.581 +0.01 -0.11    +0.473    15.801
ATOM     44  O   UNL d   1      -8.432  17.952 -10.824 -0.00 +0.04    -0.228    15.801
ATOM     45  O   UNL d   1      -8.651  16.850 -13.154 +0.00 +0.05    -0.303    15.801
ATOM     46  H   UNL d   1      -9.334  16.249 -13.514 +0.00 -0.03    +0.222    15.801
ATOM     47  O   UNL d   1      -9.726  15.715 -11.232 +0.00 +0.06    -0.303    15.801
ATOM     48  H   UNL d   1     -10.241  16.108 -10.497 +0.02 -0.04    +0.222    15.801
TER
ENDMDL
MODEL       45
USER    Run = 45
USER    Cluster Rank = 36
USER    Number of conformations in this cluster = 1
USER  
USER    RMSD from reference structure       = 21.732 A
USER  
USER    Estimated Free Energy of Binding    =   +2.63 kcal/mol  [=(1)+(2)+(3)-(4)]
USER    
USER    (1) Final Intermolecular Energy     =   -4.53 kcal/mol
USER        vdW + Hbond + desolv Energy     =   -4.37 kcal/mol
USER        Electrostatic Energy            =   -0.16 kcal/mol
USER    (2) Final Total Internal Energy     =  -12.81 kcal/mol
USER    (3) Torsional Free Energy           =   +7.16 kcal/mol
USER    (4) Unbound System's Energy  [=(2)] =  -12.81 kcal/mol
USER    
USER    
USER  
USER    DPF = D:/Protein_go_brrr/autodock/final/1A3N/IHP/dock.dpf
USER    NEWDPF move	IHP_ideal_opt.pdbqt
USER    NEWDPF about	0.035000 0.082000 -0.065000
USER    NEWDPF tran0	8.978890 -13.146117 20.206873
USER    NEWDPF axisangle0	-0.451528 -0.885899 -0.106325 -146.703047
USER    NEWDPF quaternion0	-0.432600 -0.848763 -0.101867 -0.286499
USER    NEWDPF dihe0	-165.90 138.41 51.75 56.81 11.69 -94.64 -0.01 -90.67 109.38 85.40 94.68 104.74 94.63 117.18 -50.69 -141.09 111.18 24.30 2.61 -20.08 -10.41 19.28 -9.75 177.31 
USER  
USER                              x       y       z    vdW   Elec        q     RMS 
ATOM      1  C   UNL d   1       7.382 -12.503  20.349 -0.11 +0.07    +0.194    21.732
ATOM      2  C   UNL d   1       7.467 -13.989  19.993 -0.14 +0.10    +0.194    21.732
ATOM      3  C   UNL d   1       8.544 -14.258  18.940 -0.10 +0.13    +0.194    21.732
ATOM      4  C   UNL d   1       9.906 -13.673  19.309 +0.15 +0.14    +0.194    21.732
ATOM      5  C   UNL d   1       9.852 -12.226  19.780 -0.08 +0.08    +0.194    21.732
ATOM      6  C   UNL d   1       8.735 -11.943  20.787 -0.14 +0.05    +0.194    21.732
ATOM      7  O   UNL d   1       6.483 -12.360  21.451 -0.24 -0.11    -0.278    21.732
ATOM      8  P   UNL d   1       5.179 -11.458  21.256 -0.06 +0.27    +0.473    21.732
ATOM      9  O   UNL d   1       3.977 -11.917  22.004 -0.68 -0.27    -0.228    21.732
ATOM     10  O   UNL d   1       5.656  -9.994  21.672 -0.08 -0.10    -0.303    21.732
ATOM     11  H   UNL d   1       6.578  -9.856  21.384 +0.08 +0.05    +0.222    21.732
ATOM     12  O   UNL d   1       5.006 -11.318  19.683 -0.11 -0.14    -0.303    21.732
ATOM     13  H   UNL d   1       4.410 -11.999  19.298 -0.26 +0.07    +0.222    21.732
ATOM     14  O   UNL d   1       7.787 -14.734  21.174 -0.23 -0.14    -0.278    21.732
ATOM     15  P   UNL d   1       6.639 -15.690  21.750 -0.12 +0.19    +0.473    21.732
ATOM     16  O   UNL d   1       7.021 -16.595  22.879 -0.14 -0.07    -0.228    21.732
ATOM     17  O   UNL d   1       5.458 -14.691  22.132 -0.18 -0.13    -0.303    21.732
ATOM     18  H   UNL d   1       5.801 -13.902  22.595 +0.08 +0.08    +0.222    21.732
ATOM     19  O   UNL d   1       6.042 -16.412  20.464 -0.10 -0.14    -0.303    21.732
ATOM     20  H   UNL d   1       6.458 -16.090  19.644 +0.05 +0.11    +0.222    21.732
ATOM     21  O   UNL d   1       8.597 -10.526  20.863 -0.06 -0.06    -0.278    21.732
ATOM     22  P   UNL d   1       8.987  -9.763  22.208 -0.14 +0.02    +0.473    21.732
ATOM     23  O   UNL d   1       9.036 -10.549  23.475 -0.33 +0.04    -0.228    21.732
ATOM     24  O   UNL d   1      10.358  -9.065  21.801 -0.17 -0.03    -0.303    21.732
ATOM     25  H   UNL d   1      10.971  -9.765  21.460 +0.10 +0.03    +0.222    21.732
ATOM     26  O   UNL d   1       7.967  -8.526  22.188 -0.07 -0.03    -0.303    21.732
ATOM     27  H   UNL d   1       7.150  -8.775  22.667 +0.11 +0.02    +0.222    21.732
ATOM     28  O   UNL d   1       8.742 -15.665  18.879 -0.37 -0.27    -0.278    21.732
ATOM     29  P   UNL d   1       8.722 -16.420  17.477 -0.04 +0.47    +0.473    21.732
ATOM     30  O   UNL d   1       8.637 -17.901  17.548 -0.04 -0.21    -0.228    21.732
ATOM     31  O   UNL d   1       7.508 -15.657  16.766 -0.00 -0.20    -0.303    21.732
ATOM     32  H   UNL d   1       7.668 -14.687  16.828 +0.04 +0.14    +0.222    21.732
ATOM     33  O   UNL d   1       9.997 -15.806  16.748 -0.15 -0.40    -0.303    21.732
ATOM     34  H   UNL d   1      10.123 -14.874  17.053 +0.04 +0.24    +0.222    21.732
ATOM     35  O   UNL d   1      11.090 -11.991  20.449 -0.17 -0.12    -0.278    21.732
ATOM     36  P   UNL d   1      12.074 -10.844  19.940 -0.21 +0.17    +0.473    21.732
ATOM     37  O   UNL d   1      13.012 -10.295  20.968 -0.39 -0.07    -0.228    21.732
ATOM     38  O   UNL d   1      12.795 -11.555  18.711 -0.19 -0.15    -0.303    21.732
ATOM     39  H   UNL d   1      12.137 -12.093  18.220 +0.09 +0.12    +0.222    21.732
ATOM     40  O   UNL d   1      11.073  -9.816  19.255 -0.04 -0.11    -0.303    21.732
ATOM     41  H   UNL d   1      10.269  -9.671  19.802 +0.07 +0.06    +0.222    21.732
ATOM     42  O   UNL d   1      10.704 -13.700  18.121 -0.10 -0.23    -0.278    21.732
ATOM     43  P   UNL d   1      10.287 -12.775  16.890 +0.02 +0.28    +0.473    21.732
ATOM     44  O   UNL d   1      10.457 -11.304  17.048 -0.02 -0.10    -0.228    21.732
ATOM     45  O   UNL d   1      11.117 -13.401  15.686 -0.01 -0.21    -0.303    21.732
ATOM     46  H   UNL d   1      11.375 -14.326  15.872 +0.04 +0.20    +0.222    21.732
ATOM     47  O   UNL d   1       8.799 -13.267  16.550 +0.00 -0.18    -0.303    21.732
ATOM     48  H   UNL d   1       8.843 -14.122  16.074 +0.04 +0.16    +0.222    21.732
TER
ENDMDL
MODEL       16
USER    Run = 16
USER    Cluster Rank = 37
USER    Number of conformations in this cluster = 1
USER  
USER    RMSD from reference structure       = 40.743 A
USER  
USER    Estimated Free Energy of Binding    =   +2.63 kcal/mol  [=(1)+(2)+(3)-(4)]
USER    
USER    (1) Final Intermolecular Energy     =   -4.53 kcal/mol
USER        vdW + Hbond + desolv Energy     =   -4.14 kcal/mol
USER        Electrostatic Energy            =   -0.39 kcal/mol
USER    (2) Final Total Internal Energy     =  -14.90 kcal/mol
USER    (3) Torsional Free Energy           =   +7.16 kcal/mol
USER    (4) Unbound System's Energy  [=(2)] =  -14.90 kcal/mol
USER    
USER    
USER  
USER    DPF = D:/Protein_go_brrr/autodock/final/1A3N/IHP/dock.dpf
USER    NEWDPF move	IHP_ideal_opt.pdbqt
USER    NEWDPF about	0.035000 0.082000 -0.065000
USER    NEWDPF tran0	10.631901 -3.038161 42.452791
USER    NEWDPF axisangle0	-0.333943 -0.113693 -0.935711 -106.014836
USER    NEWDPF quaternion0	-0.266725 -0.090808 -0.747365 -0.601712
USER    NEWDPF dihe0	105.46 102.68 167.55 -38.65 86.11 143.58 -121.02 -63.14 139.71 1.04 101.60 -172.55 -33.66 -179.95 168.10 2.53 -116.77 120.24 -172.23 22.41 -5.88 21.20 167.96 -12.54 
USER  
USER                              x       y       z    vdW   Elec        q     RMS 
ATOM      1  C   UNL d   1       9.852  -3.513  43.919 +0.01 +0.03    +0.194    40.743
ATOM      2  C   UNL d   1       9.150  -2.411  43.124 -0.00 +0.01    +0.194    40.743
ATOM      3  C   UNL d   1      10.142  -1.374  42.595 -0.02 +0.01    +0.194    40.743
ATOM      4  C   UNL d   1      11.304  -1.993  41.822 -0.05 +0.02    +0.194    40.743
ATOM      5  C   UNL d   1      11.962  -3.172  42.528 -0.03 +0.04    +0.194    40.743
ATOM      6  C   UNL d   1      10.967  -4.178  43.111 -0.02 +0.06    +0.194    40.743
ATOM      7  O   UNL d   1       8.888  -4.523  44.227 +0.00 -0.05    -0.278    40.743
ATOM      8  P   UNL d   1       8.247  -5.353  43.022 +0.01 +0.11    +0.473    40.743
ATOM      9  O   UNL d   1       9.003  -5.292  41.742 -0.03 -0.08    -0.228    40.743
ATOM     10  O   UNL d   1       8.112  -6.834  43.602 -0.00 -0.09    -0.303    40.743
ATOM     11  H   UNL d   1       8.971  -7.124  43.961 +0.01 +0.10    +0.222    40.743
ATOM     12  O   UNL d   1       6.731  -4.882  42.957 +0.00 -0.02    -0.303    40.743
ATOM     13  H   UNL d   1       6.635  -3.911  42.830 +0.00 +0.01    +0.222    40.743
ATOM     14  O   UNL d   1       8.469  -3.001  42.009 -0.01 -0.02    -0.278    40.743
ATOM     15  P   UNL d   1       7.200  -2.205  41.443 -0.01 -0.03    +0.473    40.743
ATOM     16  O   UNL d   1       5.909  -2.959  41.374 -0.01 +0.01    -0.228    40.743
ATOM     17  O   UNL d   1       7.110  -0.910  42.367 -0.03 +0.02    -0.303    40.743
ATOM     18  H   UNL d   1       7.833  -0.285  42.167 +0.04 -0.02    +0.222    40.743
ATOM     19  O   UNL d   1       7.704  -1.582  40.069 -0.07 +0.07    -0.303    40.743
ATOM     20  H   UNL d   1       7.969  -0.649  40.171 -0.44 -0.10    +0.222    40.743
ATOM     21  O   UNL d   1      11.698  -5.007  44.011 -0.02 -0.11    -0.278    40.743
ATOM     22  P   UNL d   1      12.009  -6.521  43.617 +0.11 +0.49    +0.473    40.743
ATOM     23  O   UNL d   1      12.393  -7.468  44.704 -0.11 -0.17    -0.228    40.743
ATOM     24  O   UNL d   1      10.695  -6.925  42.814 +0.03 -0.44    -0.303    40.743
ATOM     25  H   UNL d   1      10.250  -6.092  42.514 +0.02 +0.19    +0.222    40.743
ATOM     26  O   UNL d   1      13.077  -6.338  42.435 -0.47 -0.41    -0.303    40.743
ATOM     27  H   UNL d   1      12.894  -5.500  41.963 +0.04 +0.19    +0.222    40.743
ATOM     28  O   UNL d   1       9.453  -0.562  41.653 -0.08 +0.01    -0.278    40.743
ATOM     29  P   UNL d   1       9.556   1.026  41.731 -0.11 -0.01    +0.473    40.743
ATOM     30  O   UNL d   1       9.912   1.580  43.063 -0.05 -0.01    -0.228    40.743
ATOM     31  O   UNL d   1      10.583   1.297  40.534 -0.22 -0.01    -0.303    40.743
ATOM     32  H   UNL d   1      11.469   0.957  40.797 +0.06 +0.02    +0.222    40.743
ATOM     33  O   UNL d   1       8.163   1.482  41.110 +0.01 +0.05    -0.303    40.743
ATOM     34  H   UNL d   1       7.672   0.682  40.800 -0.44 -0.08    +0.222    40.743
ATOM     35  O   UNL d   1      12.711  -3.855  41.525 -0.08 -0.08    -0.278    40.743
ATOM     36  P   UNL d   1      11.972  -4.488  40.260 -0.21 +0.16    +0.473    40.743
ATOM     37  O   UNL d   1      11.165  -5.717  40.534 -0.30 -0.20    -0.228    40.743
ATOM     38  O   UNL d   1      11.122  -3.251  39.727 -0.26 -0.04    -0.303    40.743
ATOM     39  H   UNL d   1      11.732  -2.581  39.351 +0.09 +0.06    +0.222    40.743
ATOM     40  O   UNL d   1      13.156  -4.621  39.207 -0.27 -0.05    -0.303    40.743
ATOM     41  H   UNL d   1      13.749  -3.838  39.225 -0.30 +0.00    +0.222    40.743
ATOM     42  O   UNL d   1      12.301  -0.974  41.685 -0.04 -0.03    -0.278    40.743
ATOM     43  P   UNL d   1      12.806  -0.580  40.225 -0.11 +0.05    +0.473    40.743
ATOM     44  O   UNL d   1      13.589   0.680  40.086 -0.11 -0.02    -0.228    40.743
ATOM     45  O   UNL d   1      13.586  -1.886  39.760 -0.56 -0.06    -0.303    40.743
ATOM     46  H   UNL d   1      13.223  -2.690  40.184 +0.07 +0.04    +0.222    40.743
ATOM     47  O   UNL d   1      11.472  -0.665  39.340 -0.23 -0.03    -0.303    40.743
ATOM     48  H   UNL d   1      10.705  -0.828  39.928 +0.06 +0.00    +0.222    40.743
TER
ENDMDL
MODEL       82
USER    Run = 82
USER    Cluster Rank = 38
USER    Number of conformations in this cluster = 1
USER  
USER    RMSD from reference structure       = 45.720 A
USER  
USER    Estimated Free Energy of Binding    =   +2.63 kcal/mol  [=(1)+(2)+(3)-(4)]
USER    
USER    (1) Final Intermolecular Energy     =   -4.53 kcal/mol
USER        vdW + Hbond + desolv Energy     =   -4.43 kcal/mol
USER        Electrostatic Energy            =   -0.09 kcal/mol
USER    (2) Final Total Internal Energy     =  -13.52 kcal/mol
USER    (3) Torsional Free Energy           =   +7.16 kcal/mol
USER    (4) Unbound System's Energy  [=(2)] =  -13.52 kcal/mol
USER    
USER    
USER  
USER    DPF = D:/Protein_go_brrr/autodock/final/1A3N/IHP/dock.dpf
USER    NEWDPF move	IHP_ideal_opt.pdbqt
USER    NEWDPF about	0.035000 0.082000 -0.065000
USER    NEWDPF tran0	38.600475 -16.462351 26.449609
USER    NEWDPF axisangle0	0.050493 -0.386938 0.920722 -157.557001
USER    NEWDPF quaternion0	0.049527 -0.379540 0.903120 -0.194602
USER    NEWDPF dihe0	69.97 98.19 141.58 21.55 -24.42 -161.48 -30.58 -152.11 180.00 -49.64 40.11 -168.12 25.22 -178.83 7.23 119.92 -123.61 158.44 -7.25 6.90 147.62 -8.87 156.64 -8.12 
USER  
USER                              x       y       z    vdW   Elec        q     RMS 
ATOM      1  C   UNL d   1      37.748 -16.062  27.898 -0.10 -0.04    +0.194    45.720
ATOM      2  C   UNL d   1      39.230 -15.682  27.876 -0.09 -0.04    +0.194    45.720
ATOM      3  C   UNL d   1      40.092 -16.797  27.282 -0.03 -0.03    +0.194    45.720
ATOM      4  C   UNL d   1      39.599 -17.277  25.919 -0.05 -0.04    +0.194    45.720
ATOM      5  C   UNL d   1      38.103 -17.558  25.864 -0.07 -0.04    +0.194    45.720
ATOM      6  C   UNL d   1      37.244 -16.471  26.513 -0.14 -0.04    +0.194    45.720
ATOM      7  O   UNL d   1      36.999 -14.913  28.301 -0.15 +0.07    -0.278    45.720
ATOM      8  P   UNL d   1      35.931 -15.078  29.478 -0.08 -0.19    +0.473    45.720
ATOM      9  O   UNL d   1      36.508 -15.145  30.848 -0.05 +0.09    -0.228    45.720
ATOM     10  O   UNL d   1      34.938 -13.845  29.274 -0.19 +0.12    -0.303    45.720
ATOM     11  H   UNL d   1      35.279 -13.068  29.755 +0.13 -0.13    +0.222    45.720
ATOM     12  O   UNL d   1      35.026 -16.309  29.044 -0.12 +0.17    -0.303    45.720
ATOM     13  H   UNL d   1      35.548 -17.114  28.828 +0.06 -0.12    +0.222    45.720
ATOM     14  O   UNL d   1      39.398 -14.502  27.081 -0.41 +0.04    -0.278    45.720
ATOM     15  P   UNL d   1      40.410 -13.397  27.645 -0.22 -0.09    +0.473    45.720
ATOM     16  O   UNL d   1      39.859 -12.020  27.845 -0.93 +0.04    -0.228    45.720
ATOM     17  O   UNL d   1      40.974 -14.038  28.990 -0.06 +0.08    -0.303    45.720
ATOM     18  H   UNL d   1      41.228 -14.971  28.855 +0.05 -0.05    +0.222    45.720
ATOM     19  O   UNL d   1      41.678 -13.495  26.689 -0.24 +0.05    -0.303    45.720
ATOM     20  H   UNL d   1      41.873 -14.419  26.444 +0.07 -0.04    +0.222    45.720
ATOM     21  O   UNL d   1      35.942 -17.025  26.688 -0.47 +0.06    -0.278    45.720
ATOM     22  P   UNL d   1      35.781 -18.497  27.280 -0.05 -0.21    +0.473    45.720
ATOM     23  O   UNL d   1      36.720 -18.932  28.355 -0.02 +0.08    -0.228    45.720
ATOM     24  O   UNL d   1      34.243 -18.517  27.690 -0.10 +0.36    -0.303    45.720
ATOM     25  H   UNL d   1      34.170 -18.209  28.629 -0.24 -0.32    +0.222    45.720
ATOM     26  O   UNL d   1      35.779 -19.386  25.946 -0.04 +0.11    -0.303    45.720
ATOM     27  H   UNL d   1      36.246 -18.901  25.236 +0.07 -0.06    +0.222    45.720
ATOM     28  O   UNL d   1      41.387 -16.259  27.048 -0.02 +0.05    -0.278    45.720
ATOM     29  P   UNL d   1      42.582 -16.570  28.054 +0.01 -0.06    +0.473    45.720
ATOM     30  O   UNL d   1      43.440 -17.726  27.691 -0.00 +0.02    -0.228    45.720
ATOM     31  O   UNL d   1      43.284 -15.132  28.106 -0.01 +0.04    -0.303    45.720
ATOM     32  H   UNL d   1      42.630 -14.453  27.821 +0.05 -0.04    +0.222    45.720
ATOM     33  O   UNL d   1      41.828 -16.644  29.454 +0.00 +0.04    -0.303    45.720
ATOM     34  H   UNL d   1      41.855 -15.752  29.881 +0.02 -0.04    +0.222    45.720
ATOM     35  O   UNL d   1      37.766 -17.588  24.478 -0.10 +0.07    -0.278    45.720
ATOM     36  P   UNL d   1      37.721 -16.236  23.632 -0.26 -0.17    +0.473    45.720
ATOM     37  O   UNL d   1      36.487 -15.409  23.804 +0.19 +0.07    -0.228    45.720
ATOM     38  O   UNL d   1      39.063 -15.515  24.097 -0.14 +0.15    -0.303    45.720
ATOM     39  H   UNL d   1      39.703 -15.517  23.354 -0.37 -0.15    +0.222    45.720
ATOM     40  O   UNL d   1      38.051 -16.745  22.161 -0.13 +0.14    -0.303    45.720
ATOM     41  H   UNL d   1      39.015 -16.715  21.973 -0.17 -0.11    +0.222    45.720
ATOM     42  O   UNL d   1      40.270 -18.512  25.647 -0.01 +0.05    -0.278    45.720
ATOM     43  P   UNL d   1      41.210 -18.613  24.362 -0.01 -0.09    +0.473    45.720
ATOM     44  O   UNL d   1      41.445 -19.967  23.787 -0.02 +0.03    -0.228    45.720
ATOM     45  O   UNL d   1      40.532 -17.586  23.353 -0.13 +0.09    -0.303    45.720
ATOM     46  H   UNL d   1      39.561 -17.559  23.468 +0.09 -0.06    +0.222    45.720
ATOM     47  O   UNL d   1      42.525 -17.811  24.806 -0.02 +0.05    -0.303    45.720
ATOM     48  H   UNL d   1      42.484 -17.632  25.768 +0.03 -0.03    +0.222    45.720
TER
ENDMDL
MODEL       98
USER    Run = 98
USER    Cluster Rank = 39
USER    Number of conformations in this cluster = 1
USER  
USER    RMSD from reference structure       = 38.919 A
USER  
USER    Estimated Free Energy of Binding    =   +2.68 kcal/mol  [=(1)+(2)+(3)-(4)]
USER    
USER    (1) Final Intermolecular Energy     =   -4.47 kcal/mol
USER        vdW + Hbond + desolv Energy     =   -4.38 kcal/mol
USER        Electrostatic Energy            =   -0.09 kcal/mol
USER    (2) Final Total Internal Energy     =  -12.76 kcal/mol
USER    (3) Torsional Free Energy           =   +7.16 kcal/mol
USER    (4) Unbound System's Energy  [=(2)] =  -12.76 kcal/mol
USER    
USER    
USER  
USER    DPF = D:/Protein_go_brrr/autodock/final/1A3N/IHP/dock.dpf
USER    NEWDPF move	IHP_ideal_opt.pdbqt
USER    NEWDPF about	0.035000 0.082000 -0.065000
USER    NEWDPF tran0	10.908992 30.327748 26.370085
USER    NEWDPF axisangle0	-0.020761 0.291042 -0.956485 -55.951328
USER    NEWDPF quaternion0	-0.009739 0.136527 -0.448684 -0.883147
USER    NEWDPF dihe0	89.05 56.50 140.16 15.18 87.38 95.67 -78.61 11.63 58.53 -30.42 77.82 -96.80 -180.00 -172.91 56.63 157.74 -161.11 -94.61 38.87 4.83 -177.78 23.51 11.39 -177.62 
USER  
USER                              x       y       z    vdW   Elec        q     RMS 
ATOM      1  C   UNL d   1      11.107  28.718  26.964 -0.13 -0.02    +0.194    38.919
ATOM      2  C   UNL d   1       9.681  29.269  27.012 -0.06 -0.01    +0.194    38.919
ATOM      3  C   UNL d   1       9.649  30.716  27.507 -0.01 -0.01    +0.194    38.919
ATOM      4  C   UNL d   1      10.598  31.635  26.740 -0.04 -0.01    +0.194    38.919
ATOM      5  C   UNL d   1      12.003  31.073  26.570 -0.06 -0.01    +0.194    38.919
ATOM      6  C   UNL d   1      12.034  29.606  26.134 +0.00 -0.02    +0.194    38.919
ATOM      7  O   UNL d   1      11.069  27.435  26.334 -0.23 +0.06    -0.278    38.919
ATOM      8  P   UNL d   1      10.703  26.162  27.226 -0.17 -0.05    +0.473    38.919
ATOM      9  O   UNL d   1      11.660  25.026  27.129 -0.95 -0.04    -0.228    38.919
ATOM     10  O   UNL d   1      10.573  26.749  28.704 -0.05 +0.01    -0.303    38.919
ATOM     11  H   UNL d   1      11.452  27.025  29.024 +0.06 -0.00    +0.222    38.919
ATOM     12  O   UNL d   1       9.191  25.827  26.868 +0.07 +0.07    -0.303    38.919
ATOM     13  H   UNL d   1       8.863  26.321  26.083 -0.39 -0.06    +0.222    38.919
ATOM     14  O   UNL d   1       9.119  29.225  25.694 -0.11 +0.03    -0.278    38.919
ATOM     15  P   UNL d   1       7.611  28.700  25.576 -0.17 -0.06    +0.473    38.919
ATOM     16  O   UNL d   1       7.394  27.449  24.785 -0.75 +0.01    -0.228    38.919
ATOM     17  O   UNL d   1       7.128  28.566  27.088 -0.05 +0.03    -0.303    38.919
ATOM     18  H   UNL d   1       7.396  29.345  27.613 +0.04 -0.01    +0.222    38.919
ATOM     19  O   UNL d   1       6.786  29.971  25.089 -0.13 +0.06    -0.303    38.919
ATOM     20  H   UNL d   1       7.037  30.774  25.582 +0.05 -0.03    +0.222    38.919
ATOM     21  O   UNL d   1      13.364  29.140  26.351 -0.14 +0.06    -0.278    38.919
ATOM     22  P   UNL d   1      13.827  28.719  27.818 -0.04 -0.04    +0.473    38.919
ATOM     23  O   UNL d   1      13.570  27.319  28.263 -0.09 +0.01    -0.228    38.919
ATOM     24  O   UNL d   1      15.359  29.147  27.812 -0.02 +0.02    -0.303    38.919
ATOM     25  H   UNL d   1      15.487  29.826  27.102 +0.03 -0.02    +0.222    38.919
ATOM     26  O   UNL d   1      13.164  29.873  28.712 -0.01 +0.01    -0.303    38.919
ATOM     27  H   UNL d   1      13.709  30.684  28.647 +0.01 -0.01    +0.222    38.919
ATOM     28  O   UNL d   1       8.345  31.226  27.255 -0.00 +0.02    -0.278    38.919
ATOM     29  P   UNL d   1       7.571  32.045  28.381 +0.01 -0.02    +0.473    38.919
ATOM     30  O   UNL d   1       6.964  33.326  27.938 -0.00 +0.01    -0.228    38.919
ATOM     31  O   UNL d   1       6.573  30.914  28.913 +0.00 +0.01    -0.303    38.919
ATOM     32  H   UNL d   1       6.407  30.273  28.183 +0.02 -0.01    +0.222    38.919
ATOM     33  O   UNL d   1       8.659  32.128  29.541 +0.00 +0.01    -0.303    38.919
ATOM     34  H   UNL d   1       9.382  32.741  29.261 +0.00 -0.01    +0.222    38.919
ATOM     35  O   UNL d   1      12.600  31.835  25.522 -0.54 +0.00    -0.278    38.919
ATOM     36  P   UNL d   1      14.141  32.241  25.601 -0.06 -0.05    +0.473    38.919
ATOM     37  O   UNL d   1      14.418  33.709  25.670 -0.01 +0.02    -0.228    38.919
ATOM     38  O   UNL d   1      14.630  31.421  26.876 -0.04 +0.03    -0.303    38.919
ATOM     39  H   UNL d   1      13.846  31.065  27.348 +0.02 -0.02    +0.222    38.919
ATOM     40  O   UNL d   1      14.764  31.445  24.372 -0.06 +0.08    -0.303    38.919
ATOM     41  H   UNL d   1      14.806  30.479  24.548 -0.39 -0.14    +0.222    38.919
ATOM     42  O   UNL d   1      10.716  32.839  27.505 -0.00 +0.01    -0.278    38.919
ATOM     43  P   UNL d   1      11.528  32.804  28.878 +0.01 -0.01    +0.473    38.919
ATOM     44  O   UNL d   1      11.202  31.715  29.841 +0.00 +0.00    -0.228    38.919
ATOM     45  O   UNL d   1      13.042  32.809  28.389 +0.00 +0.01    -0.303    38.919
ATOM     46  H   UNL d   1      13.104  32.907  27.418 +0.01 -0.01    +0.222    38.919
ATOM     47  O   UNL d   1      11.362  34.297  29.440 +0.00 +0.01    -0.303    38.919
ATOM     48  H   UNL d   1      10.498  34.376  29.895 +0.00 -0.00    +0.222    38.919
TER
ENDMDL
MODEL        5
USER    Run = 5
USER    Cluster Rank = 40
USER    Number of conformations in this cluster = 1
USER  
USER    RMSD from reference structure       = 41.035 A
USER  
USER    Estimated Free Energy of Binding    =   +2.71 kcal/mol  [=(1)+(2)+(3)-(4)]
USER    
USER    (1) Final Intermolecular Energy     =   -4.45 kcal/mol
USER        vdW + Hbond + desolv Energy     =   -3.85 kcal/mol
USER        Electrostatic Energy            =   -0.60 kcal/mol
USER    (2) Final Total Internal Energy     =  -13.48 kcal/mol
USER    (3) Torsional Free Energy           =   +7.16 kcal/mol
USER    (4) Unbound System's Energy  [=(2)] =  -13.48 kcal/mol
USER    
USER    
USER  
USER    DPF = D:/Protein_go_brrr/autodock/final/1A3N/IHP/dock.dpf
USER    NEWDPF move	IHP_ideal_opt.pdbqt
USER    NEWDPF about	0.035000 0.082000 -0.065000
USER    NEWDPF tran0	34.941117 26.541065 10.123895
USER    NEWDPF axisangle0	0.729088 -0.383533 0.566863 105.963133
USER    NEWDPF quaternion0	0.582134 -0.306229 0.452607 0.602072
USER    NEWDPF dihe0	-136.96 -36.20 48.64 58.34 24.86 -111.66 -133.09 -19.77 65.35 75.01 36.61 158.70 43.85 140.78 -53.06 -167.37 112.80 171.22 -143.49 -20.07 175.99 -2.05 -12.26 0.16 
USER  
USER                              x       y       z    vdW   Elec        q     RMS 
ATOM      1  C   UNL d   1      35.987  25.824  11.297 -0.04 +0.04    +0.194    41.035
ATOM      2  C   UNL d   1      35.002  26.863  11.837 -0.04 -0.01    +0.194    41.035
ATOM      3  C   UNL d   1      34.913  28.088  10.923 -0.02 -0.03    +0.194    41.035
ATOM      4  C   UNL d   1      34.635  27.731   9.465 -0.02 -0.08    +0.194    41.035
ATOM      5  C   UNL d   1      35.519  26.616   8.919 -0.07 -0.00    +0.194    41.035
ATOM      6  C   UNL d   1      35.657  25.418   9.860 -0.11 +0.07    +0.194    41.035
ATOM      7  O   UNL d   1      35.884  24.650  12.106 -0.07 -0.09    -0.278    41.035
ATOM      8  P   UNL d   1      34.903  23.483  11.629 -0.19 +0.26    +0.473    41.035
ATOM      9  O   UNL d   1      35.552  22.390  10.855 -0.87 -0.34    -0.228    41.035
ATOM     10  O   UNL d   1      34.219  22.977  12.978 -0.27 -0.14    -0.303    41.035
ATOM     11  H   UNL d   1      33.669  23.690  13.353 +0.11 +0.11    +0.222    41.035
ATOM     12  O   UNL d   1      33.699  24.226  10.905 -0.20 +0.07    -0.303    41.035
ATOM     13  H   UNL d   1      33.028  24.576  11.533 -0.30 -0.09    +0.222    41.035
ATOM     14  O   UNL d   1      33.702  26.269  11.932 -0.11 +0.06    -0.278    41.035
ATOM     15  P   UNL d   1      33.128  26.034  13.408 -0.11 +0.08    +0.473    41.035
ATOM     16  O   UNL d   1      31.971  25.094  13.538 -0.69 -0.19    -0.228    41.035
ATOM     17  O   UNL d   1      34.399  25.568  14.248 -0.10 -0.07    -0.303    41.035
ATOM     18  H   UNL d   1      34.900  24.877  13.773 +0.08 +0.05    +0.222    41.035
ATOM     19  O   UNL d   1      32.888  27.499  13.979 -0.03 -0.03    -0.303    41.035
ATOM     20  H   UNL d   1      33.154  28.184  13.337 +0.03 -0.00    +0.222    41.035
ATOM     21  O   UNL d   1      36.754  24.643   9.382 -0.01 -0.35    -0.278    41.035
ATOM     22  P   UNL d   1      38.246  25.167   9.595 -0.03 +0.27    +0.473    41.035
ATOM     23  O   UNL d   1      38.457  26.630   9.800 -0.00 -0.05    -0.228    41.035
ATOM     24  O   UNL d   1      38.747  24.246  10.792 -0.04 -0.14    -0.303    41.035
ATOM     25  H   UNL d   1      38.009  24.164  11.448 +0.06 +0.10    +0.222    41.035
ATOM     26  O   UNL d   1      39.001  24.518   8.339 -0.22 -0.23    -0.303    41.035
ATOM     27  H   UNL d   1      38.753  25.005   7.527 +0.02 +0.14    +0.222    41.035
ATOM     28  O   UNL d   1      33.793  28.856  11.344 -0.02 +0.06    -0.278    41.035
ATOM     29  P   UNL d   1      34.006  30.249  12.085 +0.01 -0.03    +0.473    41.035
ATOM     30  O   UNL d   1      32.797  31.104  12.203 +0.00 +0.01    -0.228    41.035
ATOM     31  O   UNL d   1      34.672  29.741  13.449 +0.00 +0.00    -0.303    41.035
ATOM     32  H   UNL d   1      33.957  29.436  14.053 +0.01 +0.00    +0.222    41.035
ATOM     33  O   UNL d   1      35.246  30.861  11.295 +0.00 +0.01    -0.303    41.035
ATOM     34  H   UNL d   1      35.146  30.657  10.333 +0.01 -0.02    +0.222    41.035
ATOM     35  O   UNL d   1      34.869  26.150   7.738 -0.10 +0.03    -0.278    41.035
ATOM     36  P   UNL d   1      35.595  26.261   6.323 -0.03 +0.07    +0.473    41.035
ATOM     37  O   UNL d   1      35.112  25.310   5.274 -0.12 -0.04    -0.228    41.035
ATOM     38  O   UNL d   1      35.377  27.797   5.964 -0.00 +0.02    -0.303    41.035
ATOM     39  H   UNL d   1      34.811  28.210   6.651 +0.02 -0.04    +0.222    41.035
ATOM     40  O   UNL d   1      37.132  26.176   6.721 -0.02 -0.11    -0.303    41.035
ATOM     41  H   UNL d   1      37.274  25.593   7.500 +0.03 +0.15    +0.222    41.035
ATOM     42  O   UNL d   1      34.910  28.903   8.691 -0.02 +0.06    -0.278    41.035
ATOM     43  P   UNL d   1      33.696  29.674   8.000 -0.01 -0.14    +0.473    41.035
ATOM     44  O   UNL d   1      33.934  30.263   6.653 -0.01 +0.03    -0.228    41.035
ATOM     45  O   UNL d   1      32.528  28.593   8.041 +0.03 +0.30    -0.303    41.035
ATOM     46  H   UNL d   1      32.873  27.689   7.896 -0.38 -0.41    +0.222    41.035
ATOM     47  O   UNL d   1      33.224  30.705   9.133 -0.01 +0.06    -0.303    41.035
ATOM     48  H   UNL d   1      33.515  30.377  10.009 +0.01 -0.04    +0.222    41.035
TER
ENDMDL
MODEL       97
USER    Run = 97
USER    Cluster Rank = 41
USER    Number of conformations in this cluster = 1
USER  
USER    RMSD from reference structure       = 28.954 A
USER  
USER    Estimated Free Energy of Binding    =   +2.79 kcal/mol  [=(1)+(2)+(3)-(4)]
USER    
USER    (1) Final Intermolecular Energy     =   -4.37 kcal/mol
USER        vdW + Hbond + desolv Energy     =   -4.14 kcal/mol
USER        Electrostatic Energy            =   -0.23 kcal/mol
USER    (2) Final Total Internal Energy     =  -13.50 kcal/mol
USER    (3) Torsional Free Energy           =   +7.16 kcal/mol
USER    (4) Unbound System's Energy  [=(2)] =  -13.50 kcal/mol
USER    
USER    
USER  
USER    DPF = D:/Protein_go_brrr/autodock/final/1A3N/IHP/dock.dpf
USER    NEWDPF move	IHP_ideal_opt.pdbqt
USER    NEWDPF about	0.035000 0.082000 -0.065000
USER    NEWDPF tran0	15.825482 -23.405878 17.205914
USER    NEWDPF axisangle0	0.957947 0.040316 -0.284099 158.932505
USER    NEWDPF quaternion0	0.941803 0.039637 -0.279311 0.182815
USER    NEWDPF dihe0	-153.44 61.81 138.22 18.42 -176.76 130.91 -23.62 0.80 -180.00 112.18 149.69 127.45 -16.02 -171.15 60.11 13.96 -7.55 -163.37 8.42 -2.33 -27.55 -20.61 159.93 22.24 
USER  
USER                              x       y       z    vdW   Elec        q     RMS 
ATOM      1  C   UNL d   1      16.476 -22.104  16.276 -0.06 +0.01    +0.194    28.954
ATOM      2  C   UNL d   1      15.648 -21.695  17.496 -0.07 +0.05    +0.194    28.954
ATOM      3  C   UNL d   1      14.376 -22.537  17.625 -0.03 +0.05    +0.194    28.954
ATOM      4  C   UNL d   1      14.643 -24.039  17.584 -0.02 +0.02    +0.194    28.954
ATOM      5  C   UNL d   1      15.559 -24.477  16.449 -0.02 +0.00    +0.194    28.954
ATOM      6  C   UNL d   1      16.800 -23.598  16.281 -0.08 -0.02    +0.194    28.954
ATOM      7  O   UNL d   1      17.718 -21.398  16.323 -0.12 -0.00    -0.278    28.954
ATOM      8  P   UNL d   1      18.021 -20.318  15.186 -0.03 +0.03    +0.473    28.954
ATOM      9  O   UNL d   1      16.838 -19.548  14.715 -0.03 -0.05    -0.228    28.954
ATOM     10  O   UNL d   1      19.157 -19.395  15.822 -0.12 -0.01    -0.303    28.954
ATOM     11  H   UNL d   1      19.864 -19.956  16.193 -0.06 -0.04    +0.222    28.954
ATOM     12  O   UNL d   1      18.824 -21.110  14.067 -0.09 +0.02    -0.303    28.954
ATOM     13  H   UNL d   1      18.743 -22.087  14.153 +0.07 -0.05    +0.222    28.954
ATOM     14  O   UNL d   1      16.438 -21.877  18.678 -0.16 -0.04    -0.278    28.954
ATOM     15  P   UNL d   1      16.518 -20.633  19.683 -0.28 +0.21    +0.473    28.954
ATOM     16  O   UNL d   1      17.864 -20.008  19.872 -0.83 -0.14    -0.228    28.954
ATOM     17  O   UNL d   1      15.435 -19.609  19.120 -0.13 -0.24    -0.303    28.954
ATOM     18  H   UNL d   1      14.617 -20.073  18.856 +0.06 +0.20    +0.222    28.954
ATOM     19  O   UNL d   1      15.809 -21.149  21.010 -0.40 -0.11    -0.303    28.954
ATOM     20  H   UNL d   1      15.010 -21.671  20.812 +0.08 +0.07    +0.222    28.954
ATOM     21  O   UNL d   1      17.356 -23.910  15.005 -0.05 +0.04    -0.278    28.954
ATOM     22  P   UNL d   1      18.910 -24.248  14.881 -0.10 -0.23    +0.473    28.954
ATOM     23  O   UNL d   1      19.335 -25.672  15.016 -0.15 +0.12    -0.228    28.954
ATOM     24  O   UNL d   1      19.280 -23.572  13.488 -0.09 +0.14    -0.303    28.954
ATOM     25  H   UNL d   1      19.946 -22.858  13.660 -0.01 -0.15    +0.222    28.954
ATOM     26  O   UNL d   1      19.553 -23.220  15.930 -0.05 +0.19    -0.303    28.954
ATOM     27  H   UNL d   1      19.124 -22.346  15.827 +0.04 -0.08    +0.222    28.954
ATOM     28  O   UNL d   1      13.826 -22.286  18.911 -0.03 -0.10    -0.278    28.954
ATOM     29  P   UNL d   1      12.775 -21.107  19.120 -0.06 +0.36    +0.473    28.954
ATOM     30  O   UNL d   1      12.643 -20.157  17.985 -0.61 -0.35    -0.228    28.954
ATOM     31  O   UNL d   1      11.476 -21.957  19.510 -0.02 -0.14    -0.303    28.954
ATOM     32  H   UNL d   1      11.766 -22.796  19.936 +0.02 +0.07    +0.222    28.954
ATOM     33  O   UNL d   1      13.230 -20.498  20.519 -0.13 -0.24    -0.303    28.954
ATOM     34  H   UNL d   1      14.163 -20.181  20.443 +0.08 +0.18    +0.222    28.954
ATOM     35  O   UNL d   1      16.014 -25.783  16.800 -0.02 +0.01    -0.278    28.954
ATOM     36  P   UNL d   1      17.021 -25.983  18.020 -0.05 -0.06    +0.473    28.954
ATOM     37  O   UNL d   1      16.801 -25.081  19.193 -0.13 +0.03    -0.228    28.954
ATOM     38  O   UNL d   1      16.839 -27.532  18.343 -0.01 +0.02    -0.303    28.954
ATOM     39  H   UNL d   1      17.654 -28.012  18.082 +0.03 -0.02    +0.222    28.954
ATOM     40  O   UNL d   1      18.440 -25.905  17.306 -0.11 +0.09    -0.303    28.954
ATOM     41  H   UNL d   1      18.644 -24.993  17.001 -0.41 -0.10    +0.222    28.954
ATOM     42  O   UNL d   1      13.379 -24.679  17.376 -0.00 -0.03    -0.278    28.954
ATOM     43  P   UNL d   1      12.494 -25.070  18.644 +0.00 +0.05    +0.473    28.954
ATOM     44  O   UNL d   1      12.206 -26.515  18.861 -0.00 -0.01    -0.228    28.954
ATOM     45  O   UNL d   1      13.276 -24.375  19.843 -0.00 -0.04    -0.303    28.954
ATOM     46  H   UNL d   1      13.113 -23.411  19.866 +0.03 +0.05    +0.222    28.954
ATOM     47  O   UNL d   1      11.210 -24.122  18.501 +0.00 -0.06    -0.303    28.954
ATOM     48  H   UNL d   1      11.503 -23.192  18.413 +0.01 +0.06    +0.222    28.954
TER
ENDMDL
MODEL       14
USER    Run = 14
USER    Cluster Rank = 42
USER    Number of conformations in this cluster = 1
USER  
USER    RMSD from reference structure       = 39.555 A
USER  
USER    Estimated Free Energy of Binding    =   +2.90 kcal/mol  [=(1)+(2)+(3)-(4)]
USER    
USER    (1) Final Intermolecular Energy     =   -4.26 kcal/mol
USER        vdW + Hbond + desolv Energy     =   -4.17 kcal/mol
USER        Electrostatic Energy            =   -0.09 kcal/mol
USER    (2) Final Total Internal Energy     =  -14.10 kcal/mol
USER    (3) Torsional Free Energy           =   +7.16 kcal/mol
USER    (4) Unbound System's Energy  [=(2)] =  -14.10 kcal/mol
USER    
USER    
USER  
USER    DPF = D:/Protein_go_brrr/autodock/final/1A3N/IHP/dock.dpf
USER    NEWDPF move	IHP_ideal_opt.pdbqt
USER    NEWDPF about	0.035000 0.082000 -0.065000
USER    NEWDPF tran0	22.049539 -21.640233 30.711853
USER    NEWDPF axisangle0	-0.657338 0.743834 0.120905 -177.448894
USER    NEWDPF quaternion0	-0.657175 0.743649 0.120875 -0.022261
USER    NEWDPF dihe0	-180.00 -34.13 116.35 92.98 91.82 93.52 -124.87 -20.00 135.70 -14.45 40.03 -163.94 -119.93 96.93 103.04 -172.82 32.16 -77.47 37.98 -8.18 -49.74 6.85 -22.64 -3.17 
USER  
USER                              x       y       z    vdW   Elec        q     RMS 
ATOM      1  C   UNL d   1      22.653 -22.788  29.571 -0.10 -0.02    +0.194    39.555
ATOM      2  C   UNL d   1      23.659 -21.738  30.047 -0.09 -0.02    +0.194    39.555
ATOM      3  C   UNL d   1      23.036 -20.341  30.103 -0.14 -0.03    +0.194    39.555
ATOM      4  C   UNL d   1      21.733 -20.295  30.897 -0.13 -0.03    +0.194    39.555
ATOM      5  C   UNL d   1      20.745 -21.397  30.534 -0.15 -0.03    +0.194    39.555
ATOM      6  C   UNL d   1      21.380 -22.784  30.418 -0.06 -0.02    +0.194    39.555
ATOM      7  O   UNL d   1      23.255 -24.077  29.711 -0.03 +0.02    -0.278    39.555
ATOM      8  P   UNL d   1      24.197 -24.607  28.535 -0.05 -0.04    +0.473    39.555
ATOM      9  O   UNL d   1      23.499 -24.918  27.258 -0.13 +0.02    -0.228    39.555
ATOM     10  O   UNL d   1      25.305 -23.468  28.384 -0.11 +0.03    -0.303    39.555
ATOM     11  H   UNL d   1      25.360 -22.955  29.212 +0.05 -0.02    +0.222    39.555
ATOM     12  O   UNL d   1      25.030 -25.798  29.178 -0.04 +0.02    -0.303    39.555
ATOM     13  H   UNL d   1      25.785 -25.488  29.727 +0.02 -0.01    +0.222    39.555
ATOM     14  O   UNL d   1      24.113 -22.088  31.360 -0.01 +0.03    -0.278    39.555
ATOM     15  P   UNL d   1      25.693 -22.261  31.549 +0.01 -0.07    +0.473    39.555
ATOM     16  O   UNL d   1      26.241 -21.994  32.916 -0.00 +0.03    -0.228    39.555
ATOM     17  O   UNL d   1      25.983 -23.746  31.047 -0.01 +0.03    -0.303    39.555
ATOM     18  H   UNL d   1      25.266 -24.068  30.469 +0.03 -0.02    +0.222    39.555
ATOM     19  O   UNL d   1      26.330 -21.398  30.374 -0.04 +0.07    -0.303    39.555
ATOM     20  H   UNL d   1      25.788 -20.613  30.169 +0.07 -0.05    +0.222    39.555
ATOM     21  O   UNL d   1      20.433 -23.617  29.753 -0.04 +0.02    -0.278    39.555
ATOM     22  P   UNL d   1      20.427 -25.188  30.031 +0.02 -0.02    +0.473    39.555
ATOM     23  O   UNL d   1      19.118 -25.851  30.300 -0.00 +0.01    -0.228    39.555
ATOM     24  O   UNL d   1      21.209 -25.746  28.762 -0.01 +0.01    -0.303    39.555
ATOM     25  H   UNL d   1      21.804 -25.028  28.426 +0.05 -0.01    +0.222    39.555
ATOM     26  O   UNL d   1      21.532 -25.319  31.185 +0.00 +0.01    -0.303    39.555
ATOM     27  H   UNL d   1      22.423 -25.309  30.779 +0.02 -0.01    +0.222    39.555
ATOM     28  O   UNL d   1      23.938 -19.498  30.808 -0.07 +0.04    -0.278    39.555
ATOM     29  P   UNL d   1      24.601 -18.245  30.083 -0.10 -0.09    +0.473    39.555
ATOM     30  O   UNL d   1      25.161 -17.206  30.984 -0.12 +0.04    -0.228    39.555
ATOM     31  O   UNL d   1      25.629 -18.996  29.113 -0.16 +0.07    -0.303    39.555
ATOM     32  H   UNL d   1      26.375 -19.344  29.655 +0.10 -0.08    +0.222    39.555
ATOM     33  O   UNL d   1      23.448 -17.787  29.086 -0.18 +0.07    -0.303    39.555
ATOM     34  H   UNL d   1      22.575 -17.877  29.541 -0.31 -0.10    +0.222    39.555
ATOM     35  O   UNL d   1      19.813 -21.451  31.612 -0.06 +0.02    -0.278    39.555
ATOM     36  P   UNL d   1      18.323 -20.917  31.414 -0.10 -0.02    +0.473    39.555
ATOM     37  O   UNL d   1      17.410 -21.822  30.649 -0.12 +0.02    -0.228    39.555
ATOM     38  O   UNL d   1      17.870 -20.649  32.917 +0.15 +0.05    -0.303    39.555
ATOM     39  H   UNL d   1      18.412 -19.921  33.290 -0.40 -0.05    +0.222    39.555
ATOM     40  O   UNL d   1      18.560 -19.461  30.820 -0.78 -0.05    -0.303    39.555
ATOM     41  H   UNL d   1      19.127 -18.915  31.408 +0.10 +0.03    +0.222    39.555
ATOM     42  O   UNL d   1      21.103 -19.047  30.589 -0.08 +0.08    -0.278    39.555
ATOM     43  P   UNL d   1      20.941 -17.959  31.745 -0.25 -0.01    +0.473    39.555
ATOM     44  O   UNL d   1      20.754 -18.458  33.136 -0.15 +0.00    -0.228    39.555
ATOM     45  O   UNL d   1      22.229 -17.046  31.548 -0.19 +0.02    -0.303    39.555
ATOM     46  H   UNL d   1      22.991 -17.567  31.226 +0.09 -0.03    +0.222    39.555
ATOM     47  O   UNL d   1      19.777 -17.006  31.189 -0.67 -0.09    -0.303    39.555
ATOM     48  H   UNL d   1      19.320 -17.454  30.447 +0.04 +0.06    +0.222    39.555
TER
ENDMDL
MODEL       29
USER    Run = 29
USER    Cluster Rank = 43
USER    Number of conformations in this cluster = 1
USER  
USER    RMSD from reference structure       = 34.203 A
USER  
USER    Estimated Free Energy of Binding    =   +2.97 kcal/mol  [=(1)+(2)+(3)-(4)]
USER    
USER    (1) Final Intermolecular Energy     =   -4.19 kcal/mol
USER        vdW + Hbond + desolv Energy     =   -3.85 kcal/mol
USER        Electrostatic Energy            =   -0.34 kcal/mol
USER    (2) Final Total Internal Energy     =  -12.15 kcal/mol
USER    (3) Torsional Free Energy           =   +7.16 kcal/mol
USER    (4) Unbound System's Energy  [=(2)] =  -12.15 kcal/mol
USER    
USER    
USER  
USER    DPF = D:/Protein_go_brrr/autodock/final/1A3N/IHP/dock.dpf
USER    NEWDPF move	IHP_ideal_opt.pdbqt
USER    NEWDPF about	0.035000 0.082000 -0.065000
USER    NEWDPF tran0	-7.904185 23.513654 26.976664
USER    NEWDPF axisangle0	0.089852 0.391798 0.915653 -73.569786
USER    NEWDPF quaternion0	0.053805 0.234614 0.548304 -0.800889
USER    NEWDPF dihe0	168.76 63.88 -153.68 16.98 -18.84 178.84 -53.60 134.86 132.32 -20.25 -39.61 180.00 -61.43 -150.96 -156.92 169.78 -143.65 9.03 11.28 -43.33 -49.05 -39.03 11.74 167.07 
USER  
USER                              x       y       z    vdW   Elec        q     RMS 
ATOM      1  C   UNL d   1      -6.441  24.432  26.974 -0.02 -0.02    +0.194    34.203
ATOM      2  C   UNL d   1      -6.276  22.926  26.767 -0.09 -0.04    +0.194    34.203
ATOM      3  C   UNL d   1      -7.166  22.122  27.718 -0.12 -0.03    +0.194    34.203
ATOM      4  C   UNL d   1      -8.630  22.553  27.679 -0.09 -0.00    +0.194    34.203
ATOM      5  C   UNL d   1      -8.836  24.060  27.767 -0.06 -0.00    +0.194    34.203
ATOM      6  C   UNL d   1      -7.903  24.866  26.861 -0.03 -0.01    +0.194    34.203
ATOM      7  O   UNL d   1      -5.716  25.106  25.943 -0.02 +0.03    -0.278    34.203
ATOM      8  P   UNL d   1      -4.406  25.926  26.348 -0.01 -0.04    +0.473    34.203
ATOM      9  O   UNL d   1      -4.194  26.095  27.811 -0.01 +0.03    -0.228    34.203
ATOM     10  O   UNL d   1      -3.219  25.140  25.628 -0.04 +0.03    -0.303    34.203
ATOM     11  H   UNL d   1      -3.590  24.491  25.002 +0.07 -0.02    +0.222    34.203
ATOM     12  O   UNL d   1      -4.480  27.267  25.499 -0.01 +0.01    -0.303    34.203
ATOM     13  H   UNL d   1      -5.383  27.460  25.160 +0.01 -0.01    +0.222    34.203
ATOM     14  O   UNL d   1      -6.635  22.597  25.419 -0.16 +0.05    -0.278    34.203
ATOM     15  P   UNL d   1      -5.466  22.681  24.327 -0.13 -0.11    +0.473    34.203
ATOM     16  O   UNL d   1      -5.364  23.955  23.549 -0.13 +0.03    -0.228    34.203
ATOM     17  O   UNL d   1      -4.143  22.351  25.150 -0.14 +0.12    -0.303    34.203
ATOM     18  H   UNL d   1      -3.777  21.483  24.894 -0.32 -0.14    +0.222    34.203
ATOM     19  O   UNL d   1      -5.640  21.359  23.459 -0.29 +0.12    -0.303    34.203
ATOM     20  H   UNL d   1      -5.821  20.582  24.018 -0.31 -0.11    +0.222    34.203
ATOM     21  O   UNL d   1      -7.972  26.221  27.300 -0.00 +0.01    -0.278    34.203
ATOM     22  P   UNL d   1      -7.720  27.404  26.261 +0.00 -0.01    +0.473    34.203
ATOM     23  O   UNL d   1      -6.695  28.434  26.599 -0.00 +0.00    -0.228    34.203
ATOM     24  O   UNL d   1      -7.440  26.601  24.915 -0.00 +0.01    -0.303    34.203
ATOM     25  H   UNL d   1      -6.480  26.356  24.897 +0.02 -0.01    +0.222    34.203
ATOM     26  O   UNL d   1      -9.208  27.948  26.018 +0.00 +0.00    -0.303    34.203
ATOM     27  H   UNL d   1      -9.825  27.473  26.612 +0.01 -0.00    +0.222    34.203
ATOM     28  O   UNL d   1      -7.158  20.772  27.273 -0.23 +0.04    -0.278    34.203
ATOM     29  P   UNL d   1      -5.857  19.872  27.455 -0.21 -0.13    +0.473    34.203
ATOM     30  O   UNL d   1      -6.105  18.442  27.773 -0.82 -0.03    -0.228    34.203
ATOM     31  O   UNL d   1      -5.103  20.190  26.080 -0.12 +0.11    -0.303    34.203
ATOM     32  H   UNL d   1      -5.666  20.796  25.546 +0.08 -0.08    +0.222    34.203
ATOM     33  O   UNL d   1      -5.018  20.710  28.518 -0.12 +0.20    -0.303    34.203
ATOM     34  H   UNL d   1      -4.092  20.364  28.541 -0.42 -0.34    +0.222    34.203
ATOM     35  O   UNL d   1     -10.168  24.295  27.314 -0.05 -0.00    -0.278    34.203
ATOM     36  P   UNL d   1     -11.068  25.413  28.010 -0.01 +0.00    +0.473    34.203
ATOM     37  O   UNL d   1     -12.050  24.913  29.021 -0.01 -0.00    -0.228    34.203
ATOM     38  O   UNL d   1      -9.966  26.399  28.600 -0.00 +0.00    -0.303    34.203
ATOM     39  H   UNL d   1      -9.440  26.773  27.860 +0.01 -0.00    +0.222    34.203
ATOM     40  O   UNL d   1     -11.657  26.202  26.760 -0.01 -0.00    -0.303    34.203
ATOM     41  H   UNL d   1     -10.946  26.619  26.225 +0.01 +0.00    +0.222    34.203
ATOM     42  O   UNL d   1      -9.263  21.974  28.825 -0.09 -0.00    -0.278    34.203
ATOM     43  P   UNL d   1      -8.665  22.277  30.272 -0.02 -0.01    +0.473    34.203
ATOM     44  O   UNL d   1      -8.504  23.706  30.663 -0.01 +0.00    -0.228    34.203
ATOM     45  O   UNL d   1      -9.626  21.445  31.229 -0.02 -0.01    -0.303    34.203
ATOM     46  H   UNL d   1     -10.167  22.033  31.793 +0.01 +0.01    +0.222    34.203
ATOM     47  O   UNL d   1      -7.326  21.396  30.308 -0.02 +0.02    -0.303    34.203
ATOM     48  H   UNL d   1      -7.241  20.906  29.464 +0.06 -0.02    +0.222    34.203
TER
ENDMDL
MODEL       36
USER    Run = 36
USER    Cluster Rank = 44
USER    Number of conformations in this cluster = 1
USER  
USER    RMSD from reference structure       = 52.826 A
USER  
USER    Estimated Free Energy of Binding    =   +3.07 kcal/mol  [=(1)+(2)+(3)-(4)]
USER    
USER    (1) Final Intermolecular Energy     =   -4.09 kcal/mol
USER        vdW + Hbond + desolv Energy     =   -3.73 kcal/mol
USER        Electrostatic Energy            =   -0.36 kcal/mol
USER    (2) Final Total Internal Energy     =  -14.34 kcal/mol
USER    (3) Torsional Free Energy           =   +7.16 kcal/mol
USER    (4) Unbound System's Energy  [=(2)] =  -14.34 kcal/mol
USER    
USER    
USER  
USER    DPF = D:/Protein_go_brrr/autodock/final/1A3N/IHP/dock.dpf
USER    NEWDPF move	IHP_ideal_opt.pdbqt
USER    NEWDPF about	0.035000 0.082000 -0.065000
USER    NEWDPF tran0	40.664856 -1.890529 39.233917
USER    NEWDPF axisangle0	0.364012 0.792083 -0.490000 -118.529778
USER    NEWDPF quaternion0	0.312882 0.680826 -0.421174 -0.511070
USER    NEWDPF dihe0	173.24 2.38 69.32 49.71 51.48 -149.14 23.64 -131.66 161.43 -28.91 96.58 -107.66 26.70 145.91 133.08 -75.64 -179.70 89.22 2.11 -18.52 -19.58 16.56 -180.00 8.49 
USER  
USER                              x       y       z    vdW   Elec        q     RMS 
ATOM      1  C   UNL d   1      39.893  -3.002  38.160 -0.10 +0.08    +0.194    52.826
ATOM      2  C   UNL d   1      39.397  -3.028  39.607 -0.07 +0.06    +0.194    52.826
ATOM      3  C   UNL d   1      40.555  -2.958  40.604 -0.02 +0.04    +0.194    52.826
ATOM      4  C   UNL d   1      41.506  -1.794  40.341 -0.03 +0.04    +0.194    52.826
ATOM      5  C   UNL d   1      41.937  -1.660  38.886 -0.04 +0.04    +0.194    52.826
ATOM      6  C   UNL d   1      40.787  -1.792  37.885 -0.08 +0.07    +0.194    52.826
ATOM      7  O   UNL d   1      38.756  -2.895  37.300 -0.19 -0.13    -0.278    52.826
ATOM      8  P   UNL d   1      38.505  -4.052  36.227 -0.23 +0.39    +0.473    52.826
ATOM      9  O   UNL d   1      37.900  -5.298  36.772 -0.43 -0.27    -0.228    52.826
ATOM     10  O   UNL d   1      37.605  -3.354  35.110 -0.36 -0.18    -0.303    52.826
ATOM     11  H   UNL d   1      37.640  -2.386  35.219 -0.41 +0.08    +0.222    52.826
ATOM     12  O   UNL d   1      39.893  -4.226  35.475 -0.18 -0.33    -0.303    52.826
ATOM     13  H   UNL d   1      40.323  -3.369  35.255 +0.08 +0.17    +0.222    52.826
ATOM     14  O   UNL d   1      38.537  -1.902  39.826 -0.11 -0.08    -0.278    52.826
ATOM     15  P   UNL d   1      36.992  -2.224  40.097 -0.13 +0.15    +0.473    52.826
ATOM     16  O   UNL d   1      36.020  -1.116  39.839 -0.30 -0.09    -0.228    52.826
ATOM     17  O   UNL d   1      36.704  -3.517  39.212 -0.13 -0.10    -0.303    52.826
ATOM     18  H   UNL d   1      37.310  -3.562  38.448 +0.08 +0.08    +0.222    52.826
ATOM     19  O   UNL d   1      36.966  -2.831  41.567 -0.03 -0.08    -0.303    52.826
ATOM     20  H   UNL d   1      37.864  -3.016  41.897 +0.03 +0.05    +0.222    52.826
ATOM     21  O   UNL d   1      41.377  -1.990  36.603 -0.07 -0.13    -0.278    52.826
ATOM     22  P   UNL d   1      41.056  -0.972  35.417 -0.15 +0.33    +0.473    52.826
ATOM     23  O   UNL d   1      41.955  -0.970  34.227 -0.33 -0.30    -0.228    52.826
ATOM     24  O   UNL d   1      39.533  -1.311  35.102 -0.26 -0.22    -0.303    52.826
ATOM     25  H   UNL d   1      39.312  -2.173  35.537 +0.09 +0.14    +0.222    52.826
ATOM     26  O   UNL d   1      40.930   0.418  36.206 -0.19 -0.14    -0.303    52.826
ATOM     27  H   UNL d   1      41.587   0.436  36.932 +0.05 +0.08    +0.222    52.826
ATOM     28  O   UNL d   1      39.999  -2.709  41.889 -0.01 -0.05    -0.278    52.826
ATOM     29  P   UNL d   1      40.362  -3.652  43.120 -0.00 +0.06    +0.473    52.826
ATOM     30  O   UNL d   1      39.330  -4.657  43.484 -0.00 -0.03    -0.228    52.826
ATOM     31  O   UNL d   1      41.780  -4.212  42.633 -0.00 -0.03    -0.303    52.826
ATOM     32  H   UNL d   1      42.454  -3.502  42.747 +0.00 +0.02    +0.222    52.826
ATOM     33  O   UNL d   1      40.766  -2.597  44.241 -0.00 -0.03    -0.303    52.826
ATOM     34  H   UNL d   1      41.645  -2.207  44.014 +0.00 +0.02    +0.222    52.826
ATOM     35  O   UNL d   1      42.458  -0.339  38.756 -0.03 -0.06    -0.278    52.826
ATOM     36  P   UNL d   1      41.628   0.910  39.299 -0.06 +0.09    +0.473    52.826
ATOM     37  O   UNL d   1      41.565   2.090  38.383 -0.11 -0.04    -0.228    52.826
ATOM     38  O   UNL d   1      40.213   0.250  39.614 -0.03 -0.08    -0.303    52.826
ATOM     39  H   UNL d   1      40.201  -0.053  40.548 +0.03 +0.05    +0.222    52.826
ATOM     40  O   UNL d   1      42.268   1.145  40.736 -0.02 -0.04    -0.303    52.826
ATOM     41  H   UNL d   1      42.025   0.430  41.365 +0.01 +0.03    +0.222    52.826
ATOM     42  O   UNL d   1      42.688  -2.042  41.109 -0.00 -0.04    -0.278    52.826
ATOM     43  P   UNL d   1      42.907  -1.239  42.470 -0.00 +0.05    +0.473    52.826
ATOM     44  O   UNL d   1      43.365  -2.012  43.658 +0.00 -0.02    -0.228    52.826
ATOM     45  O   UNL d   1      43.898  -0.073  42.031 -0.00 -0.02    -0.303    52.826
ATOM     46  H   UNL d   1      43.835   0.107  41.072 +0.01 +0.02    +0.222    52.826
ATOM     47  O   UNL d   1      41.528  -0.443  42.652 -0.01 -0.04    -0.303    52.826
ATOM     48  H   UNL d   1      40.819  -1.076  42.888 +0.01 +0.03    +0.222    52.826
TER
ENDMDL
MODEL       76
USER    Run = 76
USER    Cluster Rank = 45
USER    Number of conformations in this cluster = 1
USER  
USER    RMSD from reference structure       = 34.811 A
USER  
USER    Estimated Free Energy of Binding    =   +3.15 kcal/mol  [=(1)+(2)+(3)-(4)]
USER    
USER    (1) Final Intermolecular Energy     =   -4.01 kcal/mol
USER        vdW + Hbond + desolv Energy     =   -3.73 kcal/mol
USER        Electrostatic Energy            =   -0.28 kcal/mol
USER    (2) Final Total Internal Energy     =  -13.79 kcal/mol
USER    (3) Torsional Free Energy           =   +7.16 kcal/mol
USER    (4) Unbound System's Energy  [=(2)] =  -13.79 kcal/mol
USER    
USER    
USER  
USER    DPF = D:/Protein_go_brrr/autodock/final/1A3N/IHP/dock.dpf
USER    NEWDPF move	IHP_ideal_opt.pdbqt
USER    NEWDPF about	0.035000 0.082000 -0.065000
USER    NEWDPF tran0	-10.086295 15.411017 31.932931
USER    NEWDPF axisangle0	-0.882136 0.085702 -0.463132 -126.378617
USER    NEWDPF quaternion0	-0.787308 0.076489 -0.413346 -0.451044
USER    NEWDPF dihe0	-90.81 21.47 179.75 26.23 13.28 80.20 -162.06 -75.14 51.72 91.20 30.27 149.52 177.09 35.39 -75.40 -8.86 -27.92 -129.41 67.84 20.31 2.10 59.05 171.37 -48.01 
USER  
USER                              x       y       z    vdW   Elec        q     RMS 
ATOM      1  C   UNL d   1      -8.931  15.821  33.150 -0.04 +0.19    +0.194    34.811
ATOM      2  C   UNL d   1     -10.206  16.665  33.138 -0.02 +0.08    +0.194    34.811
ATOM      3  C   UNL d   1     -10.615  17.056  31.716 -0.03 +0.03    +0.194    34.811
ATOM      4  C   UNL d   1     -10.703  15.863  30.767 -0.07 +0.01    +0.194    34.811
ATOM      5  C   UNL d   1      -9.501  14.929  30.830 -0.14 +0.04    +0.194    34.811
ATOM      6  C   UNL d   1      -9.055  14.589  32.253 -0.10 +0.13    +0.194    34.811
ATOM      7  O   UNL d   1      -8.716  15.357  34.485 -0.10 -0.37    -0.278    34.811
ATOM      8  P   UNL d   1      -8.654  16.434  35.663 -0.02 +0.47    +0.473    34.811
ATOM      9  O   UNL d   1      -7.496  16.294  36.586 -0.04 -0.28    -0.228    34.811
ATOM     10  O   UNL d   1      -8.688  17.838  34.905 -0.16 -0.23    -0.303    34.811
ATOM     11  H   UNL d   1      -9.535  18.286  35.086 +0.01 +0.10    +0.222    34.811
ATOM     12  O   UNL d   1     -10.091  16.387  36.340 -0.00 -0.13    -0.303    34.811
ATOM     13  H   UNL d   1     -10.791  16.048  35.737 +0.01 +0.08    +0.222    34.811
ATOM     14  O   UNL d   1     -11.272  15.910  33.728 +0.00 -0.08    -0.278    34.811
ATOM     15  P   UNL d   1     -12.435  16.749  34.440 +0.01 +0.08    +0.473    34.811
ATOM     16  O   UNL d   1     -13.606  17.131  33.589 +0.00 -0.02    -0.228    34.811
ATOM     17  O   UNL d   1     -12.848  15.854  35.692 +0.00 -0.05    -0.303    34.811
ATOM     18  H   UNL d   1     -12.256  16.017  36.451 +0.00 +0.04    +0.222    34.811
ATOM     19  O   UNL d   1     -11.678  17.957  35.146 +0.00 -0.06    -0.303    34.811
ATOM     20  H   UNL d   1     -10.793  17.694  35.459 +0.01 +0.06    +0.222    34.811
ATOM     21  O   UNL d   1      -7.754  14.013  32.150 -0.20 -0.29    -0.278    34.811
ATOM     22  P   UNL d   1      -7.581  12.429  32.217 -0.20 +0.40    +0.473    34.811
ATOM     23  O   UNL d   1      -8.326  11.682  33.272 -0.58 -0.31    -0.228    34.811
ATOM     24  O   UNL d   1      -7.931  12.001  30.724 -0.22 -0.12    -0.303    34.811
ATOM     25  H   UNL d   1      -8.810  12.392  30.489 +0.10 +0.05    +0.222    34.811
ATOM     26  O   UNL d   1      -5.986  12.276  32.240 -0.33 -0.25    -0.303    34.811
ATOM     27  H   UNL d   1      -5.661  12.145  31.326 +0.13 +0.11    +0.222    34.811
ATOM     28  O   UNL d   1     -11.932  17.586  31.779 -0.01 -0.02    -0.278    34.811
ATOM     29  P   UNL d   1     -12.568  18.314  30.513 -0.02 -0.01    +0.473    34.811
ATOM     30  O   UNL d   1     -11.618  19.094  29.679 -0.12 +0.01    -0.228    34.811
ATOM     31  O   UNL d   1     -13.298  17.073  29.815 -0.03 +0.03    -0.303    34.811
ATOM     32  H   UNL d   1     -12.822  16.858  28.980 +0.06 -0.04    +0.222    34.811
ATOM     33  O   UNL d   1     -13.781  19.115  31.163 -0.01 -0.00    -0.303    34.811
ATOM     34  H   UNL d   1     -13.961  18.751  32.064 +0.01 +0.01    +0.222    34.811
ATOM     35  O   UNL d   1      -9.924  13.712  30.220 -0.15 +0.01    -0.278    34.811
ATOM     36  P   UNL d   1     -11.183  12.918  30.795 -0.05 -0.04    +0.473    34.811
ATOM     37  O   UNL d   1     -12.074  13.698  31.709 -0.02 -0.01    -0.228    34.811
ATOM     38  O   UNL d   1     -11.892  12.418  29.460 -0.12 +0.25    -0.303    34.811
ATOM     39  H   UNL d   1     -11.565  12.952  28.704 -0.36 -0.38    +0.222    34.811
ATOM     40  O   UNL d   1     -10.513  11.603  31.388 -0.09 -0.09    -0.303    34.811
ATOM     41  H   UNL d   1      -9.746  11.814  31.967 +0.06 +0.14    +0.222    34.811
ATOM     42  O   UNL d   1     -10.756  16.393  29.439 -0.15 +0.05    -0.278    34.811
ATOM     43  P   UNL d   1     -11.346  15.484  28.268 -0.22 -0.24    +0.473    34.811
ATOM     44  O   UNL d   1     -10.422  14.510  27.623 -0.29 +0.19    -0.228    34.811
ATOM     45  O   UNL d   1     -12.619  14.817  28.952 -0.13 +0.15    -0.303    34.811
ATOM     46  H   UNL d   1     -12.422  14.522  29.864 +0.06 -0.07    +0.222    34.811
ATOM     47  O   UNL d   1     -12.026  16.550  27.284 -0.27 +0.14    -0.303    34.811
ATOM     48  H   UNL d   1     -12.359  17.308  27.808 +0.07 -0.06    +0.222    34.811
TER
ENDMDL
MODEL       37
USER    Run = 37
USER    Cluster Rank = 46
USER    Number of conformations in this cluster = 1
USER  
USER    RMSD from reference structure       = 30.406 A
USER  
USER    Estimated Free Energy of Binding    =   +3.16 kcal/mol  [=(1)+(2)+(3)-(4)]
USER    
USER    (1) Final Intermolecular Energy     =   -3.99 kcal/mol
USER        vdW + Hbond + desolv Energy     =   -3.89 kcal/mol
USER        Electrostatic Energy            =   -0.10 kcal/mol
USER    (2) Final Total Internal Energy     =  -13.08 kcal/mol
USER    (3) Torsional Free Energy           =   +7.16 kcal/mol
USER    (4) Unbound System's Energy  [=(2)] =  -13.08 kcal/mol
USER    
USER    
USER  
USER    DPF = D:/Protein_go_brrr/autodock/final/1A3N/IHP/dock.dpf
USER    NEWDPF move	IHP_ideal_opt.pdbqt
USER    NEWDPF about	0.035000 0.082000 -0.065000
USER    NEWDPF tran0	25.477718 23.454671 -6.010937
USER    NEWDPF axisangle0	-0.739160 0.475650 0.476864 70.947480
USER    NEWDPF quaternion0	-0.428956 0.276034 0.276738 0.814382
USER    NEWDPF dihe0	115.39 102.14 45.40 42.80 104.61 120.37 -99.41 -59.01 80.72 131.37 -180.00 120.07 149.78 157.55 98.04 -140.69 103.23 173.52 5.54 -20.41 -26.36 -29.50 9.87 178.47 
USER  
USER                              x       y       z    vdW   Elec        q     RMS 
ATOM      1  C   UNL d   1      25.614  21.736  -6.122 -0.09 +0.00    +0.194    30.406
ATOM      2  C   UNL d   1      24.829  22.411  -7.248 -0.04 +0.00    +0.194    30.406
ATOM      3  C   UNL d   1      23.885  23.490  -6.713 -0.04 +0.00    +0.194    30.406
ATOM      4  C   UNL d   1      24.581  24.503  -5.808 -0.04 -0.00    +0.194    30.406
ATOM      5  C   UNL d   1      25.468  23.875  -4.740 -0.11 -0.01    +0.194    30.406
ATOM      6  C   UNL d   1      26.368  22.753  -5.263 -0.10 -0.01    +0.194    30.406
ATOM      7  O   UNL d   1      26.589  20.872  -6.712 -0.03 -0.00    -0.278    30.406
ATOM      8  P   UNL d   1      26.481  19.303  -6.432 -0.07 +0.02    +0.473    30.406
ATOM      9  O   UNL d   1      27.743  18.539  -6.632 -0.06 -0.01    -0.228    30.406
ATOM     10  O   UNL d   1      25.923  19.214  -4.940 -0.23 +0.02    -0.303    30.406
ATOM     11  H   UNL d   1      26.378  19.872  -4.381 -0.37 -0.06    +0.222    30.406
ATOM     12  O   UNL d   1      25.232  18.816  -7.284 -0.07 -0.04    -0.303    30.406
ATOM     13  H   UNL d   1      25.315  19.022  -8.242 +0.04 +0.02    +0.222    30.406
ATOM     14  O   UNL d   1      25.751  23.022  -8.159 -0.00 -0.00    -0.278    30.406
ATOM     15  P   UNL d   1      25.864  22.361  -9.614 +0.00 +0.01    +0.473    30.406
ATOM     16  O   UNL d   1      27.207  22.409 -10.272 -0.00 -0.01    -0.228    30.406
ATOM     17  O   UNL d   1      25.330  20.875  -9.407 -0.01 -0.02    -0.303    30.406
ATOM     18  H   UNL d   1      25.774  20.444  -8.651 +0.03 +0.01    +0.222    30.406
ATOM     19  O   UNL d   1      24.672  23.016 -10.440 -0.00 -0.01    -0.303    30.406
ATOM     20  H   UNL d   1      24.012  23.430  -9.853 +0.01 +0.00    +0.222    30.406
ATOM     21  O   UNL d   1      26.861  22.054  -4.123 -0.19 +0.03    -0.278    30.406
ATOM     22  P   UNL d   1      28.427  21.795  -3.969 -0.16 -0.05    +0.473    30.406
ATOM     23  O   UNL d   1      29.085  22.193  -2.690 -0.35 +0.04    -0.228    30.406
ATOM     24  O   UNL d   1      28.538  20.248  -4.323 -0.35 +0.02    -0.303    30.406
ATOM     25  H   UNL d   1      27.909  20.056  -5.064 +0.05 -0.01    +0.222    30.406
ATOM     26  O   UNL d   1      29.003  22.482  -5.298 -0.03 +0.02    -0.303    30.406
ATOM     27  H   UNL d   1      28.540  22.113  -6.077 +0.04 -0.01    +0.222    30.406
ATOM     28  O   UNL d   1      23.416  24.239  -7.827 -0.00 -0.00    -0.278    30.406
ATOM     29  P   UNL d   1      22.217  23.689  -8.719 +0.01 +0.00    +0.473    30.406
ATOM     30  O   UNL d   1      22.014  24.382 -10.017 -0.00 -0.00    -0.228    30.406
ATOM     31  O   UNL d   1      22.601  22.136  -8.777 -0.03 -0.01    -0.303    30.406
ATOM     32  H   UNL d   1      23.556  22.058  -9.007 +0.02 +0.01    +0.222    30.406
ATOM     33  O   UNL d   1      21.000  23.711  -7.693 -0.01 +0.01    -0.303    30.406
ATOM     34  H   UNL d   1      21.321  24.050  -6.822 +0.04 -0.00    +0.222    30.406
ATOM     35  O   UNL d   1      26.323  24.920  -4.283 -0.05 +0.02    -0.278    30.406
ATOM     36  P   UNL d   1      26.679  25.049  -2.733 -0.10 -0.05    +0.473    30.406
ATOM     37  O   UNL d   1      28.041  25.587  -2.427 -0.08 +0.03    -0.228    30.406
ATOM     38  O   UNL d   1      25.483  25.952  -2.197 -0.16 +0.03    -0.303    30.406
ATOM     39  H   UNL d   1      24.798  26.027  -2.897 +0.05 -0.01    +0.222    30.406
ATOM     40  O   UNL d   1      26.337  23.595  -2.185 +0.07 +0.05    -0.303    30.406
ATOM     41  H   UNL d   1      27.113  22.994  -2.237 +0.10 -0.02    +0.222    30.406
ATOM     42  O   UNL d   1      23.551  25.227  -5.127 -0.04 +0.00    -0.278    30.406
ATOM     43  P   UNL d   1      22.644  24.460  -4.063 -0.10 +0.02    +0.473    30.406
ATOM     44  O   UNL d   1      21.192  24.793  -4.031 -0.19 -0.03    -0.228    30.406
ATOM     45  O   UNL d   1      22.955  22.931  -4.376 -0.14 -0.01    -0.303    30.406
ATOM     46  H   UNL d   1      23.515  22.530  -3.682 -0.39 -0.04    +0.222    30.406
ATOM     47  O   UNL d   1      23.433  24.677  -2.685 -0.50 -0.01    -0.303    30.406
ATOM     48  H   UNL d   1      24.325  24.278  -2.757 -0.18 -0.06    +0.222    30.406
TER
ENDMDL
MODEL      100
USER    Run = 100
USER    Cluster Rank = 47
USER    Number of conformations in this cluster = 1
USER  
USER    RMSD from reference structure       = 25.165 A
USER  
USER    Estimated Free Energy of Binding    =   +3.18 kcal/mol  [=(1)+(2)+(3)-(4)]
USER    
USER    (1) Final Intermolecular Energy     =   -3.98 kcal/mol
USER        vdW + Hbond + desolv Energy     =   -3.67 kcal/mol
USER        Electrostatic Energy            =   -0.31 kcal/mol
USER    (2) Final Total Internal Energy     =  -13.07 kcal/mol
USER    (3) Torsional Free Energy           =   +7.16 kcal/mol
USER    (4) Unbound System's Energy  [=(2)] =  -13.07 kcal/mol
USER    
USER    
USER  
USER    DPF = D:/Protein_go_brrr/autodock/final/1A3N/IHP/dock.dpf
USER    NEWDPF move	IHP_ideal_opt.pdbqt
USER    NEWDPF about	0.035000 0.082000 -0.065000
USER    NEWDPF tran0	2.787983 -22.840606 15.127885
USER    NEWDPF axisangle0	0.165040 -0.301724 0.939002 -172.537208
USER    NEWDPF quaternion0	0.164690 -0.301084 0.937011 -0.065079
USER    NEWDPF dihe0	138.03 18.24 125.31 134.53 122.34 58.74 -26.39 180.00 54.69 135.62 -3.07 132.41 -79.79 86.68 103.84 138.95 9.02 -95.58 28.25 -18.66 159.56 -32.50 -33.62 -179.91 
USER  
USER                              x       y       z    vdW   Elec        q     RMS 
ATOM      1  C   UNL d   1       2.023 -22.556  16.650 -0.11 -0.05    +0.194    25.165
ATOM      2  C   UNL d   1       3.271 -21.717  16.371 -0.11 -0.02    +0.194    25.165
ATOM      3  C   UNL d   1       4.390 -22.555  15.748 -0.06 +0.00    +0.194    25.165
ATOM      4  C   UNL d   1       3.938 -23.344  14.521 -0.12 -0.01    +0.194    25.165
ATOM      5  C   UNL d   1       2.633 -24.106  14.719 -0.13 -0.03    +0.194    25.165
ATOM      6  C   UNL d   1       1.534 -23.286  15.399 -0.05 -0.06    +0.194    25.165
ATOM      7  O   UNL d   1       0.977 -21.674  17.065 -0.05 +0.20    -0.278    25.165
ATOM      8  P   UNL d   1       0.757 -21.440  18.630 -0.05 -0.13    +0.473    25.165
ATOM      9  O   UNL d   1       1.165 -22.576  19.501 -0.03 +0.02    -0.228    25.165
ATOM     10  O   UNL d   1       1.558 -20.095  18.936 -0.12 +0.01    -0.303    25.165
ATOM     11  H   UNL d   1       2.210 -19.934  18.228 +0.07 -0.01    +0.222    25.165
ATOM     12  O   UNL d   1      -0.753 -20.967  18.769 -0.15 +0.05    -0.303    25.165
ATOM     13  H   UNL d   1      -1.093 -20.519  17.962 -0.38 -0.16    +0.222    25.165
ATOM     14  O   UNL d   1       2.931 -20.662  15.462 -0.16 +0.05    -0.278    25.165
ATOM     15  P   UNL d   1       2.990 -19.171  16.042 -0.10 -0.01    +0.473    25.165
ATOM     16  O   UNL d   1       3.501 -18.110  15.118 -0.18 -0.03    -0.228    25.165
ATOM     17  O   UNL d   1       1.504 -18.890  16.543 -0.21 +0.11    -0.303    25.165
ATOM     18  H   UNL d   1       1.066 -19.716  16.825 -0.35 -0.21    +0.222    25.165
ATOM     19  O   UNL d   1       3.771 -19.312  17.421 -0.05 -0.04    -0.303    25.165
ATOM     20  H   UNL d   1       4.726 -19.447  17.282 +0.05 +0.04    +0.222    25.165
ATOM     21  O   UNL d   1       0.531 -24.208  15.817 -0.10 +0.11    -0.278    25.165
ATOM     22  P   UNL d   1       0.918 -25.410  16.792 -0.00 -0.07    +0.473    25.165
ATOM     23  O   UNL d   1       0.033 -25.683  17.961 -0.01 +0.03    -0.228    25.165
ATOM     24  O   UNL d   1       1.067 -26.622  15.771 -0.00 +0.03    -0.303    25.165
ATOM     25  H   UNL d   1       1.735 -26.367  15.085 +0.02 -0.02    +0.222    25.165
ATOM     26  O   UNL d   1       2.448 -25.074  17.132 -0.00 +0.02    -0.303    25.165
ATOM     27  H   UNL d   1       3.021 -25.782  16.773 +0.02 -0.01    +0.222    25.165
ATOM     28  O   UNL d   1       5.384 -21.657  15.273 -0.03 -0.03    -0.278    25.165
ATOM     29  P   UNL d   1       6.414 -20.987  16.287 +0.02 +0.12    +0.473    25.165
ATOM     30  O   UNL d   1       7.830 -21.409  16.134 +0.00 -0.07    -0.228    25.165
ATOM     31  O   UNL d   1       6.086 -19.441  16.038 -0.00 -0.10    -0.303    25.165
ATOM     32  H   UNL d   1       5.161 -19.366  15.707 +0.05 +0.06    +0.222    25.165
ATOM     33  O   UNL d   1       5.727 -21.270  17.695 -0.00 -0.05    -0.303    25.165
ATOM     34  H   UNL d   1       5.552 -20.408  18.147 +0.03 +0.05    +0.222    25.165
ATOM     35  O   UNL d   1       2.169 -24.426  13.409 -0.25 +0.04    -0.278    25.165
ATOM     36  P   UNL d   1       2.468 -25.860  12.778 -0.04 -0.01    +0.473    25.165
ATOM     37  O   UNL d   1       2.055 -27.031  13.613 -0.02 +0.01    -0.228    25.165
ATOM     38  O   UNL d   1       1.721 -25.760  11.375 -0.22 +0.03    -0.303    25.165
ATOM     39  H   UNL d   1       1.106 -24.996  11.392 -0.51 -0.11    +0.222    25.165
ATOM     40  O   UNL d   1       4.009 -25.751  12.400 -0.37 -0.03    -0.303    25.165
ATOM     41  H   UNL d   1       4.585 -26.101  13.115 +0.02 +0.01    +0.222    25.165
ATOM     42  O   UNL d   1       4.956 -24.315  14.255 -0.03 -0.01    -0.278    25.165
ATOM     43  P   UNL d   1       5.156 -25.523  15.277 +0.01 +0.02    +0.473    25.165
ATOM     44  O   UNL d   1       5.273 -25.186  16.723 -0.00 -0.01    -0.228    25.165
ATOM     45  O   UNL d   1       3.934 -26.481  14.929 -0.00 -0.00    -0.303    25.165
ATOM     46  H   UNL d   1       3.094 -26.136  15.291 +0.02 -0.01    +0.222    25.165
ATOM     47  O   UNL d   1       6.392 -26.330  14.652 +0.00 -0.02    -0.303    25.165
ATOM     48  H   UNL d   1       6.232 -26.476  13.697 +0.01 +0.01    +0.222    25.165
TER
ENDMDL
MODEL       18
USER    Run = 18
USER    Cluster Rank = 48
USER    Number of conformations in this cluster = 1
USER  
USER    RMSD from reference structure       = 27.881 A
USER  
USER    Estimated Free Energy of Binding    =   +3.22 kcal/mol  [=(1)+(2)+(3)-(4)]
USER    
USER    (1) Final Intermolecular Energy     =   -3.94 kcal/mol
USER        vdW + Hbond + desolv Energy     =   -3.64 kcal/mol
USER        Electrostatic Energy            =   -0.30 kcal/mol
USER    (2) Final Total Internal Energy     =  -12.57 kcal/mol
USER    (3) Torsional Free Energy           =   +7.16 kcal/mol
USER    (4) Unbound System's Energy  [=(2)] =  -12.57 kcal/mol
USER    
USER    
USER  
USER    DPF = D:/Protein_go_brrr/autodock/final/1A3N/IHP/dock.dpf
USER    NEWDPF move	IHP_ideal_opt.pdbqt
USER    NEWDPF about	0.035000 0.082000 -0.065000
USER    NEWDPF tran0	0.996857 30.617838 6.837910
USER    NEWDPF axisangle0	0.277529 0.701044 0.656898 120.024298
USER    NEWDPF quaternion0	0.240376 0.607196 0.568960 0.499816
USER    NEWDPF dihe0	143.60 122.40 154.51 -18.20 -8.51 -175.10 -180.00 -92.40 133.11 -36.50 4.59 -164.08 -96.90 173.35 179.99 36.77 109.77 152.15 -135.86 13.81 -177.44 5.92 153.96 -177.12 
USER  
USER                              x       y       z    vdW   Elec        q     RMS 
ATOM      1  C   UNL d   1      -0.513  30.797   7.657 -0.03 +0.03    +0.194    27.881
ATOM      2  C   UNL d   1      -0.602  30.608   6.142 -0.05 +0.02    +0.194    27.881
ATOM      3  C   UNL d   1       0.449  31.441   5.405 -0.03 +0.02    +0.194    27.881
ATOM      4  C   UNL d   1       1.866  31.224   5.932 -0.05 +0.02    +0.194    27.881
ATOM      5  C   UNL d   1       1.980  31.289   7.449 -0.02 +0.02    +0.194    27.881
ATOM      6  C   UNL d   1       0.892  30.507   8.187 -0.05 +0.03    +0.194    27.881
ATOM      7  O   UNL d   1      -1.403  29.864   8.276 -0.05 -0.05    -0.278    27.881
ATOM      8  P   UNL d   1      -0.786  28.537   8.915 -0.19 +0.14    +0.473    27.881
ATOM      9  O   UNL d   1       0.219  27.837   8.069 -0.35 -0.05    -0.228    27.881
ATOM     10  O   UNL d   1      -0.200  29.019  10.318 -0.57 -0.27    -0.303    27.881
ATOM     11  H   UNL d   1      -0.153  29.993  10.335 +0.06 +0.16    +0.222    27.881
ATOM     12  O   UNL d   1      -2.042  27.671   9.360 -0.22 -0.07    -0.303    27.881
ATOM     13  H   UNL d   1      -2.483  27.216   8.607 -0.48 -0.07    +0.222    27.881
ATOM     14  O   UNL d   1      -0.390  29.226   5.830 -0.14 -0.03    -0.278    27.881
ATOM     15  P   UNL d   1      -1.217  28.637   4.591 -0.13 +0.04    +0.473    27.881
ATOM     16  O   UNL d   1      -1.941  27.347   4.819 -0.17 -0.00    -0.228    27.881
ATOM     17  O   UNL d   1      -2.190  29.826   4.174 -0.03 -0.01    -0.303    27.881
ATOM     18  H   UNL d   1      -1.685  30.628   3.938 +0.03 +0.01    +0.222    27.881
ATOM     19  O   UNL d   1      -0.178  28.636   3.386 -0.09 -0.05    -0.303    27.881
ATOM     20  H   UNL d   1      -0.065  29.528   3.008 +0.04 +0.03    +0.222    27.881
ATOM     21  O   UNL d   1       0.924  30.937   9.546 -0.02 -0.06    -0.278    27.881
ATOM     22  P   UNL d   1       0.216  32.306   9.960 +0.01 +0.09    +0.473    27.881
ATOM     23  O   UNL d   1       0.783  33.074  11.105 -0.00 -0.03    -0.228    27.881
ATOM     24  O   UNL d   1       0.192  33.091   8.576 +0.01 -0.03    -0.303    27.881
ATOM     25  H   UNL d   1       1.111  33.412   8.387 +0.01 +0.01    +0.222    27.881
ATOM     26  O   UNL d   1      -1.314  31.849  10.108 -0.01 -0.10    -0.303    27.881
ATOM     27  H   UNL d   1      -1.362  30.872  10.082 +0.04 +0.10    +0.222    27.881
ATOM     28  O   UNL d   1       0.477  30.997   4.054 -0.04 -0.03    -0.278    27.881
ATOM     29  P   UNL d   1       0.072  31.987   2.874 -0.01 +0.03    +0.473    27.881
ATOM     30  O   UNL d   1      -0.078  33.414   3.257 -0.00 -0.01    -0.228    27.881
ATOM     31  O   UNL d   1       1.215  31.636   1.811 -0.01 -0.02    -0.303    27.881
ATOM     32  H   UNL d   1       1.644  32.475   1.523 +0.01 +0.01    +0.222    27.881
ATOM     33  O   UNL d   1      -1.210  31.268   2.261 -0.01 -0.01    -0.303    27.881
ATOM     34  H   UNL d   1      -1.099  30.289   2.342 +0.02 +0.01    +0.222    27.881
ATOM     35  O   UNL d   1       3.228  30.677   7.770 -0.05 -0.03    -0.278    27.881
ATOM     36  P   UNL d   1       3.384  29.090   7.712 -0.16 +0.19    +0.473    27.881
ATOM     37  O   UNL d   1       4.771  28.587   7.466 -0.81 -0.27    -0.228    27.881
ATOM     38  O   UNL d   1       2.766  28.650   9.112 -0.21 -0.08    -0.303    27.881
ATOM     39  H   UNL d   1       1.818  28.904   9.139 +0.11 +0.06    +0.222    27.881
ATOM     40  O   UNL d   1       2.269  28.678   6.655 -0.11 -0.11    -0.303    27.881
ATOM     41  H   UNL d   1       1.370  28.681   7.054 +0.09 +0.06    +0.222    27.881
ATOM     42  O   UNL d   1       2.672  32.282   5.403 -0.01 -0.02    -0.278    27.881
ATOM     43  P   UNL d   1       2.476  33.759   5.972 +0.00 +0.02    +0.473    27.881
ATOM     44  O   UNL d   1       3.005  34.886   5.155 -0.00 -0.01    -0.228    27.881
ATOM     45  O   UNL d   1       0.909  33.826   6.237 -0.00 -0.01    -0.303    27.881
ATOM     46  H   UNL d   1       0.403  33.815   5.400 +0.00 +0.01    +0.222    27.881
ATOM     47  O   UNL d   1       3.054  33.655   7.464 +0.00 -0.00    -0.303    27.881
ATOM     48  H   UNL d   1       3.575  32.830   7.552 +0.02 +0.00    +0.222    27.881
TER
ENDMDL
MODEL       84
USER    Run = 84
USER    Cluster Rank = 49
USER    Number of conformations in this cluster = 1
USER  
USER    RMSD from reference structure       = 14.641 A
USER  
USER    Estimated Free Energy of Binding    =   +3.27 kcal/mol  [=(1)+(2)+(3)-(4)]
USER    
USER    (1) Final Intermolecular Energy     =   -3.89 kcal/mol
USER        vdW + Hbond + desolv Energy     =   -3.92 kcal/mol
USER        Electrostatic Energy            =   +0.03 kcal/mol
USER    (2) Final Total Internal Energy     =  -12.89 kcal/mol
USER    (3) Torsional Free Energy           =   +7.16 kcal/mol
USER    (4) Unbound System's Energy  [=(2)] =  -12.89 kcal/mol
USER    
USER    
USER  
USER    DPF = D:/Protein_go_brrr/autodock/final/1A3N/IHP/dock.dpf
USER    NEWDPF move	IHP_ideal_opt.pdbqt
USER    NEWDPF about	0.035000 0.082000 -0.065000
USER    NEWDPF tran0	7.875766 15.978879 -5.359199
USER    NEWDPF axisangle0	0.591085 0.704486 -0.392833 83.196176
USER    NEWDPF quaternion0	0.392422 0.467709 -0.260802 0.747820
USER    NEWDPF dihe0	93.81 -0.41 115.93 146.89 117.85 149.77 1.31 -180.00 116.70 44.53 156.81 124.54 161.29 65.33 23.89 -48.08 20.78 34.23 57.06 20.77 -179.95 13.36 -6.19 -18.05 
USER  
USER                              x       y       z    vdW   Elec        q     RMS 
ATOM      1  C   UNL d   1       7.715  16.705  -3.800 -0.10 -0.02    +0.194    14.641
ATOM      2  C   UNL d   1       7.535  15.187  -3.843 -0.14 -0.03    +0.194    14.641
ATOM      3  C   UNL d   1       6.684  14.751  -5.038 -0.08 -0.02    +0.194    14.641
ATOM      4  C   UNL d   1       7.183  15.311  -6.368 -0.07 -0.01    +0.194    14.641
ATOM      5  C   UNL d   1       7.485  16.804  -6.338 -0.07 -0.01    +0.194    14.641
ATOM      6  C   UNL d   1       8.284  17.250  -5.111 -0.08 -0.01    +0.194    14.641
ATOM      7  O   UNL d   1       8.655  17.013  -2.768 -0.13 +0.05    -0.278    14.641
ATOM      8  P   UNL d   1       8.251  16.698  -1.255 -0.20 -0.17    +0.473    14.641
ATOM      9  O   UNL d   1       8.802  17.642  -0.245 -0.27 +0.10    -0.228    14.641
ATOM     10  O   UNL d   1       6.656  16.666  -1.279 -0.11 +0.09    -0.303    14.641
ATOM     11  H   UNL d   1       6.314  17.549  -1.515 +0.05 -0.05    +0.222    14.641
ATOM     12  O   UNL d   1       8.611  15.166  -1.041 -0.25 +0.16    -0.303    14.641
ATOM     13  H   UNL d   1       8.309  14.592  -1.781 +0.08 -0.09    +0.222    14.641
ATOM     14  O   UNL d   1       8.823  14.567  -3.950 -0.17 +0.07    -0.278    14.641
ATOM     15  P   UNL d   1       8.958  13.090  -3.346 -0.24 -0.12    +0.473    14.641
ATOM     16  O   UNL d   1       9.377  12.011  -4.295 -0.39 +0.03    -0.228    14.641
ATOM     17  O   UNL d   1       9.966  13.262  -2.124 -0.41 +0.14    -0.303    14.641
ATOM     18  H   UNL d   1      10.007  14.192  -1.830 -0.14 -0.12    +0.222    14.641
ATOM     19  O   UNL d   1       7.580  12.842  -2.591 -0.25 +0.06    -0.303    14.641
ATOM     20  H   UNL d   1       6.900  12.484  -3.191 +0.14 -0.02    +0.222    14.641
ATOM     21  O   UNL d   1       8.187  18.671  -5.050 -0.05 +0.01    -0.278    14.641
ATOM     22  P   UNL d   1       6.855  19.351  -4.497 +0.00 -0.02    +0.473    14.641
ATOM     23  O   UNL d   1       6.359  18.939  -3.152 -0.01 +0.02    -0.228    14.641
ATOM     24  O   UNL d   1       7.198  20.899  -4.637 -0.00 +0.00    -0.303    14.641
ATOM     25  H   UNL d   1       7.505  21.064  -5.564 +0.01 -0.00    +0.222    14.641
ATOM     26  O   UNL d   1       5.842  19.125  -5.719 -0.00 +0.01    -0.303    14.641
ATOM     27  H   UNL d   1       6.355  19.020  -6.547 +0.01 -0.01    +0.222    14.641
ATOM     28  O   UNL d   1       6.802  13.339  -5.156 -0.08 +0.02    -0.278    14.641
ATOM     29  P   UNL d   1       5.502  12.419  -5.143 -0.12 -0.07    +0.473    14.641
ATOM     30  O   UNL d   1       4.851  12.249  -3.819 -0.26 +0.02    -0.228    14.641
ATOM     31  O   UNL d   1       4.643  13.134  -6.288 -0.11 +0.06    -0.303    14.641
ATOM     32  H   UNL d   1       5.197  13.204  -7.100 +0.07 -0.03    +0.222    14.641
ATOM     33  O   UNL d   1       6.020  11.098  -5.865 -0.20 +0.04    -0.303    14.641
ATOM     34  H   UNL d   1       5.470  10.935  -6.670 -0.27 -0.08    +0.222    14.641
ATOM     35  O   UNL d   1       8.298  17.057  -7.482 -0.06 +0.00    -0.278    14.641
ATOM     36  P   UNL d   1       7.859  18.155  -8.553 -0.01 +0.00    +0.473    14.641
ATOM     37  O   UNL d   1       7.830  19.566  -8.057 -0.01 +0.00    -0.228    14.641
ATOM     38  O   UNL d   1       8.900  17.896  -9.730 -0.01 -0.01    -0.303    14.641
ATOM     39  H   UNL d   1       8.951  16.933  -9.908 +0.03 +0.01    +0.222    14.641
ATOM     40  O   UNL d   1       6.495  17.558  -9.112 -0.00 +0.00    -0.303    14.641
ATOM     41  H   UNL d   1       6.244  16.727  -8.650 +0.02 -0.01    +0.222    14.641
ATOM     42  O   UNL d   1       6.133  15.114  -7.321 -0.02 +0.02    -0.278    14.641
ATOM     43  P   UNL d   1       6.476  14.414  -8.713 +0.02 -0.01    +0.473    14.641
ATOM     44  O   UNL d   1       6.589  12.929  -8.725 -0.04 +0.01    -0.228    14.641
ATOM     45  O   UNL d   1       5.351  14.989  -9.679 -0.01 +0.02    -0.303    14.641
ATOM     46  H   UNL d   1       5.600  15.865 -10.037 +0.02 -0.01    +0.222    14.641
ATOM     47  O   UNL d   1       7.774  15.211  -9.213 -0.02 -0.01    -0.303    14.641
ATOM     48  H   UNL d   1       7.567  16.167  -9.260 +0.02 +0.00    +0.222    14.641
TER
ENDMDL
MODEL       92
USER    Run = 92
USER    Cluster Rank = 50
USER    Number of conformations in this cluster = 1
USER  
USER    RMSD from reference structure       = 28.776 A
USER  
USER    Estimated Free Energy of Binding    =   +3.28 kcal/mol  [=(1)+(2)+(3)-(4)]
USER    
USER    (1) Final Intermolecular Energy     =   -3.88 kcal/mol
USER        vdW + Hbond + desolv Energy     =   -3.85 kcal/mol
USER        Electrostatic Energy            =   -0.03 kcal/mol
USER    (2) Final Total Internal Energy     =  -13.75 kcal/mol
USER    (3) Torsional Free Energy           =   +7.16 kcal/mol
USER    (4) Unbound System's Energy  [=(2)] =  -13.75 kcal/mol
USER    
USER    
USER  
USER    DPF = D:/Protein_go_brrr/autodock/final/1A3N/IHP/dock.dpf
USER    NEWDPF move	IHP_ideal_opt.pdbqt
USER    NEWDPF about	0.035000 0.082000 -0.065000
USER    NEWDPF tran0	-7.272398 26.553750 17.134905
USER    NEWDPF axisangle0	-0.764522 0.514681 -0.388086 125.869751
USER    NEWDPF quaternion0	-0.680799 0.458318 -0.345586 0.455003
USER    NEWDPF dihe0	-174.03 -48.02 79.17 105.77 33.71 -121.76 -27.26 -6.00 -5.63 126.87 85.14 95.74 -123.53 110.86 -13.14 148.31 -72.23 51.52 40.63 -6.07 -49.30 25.31 40.74 -173.88 
USER  
USER                              x       y       z    vdW   Elec        q     RMS 
ATOM      1  C   UNL d   1      -5.969  25.573  17.704 -0.19 +0.01    +0.194    28.776
ATOM      2  C   UNL d   1      -5.660  26.438  16.481 -0.19 +0.03    +0.194    28.776
ATOM      3  C   UNL d   1      -6.804  26.412  15.464 -0.18 +0.01    +0.194    28.776
ATOM      4  C   UNL d   1      -8.162  26.744  16.078 -0.08 +0.01    +0.194    28.776
ATOM      5  C   UNL d   1      -8.463  25.987  17.365 -0.10 +0.01    +0.194    28.776
ATOM      6  C   UNL d   1      -7.297  25.961  18.356 -0.10 +0.01    +0.194    28.776
ATOM      7  O   UNL d   1      -4.940  25.786  18.673 -0.10 -0.02    -0.278    28.776
ATOM      8  P   UNL d   1      -3.569  24.983  18.513 -0.19 +0.04    +0.473    28.776
ATOM      9  O   UNL d   1      -3.650  23.528  18.818 -0.41 -0.01    -0.228    28.776
ATOM     10  O   UNL d   1      -3.116  25.286  17.013 -0.18 -0.08    -0.303    28.776
ATOM     11  H   UNL d   1      -3.463  26.154  16.736 +0.10 +0.07    +0.222    28.776
ATOM     12  O   UNL d   1      -2.505  25.810  19.355 -0.23 -0.02    -0.303    28.776
ATOM     13  H   UNL d   1      -2.010  26.466  18.813 +0.11 +0.03    +0.222    28.776
ATOM     14  O   UNL d   1      -5.458  27.791  16.905 -0.05 -0.05    -0.278    28.776
ATOM     15  P   UNL d   1      -4.081  28.481  16.466 -0.09 +0.19    +0.473    28.776
ATOM     16  O   UNL d   1      -3.992  29.966  16.625 -0.04 -0.08    -0.228    28.776
ATOM     17  O   UNL d   1      -2.972  27.703  17.305 -0.15 -0.11    -0.303    28.776
ATOM     18  H   UNL d   1      -3.374  27.209  18.045 +0.09 +0.05    +0.222    28.776
ATOM     19  O   UNL d   1      -3.813  27.932  14.997 -0.04 -0.22    -0.303    28.776
ATOM     20  H   UNL d   1      -4.615  27.975  14.444 +0.05 +0.11    +0.222    28.776
ATOM     21  O   UNL d   1      -7.599  24.956  19.321 -0.10 -0.01    -0.278    28.776
ATOM     22  P   UNL d   1      -7.024  25.084  20.804 -0.07 -0.01    +0.473    28.776
ATOM     23  O   UNL d   1      -6.519  26.414  21.252 -0.03 -0.00    -0.228    28.776
ATOM     24  O   UNL d   1      -8.224  24.499  21.670 -0.11 +0.01    -0.303    28.776
ATOM     25  H   UNL d   1      -9.073  24.722  21.210 +0.06 -0.01    +0.222    28.776
ATOM     26  O   UNL d   1      -5.966  23.879  20.848 -0.19 +0.02    -0.303    28.776
ATOM     27  H   UNL d   1      -5.252  24.054  20.201 +0.13 -0.01    +0.222    28.776
ATOM     28  O   UNL d   1      -6.557  27.441  14.515 -0.09 -0.04    -0.278    28.776
ATOM     29  P   UNL d   1      -6.752  27.164  12.959 -0.10 +0.07    +0.473    28.776
ATOM     30  O   UNL d   1      -7.715  28.057  12.265 -0.03 -0.02    -0.228    28.776
ATOM     31  O   UNL d   1      -5.229  27.220  12.472 -0.17 -0.09    -0.303    28.776
ATOM     32  H   UNL d   1      -4.646  27.008  13.237 +0.09 +0.10    +0.222    28.776
ATOM     33  O   UNL d   1      -7.071  25.604  12.935 -0.21 -0.02    -0.303    28.776
ATOM     34  H   UNL d   1      -7.819  25.420  13.554 +0.08 +0.01    +0.222    28.776
ATOM     35  O   UNL d   1      -9.530  26.697  17.991 -0.04 -0.00    -0.278    28.776
ATOM     36  P   UNL d   1     -10.262  26.086  19.270 -0.04 -0.01    +0.473    28.776
ATOM     37  O   UNL d   1     -10.258  24.593  19.363 -0.11 +0.03    -0.228    28.776
ATOM     38  O   UNL d   1      -9.501  26.817  20.462 -0.01 +0.00    -0.303    28.776
ATOM     39  H   UNL d   1      -8.616  26.410  20.577 +0.03 -0.00    +0.222    28.776
ATOM     40  O   UNL d   1     -11.681  26.803  19.224 -0.01 +0.00    -0.303    28.776
ATOM     41  H   UNL d   1     -12.311  26.326  18.639 +0.02 -0.00    +0.222    28.776
ATOM     42  O   UNL d   1      -9.154  26.360  15.121 -0.05 -0.01    -0.278    28.776
ATOM     43  P   UNL d   1      -9.483  24.810  14.931 -0.17 -0.01    +0.473    28.776
ATOM     44  O   UNL d   1     -10.662  24.263  15.658 -0.18 +0.00    -0.228    28.776
ATOM     45  O   UNL d   1      -9.569  24.664  13.348 -0.14 +0.00    -0.303    28.776
ATOM     46  H   UNL d   1      -9.226  25.460  12.896 +0.06 +0.00    +0.222    28.776
ATOM     47  O   UNL d   1      -8.082  24.098  15.247 -0.19 +0.03    -0.303    28.776
ATOM     48  H   UNL d   1      -7.537  24.082  14.434 -0.31 -0.05    +0.222    28.776
TER
ENDMDL
MODEL       19
USER    Run = 19
USER    Cluster Rank = 51
USER    Number of conformations in this cluster = 1
USER  
USER    RMSD from reference structure       = 29.515 A
USER  
USER    Estimated Free Energy of Binding    =   +3.30 kcal/mol  [=(1)+(2)+(3)-(4)]
USER    
USER    (1) Final Intermolecular Energy     =   -3.86 kcal/mol
USER        vdW + Hbond + desolv Energy     =   -3.66 kcal/mol
USER        Electrostatic Energy            =   -0.20 kcal/mol
USER    (2) Final Total Internal Energy     =  -13.23 kcal/mol
USER    (3) Torsional Free Energy           =   +7.16 kcal/mol
USER    (4) Unbound System's Energy  [=(2)] =  -13.23 kcal/mol
USER    
USER    
USER  
USER    DPF = D:/Protein_go_brrr/autodock/final/1A3N/IHP/dock.dpf
USER    NEWDPF move	IHP_ideal_opt.pdbqt
USER    NEWDPF about	0.035000 0.082000 -0.065000
USER    NEWDPF tran0	-3.303035 -21.774962 23.135338
USER    NEWDPF axisangle0	0.342496 -0.589726 -0.731382 -113.374597
USER    NEWDPF quaternion0	0.286219 -0.492825 -0.611206 -0.549208
USER    NEWDPF dihe0	106.43 48.53 136.31 -6.09 -2.86 175.50 95.08 -12.98 26.26 121.75 9.43 -112.90 -31.48 84.50 -161.55 69.92 94.04 -35.91 31.81 -35.60 -41.88 128.49 19.53 -51.47 
USER  
USER                              x       y       z    vdW   Elec        q     RMS 
ATOM      1  C   UNL d   1      -4.645 -22.821  22.838 -0.02 -0.00    +0.194    29.515
ATOM      2  C   UNL d   1      -4.339 -21.809  21.733 -0.05 +0.01    +0.194    29.515
ATOM      3  C   UNL d   1      -4.022 -20.425  22.304 -0.13 +0.02    +0.194    29.515
ATOM      4  C   UNL d   1      -2.938 -20.452  23.379 -0.12 +0.01    +0.194    29.515
ATOM      5  C   UNL d   1      -3.143 -21.525  24.440 -0.05 +0.00    +0.194    29.515
ATOM      6  C   UNL d   1      -3.521 -22.894  23.872 -0.02 -0.00    +0.194    29.515
ATOM      7  O   UNL d   1      -4.759 -24.114  22.240 -0.00 +0.00    -0.278    29.515
ATOM      8  P   UNL d   1      -6.199 -24.599  21.748 +0.00 -0.01    +0.473    29.515
ATOM      9  O   UNL d   1      -7.190 -23.511  21.527 -0.01 +0.00    -0.228    29.515
ATOM     10  O   UNL d   1      -5.893 -25.446  20.431 +0.00 +0.01    -0.303    29.515
ATOM     11  H   UNL d   1      -5.335 -24.922  19.827 +0.01 -0.01    +0.222    29.515
ATOM     12  O   UNL d   1      -6.629 -25.730  22.778 -0.00 +0.01    -0.303    29.515
ATOM     13  H   UNL d   1      -5.978 -25.857  23.505 +0.00 -0.01    +0.222    29.515
ATOM     14  O   UNL d   1      -3.205 -22.264  20.984 -0.01 -0.02    -0.278    29.515
ATOM     15  P   UNL d   1      -3.515 -23.075  19.638 -0.01 -0.02    +0.473    29.515
ATOM     16  O   UNL d   1      -2.638 -22.784  18.461 -0.10 +0.07    -0.228    29.515
ATOM     17  O   UNL d   1      -3.462 -24.603  20.085 +0.00 +0.02    -0.303    29.515
ATOM     18  H   UNL d   1      -3.885 -24.730  20.956 +0.01 -0.01    +0.222    29.515
ATOM     19  O   UNL d   1      -5.074 -22.866  19.400 -0.01 -0.00    -0.303    29.515
ATOM     20  H   UNL d   1      -5.606 -23.290  20.098 +0.02 -0.00    +0.222    29.515
ATOM     21  O   UNL d   1      -4.006 -23.674  24.963 -0.01 +0.01    -0.278    29.515
ATOM     22  P   UNL d   1      -3.699 -25.238  25.016 +0.00 -0.01    +0.473    29.515
ATOM     23  O   UNL d   1      -4.831 -26.170  25.291 +0.00 +0.01    -0.228    29.515
ATOM     24  O   UNL d   1      -2.964 -25.473  23.625 +0.00 +0.00    -0.303    29.515
ATOM     25  H   UNL d   1      -3.630 -25.356  22.900 +0.00 -0.00    +0.222    29.515
ATOM     26  O   UNL d   1      -2.476 -25.295  26.051 +0.00 +0.00    -0.303    29.515
ATOM     27  H   UNL d   1      -2.280 -24.390  26.368 +0.00 -0.00    +0.222    29.515
ATOM     28  O   UNL d   1      -3.486 -19.638  21.247 -0.22 -0.09    -0.278    29.515
ATOM     29  P   UNL d   1      -2.027 -19.012  21.371 -0.21 +0.14    +0.473    29.515
ATOM     30  O   UNL d   1      -0.983 -19.922  21.908 -0.57 -0.07    -0.228    29.515
ATOM     31  O   UNL d   1      -1.825 -18.478  19.876 -0.78 -0.36    -0.303    29.515
ATOM     32  H   UNL d   1      -1.281 -17.657  19.907 -0.42 +0.09    +0.222    29.515
ATOM     33  O   UNL d   1      -2.306 -17.674  22.188 -0.33 -0.01    -0.303    29.515
ATOM     34  H   UNL d   1      -2.899 -17.882  22.951 +0.09 +0.02    +0.222    29.515
ATOM     35  O   UNL d   1      -1.882 -21.673  25.090 -0.02 -0.00    -0.278    29.515
ATOM     36  P   UNL d   1      -1.813 -22.112  26.622 +0.00 -0.01    +0.473    29.515
ATOM     37  O   UNL d   1      -0.750 -23.109  26.959 -0.00 +0.00    -0.228    29.515
ATOM     38  O   UNL d   1      -1.650 -20.709  27.356 -0.01 +0.01    -0.303    29.515
ATOM     39  H   UNL d   1      -0.994 -20.165  26.869 +0.03 -0.00    +0.222    29.515
ATOM     40  O   UNL d   1      -3.317 -22.530  26.924 -0.00 +0.01    -0.303    29.515
ATOM     41  H   UNL d   1      -3.517 -23.435  26.595 +0.01 -0.01    +0.222    29.515
ATOM     42  O   UNL d   1      -2.984 -19.186  24.045 -0.13 -0.01    -0.278    29.515
ATOM     43  P   UNL d   1      -1.732 -18.730  24.923 -0.14 +0.02    +0.473    29.515
ATOM     44  O   UNL d   1      -0.490 -19.546  24.822 -0.22 -0.02    -0.228    29.515
ATOM     45  O   UNL d   1      -1.546 -17.207  24.501 -0.24 -0.02    -0.303    29.515
ATOM     46  H   UNL d   1      -1.315 -17.123  23.555 +0.05 +0.01    +0.222    29.515
ATOM     47  O   UNL d   1      -2.349 -18.588  26.395 -0.10 +0.02    -0.303    29.515
ATOM     48  H   UNL d   1      -2.624 -19.472  26.716 +0.05 -0.02    +0.222    29.515
TER
ENDMDL
MODEL       57
USER    Run = 57
USER    Cluster Rank = 52
USER    Number of conformations in this cluster = 1
USER  
USER    RMSD from reference structure       = 34.291 A
USER  
USER    Estimated Free Energy of Binding    =   +3.35 kcal/mol  [=(1)+(2)+(3)-(4)]
USER    
USER    (1) Final Intermolecular Energy     =   -3.81 kcal/mol
USER        vdW + Hbond + desolv Energy     =   -2.96 kcal/mol
USER        Electrostatic Energy            =   -0.85 kcal/mol
USER    (2) Final Total Internal Energy     =  -13.78 kcal/mol
USER    (3) Torsional Free Energy           =   +7.16 kcal/mol
USER    (4) Unbound System's Energy  [=(2)] =  -13.78 kcal/mol
USER    
USER    
USER  
USER    DPF = D:/Protein_go_brrr/autodock/final/1A3N/IHP/dock.dpf
USER    NEWDPF move	IHP_ideal_opt.pdbqt
USER    NEWDPF about	0.035000 0.082000 -0.065000
USER    NEWDPF tran0	17.284280 30.614875 14.927488
USER    NEWDPF axisangle0	-0.772843 -0.261921 0.578024 -87.210920
USER    NEWDPF quaternion0	-0.533021 -0.180644 0.398656 -0.724106
USER    NEWDPF dihe0	31.05 150.66 150.13 140.20 80.76 139.50 57.04 -130.71 99.41 90.98 141.02 129.62 -27.84 64.52 127.67 -137.56 34.71 25.23 -165.23 29.16 -3.12 17.31 -166.13 -179.99 
USER  
USER                              x       y       z    vdW   Elec        q     RMS 
ATOM      1  C   UNL d   1      17.856  31.975  15.826 +0.00 -0.02    +0.194    34.291
ATOM      2  C   UNL d   1      17.649  30.691  16.631 -0.00 -0.02    +0.194    34.291
ATOM      3  C   UNL d   1      16.343  29.989  16.251 -0.03 -0.05    +0.194    34.291
ATOM      4  C   UNL d   1      16.200  29.758  14.749 -0.02 -0.04    +0.194    34.291
ATOM      5  C   UNL d   1      16.510  30.984  13.900 -0.00 -0.02    +0.194    34.291
ATOM      6  C   UNL d   1      17.783  31.722  14.320 +0.00 -0.01    +0.194    34.291
ATOM      7  O   UNL d   1      19.165  32.474  16.111 +0.00 +0.01    -0.278    34.291
ATOM      8  P   UNL d   1      20.422  31.692  15.512 +0.00 -0.01    +0.473    34.291
ATOM      9  O   UNL d   1      20.139  30.877  14.299 +0.00 +0.00    -0.228    34.291
ATOM     10  O   UNL d   1      21.506  32.836  15.262 +0.00 +0.00    -0.303    34.291
ATOM     11  H   UNL d   1      21.819  32.793  14.339 +0.00 -0.00    +0.222    34.291
ATOM     12  O   UNL d   1      21.046  30.907  16.745 +0.00 -0.00    -0.303    34.291
ATOM     13  H   UNL d   1      20.859  29.942  16.722 +0.00 +0.00    +0.222    34.291
ATOM     14  O   UNL d   1      18.739  29.798  16.374 -0.00 +0.01    -0.278    34.291
ATOM     15  P   UNL d   1      18.975  28.629  17.444 +0.01 +0.00    +0.473    34.291
ATOM     16  O   UNL d   1      18.885  27.225  16.935 -0.02 -0.01    -0.228    34.291
ATOM     17  O   UNL d   1      20.396  28.966  18.079 -0.00 -0.01    -0.303    34.291
ATOM     18  H   UNL d   1      20.418  29.878  18.428 +0.00 +0.00    +0.222    34.291
ATOM     19  O   UNL d   1      17.995  28.988  18.645 -0.01 +0.01    -0.303    34.291
ATOM     20  H   UNL d   1      17.080  28.708  18.458 +0.05 -0.02    +0.222    34.291
ATOM     21  O   UNL d   1      17.749  32.997  13.682 +0.00 +0.02    -0.278    34.291
ATOM     22  P   UNL d   1      18.697  33.282  12.431 +0.00 -0.02    +0.473    34.291
ATOM     23  O   UNL d   1      18.314  34.375  11.491 +0.00 +0.01    -0.228    34.291
ATOM     24  O   UNL d   1      20.113  33.469  13.132 +0.00 +0.01    -0.303    34.291
ATOM     25  H   UNL d   1      20.046  33.129  14.060 +0.00 -0.01    +0.222    34.291
ATOM     26  O   UNL d   1      18.836  31.819  11.789 +0.00 +0.01    -0.303    34.291
ATOM     27  H   UNL d   1      18.838  31.152  12.505 +0.00 -0.01    +0.222    34.291
ATOM     28  O   UNL d   1      16.371  28.691  16.832 -0.05 +0.06    -0.278    34.291
ATOM     29  P   UNL d   1      15.155  28.184  17.726 -0.19 -0.19    +0.473    34.291
ATOM     30  O   UNL d   1      15.437  27.002  18.581 -0.12 +0.00    -0.228    34.291
ATOM     31  O   UNL d   1      14.771  29.546  18.474 -0.16 +0.24    -0.303    34.291
ATOM     32  H   UNL d   1      13.913  29.871  18.114 -0.50 -0.42    +0.222    34.291
ATOM     33  O   UNL d   1      13.990  28.032  16.652 -0.25 +0.25    -0.303    34.291
ATOM     34  H   UNL d   1      13.695  28.932  16.368 -0.40 -0.35    +0.222    34.291
ATOM     35  O   UNL d   1      16.724  30.495  12.578 +0.00 +0.02    -0.278    34.291
ATOM     36  P   UNL d   1      17.436  29.086  12.346 +0.00 -0.01    +0.473    34.291
ATOM     37  O   UNL d   1      16.565  27.885  12.536 -0.01 +0.00    -0.228    34.291
ATOM     38  O   UNL d   1      18.012  29.250  10.871 +0.00 +0.00    -0.303    34.291
ATOM     39  H   UNL d   1      18.207  30.198  10.706 +0.00 -0.00    +0.222    34.291
ATOM     40  O   UNL d   1      18.723  29.199  13.274 -0.00 +0.00    -0.303    34.291
ATOM     41  H   UNL d   1      18.493  29.504  14.180 +0.00 -0.01    +0.222    34.291
ATOM     42  O   UNL d   1      14.830  29.416  14.511 -0.05 +0.09    -0.278    34.291
ATOM     43  P   UNL d   1      13.711  30.536  14.708 -0.07 -0.29    +0.473    34.291
ATOM     44  O   UNL d   1      13.658  31.637  13.707 -0.03 +0.07    -0.228    34.291
ATOM     45  O   UNL d   1      12.373  29.679  14.805 -0.17 +0.32    -0.303    34.291
ATOM     46  H   UNL d   1      12.348  29.146  15.625 -0.45 -0.43    +0.222    34.291
ATOM     47  O   UNL d   1      13.915  30.994  16.230 -0.04 +0.33    -0.303    34.291
ATOM     48  H   UNL d   1      13.920  30.203  16.808 -0.46 -0.38    +0.222    34.291
TER
ENDMDL
MODEL       44
USER    Run = 44
USER    Cluster Rank = 53
USER    Number of conformations in this cluster = 1
USER  
USER    RMSD from reference structure       = 28.053 A
USER  
USER    Estimated Free Energy of Binding    =   +3.42 kcal/mol  [=(1)+(2)+(3)-(4)]
USER    
USER    (1) Final Intermolecular Energy     =   -3.73 kcal/mol
USER        vdW + Hbond + desolv Energy     =   -3.43 kcal/mol
USER        Electrostatic Energy            =   -0.31 kcal/mol
USER    (2) Final Total Internal Energy     =  -14.45 kcal/mol
USER    (3) Torsional Free Energy           =   +7.16 kcal/mol
USER    (4) Unbound System's Energy  [=(2)] =  -14.45 kcal/mol
USER    
USER    
USER  
USER    DPF = D:/Protein_go_brrr/autodock/final/1A3N/IHP/dock.dpf
USER    NEWDPF move	IHP_ideal_opt.pdbqt
USER    NEWDPF about	0.035000 0.082000 -0.065000
USER    NEWDPF tran0	-11.184425 4.649829 27.912496
USER    NEWDPF axisangle0	0.189213 0.817178 0.544443 146.824812
USER    NEWDPF quaternion0	0.181339 0.783171 0.521785 0.285481
USER    NEWDPF dihe0	108.89 105.27 50.10 -7.00 -1.66 -179.35 -81.16 -58.74 47.28 55.42 -128.02 -173.98 -47.62 166.28 177.10 -163.11 -146.56 156.65 52.16 -5.52 179.33 -17.50 2.95 179.72 
USER  
USER                              x       y       z    vdW   Elec        q     RMS 
ATOM      1  C   UNL d   1     -12.872   5.015  27.845 -0.02 -0.04    +0.194    28.053
ATOM      2  C   UNL d   1     -12.282   4.379  26.585 -0.05 -0.05    +0.194    28.053
ATOM      3  C   UNL d   1     -10.925   4.988  26.225 -0.10 -0.10    +0.194    28.053
ATOM      4  C   UNL d   1      -9.937   4.986  27.389 -0.12 -0.10    +0.194    28.053
ATOM      5  C   UNL d   1     -10.519   5.506  28.697 -0.08 -0.07    +0.194    28.053
ATOM      6  C   UNL d   1     -11.903   4.943  29.026 -0.05 -0.04    +0.194    28.053
ATOM      7  O   UNL d   1     -14.043   4.280  28.209 -0.01 +0.03    -0.278    28.053
ATOM      8  P   UNL d   1     -15.337   4.407  27.282 -0.02 -0.00    +0.473    28.053
ATOM      9  O   UNL d   1     -15.156   5.228  26.053 -0.07 +0.00    -0.228    28.053
ATOM     10  O   UNL d   1     -15.742   2.895  26.973 -0.04 -0.02    -0.303    28.053
ATOM     11  H   UNL d   1     -14.955   2.400  26.678 +0.03 +0.01    +0.222    28.053
ATOM     12  O   UNL d   1     -16.501   4.870  28.259 -0.01 +0.00    -0.303    28.053
ATOM     13  H   UNL d   1     -16.317   5.731  28.698 +0.01 -0.01    +0.222    28.053
ATOM     14  O   UNL d   1     -12.107   2.974  26.808 -0.05 +0.05    -0.278    28.053
ATOM     15  P   UNL d   1     -12.780   1.990  25.739 -0.06 -0.02    +0.473    28.053
ATOM     16  O   UNL d   1     -13.464   0.775  26.282 -0.06 -0.00    -0.228    28.053
ATOM     17  O   UNL d   1     -13.761   2.932  24.909 -0.11 -0.02    -0.303    28.053
ATOM     18  H   UNL d   1     -14.280   3.508  25.502 +0.04 +0.01    +0.222    28.053
ATOM     19  O   UNL d   1     -11.629   1.712  24.677 -0.17 +0.01    -0.303    28.053
ATOM     20  H   UNL d   1     -11.398   2.516  24.176 +0.12 -0.02    +0.222    28.053
ATOM     21  O   UNL d   1     -12.445   5.761  30.061 -0.01 +0.03    -0.278    28.053
ATOM     22  P   UNL d   1     -13.036   7.200  29.706 +0.01 -0.08    +0.473    28.053
ATOM     23  O   UNL d   1     -13.019   8.250  30.765 -0.01 +0.00    -0.228    28.053
ATOM     24  O   UNL d   1     -12.226   7.568  28.387 -0.06 +0.16    -0.303    28.053
ATOM     25  H   UNL d   1     -11.276   7.703  28.636 +0.06 -0.11    +0.222    28.053
ATOM     26  O   UNL d   1     -14.478   6.822  29.114 -0.00 +0.05    -0.303    28.053
ATOM     27  H   UNL d   1     -14.632   5.862  29.231 +0.01 -0.02    +0.222    28.053
ATOM     28  O   UNL d   1     -10.336   4.162  25.228 -0.13 +0.14    -0.278    28.053
ATOM     29  P   UNL d   1     -10.540   4.494  23.684 -0.17 -0.29    +0.473    28.053
ATOM     30  O   UNL d   1      -9.714   3.696  22.742 -0.42 +0.07    -0.228    28.053
ATOM     31  O   UNL d   1     -12.129   4.334  23.572 -0.15 +0.07    -0.303    28.053
ATOM     32  H   UNL d   1     -12.425   3.670  24.237 +0.10 -0.03    +0.222    28.053
ATOM     33  O   UNL d   1     -10.343   6.074  23.653 -0.16 +0.46    -0.303    28.053
ATOM     34  H   UNL d   1     -10.150   6.391  24.569 +0.03 -0.36    +0.222    28.053
ATOM     35  O   UNL d   1      -9.630   5.060  29.720 -0.11 +0.08    -0.278    28.053
ATOM     36  P   UNL d   1      -9.140   6.067  30.855 -0.10 +0.04    +0.473    28.053
ATOM     37  O   UNL d   1      -7.755   6.606  30.684 -0.21 -0.02    -0.228    28.053
ATOM     38  O   UNL d   1     -10.282   7.176  30.823 -0.06 -0.07    -0.303    28.053
ATOM     39  H   UNL d   1     -10.723   7.157  29.946 +0.06 -0.02    +0.222    28.053
ATOM     40  O   UNL d   1      -9.437   5.249  32.187 -0.20 -0.08    -0.303    28.053
ATOM     41  H   UNL d   1      -9.621   4.302  31.999 +0.05 -0.01    +0.222    28.053
ATOM     42  O   UNL d   1      -8.867   5.864  27.025 -0.18 +0.21    -0.278    28.053
ATOM     43  P   UNL d   1      -9.154   7.430  26.926 -0.16 -0.45    +0.473    28.053
ATOM     44  O   UNL d   1      -8.233   8.245  26.085 -0.30 +0.30    -0.228    28.053
ATOM     45  O   UNL d   1     -10.674   7.477  26.459 -0.15 +0.38    -0.303    28.053
ATOM     46  H   UNL d   1     -11.087   8.339  26.668 -0.31 -0.45    +0.222    28.053
ATOM     47  O   UNL d   1      -9.270   7.880  28.460 -0.15 +0.14    -0.303    28.053
ATOM     48  H   UNL d   1      -9.060   7.116  29.037 +0.11 -0.06    +0.222    28.053
TER
ENDMDL
MODEL       94
USER    Run = 94
USER    Cluster Rank = 54
USER    Number of conformations in this cluster = 1
USER  
USER    RMSD from reference structure       = 28.423 A
USER  
USER    Estimated Free Energy of Binding    =   +3.43 kcal/mol  [=(1)+(2)+(3)-(4)]
USER    
USER    (1) Final Intermolecular Energy     =   -3.73 kcal/mol
USER        vdW + Hbond + desolv Energy     =   -3.64 kcal/mol
USER        Electrostatic Energy            =   -0.08 kcal/mol
USER    (2) Final Total Internal Energy     =  -13.10 kcal/mol
USER    (3) Torsional Free Energy           =   +7.16 kcal/mol
USER    (4) Unbound System's Energy  [=(2)] =  -13.10 kcal/mol
USER    
USER    
USER  
USER    DPF = D:/Protein_go_brrr/autodock/final/1A3N/IHP/dock.dpf
USER    NEWDPF move	IHP_ideal_opt.pdbqt
USER    NEWDPF about	0.035000 0.082000 -0.065000
USER    NEWDPF tran0	6.130163 -17.432829 26.156447
USER    NEWDPF axisangle0	-0.177599 0.409680 -0.894774 -153.056413
USER    NEWDPF quaternion0	-0.172712 0.398408 -0.870154 -0.232967
USER    NEWDPF dihe0	87.17 -58.77 74.02 81.47 71.06 177.92 71.35 41.56 -5.86 94.85 -103.64 -168.27 153.82 -62.94 175.08 73.31 -83.91 153.86 -144.27 -11.34 34.38 149.81 -177.17 -164.64 
USER  
USER                              x       y       z    vdW   Elec        q     RMS 
ATOM      1  C   UNL d   1       5.235 -18.088  27.480 -0.02 +0.04    +0.194    28.423
ATOM      2  C   UNL d   1       5.878 -16.723  27.729 -0.05 +0.07    +0.194    28.423
ATOM      3  C   UNL d   1       7.306 -16.661  27.183 -0.09 +0.15    +0.194    28.423
ATOM      4  C   UNL d   1       7.409 -17.091  25.721 -0.12 +0.08    +0.194    28.423
ATOM      5  C   UNL d   1       6.683 -18.391  25.403 -0.04 +0.05    +0.194    28.423
ATOM      6  C   UNL d   1       5.278 -18.478  26.002 -0.03 +0.03    +0.194    28.423
ATOM      7  O   UNL d   1       3.859 -18.009  27.860 -0.01 -0.03    -0.278    28.423
ATOM      8  P   UNL d   1       2.781 -17.645  26.738 -0.04 +0.03    +0.473    28.423
ATOM      9  O   UNL d   1       1.533 -17.011  27.244 -0.06 -0.00    -0.228    28.423
ATOM     10  O   UNL d   1       3.585 -16.722  25.715 -0.09 -0.02    -0.303    28.423
ATOM     11  H   UNL d   1       3.766 -15.857  26.129 +0.05 +0.02    +0.222    28.423
ATOM     12  O   UNL d   1       2.590 -18.982  25.900 -0.08 -0.02    -0.303    28.423
ATOM     13  H   UNL d   1       3.045 -18.958  25.028 +0.03 +0.01    +0.222    28.423
ATOM     14  O   UNL d   1       5.096 -15.713  27.079 -0.03 -0.06    -0.278    28.423
ATOM     15  P   UNL d   1       4.482 -14.569  28.017 +0.01 +0.06    +0.473    28.423
ATOM     16  O   UNL d   1       4.636 -14.756  29.493 -0.03 -0.02    -0.228    28.423
ATOM     17  O   UNL d   1       5.164 -13.229  27.490 -0.07 -0.03    -0.303    28.423
ATOM     18  H   UNL d   1       5.993 -13.421  27.011 +0.09 +0.03    +0.222    28.423
ATOM     19  O   UNL d   1       2.988 -14.392  27.500 -0.02 -0.02    -0.303    28.423
ATOM     20  H   UNL d   1       2.676 -15.183  27.022 +0.04 +0.01    +0.222    28.423
ATOM     21  O   UNL d   1       4.877 -19.844  25.918 -0.01 -0.03    -0.278    28.423
ATOM     22  P   UNL d   1       4.602 -20.502  24.491 -0.03 +0.05    +0.473    28.423
ATOM     23  O   UNL d   1       3.675 -21.668  24.420 -0.02 -0.01    -0.228    28.423
ATOM     24  O   UNL d   1       4.153 -19.239  23.632 -0.13 -0.03    -0.303    28.423
ATOM     25  H   UNL d   1       4.253 -18.431  24.196 +0.03 +0.02    +0.222    28.423
ATOM     26  O   UNL d   1       6.092 -20.753  23.955 -0.01 -0.04    -0.303    28.423
ATOM     27  H   UNL d   1       6.731 -20.502  24.653 +0.02 +0.04    +0.222    28.423
ATOM     28  O   UNL d   1       7.715 -15.300  27.206 -0.70 -0.31    -0.278    28.423
ATOM     29  P   UNL d   1       7.662 -14.421  25.879 -0.21 +0.16    +0.473    28.423
ATOM     30  O   UNL d   1       6.398 -14.509  25.103 -0.10 -0.05    -0.228    28.423
ATOM     31  O   UNL d   1       8.049 -12.988  26.477 -0.34 -0.02    -0.303    28.423
ATOM     32  H   UNL d   1       8.843 -12.653  26.001 -0.47 -0.05    +0.222    28.423
ATOM     33  O   UNL d   1       8.997 -14.863  25.132 -0.25 -0.07    -0.303    28.423
ATOM     34  H   UNL d   1       8.769 -15.515  24.425 +0.06 +0.06    +0.222    28.423
ATOM     35  O   UNL d   1       6.537 -18.416  23.985 -0.04 -0.06    -0.278    28.423
ATOM     36  P   UNL d   1       6.018 -17.125  23.206 -0.10 +0.11    +0.473    28.423
ATOM     37  O   UNL d   1       4.923 -16.361  23.882 -0.17 -0.03    -0.228    28.423
ATOM     38  O   UNL d   1       7.365 -16.299  23.008 -0.12 -0.10    -0.303    28.423
ATOM     39  H   UNL d   1       7.612 -15.878  23.860 +0.08 +0.06    +0.222    28.423
ATOM     40  O   UNL d   1       5.707 -17.703  21.758 -0.12 -0.09    -0.303    28.423
ATOM     41  H   UNL d   1       5.110 -18.483  21.797 +0.04 +0.05    +0.222    28.423
ATOM     42  O   UNL d   1       8.798 -17.307  25.450 -0.18 -0.14    -0.278    28.423
ATOM     43  P   UNL d   1       9.445 -18.718  25.817 -0.07 +0.21    +0.473    28.423
ATOM     44  O   UNL d   1      10.927 -18.780  25.950 -0.18 -0.10    -0.228    28.423
ATOM     45  O   UNL d   1       8.655 -19.133  27.134 -0.07 -0.14    -0.303    28.423
ATOM     46  H   UNL d   1       8.992 -19.973  27.505 +0.03 +0.07    +0.222    28.423
ATOM     47  O   UNL d   1       8.807 -19.707  24.729 -0.04 -0.08    -0.303    28.423
ATOM     48  H   UNL d   1       8.345 -19.180  24.044 +0.05 +0.07    +0.222    28.423
TER
ENDMDL
MODEL       55
USER    Run = 55
USER    Cluster Rank = 55
USER    Number of conformations in this cluster = 1
USER  
USER    RMSD from reference structure       = 50.707 A
USER  
USER    Estimated Free Energy of Binding    =   +3.44 kcal/mol  [=(1)+(2)+(3)-(4)]
USER    
USER    (1) Final Intermolecular Energy     =   -3.72 kcal/mol
USER        vdW + Hbond + desolv Energy     =   -3.43 kcal/mol
USER        Electrostatic Energy            =   -0.29 kcal/mol
USER    (2) Final Total Internal Energy     =  -13.62 kcal/mol
USER    (3) Torsional Free Energy           =   +7.16 kcal/mol
USER    (4) Unbound System's Energy  [=(2)] =  -13.62 kcal/mol
USER    
USER    
USER  
USER    DPF = D:/Protein_go_brrr/autodock/final/1A3N/IHP/dock.dpf
USER    NEWDPF move	IHP_ideal_opt.pdbqt
USER    NEWDPF about	0.035000 0.082000 -0.065000
USER    NEWDPF tran0	36.858321 -3.929484 40.130812
USER    NEWDPF axisangle0	0.500651 0.329200 0.800610 -89.868063
USER    NEWDPF quaternion0	0.353606 0.232511 0.565464 -0.707920
USER    NEWDPF dihe0	-111.53 22.90 120.16 27.23 107.96 163.54 103.27 -3.71 -1.57 108.08 10.12 163.67 -180.00 41.08 -143.82 -179.87 -22.07 -179.94 62.87 16.07 -43.95 23.12 142.44 -18.66 
USER  
USER                              x       y       z    vdW   Elec        q     RMS 
ATOM      1  C   UNL d   1      38.316  -3.006  40.049 -0.09 +0.05    +0.194    50.707
ATOM      2  C   UNL d   1      38.244  -4.212  39.110 -0.08 +0.07    +0.194    50.707
ATOM      3  C   UNL d   1      37.660  -5.441  39.810 -0.03 +0.07    +0.194    50.707
ATOM      4  C   UNL d   1      36.326  -5.164  40.498 -0.04 +0.05    +0.194    50.707
ATOM      5  C   UNL d   1      36.319  -3.905  41.356 -0.04 +0.05    +0.194    50.707
ATOM      6  C   UNL d   1      36.958  -2.691  40.678 -0.10 +0.06    +0.194    50.707
ATOM      7  O   UNL d   1      38.705  -1.865  39.281 -0.10 -0.09    -0.278    50.707
ATOM      8  P   UNL d   1      40.106  -1.908  38.514 +0.03 +0.16    +0.473    50.707
ATOM      9  O   UNL d   1      40.999  -0.744  38.767 -0.10 -0.06    -0.228    50.707
ATOM     10  O   UNL d   1      40.747  -3.299  38.958 -0.02 -0.09    -0.303    50.707
ATOM     11  H   UNL d   1      40.483  -3.996  38.328 +0.04 +0.09    +0.222    50.707
ATOM     12  O   UNL d   1      39.736  -2.181  36.993 -0.13 -0.14    -0.303    50.707
ATOM     13  H   UNL d   1      38.854  -2.602  36.881 +0.07 +0.11    +0.222    50.707
ATOM     14  O   UNL d   1      37.409  -3.884  37.992 -0.18 -0.12    -0.278    50.707
ATOM     15  P   UNL d   1      37.786  -4.564  36.593 -0.19 +0.40    +0.473    50.707
ATOM     16  O   UNL d   1      37.038  -5.807  36.226 -0.61 -0.30    -0.228    50.707
ATOM     17  O   UNL d   1      37.597  -3.393  35.529 -0.34 -0.16    -0.303    50.707
ATOM     18  H   UNL d   1      37.688  -2.517  35.951 -0.38 +0.07    +0.222    50.707
ATOM     19  O   UNL d   1      39.370  -4.704  36.635 -0.12 -0.32    -0.303    50.707
ATOM     20  H   UNL d   1      39.784  -3.978  37.137 +0.06 +0.14    +0.222    50.707
ATOM     21  O   UNL d   1      37.185  -1.722  41.699 -0.05 -0.08    -0.278    50.707
ATOM     22  P   UNL d   1      37.062  -0.168  41.357 -0.12 +0.18    +0.473    50.707
ATOM     23  O   UNL d   1      38.296   0.667  41.417 -0.10 -0.07    -0.228    50.707
ATOM     24  O   UNL d   1      36.349  -0.204  39.934 -0.22 -0.14    -0.303    50.707
ATOM     25  H   UNL d   1      35.639  -0.895  39.962 +0.08 +0.10    +0.222    50.707
ATOM     26  O   UNL d   1      35.860   0.282  42.318 -0.10 -0.17    -0.303    50.707
ATOM     27  H   UNL d   1      35.439  -0.514  42.701 +0.04 +0.12    +0.222    50.707
ATOM     28  O   UNL d   1      37.375  -6.409  38.808 -0.06 -0.14    -0.278    50.707
ATOM     29  P   UNL d   1      37.807  -7.928  39.012 -0.02 +0.21    +0.473    50.707
ATOM     30  O   UNL d   1      36.995  -8.930  38.273 -0.04 -0.10    -0.228    50.707
ATOM     31  O   UNL d   1      39.359  -7.830  38.633 -0.03 -0.18    -0.303    50.707
ATOM     32  H   UNL d   1      39.838  -8.564  39.083 +0.01 +0.08    +0.222    50.707
ATOM     33  O   UNL d   1      37.839  -8.057  40.598 +0.00 -0.07    -0.303    50.707
ATOM     34  H   UNL d   1      36.961  -7.785  40.961 +0.01 +0.05    +0.222    50.707
ATOM     35  O   UNL d   1      34.945  -3.590  41.570 -0.03 -0.09    -0.278    50.707
ATOM     36  P   UNL d   1      34.149  -2.697  40.515 -0.12 +0.19    +0.473    50.707
ATOM     37  O   UNL d   1      34.721  -2.669  39.133 -0.29 -0.08    -0.228    50.707
ATOM     38  O   UNL d   1      32.684  -3.313  40.604 -0.08 -0.13    -0.303    50.707
ATOM     39  H   UNL d   1      32.683  -4.201  40.186 +0.06 +0.09    +0.222    50.707
ATOM     40  O   UNL d   1      34.026  -1.304  41.274 -0.11 -0.20    -0.303    50.707
ATOM     41  H   UNL d   1      34.903  -0.877  41.396 +0.06 +0.14    +0.222    50.707
ATOM     42  O   UNL d   1      36.073  -6.270  41.372 -0.00 -0.06    -0.278    50.707
ATOM     43  P   UNL d   1      34.654  -6.996  41.305 +0.01 +0.12    +0.473    50.707
ATOM     44  O   UNL d   1      33.974  -7.295  42.597 -0.00 -0.05    -0.228    50.707
ATOM     45  O   UNL d   1      33.822  -6.048  40.336 -0.03 -0.10    -0.303    50.707
ATOM     46  H   UNL d   1      33.712  -5.154  40.717 +0.04 +0.07    +0.222    50.707
ATOM     47  O   UNL d   1      34.935  -8.262  40.362 -0.00 -0.08    -0.303    50.707
ATOM     48  H   UNL d   1      35.767  -8.117  39.867 +0.02 +0.06    +0.222    50.707
TER
ENDMDL
MODEL        6
USER    Run = 6
USER    Cluster Rank = 56
USER    Number of conformations in this cluster = 1
USER  
USER    RMSD from reference structure       = 39.627 A
USER  
USER    Estimated Free Energy of Binding    =   +3.48 kcal/mol  [=(1)+(2)+(3)-(4)]
USER    
USER    (1) Final Intermolecular Energy     =   -3.68 kcal/mol
USER        vdW + Hbond + desolv Energy     =   -3.50 kcal/mol
USER        Electrostatic Energy            =   -0.19 kcal/mol
USER    (2) Final Total Internal Energy     =  -14.00 kcal/mol
USER    (3) Torsional Free Energy           =   +7.16 kcal/mol
USER    (4) Unbound System's Energy  [=(2)] =  -14.00 kcal/mol
USER    
USER    
USER  
USER    DPF = D:/Protein_go_brrr/autodock/final/1A3N/IHP/dock.dpf
USER    NEWDPF move	IHP_ideal_opt.pdbqt
USER    NEWDPF about	0.035000 0.082000 -0.065000
USER    NEWDPF tran0	0.657805 14.608302 38.294062
USER    NEWDPF axisangle0	-0.360396 -0.929466 -0.078783 172.297682
USER    NEWDPF quaternion0	-0.359582 -0.927368 -0.078605 0.067165
USER    NEWDPF dihe0	99.32 88.76 25.56 128.25 93.78 118.38 -97.75 19.28 72.78 121.30 -179.05 -137.17 143.62 -179.73 -121.93 19.29 83.75 55.82 -2.92 -45.68 -21.27 170.78 15.32 -25.71 
USER  
USER                              x       y       z    vdW   Elec        q     RMS 
ATOM      1  C   UNL d   1      -0.699  14.887  37.262 -0.10 +0.10    +0.194    39.627
ATOM      2  C   UNL d   1      -0.380  13.419  37.552 -0.01 +0.09    +0.194    39.627
ATOM      3  C   UNL d   1       1.123  13.142  37.480 -0.22 +0.11    +0.194    39.627
ATOM      4  C   UNL d   1       1.952  14.093  38.338 -0.10 +0.14    +0.194    39.627
ATOM      5  C   UNL d   1       1.588  15.562  38.166 -0.08 +0.13    +0.194    39.627
ATOM      6  C   UNL d   1       0.082  15.832  38.176 -0.06 +0.09    +0.194    39.627
ATOM      7  O   UNL d   1      -2.090  15.100  37.518 -0.08 -0.14    -0.278    39.627
ATOM      8  P   UNL d   1      -2.987  15.729  36.356 -0.12 +0.44    +0.473    39.627
ATOM      9  O   UNL d   1      -4.313  16.246  36.793 -0.67 -0.30    -0.228    39.627
ATOM     10  O   UNL d   1      -2.055  16.853  35.713 -0.17 -0.19    -0.303    39.627
ATOM     11  H   UNL d   1      -1.802  17.499  36.399 +0.06 +0.10    +0.222    39.627
ATOM     12  O   UNL d   1      -3.016  14.626  35.212 -0.23 -0.35    -0.303    39.627
ATOM     13  H   UNL d   1      -3.153  13.716  35.558 +0.12 +0.21    +0.222    39.627
ATOM     14  O   UNL d   1      -0.842  13.092  38.869 -0.08 -0.09    -0.278    39.627
ATOM     15  P   UNL d   1      -2.373  12.642  38.999 -0.09 +0.13    +0.473    39.627
ATOM     16  O   UNL d   1      -3.223  13.421  39.954 -0.03 -0.06    -0.228    39.627
ATOM     17  O   UNL d   1      -2.920  12.692  37.504 -0.20 -0.12    -0.303    39.627
ATOM     18  H   UNL d   1      -2.994  13.613  37.187 +0.09 +0.13    +0.222    39.627
ATOM     19  O   UNL d   1      -2.305  11.075  39.262 -0.13 -0.06    -0.303    39.627
ATOM     20  H   UNL d   1      -1.929  10.873  40.139 +0.06 +0.05    +0.222    39.627
ATOM     21  O   UNL d   1      -0.105  17.152  37.671 -0.04 -0.11    -0.278    39.627
ATOM     22  P   UNL d   1      -0.883  18.233  38.548 +0.01 +0.12    +0.473    39.627
ATOM     23  O   UNL d   1      -2.356  18.368  38.356 -0.01 -0.06    -0.228    39.627
ATOM     24  O   UNL d   1      -0.435  17.839  40.023 +0.00 -0.07    -0.303    39.627
ATOM     25  H   UNL d   1       0.458  17.413  39.971 +0.01 +0.06    +0.222    39.627
ATOM     26  O   UNL d   1      -0.016  19.555  38.280 -0.00 -0.06    -0.303    39.627
ATOM     27  H   UNL d   1       0.918  19.380  38.516 +0.01 +0.05    +0.222    39.627
ATOM     28  O   UNL d   1       1.346  11.848  38.027 -0.19 -0.12    -0.278    39.627
ATOM     29  P   UNL d   1       1.366  11.635  39.605 -0.06 +0.15    +0.473    39.627
ATOM     30  O   UNL d   1       1.294  12.875  40.420 -0.02 -0.07    -0.228    39.627
ATOM     31  O   UNL d   1       0.161  10.593  39.761 -0.18 -0.08    -0.303    39.627
ATOM     32  H   UNL d   1      -0.601  10.912  39.225 +0.07 +0.05    +0.222    39.627
ATOM     33  O   UNL d   1       2.652  10.717  39.802 -0.10 -0.11    -0.303    39.627
ATOM     34  H   UNL d   1       3.461  11.283  39.751 +0.07 +0.08    +0.222    39.627
ATOM     35  O   UNL d   1       2.142  16.234  39.295 -0.03 -0.14    -0.278    39.627
ATOM     36  P   UNL d   1       2.702  17.721  39.152 -0.02 +0.21    +0.473    39.627
ATOM     37  O   UNL d   1       2.173  18.707  40.144 -0.00 -0.06    -0.228    39.627
ATOM     38  O   UNL d   1       4.275  17.487  39.235 -0.03 -0.17    -0.303    39.627
ATOM     39  H   UNL d   1       4.453  16.525  39.304 +0.01 +0.16    +0.222    39.627
ATOM     40  O   UNL d   1       2.443  18.035  37.614 -0.06 -0.18    -0.303    39.627
ATOM     41  H   UNL d   1       1.507  18.283  37.445 +0.03 +0.10    +0.222    39.627
ATOM     42  O   UNL d   1       3.314  13.946  37.923 -0.43 -0.38    -0.278    39.627
ATOM     43  P   UNL d   1       4.456  13.870  39.034 -0.02 +0.42    +0.473    39.627
ATOM     44  O   UNL d   1       5.004  12.525  39.365 -0.04 -0.13    -0.228    39.627
ATOM     45  O   UNL d   1       5.541  14.900  38.491 -0.41 -0.42    -0.303    39.627
ATOM     46  H   UNL d   1       5.562  15.716  39.030 +0.01 +0.20    +0.222    39.627
ATOM     47  O   UNL d   1       3.824  14.681  40.264 -0.01 -0.15    -0.303    39.627
ATOM     48  H   UNL d   1       2.880  14.439  40.360 +0.02 +0.09    +0.222    39.627
TER
ENDMDL
MODEL       22
USER    Run = 22
USER    Cluster Rank = 57
USER    Number of conformations in this cluster = 1
USER  
USER    RMSD from reference structure       = 22.024 A
USER  
USER    Estimated Free Energy of Binding    =   +3.49 kcal/mol  [=(1)+(2)+(3)-(4)]
USER    
USER    (1) Final Intermolecular Energy     =   -3.67 kcal/mol
USER        vdW + Hbond + desolv Energy     =   -3.46 kcal/mol
USER        Electrostatic Energy            =   -0.21 kcal/mol
USER    (2) Final Total Internal Energy     =  -14.90 kcal/mol
USER    (3) Torsional Free Energy           =   +7.16 kcal/mol
USER    (4) Unbound System's Energy  [=(2)] =  -14.90 kcal/mol
USER    
USER    
USER  
USER    DPF = D:/Protein_go_brrr/autodock/final/1A3N/IHP/dock.dpf
USER    NEWDPF move	IHP_ideal_opt.pdbqt
USER    NEWDPF about	0.035000 0.082000 -0.065000
USER    NEWDPF tran0	-11.052864 -18.086268 13.753995
USER    NEWDPF axisangle0	0.173918 0.894003 -0.412931 -165.110594
USER    NEWDPF quaternion0	0.172452 0.886466 -0.409450 -0.129569
USER    NEWDPF dihe0	127.47 57.57 150.97 -9.73 -51.31 168.38 -93.05 -34.50 161.85 -24.43 150.61 160.76 153.52 -179.77 19.89 14.84 56.86 51.20 50.50 9.64 162.80 2.50 -19.62 -13.38 
USER  
USER                              x       y       z    vdW   Elec        q     RMS 
ATOM      1  C   UNL d   1     -12.485 -18.983  13.395 -0.04 -0.01    +0.194    22.024
ATOM      2  C   UNL d   1     -11.717 -19.435  14.638 -0.03 -0.01    +0.194    22.024
ATOM      3  C   UNL d   1     -10.207 -19.468  14.391 -0.04 -0.01    +0.194    22.024
ATOM      4  C   UNL d   1      -9.662 -18.162  13.818 -0.12 -0.02    +0.194    22.024
ATOM      5  C   UNL d   1     -10.467 -17.614  12.647 -0.12 -0.03    +0.194    22.024
ATOM      6  C   UNL d   1     -11.981 -17.638  12.870 -0.06 -0.02    +0.194    22.024
ATOM      7  O   UNL d   1     -13.858 -18.812  13.756 -0.02 +0.01    -0.278    22.024
ATOM      8  P   UNL d   1     -14.736 -20.116  14.040 -0.00 -0.02    +0.473    22.024
ATOM      9  O   UNL d   1     -16.200 -19.949  13.832 -0.00 +0.01    -0.228    22.024
ATOM     10  O   UNL d   1     -14.091 -21.230  13.097 -0.00 +0.01    -0.303    22.024
ATOM     11  H   UNL d   1     -13.720 -20.808  12.299 +0.00 -0.01    +0.222    22.024
ATOM     12  O   UNL d   1     -14.292 -20.607  15.485 -0.00 +0.01    -0.303    22.024
ATOM     13  H   UNL d   1     -13.752 -19.941  15.969 +0.01 -0.01    +0.222    22.024
ATOM     14  O   UNL d   1     -11.983 -18.520  15.709 -0.04 +0.02    -0.278    22.024
ATOM     15  P   UNL d   1     -12.153 -19.157  17.169 -0.00 -0.03    +0.473    22.024
ATOM     16  O   UNL d   1     -13.427 -18.849  17.892 -0.02 +0.02    -0.228    22.024
ATOM     17  O   UNL d   1     -11.937 -20.719  16.938 -0.00 +0.01    -0.303    22.024
ATOM     18  H   UNL d   1     -11.081 -20.894  16.501 +0.01 -0.01    +0.222    22.024
ATOM     19  O   UNL d   1     -10.817 -18.759  17.933 -0.04 +0.02    -0.303    22.024
ATOM     20  H   UNL d   1     -10.043 -19.234  17.577 +0.05 -0.01    +0.222    22.024
ATOM     21  O   UNL d   1     -12.589 -17.431  11.598 -0.05 +0.02    -0.278    22.024
ATOM     22  P   UNL d   1     -12.318 -18.465  10.413 -0.01 -0.04    +0.473    22.024
ATOM     23  O   UNL d   1     -12.499 -19.919  10.692 -0.01 +0.02    -0.228    22.024
ATOM     24  O   UNL d   1     -13.247 -17.886   9.257 -0.01 +0.03    -0.303    22.024
ATOM     25  H   UNL d   1     -13.931 -18.570   9.041 +0.01 -0.02    +0.222    22.024
ATOM     26  O   UNL d   1     -10.859 -18.019   9.919 -0.07 +0.03    -0.303    22.024
ATOM     27  H   UNL d   1     -10.591 -17.209  10.399 +0.06 -0.03    +0.222    22.024
ATOM     28  O   UNL d   1      -9.570 -19.622  15.652 -0.02 +0.01    -0.278    22.024
ATOM     29  P   UNL d   1      -8.776 -20.960  15.994 +0.01 -0.01    +0.473    22.024
ATOM     30  O   UNL d   1      -8.973 -22.083  15.042 -0.00 +0.01    -0.228    22.024
ATOM     31  O   UNL d   1      -7.292 -20.377  16.133 -0.05 -0.02    -0.303    22.024
ATOM     32  H   UNL d   1      -7.146 -19.718  15.415 +0.07 +0.02    +0.222    22.024
ATOM     33  O   UNL d   1      -9.195 -21.219  17.509 -0.00 +0.00    -0.303    22.024
ATOM     34  H   UNL d   1     -10.064 -20.782  17.681 +0.03 -0.01    +0.222    22.024
ATOM     35  O   UNL d   1     -10.083 -16.247  12.519 +0.00 +0.10    -0.278    22.024
ATOM     36  P   UNL d   1      -9.232 -15.765  11.259 -0.19 -0.15    +0.473    22.024
ATOM     37  O   UNL d   1     -10.008 -15.071  10.184 -0.26 +0.05    -0.228    22.024
ATOM     38  O   UNL d   1      -8.115 -14.862  11.946 -0.28 +0.12    -0.303    22.024
ATOM     39  H   UNL d   1      -7.330 -15.417  12.144 -0.30 -0.12    +0.222    22.024
ATOM     40  O   UNL d   1      -8.454 -17.090  10.847 -0.01 +0.09    -0.303    22.024
ATOM     41  H   UNL d   1      -7.810 -17.363  11.537 -0.20 -0.07    +0.222    22.024
ATOM     42  O   UNL d   1      -8.346 -18.441  13.330 -0.10 +0.03    -0.278    22.024
ATOM     43  P   UNL d   1      -7.123 -17.569  13.869 -0.20 -0.01    +0.473    22.024
ATOM     44  O   UNL d   1      -6.316 -18.134  14.986 -0.20 -0.05    -0.228    22.024
ATOM     45  O   UNL d   1      -6.289 -17.281  12.545 -0.33 +0.06    -0.303    22.024
ATOM     46  H   UNL d   1      -6.703 -16.576  12.008 -0.43 -0.14    +0.222    22.024
ATOM     47  O   UNL d   1      -7.790 -16.139  14.152 -0.26 +0.03    -0.303    22.024
ATOM     48  H   UNL d   1      -8.624 -16.066  13.644 -0.20 -0.08    +0.222    22.024
TER
ENDMDL
MODEL       31
USER    Run = 31
USER    Cluster Rank = 58
USER    Number of conformations in this cluster = 1
USER  
USER    RMSD from reference structure       = 53.236 A
USER  
USER    Estimated Free Energy of Binding    =   +3.49 kcal/mol  [=(1)+(2)+(3)-(4)]
USER    
USER    (1) Final Intermolecular Energy     =   -3.67 kcal/mol
USER        vdW + Hbond + desolv Energy     =   -3.20 kcal/mol
USER        Electrostatic Energy            =   -0.46 kcal/mol
USER    (2) Final Total Internal Energy     =  -12.74 kcal/mol
USER    (3) Torsional Free Energy           =   +7.16 kcal/mol
USER    (4) Unbound System's Energy  [=(2)] =  -12.74 kcal/mol
USER    
USER    
USER  
USER    DPF = D:/Protein_go_brrr/autodock/final/1A3N/IHP/dock.dpf
USER    NEWDPF move	IHP_ideal_opt.pdbqt
USER    NEWDPF about	0.035000 0.082000 -0.065000
USER    NEWDPF tran0	42.662779 -2.224483 37.506559
USER    NEWDPF axisangle0	0.114756 0.881122 0.458755 -111.669762
USER    NEWDPF quaternion0	0.094951 0.729060 0.379584 -0.561580
USER    NEWDPF dihe0	86.82 78.89 111.48 87.63 -152.82 -132.49 -28.43 -173.24 164.47 -22.23 172.86 159.30 -8.08 97.05 2.58 120.30 114.59 -135.12 47.53 -6.96 -53.20 -16.34 -45.11 164.99 
USER  
USER                              x       y       z    vdW   Elec        q     RMS 
ATOM      1  C   UNL d   1      43.183  -1.779  35.921 -0.03 +0.08    +0.194    53.236
ATOM      2  C   UNL d   1      43.524  -3.207  36.352 -0.00 +0.06    +0.194    53.236
ATOM      3  C   UNL d   1      44.035  -3.257  37.793 +0.00 +0.04    +0.194    53.236
ATOM      4  C   UNL d   1      43.106  -2.561  38.785 -0.01 +0.04    +0.194    53.236
ATOM      5  C   UNL d   1      42.648  -1.177  38.340 -0.03 +0.04    +0.194    53.236
ATOM      6  C   UNL d   1      42.195  -1.115  36.880 -0.07 +0.07    +0.194    53.236
ATOM      7  O   UNL d   1      42.556  -1.839  34.637 -0.08 -0.21    -0.278    53.236
ATOM      8  P   UNL d   1      43.470  -2.123  33.358 -0.03 +0.41    +0.473    53.236
ATOM      9  O   UNL d   1      44.487  -3.196  33.535 -0.01 -0.09    -0.228    53.236
ATOM     10  O   UNL d   1      42.423  -2.435  32.196 -0.36 -0.49    -0.303    53.236
ATOM     11  H   UNL d   1      42.008  -3.303  32.355 +0.05 +0.22    +0.222    53.236
ATOM     12  O   UNL d   1      44.031  -0.700  32.927 -0.06 -0.33    -0.303    53.236
ATOM     13  H   UNL d   1      44.190  -0.101  33.691 +0.02 +0.17    +0.222    53.236
ATOM     14  O   UNL d   1      42.346  -4.018  36.257 -0.02 -0.14    -0.278    53.236
ATOM     15  P   UNL d   1      42.456  -5.337  35.356 -0.02 +0.32    +0.473    53.236
ATOM     16  O   UNL d   1      41.553  -6.475  35.718 -0.47 -0.33    -0.228    53.236
ATOM     17  O   UNL d   1      42.225  -4.813  33.870 -0.08 -0.21    -0.303    53.236
ATOM     18  H   UNL d   1      42.322  -3.843  33.820 +0.05 +0.15    +0.222    53.236
ATOM     19  O   UNL d   1      44.010  -5.676  35.337 +0.00 -0.10    -0.303    53.236
ATOM     20  H   UNL d   1      44.459  -5.355  36.141 +0.01 +0.05    +0.222    53.236
ATOM     21  O   UNL d   1      42.133   0.265  36.527 -0.09 -0.10    -0.278    53.236
ATOM     22  P   UNL d   1      41.179   0.736  35.338 -0.22 +0.29    +0.473    53.236
ATOM     23  O   UNL d   1      39.903  -0.007  35.122 -0.33 -0.16    -0.228    53.236
ATOM     24  O   UNL d   1      41.002   2.286  35.657 -0.21 -0.05    -0.303    53.236
ATOM     25  H   UNL d   1      41.011   2.780  34.798 -0.48 -0.01    +0.222    53.236
ATOM     26  O   UNL d   1      42.194   0.767  34.098 -0.66 -0.44    -0.303    53.236
ATOM     27  H   UNL d   1      42.644  -0.100  34.029 +0.04 +0.33    +0.222    53.236
ATOM     28  O   UNL d   1      44.059  -4.621  38.192 +0.00 -0.05    -0.278    53.236
ATOM     29  P   UNL d   1      45.394  -5.478  38.051 +0.01 +0.06    +0.473    53.236
ATOM     30  O   UNL d   1      46.249  -5.536  39.264 +0.00 -0.02    -0.228    53.236
ATOM     31  O   UNL d   1      44.784  -6.861  37.525 +0.00 -0.05    -0.303    53.236
ATOM     32  H   UNL d   1      43.913  -6.679  37.101 +0.01 +0.06    +0.222    53.236
ATOM     33  O   UNL d   1      46.049  -4.860  36.738 +0.00 -0.04    -0.303    53.236
ATOM     34  H   UNL d   1      46.059  -5.549  36.029 +0.00 +0.03    +0.222    53.236
ATOM     35  O   UNL d   1      41.512  -0.868  39.146 -0.06 -0.06    -0.278    53.236
ATOM     36  P   UNL d   1      41.703  -0.216  40.589 -0.03 +0.07    +0.473    53.236
ATOM     37  O   UNL d   1      40.511   0.505  41.133 -0.06 -0.04    -0.228    53.236
ATOM     38  O   UNL d   1      42.161  -1.471  41.456 -0.01 -0.04    -0.303    53.236
ATOM     39  H   UNL d   1      43.142  -1.498  41.488 +0.00 +0.02    +0.222    53.236
ATOM     40  O   UNL d   1      43.037   0.631  40.405 -0.01 -0.04    -0.303    53.236
ATOM     41  H   UNL d   1      43.810   0.055  40.215 +0.01 +0.02    +0.222    53.236
ATOM     42  O   UNL d   1      43.847  -2.389  39.997 -0.00 -0.04    -0.278    53.236
ATOM     43  P   UNL d   1      45.262  -1.655  39.939 -0.00 +0.04    +0.473    53.236
ATOM     44  O   UNL d   1      46.465  -2.501  39.700 +0.00 -0.02    -0.228    53.236
ATOM     45  O   UNL d   1      45.028  -0.532  38.836 -0.00 -0.03    -0.303    53.236
ATOM     46  H   UNL d   1      44.852   0.339  39.245 +0.00 +0.02    +0.222    53.236
ATOM     47  O   UNL d   1      45.282  -0.789  41.287 -0.00 -0.02    -0.303    53.236
ATOM     48  H   UNL d   1      44.362  -0.649  41.594 +0.00 +0.02    +0.222    53.236
TER
ENDMDL
MODEL       23
USER    Run = 23
USER    Cluster Rank = 59
USER    Number of conformations in this cluster = 1
USER  
USER    RMSD from reference structure       = 43.771 A
USER  
USER    Estimated Free Energy of Binding    =   +3.57 kcal/mol  [=(1)+(2)+(3)-(4)]
USER    
USER    (1) Final Intermolecular Energy     =   -3.59 kcal/mol
USER        vdW + Hbond + desolv Energy     =   -3.63 kcal/mol
USER        Electrostatic Energy            =   +0.05 kcal/mol
USER    (2) Final Total Internal Energy     =  -12.27 kcal/mol
USER    (3) Torsional Free Energy           =   +7.16 kcal/mol
USER    (4) Unbound System's Energy  [=(2)] =  -12.27 kcal/mol
USER    
USER    
USER  
USER    DPF = D:/Protein_go_brrr/autodock/final/1A3N/IHP/dock.dpf
USER    NEWDPF move	IHP_ideal_opt.pdbqt
USER    NEWDPF about	0.035000 0.082000 -0.065000
USER    NEWDPF tran0	26.573875 13.839131 36.542851
USER    NEWDPF axisangle0	0.516237 -0.809731 -0.278989 -161.154728
USER    NEWDPF quaternion0	0.509272 -0.798806 -0.275225 -0.163716
USER    NEWDPF dihe0	93.53 -100.93 -168.29 -26.30 40.49 41.89 -8.43 -110.10 4.59 171.99 81.17 -109.09 -166.96 178.98 136.14 -114.42 -109.71 -49.11 22.65 18.49 154.28 18.81 -58.51 169.74 
USER  
USER                              x       y       z    vdW   Elec        q     RMS 
ATOM      1  C   UNL d   1      26.252  12.630  35.352 -0.05 -0.05    +0.194    43.771
ATOM      2  C   UNL d   1      27.567  13.392  35.181 -0.03 -0.03    +0.194    43.771
ATOM      3  C   UNL d   1      27.388  14.892  35.421 -0.00 -0.02    +0.194    43.771
ATOM      4  C   UNL d   1      26.704  15.212  36.748 +0.00 -0.02    +0.194    43.771
ATOM      5  C   UNL d   1      25.448  14.391  37.013 +0.00 -0.03    +0.194    43.771
ATOM      6  C   UNL d   1      25.610  12.899  36.714 -0.04 -0.06    +0.194    43.771
ATOM      7  O   UNL d   1      26.535  11.230  35.284 -0.10 +0.11    -0.278    43.771
ATOM      8  P   UNL d   1      26.257  10.466  33.909 -0.18 -0.14    +0.473    43.771
ATOM      9  O   UNL d   1      25.196   9.424  33.969 -0.83 +0.06    -0.228    43.771
ATOM     10  O   UNL d   1      25.929  11.636  32.875 -0.14 +0.04    -0.303    43.771
ATOM     11  H   UNL d   1      25.110  12.091  33.145 +0.09 -0.01    +0.222    43.771
ATOM     12  O   UNL d   1      27.685   9.975  33.413 -0.25 +0.10    -0.303    43.771
ATOM     13  H   UNL d   1      27.775   9.978  32.434 -0.32 -0.16    +0.222    43.771
ATOM     14  O   UNL d   1      28.523  12.890  36.123 -0.04 +0.05    -0.278    43.771
ATOM     15  P   UNL d   1      30.063  12.959  35.687 -0.17 -0.11    +0.473    43.771
ATOM     16  O   UNL d   1      30.834  11.678  35.736 -0.98 +0.04    -0.228    43.771
ATOM     17  O   UNL d   1      30.024  13.601  34.229 -0.17 +0.05    -0.303    43.771
ATOM     18  H   UNL d   1      30.174  14.565  34.266 +0.06 -0.03    +0.222    43.771
ATOM     19  O   UNL d   1      30.665  14.155  36.546 -0.07 +0.07    -0.303    43.771
ATOM     20  H   UNL d   1      30.532  15.016  36.109 +0.05 -0.04    +0.222    43.771
ATOM     21  O   UNL d   1      24.298  12.342  36.675 -0.08 +0.19    -0.278    43.771
ATOM     22  P   UNL d   1      23.181  13.010  35.752 -0.08 -0.22    +0.473    43.771
ATOM     23  O   UNL d   1      21.930  12.241  35.490 -0.26 +0.14    -0.228    43.771
ATOM     24  O   UNL d   1      22.964  14.414  36.469 -0.02 +0.05    -0.303    43.771
ATOM     25  H   UNL d   1      23.214  14.315  37.422 +0.03 -0.04    +0.222    43.771
ATOM     26  O   UNL d   1      24.034  13.427  34.459 -0.08 +0.06    -0.303    43.771
ATOM     27  H   UNL d   1      23.823  14.352  34.220 +0.06 -0.03    +0.222    43.771
ATOM     28  O   UNL d   1      28.684  15.469  35.516 -0.01 +0.03    -0.278    43.771
ATOM     29  P   UNL d   1      29.062  16.749  34.647 +0.00 -0.04    +0.473    43.771
ATOM     30  O   UNL d   1      30.433  16.755  34.077 -0.05 +0.02    -0.228    43.771
ATOM     31  O   UNL d   1      27.843  16.750  33.609 -0.00 +0.02    -0.303    43.771
ATOM     32  H   UNL d   1      27.011  16.564  34.102 +0.01 -0.02    +0.222    43.771
ATOM     33  O   UNL d   1      28.686  17.943  35.631 -0.00 +0.02    -0.303    43.771
ATOM     34  H   UNL d   1      27.765  17.808  35.963 +0.00 -0.01    +0.222    43.771
ATOM     35  O   UNL d   1      25.193  14.514  38.410 +0.00 +0.04    -0.278    43.771
ATOM     36  P   UNL d   1      24.651  15.888  39.011 +0.01 -0.03    +0.473    43.771
ATOM     37  O   UNL d   1      25.590  17.048  38.917 +0.00 +0.01    -0.228    43.771
ATOM     38  O   UNL d   1      23.289  16.081  38.208 +0.00 +0.02    -0.303    43.771
ATOM     39  H   UNL d   1      23.494  16.216  37.257 +0.01 -0.01    +0.222    43.771
ATOM     40  O   UNL d   1      24.178  15.459  40.468 +0.00 +0.01    -0.303    43.771
ATOM     41  H   UNL d   1      24.537  16.059  41.159 +0.00 -0.01    +0.222    43.771
ATOM     42  O   UNL d   1      26.304  16.585  36.688 +0.00 +0.02    -0.278    43.771
ATOM     43  P   UNL d   1      25.318  17.051  35.525 +0.00 -0.03    +0.473    43.771
ATOM     44  O   UNL d   1      24.925  16.035  34.509 -0.01 +0.02    -0.228    43.771
ATOM     45  O   UNL d   1      24.095  17.672  36.331 -0.00 +0.01    -0.303    43.771
ATOM     46  H   UNL d   1      24.292  17.736  37.287 +0.00 -0.01    +0.222    43.771
ATOM     47  O   UNL d   1      26.029  18.367  34.947 -0.00 +0.01    -0.303    43.771
ATOM     48  H   UNL d   1      26.847  18.110  34.474 +0.00 -0.01    +0.222    43.771
TER
ENDMDL
MODEL       26
USER    Run = 26
USER    Cluster Rank = 60
USER    Number of conformations in this cluster = 1
USER  
USER    RMSD from reference structure       = 17.830 A
USER  
USER    Estimated Free Energy of Binding    =   +3.62 kcal/mol  [=(1)+(2)+(3)-(4)]
USER    
USER    (1) Final Intermolecular Energy     =   -3.54 kcal/mol
USER        vdW + Hbond + desolv Energy     =   -3.43 kcal/mol
USER        Electrostatic Energy            =   -0.11 kcal/mol
USER    (2) Final Total Internal Energy     =  -14.61 kcal/mol
USER    (3) Torsional Free Energy           =   +7.16 kcal/mol
USER    (4) Unbound System's Energy  [=(2)] =  -14.61 kcal/mol
USER    
USER    
USER  
USER    DPF = D:/Protein_go_brrr/autodock/final/1A3N/IHP/dock.dpf
USER    NEWDPF move	IHP_ideal_opt.pdbqt
USER    NEWDPF about	0.035000 0.082000 -0.065000
USER    NEWDPF tran0	15.254562 8.010670 -12.724178
USER    NEWDPF axisangle0	-0.543715 0.139162 0.827652 -48.937604
USER    NEWDPF quaternion0	-0.225205 0.057640 0.342812 -0.910187
USER    NEWDPF dihe0	116.64 83.92 153.63 -16.18 145.86 92.73 -37.28 -115.08 152.19 -38.46 26.95 162.53 -75.50 168.91 117.09 69.10 63.39 169.38 56.91 14.33 -51.89 12.82 -27.08 -10.52 
USER  
USER                              x       y       z    vdW   Elec        q     RMS 
ATOM      1  C   UNL d   1      16.743   8.526 -12.015 -0.17 +0.11    +0.194    17.830
ATOM      2  C   UNL d   1      16.337   7.081 -11.722 -0.13 +0.07    +0.194    17.830
ATOM      3  C   UNL d   1      14.847   6.966 -11.393 -0.17 +0.07    +0.194    17.830
ATOM      4  C   UNL d   1      13.948   7.617 -12.440 -0.11 +0.06    +0.194    17.830
ATOM      5  C   UNL d   1      14.383   9.019 -12.847 -0.14 +0.13    +0.194    17.830
ATOM      6  C   UNL d   1      15.884   9.148 -13.117 -0.13 +0.15    +0.194    17.830
ATOM      7  O   UNL d   1      18.095   8.525 -12.478 -0.07 -0.12    -0.278    17.830
ATOM      8  P   UNL d   1      19.245   8.075 -11.465 -0.09 +0.17    +0.473    17.830
ATOM      9  O   UNL d   1      18.910   8.228 -10.023 -0.19 -0.09    -0.228    17.830
ATOM     10  O   UNL d   1      19.559   6.567 -11.880 -0.04 -0.09    -0.303    17.830
ATOM     11  H   UNL d   1      18.724   6.101 -12.072 +0.04 +0.06    +0.222    17.830
ATOM     12  O   UNL d   1      20.550   8.835 -11.958 -0.05 -0.11    -0.303    17.830
ATOM     13  H   UNL d   1      20.371   9.752 -12.263 +0.04 +0.09    +0.222    17.830
ATOM     14  O   UNL d   1      16.613   6.276 -12.876 -0.02 -0.07    -0.278    17.830
ATOM     15  P   UNL d   1      17.077   4.768 -12.602 -0.01 +0.09    +0.473    17.830
ATOM     16  O   UNL d   1      18.232   4.263 -13.408 -0.03 -0.04    -0.228    17.830
ATOM     17  O   UNL d   1      17.353   4.726 -11.034 -0.06 -0.07    -0.303    17.830
ATOM     18  H   UNL d   1      16.557   4.981 -10.529 +0.07 +0.06    +0.222    17.830
ATOM     19  O   UNL d   1      15.738   3.915 -12.713 -0.01 -0.05    -0.303    17.830
ATOM     20  H   UNL d   1      15.178   4.019 -11.921 +0.05 +0.04    +0.222    17.830
ATOM     21  O   UNL d   1      16.180  10.542 -13.141 -0.59 -0.47    -0.278    17.830
ATOM     22  P   UNL d   1      17.437  11.070 -13.970 -0.06 +0.44    +0.473    17.830
ATOM     23  O   UNL d   1      17.347  12.417 -14.605 -0.07 -0.22    -0.228    17.830
ATOM     24  O   UNL d   1      18.615  10.908 -12.913 -0.08 -0.21    -0.303    17.830
ATOM     25  H   UNL d   1      18.892   9.957 -12.904 +0.04 +0.11    +0.222    17.830
ATOM     26  O   UNL d   1      17.711   9.842 -14.963 -0.01 -0.13    -0.303    17.830
ATOM     27  H   UNL d   1      18.222   9.154 -14.490 +0.02 +0.08    +0.222    17.830
ATOM     28  O   UNL d   1      14.510   5.585 -11.412 -0.06 -0.06    -0.278    17.830
ATOM     29  P   UNL d   1      13.855   4.899 -10.132 -0.11 +0.14    +0.473    17.830
ATOM     30  O   UNL d   1      12.790   5.686  -9.458 -0.72 -0.10    -0.228    17.830
ATOM     31  O   UNL d   1      13.430   3.489 -10.758 -0.03 -0.06    -0.303    17.830
ATOM     32  H   UNL d   1      13.888   3.378 -11.623 +0.05 +0.03    +0.222    17.830
ATOM     33  O   UNL d   1      15.135   4.526  -9.261 -0.19 -0.12    -0.303    17.830
ATOM     34  H   UNL d   1      15.740   3.965  -9.805 +0.09 +0.07    +0.222    17.830
ATOM     35  O   UNL d   1      13.711   9.292 -14.075 -0.06 -0.14    -0.278    17.830
ATOM     36  P   UNL d   1      12.438  10.254 -14.098 -0.05 +0.22    +0.473    17.830
ATOM     37  O   UNL d   1      12.659  11.601 -14.711 -0.08 -0.14    -0.228    17.830
ATOM     38  O   UNL d   1      11.366   9.357 -14.860 -0.01 -0.03    -0.303    17.830
ATOM     39  H   UNL d   1      10.957   8.734 -14.222 +0.04 -0.00    +0.222    17.830
ATOM     40  O   UNL d   1      11.958  10.220 -12.583 -0.07 -0.15    -0.303    17.830
ATOM     41  H   UNL d   1      11.437   9.411 -12.383 +0.06 +0.05    +0.222    17.830
ATOM     42  O   UNL d   1      12.647   7.733 -11.855 -0.15 -0.06    -0.278    17.830
ATOM     43  P   UNL d   1      11.410   7.030 -12.577 -0.06 -0.12    +0.473    17.830
ATOM     44  O   UNL d   1      10.093   7.724 -12.514 -0.12 +0.19    -0.228    17.830
ATOM     45  O   UNL d   1      11.955   6.798 -14.054 -0.02 +0.01    -0.303    17.830
ATOM     46  H   UNL d   1      12.396   7.599 -14.402 +0.03 +0.02    +0.222    17.830
ATOM     47  O   UNL d   1      11.437   5.542 -11.982 -0.12 +0.10    -0.303    17.830
ATOM     48  H   UNL d   1      12.320   5.364 -11.598 +0.08 -0.00    +0.222    17.830
TER
ENDMDL
MODEL       77
USER    Run = 77
USER    Cluster Rank = 61
USER    Number of conformations in this cluster = 1
USER  
USER    RMSD from reference structure       = 40.763 A
USER  
USER    Estimated Free Energy of Binding    =   +3.64 kcal/mol  [=(1)+(2)+(3)-(4)]
USER    
USER    (1) Final Intermolecular Energy     =   -3.52 kcal/mol
USER        vdW + Hbond + desolv Energy     =   -3.30 kcal/mol
USER        Electrostatic Energy            =   -0.22 kcal/mol
USER    (2) Final Total Internal Energy     =  -13.18 kcal/mol
USER    (3) Torsional Free Energy           =   +7.16 kcal/mol
USER    (4) Unbound System's Energy  [=(2)] =  -13.18 kcal/mol
USER    
USER    
USER  
USER    DPF = D:/Protein_go_brrr/autodock/final/1A3N/IHP/dock.dpf
USER    NEWDPF move	IHP_ideal_opt.pdbqt
USER    NEWDPF about	0.035000 0.082000 -0.065000
USER    NEWDPF tran0	41.804397 -15.994293 8.196253
USER    NEWDPF axisangle0	0.725207 0.230459 -0.648817 -113.550375
USER    NEWDPF quaternion0	0.606655 0.192785 -0.542753 -0.547926
USER    NEWDPF dihe0	106.75 119.35 45.12 79.07 62.98 102.14 46.28 -81.44 53.61 -142.96 117.49 153.97 -67.40 144.07 63.64 -142.44 -134.41 22.32 -152.97 -19.33 177.66 14.99 -9.82 -179.80 
USER  
USER                              x       y       z    vdW   Elec        q     RMS 
ATOM      1  C   UNL d   1      41.136 -16.849   6.852 -0.01 -0.01    +0.194    40.763
ATOM      2  C   UNL d   1      40.215 -15.815   7.501 -0.07 -0.02    +0.194    40.763
ATOM      3  C   UNL d   1      40.280 -15.878   9.029 -0.14 -0.03    +0.194    40.763
ATOM      4  C   UNL d   1      41.704 -15.805   9.574 -0.06 -0.03    +0.194    40.763
ATOM      5  C   UNL d   1      42.684 -16.740   8.876 -0.07 +0.02    +0.194    40.763
ATOM      6  C   UNL d   1      42.577 -16.722   7.350 -0.01 +0.00    +0.194    40.763
ATOM      7  O   UNL d   1      41.150 -16.612   5.442 -0.00 +0.00    -0.278    40.763
ATOM      8  P   UNL d   1      42.158 -15.514   4.867 +0.01 +0.01    +0.473    40.763
ATOM      9  O   UNL d   1      42.727 -14.586   5.882 -0.03 -0.01    -0.228    40.763
ATOM     10  O   UNL d   1      43.269 -16.369   4.106 +0.00 -0.01    -0.303    40.763
ATOM     11  H   UNL d   1      43.606 -17.068   4.698 +0.00 +0.00    +0.222    40.763
ATOM     12  O   UNL d   1      41.380 -14.831   3.662 -0.01 -0.00    -0.303    40.763
ATOM     13  H   UNL d   1      40.667 -14.222   3.958 +0.03 +0.00    +0.222    40.763
ATOM     14  O   UNL d   1      40.615 -14.504   7.081 -0.09 +0.03    -0.278    40.763
ATOM     15  P   UNL d   1      39.595 -13.714   6.133 -0.13 -0.04    +0.473    40.763
ATOM     16  O   UNL d   1      40.160 -12.581   5.334 -0.12 +0.00    -0.228    40.763
ATOM     17  O   UNL d   1      38.953 -14.852   5.221 -0.06 +0.01    -0.303    40.763
ATOM     18  H   UNL d   1      39.644 -15.409   4.815 +0.03 -0.01    +0.222    40.763
ATOM     19  O   UNL d   1      38.376 -13.341   7.085 -0.26 +0.07    -0.303    40.763
ATOM     20  H   UNL d   1      38.628 -13.382   8.026 -0.11 -0.07    +0.222    40.763
ATOM     21  O   UNL d   1      43.286 -17.863   6.873 +0.00 -0.01    -0.278    40.763
ATOM     22  P   UNL d   1      42.636 -19.314   7.010 +0.01 +0.01    +0.473    40.763
ATOM     23  O   UNL d   1      41.856 -19.848   5.856 +0.00 +0.00    -0.228    40.763
ATOM     24  O   UNL d   1      43.892 -20.195   7.432 +0.00 -0.01    -0.303    40.763
ATOM     25  H   UNL d   1      44.692 -19.610   7.434 +0.00 +0.01    +0.222    40.763
ATOM     26  O   UNL d   1      41.841 -19.185   8.396 -0.00 -0.01    -0.303    40.763
ATOM     27  H   UNL d   1      42.483 -19.166   9.134 +0.02 +0.02    +0.222    40.763
ATOM     28  O   UNL d   1      39.623 -14.722   9.533 -0.22 +0.10    -0.278    40.763
ATOM     29  P   UNL d   1      38.436 -14.866  10.585 -0.29 -0.12    +0.473    40.763
ATOM     30  O   UNL d   1      37.651 -13.631  10.839 -0.38 +0.05    -0.228    40.763
ATOM     31  O   UNL d   1      37.651 -16.108   9.951 -0.26 +0.03    -0.303    40.763
ATOM     32  H   UNL d   1      37.926 -16.928  10.424 +0.10 -0.02    +0.222    40.763
ATOM     33  O   UNL d   1      39.175 -15.518  11.836 -0.38 +0.07    -0.303    40.763
ATOM     34  H   UNL d   1      39.997 -15.970  11.523 +0.08 -0.04    +0.222    40.763
ATOM     35  O   UNL d   1      43.984 -16.258   9.211 -0.12 -0.07    -0.278    40.763
ATOM     36  P   UNL d   1      45.020 -17.202   9.973 -0.03 +0.21    +0.473    40.763
ATOM     37  O   UNL d   1      44.970 -17.141  11.466 -0.29 -0.27    -0.228    40.763
ATOM     38  O   UNL d   1      44.669 -18.630   9.363 -0.01 -0.05    -0.303    40.763
ATOM     39  H   UNL d   1      43.791 -18.586   8.927 +0.02 +0.03    +0.222    40.763
ATOM     40  O   UNL d   1      46.400 -16.819   9.280 -0.00 -0.06    -0.303    40.763
ATOM     41  H   UNL d   1      47.159 -17.278   9.703 +0.01 +0.04    +0.222    40.763
ATOM     42  O   UNL d   1      41.644 -16.208  10.946 -0.16 -0.04    -0.278    40.763
ATOM     43  P   UNL d   1      41.318 -17.731  11.290 -0.13 +0.12    +0.473    40.763
ATOM     44  O   UNL d   1      42.343 -18.750  10.932 -0.09 -0.06    -0.228    40.763
ATOM     45  O   UNL d   1      40.973 -17.673  12.842 -0.24 -0.08    -0.303    40.763
ATOM     46  H   UNL d   1      40.386 -16.918  13.050 +0.09 +0.02    +0.222    40.763
ATOM     47  O   UNL d   1      39.868 -17.951  10.642 -0.08 -0.01    -0.303    40.763
ATOM     48  H   UNL d   1      39.395 -17.094  10.612 +0.10 -0.01    +0.222    40.763
TER
ENDMDL
MODEL       56
USER    Run = 56
USER    Cluster Rank = 62
USER    Number of conformations in this cluster = 1
USER  
USER    RMSD from reference structure       = 39.900 A
USER  
USER    Estimated Free Energy of Binding    =   +3.66 kcal/mol  [=(1)+(2)+(3)-(4)]
USER    
USER    (1) Final Intermolecular Energy     =   -3.50 kcal/mol
USER        vdW + Hbond + desolv Energy     =   -3.19 kcal/mol
USER        Electrostatic Energy            =   -0.31 kcal/mol
USER    (2) Final Total Internal Energy     =  -12.91 kcal/mol
USER    (3) Torsional Free Energy           =   +7.16 kcal/mol
USER    (4) Unbound System's Energy  [=(2)] =  -12.91 kcal/mol
USER    
USER    
USER  
USER    DPF = D:/Protein_go_brrr/autodock/final/1A3N/IHP/dock.dpf
USER    NEWDPF move	IHP_ideal_opt.pdbqt
USER    NEWDPF about	0.035000 0.082000 -0.065000
USER    NEWDPF tran0	40.358027 -18.143973 7.349721
USER    NEWDPF axisangle0	-0.950638 0.310172 0.008983 -142.646496
USER    NEWDPF quaternion0	-0.900578 0.293839 0.008510 -0.320229
USER    NEWDPF dihe0	180.00 18.22 61.48 -5.28 -35.29 -177.43 -139.58 107.64 153.72 -34.92 46.24 -156.59 -156.10 171.09 179.47 -145.58 41.04 141.48 42.98 -14.47 175.53 -30.50 -28.16 -0.85 
USER  
USER                              x       y       z    vdW   Elec        q     RMS 
ATOM      1  C   UNL d   1      42.006 -17.788   6.974 +0.00 +0.00    +0.194    39.900
ATOM      2  C   UNL d   1      41.340 -16.848   7.981 -0.03 -0.01    +0.194    39.900
ATOM      3  C   UNL d   1      39.921 -16.471   7.551 -0.04 -0.01    +0.194    39.900
ATOM      4  C   UNL d   1      39.049 -17.682   7.226 -0.03 -0.01    +0.194    39.900
ATOM      5  C   UNL d   1      39.718 -18.702   6.315 -0.01 -0.01    +0.194    39.900
ATOM      6  C   UNL d   1      41.159 -19.033   6.709 +0.00 -0.00    +0.194    39.900
ATOM      7  O   UNL d   1      43.249 -18.227   7.528 +0.00 -0.01    -0.278    39.900
ATOM      8  P   UNL d   1      44.505 -17.243   7.449 +0.02 +0.03    +0.473    39.900
ATOM      9  O   UNL d   1      45.522 -17.599   6.423 +0.00 -0.01    -0.228    39.900
ATOM     10  O   UNL d   1      43.855 -15.804   7.216 -0.01 -0.01    -0.303    39.900
ATOM     11  H   UNL d   1      42.930 -15.810   7.523 +0.03 -0.00    +0.222    39.900
ATOM     12  O   UNL d   1      45.035 -17.130   8.942 -0.02 -0.06    -0.303    39.900
ATOM     13  H   UNL d   1      44.332 -17.281   9.614 +0.02 +0.08    +0.222    39.900
ATOM     14  O   UNL d   1      41.272 -17.501   9.255 -0.05 -0.01    -0.278    39.900
ATOM     15  P   UNL d   1      42.089 -16.821  10.452 +0.04 +0.16    +0.473    39.900
ATOM     16  O   UNL d   1      42.930 -17.729  11.294 -0.51 -0.18    -0.228    39.900
ATOM     17  O   UNL d   1      42.939 -15.677   9.740 -0.23 -0.04    -0.303    39.900
ATOM     18  H   UNL d   1      43.216 -15.950   8.845 +0.03 +0.02    +0.222    39.900
ATOM     19  O   UNL d   1      41.002 -15.967  11.239 -0.20 +0.05    -0.303    39.900
ATOM     20  H   UNL d   1      40.648 -15.242  10.693 -0.31 -0.16    +0.222    39.900
ATOM     21  O   UNL d   1      41.746 -19.710   5.600 +0.00 +0.00    -0.278    39.900
ATOM     22  P   UNL d   1      42.129 -18.890   4.286 +0.00 -0.01    +0.473    39.900
ATOM     23  O   UNL d   1      42.091 -19.601   2.975 +0.00 +0.00    -0.228    39.900
ATOM     24  O   UNL d   1      41.159 -17.633   4.391 +0.00 +0.01    -0.303    39.900
ATOM     25  H   UNL d   1      40.394 -17.781   3.778 +0.00 -0.01    +0.222    39.900
ATOM     26  O   UNL d   1      43.541 -18.254   4.699 +0.00 -0.00    -0.303    39.900
ATOM     27  H   UNL d   1      43.831 -18.641   5.550 +0.00 +0.00    +0.222    39.900
ATOM     28  O   UNL d   1      39.291 -15.839   8.658 -0.09 +0.04    -0.278    39.900
ATOM     29  P   UNL d   1      39.582 -14.306   8.981 -0.09 -0.15    +0.473    39.900
ATOM     30  O   UNL d   1      39.028 -13.807  10.266 -0.36 +0.10    -0.228    39.900
ATOM     31  O   UNL d   1      41.174 -14.284   8.819 -0.06 +0.13    -0.303    39.900
ATOM     32  H   UNL d   1      41.581 -14.521   9.684 -0.36 -0.21    +0.222    39.900
ATOM     33  O   UNL d   1      39.082 -13.585   7.653 -0.23 +0.07    -0.303    39.900
ATOM     34  H   UNL d   1      39.016 -12.613   7.821 -0.45 -0.11    +0.222    39.900
ATOM     35  O   UNL d   1      38.959 -19.902   6.453 -0.01 +0.01    -0.278    39.900
ATOM     36  P   UNL d   1      37.917 -20.329   5.324 +0.00 -0.03    +0.473    39.900
ATOM     37  O   UNL d   1      38.489 -21.099   4.177 -0.00 +0.01    -0.228    39.900
ATOM     38  O   UNL d   1      36.828 -21.126   6.170 -0.03 +0.02    -0.303    39.900
ATOM     39  H   UNL d   1      36.195 -20.487   6.562 +0.06 -0.02    +0.222    39.900
ATOM     40  O   UNL d   1      37.202 -18.950   4.982 -0.01 +0.02    -0.303    39.900
ATOM     41  H   UNL d   1      36.549 -18.698   5.672 +0.05 -0.01    +0.222    39.900
ATOM     42  O   UNL d   1      37.898 -17.189   6.532 -0.04 +0.01    -0.278    39.900
ATOM     43  P   UNL d   1      36.474 -17.267   7.247 -0.03 -0.02    +0.473    39.900
ATOM     44  O   UNL d   1      35.278 -16.901   6.439 -0.15 +0.01    -0.228    39.900
ATOM     45  O   UNL d   1      36.448 -18.756   7.810 -0.14 +0.01    -0.303    39.900
ATOM     46  H   UNL d   1      37.012 -19.350   7.277 +0.06 -0.01    +0.222    39.900
ATOM     47  O   UNL d   1      36.690 -16.416   8.588 -0.13 +0.01    -0.303    39.900
ATOM     48  H   UNL d   1      37.444 -15.803   8.463 +0.11 -0.02    +0.222    39.900
TER
ENDMDL
MODEL       30
USER    Run = 30
USER    Cluster Rank = 63
USER    Number of conformations in this cluster = 1
USER  
USER    RMSD from reference structure       = 13.343 A
USER  
USER    Estimated Free Energy of Binding    =   +3.67 kcal/mol  [=(1)+(2)+(3)-(4)]
USER    
USER    (1) Final Intermolecular Energy     =   -3.49 kcal/mol
USER        vdW + Hbond + desolv Energy     =   -2.74 kcal/mol
USER        Electrostatic Energy            =   -0.75 kcal/mol
USER    (2) Final Total Internal Energy     =  -15.85 kcal/mol
USER    (3) Torsional Free Energy           =   +7.16 kcal/mol
USER    (4) Unbound System's Energy  [=(2)] =  -15.85 kcal/mol
USER    
USER    
USER  
USER    DPF = D:/Protein_go_brrr/autodock/final/1A3N/IHP/dock.dpf
USER    NEWDPF move	IHP_ideal_opt.pdbqt
USER    NEWDPF about	0.035000 0.082000 -0.065000
USER    NEWDPF tran0	-13.877310 10.235542 0.235635
USER    NEWDPF axisangle0	0.211446 -0.694704 0.687515 -55.100706
USER    NEWDPF quaternion0	0.097800 -0.321320 0.317995 -0.886605
USER    NEWDPF dihe0	-92.11 -24.71 135.92 -48.25 21.34 -144.98 -128.71 8.74 119.31 -28.85 118.33 -124.54 -141.61 78.57 -42.29 47.07 167.28 89.68 33.87 -26.19 165.17 161.87 13.09 -33.27 
USER  
USER                              x       y       z    vdW   Elec        q     RMS 
ATOM      1  C   UNL d   1     -12.981   9.873   1.667 -0.02 -0.05    +0.194    13.343
ATOM      2  C   UNL d   1     -13.028   8.761   0.618 -0.03 -0.06    +0.194    13.343
ATOM      3  C   UNL d   1     -14.430   8.598   0.027 +0.00 -0.03    +0.194    13.343
ATOM      4  C   UNL d   1     -15.020   9.907  -0.492 +0.00 -0.02    +0.194    13.343
ATOM      5  C   UNL d   1     -14.892  11.074   0.479 +0.00 -0.03    +0.194    13.343
ATOM      6  C   UNL d   1     -13.507  11.200   1.117 -0.01 -0.04    +0.194    13.343
ATOM      7  O   UNL d   1     -11.617  10.077   2.041 -0.06 +0.09    -0.278    13.343
ATOM      8  P   UNL d   1     -11.018   9.205   3.238 -0.15 -0.26    +0.473    13.343
ATOM      9  O   UNL d   1     -11.165   9.807   4.591 -0.26 +0.05    -0.228    13.343
ATOM     10  O   UNL d   1     -11.753   7.796   3.094 -0.13 +0.30    -0.303    13.343
ATOM     11  H   UNL d   1     -11.112   7.123   2.797 -0.31 -0.48    +0.222    13.343
ATOM     12  O   UNL d   1      -9.534   8.854   2.791 -0.32 +0.26    -0.303    13.343
ATOM     13  H   UNL d   1      -9.498   8.217   2.042 -0.13 -0.31    +0.222    13.343
ATOM     14  O   UNL d   1     -12.120   9.082  -0.443 -0.04 +0.07    -0.278    13.343
ATOM     15  P   UNL d   1     -10.751   8.253  -0.490 -0.10 -0.17    +0.473    13.343
ATOM     16  O   UNL d   1     -10.334   7.718  -1.824 -0.26 +0.03    -0.228    13.343
ATOM     17  O   UNL d   1      -9.676   9.245   0.141 -0.18 +0.11    -0.303    13.343
ATOM     18  H   UNL d   1     -10.048   9.727   0.905 +0.11 -0.08    +0.222    13.343
ATOM     19  O   UNL d   1     -10.904   7.171   0.666 -0.06 +0.36    -0.303    13.343
ATOM     20  H   UNL d   1     -10.333   7.375   1.429 -0.45 -0.46    +0.222    13.343
ATOM     21  O   UNL d   1     -13.641  12.088   2.224 -0.01 +0.05    -0.278    13.343
ATOM     22  P   UNL d   1     -14.585  11.691   3.447 +0.01 -0.08    +0.473    13.343
ATOM     23  O   UNL d   1     -15.509  10.533   3.278 -0.00 +0.04    -0.228    13.343
ATOM     24  O   UNL d   1     -13.533  11.537   4.632 -0.04 +0.06    -0.303    13.343
ATOM     25  H   UNL d   1     -12.758  11.022   4.292 +0.08 -0.04    +0.222    13.343
ATOM     26  O   UNL d   1     -15.274  13.096   3.797 -0.01 +0.04    -0.303    13.343
ATOM     27  H   UNL d   1     -15.502  13.558   2.964 +0.01 -0.03    +0.222    13.343
ATOM     28  O   UNL d   1     -14.319   7.756  -1.113 -0.00 +0.01    -0.278    13.343
ATOM     29  P   UNL d   1     -13.992   8.376  -2.543 -0.01 +0.08    +0.473    13.343
ATOM     30  O   UNL d   1     -13.350   9.716  -2.528 -0.03 +0.00    -0.228    13.343
ATOM     31  O   UNL d   1     -13.150   7.175  -3.182 -0.45 -0.24    -0.303    13.343
ATOM     32  H   UNL d   1     -12.242   7.189  -2.800 +0.06 +0.11    +0.222    13.343
ATOM     33  O   UNL d   1     -15.394   8.258  -3.287 -0.01 -0.06    -0.303    13.343
ATOM     34  H   UNL d   1     -16.038   8.874  -2.859 +0.01 +0.01    +0.222    13.343
ATOM     35  O   UNL d   1     -15.104  12.250  -0.299 +0.00 +0.04    -0.278    13.343
ATOM     36  P   UNL d   1     -15.880  13.497   0.323 +0.00 -0.06    +0.473    13.343
ATOM     37  O   UNL d   1     -16.679  14.308  -0.646 +0.00 +0.03    -0.228    13.343
ATOM     38  O   UNL d   1     -16.746  12.805   1.467 -0.00 +0.03    -0.303    13.343
ATOM     39  H   UNL d   1     -16.164  12.225   2.004 +0.00 -0.03    +0.222    13.343
ATOM     40  O   UNL d   1     -14.728  14.252   1.119 -0.00 +0.05    -0.303    13.343
ATOM     41  H   UNL d   1     -14.446  13.749   1.915 +0.01 -0.04    +0.222    13.343
ATOM     42  O   UNL d   1     -16.419   9.680  -0.694 +0.00 +0.02    -0.278    13.343
ATOM     43  P   UNL d   1     -17.146  10.393  -1.922 +0.00 -0.02    +0.473    13.343
ATOM     44  O   UNL d   1     -18.077   9.568  -2.742 +0.00 +0.01    -0.228    13.343
ATOM     45  O   UNL d   1     -17.829  11.657  -1.237 +0.00 +0.02    -0.303    13.343
ATOM     46  H   UNL d   1     -17.212  12.111  -0.628 +0.00 -0.02    +0.222    13.343
ATOM     47  O   UNL d   1     -15.934  11.071  -2.722 +0.00 +0.02    -0.303    13.343
ATOM     48  H   UNL d   1     -15.264  10.388  -2.931 +0.01 -0.00    +0.222    13.343
TER
ENDMDL
MODEL       96
USER    Run = 96
USER    Cluster Rank = 64
USER    Number of conformations in this cluster = 1
USER  
USER    RMSD from reference structure       = 34.835 A
USER  
USER    Estimated Free Energy of Binding    =   +3.72 kcal/mol  [=(1)+(2)+(3)-(4)]
USER    
USER    (1) Final Intermolecular Energy     =   -3.44 kcal/mol
USER        vdW + Hbond + desolv Energy     =   -3.31 kcal/mol
USER        Electrostatic Energy            =   -0.13 kcal/mol
USER    (2) Final Total Internal Energy     =  -12.68 kcal/mol
USER    (3) Torsional Free Energy           =   +7.16 kcal/mol
USER    (4) Unbound System's Energy  [=(2)] =  -12.68 kcal/mol
USER    
USER    
USER  
USER    DPF = D:/Protein_go_brrr/autodock/final/1A3N/IHP/dock.dpf
USER    NEWDPF move	IHP_ideal_opt.pdbqt
USER    NEWDPF about	0.035000 0.082000 -0.065000
USER    NEWDPF tran0	-11.765141 17.738985 30.896501
USER    NEWDPF axisangle0	0.247002 -0.011671 0.968945 -47.880010
USER    NEWDPF quaternion0	0.100228 -0.004736 0.393178 -0.913971
USER    NEWDPF dihe0	-110.65 16.66 16.63 29.22 174.36 140.06 21.06 -173.05 33.67 76.07 167.51 -179.89 54.39 -179.84 -169.89 -46.34 -9.16 102.14 37.40 -7.38 -178.63 145.41 151.66 -49.92 
USER  
USER                              x       y       z    vdW   Elec        q     RMS 
ATOM      1  C   UNL d   1     -10.205  17.895  31.622 -0.04 +0.03    +0.194    34.835
ATOM      2  C   UNL d   1     -10.514  16.529  31.007 -0.06 +0.02    +0.194    34.835
ATOM      3  C   UNL d   1     -11.933  16.065  31.342 -0.02 +0.01    +0.194    34.835
ATOM      4  C   UNL d   1     -13.001  17.104  31.008 -0.02 -0.00    +0.194    34.835
ATOM      5  C   UNL d   1     -12.678  18.507  31.503 -0.02 +0.01    +0.194    34.835
ATOM      6  C   UNL d   1     -11.240  18.948  31.222 -0.04 +0.01    +0.194    34.835
ATOM      7  O   UNL d   1      -8.938  18.332  31.124 -0.06 -0.05    -0.278    34.835
ATOM      8  P   UNL d   1      -7.616  17.835  31.870 -0.04 +0.31    +0.473    34.835
ATOM      9  O   UNL d   1      -6.835  16.796  31.146 -0.11 -0.18    -0.228    34.835
ATOM     10  O   UNL d   1      -6.791  19.175  32.128 -0.08 -0.12    -0.303    34.835
ATOM     11  H   UNL d   1      -7.024  19.540  33.002 +0.03 +0.09    +0.222    34.835
ATOM     12  O   UNL d   1      -8.091  17.449  33.337 -0.53 -0.37    -0.303    34.835
ATOM     13  H   UNL d   1      -8.874  17.964  33.637 +0.02 +0.15    +0.222    34.835
ATOM     14  O   UNL d   1     -10.388  16.619  29.582 -0.14 +0.04    -0.278    34.835
ATOM     15  P   UNL d   1      -9.378  15.590  28.886 -0.24 -0.05    +0.473    34.835
ATOM     16  O   UNL d   1      -8.295  16.180  28.038 -0.79 +0.00    -0.228    34.835
ATOM     17  O   UNL d   1      -8.811  14.725  30.098 -0.20 -0.06    -0.303    34.835
ATOM     18  H   UNL d   1      -8.113  15.210  30.580 +0.10 +0.10    +0.222    34.835
ATOM     19  O   UNL d   1     -10.323  14.537  28.158 -0.26 +0.19    -0.303    34.835
ATOM     20  H   UNL d   1     -11.168  14.424  28.630 +0.01 -0.16    +0.222    34.835
ATOM     21  O   UNL d   1     -10.997  20.099  32.027 -0.01 -0.02    -0.278    34.835
ATOM     22  P   UNL d   1     -10.666  19.927  33.578 +0.01 +0.07    +0.473    34.835
ATOM     23  O   UNL d   1     -11.270  20.893  34.539 +0.00 -0.02    -0.228    34.835
ATOM     24  O   UNL d   1     -11.058  18.404  33.826 +0.00 -0.06    -0.303    34.835
ATOM     25  H   UNL d   1     -10.222  17.887  33.952 +0.01 +0.08    +0.222    34.835
ATOM     26  O   UNL d   1      -9.064  19.858  33.563 -0.01 -0.08    -0.303    34.835
ATOM     27  H   UNL d   1      -8.769  19.408  32.745 +0.02 +0.06    +0.222    34.835
ATOM     28  O   UNL d   1     -12.224  14.945  30.516 -0.03 +0.03    -0.278    34.835
ATOM     29  P   UNL d   1     -13.178  15.105  29.250 -0.07 -0.15    +0.473    34.835
ATOM     30  O   UNL d   1     -14.620  15.291  29.555 -0.03 +0.04    -0.228    34.835
ATOM     31  O   UNL d   1     -12.436  16.303  28.491 -0.18 +0.10    -0.303    34.835
ATOM     32  H   UNL d   1     -11.604  15.955  28.095 +0.08 -0.10    +0.222    34.835
ATOM     33  O   UNL d   1     -12.786  13.836  28.373 -0.10 +0.32    -0.303    34.835
ATOM     34  H   UNL d   1     -12.357  14.143  27.537 -0.33 -0.34    +0.222    34.835
ATOM     35  O   UNL d   1     -13.535  19.382  30.773 -0.02 -0.00    -0.278    34.835
ATOM     36  P   UNL d   1     -13.194  19.769  29.264 -0.02 -0.00    +0.473    34.835
ATOM     37  O   UNL d   1     -12.562  18.686  28.448 -0.14 +0.02    -0.228    34.835
ATOM     38  O   UNL d   1     -14.611  20.253  28.723 -0.03 -0.00    -0.303    34.835
ATOM     39  H   UNL d   1     -15.315  19.699  29.125 +0.02 -0.00    +0.222    34.835
ATOM     40  O   UNL d   1     -12.369  21.117  29.437 -0.05 -0.01    -0.303    34.835
ATOM     41  H   UNL d   1     -11.821  21.107  30.253 +0.02 +0.01    +0.222    34.835
ATOM     42  O   UNL d   1     -14.203  16.690  31.667 -0.00 +0.00    -0.278    34.835
ATOM     43  P   UNL d   1     -15.598  17.282  31.169 +0.00 -0.01    +0.473    34.835
ATOM     44  O   UNL d   1     -16.796  16.404  31.284 -0.00 +0.00    -0.228    34.835
ATOM     45  O   UNL d   1     -15.709  18.645  31.983 -0.00 -0.00    -0.303    34.835
ATOM     46  H   UNL d   1     -15.371  19.401  31.462 +0.01 +0.00    +0.222    34.835
ATOM     47  O   UNL d   1     -15.266  17.810  29.693 -0.01 +0.01    -0.303    34.835
ATOM     48  H   UNL d   1     -14.320  17.649  29.497 +0.04 -0.01    +0.222    34.835
TER
ENDMDL
MODEL       15
USER    Run = 15
USER    Cluster Rank = 65
USER    Number of conformations in this cluster = 1
USER  
USER    RMSD from reference structure       = 20.958 A
USER  
USER    Estimated Free Energy of Binding    =   +3.73 kcal/mol  [=(1)+(2)+(3)-(4)]
USER    
USER    (1) Final Intermolecular Energy     =   -3.43 kcal/mol
USER        vdW + Hbond + desolv Energy     =   -2.64 kcal/mol
USER        Electrostatic Energy            =   -0.79 kcal/mol
USER    (2) Final Total Internal Energy     =  -12.52 kcal/mol
USER    (3) Torsional Free Energy           =   +7.16 kcal/mol
USER    (4) Unbound System's Energy  [=(2)] =  -12.52 kcal/mol
USER    
USER    
USER  
USER    DPF = D:/Protein_go_brrr/autodock/final/1A3N/IHP/dock.dpf
USER    NEWDPF move	IHP_ideal_opt.pdbqt
USER    NEWDPF about	0.035000 0.082000 -0.065000
USER    NEWDPF tran0	10.190976 -20.048748 -9.493848
USER    NEWDPF axisangle0	0.195233 -0.703655 0.683194 136.261818
USER    NEWDPF quaternion0	0.181184 -0.653018 0.634029 0.372487
USER    NEWDPF dihe0	162.37 108.32 -174.48 38.86 99.43 116.15 -5.95 -66.22 136.38 -9.64 157.58 -155.12 -90.60 -178.39 45.46 -46.07 165.62 101.87 -133.87 -8.66 -170.47 143.45 31.61 -53.44 
USER  
USER                              x       y       z    vdW   Elec        q     RMS 
ATOM      1  C   UNL d   1       9.725 -21.601  -8.896 +0.00 -0.04    +0.194    20.958
ATOM      2  C   UNL d   1      10.091 -20.565  -7.831 -0.03 -0.08    +0.194    20.958
ATOM      3  C   UNL d   1      11.342 -19.774  -8.217 -0.03 -0.08    +0.194    20.958
ATOM      4  C   UNL d   1      11.260 -19.162  -9.614 -0.02 -0.02    +0.194    20.958
ATOM      5  C   UNL d   1      10.787 -20.132 -10.689 +0.00 -0.00    +0.194    20.958
ATOM      6  C   UNL d   1       9.573 -20.967 -10.279 +0.00 -0.02    +0.194    20.958
ATOM      7  O   UNL d   1       8.462 -22.172  -8.547 +0.00 +0.04    -0.278    20.958
ATOM      8  P   UNL d   1       7.166 -21.698  -9.354 +0.01 -0.04    +0.473    20.958
ATOM      9  O   UNL d   1       7.124 -20.248  -9.684 -0.00 +0.02    -0.228    20.958
ATOM     10  O   UNL d   1       7.149 -22.637 -10.643 -0.00 +0.01    -0.303    20.958
ATOM     11  H   UNL d   1       7.869 -23.293 -10.580 +0.00 -0.01    +0.222    20.958
ATOM     12  O   UNL d   1       5.934 -22.256  -8.520 -0.00 +0.02    -0.303    20.958
ATOM     13  H   UNL d   1       5.875 -21.873  -7.616 +0.02 -0.02    +0.222    20.958
ATOM     14  O   UNL d   1       9.000 -19.649  -7.677 -0.04 +0.12    -0.278    20.958
ATOM     15  P   UNL d   1       8.383 -19.511  -6.206 -0.11 -0.34    +0.473    20.958
ATOM     16  O   UNL d   1       6.920 -19.791  -6.062 -0.14 +0.08    -0.228    20.958
ATOM     17  O   UNL d   1       9.287 -20.475  -5.315 -0.10 +0.40    -0.303    20.958
ATOM     18  H   UNL d   1      10.055 -19.997  -4.949 -0.35 -0.62    +0.222    20.958
ATOM     19  O   UNL d   1       8.859 -18.077  -5.708 -0.20 +0.33    -0.303    20.958
ATOM     20  H   UNL d   1       9.636 -17.763  -6.206 +0.01 -0.26    +0.222    20.958
ATOM     21  O   UNL d   1       9.471 -22.035 -11.219 +0.00 +0.01    -0.278    20.958
ATOM     22  P   UNL d   1      10.279 -23.388 -10.972 +0.00 -0.03    +0.473    20.958
ATOM     23  O   UNL d   1       9.768 -24.336  -9.941 +0.00 +0.02    -0.228    20.958
ATOM     24  O   UNL d   1      10.369 -23.987 -12.444 +0.00 +0.01    -0.303    20.958
ATOM     25  H   UNL d   1      10.433 -23.231 -13.081 +0.00 -0.00    +0.222    20.958
ATOM     26  O   UNL d   1      11.769 -22.840 -10.746 +0.00 +0.02    -0.303    20.958
ATOM     27  H   UNL d   1      12.046 -22.328 -11.534 +0.00 -0.01    +0.222    20.958
ATOM     28  O   UNL d   1      11.442 -18.670  -7.327 -0.09 +0.25    -0.278    20.958
ATOM     29  P   UNL d   1      11.093 -17.198  -7.827 -0.14 -0.26    +0.473    20.958
ATOM     30  O   UNL d   1      12.080 -16.585  -8.752 -0.19 +0.01    -0.228    20.958
ATOM     31  O   UNL d   1       9.617 -17.440  -8.397 -0.07 +0.07    -0.303    20.958
ATOM     32  H   UNL d   1       9.111 -17.974  -7.741 +0.08 -0.09    +0.222    20.958
ATOM     33  O   UNL d   1      10.820 -16.436  -6.457 -0.27 +0.34    -0.303    20.958
ATOM     34  H   UNL d   1      10.827 -17.092  -5.717 -0.27 -0.41    +0.222    20.958
ATOM     35  O   UNL d   1      10.386 -19.321 -11.792 -0.00 -0.03    -0.278    20.958
ATOM     36  P   UNL d   1      10.232 -19.959 -13.246 +0.01 +0.03    +0.473    20.958
ATOM     37  O   UNL d   1      10.501 -19.033 -14.389 -0.00 -0.03    -0.228    20.958
ATOM     38  O   UNL d   1      11.224 -21.202 -13.163 +0.00 -0.01    -0.303    20.958
ATOM     39  H   UNL d   1      10.874 -21.850 -12.513 +0.00 -0.00    +0.222    20.958
ATOM     40  O   UNL d   1       8.786 -20.618 -13.176 +0.00 -0.01    -0.303    20.958
ATOM     41  H   UNL d   1       8.686 -21.194 -12.386 +0.00 +0.00    +0.222    20.958
ATOM     42  O   UNL d   1      12.586 -18.755  -9.967 -0.02 -0.01    -0.278    20.958
ATOM     43  P   UNL d   1      12.785 -17.753 -11.193 -0.02 +0.27    +0.473    20.958
ATOM     44  O   UNL d   1      13.923 -16.796 -11.120 -0.57 -0.27    -0.228    20.958
ATOM     45  O   UNL d   1      12.841 -18.737 -12.442 -0.02 -0.08    -0.303    20.958
ATOM     46  H   UNL d   1      11.944 -18.961 -12.762 +0.01 +0.05    +0.222    20.958
ATOM     47  O   UNL d   1      11.334 -17.092 -11.364 -0.12 -0.22    -0.303    20.958
ATOM     48  H   UNL d   1      10.851 -17.151 -10.514 +0.04 +0.10    +0.222    20.958
TER
ENDMDL
MODEL       65
USER    Run = 65
USER    Cluster Rank = 66
USER    Number of conformations in this cluster = 1
USER  
USER    RMSD from reference structure       = 43.231 A
USER  
USER    Estimated Free Energy of Binding    =   +3.74 kcal/mol  [=(1)+(2)+(3)-(4)]
USER    
USER    (1) Final Intermolecular Energy     =   -3.42 kcal/mol
USER        vdW + Hbond + desolv Energy     =   -3.25 kcal/mol
USER        Electrostatic Energy            =   -0.17 kcal/mol
USER    (2) Final Total Internal Energy     =  -12.73 kcal/mol
USER    (3) Torsional Free Energy           =   +7.16 kcal/mol
USER    (4) Unbound System's Energy  [=(2)] =  -12.73 kcal/mol
USER    
USER    
USER  
USER    DPF = D:/Protein_go_brrr/autodock/final/1A3N/IHP/dock.dpf
USER    NEWDPF move	IHP_ideal_opt.pdbqt
USER    NEWDPF about	0.035000 0.082000 -0.065000
USER    NEWDPF tran0	42.390698 20.390948 8.306755
USER    NEWDPF axisangle0	-0.150858 -0.863529 -0.481206 146.720005
USER    NEWDPF quaternion0	-0.144541 -0.827367 -0.461055 0.286357
USER    NEWDPF dihe0	-155.83 -54.70 36.91 -30.05 53.48 -133.93 -146.69 40.15 77.56 117.83 -79.09 175.28 88.95 -56.00 65.67 74.48 46.50 166.01 -44.98 -3.75 25.91 153.91 -172.41 -172.78 
USER  
USER                              x       y       z    vdW   Elec        q     RMS 
ATOM      1  C   UNL d   1      41.898  21.086   6.804 -0.04 +0.04    +0.194    43.231
ATOM      2  C   UNL d   1      42.685  19.779   6.701 -0.04 +0.02    +0.194    43.231
ATOM      3  C   UNL d   1      43.877  19.758   7.659 -0.02 +0.01    +0.194    43.231
ATOM      4  C   UNL d   1      43.497  20.090   9.100 -0.04 +0.01    +0.194    43.231
ATOM      5  C   UNL d   1      42.614  21.324   9.240 -0.03 +0.03    +0.194    43.231
ATOM      6  C   UNL d   1      41.457  21.375   8.240 -0.08 +0.05    +0.194    43.231
ATOM      7  O   UNL d   1      40.714  20.958   6.013 -0.06 -0.08    -0.278    43.231
ATOM      8  P   UNL d   1      39.865  22.274   5.699 -0.06 +0.19    +0.473    43.231
ATOM      9  O   UNL d   1      39.309  22.352   4.320 -0.05 -0.06    -0.228    43.231
ATOM     10  O   UNL d   1      38.741  22.288   6.831 -0.38 -0.38    -0.303    43.231
ATOM     11  H   UNL d   1      39.148  22.107   7.698 +0.04 +0.26    +0.222    43.231
ATOM     12  O   UNL d   1      40.797  23.482   6.140 -0.01 -0.08    -0.303    43.231
ATOM     13  H   UNL d   1      40.564  23.846   7.024 +0.02 +0.08    +0.222    43.231
ATOM     14  O   UNL d   1      41.818  18.685   7.027 -0.12 -0.03    -0.278    43.231
ATOM     15  P   UNL d   1      41.752  17.484   5.969 -0.13 +0.01    +0.473    43.231
ATOM     16  O   UNL d   1      42.593  17.626   4.738 -0.07 -0.01    -0.228    43.231
ATOM     17  O   UNL d   1      42.124  16.193   6.825 -0.22 +0.03    -0.303    43.231
ATOM     18  H   UNL d   1      43.007  16.282   7.231 +0.07 -0.01    +0.222    43.231
ATOM     19  O   UNL d   1      40.198  17.263   5.716 -0.24 -0.01    -0.303    43.231
ATOM     20  H   UNL d   1      39.819  16.618   6.341 -0.37 -0.03    +0.222    43.231
ATOM     21  O   UNL d   1      40.951  22.707   8.262 -0.04 -0.10    -0.278    43.231
ATOM     22  P   UNL d   1      40.032  23.185   9.475 -0.06 +0.24    +0.473    43.231
ATOM     23  O   UNL d   1      40.679  23.910  10.607 -0.02 -0.05    -0.228    43.231
ATOM     24  O   UNL d   1      38.896  24.005   8.720 -0.39 -0.30    -0.303    43.231
ATOM     25  H   UNL d   1      39.193  24.153   7.786 +0.02 +0.17    +0.222    43.231
ATOM     26  O   UNL d   1      39.265  21.829   9.855 -0.08 -0.22    -0.303    43.231
ATOM     27  H   UNL d   1      39.920  21.115   9.987 +0.07 +0.10    +0.222    43.231
ATOM     28  O   UNL d   1      44.373  18.426   7.698 -0.02 -0.01    -0.278    43.231
ATOM     29  P   UNL d   1      43.904  17.426   8.845 -0.08 +0.01    +0.473    43.231
ATOM     30  O   UNL d   1      42.438  17.360   9.078 -0.25 -0.01    -0.228    43.231
ATOM     31  O   UNL d   1      44.623  16.082   8.356 -0.09 +0.00    -0.303    43.231
ATOM     32  H   UNL d   1      43.980  15.558   7.825 +0.08 -0.01    +0.222    43.231
ATOM     33  O   UNL d   1      44.808  17.880  10.075 -0.03 -0.01    -0.303    43.231
ATOM     34  H   UNL d   1      44.275  18.467  10.665 +0.04 +0.01    +0.222    43.231
ATOM     35  O   UNL d   1      42.040  21.243  10.543 -0.04 -0.04    -0.278    43.231
ATOM     36  P   UNL d   1      41.506  19.848  11.102 -0.15 +0.06    +0.473    43.231
ATOM     37  O   UNL d   1      42.502  19.036  11.866 -0.13 -0.01    -0.228    43.231
ATOM     38  O   UNL d   1      40.239  20.301  11.953 -0.23 -0.05    -0.303    43.231
ATOM     39  H   UNL d   1      40.075  21.257  11.801 +0.07 +0.04    +0.222    43.231
ATOM     40  O   UNL d   1      40.875  19.181   9.803 -0.15 -0.06    -0.303    43.231
ATOM     41  H   UNL d   1      41.568  18.829   9.201 +0.08 +0.03    +0.222    43.231
ATOM     42  O   UNL d   1      44.716  20.363   9.799 -0.01 -0.01    -0.278    43.231
ATOM     43  P   UNL d   1      45.442  21.764   9.564 -0.00 +0.02    +0.473    43.231
ATOM     44  O   UNL d   1      46.929  21.791   9.656 +0.00 -0.00    -0.228    43.231
ATOM     45  O   UNL d   1      44.869  22.222   8.152 +0.00 -0.02    -0.303    43.231
ATOM     46  H   UNL d   1      45.502  22.798   7.679 +0.00 +0.01    +0.222    43.231
ATOM     47  O   UNL d   1      44.670  22.749  10.565 -0.00 -0.01    -0.303    43.231
ATOM     48  H   UNL d   1      43.919  22.270  10.973 +0.01 +0.01    +0.222    43.231
TER
ENDMDL
MODEL       24
USER    Run = 24
USER    Cluster Rank = 67
USER    Number of conformations in this cluster = 1
USER  
USER    RMSD from reference structure       = 12.303 A
USER  
USER    Estimated Free Energy of Binding    =   +3.78 kcal/mol  [=(1)+(2)+(3)-(4)]
USER    
USER    (1) Final Intermolecular Energy     =   -3.38 kcal/mol
USER        vdW + Hbond + desolv Energy     =   -3.08 kcal/mol
USER        Electrostatic Energy            =   -0.30 kcal/mol
USER    (2) Final Total Internal Energy     =  -14.01 kcal/mol
USER    (3) Torsional Free Energy           =   +7.16 kcal/mol
USER    (4) Unbound System's Energy  [=(2)] =  -14.01 kcal/mol
USER    
USER    
USER  
USER    DPF = D:/Protein_go_brrr/autodock/final/1A3N/IHP/dock.dpf
USER    NEWDPF move	IHP_ideal_opt.pdbqt
USER    NEWDPF about	0.035000 0.082000 -0.065000
USER    NEWDPF tran0	-6.664034 -12.709638 -6.625790
USER    NEWDPF axisangle0	-0.679042 -0.469124 0.564646 -141.728129
USER    NEWDPF quaternion0	-0.641520 -0.443202 0.533445 -0.327810
USER    NEWDPF dihe0	-160.71 -48.48 151.14 127.37 54.71 -119.40 22.73 -62.05 26.34 97.87 -100.32 -169.85 83.98 -112.55 68.95 -38.83 -74.01 -8.08 -41.96 -1.42 21.52 144.45 -179.89 133.33 
USER  
USER                              x       y       z    vdW   Elec        q     RMS 
ATOM      1  C   UNL d   1      -7.582 -11.252  -6.497 -0.08 +0.02    +0.194    12.303
ATOM      2  C   UNL d   1      -7.446 -12.063  -5.207 -0.07 -0.02    +0.194    12.303
ATOM      3  C   UNL d   1      -7.634 -13.561  -5.458 -0.01 -0.03    +0.194    12.303
ATOM      4  C   UNL d   1      -6.745 -14.100  -6.576 -0.01 -0.01    +0.194    12.303
ATOM      5  C   UNL d   1      -6.762 -13.256  -7.844 -0.01 +0.01    +0.194    12.303
ATOM      6  C   UNL d   1      -6.635 -11.753  -7.588 -0.05 +0.02    +0.194    12.303
ATOM      7  O   UNL d   1      -7.224  -9.898  -6.211 -0.17 -0.06    -0.278    12.303
ATOM      8  P   UNL d   1      -7.630  -8.767  -7.265 -0.17 +0.20    +0.473    12.303
ATOM      9  O   UNL d   1      -8.205  -7.529  -6.671 -0.34 -0.13    -0.228    12.303
ATOM     10  O   UNL d   1      -6.289  -8.505  -8.087 -0.16 -0.16    -0.303    12.303
ATOM     11  H   UNL d   1      -5.849  -9.355  -8.275 +0.06 +0.10    +0.222    12.303
ATOM     12  O   UNL d   1      -8.538  -9.509  -8.337 -0.06 -0.13    -0.303    12.303
ATOM     13  H   UNL d   1      -8.030  -9.831  -9.115 +0.04 +0.08    +0.222    12.303
ATOM     14  O   UNL d   1      -6.138 -11.853  -4.659 -0.12 +0.04    -0.278    12.303
ATOM     15  P   UNL d   1      -6.067 -11.462  -3.108 -0.16 -0.16    +0.473    12.303
ATOM     16  O   UNL d   1      -6.824 -10.242  -2.687 -0.28 +0.06    -0.228    12.303
ATOM     17  O   UNL d   1      -6.551 -12.779  -2.354 -0.23 +0.24    -0.303    12.303
ATOM     18  H   UNL d   1      -6.013 -13.551  -2.614 +0.01 -0.20    +0.222    12.303
ATOM     19  O   UNL d   1      -4.512 -11.455  -2.772 -0.24 +0.11    -0.303    12.303
ATOM     20  H   UNL d   1      -4.048 -10.729  -3.228 -0.37 -0.10    +0.222    12.303
ATOM     21  O   UNL d   1      -7.008 -11.097  -8.798 -0.02 -0.06    -0.278    12.303
ATOM     22  P   UNL d   1      -5.951 -10.966  -9.986 -0.01 +0.11    +0.473    12.303
ATOM     23  O   UNL d   1      -6.033 -11.939 -11.113 -0.01 -0.04    -0.228    12.303
ATOM     24  O   UNL d   1      -6.121  -9.440 -10.407 -0.03 -0.12    -0.303    12.303
ATOM     25  H   UNL d   1      -6.931  -9.086  -9.959 +0.04 +0.09    +0.222    12.303
ATOM     26  O   UNL d   1      -4.563 -10.935  -9.184 -0.06 -0.09    -0.303    12.303
ATOM     27  H   UNL d   1      -4.419 -11.804  -8.755 +0.02 +0.04    +0.222    12.303
ATOM     28  O   UNL d   1      -7.221 -14.247  -4.283 -0.03 +0.10    -0.278    12.303
ATOM     29  P   UNL d   1      -5.828 -15.020  -4.251 -0.02 -0.18    +0.473    12.303
ATOM     30  O   UNL d   1      -5.718 -16.180  -5.172 -0.01 +0.05    -0.228    12.303
ATOM     31  O   UNL d   1      -4.825 -13.798  -4.498 -0.04 +0.07    -0.303    12.303
ATOM     32  H   UNL d   1      -4.769 -13.265  -3.672 +0.08 -0.08    +0.222    12.303
ATOM     33  O   UNL d   1      -5.646 -15.315  -2.697 -0.07 +0.32    -0.303    12.303
ATOM     34  H   UNL d   1      -6.398 -14.906  -2.202 -0.47 -0.41    +0.222    12.303
ATOM     35  O   UNL d   1      -5.613 -13.654  -8.588 -0.01 -0.01    -0.278    12.303
ATOM     36  P   UNL d   1      -4.184 -13.732  -7.883 -0.01 +0.02    +0.473    12.303
ATOM     37  O   UNL d   1      -3.973 -12.781  -6.748 -0.05 -0.01    -0.228    12.303
ATOM     38  O   UNL d   1      -4.106 -15.268  -7.473 -0.00 +0.01    -0.303    12.303
ATOM     39  H   UNL d   1      -4.968 -15.543  -7.092 +0.00 -0.01    +0.222    12.303
ATOM     40  O   UNL d   1      -3.188 -13.614  -9.118 -0.01 -0.03    -0.303    12.303
ATOM     41  H   UNL d   1      -3.352 -12.799  -9.641 +0.01 +0.03    +0.222    12.303
ATOM     42  O   UNL d   1      -7.254 -15.392  -6.923 +0.00 +0.02    -0.278    12.303
ATOM     43  P   UNL d   1      -8.771 -15.743  -6.576 +0.00 -0.04    +0.473    12.303
ATOM     44  O   UNL d   1      -9.779 -14.657  -6.730 +0.00 +0.01    -0.228    12.303
ATOM     45  O   UNL d   1      -9.050 -17.023  -7.480 +0.00 +0.02    -0.303    12.303
ATOM     46  H   UNL d   1      -9.990 -17.288  -7.444 +0.00 -0.01    +0.222    12.303
ATOM     47  O   UNL d   1      -8.671 -16.392  -5.114 +0.00 +0.06    -0.303    12.303
ATOM     48  H   UNL d   1      -7.763 -16.271  -4.768 +0.01 -0.06    +0.222    12.303
TER
ENDMDL
MODEL       85
USER    Run = 85
USER    Cluster Rank = 68
USER    Number of conformations in this cluster = 1
USER  
USER    RMSD from reference structure       = 26.490 A
USER  
USER    Estimated Free Energy of Binding    =   +3.81 kcal/mol  [=(1)+(2)+(3)-(4)]
USER    
USER    (1) Final Intermolecular Energy     =   -3.35 kcal/mol
USER        vdW + Hbond + desolv Energy     =   -3.25 kcal/mol
USER        Electrostatic Energy            =   -0.10 kcal/mol
USER    (2) Final Total Internal Energy     =  -12.16 kcal/mol
USER    (3) Torsional Free Energy           =   +7.16 kcal/mol
USER    (4) Unbound System's Energy  [=(2)] =  -12.16 kcal/mol
USER    
USER    
USER  
USER    DPF = D:/Protein_go_brrr/autodock/final/1A3N/IHP/dock.dpf
USER    NEWDPF move	IHP_ideal_opt.pdbqt
USER    NEWDPF about	0.035000 0.082000 -0.065000
USER    NEWDPF tran0	10.140924 26.922523 6.973980
USER    NEWDPF axisangle0	0.609017 0.505009 0.611607 158.565264
USER    NEWDPF quaternion0	0.598394 0.496200 0.600939 0.185964
USER    NEWDPF dihe0	79.88 39.93 94.38 89.04 67.51 -51.63 -0.06 -142.46 -90.07 51.00 108.53 106.07 -35.98 128.84 -43.56 -143.17 14.21 17.84 13.97 -13.74 -41.38 25.69 -6.53 -179.93 
USER  
USER                              x       y       z    vdW   Elec        q     RMS 
ATOM      1  C   UNL d   1       9.569  28.424   7.609 -0.07 +0.09    +0.194    26.490
ATOM      2  C   UNL d   1       8.983  28.012   6.258 -0.08 +0.09    +0.194    26.490
ATOM      3  C   UNL d   1      10.056  27.457   5.320 -0.05 +0.06    +0.194    26.490
ATOM      4  C   UNL d   1      10.890  26.345   5.950 -0.04 +0.06    +0.194    26.490
ATOM      5  C   UNL d   1      11.400  26.668   7.349 -0.06 +0.06    +0.194    26.490
ATOM      6  C   UNL d   1      10.341  27.280   8.268 -0.09 +0.09    +0.194    26.490
ATOM      7  O   UNL d   1       8.487  28.764   8.480 -0.11 -0.24    -0.278    26.490
ATOM      8  P   UNL d   1       8.270  30.302   8.855 -0.09 +0.09    +0.473    26.490
ATOM      9  O   UNL d   1       8.986  31.271   7.982 -0.01 -0.02    -0.228    26.490
ATOM     10  O   UNL d   1       6.686  30.486   8.831 -0.13 -0.02    -0.303    26.490
ATOM     11  H   UNL d   1       6.379  30.557   7.908 +0.05 +0.05    +0.222    26.490
ATOM     12  O   UNL d   1       8.592  30.397  10.408 -0.11 +0.02    -0.303    26.490
ATOM     13  H   UNL d   1       8.766  29.521  10.820 +0.04 +0.02    +0.222    26.490
ATOM     14  O   UNL d   1       7.992  26.997   6.468 -0.33 -0.25    -0.278    26.490
ATOM     15  P   UNL d   1       6.495  27.357   6.029 -0.14 +0.41    +0.473    26.490
ATOM     16  O   UNL d   1       5.441  26.340   6.338 -0.44 -0.20    -0.228    26.490
ATOM     17  O   UNL d   1       6.216  28.765   6.720 -0.29 -0.28    -0.303    26.490
ATOM     18  H   UNL d   1       6.984  29.056   7.247 +0.06 +0.20    +0.222    26.490
ATOM     19  O   UNL d   1       6.620  27.771   4.498 -0.14 -0.12    -0.303    26.490
ATOM     20  H   UNL d   1       7.360  27.313   4.060 +0.06 +0.08    +0.222    26.490
ATOM     21  O   UNL d   1      11.035  27.832   9.385 -0.04 -0.07    -0.278    26.490
ATOM     22  P   UNL d   1      10.380  27.761  10.838 -0.11 +0.07    +0.473    26.490
ATOM     23  O   UNL d   1       8.938  27.394  10.944 -0.30 -0.13    -0.228    26.490
ATOM     24  O   UNL d   1      11.376  26.778  11.596 -0.11 -0.01    -0.303    26.490
ATOM     25  H   UNL d   1      12.099  26.527  10.967 +0.06 +0.02    +0.222    26.490
ATOM     26  O   UNL d   1      10.790  29.185  11.450 -0.09 +0.05    -0.303    26.490
ATOM     27  H   UNL d   1      10.009  29.585  11.884 -0.41 -0.06    +0.222    26.490
ATOM     28  O   UNL d   1       9.392  26.853   4.218 -0.05 -0.08    -0.278    26.490
ATOM     29  P   UNL d   1       9.914  27.093   2.732 -0.00 +0.09    +0.473    26.490
ATOM     30  O   UNL d   1       9.008  26.627   1.651 -0.03 -0.04    -0.228    26.490
ATOM     31  O   UNL d   1      10.222  28.662   2.796 -0.00 -0.04    -0.303    26.490
ATOM     32  H   UNL d   1      10.793  28.839   3.579 +0.01 +0.03    +0.222    26.490
ATOM     33  O   UNL d   1      11.368  26.447   2.781 -0.02 -0.05    -0.303    26.490
ATOM     34  H   UNL d   1      12.002  27.109   3.152 +0.01 +0.03    +0.222    26.490
ATOM     35  O   UNL d   1      11.781  25.418   7.920 +0.03 -0.10    -0.278    26.490
ATOM     36  P   UNL d   1      13.261  25.206   8.476 -0.04 +0.12    +0.473    26.490
ATOM     37  O   UNL d   1      13.687  26.151   9.554 -0.02 -0.03    -0.228    26.490
ATOM     38  O   UNL d   1      13.226  23.677   8.922 -0.09 -0.11    -0.303    26.490
ATOM     39  H   UNL d   1      13.954  23.511   9.559 +0.03 +0.06    +0.222    26.490
ATOM     40  O   UNL d   1      14.127  25.195   7.142 -0.05 -0.07    -0.303    26.490
ATOM     41  H   UNL d   1      13.595  25.462   6.360 +0.02 +0.05    +0.222    26.490
ATOM     42  O   UNL d   1      12.038  26.163   5.115 -0.07 -0.07    -0.278    26.490
ATOM     43  P   UNL d   1      13.143  27.312   5.061 -0.02 +0.07    +0.473    26.490
ATOM     44  O   UNL d   1      13.879  27.616   6.320 -0.01 -0.03    -0.228    26.490
ATOM     45  O   UNL d   1      14.075  26.844   3.859 -0.01 -0.04    -0.303    26.490
ATOM     46  H   UNL d   1      13.556  26.415   3.150 +0.01 +0.03    +0.222    26.490
ATOM     47  O   UNL d   1      12.358  28.545   4.404 -0.00 -0.04    -0.303    26.490
ATOM     48  H   UNL d   1      12.249  28.383   3.444 +0.01 +0.02    +0.222    26.490
TER
ENDMDL
MODEL       62
USER    Run = 62
USER    Cluster Rank = 69
USER    Number of conformations in this cluster = 1
USER  
USER    RMSD from reference structure       = 27.137 A
USER  
USER    Estimated Free Energy of Binding    =   +3.85 kcal/mol  [=(1)+(2)+(3)-(4)]
USER    
USER    (1) Final Intermolecular Energy     =   -3.30 kcal/mol
USER        vdW + Hbond + desolv Energy     =   -3.35 kcal/mol
USER        Electrostatic Energy            =   +0.04 kcal/mol
USER    (2) Final Total Internal Energy     =  -14.85 kcal/mol
USER    (3) Torsional Free Energy           =   +7.16 kcal/mol
USER    (4) Unbound System's Energy  [=(2)] =  -14.85 kcal/mol
USER    
USER    
USER  
USER    DPF = D:/Protein_go_brrr/autodock/final/1A3N/IHP/dock.dpf
USER    NEWDPF move	IHP_ideal_opt.pdbqt
USER    NEWDPF about	0.035000 0.082000 -0.065000
USER    NEWDPF tran0	-9.609989 24.311744 14.111790
USER    NEWDPF axisangle0	-0.217748 -0.803222 -0.554456 -105.315260
USER    NEWDPF quaternion0	-0.173115 -0.638581 -0.440806 -0.606576
USER    NEWDPF dihe0	148.40 73.00 164.18 -2.98 10.40 180.00 69.88 -84.51 100.30 3.86 7.88 -166.21 144.31 -169.19 -51.26 -117.32 130.12 -13.24 43.89 3.82 -174.64 3.23 -5.72 176.39 
USER  
USER                              x       y       z    vdW   Elec        q     RMS 
ATOM      1  C   UNL d   1     -11.029  24.040  15.059 -0.18 -0.01    +0.194    27.137
ATOM      2  C   UNL d   1     -11.152  23.703  13.572 -0.15 -0.01    +0.194    27.137
ATOM      3  C   UNL d   1     -10.505  24.775  12.692 -0.10 -0.00    +0.194    27.137
ATOM      4  C   UNL d   1      -9.067  25.095  13.094 -0.15 +0.00    +0.194    27.137
ATOM      5  C   UNL d   1      -8.877  25.325  14.588 -0.20 +0.00    +0.194    27.137
ATOM      6  C   UNL d   1      -9.577  24.288  15.469 -0.17 -0.00    +0.194    27.137
ATOM      7  O   UNL d   1     -11.499  22.919  15.811 -0.23 +0.01    -0.278    27.137
ATOM      8  P   UNL d   1     -13.076  22.713  15.962 -0.13 +0.05    +0.473    27.137
ATOM      9  O   UNL d   1     -13.489  21.772  17.038 -0.23 -0.07    -0.228    27.137
ATOM     10  O   UNL d   1     -13.641  24.191  16.168 -0.02 -0.01    -0.303    27.137
ATOM     11  H   UNL d   1     -12.898  24.809  16.301 +0.04 +0.00    +0.222    27.137
ATOM     12  O   UNL d   1     -13.588  22.363  14.499 -0.09 -0.02    -0.303    27.137
ATOM     13  H   UNL d   1     -12.903  21.926  13.945 +0.07 -0.01    +0.222    27.137
ATOM     14  O   UNL d   1     -10.501  22.452  13.321 -0.23 +0.05    -0.278    27.137
ATOM     15  P   UNL d   1     -11.284  21.411  12.390 -0.19 -0.12    +0.473    27.137
ATOM     16  O   UNL d   1     -11.748  20.145  13.040 -0.30 +0.15    -0.228    27.137
ATOM     17  O   UNL d   1     -12.481  22.264  11.777 -0.05 +0.05    -0.303    27.137
ATOM     18  H   UNL d   1     -12.149  22.939  11.154 +0.05 -0.02    +0.222    27.137
ATOM     19  O   UNL d   1     -10.342  21.225  11.122 -0.19 +0.04    -0.303    27.137
ATOM     20  H   UNL d   1     -10.229  22.060  10.631 +0.08 -0.01    +0.222    27.137
ATOM     21  O   UNL d   1      -9.600  24.819  16.792 -0.11 -0.01    -0.278    27.137
ATOM     22  P   UNL d   1     -10.745  25.848  17.211 -0.05 -0.00    +0.473    27.137
ATOM     23  O   UNL d   1     -11.458  26.589  16.131 -0.02 -0.00    -0.228    27.137
ATOM     24  O   UNL d   1     -11.679  24.941  18.126 -0.08 +0.01    -0.303    27.137
ATOM     25  H   UNL d   1     -11.950  24.147  17.598 +0.06 -0.01    +0.222    27.137
ATOM     26  O   UNL d   1      -9.989  26.749  18.301 -0.02 -0.00    -0.303    27.137
ATOM     27  H   UNL d   1      -9.046  26.491  18.334 +0.04 +0.00    +0.222    27.137
ATOM     28  O   UNL d   1     -10.420  24.252  11.373 -0.08 +0.00    -0.278    27.137
ATOM     29  P   UNL d   1     -11.271  24.902  10.194 -0.01 -0.01    +0.473    27.137
ATOM     30  O   UNL d   1     -11.808  23.948   9.190 -0.02 +0.01    -0.228    27.137
ATOM     31  O   UNL d   1     -12.339  25.736  11.047 -0.00 +0.00    -0.303    27.137
ATOM     32  H   UNL d   1     -12.268  26.686  10.796 +0.01 -0.00    +0.222    27.137
ATOM     33  O   UNL d   1     -10.289  26.035   9.657 -0.02 +0.00    -0.303    27.137
ATOM     34  H   UNL d   1      -9.677  26.301  10.387 +0.03 +0.00    +0.222    27.137
ATOM     35  O   UNL d   1      -7.476  25.200  14.824 -0.25 +0.01    -0.278    27.137
ATOM     36  P   UNL d   1      -6.671  26.379  15.535 -0.13 +0.04    +0.473    27.137
ATOM     37  O   UNL d   1      -5.238  26.086  15.845 -0.23 -0.04    -0.228    27.137
ATOM     38  O   UNL d   1      -6.887  27.583  14.514 -0.06 -0.04    -0.303    27.137
ATOM     39  H   UNL d   1      -7.753  27.472  14.066 +0.05 +0.02    +0.222    27.137
ATOM     40  O   UNL d   1      -7.616  26.744  16.762 -0.06 -0.02    -0.303    27.137
ATOM     41  H   UNL d   1      -8.566  26.692  16.517 +0.05 +0.01    +0.222    27.137
ATOM     42  O   UNL d   1      -8.713  26.313  12.432 -0.07 -0.01    -0.278    27.137
ATOM     43  P   UNL d   1      -9.478  27.656  12.826 -0.00 +0.02    +0.473    27.137
ATOM     44  O   UNL d   1      -9.932  27.799  14.237 -0.01 -0.01    -0.228    27.137
ATOM     45  O   UNL d   1      -8.465  28.788  12.350 -0.01 -0.02    -0.303    27.137
ATOM     46  H   UNL d   1      -7.633  28.762  12.863 +0.03 +0.02    +0.222    27.137
ATOM     47  O   UNL d   1     -10.629  27.761  11.715 -0.00 -0.00    -0.303    27.137
ATOM     48  H   UNL d   1     -10.694  26.909  11.236 +0.02 +0.00    +0.222    27.137
TER
ENDMDL
MODEL        2
USER    Run = 2
USER    Cluster Rank = 70
USER    Number of conformations in this cluster = 1
USER  
USER    RMSD from reference structure       = 12.467 A
USER  
USER    Estimated Free Energy of Binding    =   +3.88 kcal/mol  [=(1)+(2)+(3)-(4)]
USER    
USER    (1) Final Intermolecular Energy     =   -3.28 kcal/mol
USER        vdW + Hbond + desolv Energy     =   -3.00 kcal/mol
USER        Electrostatic Energy            =   -0.29 kcal/mol
USER    (2) Final Total Internal Energy     =  -13.20 kcal/mol
USER    (3) Torsional Free Energy           =   +7.16 kcal/mol
USER    (4) Unbound System's Energy  [=(2)] =  -13.20 kcal/mol
USER    
USER    
USER  
USER    DPF = D:/Protein_go_brrr/autodock/final/1A3N/IHP/dock.dpf
USER    NEWDPF move	IHP_ideal_opt.pdbqt
USER    NEWDPF about	0.035000 0.082000 -0.065000
USER    NEWDPF tran0	-3.842220 -4.433650 -13.645204
USER    NEWDPF axisangle0	0.225836 -0.959163 -0.170307 -161.833844
USER    NEWDPF quaternion0	0.223004 -0.947136 -0.168172 -0.157866
USER    NEWDPF dihe0	135.35 75.94 -15.20 -29.96 138.34 97.18 140.60 -25.33 6.50 51.72 102.40 148.48 144.97 180.00 90.43 40.47 -3.94 120.82 7.46 -47.50 -33.75 -49.19 174.06 -4.08 
USER  
USER                              x       y       z    vdW   Elec        q     RMS 
ATOM      1  C   UNL d   1      -4.876  -5.583 -14.417 -0.01 +0.07    +0.194    12.467
ATOM      2  C   UNL d   1      -3.379  -5.759 -14.679 -0.00 +0.07    +0.194    12.467
ATOM      3  C   UNL d   1      -2.690  -4.420 -14.950 -0.01 +0.09    +0.194    12.467
ATOM      4  C   UNL d   1      -2.967  -3.373 -13.875 -0.09 +0.12    +0.194    12.467
ATOM      5  C   UNL d   1      -4.438  -3.244 -13.499 -0.10 +0.11    +0.194    12.467
ATOM      6  C   UNL d   1      -5.143  -4.586 -13.288 -0.04 +0.10    +0.194    12.467
ATOM      7  O   UNL d   1      -5.409  -6.844 -14.006 -0.00 -0.09    -0.278    12.467
ATOM      8  P   UNL d   1      -6.480  -7.560 -14.951 +0.00 +0.10    +0.473    12.467
ATOM      9  O   UNL d   1      -7.267  -8.645 -14.303 +0.00 -0.05    -0.228    12.467
ATOM     10  O   UNL d   1      -7.385  -6.361 -15.487 +0.00 -0.06    -0.303    12.467
ATOM     11  H   UNL d   1      -7.320  -5.604 -14.875 +0.01 +0.06    +0.222    12.467
ATOM     12  O   UNL d   1      -5.670  -7.973 -16.254 +0.00 -0.05    -0.303    12.467
ATOM     13  H   UNL d   1      -4.724  -8.175 -16.072 +0.00 +0.04    +0.222    12.467
ATOM     14  O   UNL d   1      -2.772  -6.362 -13.530 -0.02 -0.15    -0.278    12.467
ATOM     15  P   UNL d   1      -2.848  -7.959 -13.434 -0.01 +0.20    +0.473    12.467
ATOM     16  O   UNL d   1      -3.457  -8.529 -12.192 -0.04 -0.12    -0.228    12.467
ATOM     17  O   UNL d   1      -3.625  -8.389 -14.757 +0.00 -0.08    -0.303    12.467
ATOM     18  H   UNL d   1      -4.512  -8.737 -14.546 +0.00 +0.05    +0.222    12.467
ATOM     19  O   UNL d   1      -1.369  -8.446 -13.760 -0.00 -0.10    -0.303    12.467
ATOM     20  H   UNL d   1      -1.240  -8.595 -14.715 +0.00 +0.05    +0.222    12.467
ATOM     21  O   UNL d   1      -6.544  -4.319 -13.288 -0.02 -0.11    -0.278    12.467
ATOM     22  P   UNL d   1      -7.480  -5.007 -12.195 -0.01 +0.20    +0.473    12.467
ATOM     23  O   UNL d   1      -8.260  -4.124 -11.279 -0.06 -0.11    -0.228    12.467
ATOM     24  O   UNL d   1      -8.362  -5.985 -13.089 -0.00 -0.10    -0.303    12.467
ATOM     25  H   UNL d   1      -7.785  -6.735 -13.385 +0.01 +0.07    +0.222    12.467
ATOM     26  O   UNL d   1      -6.464  -6.027 -11.491 -0.05 -0.17    -0.303    12.467
ATOM     27  H   UNL d   1      -6.334  -6.804 -12.072 +0.03 +0.11    +0.222    12.467
ATOM     28  O   UNL d   1      -1.286  -4.645 -14.905 -0.00 -0.11    -0.278    12.467
ATOM     29  P   UNL d   1      -0.598  -5.647 -15.934 +0.02 +0.13    +0.473    12.467
ATOM     30  O   UNL d   1      -1.430  -6.036 -17.102 +0.00 -0.05    -0.228    12.467
ATOM     31  O   UNL d   1       0.754  -4.847 -16.240 +0.00 -0.08    -0.303    12.467
ATOM     32  H   UNL d   1       1.194  -5.261 -17.018 +0.00 +0.04    +0.222    12.467
ATOM     33  O   UNL d   1      -0.104  -6.820 -14.978 +0.00 -0.08    -0.303    12.467
ATOM     34  H   UNL d   1      -0.750  -6.924 -14.237 +0.01 +0.08    +0.222    12.467
ATOM     35  O   UNL d   1      -4.459  -2.558 -12.248 -0.19 -0.19    -0.278    12.467
ATOM     36  P   UNL d   1      -3.636  -3.126 -11.005 -0.24 +0.50    +0.473    12.467
ATOM     37  O   UNL d   1      -2.281  -3.671 -11.324 -0.31 -0.29    -0.228    12.467
ATOM     38  O   UNL d   1      -3.624  -1.872 -10.023 -0.45 -0.20    -0.303    12.467
ATOM     39  H   UNL d   1      -3.131  -1.137 -10.447 +0.03 +0.13    +0.222    12.467
ATOM     40  O   UNL d   1      -4.677  -4.125 -10.337 -0.66 -0.41    -0.303    12.467
ATOM     41  H   UNL d   1      -5.463  -4.269 -10.909 +0.10 +0.19    +0.222    12.467
ATOM     42  O   UNL d   1      -2.558  -2.110 -14.410 -0.13 -0.23    -0.278    12.467
ATOM     43  P   UNL d   1      -1.342  -1.339 -13.724 -0.21 +0.39    +0.473    12.467
ATOM     44  O   UNL d   1      -0.743  -0.198 -14.471 -0.41 -0.27    -0.228    12.467
ATOM     45  O   UNL d   1      -1.938  -0.944 -12.302 -0.22 -0.22    -0.303    12.467
ATOM     46  H   UNL d   1      -2.610  -1.589 -12.004 +0.11 +0.16    +0.222    12.467
ATOM     47  O   UNL d   1      -0.331  -2.520 -13.336 -0.14 -0.16    -0.303    12.467
ATOM     48  H   UNL d   1      -0.844  -3.325 -13.116 +0.07 +0.13    +0.222    12.467
TER
ENDMDL
MODEL        4
USER    Run = 4
USER    Cluster Rank = 71
USER    Number of conformations in this cluster = 1
USER  
USER    RMSD from reference structure       = 36.736 A
USER  
USER    Estimated Free Energy of Binding    =   +3.89 kcal/mol  [=(1)+(2)+(3)-(4)]
USER    
USER    (1) Final Intermolecular Energy     =   -3.27 kcal/mol
USER        vdW + Hbond + desolv Energy     =   -3.25 kcal/mol
USER        Electrostatic Energy            =   -0.02 kcal/mol
USER    (2) Final Total Internal Energy     =  -13.76 kcal/mol
USER    (3) Torsional Free Energy           =   +7.16 kcal/mol
USER    (4) Unbound System's Energy  [=(2)] =  -13.76 kcal/mol
USER    
USER    
USER  
USER    DPF = D:/Protein_go_brrr/autodock/final/1A3N/IHP/dock.dpf
USER    NEWDPF move	IHP_ideal_opt.pdbqt
USER    NEWDPF about	0.035000 0.082000 -0.065000
USER    NEWDPF tran0	36.811678 -16.951654 5.433437
USER    NEWDPF axisangle0	0.458204 -0.514357 0.724904 -155.032259
USER    NEWDPF quaternion0	0.447371 -0.502196 0.707765 -0.216165
USER    NEWDPF dihe0	84.36 50.51 148.21 -6.94 21.54 124.96 -101.51 11.92 -6.05 33.33 104.22 -155.87 151.31 180.00 -68.06 -173.71 -129.86 146.73 52.32 13.61 -180.00 22.73 151.35 -12.29 
USER  
USER                              x       y       z    vdW   Elec        q     RMS 
ATOM      1  C   UNL d   1      37.177 -17.489   7.034 -0.10 -0.01    +0.194    36.736
ATOM      2  C   UNL d   1      38.263 -16.654   6.353 -0.05 -0.01    +0.194    36.736
ATOM      3  C   UNL d   1      38.463 -17.065   4.893 -0.02 -0.01    +0.194    36.736
ATOM      4  C   UNL d   1      37.164 -17.087   4.091 -0.03 -0.01    +0.194    36.736
ATOM      5  C   UNL d   1      36.018 -17.813   4.785 -0.06 -0.01    +0.194    36.736
ATOM      6  C   UNL d   1      35.858 -17.447   6.262 -0.13 -0.01    +0.194    36.736
ATOM      7  O   UNL d   1      36.932 -16.934   8.328 -0.14 +0.01    -0.278    36.736
ATOM      8  P   UNL d   1      38.060 -17.093   9.448 -0.14 -0.03    +0.473    36.736
ATOM      9  O   UNL d   1      37.574 -16.994  10.852 -0.32 +0.02    -0.228    36.736
ATOM     10  O   UNL d   1      38.739 -18.498   9.117 -0.08 +0.01    -0.303    36.736
ATOM     11  H   UNL d   1      38.137 -19.221   9.372 +0.07 -0.00    +0.222    36.736
ATOM     12  O   UNL d   1      39.200 -16.066   9.035 -0.09 +0.04    -0.303    36.736
ATOM     13  H   UNL d   1      38.955 -15.508   8.263 +0.09 -0.03    +0.222    36.736
ATOM     14  O   UNL d   1      37.881 -15.273   6.391 -0.10 +0.02    -0.278    36.736
ATOM     15  P   UNL d   1      39.064 -14.207   6.563 -0.13 -0.05    +0.473    36.736
ATOM     16  O   UNL d   1      38.949 -13.255   7.711 -0.27 +0.07    -0.228    36.736
ATOM     17  O   UNL d   1      40.382 -15.099   6.630 -0.04 +0.02    -0.303    36.736
ATOM     18  H   UNL d   1      40.431 -15.712   5.871 +0.03 -0.01    +0.222    36.736
ATOM     19  O   UNL d   1      39.205 -13.536   5.127 -0.09 +0.01    -0.303    36.736
ATOM     20  H   UNL d   1      39.526 -14.173   4.462 +0.05 -0.00    +0.222    36.736
ATOM     21  O   UNL d   1      35.003 -18.432   6.840 -0.17 +0.02    -0.278    36.736
ATOM     22  P   UNL d   1      35.587 -19.871   7.204 -0.16 -0.04    +0.473    36.736
ATOM     23  O   UNL d   1      36.584 -20.482   6.277 -0.06 +0.02    -0.228    36.736
ATOM     24  O   UNL d   1      36.109 -19.645   8.690 -0.19 +0.01    -0.303    36.736
ATOM     25  H   UNL d   1      36.596 -18.783   8.718 +0.09 -0.00    +0.222    36.736
ATOM     26  O   UNL d   1      34.245 -20.714   7.448 -0.24 +0.05    -0.303    36.736
ATOM     27  H   UNL d   1      33.658 -20.216   8.052 -0.47 -0.11    +0.222    36.736
ATOM     28  O   UNL d   1      39.271 -16.071   4.275 -0.01 +0.01    -0.278    36.736
ATOM     29  P   UNL d   1      40.509 -16.493   3.366 +0.00 -0.01    +0.473    36.736
ATOM     30  O   UNL d   1      40.995 -15.452   2.424 -0.00 +0.00    -0.228    36.736
ATOM     31  O   UNL d   1      41.530 -16.984   4.496 +0.00 +0.00    -0.303    36.736
ATOM     32  H   UNL d   1      41.586 -16.289   5.193 +0.02 -0.00    +0.222    36.736
ATOM     33  O   UNL d   1      40.005 -17.862   2.729 +0.00 +0.01    -0.303    36.736
ATOM     34  H   UNL d   1      39.293 -17.667   2.072 +0.00 -0.01    +0.222    36.736
ATOM     35  O   UNL d   1      34.831 -17.391   4.117 -0.05 +0.03    -0.278    36.736
ATOM     36  P   UNL d   1      34.193 -15.964   4.434 -0.10 -0.03    +0.473    36.736
ATOM     37  O   UNL d   1      33.267 -15.918   5.608 -0.26 +0.02    -0.228    36.736
ATOM     38  O   UNL d   1      35.490 -15.054   4.587 -0.19 -0.01    -0.303    36.736
ATOM     39  H   UNL d   1      35.906 -15.231   5.458 +0.09 -0.00    +0.222    36.736
ATOM     40  O   UNL d   1      33.592 -15.540   3.024 -0.06 +0.01    -0.303    36.736
ATOM     41  H   UNL d   1      33.864 -16.160   2.311 +0.05 -0.02    +0.222    36.736
ATOM     42  O   UNL d   1      37.438 -17.796   2.878 -0.01 +0.02    -0.278    36.736
ATOM     43  P   UNL d   1      37.159 -17.073   1.483 +0.00 -0.03    +0.473    36.736
ATOM     44  O   UNL d   1      37.179 -17.917   0.256 -0.00 +0.02    -0.228    36.736
ATOM     45  O   UNL d   1      35.773 -16.336   1.743 -0.02 +0.02    -0.303    36.736
ATOM     46  H   UNL d   1      35.679 -16.069   2.679 +0.04 -0.01    +0.222    36.736
ATOM     47  O   UNL d   1      38.189 -15.845   1.495 -0.01 +0.01    -0.303    36.736
ATOM     48  H   UNL d   1      38.928 -16.049   2.105 +0.01 -0.01    +0.222    36.736
TER
ENDMDL
MODEL       91
USER    Run = 91
USER    Cluster Rank = 72
USER    Number of conformations in this cluster = 1
USER  
USER    RMSD from reference structure       = 35.184 A
USER  
USER    Estimated Free Energy of Binding    =   +3.93 kcal/mol  [=(1)+(2)+(3)-(4)]
USER    
USER    (1) Final Intermolecular Energy     =   -3.23 kcal/mol
USER        vdW + Hbond + desolv Energy     =   -2.94 kcal/mol
USER        Electrostatic Energy            =   -0.29 kcal/mol
USER    (2) Final Total Internal Energy     =  -15.78 kcal/mol
USER    (3) Torsional Free Energy           =   +7.16 kcal/mol
USER    (4) Unbound System's Energy  [=(2)] =  -15.78 kcal/mol
USER    
USER    
USER  
USER    DPF = D:/Protein_go_brrr/autodock/final/1A3N/IHP/dock.dpf
USER    NEWDPF move	IHP_ideal_opt.pdbqt
USER    NEWDPF about	0.035000 0.082000 -0.065000
USER    NEWDPF tran0	17.331758 28.392512 19.861250
USER    NEWDPF axisangle0	0.152268 -0.909850 -0.385990 -101.046861
USER    NEWDPF quaternion0	0.117533 -0.702299 -0.297940 -0.635763
USER    NEWDPF dihe0	113.46 109.47 151.28 -14.88 106.70 122.14 -124.43 -66.01 94.81 -31.77 89.02 -144.57 -39.22 169.08 -134.81 19.32 -140.35 110.43 -161.63 21.21 -3.26 12.76 -7.17 -0.75 
USER  
USER                              x       y       z    vdW   Elec        q     RMS 
ATOM      1  C   UNL d   1      16.175  27.218  20.377 -0.19 +0.01    +0.194    35.184
ATOM      2  C   UNL d   1      16.563  27.158  18.898 -0.16 +0.01    +0.194    35.184
ATOM      3  C   UNL d   1      16.634  28.554  18.275 -0.10 -0.03    +0.194    35.184
ATOM      4  C   UNL d   1      17.512  29.521  19.064 -0.04 -0.02    +0.194    35.184
ATOM      5  C   UNL d   1      17.237  29.529  20.562 -0.08 -0.02    +0.194    35.184
ATOM      6  C   UNL d   1      17.105  28.133  21.174 -0.14 +0.00    +0.194    35.184
ATOM      7  O   UNL d   1      16.299  25.903  20.924 -0.27 -0.07    -0.278    35.184
ATOM      8  P   UNL d   1      17.763  25.346  21.237 -0.15 +0.23    +0.473    35.184
ATOM      9  O   UNL d   1      18.848  26.365  21.196 -0.06 -0.06    -0.228    35.184
ATOM     10  O   UNL d   1      17.613  24.646  22.663 -0.57 -0.44    -0.303    35.184
ATOM     11  H   UNL d   1      17.096  25.221  23.257 -0.41 +0.15    +0.222    35.184
ATOM     12  O   UNL d   1      17.946  24.098  20.271 -0.16 -0.17    -0.303    35.184
ATOM     13  H   UNL d   1      17.939  24.344  19.319 +0.08 +0.08    +0.222    35.184
ATOM     14  O   UNL d   1      17.849  26.539  18.778 -0.07 -0.03    -0.278    35.184
ATOM     15  P   UNL d   1      18.152  25.780  17.401 -0.04 +0.07    +0.473    35.184
ATOM     16  O   UNL d   1      18.797  24.434  17.503 -0.06 -0.05    -0.228    35.184
ATOM     17  O   UNL d   1      16.740  25.735  16.665 -0.08 -0.04    -0.303    35.184
ATOM     18  H   UNL d   1      16.364  26.631  16.571 +0.05 +0.01    +0.222    35.184
ATOM     19  O   UNL d   1      18.936  26.851  16.523 -0.01 -0.02    -0.303    35.184
ATOM     20  H   UNL d   1      18.339  27.540  16.178 +0.02 +0.01    +0.222    35.184
ATOM     21  O   UNL d   1      16.521  28.302  22.464 -0.02 +0.04    -0.278    35.184
ATOM     22  P   UNL d   1      17.425  28.147  23.769 -0.07 -0.02    +0.473    35.184
ATOM     23  O   UNL d   1      17.288  26.901  24.577 -0.15 -0.03    -0.228    35.184
ATOM     24  O   UNL d   1      18.883  28.410  23.188 -0.02 -0.01    -0.303    35.184
ATOM     25  H   UNL d   1      18.826  29.155  22.538 +0.03 -0.00    +0.222    35.184
ATOM     26  O   UNL d   1      17.123  29.521  24.539 -0.06 +0.05    -0.303    35.184
ATOM     27  H   UNL d   1      17.266  30.271  23.927 +0.01 -0.03    +0.222    35.184
ATOM     28  O   UNL d   1      17.261  28.424  17.005 -0.03 +0.02    -0.278    35.184
ATOM     29  P   UNL d   1      16.522  28.929  15.688 -0.01 -0.08    +0.473    35.184
ATOM     30  O   UNL d   1      15.119  29.381  15.873 -0.09 +0.11    -0.228    35.184
ATOM     31  O   UNL d   1      17.575  30.022  15.179 -0.00 +0.03    -0.303    35.184
ATOM     32  H   UNL d   1      17.524  30.807  15.771 +0.01 -0.03    +0.222    35.184
ATOM     33  O   UNL d   1      16.762  27.716  14.685 -0.02 +0.01    -0.303    35.184
ATOM     34  H   UNL d   1      17.376  27.067  15.107 +0.03 +0.00    +0.222    35.184
ATOM     35  O   UNL d   1      18.375  30.144  21.161 -0.01 +0.01    -0.278    35.184
ATOM     36  P   UNL d   1      18.200  31.432  22.087 -0.01 -0.03    +0.473    35.184
ATOM     37  O   UNL d   1      18.406  32.748  21.407 -0.00 +0.01    -0.228    35.184
ATOM     38  O   UNL d   1      16.733  31.217  22.668 -0.07 +0.05    -0.303    35.184
ATOM     39  H   UNL d   1      16.517  30.260  22.651 -0.03 -0.05    +0.222    35.184
ATOM     40  O   UNL d   1      19.151  31.098  23.317 -0.00 +0.01    -0.303    35.184
ATOM     41  H   UNL d   1      18.765  30.407  23.900 +0.02 -0.01    +0.222    35.184
ATOM     42  O   UNL d   1      17.223  30.836  18.576 -0.01 +0.04    -0.278    35.184
ATOM     43  P   UNL d   1      18.347  31.620  17.759 +0.01 -0.04    +0.473    35.184
ATOM     44  O   UNL d   1      17.896  32.688  16.823 +0.00 +0.02    -0.228    35.184
ATOM     45  O   UNL d   1      19.322  32.130  18.908 -0.00 +0.01    -0.303    35.184
ATOM     46  H   UNL d   1      19.164  31.656  19.748 +0.01 -0.01    +0.222    35.184
ATOM     47  O   UNL d   1      19.209  30.441  17.099 +0.00 +0.01    -0.303    35.184
ATOM     48  H   UNL d   1      18.616  29.694  16.874 +0.01 -0.01    +0.222    35.184
TER
ENDMDL
MODEL       20
USER    Run = 20
USER    Cluster Rank = 73
USER    Number of conformations in this cluster = 1
USER  
USER    RMSD from reference structure       = 49.596 A
USER  
USER    Estimated Free Energy of Binding    =   +4.01 kcal/mol  [=(1)+(2)+(3)-(4)]
USER    
USER    (1) Final Intermolecular Energy     =   -3.15 kcal/mol
USER        vdW + Hbond + desolv Energy     =   -2.58 kcal/mol
USER        Electrostatic Energy            =   -0.58 kcal/mol
USER    (2) Final Total Internal Energy     =  -12.35 kcal/mol
USER    (3) Torsional Free Energy           =   +7.16 kcal/mol
USER    (4) Unbound System's Energy  [=(2)] =  -12.35 kcal/mol
USER    
USER    
USER  
USER    DPF = D:/Protein_go_brrr/autodock/final/1A3N/IHP/dock.dpf
USER    NEWDPF move	IHP_ideal_opt.pdbqt
USER    NEWDPF about	0.035000 0.082000 -0.065000
USER    NEWDPF tran0	37.509283 -11.527853 36.409455
USER    NEWDPF axisangle0	0.851808 0.523318 0.023674 157.735978
USER    NEWDPF quaternion0	0.835782 0.513472 0.023228 0.193070
USER    NEWDPF dihe0	-145.94 27.30 109.69 134.25 119.82 -161.77 179.94 -100.28 160.67 123.09 -25.51 -14.03 -146.13 98.08 129.05 -52.87 44.81 33.72 53.24 9.55 -18.53 147.20 179.94 -174.88 
USER  
USER                              x       y       z    vdW   Elec        q     RMS 
ATOM      1  C   UNL d   1      37.204  -9.836  36.241 -0.13 +0.10    +0.194    49.596
ATOM      2  C   UNL d   1      35.977 -10.704  36.526 -0.08 +0.03    +0.194    49.596
ATOM      3  C   UNL d   1      35.989 -11.991  35.700 -0.06 -0.01    +0.194    49.596
ATOM      4  C   UNL d   1      37.293 -12.775  35.827 -0.02 -0.02    +0.194    49.596
ATOM      5  C   UNL d   1      38.546 -11.926  35.663 -0.07 -0.02    +0.194    49.596
ATOM      6  C   UNL d   1      38.508 -10.609  36.441 -0.09 +0.07    +0.194    49.596
ATOM      7  O   UNL d   1      37.207  -8.748  37.168 -0.18 -0.22    -0.278    49.596
ATOM      8  P   UNL d   1      36.083  -7.622  37.021 -0.12 +0.33    +0.473    49.596
ATOM      9  O   UNL d   1      36.485  -6.430  36.227 -0.63 -0.26    -0.228    49.596
ATOM     10  O   UNL d   1      34.836  -8.399  36.400 -0.19 -0.11    -0.303    49.596
ATOM     11  H   UNL d   1      34.600  -9.151  36.975 +0.08 +0.07    +0.222    49.596
ATOM     12  O   UNL d   1      35.590  -7.335  38.504 -0.06 -0.13    -0.303    49.596
ATOM     13  H   UNL d   1      35.832  -8.049  39.136 +0.03 +0.07    +0.222    49.596
ATOM     14  O   UNL d   1      35.965 -11.053  37.916 -0.01 -0.04    -0.278    49.596
ATOM     15  P   UNL d   1      34.537 -11.065  38.639 +0.01 +0.08    +0.473    49.596
ATOM     16  O   UNL d   1      34.392 -11.966  39.826 +0.00 -0.03    -0.228    49.596
ATOM     17  O   UNL d   1      34.267  -9.535  38.989 -0.01 -0.08    -0.303    49.596
ATOM     18  H   UNL d   1      34.885  -8.950  38.509 +0.05 +0.07    +0.222    49.596
ATOM     19  O   UNL d   1      33.497 -11.311  37.461 -0.02 -0.06    -0.303    49.596
ATOM     20  H   UNL d   1      33.512 -12.237  37.155 +0.04 +0.02    +0.222    49.596
ATOM     21  O   UNL d   1      39.560  -9.795  35.926 -0.40 -0.27    -0.278    49.596
ATOM     22  P   UNL d   1      40.713  -9.281  36.902 -0.02 +0.33    +0.473    49.596
ATOM     23  O   UNL d   1      42.009  -8.855  36.298 -0.04 -0.12    -0.228    49.596
ATOM     24  O   UNL d   1      39.959  -8.151  37.730 -0.04 -0.27    -0.303    49.596
ATOM     25  H   UNL d   1      39.139  -8.549  38.120 +0.02 +0.15    +0.222    49.596
ATOM     26  O   UNL d   1      40.793 -10.476  37.968 -0.00 -0.07    -0.303    49.596
ATOM     27  H   UNL d   1      40.454 -11.297  37.558 +0.01 +0.03    +0.222    49.596
ATOM     28  O   UNL d   1      34.981 -12.847  36.224 -0.01 +0.01    -0.278    49.596
ATOM     29  P   UNL d   1      35.374 -14.066  37.170 +0.01 -0.01    +0.473    49.596
ATOM     30  O   UNL d   1      35.896 -15.272  36.477 +0.00 +0.02    -0.228    49.596
ATOM     31  O   UNL d   1      36.366 -13.325  38.184 +0.00 -0.01    -0.303    49.596
ATOM     32  H   UNL d   1      37.207 -13.836  38.231 +0.00 +0.00    +0.222    49.596
ATOM     33  O   UNL d   1      34.055 -14.252  38.041 -0.00 -0.01    -0.303    49.596
ATOM     34  H   UNL d   1      33.706 -13.361  38.290 +0.01 +0.02    +0.222    49.596
ATOM     35  O   UNL d   1      39.613 -12.702  36.203 -0.01 +0.01    -0.278    49.596
ATOM     36  P   UNL d   1      39.473 -13.369  37.645 +0.01 +0.00    +0.473    49.596
ATOM     37  O   UNL d   1      38.877 -14.741  37.666 +0.00 +0.01    -0.228    49.596
ATOM     38  O   UNL d   1      40.969 -13.298  38.185 +0.00 -0.01    -0.303    49.596
ATOM     39  H   UNL d   1      41.095 -12.454  38.671 +0.00 +0.01    +0.222    49.596
ATOM     40  O   UNL d   1      38.714 -12.240  38.470 +0.00 -0.03    -0.303    49.596
ATOM     41  H   UNL d   1      37.745 -12.259  38.306 +0.01 +0.02    +0.222    49.596
ATOM     42  O   UNL d   1      37.299 -13.743  34.771 -0.02 +0.07    -0.278    49.596
ATOM     43  P   UNL d   1      37.569 -13.253  33.278 -0.05 -0.31    +0.473    49.596
ATOM     44  O   UNL d   1      38.983 -12.994  32.885 -0.10 +0.21    -0.228    49.596
ATOM     45  O   UNL d   1      36.847 -14.373  32.407 -0.04 +0.14    -0.303    49.596
ATOM     46  H   UNL d   1      37.484 -15.038  32.079 +0.04 -0.09    +0.222    49.596
ATOM     47  O   UNL d   1      36.567 -12.014  33.111 -0.11 +0.33    -0.303    49.596
ATOM     48  H   UNL d   1      36.822 -11.496  32.320 -0.43 -0.61    +0.222    49.596
TER
ENDMDL
MODEL       81
USER    Run = 81
USER    Cluster Rank = 74
USER    Number of conformations in this cluster = 1
USER  
USER    RMSD from reference structure       = 36.337 A
USER  
USER    Estimated Free Energy of Binding    =   +4.03 kcal/mol  [=(1)+(2)+(3)-(4)]
USER    
USER    (1) Final Intermolecular Energy     =   -3.13 kcal/mol
USER        vdW + Hbond + desolv Energy     =   -3.03 kcal/mol
USER        Electrostatic Energy            =   -0.09 kcal/mol
USER    (2) Final Total Internal Energy     =  -14.35 kcal/mol
USER    (3) Torsional Free Energy           =   +7.16 kcal/mol
USER    (4) Unbound System's Energy  [=(2)] =  -14.35 kcal/mol
USER    
USER    
USER  
USER    DPF = D:/Protein_go_brrr/autodock/final/1A3N/IHP/dock.dpf
USER    NEWDPF move	IHP_ideal_opt.pdbqt
USER    NEWDPF about	0.035000 0.082000 -0.065000
USER    NEWDPF tran0	30.955054 26.460350 -1.788773
USER    NEWDPF axisangle0	-0.845042 -0.409793 0.343473 -123.044208
USER    NEWDPF quaternion0	-0.742793 -0.360209 0.301913 -0.476820
USER    NEWDPF dihe0	72.48 6.32 127.28 121.58 81.69 99.76 138.82 -4.54 84.90 49.91 166.70 172.73 -175.61 86.47 53.86 33.09 117.28 34.07 29.44 -24.20 -179.86 -46.16 -7.06 -13.19 
USER  
USER                              x       y       z    vdW   Elec        q     RMS 
ATOM      1  C   UNL d   1      30.808  28.134  -1.385 -0.03 -0.02    +0.194    36.337
ATOM      2  C   UNL d   1      30.205  27.155  -0.376 -0.08 -0.02    +0.194    36.337
ATOM      3  C   UNL d   1      29.429  26.033  -1.069 -0.11 -0.03    +0.194    36.337
ATOM      4  C   UNL d   1      30.237  25.322  -2.151 -0.10 -0.03    +0.194    36.337
ATOM      5  C   UNL d   1      30.951  26.263  -3.113 -0.06 -0.02    +0.194    36.337
ATOM      6  C   UNL d   1      31.676  27.420  -2.423 -0.04 -0.01    +0.194    36.337
ATOM      7  O   UNL d   1      31.654  29.042  -0.675 -0.01 +0.02    -0.278    36.337
ATOM      8  P   UNL d   1      31.030  30.426  -0.175 +0.00 -0.03    +0.473    36.337
ATOM      9  O   UNL d   1      31.742  31.645  -0.645 -0.00 +0.01    -0.228    36.337
ATOM     10  O   UNL d   1      29.510  30.361  -0.656 -0.00 +0.03    -0.303    36.337
ATOM     11  H   UNL d   1      29.446  30.674  -1.578 +0.00 -0.02    +0.222    36.337
ATOM     12  O   UNL d   1      30.888  30.269   1.399 -0.00 +0.03    -0.303    36.337
ATOM     13  H   UNL d   1      30.598  29.370   1.673 +0.02 -0.03    +0.222    36.337
ATOM     14  O   UNL d   1      31.262  26.570   0.396 -0.04 +0.03    -0.278    36.337
ATOM     15  P   UNL d   1      31.394  27.059   1.915 -0.04 -0.05    +0.473    36.337
ATOM     16  O   UNL d   1      31.765  26.019   2.925 -0.19 +0.02    -0.228    36.337
ATOM     17  O   UNL d   1      32.442  28.256   1.847 -0.02 +0.03    -0.303    36.337
ATOM     18  H   UNL d   1      32.379  28.731   0.996 +0.02 -0.02    +0.222    36.337
ATOM     19  O   UNL d   1      30.037  27.838   2.200 -0.04 +0.06    -0.303    36.337
ATOM     20  H   UNL d   1      29.261  27.254   2.114 +0.08 -0.06    +0.222    36.337
ATOM     21  O   UNL d   1      31.987  28.374  -3.436 -0.01 +0.01    -0.278    36.337
ATOM     22  P   UNL d   1      30.847  29.347  -3.983 +0.00 -0.02    +0.473    36.337
ATOM     23  O   UNL d   1      30.560  30.596  -3.220 -0.00 +0.01    -0.228    36.337
ATOM     24  O   UNL d   1      31.311  29.576  -5.489 -0.00 +0.01    -0.303    36.337
ATOM     25  H   UNL d   1      31.981  28.882  -5.714 +0.00 -0.00    +0.222    36.337
ATOM     26  O   UNL d   1      29.616  28.336  -4.166 -0.00 +0.01    -0.303    36.337
ATOM     27  H   UNL d   1      29.772  27.779  -4.956 +0.01 -0.01    +0.222    36.337
ATOM     28  O   UNL d   1      29.149  25.039  -0.091 -0.17 +0.04    -0.278    36.337
ATOM     29  P   UNL d   1      28.202  25.371   1.145 -0.25 -0.16    +0.473    36.337
ATOM     30  O   UNL d   1      27.529  26.695   1.100 -0.21 +0.14    -0.228    36.337
ATOM     31  O   UNL d   1      27.260  24.077   1.131 -0.34 +0.14    -0.303    36.337
ATOM     32  H   UNL d   1      26.509  24.229   1.750 -0.44 -0.22    +0.222    36.337
ATOM     33  O   UNL d   1      29.162  25.094   2.385 -0.32 +0.05    -0.303    36.337
ATOM     34  H   UNL d   1      29.987  25.628   2.278 +0.11 -0.02    +0.222    36.337
ATOM     35  O   UNL d   1      31.944  25.472  -3.762 -0.06 +0.03    -0.278    36.337
ATOM     36  P   UNL d   1      31.972  25.363  -5.353 -0.01 -0.02    +0.473    36.337
ATOM     37  O   UNL d   1      33.260  24.886  -5.945 -0.01 +0.01    -0.228    36.337
ATOM     38  O   UNL d   1      30.728  24.410  -5.637 -0.01 +0.01    -0.303    36.337
ATOM     39  H   UNL d   1      30.173  24.357  -4.829 +0.03 -0.02    +0.222    36.337
ATOM     40  O   UNL d   1      31.461  26.802  -5.801 -0.00 +0.01    -0.303    36.337
ATOM     41  H   UNL d   1      31.389  27.416  -5.038 +0.01 -0.01    +0.222    36.337
ATOM     42  O   UNL d   1      29.309  24.554  -2.924 -0.11 +0.03    -0.278    36.337
ATOM     43  P   UNL d   1      29.553  22.986  -3.088 -0.18 -0.07    +0.473    36.337
ATOM     44  O   UNL d   1      29.144  22.105  -1.958 -0.33 +0.05    -0.228    36.337
ATOM     45  O   UNL d   1      28.823  22.661  -4.464 -0.07 +0.03    -0.303    36.337
ATOM     46  H   UNL d   1      29.445  22.699  -5.217 +0.05 -0.01    +0.222    36.337
ATOM     47  O   UNL d   1      31.097  22.898  -3.510 -0.12 +0.06    -0.303    36.337
ATOM     48  H   UNL d   1      31.436  23.800  -3.683 +0.04 -0.03    +0.222    36.337
TER
ENDMDL
MODEL       86
USER    Run = 86
USER    Cluster Rank = 75
USER    Number of conformations in this cluster = 1
USER  
USER    RMSD from reference structure       = 34.336 A
USER  
USER    Estimated Free Energy of Binding    =   +4.04 kcal/mol  [=(1)+(2)+(3)-(4)]
USER    
USER    (1) Final Intermolecular Energy     =   -3.12 kcal/mol
USER        vdW + Hbond + desolv Energy     =   -3.18 kcal/mol
USER        Electrostatic Energy            =   +0.07 kcal/mol
USER    (2) Final Total Internal Energy     =  -14.96 kcal/mol
USER    (3) Torsional Free Energy           =   +7.16 kcal/mol
USER    (4) Unbound System's Energy  [=(2)] =  -14.96 kcal/mol
USER    
USER    
USER  
USER    DPF = D:/Protein_go_brrr/autodock/final/1A3N/IHP/dock.dpf
USER    NEWDPF move	IHP_ideal_opt.pdbqt
USER    NEWDPF about	0.035000 0.082000 -0.065000
USER    NEWDPF tran0	36.611158 -13.480313 1.711675
USER    NEWDPF axisangle0	-0.518311 0.018128 0.855000 -111.564531
USER    NEWDPF quaternion0	-0.428595 0.014990 0.707005 -0.562339
USER    NEWDPF dihe0	-177.59 -16.80 91.22 86.21 42.76 -127.09 -32.50 45.11 51.28 93.49 156.18 114.13 30.68 105.35 138.64 117.36 134.94 38.51 -9.91 -10.25 -11.56 -6.12 -6.31 -18.53 
USER  
USER                              x       y       z    vdW   Elec        q     RMS 
ATOM      1  C   UNL d   1      36.862 -11.776   1.840 -0.21 +0.01    +0.194    34.336
ATOM      2  C   UNL d   1      37.730 -12.643   2.755 -0.06 +0.02    +0.194    34.336
ATOM      3  C   UNL d   1      36.922 -13.771   3.400 -0.19 +0.02    +0.194    34.336
ATOM      4  C   UNL d   1      36.138 -14.604   2.388 -0.13 +0.00    +0.194    34.336
ATOM      5  C   UNL d   1      35.348 -13.776   1.382 -0.03 -0.00    +0.194    34.336
ATOM      6  C   UNL d   1      36.138 -12.610   0.783 -0.14 -0.01    +0.194    34.336
ATOM      7  O   UNL d   1      37.718 -10.862   1.149 -0.12 +0.02    -0.278    34.336
ATOM      8  P   UNL d   1      37.301  -9.321   1.102 -0.13 -0.07    +0.473    34.336
ATOM      9  O   UNL d   1      37.668  -8.531   2.308 -0.23 +0.01    -0.228    34.336
ATOM     10  O   UNL d   1      37.981  -8.778  -0.235 -0.10 +0.08    -0.303    34.336
ATOM     11  H   UNL d   1      38.120  -9.518  -0.856 +0.06 -0.06    +0.222    34.336
ATOM     12  O   UNL d   1      35.760  -9.321   0.714 -0.28 +0.11    -0.303    34.336
ATOM     13  H   UNL d   1      35.585  -9.718  -0.169 +0.10 -0.12    +0.222    34.336
ATOM     14  O   UNL d   1      38.788 -13.223   1.982 -0.05 -0.00    -0.278    34.336
ATOM     15  P   UNL d   1      40.282 -12.889   2.450 -0.02 +0.01    +0.473    34.336
ATOM     16  O   UNL d   1      41.361 -13.805   1.962 -0.01 -0.01    -0.228    34.336
ATOM     17  O   UNL d   1      40.502 -11.378   1.994 -0.04 -0.01    -0.303    34.336
ATOM     18  H   UNL d   1      39.734 -11.047   1.491 +0.05 -0.00    +0.222    34.336
ATOM     19  O   UNL d   1      40.178 -12.733   4.030 -0.06 -0.01    -0.303    34.336
ATOM     20  H   UNL d   1      39.434 -13.247   4.395 +0.07 +0.00    +0.222    34.336
ATOM     21  O   UNL d   1      35.190 -11.753   0.151 -0.15 +0.05    -0.278    34.336
ATOM     22  P   UNL d   1      35.215 -11.578  -1.435 -0.15 -0.16    +0.473    34.336
ATOM     23  O   UNL d   1      34.066 -10.884  -2.085 -0.25 +0.16    -0.228    34.336
ATOM     24  O   UNL d   1      36.630 -10.885  -1.664 -0.15 +0.10    -0.303    34.336
ATOM     25  H   UNL d   1      36.891 -10.433  -0.821 +0.07 -0.07    +0.222    34.336
ATOM     26  O   UNL d   1      35.498 -13.078  -1.923 -0.06 +0.05    -0.303    34.336
ATOM     27  H   UNL d   1      34.787 -13.664  -1.593 +0.05 -0.03    +0.222    34.336
ATOM     28  O   UNL d   1      37.845 -14.673   3.996 -0.08 -0.00    -0.278    34.336
ATOM     29  P   UNL d   1      38.048 -14.689   5.576 -0.10 -0.02    +0.473    34.336
ATOM     30  O   UNL d   1      37.181 -15.637   6.323 -0.12 +0.01    -0.228    34.336
ATOM     31  O   UNL d   1      39.627 -14.934   5.652 -0.04 +0.01    -0.303    34.336
ATOM     32  H   UNL d   1      40.025 -14.695   4.783 +0.04 -0.00    +0.222    34.336
ATOM     33  O   UNL d   1      37.913 -13.146   5.946 -0.06 +0.03    -0.303    34.336
ATOM     34  H   UNL d   1      37.027 -12.991   6.355 -0.34 -0.06    +0.222    34.336
ATOM     35  O   UNL d   1      35.034 -14.664   0.312 -0.05 +0.02    -0.278    34.336
ATOM     36  P   UNL d   1      33.519 -14.880  -0.137 -0.04 -0.05    +0.473    34.336
ATOM     37  O   UNL d   1      33.313 -15.822  -1.281 -0.02 +0.03    -0.228    34.336
ATOM     38  O   UNL d   1      32.839 -15.346   1.225 -0.08 +0.03    -0.303    34.336
ATOM     39  H   UNL d   1      33.536 -15.657   1.842 +0.04 -0.02    +0.222    34.336
ATOM     40  O   UNL d   1      33.006 -13.387  -0.330 -0.09 +0.05    -0.303    34.336
ATOM     41  H   UNL d   1      33.603 -12.870  -0.915 +0.08 -0.05    +0.222    34.336
ATOM     42  O   UNL d   1      35.191 -15.378   3.132 -0.11 +0.00    -0.278    34.336
ATOM     43  P   UNL d   1      35.103 -16.948   2.870 -0.02 -0.04    +0.473    34.336
ATOM     44  O   UNL d   1      36.064 -17.822   3.600 -0.02 +0.02    -0.228    34.336
ATOM     45  O   UNL d   1      33.574 -17.267   3.174 -0.05 +0.04    -0.303    34.336
ATOM     46  H   UNL d   1      33.008 -17.078   2.399 +0.05 -0.04    +0.222    34.336
ATOM     47  O   UNL d   1      35.147 -17.056   1.272 -0.01 +0.03    -0.303    34.336
ATOM     48  H   UNL d   1      34.330 -16.664   0.899 +0.02 -0.02    +0.222    34.336
TER
ENDMDL
MODEL       78
USER    Run = 78
USER    Cluster Rank = 76
USER    Number of conformations in this cluster = 1
USER  
USER    RMSD from reference structure       = 38.435 A
USER  
USER    Estimated Free Energy of Binding    =   +4.07 kcal/mol  [=(1)+(2)+(3)-(4)]
USER    
USER    (1) Final Intermolecular Energy     =   -3.09 kcal/mol
USER        vdW + Hbond + desolv Energy     =   -2.98 kcal/mol
USER        Electrostatic Energy            =   -0.11 kcal/mol
USER    (2) Final Total Internal Energy     =  -14.63 kcal/mol
USER    (3) Torsional Free Energy           =   +7.16 kcal/mol
USER    (4) Unbound System's Energy  [=(2)] =  -14.63 kcal/mol
USER    
USER    
USER  
USER    DPF = D:/Protein_go_brrr/autodock/final/1A3N/IHP/dock.dpf
USER    NEWDPF move	IHP_ideal_opt.pdbqt
USER    NEWDPF about	0.035000 0.082000 -0.065000
USER    NEWDPF tran0	9.592772 20.179676 34.082842
USER    NEWDPF axisangle0	0.047814 -0.574364 0.817203 166.319785
USER    NEWDPF quaternion0	0.047474 -0.570276 0.811386 0.119099
USER    NEWDPF dihe0	-140.72 -9.08 158.47 2.98 39.98 157.27 -25.64 -128.51 20.30 46.24 -133.47 -88.88 74.47 180.00 166.58 114.82 7.09 15.42 -16.94 10.58 -9.86 0.77 174.56 -25.50 
USER  
USER                              x       y       z    vdW   Elec        q     RMS 
ATOM      1  C   UNL d   1       8.426  19.432  35.114 -0.03 +0.06    +0.194    38.435
ATOM      2  C   UNL d   1       9.442  20.336  35.813 -0.01 +0.04    +0.194    38.435
ATOM      3  C   UNL d   1      10.859  20.118  35.276 -0.04 +0.03    +0.194    38.435
ATOM      4  C   UNL d   1      10.947  20.217  33.755 -0.09 +0.03    +0.194    38.435
ATOM      5  C   UNL d   1       9.879  19.421  33.018 -0.13 +0.04    +0.194    38.435
ATOM      6  C   UNL d   1       8.471  19.592  33.594 -0.06 +0.05    +0.194    38.435
ATOM      7  O   UNL d   1       7.118  19.816  35.544 -0.02 -0.10    -0.278    38.435
ATOM      8  P   UNL d   1       6.049  18.666  35.844 -0.06 +0.37    +0.473    38.435
ATOM      9  O   UNL d   1       5.419  18.727  37.191 -0.07 -0.15    -0.228    38.435
ATOM     10  O   UNL d   1       4.998  18.794  34.651 -0.04 -0.23    -0.303    38.435
ATOM     11  H   UNL d   1       5.448  18.637  33.800 +0.04 +0.15    +0.222    38.435
ATOM     12  O   UNL d   1       6.793  17.308  35.487 -0.57 -0.43    -0.303    38.435
ATOM     13  H   UNL d   1       7.161  17.298  34.575 +0.03 +0.23    +0.222    38.435
ATOM     14  O   UNL d   1       9.078  21.705  35.595 -0.00 -0.04    -0.278    38.435
ATOM     15  P   UNL d   1       9.300  22.709  36.822 +0.00 +0.05    +0.473    38.435
ATOM     16  O   UNL d   1       8.107  23.488  37.278 +0.00 -0.02    -0.228    38.435
ATOM     17  O   UNL d   1       9.913  21.789  37.970 +0.00 -0.04    -0.303    38.435
ATOM     18  H   UNL d   1      10.775  21.418  37.700 +0.00 +0.03    +0.222    38.435
ATOM     19  O   UNL d   1      10.565  23.577  36.400 -0.00 -0.02    -0.303    38.435
ATOM     20  H   UNL d   1      11.339  23.017  36.207 +0.00 +0.02    +0.222    38.435
ATOM     21  O   UNL d   1       7.670  18.550  33.040 -0.08 -0.11    -0.278    38.435
ATOM     22  P   UNL d   1       6.501  18.911  32.016 -0.11 +0.14    +0.473    38.435
ATOM     23  O   UNL d   1       5.454  17.882  31.751 -0.17 -0.10    -0.228    38.435
ATOM     24  O   UNL d   1       5.954  20.280  32.615 -0.05 -0.06    -0.303    38.435
ATOM     25  H   UNL d   1       6.150  20.292  33.586 +0.03 +0.06    +0.222    38.435
ATOM     26  O   UNL d   1       7.330  19.415  30.740 -0.10 -0.05    -0.303    38.435
ATOM     27  H   UNL d   1       8.247  19.620  31.012 +0.07 +0.04    +0.222    38.435
ATOM     28  O   UNL d   1      11.672  21.173  35.772 -0.01 -0.03    -0.278    38.435
ATOM     29  P   UNL d   1      12.811  20.876  36.844 -0.01 +0.05    +0.473    38.435
ATOM     30  O   UNL d   1      14.140  20.519  36.285 -0.02 -0.02    -0.228    38.435
ATOM     31  O   UNL d   1      12.727  22.213  37.720 -0.00 -0.02    -0.303    38.435
ATOM     32  H   UNL d   1      11.816  22.581  37.643 +0.00 +0.02    +0.222    38.435
ATOM     33  O   UNL d   1      12.112  19.796  37.783 -0.00 -0.05    -0.303    38.435
ATOM     34  H   UNL d   1      11.390  20.236  38.295 +0.00 +0.03    +0.222    38.435
ATOM     35  O   UNL d   1       9.855  19.942  31.690 -0.15 -0.05    -0.278    38.435
ATOM     36  P   UNL d   1       9.640  21.502  31.442 -0.11 +0.06    +0.473    38.435
ATOM     37  O   UNL d   1      10.546  22.409  32.212 -0.08 -0.02    -0.228    38.435
ATOM     38  O   UNL d   1       9.799  21.606  29.861 -0.22 -0.04    -0.303    38.435
ATOM     39  H   UNL d   1      10.622  21.145  29.590 +0.09 +0.04    +0.222    38.435
ATOM     40  O   UNL d   1       8.076  21.672  31.681 -0.04 -0.03    -0.303    38.435
ATOM     41  H   UNL d   1       7.661  20.834  31.982 +0.05 +0.03    +0.222    38.435
ATOM     42  O   UNL d   1      12.215  19.671  33.378 -0.14 -0.04    -0.278    38.435
ATOM     43  P   UNL d   1      13.087  20.432  32.279 -0.18 +0.02    +0.473    38.435
ATOM     44  O   UNL d   1      13.523  21.822  32.591 -0.13 -0.00    -0.228    38.435
ATOM     45  O   UNL d   1      14.284  19.417  32.019 -0.24 -0.00    -0.303    38.435
ATOM     46  H   UNL d   1      14.656  19.524  31.120 -0.31 -0.05    +0.222    38.435
ATOM     47  O   UNL d   1      12.219  20.262  30.942 -0.10 -0.01    -0.303    38.435
ATOM     48  H   UNL d   1      11.598  21.016  30.862 +0.10 +0.03    +0.222    38.435
TER
ENDMDL
MODEL       70
USER    Run = 70
USER    Cluster Rank = 77
USER    Number of conformations in this cluster = 1
USER  
USER    RMSD from reference structure       = 52.662 A
USER  
USER    Estimated Free Energy of Binding    =   +4.09 kcal/mol  [=(1)+(2)+(3)-(4)]
USER    
USER    (1) Final Intermolecular Energy     =   -3.07 kcal/mol
USER        vdW + Hbond + desolv Energy     =   -2.68 kcal/mol
USER        Electrostatic Energy            =   -0.39 kcal/mol
USER    (2) Final Total Internal Energy     =  -12.67 kcal/mol
USER    (3) Torsional Free Energy           =   +7.16 kcal/mol
USER    (4) Unbound System's Energy  [=(2)] =  -12.67 kcal/mol
USER    
USER    
USER  
USER    DPF = D:/Protein_go_brrr/autodock/final/1A3N/IHP/dock.dpf
USER    NEWDPF move	IHP_ideal_opt.pdbqt
USER    NEWDPF about	0.035000 0.082000 -0.065000
USER    NEWDPF tran0	40.589518 -2.940009 38.703574
USER    NEWDPF axisangle0	-0.791368 0.220523 0.570181 -162.726063
USER    NEWDPF quaternion0	-0.782394 0.218023 0.563715 -0.150173
USER    NEWDPF dihe0	99.34 30.78 174.28 13.11 -80.80 140.33 -134.77 -30.85 -8.33 34.18 92.41 -165.53 -179.95 -169.74 -175.47 -149.68 -133.04 150.99 38.58 6.90 175.61 3.32 152.16 -9.25 
USER  
USER                              x       y       z    vdW   Elec        q     RMS 
ATOM      1  C   UNL d   1      40.734  -2.012  37.254 -0.11 +0.08    +0.194    52.662
ATOM      2  C   UNL d   1      41.110  -1.283  38.546 -0.08 +0.05    +0.194    52.662
ATOM      3  C   UNL d   1      40.113  -1.573  39.670 -0.08 +0.05    +0.194    52.662
ATOM      4  C   UNL d   1      39.878  -3.064  39.896 -0.04 +0.05    +0.194    52.662
ATOM      5  C   UNL d   1      39.613  -3.851  38.618 -0.07 +0.08    +0.194    52.662
ATOM      6  C   UNL d   1      40.572  -3.516  37.474 -0.07 +0.09    +0.194    52.662
ATOM      7  O   UNL d   1      41.797  -1.831  36.315 -0.06 -0.13    -0.278    52.662
ATOM      8  P   UNL d   1      41.818  -0.494  35.441 -0.13 +0.32    +0.473    52.662
ATOM      9  O   UNL d   1      41.949  -0.702  33.973 -0.37 -0.38    -0.228    52.662
ATOM     10  O   UNL d   1      40.472   0.258  35.851 -0.22 -0.16    -0.303    52.662
ATOM     11  H   UNL d   1      39.707  -0.316  35.661 +0.11 +0.14    +0.222    52.662
ATOM     12  O   UNL d   1      42.929   0.422  36.114 -0.05 -0.12    -0.303    52.662
ATOM     13  H   UNL d   1      43.195   0.111  37.008 +0.03 +0.06    +0.222    52.662
ATOM     14  O   UNL d   1      42.410  -1.717  38.965 -0.02 -0.06    -0.278    52.662
ATOM     15  P   UNL d   1      43.399  -0.584  39.516 -0.01 +0.07    +0.473    52.662
ATOM     16  O   UNL d   1      44.626  -0.310  38.704 -0.00 -0.03    -0.228    52.662
ATOM     17  O   UNL d   1      42.468   0.698  39.680 -0.03 -0.05    -0.303    52.662
ATOM     18  H   UNL d   1      41.932   0.641  40.494 +0.02 +0.03    +0.222    52.662
ATOM     19  O   UNL d   1      43.657  -0.987  41.033 -0.00 -0.03    -0.303    52.662
ATOM     20  H   UNL d   1      42.827  -1.211  41.493 +0.01 +0.03    +0.222    52.662
ATOM     21  O   UNL d   1      39.998  -4.053  36.285 -0.12 -0.23    -0.278    52.662
ATOM     22  P   UNL d   1      38.726  -3.347  35.630 -0.27 +0.34    +0.473    52.662
ATOM     23  O   UNL d   1      37.705  -4.209  34.968 -0.38 -0.21    -0.228    52.662
ATOM     24  O   UNL d   1      38.179  -2.474  36.843 -0.19 -0.12    -0.303    52.662
ATOM     25  H   UNL d   1      37.191  -2.432  36.771 -0.34 +0.00    +0.222    52.662
ATOM     26  O   UNL d   1      39.413  -2.233  34.704 -0.16 -0.23    -0.303    52.662
ATOM     27  H   UNL d   1      40.230  -1.913  35.138 +0.08 +0.16    +0.222    52.662
ATOM     28  O   UNL d   1      40.682  -1.093  40.881 -0.04 -0.05    -0.278    52.662
ATOM     29  P   UNL d   1      40.013   0.127  41.657 -0.04 +0.09    +0.473    52.662
ATOM     30  O   UNL d   1      40.750   0.607  42.854 -0.01 -0.03    -0.228    52.662
ATOM     31  O   UNL d   1      39.838   1.163  40.449 -0.06 -0.07    -0.303    52.662
ATOM     32  H   UNL d   1      40.689   1.640  40.319 +0.03 +0.04    +0.222    52.662
ATOM     33  O   UNL d   1      38.528  -0.398  41.888 -0.05 -0.07    -0.303    52.662
ATOM     34  H   UNL d   1      38.541  -1.386  41.936 +0.03 +0.05    +0.222    52.662
ATOM     35  O   UNL d   1      39.824  -5.220  38.956 -0.02 -0.12    -0.278    52.662
ATOM     36  P   UNL d   1      41.306  -5.796  39.092 +0.00 +0.16    +0.473    52.662
ATOM     37  O   UNL d   1      41.910  -6.325  37.830 -0.02 -0.11    -0.228    52.662
ATOM     38  O   UNL d   1      42.081  -4.555  39.720 +0.00 -0.07    -0.303    52.662
ATOM     39  H   UNL d   1      42.273  -3.904  39.010 +0.01 +0.05    +0.222    52.662
ATOM     40  O   UNL d   1      41.165  -6.813  40.307 +0.00 -0.07    -0.303    52.662
ATOM     41  H   UNL d   1      40.281  -6.751  40.733 +0.00 +0.05    +0.222    52.662
ATOM     42  O   UNL d   1      38.707  -3.180  40.712 -0.03 -0.07    -0.278    52.662
ATOM     43  P   UNL d   1      38.824  -3.904  42.129 +0.00 +0.09    +0.473    52.662
ATOM     44  O   UNL d   1      37.560  -4.349  42.779 -0.01 -0.04    -0.228    52.662
ATOM     45  O   UNL d   1      39.855  -5.081  41.836 +0.00 -0.05    -0.303    52.662
ATOM     46  H   UNL d   1      40.376  -4.907  41.026 +0.01 +0.04    +0.222    52.662
ATOM     47  O   UNL d   1      39.723  -2.890  42.985 -0.00 -0.04    -0.303    52.662
ATOM     48  H   UNL d   1      39.777  -2.032  42.516 +0.01 +0.04    +0.222    52.662
TER
ENDMDL
MODEL       87
USER    Run = 87
USER    Cluster Rank = 78
USER    Number of conformations in this cluster = 1
USER  
USER    RMSD from reference structure       = 41.836 A
USER  
USER    Estimated Free Energy of Binding    =   +4.10 kcal/mol  [=(1)+(2)+(3)-(4)]
USER    
USER    (1) Final Intermolecular Energy     =   -3.06 kcal/mol
USER        vdW + Hbond + desolv Energy     =   -2.90 kcal/mol
USER        Electrostatic Energy            =   -0.16 kcal/mol
USER    (2) Final Total Internal Energy     =  -11.96 kcal/mol
USER    (3) Torsional Free Energy           =   +7.16 kcal/mol
USER    (4) Unbound System's Energy  [=(2)] =  -11.96 kcal/mol
USER    
USER    
USER  
USER    DPF = D:/Protein_go_brrr/autodock/final/1A3N/IHP/dock.dpf
USER    NEWDPF move	IHP_ideal_opt.pdbqt
USER    NEWDPF about	0.035000 0.082000 -0.065000
USER    NEWDPF tran0	35.132430 17.462804 23.040300
USER    NEWDPF axisangle0	-0.071289 -0.936161 -0.344268 -175.831546
USER    NEWDPF quaternion0	-0.071242 -0.935542 -0.344041 -0.036369
USER    NEWDPF dihe0	96.80 -60.33 165.76 12.50 10.42 -166.40 158.95 32.39 -6.36 34.76 109.76 -161.41 -169.19 -172.84 5.27 179.83 -129.82 127.36 -24.21 16.63 139.20 28.30 155.69 -4.82 
USER  
USER                              x       y       z    vdW   Elec        q     RMS 
ATOM      1  C   UNL d   1      33.740  17.443  22.018 -0.03 +0.00    +0.194    41.836
ATOM      2  C   UNL d   1      34.852  16.463  21.639 -0.05 -0.01    +0.194    41.836
ATOM      3  C   UNL d   1      36.235  17.109  21.740 +0.04 +0.00    +0.194    41.836
ATOM      4  C   UNL d   1      36.490  17.777  23.089 -0.04 -0.00    +0.194    41.836
ATOM      5  C   UNL d   1      35.354  18.676  23.561 -0.03 +0.00    +0.194    41.836
ATOM      6  C   UNL d   1      33.965  18.053  23.402 -0.03 +0.00    +0.194    41.836
ATOM      7  O   UNL d   1      32.507  16.722  22.066 -0.06 +0.03    -0.278    41.836
ATOM      8  P   UNL d   1      31.167  17.480  21.639 -0.05 -0.04    +0.473    41.836
ATOM      9  O   UNL d   1      30.147  17.613  22.715 -0.04 +0.02    -0.228    41.836
ATOM     10  O   UNL d   1      31.678  18.884  21.081 -0.07 -0.08    -0.303    41.836
ATOM     11  H   UNL d   1      32.145  19.366  21.788 +0.07 +0.04    +0.222    41.836
ATOM     12  O   UNL d   1      30.684  16.750  20.313 -0.23 +0.14    -0.303    41.836
ATOM     13  H   UNL d   1      30.845  17.281  19.500 -0.41 -0.21    +0.222    41.836
ATOM     14  O   UNL d   1      34.806  15.339  22.528 -0.07 +0.01    -0.278    41.836
ATOM     15  P   UNL d   1      35.261  13.929  21.922 +0.01 -0.01    +0.473    41.836
ATOM     16  O   UNL d   1      34.223  12.851  21.877 -0.24 +0.01    -0.228    41.836
ATOM     17  O   UNL d   1      35.835  14.293  20.481 -0.48 -0.01    -0.303    41.836
ATOM     18  H   UNL d   1      36.678  14.780  20.552 +0.09 +0.02    +0.222    41.836
ATOM     19  O   UNL d   1      36.592  13.567  22.714 -0.09 -0.01    -0.303    41.836
ATOM     20  H   UNL d   1      37.206  14.323  22.751 +0.07 -0.01    +0.222    41.836
ATOM     21  O   UNL d   1      33.020  19.110  23.552 -0.02 -0.01    -0.278    41.836
ATOM     22  P   UNL d   1      33.353  20.559  22.973 -0.03 +0.04    +0.473    41.836
ATOM     23  O   UNL d   1      34.127  20.648  21.700 -0.14 -0.04    -0.228    41.836
ATOM     24  O   UNL d   1      31.911  21.231  22.926 -0.03 -0.03    -0.303    41.836
ATOM     25  H   UNL d   1      31.318  20.649  22.387 +0.05 +0.03    +0.222    41.836
ATOM     26  O   UNL d   1      34.011  21.275  24.247 -0.01 -0.01    -0.303    41.836
ATOM     27  H   UNL d   1      34.310  20.592  24.882 +0.01 +0.00    +0.222    41.836
ATOM     28  O   UNL d   1      37.201  16.070  21.646 -0.08 +0.01    -0.278    41.836
ATOM     29  P   UNL d   1      38.527  16.279  20.789 -0.07 -0.03    +0.473    41.836
ATOM     30  O   UNL d   1      39.696  15.464  21.208 -0.05 +0.02    -0.228    41.836
ATOM     31  O   UNL d   1      37.952  16.022  19.318 -0.31 +0.05    -0.303    41.836
ATOM     32  H   UNL d   1      38.670  15.639  18.763 -0.47 -0.11    +0.222    41.836
ATOM     33  O   UNL d   1      38.702  17.861  20.826 -0.05 +0.01    -0.303    41.836
ATOM     34  H   UNL d   1      39.272  18.103  21.597 +0.03 -0.01    +0.222    41.836
ATOM     35  O   UNL d   1      35.569  18.872  24.957 -0.01 +0.01    -0.278    41.836
ATOM     36  P   UNL d   1      35.271  17.693  25.990 -0.02 -0.02    +0.473    41.836
ATOM     37  O   UNL d   1      33.855  17.591  26.461 -0.04 +0.01    -0.228    41.836
ATOM     38  O   UNL d   1      35.788  16.418  25.188 -0.05 +0.01    -0.303    41.836
ATOM     39  H   UNL d   1      35.129  16.182  24.501 +0.05 -0.01    +0.222    41.836
ATOM     40  O   UNL d   1      36.386  17.925  27.101 -0.03 +0.02    -0.303    41.836
ATOM     41  H   UNL d   1      37.022  18.627  26.838 +0.02 -0.01    +0.222    41.836
ATOM     42  O   UNL d   1      37.645  18.608  22.929 -0.02 +0.00    -0.278    41.836
ATOM     43  P   UNL d   1      38.961  18.268  23.763 +0.00 -0.02    +0.473    41.836
ATOM     44  O   UNL d   1      40.190  19.053  23.457 -0.00 +0.01    -0.228    41.836
ATOM     45  O   UNL d   1      38.463  18.399  25.269 -0.00 +0.02    -0.303    41.836
ATOM     46  H   UNL d   1      37.546  18.074  25.372 +0.02 -0.01    +0.222    41.836
ATOM     47  O   UNL d   1      39.097  16.679  23.602 -0.01 +0.03    -0.303    41.836
ATOM     48  H   UNL d   1      38.549  16.383  22.845 +0.03 -0.02    +0.222    41.836
TER
ENDMDL
MODEL       54
USER    Run = 54
USER    Cluster Rank = 79
USER    Number of conformations in this cluster = 1
USER  
USER    RMSD from reference structure       = 18.829 A
USER  
USER    Estimated Free Energy of Binding    =   +4.11 kcal/mol  [=(1)+(2)+(3)-(4)]
USER    
USER    (1) Final Intermolecular Energy     =   -3.05 kcal/mol
USER        vdW + Hbond + desolv Energy     =   -3.07 kcal/mol
USER        Electrostatic Energy            =   +0.02 kcal/mol
USER    (2) Final Total Internal Energy     =  -15.84 kcal/mol
USER    (3) Torsional Free Energy           =   +7.16 kcal/mol
USER    (4) Unbound System's Energy  [=(2)] =  -15.84 kcal/mol
USER    
USER    
USER  
USER    DPF = D:/Protein_go_brrr/autodock/final/1A3N/IHP/dock.dpf
USER    NEWDPF move	IHP_ideal_opt.pdbqt
USER    NEWDPF about	0.035000 0.082000 -0.065000
USER    NEWDPF tran0	-11.803608 17.834459 6.390518
USER    NEWDPF axisangle0	-0.319455 -0.687060 0.652608 109.535979
USER    NEWDPF quaternion0	-0.260938 -0.561206 0.533065 0.576889
USER    NEWDPF dihe0	114.80 5.05 165.31 20.26 11.93 -145.48 -127.48 -6.96 137.56 -17.41 137.12 -118.07 -35.67 72.04 -9.51 43.75 -162.40 88.62 29.98 -31.95 -27.33 165.68 16.14 -27.21 
USER  
USER                              x       y       z    vdW   Elec        q     RMS 
ATOM      1  C   UNL d   1     -12.566  16.457   5.680 -0.12 -0.05    +0.194    18.829
ATOM      2  C   UNL d   1     -13.185  16.953   6.988 -0.14 -0.06    +0.194    18.829
ATOM      3  C   UNL d   1     -12.115  17.310   8.021 -0.19 -0.07    +0.194    18.829
ATOM      4  C   UNL d   1     -11.055  18.269   7.483 -0.23 -0.04    +0.194    18.829
ATOM      5  C   UNL d   1     -10.492  17.873   6.124 -0.18 -0.03    +0.194    18.829
ATOM      6  C   UNL d   1     -11.559  17.457   5.110 -0.09 -0.03    +0.194    18.829
ATOM      7  O   UNL d   1     -13.613  16.311   4.718 -0.05 +0.05    -0.278    18.829
ATOM      8  P   UNL d   1     -14.322  14.887   4.576 -0.04 -0.08    +0.473    18.829
ATOM      9  O   UNL d   1     -14.082  13.948   5.706 -0.15 +0.06    -0.228    18.829
ATOM     10  O   UNL d   1     -15.864  15.240   4.370 -0.01 +0.04    -0.303    18.829
ATOM     11  H   UNL d   1     -16.122  15.949   4.988 +0.02 -0.03    +0.222    18.829
ATOM     12  O   UNL d   1     -13.906  14.360   3.136 -0.02 +0.05    -0.303    18.829
ATOM     13  H   UNL d   1     -13.909  15.066   2.451 +0.02 -0.04    +0.222    18.829
ATOM     14  O   UNL d   1     -13.968  18.123   6.719 -0.06 +0.05    -0.278    18.829
ATOM     15  P   UNL d   1     -15.550  17.910   6.589 -0.03 -0.07    +0.473    18.829
ATOM     16  O   UNL d   1     -16.418  18.785   7.439 -0.02 +0.03    -0.228    18.829
ATOM     17  O   UNL d   1     -15.838  18.082   5.032 -0.01 +0.03    -0.303    18.829
ATOM     18  H   UNL d   1     -15.469  17.335   4.522 +0.02 -0.03    +0.222    18.829
ATOM     19  O   UNL d   1     -15.757  16.345   6.782 -0.08 +0.04    -0.303    18.829
ATOM     20  H   UNL d   1     -15.057  15.831   6.338 +0.04 -0.04    +0.222    18.829
ATOM     21  O   UNL d   1     -10.879  16.803   4.041 -0.04 +0.03    -0.278    18.829
ATOM     22  P   UNL d   1     -11.161  17.244   2.534 -0.02 -0.10    +0.473    18.829
ATOM     23  O   UNL d   1     -11.743  18.596   2.293 -0.01 +0.04    -0.228    18.829
ATOM     24  O   UNL d   1      -9.744  16.997   1.852 -0.05 +0.09    -0.303    18.829
ATOM     25  H   UNL d   1      -9.061  17.490   2.373 +0.06 -0.04    +0.222    18.829
ATOM     26  O   UNL d   1     -12.014  16.003   1.985 -0.02 +0.08    -0.303    18.829
ATOM     27  H   UNL d   1     -12.642  15.713   2.678 +0.03 -0.04    +0.222    18.829
ATOM     28  O   UNL d   1     -12.757  18.012   9.078 -0.28 +0.13    -0.278    18.829
ATOM     29  P   UNL d   1     -13.024  19.578   8.959 -0.10 -0.15    +0.473    18.829
ATOM     30  O   UNL d   1     -12.952  20.137   7.584 -0.03 +0.04    -0.228    18.829
ATOM     31  O   UNL d   1     -14.432  19.679   9.712 -0.09 +0.12    -0.303    18.829
ATOM     32  H   UNL d   1     -15.135  19.340   9.110 +0.04 -0.06    +0.222    18.829
ATOM     33  O   UNL d   1     -12.008  20.172  10.031 -0.13 +0.11    -0.303    18.829
ATOM     34  H   UNL d   1     -11.105  19.810   9.854 +0.09 -0.06    +0.222    18.829
ATOM     35  O   UNL d   1      -9.860  19.044   5.612 -0.07 +0.04    -0.278    18.829
ATOM     36  P   UNL d   1      -8.556  18.920   4.700 -0.09 -0.05    +0.473    18.829
ATOM     37  O   UNL d   1      -7.321  19.557   5.252 -0.17 +0.05    -0.228    18.829
ATOM     38  O   UNL d   1      -8.447  17.344   4.500 -0.24 -0.02    -0.303    18.829
ATOM     39  H   UNL d   1      -9.202  17.037   3.955 +0.08 -0.00    +0.222    18.829
ATOM     40  O   UNL d   1      -9.074  19.450   3.293 -0.02 +0.04    -0.303    18.829
ATOM     41  H   UNL d   1      -9.827  18.914   2.957 +0.03 -0.03    +0.222    18.829
ATOM     42  O   UNL d   1      -9.966  18.247   8.413 -0.26 +0.05    -0.278    18.829
ATOM     43  P   UNL d   1      -9.254  19.622   8.798 -0.16 -0.06    +0.473    18.829
ATOM     44  O   UNL d   1      -8.980  19.872  10.241 -0.25 +0.02    -0.228    18.829
ATOM     45  O   UNL d   1      -7.954  19.610   7.881 -0.19 +0.05    -0.303    18.829
ATOM     46  H   UNL d   1      -8.185  19.637   6.931 +0.11 -0.04    +0.222    18.829
ATOM     47  O   UNL d   1     -10.160  20.722   8.065 -0.06 +0.04    -0.303    18.829
ATOM     48  H   UNL d   1     -11.073  20.674   8.416 +0.06 -0.03    +0.222    18.829
TER
ENDMDL
MODEL       60
USER    Run = 60
USER    Cluster Rank = 80
USER    Number of conformations in this cluster = 1
USER  
USER    RMSD from reference structure       = 17.805 A
USER  
USER    Estimated Free Energy of Binding    =   +4.21 kcal/mol  [=(1)+(2)+(3)-(4)]
USER    
USER    (1) Final Intermolecular Energy     =   -2.95 kcal/mol
USER        vdW + Hbond + desolv Energy     =   -2.81 kcal/mol
USER        Electrostatic Energy            =   -0.15 kcal/mol
USER    (2) Final Total Internal Energy     =  -14.15 kcal/mol
USER    (3) Torsional Free Energy           =   +7.16 kcal/mol
USER    (4) Unbound System's Energy  [=(2)] =  -14.15 kcal/mol
USER    
USER    
USER  
USER    DPF = D:/Protein_go_brrr/autodock/final/1A3N/IHP/dock.dpf
USER    NEWDPF move	IHP_ideal_opt.pdbqt
USER    NEWDPF about	0.035000 0.082000 -0.065000
USER    NEWDPF tran0	-6.773363 19.766452 -5.475771
USER    NEWDPF axisangle0	0.182709 -0.962345 0.201271 147.898115
USER    NEWDPF quaternion0	0.175587 -0.924829 0.193425 0.276492
USER    NEWDPF dihe0	107.54 -155.70 15.51 77.01 0.26 147.60 -133.24 -65.15 47.40 125.67 98.31 119.13 130.25 -81.17 158.76 40.24 -70.35 -143.87 -3.49 22.68 -25.36 21.24 165.91 -2.09 
USER  
USER                              x       y       z    vdW   Elec        q     RMS 
ATOM      1  C   UNL d   1      -7.106  18.252  -6.238 -0.14 -0.06    +0.194    17.805
ATOM      2  C   UNL d   1      -6.164  18.193  -5.034 -0.18 -0.05    +0.194    17.805
ATOM      3  C   UNL d   1      -5.140  19.330  -5.059 -0.08 -0.02    +0.194    17.805
ATOM      4  C   UNL d   1      -5.776  20.708  -5.228 -0.03 -0.03    +0.194    17.805
ATOM      5  C   UNL d   1      -6.808  20.783  -6.346 -0.01 -0.03    +0.194    17.805
ATOM      6  C   UNL d   1      -7.794  19.613  -6.358 -0.03 -0.05    +0.194    17.805
ATOM      7  O   UNL d   1      -8.130  17.272  -6.053 -0.16 +0.17    -0.278    17.805
ATOM      8  P   UNL d   1      -8.375  16.201  -7.213 -0.11 -0.18    +0.473    17.805
ATOM      9  O   UNL d   1      -9.486  15.243  -6.962 -0.13 +0.10    -0.228    17.805
ATOM     10  O   UNL d   1      -8.594  17.090  -8.519 -0.02 +0.08    -0.303    17.805
ATOM     11  H   UNL d   1      -9.261  17.778  -8.339 +0.03 -0.06    +0.222    17.805
ATOM     12  O   UNL d   1      -6.949  15.555  -7.485 -0.32 +0.08    -0.303    17.805
ATOM     13  H   UNL d   1      -7.002  14.677  -7.926 +0.09 -0.08    +0.222    17.805
ATOM     14  O   UNL d   1      -6.937  18.301  -3.832 -0.15 +0.17    -0.278    17.805
ATOM     15  P   UNL d   1      -6.303  17.649  -2.514 -0.19 -0.27    +0.473    17.805
ATOM     16  O   UNL d   1      -5.334  16.527  -2.718 -0.77 +0.04    -0.228    17.805
ATOM     17  O   UNL d   1      -5.662  18.885  -1.740 -0.06 +0.07    -0.303    17.805
ATOM     18  H   UNL d   1      -4.794  19.124  -2.117 +0.06 -0.03    +0.222    17.805
ATOM     19  O   UNL d   1      -7.557  17.313  -1.595 -0.12 +0.38    -0.303    17.805
ATOM     20  H   UNL d   1      -8.388  17.309  -2.106 -0.29 -0.49    +0.222    17.805
ATOM     21  O   UNL d   1      -8.450  19.640  -7.623 -0.00 +0.06    -0.278    17.805
ATOM     22  P   UNL d   1     -10.044  19.624  -7.689 +0.01 -0.10    +0.473    17.805
ATOM     23  O   UNL d   1     -10.693  19.449  -9.021 +0.00 +0.03    -0.228    17.805
ATOM     24  O   UNL d   1     -10.403  18.502  -6.619 -0.02 +0.12    -0.303    17.805
ATOM     25  H   UNL d   1     -10.066  17.634  -6.959 +0.03 -0.10    +0.222    17.805
ATOM     26  O   UNL d   1     -10.416  20.967  -6.897 +0.00 +0.05    -0.303    17.805
ATOM     27  H   UNL d   1      -9.699  21.177  -6.265 +0.01 -0.04    +0.222    17.805
ATOM     28  O   UNL d   1      -4.504  19.361  -3.788 -0.10 +0.03    -0.278    17.805
ATOM     29  P   UNL d   1      -2.916  19.437  -3.685 -0.07 -0.01    +0.473    17.805
ATOM     30  O   UNL d   1      -2.210  19.802  -4.940 -0.09 +0.01    -0.228    17.805
ATOM     31  O   UNL d   1      -2.765  20.442  -2.448 -0.03 +0.01    -0.303    17.805
ATOM     32  H   UNL d   1      -2.867  21.364  -2.778 +0.02 -0.01    +0.222    17.805
ATOM     33  O   UNL d   1      -2.556  18.027  -3.039 -0.09 -0.02    -0.303    17.805
ATOM     34  H   UNL d   1      -3.393  17.560  -2.799 +0.10 +0.02    +0.222    17.805
ATOM     35  O   UNL d   1      -7.563  21.966  -6.096 -0.00 +0.04    -0.278    17.805
ATOM     36  P   UNL d   1      -8.440  22.097  -4.770 +0.01 -0.07    +0.473    17.805
ATOM     37  O   UNL d   1      -8.902  20.805  -4.173 -0.01 +0.07    -0.228    17.805
ATOM     38  O   UNL d   1      -7.480  22.947  -3.827 +0.00 +0.03    -0.303    17.805
ATOM     39  H   UNL d   1      -6.553  22.841  -4.132 +0.00 -0.02    +0.222    17.805
ATOM     40  O   UNL d   1      -9.565  23.133  -5.206 +0.00 +0.03    -0.303    17.805
ATOM     41  H   UNL d   1     -10.308  22.690  -5.672 +0.00 -0.03    +0.222    17.805
ATOM     42  O   UNL d   1      -4.720  21.613  -5.568 -0.01 +0.02    -0.278    17.805
ATOM     43  P   UNL d   1      -4.318  22.755  -4.530 -0.00 -0.03    +0.473    17.805
ATOM     44  O   UNL d   1      -4.883  24.115  -4.754 -0.00 +0.01    -0.228    17.805
ATOM     45  O   UNL d   1      -4.712  22.109  -3.130 -0.00 +0.02    -0.303    17.805
ATOM     46  H   UNL d   1      -4.702  21.132  -3.172 +0.03 -0.02    +0.222    17.805
ATOM     47  O   UNL d   1      -2.718  22.669  -4.491 -0.00 +0.01    -0.303    17.805
ATOM     48  H   UNL d   1      -2.451  21.786  -4.161 +0.02 -0.01    +0.222    17.805
TER
ENDMDL
MODEL       33
USER    Run = 33
USER    Cluster Rank = 81
USER    Number of conformations in this cluster = 1
USER  
USER    RMSD from reference structure       = 51.086 A
USER  
USER    Estimated Free Energy of Binding    =   +4.21 kcal/mol  [=(1)+(2)+(3)-(4)]
USER    
USER    (1) Final Intermolecular Energy     =   -2.95 kcal/mol
USER        vdW + Hbond + desolv Energy     =   -3.02 kcal/mol
USER        Electrostatic Energy            =   +0.08 kcal/mol
USER    (2) Final Total Internal Energy     =  -14.79 kcal/mol
USER    (3) Torsional Free Energy           =   +7.16 kcal/mol
USER    (4) Unbound System's Energy  [=(2)] =  -14.79 kcal/mol
USER    
USER    
USER  
USER    DPF = D:/Protein_go_brrr/autodock/final/1A3N/IHP/dock.dpf
USER    NEWDPF move	IHP_ideal_opt.pdbqt
USER    NEWDPF about	0.035000 0.082000 -0.065000
USER    NEWDPF tran0	42.770428 -6.317863 33.579738
USER    NEWDPF axisangle0	-0.823665 -0.235285 -0.515963 -162.336120
USER    NEWDPF quaternion0	-0.813898 -0.232495 -0.509845 -0.153537
USER    NEWDPF dihe0	98.80 122.30 5.93 -26.01 47.59 -125.29 8.84 -140.03 142.03 -16.09 134.37 76.79 -25.22 -153.84 -48.67 151.63 169.58 80.43 37.17 -45.54 161.46 -46.80 7.61 -39.56 
USER  
USER                              x       y       z    vdW   Elec        q     RMS 
ATOM      1  C   UNL d   1      43.361  -4.904  34.378 -0.02 +0.09    +0.194    51.086
ATOM      2  C   UNL d   1      42.187  -4.682  33.423 -0.08 +0.13    +0.194    51.086
ATOM      3  C   UNL d   1      42.361  -5.463  32.119 -0.08 +0.08    +0.194    51.086
ATOM      4  C   UNL d   1      42.652  -6.946  32.341 -0.08 +0.05    +0.194    51.086
ATOM      5  C   UNL d   1      43.740  -7.217  33.372 -0.01 +0.04    +0.194    51.086
ATOM      6  C   UNL d   1      43.600  -6.390  34.652 -0.02 +0.07    +0.194    51.086
ATOM      7  O   UNL d   1      43.044  -4.287  35.627 -0.01 -0.12    -0.278    51.086
ATOM      8  P   UNL d   1      43.360  -2.731  35.807 +0.01 +0.18    +0.473    51.086
ATOM      9  O   UNL d   1      43.373  -1.940  34.547 -0.05 -0.14    -0.228    51.086
ATOM     10  O   UNL d   1      42.263  -2.231  36.852 -0.02 -0.11    -0.303    51.086
ATOM     11  H   UNL d   1      41.371  -2.398  36.494 +0.06 +0.10    +0.222    51.086
ATOM     12  O   UNL d   1      44.692  -2.678  36.673 +0.00 -0.07    -0.303    51.086
ATOM     13  H   UNL d   1      45.500  -2.880  36.149 +0.00 +0.04    +0.222    51.086
ATOM     14  O   UNL d   1      40.979  -5.118  34.059 -0.41 -0.37    -0.278    51.086
ATOM     15  P   UNL d   1      40.238  -4.051  34.996 -0.10 +0.48    +0.473    51.086
ATOM     16  O   UNL d   1      40.489  -4.160  36.467 -0.11 -0.18    -0.228    51.086
ATOM     17  O   UNL d   1      40.674  -2.641  34.397 -0.14 -0.26    -0.303    51.086
ATOM     18  H   UNL d   1      41.493  -2.318  34.820 +0.06 +0.17    +0.222    51.086
ATOM     19  O   UNL d   1      38.712  -4.128  34.553 -0.23 -0.33    -0.303    51.086
ATOM     20  H   UNL d   1      38.528  -3.549  33.791 +0.14 +0.19    +0.222    51.086
ATOM     21  O   UNL d   1      44.841  -6.493  35.347 +0.00 -0.05    -0.278    51.086
ATOM     22  P   UNL d   1      46.187  -6.009  34.640 +0.01 +0.05    +0.473    51.086
ATOM     23  O   UNL d   1      46.189  -5.858  33.156 +0.00 -0.02    -0.228    51.086
ATOM     24  O   UNL d   1      46.517  -4.678  35.447 +0.00 -0.04    -0.303    51.086
ATOM     25  H   UNL d   1      45.690  -4.382  35.906 +0.00 +0.04    +0.222    51.086
ATOM     26  O   UNL d   1      47.259  -7.037  35.244 +0.00 -0.02    -0.303    51.086
ATOM     27  H   UNL d   1      47.007  -7.949  34.993 +0.00 +0.01    +0.222    51.086
ATOM     28  O   UNL d   1      41.120  -5.422  31.426 -0.15 -0.13    -0.278    51.086
ATOM     29  P   UNL d   1      40.533  -4.034  30.910 -0.16 +0.29    +0.473    51.086
ATOM     30  O   UNL d   1      40.199  -3.978  29.464 -0.31 -0.06    -0.228    51.086
ATOM     31  O   UNL d   1      39.326  -3.841  31.943 -0.19 -0.24    -0.303    51.086
ATOM     32  H   UNL d   1      39.696  -3.802  32.855 +0.10 +0.21    +0.222    51.086
ATOM     33  O   UNL d   1      41.618  -2.995  31.439 -0.62 -0.39    -0.303    51.086
ATOM     34  H   UNL d   1      41.441  -2.804  32.393 +0.06 +0.31    +0.222    51.086
ATOM     35  O   UNL d   1      43.591  -8.587  33.740 -0.01 -0.04    -0.278    51.086
ATOM     36  P   UNL d   1      44.876  -9.515  33.923 +0.02 +0.02    +0.473    51.086
ATOM     37  O   UNL d   1      44.699 -10.947  33.528 +0.00 +0.01    -0.228    51.086
ATOM     38  O   UNL d   1      45.968  -8.731  33.070 +0.00 -0.01    -0.303    51.086
ATOM     39  H   UNL d   1      46.223  -7.913  33.549 +0.00 +0.01    +0.222    51.086
ATOM     40  O   UNL d   1      45.289  -9.228  35.432 +0.00 -0.02    -0.303    51.086
ATOM     41  H   UNL d   1      45.462  -8.273  35.587 +0.00 +0.02    +0.222    51.086
ATOM     42  O   UNL d   1      43.117  -7.468  31.092 -0.06 -0.01    -0.278    51.086
ATOM     43  P   UNL d   1      42.847  -9.002  30.749 -0.11 -0.09    +0.473    51.086
ATOM     44  O   UNL d   1      42.165  -9.309  29.460 -0.45 +0.08    -0.228    51.086
ATOM     45  O   UNL d   1      44.293  -9.651  30.890 -0.05 +0.03    -0.303    51.086
ATOM     46  H   UNL d   1      44.642  -9.554  31.799 +0.03 -0.01    +0.222    51.086
ATOM     47  O   UNL d   1      42.114  -9.548  32.066 -0.11 +0.12    -0.303    51.086
ATOM     48  H   UNL d   1      42.747 -10.083  32.589 +0.03 -0.05    +0.222    51.086
TER
ENDMDL
MODEL       35
USER    Run = 35
USER    Cluster Rank = 82
USER    Number of conformations in this cluster = 1
USER  
USER    RMSD from reference structure       = 22.288 A
USER  
USER    Estimated Free Energy of Binding    =   +4.24 kcal/mol  [=(1)+(2)+(3)-(4)]
USER    
USER    (1) Final Intermolecular Energy     =   -2.92 kcal/mol
USER        vdW + Hbond + desolv Energy     =   -2.93 kcal/mol
USER        Electrostatic Energy            =   +0.01 kcal/mol
USER    (2) Final Total Internal Energy     =  -15.22 kcal/mol
USER    (3) Torsional Free Energy           =   +7.16 kcal/mol
USER    (4) Unbound System's Energy  [=(2)] =  -15.22 kcal/mol
USER    
USER    
USER  
USER    DPF = D:/Protein_go_brrr/autodock/final/1A3N/IHP/dock.dpf
USER    NEWDPF move	IHP_ideal_opt.pdbqt
USER    NEWDPF about	0.035000 0.082000 -0.065000
USER    NEWDPF tran0	17.612533 -19.832260 -0.570389
USER    NEWDPF axisangle0	0.847556 -0.460528 0.263748 118.352387
USER    NEWDPF quaternion0	0.727836 -0.395477 0.226493 0.512400
USER    NEWDPF dihe0	-109.46 -2.13 156.87 0.85 106.22 138.26 -126.00 2.62 60.10 -8.13 -7.81 -72.78 -141.21 73.74 41.49 46.75 160.56 -34.77 26.76 -27.93 164.13 162.03 -6.52 -33.39 
USER  
USER                              x       y       z    vdW   Elec        q     RMS 
ATOM      1  C   UNL d   1      19.232 -20.252  -0.138 -0.01 -0.02    +0.194    22.288
ATOM      2  C   UNL d   1      18.507 -19.323   0.837 -0.04 -0.02    +0.194    22.288
ATOM      3  C   UNL d   1      17.724 -18.231   0.104 -0.12 -0.04    +0.194    22.288
ATOM      4  C   UNL d   1      16.790 -18.781  -0.971 -0.10 -0.05    +0.194    22.288
ATOM      5  C   UNL d   1      17.442 -19.800  -1.897 -0.03 -0.05    +0.194    22.288
ATOM      6  C   UNL d   1      18.275 -20.855  -1.168 -0.01 -0.03    +0.194    22.288
ATOM      7  O   UNL d   1      19.791 -21.335   0.609 -0.00 +0.02    -0.278    22.288
ATOM      8  P   UNL d   1      21.318 -21.234   1.065 +0.01 -0.05    +0.473    22.288
ATOM      9  O   UNL d   1      22.304 -21.780   0.093 -0.00 +0.03    -0.228    22.288
ATOM     10  O   UNL d   1      21.529 -19.682   1.369 -0.01 +0.03    -0.303    22.288
ATOM     11  H   UNL d   1      21.362 -19.508   2.314 +0.04 -0.01    +0.222    22.288
ATOM     12  O   UNL d   1      21.357 -21.866   2.522 -0.02 +0.02    -0.303    22.288
ATOM     13  H   UNL d   1      20.645 -21.526   3.109 +0.04 -0.00    +0.222    22.288
ATOM     14  O   UNL d   1      17.589 -20.094   1.622 -0.02 +0.01    -0.278    22.288
ATOM     15  P   UNL d   1      18.031 -20.418   3.127 -0.02 +0.05    +0.473    22.288
ATOM     16  O   UNL d   1      17.038 -20.106   4.202 -0.24 -0.05    -0.228    22.288
ATOM     17  O   UNL d   1      18.435 -21.959   3.089 -0.11 -0.02    -0.303    22.288
ATOM     18  H   UNL d   1      19.178 -22.113   2.474 +0.02 -0.00    +0.222    22.288
ATOM     19  O   UNL d   1      19.452 -19.720   3.282 -0.17 -0.02    -0.303    22.288
ATOM     20  H   UNL d   1      20.094 -20.061   2.633 +0.04 -0.00    +0.222    22.288
ATOM     21  O   UNL d   1      19.077 -21.501  -2.155 -0.00 +0.04    -0.278    22.288
ATOM     22  P   UNL d   1      20.144 -20.656  -2.986 +0.00 -0.07    +0.473    22.288
ATOM     23  O   UNL d   1      21.372 -20.185  -2.283 -0.01 +0.03    -0.228    22.288
ATOM     24  O   UNL d   1      20.412 -21.607  -4.234 -0.00 +0.04    -0.303    22.288
ATOM     25  H   UNL d   1      19.546 -22.000  -4.513 +0.00 -0.03    +0.222    22.288
ATOM     26  O   UNL d   1      19.222 -19.514  -3.632 -0.02 +0.07    -0.303    22.288
ATOM     27  H   UNL d   1      18.349 -19.894  -3.857 +0.02 -0.05    +0.222    22.288
ATOM     28  O   UNL d   1      16.875 -17.601   1.055 -0.16 +0.05    -0.278    22.288
ATOM     29  P   UNL d   1      15.424 -18.188   1.352 -0.16 -0.03    +0.473    22.288
ATOM     30  O   UNL d   1      15.221 -19.612   0.981 -0.10 +0.00    -0.228    22.288
ATOM     31  O   UNL d   1      15.284 -17.815   2.902 -0.23 -0.01    -0.303    22.288
ATOM     32  H   UNL d   1      15.850 -18.427   3.425 +0.09 +0.02    +0.222    22.288
ATOM     33  O   UNL d   1      14.480 -17.119   0.645 -0.05 +0.08    -0.303    22.288
ATOM     34  H   UNL d   1      14.679 -17.106  -0.323 -0.15 -0.11    +0.222    22.288
ATOM     35  O   UNL d   1      16.366 -20.483  -2.538 -0.01 +0.08    -0.278    22.288
ATOM     36  P   UNL d   1      16.278 -20.530  -4.130 +0.01 -0.17    +0.473    22.288
ATOM     37  O   UNL d   1      14.907 -20.727  -4.694 -0.03 +0.12    -0.228    22.288
ATOM     38  O   UNL d   1      16.959 -19.148  -4.535 -0.03 +0.13    -0.303    22.288
ATOM     39  H   UNL d   1      17.087 -18.604  -3.728 +0.05 -0.10    +0.222    22.288
ATOM     40  O   UNL d   1      17.375 -21.620  -4.500 +0.00 +0.06    -0.303    22.288
ATOM     41  H   UNL d   1      18.232 -21.441  -4.054 +0.01 -0.04    +0.222    22.288
ATOM     42  O   UNL d   1      16.392 -17.669  -1.782 -0.19 +0.13    -0.278    22.288
ATOM     43  P   UNL d   1      14.911 -17.637  -2.373 -0.21 -0.37    +0.473    22.288
ATOM     44  O   UNL d   1      13.941 -18.639  -1.850 -0.23 +0.17    -0.228    22.288
ATOM     45  O   UNL d   1      14.475 -16.125  -2.141 -0.26 +0.32    -0.303    22.288
ATOM     46  H   UNL d   1      14.178 -15.975  -1.221 -0.40 -0.26    +0.222    22.288
ATOM     47  O   UNL d   1      15.149 -17.668  -3.958 -0.19 +0.33    -0.303    22.288
ATOM     48  H   UNL d   1      14.918 -18.555  -4.302 +0.07 -0.22    +0.222    22.288
TER
ENDMDL
MODEL       90
USER    Run = 90
USER    Cluster Rank = 83
USER    Number of conformations in this cluster = 1
USER  
USER    RMSD from reference structure       = 29.129 A
USER  
USER    Estimated Free Energy of Binding    =   +4.26 kcal/mol  [=(1)+(2)+(3)-(4)]
USER    
USER    (1) Final Intermolecular Energy     =   -2.90 kcal/mol
USER        vdW + Hbond + desolv Energy     =   -2.93 kcal/mol
USER        Electrostatic Energy            =   +0.03 kcal/mol
USER    (2) Final Total Internal Energy     =  -16.26 kcal/mol
USER    (3) Torsional Free Energy           =   +7.16 kcal/mol
USER    (4) Unbound System's Energy  [=(2)] =  -16.26 kcal/mol
USER    
USER    
USER  
USER    DPF = D:/Protein_go_brrr/autodock/final/1A3N/IHP/dock.dpf
USER    NEWDPF move	IHP_ideal_opt.pdbqt
USER    NEWDPF about	0.035000 0.082000 -0.065000
USER    NEWDPF tran0	26.434847 18.480177 -7.064422
USER    NEWDPF axisangle0	-0.146053 -0.359258 0.921739 -108.638711
USER    NEWDPF quaternion0	-0.118636 -0.291818 0.748711 -0.583267
USER    NEWDPF dihe0	-154.40 -49.76 170.64 3.09 130.06 127.51 -50.35 -6.74 19.99 107.61 136.47 -179.77 78.49 176.47 177.78 -4.53 -58.72 -143.94 -28.52 15.11 4.50 -4.30 168.49 1.16 
USER  
USER                              x       y       z    vdW   Elec        q     RMS 
ATOM      1  C   UNL d   1      26.374  19.558  -5.716 -0.18 -0.00    +0.194    29.129
ATOM      2  C   UNL d   1      27.575  18.611  -5.752 -0.14 +0.00    +0.194    29.129
ATOM      3  C   UNL d   1      27.167  17.192  -6.151 -0.13 +0.02    +0.194    29.129
ATOM      4  C   UNL d   1      26.352  17.141  -7.441 -0.08 +0.02    +0.194    29.129
ATOM      5  C   UNL d   1      25.212  18.149  -7.496 +0.01 +0.03    +0.194    29.129
ATOM      6  C   UNL d   1      25.606  19.555  -7.038 -0.09 +0.02    +0.194    29.129
ATOM      7  O   UNL d   1      26.859  20.886  -5.507 -0.10 +0.01    -0.278    29.129
ATOM      8  P   UNL d   1      25.914  21.930  -4.752 -0.13 -0.04    +0.473    29.129
ATOM      9  O   UNL d   1      26.556  22.664  -3.628 -0.23 +0.03    -0.228    29.129
ATOM     10  O   UNL d   1      25.393  22.891  -5.914 -0.04 +0.00    -0.303    29.129
ATOM     11  H   UNL d   1      25.079  22.354  -6.666 +0.05 +0.00    +0.222    29.129
ATOM     12  O   UNL d   1      24.603  21.110  -4.386 -0.52 -0.00    -0.303    29.129
ATOM     13  H   UNL d   1      23.886  21.211  -5.052 +0.08 +0.04    +0.222    29.129
ATOM     14  O   UNL d   1      28.525  19.099  -6.708 -0.03 -0.00    -0.278    29.129
ATOM     15  P   UNL d   1      30.070  18.842  -6.377 -0.04 -0.00    +0.473    29.129
ATOM     16  O   UNL d   1      30.975  20.033  -6.427 -0.04 +0.01    -0.228    29.129
ATOM     17  O   UNL d   1      30.049  18.141  -4.947 -0.05 +0.00    -0.303    29.129
ATOM     18  H   UNL d   1      29.759  17.211  -5.015 +0.08 +0.02    +0.222    29.129
ATOM     19  O   UNL d   1      30.481  17.629  -7.321 -0.01 -0.00    -0.303    29.129
ATOM     20  H   UNL d   1      29.914  16.850  -7.175 +0.04 +0.01    +0.222    29.129
ATOM     21  O   UNL d   1      24.393  20.272  -6.818 -0.07 -0.04    -0.278    29.129
ATOM     22  P   UNL d   1      23.832  21.244  -7.952 -0.02 +0.03    +0.473    29.129
ATOM     23  O   UNL d   1      23.000  22.409  -7.533 -0.06 -0.01    -0.228    29.129
ATOM     24  O   UNL d   1      25.161  21.623  -8.742 -0.01 -0.01    -0.303    29.129
ATOM     25  H   UNL d   1      25.523  20.796  -9.150 +0.02 +0.01    +0.222    29.129
ATOM     26  O   UNL d   1      23.134  20.207  -8.955 -0.00 -0.03    -0.303    29.129
ATOM     27  H   UNL d   1      23.742  19.456  -9.116 +0.03 +0.02    +0.222    29.129
ATOM     28  O   UNL d   1      28.357  16.465  -6.427 -0.06 -0.02    -0.278    29.129
ATOM     29  P   UNL d   1      28.885  15.367  -5.401 -0.14 +0.05    +0.473    29.129
ATOM     30  O   UNL d   1      28.566  15.618  -3.972 -0.80 -0.06    -0.228    29.129
ATOM     31  O   UNL d   1      28.266  14.047  -6.063 -0.13 -0.03    -0.303    29.129
ATOM     32  H   UNL d   1      27.784  14.303  -6.882 +0.08 +0.03    +0.222    29.129
ATOM     33  O   UNL d   1      30.426  15.263  -5.787 -0.14 -0.00    -0.303    29.129
ATOM     34  H   UNL d   1      30.821  16.170  -5.781 +0.08 +0.00    +0.222    29.129
ATOM     35  O   UNL d   1      24.844  18.243  -8.870 -0.05 -0.03    -0.278    29.129
ATOM     36  P   UNL d   1      25.903  18.739  -9.955 -0.01 +0.04    +0.473    29.129
ATOM     37  O   UNL d   1      27.130  19.393  -9.405 -0.01 -0.01    -0.228    29.129
ATOM     38  O   UNL d   1      26.184  17.401 -10.771 -0.01 -0.03    -0.303    29.129
ATOM     39  H   UNL d   1      26.390  16.677 -10.141 +0.02 +0.02    +0.222    29.129
ATOM     40  O   UNL d   1      25.002  19.605 -10.938 -0.01 -0.02    -0.303    29.129
ATOM     41  H   UNL d   1      24.649  20.409 -10.496 +0.01 +0.01    +0.222    29.129
ATOM     42  O   UNL d   1      25.765  15.837  -7.509 -0.09 -0.04    -0.278    29.129
ATOM     43  P   UNL d   1      26.296  14.808  -8.607 -0.03 +0.08    +0.473    29.129
ATOM     44  O   UNL d   1      25.510  14.682  -9.866 -0.03 -0.04    -0.228    29.129
ATOM     45  O   UNL d   1      27.802  15.275  -8.823 -0.01 -0.03    -0.303    29.129
ATOM     46  H   UNL d   1      28.330  15.170  -8.006 +0.05 +0.02    +0.222    29.129
ATOM     47  O   UNL d   1      26.491  13.452  -7.774 -0.08 -0.06    -0.303    29.129
ATOM     48  H   UNL d   1      26.253  13.612  -6.837 +0.08 +0.04    +0.222    29.129
TER
ENDMDL
MODEL       50
USER    Run = 50
USER    Cluster Rank = 84
USER    Number of conformations in this cluster = 1
USER  
USER    RMSD from reference structure       = 43.748 A
USER  
USER    Estimated Free Energy of Binding    =   +4.33 kcal/mol  [=(1)+(2)+(3)-(4)]
USER    
USER    (1) Final Intermolecular Energy     =   -2.83 kcal/mol
USER        vdW + Hbond + desolv Energy     =   -2.78 kcal/mol
USER        Electrostatic Energy            =   -0.04 kcal/mol
USER    (2) Final Total Internal Energy     =  -14.92 kcal/mol
USER    (3) Torsional Free Energy           =   +7.16 kcal/mol
USER    (4) Unbound System's Energy  [=(2)] =  -14.92 kcal/mol
USER    
USER    
USER  
USER    DPF = D:/Protein_go_brrr/autodock/final/1A3N/IHP/dock.dpf
USER    NEWDPF move	IHP_ideal_opt.pdbqt
USER    NEWDPF about	0.035000 0.082000 -0.065000
USER    NEWDPF tran0	39.619933 -22.311758 16.642016
USER    NEWDPF axisangle0	-0.931452 -0.046841 0.360838 -128.106721
USER    NEWDPF quaternion0	-0.837563 -0.042119 0.324466 -0.437534
USER    NEWDPF dihe0	-178.00 -2.48 128.76 73.72 62.17 -126.85 -41.18 42.29 27.10 100.07 131.46 136.97 30.49 113.05 122.48 118.80 -58.18 65.02 -2.58 -13.79 -11.99 -9.42 -11.06 -23.79 
USER  
USER                              x       y       z    vdW   Elec        q     RMS 
ATOM      1  C   UNL d   1      40.335 -20.765  16.361 -0.21 -0.01    +0.194    43.748
ATOM      2  C   UNL d   1      39.740 -20.974  17.754 -0.20 -0.01    +0.194    43.748
ATOM      3  C   UNL d   1      38.383 -21.679  17.691 -0.19 -0.02    +0.194    43.748
ATOM      4  C   UNL d   1      38.413 -22.969  16.876 -0.11 -0.01    +0.194    43.748
ATOM      5  C   UNL d   1      39.102 -22.834  15.524 -0.12 -0.00    +0.194    43.748
ATOM      6  C   UNL d   1      40.429 -22.075  15.578 -0.09 -0.00    +0.194    43.748
ATOM      7  O   UNL d   1      41.665 -20.264  16.514 -0.12 +0.00    -0.278    43.748
ATOM      8  P   UNL d   1      42.051 -18.898  15.781 -0.17 +0.02    +0.473    43.748
ATOM      9  O   UNL d   1      41.649 -17.659  16.502 -0.13 +0.01    -0.228    43.748
ATOM     10  O   UNL d   1      43.627 -19.011  15.558 -0.10 -0.06    -0.303    43.748
ATOM     11  H   UNL d   1      43.889 -19.951  15.545 +0.04 +0.02    +0.222    43.748
ATOM     12  O   UNL d   1      41.494 -19.052  14.301 -0.20 -0.03    -0.303    43.748
ATOM     13  H   UNL d   1      41.731 -19.912  13.887 +0.06 +0.02    +0.222    43.748
ATOM     14  O   UNL d   1      40.637 -21.780  18.529 -0.05 +0.01    -0.278    43.748
ATOM     15  P   UNL d   1      41.253 -21.103  19.843 -0.05 -0.03    +0.473    43.748
ATOM     16  O   UNL d   1      41.972 -22.010  20.792 -0.02 +0.02    -0.228    43.748
ATOM     17  O   UNL d   1      42.182 -19.938  19.279 -0.11 +0.03    -0.303    43.748
ATOM     18  H   UNL d   1      41.812 -19.559  18.459 +0.05 -0.01    +0.222    43.748
ATOM     19  O   UNL d   1      40.046 -20.276  20.467 -0.06 +0.02    -0.303    43.748
ATOM     20  H   UNL d   1      39.193 -20.529  20.070 +0.07 -0.01    +0.222    43.748
ATOM     21  O   UNL d   1      40.765 -21.736  14.234 -0.08 -0.01    -0.278    43.748
ATOM     22  P   UNL d   1      42.056 -22.382  13.554 -0.01 +0.01    +0.473    43.748
ATOM     23  O   UNL d   1      42.067 -22.538  12.071 -0.01 -0.00    -0.228    43.748
ATOM     24  O   UNL d   1      43.222 -21.470  14.139 -0.01 -0.01    -0.303    43.748
ATOM     25  H   UNL d   1      42.809 -20.752  14.683 +0.04 +0.01    +0.222    43.748
ATOM     26  O   UNL d   1      42.232 -23.730  14.405 -0.00 +0.00    -0.303    43.748
ATOM     27  H   UNL d   1      41.421 -24.272  14.320 +0.01 -0.00    +0.222    43.748
ATOM     28  O   UNL d   1      38.044 -22.075  19.014 -0.09 +0.02    -0.278    43.748
ATOM     29  P   UNL d   1      37.002 -21.225  19.867 -0.10 -0.05    +0.473    43.748
ATOM     30  O   UNL d   1      35.588 -21.671  19.780 -0.06 +0.02    -0.228    43.748
ATOM     31  O   UNL d   1      37.698 -21.293  21.306 -0.04 +0.03    -0.303    43.748
ATOM     32  H   UNL d   1      38.602 -21.669  21.200 +0.04 -0.02    +0.222    43.748
ATOM     33  O   UNL d   1      37.318 -19.738  19.393 -0.22 +0.05    -0.303    43.748
ATOM     34  H   UNL d   1      36.633 -19.457  18.738 -0.42 -0.08    +0.222    43.748
ATOM     35  O   UNL d   1      39.396 -24.165  15.104 -0.02 +0.01    -0.278    43.748
ATOM     36  P   UNL d   1      38.777 -24.736  13.750 -0.00 -0.02    +0.473    43.748
ATOM     37  O   UNL d   1      37.660 -23.934  13.162 -0.08 +0.01    -0.228    43.748
ATOM     38  O   UNL d   1      40.066 -24.843  12.821 -0.01 +0.01    -0.303    43.748
ATOM     39  H   UNL d   1      40.612 -24.035  12.936 +0.02 -0.00    +0.222    43.748
ATOM     40  O   UNL d   1      38.456 -26.246  14.133 -0.00 +0.01    -0.303    43.748
ATOM     41  H   UNL d   1      37.840 -26.305  14.898 +0.02 -0.01    +0.222    43.748
ATOM     42  O   UNL d   1      37.052 -23.331  16.621 +0.00 +0.00    -0.278    43.748
ATOM     43  P   UNL d   1      36.606 -24.849  16.824 -0.01 -0.01    +0.473    43.748
ATOM     44  O   UNL d   1      35.693 -25.150  17.961 -0.05 +0.01    -0.228    43.748
ATOM     45  O   UNL d   1      36.016 -25.233  15.396 -0.04 +0.01    -0.303    43.748
ATOM     46  H   UNL d   1      36.683 -25.116  14.690 +0.04 -0.01    +0.222    43.748
ATOM     47  O   UNL d   1      37.998 -25.643  16.825 -0.01 +0.01    -0.303    43.748
ATOM     48  H   UNL d   1      38.564 -25.303  16.101 +0.02 -0.01    +0.222    43.748
TER
ENDMDL
MODEL       80
USER    Run = 80
USER    Cluster Rank = 85
USER    Number of conformations in this cluster = 1
USER  
USER    RMSD from reference structure       = 13.773 A
USER  
USER    Estimated Free Energy of Binding    =   +4.38 kcal/mol  [=(1)+(2)+(3)-(4)]
USER    
USER    (1) Final Intermolecular Energy     =   -2.78 kcal/mol
USER        vdW + Hbond + desolv Energy     =   -2.70 kcal/mol
USER        Electrostatic Energy            =   -0.08 kcal/mol
USER    (2) Final Total Internal Energy     =  -14.03 kcal/mol
USER    (3) Torsional Free Energy           =   +7.16 kcal/mol
USER    (4) Unbound System's Energy  [=(2)] =  -14.03 kcal/mol
USER    
USER    
USER  
USER    DPF = D:/Protein_go_brrr/autodock/final/1A3N/IHP/dock.dpf
USER    NEWDPF move	IHP_ideal_opt.pdbqt
USER    NEWDPF about	0.035000 0.082000 -0.065000
USER    NEWDPF tran0	-9.942946 -9.614329 -9.671637
USER    NEWDPF axisangle0	0.202181 -0.907326 0.368622 93.623176
USER    NEWDPF quaternion0	0.147412 -0.661538 0.268765 0.684400
USER    NEWDPF dihe0	-163.35 4.94 24.49 -39.85 -2.27 -179.87 -48.63 -45.36 180.00 -43.15 164.32 -126.21 18.88 -178.50 159.03 -175.09 108.56 -16.03 0.16 -36.92 -27.16 -29.44 -54.45 140.19 
USER  
USER                              x       y       z    vdW   Elec        q     RMS 
ATOM      1  C   UNL d   1      -9.342 -11.162 -10.148 -0.00 +0.04    +0.194    13.773
ATOM      2  C   UNL d   1      -9.820 -11.056  -8.698 -0.02 +0.05    +0.194    13.773
ATOM      3  C   UNL d   1      -9.350  -9.757  -8.041 -0.09 +0.10    +0.194    13.773
ATOM      4  C   UNL d   1      -9.695  -8.512  -8.855 -0.06 +0.19    +0.194    13.773
ATOM      5  C   UNL d   1      -9.340  -8.619 -10.333 -0.05 +0.10    +0.194    13.773
ATOM      6  C   UNL d   1      -9.755  -9.944 -10.975 -0.01 +0.06    +0.194    13.773
ATOM      7  O   UNL d   1      -9.961 -12.308 -10.738 +0.00 -0.04    -0.278    13.773
ATOM      8  P   UNL d   1      -9.022 -13.447 -11.350 +0.00 +0.04    +0.473    13.773
ATOM      9  O   UNL d   1      -8.270 -14.250 -10.349 +0.00 -0.01    -0.228    13.773
ATOM     10  O   UNL d   1     -10.011 -14.324 -12.244 +0.00 -0.02    -0.303    13.773
ATOM     11  H   UNL d   1     -10.646 -13.739 -12.698 +0.00 +0.01    +0.222    13.773
ATOM     12  O   UNL d   1      -8.144 -12.710 -12.451 +0.00 -0.03    -0.303    13.773
ATOM     13  H   UNL d   1      -8.655 -12.054 -12.976 +0.00 +0.03    +0.222    13.773
ATOM     14  O   UNL d   1     -11.252 -11.088  -8.675 -0.02 -0.09    -0.278    13.773
ATOM     15  P   UNL d   1     -11.933 -12.517  -8.433 +0.01 +0.06    +0.473    13.773
ATOM     16  O   UNL d   1     -12.892 -12.991  -9.479 +0.00 -0.02    -0.228    13.773
ATOM     17  O   UNL d   1     -10.700 -13.504  -8.232 +0.00 -0.02    -0.303    13.773
ATOM     18  H   UNL d   1     -10.226 -13.651  -9.074 +0.00 +0.01    +0.222    13.773
ATOM     19  O   UNL d   1     -12.517 -12.432  -6.956 +0.00 -0.02    -0.303    13.773
ATOM     20  H   UNL d   1     -11.930 -12.866  -6.310 +0.01 +0.00    +0.222    13.773
ATOM     21  O   UNL d   1      -9.067 -10.032 -12.221 +0.00 -0.06    -0.278    13.773
ATOM     22  P   UNL d   1      -9.878 -10.371 -13.552 +0.01 +0.07    +0.473    13.773
ATOM     23  O   UNL d   1      -9.105 -10.660 -14.794 +0.00 -0.03    -0.228    13.773
ATOM     24  O   UNL d   1     -10.824 -11.555 -13.063 +0.00 -0.04    -0.303    13.773
ATOM     25  H   UNL d   1     -10.257 -12.345 -12.876 +0.00 +0.02    +0.222    13.773
ATOM     26  O   UNL d   1     -10.902  -9.140 -13.631 +0.00 -0.06    -0.303    13.773
ATOM     27  H   UNL d   1     -10.687  -8.497 -12.925 +0.01 +0.06    +0.222    13.773
ATOM     28  O   UNL d   1     -10.060  -9.615  -6.817 -0.07 -0.16    -0.278    13.773
ATOM     29  P   UNL d   1      -9.582 -10.398  -5.515 -0.07 +0.05    +0.473    13.773
ATOM     30  O   UNL d   1     -10.051  -9.837  -4.222 -0.18 +0.03    -0.228    13.773
ATOM     31  O   UNL d   1     -10.068 -11.877  -5.884 -0.01 -0.01    -0.303    13.773
ATOM     32  H   UNL d   1     -10.454 -11.864  -6.790 +0.02 +0.02    +0.222    13.773
ATOM     33  O   UNL d   1      -8.007 -10.480  -5.734 -0.10 -0.03    -0.303    13.773
ATOM     34  H   UNL d   1      -7.750  -9.857  -6.458 +0.08 +0.05    +0.222    13.773
ATOM     35  O   UNL d   1     -10.079  -7.587 -10.984 -0.04 -0.17    -0.278    13.773
ATOM     36  P   UNL d   1      -9.604  -6.068 -10.878 -0.05 +0.31    +0.473    13.773
ATOM     37  O   UNL d   1      -9.998  -5.188 -12.021 -0.02 -0.09    -0.228    13.773
ATOM     38  O   UNL d   1     -10.218  -5.633  -9.474 -0.64 -0.45    -0.303    13.773
ATOM     39  H   UNL d   1      -9.488  -5.512  -8.828 +0.06 +0.28    +0.222    13.773
ATOM     40  O   UNL d   1      -8.048  -6.218 -10.585 -0.06 -0.17    -0.303    13.773
ATOM     41  H   UNL d   1      -7.868  -6.344  -9.627 +0.08 +0.14    +0.222    13.773
ATOM     42  O   UNL d   1      -8.923  -7.435  -8.314 -0.26 -0.28    -0.278    13.773
ATOM     43  P   UNL d   1      -7.516  -7.760  -7.634 -0.23 +0.25    +0.473    13.773
ATOM     44  O   UNL d   1      -6.762  -8.938  -8.147 -0.16 -0.10    -0.228    13.773
ATOM     45  O   UNL d   1      -6.737  -6.379  -7.768 -0.34 -0.16    -0.303    13.773
ATOM     46  H   UNL d   1      -6.874  -5.813  -6.983 -0.30 +0.02    +0.222    13.773
ATOM     47  O   UNL d   1      -7.863  -7.788  -6.070 -0.30 -0.12    -0.303    13.773
ATOM     48  H   UNL d   1      -8.613  -8.399  -5.916 +0.09 +0.09    +0.222    13.773
TER
ENDMDL
MODEL       17
USER    Run = 17
USER    Cluster Rank = 86
USER    Number of conformations in this cluster = 1
USER  
USER    RMSD from reference structure       = 17.899 A
USER  
USER    Estimated Free Energy of Binding    =   +4.43 kcal/mol  [=(1)+(2)+(3)-(4)]
USER    
USER    (1) Final Intermolecular Energy     =   -2.73 kcal/mol
USER        vdW + Hbond + desolv Energy     =   -2.59 kcal/mol
USER        Electrostatic Energy            =   -0.14 kcal/mol
USER    (2) Final Total Internal Energy     =  -14.72 kcal/mol
USER    (3) Torsional Free Energy           =   +7.16 kcal/mol
USER    (4) Unbound System's Energy  [=(2)] =  -14.72 kcal/mol
USER    
USER    
USER  
USER    DPF = D:/Protein_go_brrr/autodock/final/1A3N/IHP/dock.dpf
USER    NEWDPF move	IHP_ideal_opt.pdbqt
USER    NEWDPF about	0.035000 0.082000 -0.065000
USER    NEWDPF tran0	2.520913 21.478597 -2.647061
USER    NEWDPF axisangle0	0.272600 -0.854471 -0.442232 -142.644109
USER    NEWDPF quaternion0	0.258243 -0.809469 -0.418941 -0.320248
USER    NEWDPF dihe0	-124.53 95.83 88.61 97.30 177.91 154.51 -13.77 -100.61 157.36 -6.35 118.75 158.93 -77.69 105.43 -124.47 -43.12 -176.83 -125.66 22.68 -8.40 -42.83 4.12 28.69 -1.51 
USER  
USER                              x       y       z    vdW   Elec        q     RMS 
ATOM      1  C   UNL d   1       1.244  20.566  -3.369 -0.01 -0.01    +0.194    17.899
ATOM      2  C   UNL d   1       2.461  20.819  -4.260 -0.01 -0.01    +0.194    17.899
ATOM      3  C   UNL d   1       2.963  22.260  -4.139 +0.00 -0.00    +0.194    17.899
ATOM      4  C   UNL d   1       3.205  22.692  -2.695 -0.00 +0.00    +0.194    17.899
ATOM      5  C   UNL d   1       2.062  22.355  -1.746 -0.02 +0.01    +0.194    17.899
ATOM      6  C   UNL d   1       1.519  20.934  -1.910 -0.01 -0.00    +0.194    17.899
ATOM      7  O   UNL d   1       0.946  19.169  -3.407 -0.03 +0.02    -0.278    17.899
ATOM      8  P   UNL d   1      -0.234  18.670  -4.361 -0.12 -0.04    +0.473    17.899
ATOM      9  O   UNL d   1      -1.284  19.684  -4.649 -0.09 +0.01    -0.228    17.899
ATOM     10  O   UNL d   1       0.518  18.155  -5.670 -0.12 +0.08    -0.303    17.899
ATOM     11  H   UNL d   1       0.904  17.275  -5.500 -0.51 -0.11    +0.222    17.899
ATOM     12  O   UNL d   1      -0.742  17.311  -3.713 -0.24 +0.00    -0.303    17.899
ATOM     13  H   UNL d   1      -0.938  17.391  -2.752 +0.06 +0.01    +0.222    17.899
ATOM     14  O   UNL d   1       3.518  19.933  -3.870 -0.00 +0.01    -0.278    17.899
ATOM     15  P   UNL d   1       4.106  18.975  -5.011 -0.00 -0.03    +0.473    17.899
ATOM     16  O   UNL d   1       5.457  18.383  -4.760 -0.01 +0.01    -0.228    17.899
ATOM     17  O   UNL d   1       2.975  17.871  -5.211 -0.04 +0.04    -0.303    17.899
ATOM     18  H   UNL d   1       2.271  17.963  -4.540 +0.03 -0.03    +0.222    17.899
ATOM     19  O   UNL d   1       3.966  19.821  -6.350 -0.00 +0.02    -0.303    17.899
ATOM     20  H   UNL d   1       4.150  20.767  -6.200 +0.00 -0.01    +0.222    17.899
ATOM     21  O   UNL d   1       0.270  20.888  -1.224 -0.02 +0.00    -0.278    17.899
ATOM     22  P   UNL d   1      -0.173  19.552  -0.474 -0.00 -0.02    +0.473    17.899
ATOM     23  O   UNL d   1      -1.038  18.584  -1.208 -0.09 +0.00    -0.228    17.899
ATOM     24  O   UNL d   1       1.229  18.967   0.002 -0.01 +0.03    -0.303    17.899
ATOM     25  H   UNL d   1       1.268  19.025   0.991 +0.08 -0.03    +0.222    17.899
ATOM     26  O   UNL d   1      -0.772  20.131   0.896 -0.05 +0.01    -0.303    17.899
ATOM     27  H   UNL d   1      -0.433  21.039   1.037 +0.07 +0.01    +0.222    17.899
ATOM     28  O   UNL d   1       4.235  22.325  -4.771 +0.00 +0.00    -0.278    17.899
ATOM     29  P   UNL d   1       4.437  23.205  -6.082 +0.00 -0.00    +0.473    17.899
ATOM     30  O   UNL d   1       3.757  22.702  -7.303 -0.00 +0.00    -0.228    17.899
ATOM     31  O   UNL d   1       3.978  24.636  -5.532 +0.00 -0.00    -0.303    17.899
ATOM     32  H   UNL d   1       4.294  24.732  -4.604 +0.00 +0.00    +0.222    17.899
ATOM     33  O   UNL d   1       6.022  23.346  -6.148 +0.00 -0.00    -0.303    17.899
ATOM     34  H   UNL d   1       6.368  23.508  -5.237 +0.00 +0.00    +0.222    17.899
ATOM     35  O   UNL d   1       2.610  22.446  -0.432 -0.05 -0.03    -0.278    17.899
ATOM     36  P   UNL d   1       1.652  22.650   0.827 -0.04 +0.12    +0.473    17.899
ATOM     37  O   UNL d   1       2.067  23.719   1.787 -0.94 -0.13    -0.228    17.899
ATOM     38  O   UNL d   1       0.245  22.908   0.127 -0.07 -0.04    -0.303    17.899
ATOM     39  H   UNL d   1      -0.195  22.046  -0.039 +0.05 +0.01    +0.222    17.899
ATOM     40  O   UNL d   1       1.528  21.172   1.401 -0.42 -0.05    -0.303    17.899
ATOM     41  H   UNL d   1       1.323  20.521   0.693 +0.07 +0.00    +0.222    17.899
ATOM     42  O   UNL d   1       3.337  24.118  -2.706 -0.00 -0.01    -0.278    17.899
ATOM     43  P   UNL d   1       4.753  24.764  -2.357 +0.00 +0.03    +0.473    17.899
ATOM     44  O   UNL d   1       5.124  24.871  -0.919 -0.04 -0.03    -0.228    17.899
ATOM     45  O   UNL d   1       5.759  23.889  -3.226 -0.00 -0.01    -0.303    17.899
ATOM     46  H   UNL d   1       5.430  23.764  -4.138 +0.00 +0.01    +0.222    17.899
ATOM     47  O   UNL d   1       4.736  26.144  -3.172 -0.00 -0.01    -0.303    17.899
ATOM     48  H   UNL d   1       4.090  26.078  -3.905 +0.00 +0.01    +0.222    17.899
TER
ENDMDL
MODEL       47
USER    Run = 47
USER    Cluster Rank = 87
USER    Number of conformations in this cluster = 1
USER  
USER    RMSD from reference structure       = 29.892 A
USER  
USER    Estimated Free Energy of Binding    =   +4.54 kcal/mol  [=(1)+(2)+(3)-(4)]
USER    
USER    (1) Final Intermolecular Energy     =   -2.62 kcal/mol
USER        vdW + Hbond + desolv Energy     =   -2.52 kcal/mol
USER        Electrostatic Energy            =   -0.09 kcal/mol
USER    (2) Final Total Internal Energy     =  -14.38 kcal/mol
USER    (3) Torsional Free Energy           =   +7.16 kcal/mol
USER    (4) Unbound System's Energy  [=(2)] =  -14.38 kcal/mol
USER    
USER    
USER  
USER    DPF = D:/Protein_go_brrr/autodock/final/1A3N/IHP/dock.dpf
USER    NEWDPF move	IHP_ideal_opt.pdbqt
USER    NEWDPF about	0.035000 0.082000 -0.065000
USER    NEWDPF tran0	29.668576 13.860285 -8.943921
USER    NEWDPF axisangle0	0.775499 0.398862 0.489398 -91.304344
USER    NEWDPF quaternion0	0.554567 0.285230 0.349973 -0.699012
USER    NEWDPF dihe0	144.78 69.01 176.74 9.73 108.67 109.53 -136.52 -10.62 98.99 8.56 104.92 62.62 -39.19 78.55 -116.45 49.73 52.72 -158.78 18.16 -38.03 -16.97 163.81 -8.35 -35.82 
USER  
USER                              x       y       z    vdW   Elec        q     RMS 
ATOM      1  C   UNL d   1      31.187  14.290  -9.647 -0.02 +0.00    +0.194    29.892
ATOM      2  C   UNL d   1      30.296  13.385 -10.500 -0.03 +0.02    +0.194    29.892
ATOM      3  C   UNL d   1      29.651  12.276  -9.665 -0.11 +0.04    +0.194    29.892
ATOM      4  C   UNL d   1      28.926  12.799  -8.428 -0.13 +0.03    +0.194    29.892
ATOM      5  C   UNL d   1      29.736  13.796  -7.609 -0.10 +0.01    +0.194    29.892
ATOM      6  C   UNL d   1      30.432  14.868  -8.450 -0.03 +0.00    +0.194    29.892
ATOM      7  O   UNL d   1      31.609  15.390 -10.456 -0.00 -0.01    -0.278    29.892
ATOM      8  P   UNL d   1      33.108  15.396 -11.008 +0.00 +0.00    +0.473    29.892
ATOM      9  O   UNL d   1      33.839  14.107 -10.862 -0.01 +0.01    -0.228    29.892
ATOM     10  O   UNL d   1      32.960  15.866 -12.525 +0.00 -0.01    -0.303    29.892
ATOM     11  H   UNL d   1      32.022  15.827 -12.790 +0.00 +0.01    +0.222    29.892
ATOM     12  O   UNL d   1      33.792  16.661 -10.333 +0.00 +0.00    -0.303    29.892
ATOM     13  H   UNL d   1      33.354  16.936  -9.496 +0.01 -0.00    +0.222    29.892
ATOM     14  O   UNL d   1      29.257  14.175 -11.091 -0.01 -0.04    -0.278    29.892
ATOM     15  P   UNL d   1      29.539  14.745 -12.560 +0.00 +0.06    +0.473    29.892
ATOM     16  O   UNL d   1      28.436  14.598 -13.561 -0.00 -0.03    -0.228    29.892
ATOM     17  O   UNL d   1      29.951  16.264 -12.314 +0.00 -0.02    -0.303    29.892
ATOM     18  H   UNL d   1      30.888  16.335 -12.048 +0.00 +0.01    +0.222    29.892
ATOM     19  O   UNL d   1      30.932  14.099 -12.976 -0.00 -0.03    -0.303    29.892
ATOM     20  H   UNL d   1      31.607  14.221 -12.282 +0.01 +0.02    +0.222    29.892
ATOM     21  O   UNL d   1      31.399  15.491  -7.606 -0.03 +0.01    -0.278    29.892
ATOM     22  P   UNL d   1      31.293  17.053  -7.299 +0.00 -0.00    +0.473    29.892
ATOM     23  O   UNL d   1      31.925  18.004  -8.259 -0.00 +0.00    -0.228    29.892
ATOM     24  O   UNL d   1      29.725  17.242  -7.107 -0.02 -0.01    -0.303    29.892
ATOM     25  H   UNL d   1      29.387  16.483  -6.566 +0.06 +0.01    +0.222    29.892
ATOM     26  O   UNL d   1      31.823  17.124  -5.788 -0.08 +0.00    -0.303    29.892
ATOM     27  H   UNL d   1      31.203  16.637  -5.207 +0.08 +0.01    +0.222    29.892
ATOM     28  O   UNL d   1      28.644  11.669 -10.465 -0.09 -0.13    -0.278    29.892
ATOM     29  P   UNL d   1      27.177  12.288 -10.517 -0.06 +0.20    +0.473    29.892
ATOM     30  O   UNL d   1      27.079  13.732 -10.182 -0.03 -0.05    -0.228    29.892
ATOM     31  O   UNL d   1      26.745  11.855 -11.996 -0.06 -0.16    -0.303    29.892
ATOM     32  H   UNL d   1      27.081  12.529 -12.632 +0.01 +0.08    +0.222    29.892
ATOM     33  O   UNL d   1      26.355  11.279  -9.601 -0.11 -0.20    -0.303    29.892
ATOM     34  H   UNL d   1      26.850  11.136  -8.757 +0.06 +0.13    +0.222    29.892
ATOM     35  O   UNL d   1      28.795  14.464  -6.771 -0.07 -0.02    -0.278    29.892
ATOM     36  P   UNL d   1      28.967  14.436  -5.185 -0.12 +0.04    +0.473    29.892
ATOM     37  O   UNL d   1      29.637  15.632  -4.588 -0.39 -0.03    -0.228    29.892
ATOM     38  O   UNL d   1      27.467  14.214  -4.699 -0.18 -0.05    -0.303    29.892
ATOM     39  H   UNL d   1      26.976  13.717  -5.388 +0.10 +0.03    +0.222    29.892
ATOM     40  O   UNL d   1      29.660  13.024  -4.944 -0.22 +0.02    -0.303    29.892
ATOM     41  H   UNL d   1      29.358  12.354  -5.597 -0.06 -0.02    +0.222    29.892
ATOM     42  O   UNL d   1      28.674  11.669  -7.586 -0.21 -0.06    -0.278    29.892
ATOM     43  P   UNL d   1      27.349  11.650  -6.697 -0.19 +0.10    +0.473    29.892
ATOM     44  O   UNL d   1      27.514  11.720  -5.218 -0.33 -0.02    -0.228    29.892
ATOM     45  O   UNL d   1      26.497  12.844  -7.314 -0.11 -0.07    -0.303    29.892
ATOM     46  H   UNL d   1      26.667  12.947  -8.272 +0.06 +0.06    +0.222    29.892
ATOM     47  O   UNL d   1      26.559  10.368  -7.245 -0.19 -0.14    -0.303    29.892
ATOM     48  H   UNL d   1      25.699  10.654  -7.618 +0.09 +0.10    +0.222    29.892
TER
ENDMDL
MODEL       49
USER    Run = 49
USER    Cluster Rank = 88
USER    Number of conformations in this cluster = 1
USER  
USER    RMSD from reference structure       = 38.984 A
USER  
USER    Estimated Free Energy of Binding    =   +4.57 kcal/mol  [=(1)+(2)+(3)-(4)]
USER    
USER    (1) Final Intermolecular Energy     =   -2.59 kcal/mol
USER        vdW + Hbond + desolv Energy     =   -2.52 kcal/mol
USER        Electrostatic Energy            =   -0.07 kcal/mol
USER    (2) Final Total Internal Energy     =  -13.79 kcal/mol
USER    (3) Torsional Free Energy           =   +7.16 kcal/mol
USER    (4) Unbound System's Energy  [=(2)] =  -13.79 kcal/mol
USER    
USER    
USER  
USER    DPF = D:/Protein_go_brrr/autodock/final/1A3N/IHP/dock.dpf
USER    NEWDPF move	IHP_ideal_opt.pdbqt
USER    NEWDPF about	0.035000 0.082000 -0.065000
USER    NEWDPF tran0	14.525370 -22.707468 33.804987
USER    NEWDPF axisangle0	0.438850 0.163842 0.883497 -161.610885
USER    NEWDPF quaternion0	0.433211 0.161737 0.872145 -0.159787
USER    NEWDPF dihe0	145.45 74.26 41.91 41.54 53.60 175.60 41.36 -32.36 160.14 123.92 103.55 -92.44 -37.32 -164.64 141.65 63.20 45.48 95.66 23.13 -44.42 -22.87 -35.78 -179.95 20.12 
USER  
USER                              x       y       z    vdW   Elec        q     RMS 
ATOM      1  C   UNL d   1      14.568 -21.273  34.766 -0.05 -0.05    +0.194    38.984
ATOM      2  C   UNL d   1      15.098 -21.128  33.338 -0.08 -0.05    +0.194    38.984
ATOM      3  C   UNL d   1      15.983 -22.310  32.939 -0.04 -0.02    +0.194    38.984
ATOM      4  C   UNL d   1      15.318 -23.665  33.174 -0.00 -0.01    +0.194    38.984
ATOM      5  C   UNL d   1      14.675 -23.811  34.547 +0.00 -0.01    +0.194    38.984
ATOM      6  C   UNL d   1      13.840 -22.602  34.972 -0.00 -0.02    +0.194    38.984
ATOM      7  O   UNL d   1      13.621 -20.228  34.999 -0.05 +0.11    -0.278    38.984
ATOM      8  P   UNL d   1      14.103 -18.930  35.798 -0.08 -0.22    +0.473    38.984
ATOM      9  O   UNL d   1      15.578 -18.787  35.936 +0.00 +0.08    -0.228    38.984
ATOM     10  O   UNL d   1      13.426 -17.719  35.012 -0.17 +0.36    -0.303    38.984
ATOM     11  H   UNL d   1      13.071 -18.038  34.161 -0.13 -0.36    +0.222    38.984
ATOM     12  O   UNL d   1      13.278 -18.950  37.155 -0.02 +0.09    -0.303    38.984
ATOM     13  H   UNL d   1      13.038 -19.859  37.447 +0.02 -0.05    +0.222    38.984
ATOM     14  O   UNL d   1      13.988 -21.062  32.434 -0.06 +0.07    -0.278    38.984
ATOM     15  P   UNL d   1      13.364 -19.611  32.172 -0.05 -0.34    +0.473    38.984
ATOM     16  O   UNL d   1      12.010 -19.347  32.753 -0.11 +0.21    -0.228    38.984
ATOM     17  O   UNL d   1      14.475 -18.607  32.714 -0.12 +0.31    -0.303    38.984
ATOM     18  H   UNL d   1      14.718 -18.816  33.636 -0.37 -0.21    +0.222    38.984
ATOM     19  O   UNL d   1      13.487 -19.404  30.599 -0.17 +0.12    -0.303    38.984
ATOM     20  H   UNL d   1      14.134 -20.017  30.204 +0.09 -0.03    +0.222    38.984
ATOM     21  O   UNL d   1      13.603 -22.736  36.372 +0.00 +0.03    -0.278    38.984
ATOM     22  P   UNL d   1      12.108 -22.707  36.928 +0.01 -0.04    +0.473    38.984
ATOM     23  O   UNL d   1      11.884 -23.035  38.365 -0.00 +0.01    -0.228    38.984
ATOM     24  O   UNL d   1      11.627 -21.253  36.492 +0.00 +0.05    -0.303    38.984
ATOM     25  H   UNL d   1      12.424 -20.739  36.204 +0.02 -0.05    +0.222    38.984
ATOM     26  O   UNL d   1      11.348 -23.639  35.867 +0.00 +0.02    -0.303    38.984
ATOM     27  H   UNL d   1      11.994 -23.974  35.213 +0.00 -0.01    +0.222    38.984
ATOM     28  O   UNL d   1      16.195 -22.232  31.535 -0.04 +0.02    -0.278    38.984
ATOM     29  P   UNL d   1      17.196 -21.150  30.932 -0.13 -0.03    +0.473    38.984
ATOM     30  O   UNL d   1      18.417 -20.889  31.736 -0.16 +0.01    -0.228    38.984
ATOM     31  O   UNL d   1      17.407 -21.753  29.465 -0.01 +0.07    -0.303    38.984
ATOM     32  H   UNL d   1      16.754 -21.336  28.857 -0.43 -0.06    +0.222    38.984
ATOM     33  O   UNL d   1      16.230 -19.912  30.668 -0.44 -0.03    -0.303    38.984
ATOM     34  H   UNL d   1      15.468 -19.960  31.296 +0.02 -0.03    +0.222    38.984
ATOM     35  O   UNL d   1      13.784 -24.920  34.441 +0.00 +0.01    -0.278    38.984
ATOM     36  P   UNL d   1      12.748 -25.007  33.231 +0.00 -0.02    +0.473    38.984
ATOM     37  O   UNL d   1      13.246 -25.704  32.005 +0.00 +0.01    -0.228    38.984
ATOM     38  O   UNL d   1      11.498 -25.711  33.923 +0.00 +0.01    -0.303    38.984
ATOM     39  H   UNL d   1      10.906 -25.022  34.293 +0.00 -0.01    +0.222    38.984
ATOM     40  O   UNL d   1      12.292 -23.493  33.065 +0.00 +0.02    -0.303    38.984
ATOM     41  H   UNL d   1      12.935 -22.974  32.533 +0.01 -0.02    +0.222    38.984
ATOM     42  O   UNL d   1      16.349 -24.654  33.084 +0.00 +0.01    -0.278    38.984
ATOM     43  P   UNL d   1      16.653 -25.325  31.669 +0.01 -0.02    +0.473    38.984
ATOM     44  O   UNL d   1      18.077 -25.599  31.330 -0.00 +0.01    -0.228    38.984
ATOM     45  O   UNL d   1      15.729 -26.621  31.692 +0.00 +0.01    -0.303    38.984
ATOM     46  H   UNL d   1      14.921 -26.475  32.224 +0.00 -0.01    +0.222    38.984
ATOM     47  O   UNL d   1      15.865 -24.382  30.640 -0.00 +0.01    -0.303    38.984
ATOM     48  H   UNL d   1      16.441 -23.631  30.385 +0.04 -0.01    +0.222    38.984
TER
ENDMDL
MODEL       99
USER    Run = 99
USER    Cluster Rank = 89
USER    Number of conformations in this cluster = 1
USER  
USER    RMSD from reference structure       = 35.473 A
USER  
USER    Estimated Free Energy of Binding    =   +4.57 kcal/mol  [=(1)+(2)+(3)-(4)]
USER    
USER    (1) Final Intermolecular Energy     =   -2.59 kcal/mol
USER        vdW + Hbond + desolv Energy     =   -2.23 kcal/mol
USER        Electrostatic Energy            =   -0.35 kcal/mol
USER    (2) Final Total Internal Energy     =  -14.72 kcal/mol
USER    (3) Torsional Free Energy           =   +7.16 kcal/mol
USER    (4) Unbound System's Energy  [=(2)] =  -14.72 kcal/mol
USER    
USER    
USER  
USER    DPF = D:/Protein_go_brrr/autodock/final/1A3N/IHP/dock.dpf
USER    NEWDPF move	IHP_ideal_opt.pdbqt
USER    NEWDPF about	0.035000 0.082000 -0.065000
USER    NEWDPF tran0	37.139533 4.372487 -11.923747
USER    NEWDPF axisangle0	-0.312207 -0.134651 0.940423 -176.222009
USER    NEWDPF quaternion0	-0.312037 -0.134578 0.939912 -0.032963
USER    NEWDPF dihe0	85.19 104.22 130.57 15.94 84.87 87.63 69.55 -73.68 107.40 -14.73 39.19 -107.95 -73.78 33.52 -173.03 -121.84 23.24 -75.33 -146.48 -22.08 16.46 56.34 -158.35 -159.03 
USER  
USER                              x       y       z    vdW   Elec        q     RMS 
ATOM      1  C   UNL d   1      35.643   5.225 -11.796 -0.12 +0.06    +0.194    35.473
ATOM      2  C   UNL d   1      36.847   5.902 -11.139 -0.06 +0.11    +0.194    35.473
ATOM      3  C   UNL d   1      37.707   4.901 -10.365 -0.12 +0.12    +0.194    35.473
ATOM      4  C   UNL d   1      38.110   3.686 -11.196 -0.06 +0.07    +0.194    35.473
ATOM      5  C   UNL d   1      36.958   3.047 -11.962 -0.07 +0.06    +0.194    35.473
ATOM      6  C   UNL d   1      36.062   4.054 -12.685 -0.06 +0.05    +0.194    35.473
ATOM      7  O   UNL d   1      34.994   6.185 -12.634 -0.05 -0.08    -0.278    35.473
ATOM      8  P   UNL d   1      35.443   6.284 -14.164 +0.00 +0.09    +0.473    35.473
ATOM      9  O   UNL d   1      36.805   5.759 -14.457 -0.01 -0.04    -0.228    35.473
ATOM     10  O   UNL d   1      34.290   5.518 -14.956 -0.00 -0.05    -0.303    35.473
ATOM     11  H   UNL d   1      34.369   4.558 -14.801 +0.02 +0.04    +0.222    35.473
ATOM     12  O   UNL d   1      35.180   7.797 -14.574 -0.00 -0.05    -0.303    35.473
ATOM     13  H   UNL d   1      35.679   8.439 -14.021 +0.01 +0.04    +0.222    35.473
ATOM     14  O   UNL d   1      37.655   6.507 -12.156 -0.06 -0.14    -0.278    35.473
ATOM     15  P   UNL d   1      37.656   8.108 -12.211 -0.06 +0.27    +0.473    35.473
ATOM     16  O   UNL d   1      38.681   8.808 -11.375 -0.24 -0.27    -0.228    35.473
ATOM     17  O   UNL d   1      37.793   8.442 -13.763 -0.01 -0.08    -0.303    35.473
ATOM     18  H   UNL d   1      37.320   7.783 -14.308 +0.01 +0.05    +0.222    35.473
ATOM     19  O   UNL d   1      36.145   8.516 -11.929 -0.07 -0.13    -0.303    35.473
ATOM     20  H   UNL d   1      35.521   7.955 -12.426 +0.04 +0.07    +0.222    35.473
ATOM     21  O   UNL d   1      34.872   3.359 -13.050 -0.07 -0.06    -0.278    35.473
ATOM     22  P   UNL d   1      34.822   2.536 -14.416 -0.03 +0.08    +0.473    35.473
ATOM     23  O   UNL d   1      33.550   2.539 -15.194 -0.05 -0.03    -0.228    35.473
ATOM     24  O   UNL d   1      36.082   3.120 -15.194 -0.01 -0.04    -0.303    35.473
ATOM     25  H   UNL d   1      36.677   3.557 -14.532 +0.02 +0.04    +0.222    35.473
ATOM     26  O   UNL d   1      35.358   1.099 -13.950 -0.08 -0.06    -0.303    35.473
ATOM     27  H   UNL d   1      36.336   1.091 -13.992 +0.04 +0.05    +0.222    35.473
ATOM     28  O   UNL d   1      38.926   5.552 -10.032 -0.38 -0.31    -0.278    35.473
ATOM     29  P   UNL d   1      39.918   4.905  -8.966 -0.04 +0.39    +0.473    35.473
ATOM     30  O   UNL d   1      40.698   5.870  -8.150 -0.34 -0.26    -0.228    35.473
ATOM     31  O   UNL d   1      38.901   3.948  -8.184 -0.10 -0.16    -0.303    35.473
ATOM     32  H   UNL d   1      39.226   3.020  -8.255 +0.07 +0.09    +0.222    35.473
ATOM     33  O   UNL d   1      40.748   3.882  -9.860 -0.01 -0.12    -0.303    35.473
ATOM     34  H   UNL d   1      40.282   3.758 -10.723 +0.02 +0.08    +0.222    35.473
ATOM     35  O   UNL d   1      37.563   2.229 -12.961 -0.02 -0.07    -0.278    35.473
ATOM     36  P   UNL d   1      39.005   2.597 -13.537 +0.01 +0.10    +0.473    35.473
ATOM     37  O   UNL d   1      40.139   2.463 -12.572 -0.00 -0.05    -0.228    35.473
ATOM     38  O   UNL d   1      39.105   1.635 -14.803 -0.00 -0.05    -0.303    35.473
ATOM     39  H   UNL d   1      38.224   1.574 -15.230 +0.01 +0.03    +0.222    35.473
ATOM     40  O   UNL d   1      38.761   4.036 -14.169 +0.00 -0.06    -0.303    35.473
ATOM     41  H   UNL d   1      38.037   4.024 -14.834 +0.01 +0.04    +0.222    35.473
ATOM     42  O   UNL d   1      38.604   2.702 -10.281 -0.04 -0.11    -0.278    35.473
ATOM     43  P   UNL d   1      37.581   1.654  -9.649 -0.08 +0.24    +0.473    35.473
ATOM     44  O   UNL d   1      36.169   2.095  -9.468 -0.19 -0.09    -0.228    35.473
ATOM     45  O   UNL d   1      37.750   0.387 -10.597 -0.11 -0.21    -0.303    35.473
ATOM     46  H   UNL d   1      37.935   0.652 -11.520 +0.05 +0.11    +0.222    35.473
ATOM     47  O   UNL d   1      38.329   1.168  -8.318 -0.11 -0.18    -0.303    35.473
ATOM     48  H   UNL d   1      38.329   1.896  -7.663 +0.10 +0.09    +0.222    35.473
TER
ENDMDL
MODEL       95
USER    Run = 95
USER    Cluster Rank = 90
USER    Number of conformations in this cluster = 1
USER  
USER    RMSD from reference structure       = 23.234 A
USER  
USER    Estimated Free Energy of Binding    =   +4.57 kcal/mol  [=(1)+(2)+(3)-(4)]
USER    
USER    (1) Final Intermolecular Energy     =   -2.59 kcal/mol
USER        vdW + Hbond + desolv Energy     =   -2.26 kcal/mol
USER        Electrostatic Energy            =   -0.32 kcal/mol
USER    (2) Final Total Internal Energy     =  -13.95 kcal/mol
USER    (3) Torsional Free Energy           =   +7.16 kcal/mol
USER    (4) Unbound System's Energy  [=(2)] =  -13.95 kcal/mol
USER    
USER    
USER  
USER    DPF = D:/Protein_go_brrr/autodock/final/1A3N/IHP/dock.dpf
USER    NEWDPF move	IHP_ideal_opt.pdbqt
USER    NEWDPF about	0.035000 0.082000 -0.065000
USER    NEWDPF tran0	21.446017 9.764644 -13.346276
USER    NEWDPF axisangle0	-0.945586 -0.270201 -0.181272 -78.778038
USER    NEWDPF quaternion0	-0.600052 -0.171465 -0.115032 -0.772855
USER    NEWDPF dihe0	-122.90 -26.62 152.77 4.43 46.03 172.57 -87.92 39.97 -5.83 -5.95 107.87 131.92 76.61 176.97 163.30 166.62 -154.46 99.36 -18.40 21.13 -10.90 32.81 167.66 -9.92 
USER  
USER                              x       y       z    vdW   Elec        q     RMS 
ATOM      1  C   UNL d   1      22.151  10.340 -11.878 -0.07 +0.08    +0.194    23.234
ATOM      2  C   UNL d   1      20.748   9.744 -11.748 -0.10 +0.08    +0.194    23.234
ATOM      3  C   UNL d   1      19.829  10.209 -12.880 -0.06 +0.08    +0.194    23.234
ATOM      4  C   UNL d   1      20.424   9.987 -14.268 -0.01 +0.06    +0.194    23.234
ATOM      5  C   UNL d   1      21.864  10.463 -14.409 +0.00 +0.06    +0.194    23.234
ATOM      6  C   UNL d   1      22.769  10.050 -13.246 -0.01 +0.08    +0.194    23.234
ATOM      7  O   UNL d   1      22.988   9.727 -10.894 -0.07 -0.16    -0.278    23.234
ATOM      8  P   UNL d   1      24.060  10.637 -10.136 -0.10 +0.29    +0.473    23.234
ATOM      9  O   UNL d   1      24.020  10.556  -8.651 -0.14 -0.11    -0.228    23.234
ATOM     10  O   UNL d   1      25.459  10.181 -10.753 -0.37 -0.40    -0.303    23.234
ATOM     11  H   UNL d   1      25.586  10.603 -11.623 +0.02 +0.22    +0.222    23.234
ATOM     12  O   UNL d   1      23.881  12.089 -10.756 -0.05 -0.12    -0.303    23.234
ATOM     13  H   UNL d   1      24.217  12.158 -11.679 +0.02 +0.08    +0.222    23.234
ATOM     14  O   UNL d   1      20.841   8.315 -11.794 -0.05 -0.10    -0.278    23.234
ATOM     15  P   UNL d   1      19.691   7.498 -11.036 -0.07 +0.16    +0.473    23.234
ATOM     16  O   UNL d   1      20.139   6.464 -10.051 -0.09 -0.07    -0.228    23.234
ATOM     17  O   UNL d   1      18.785   8.629 -10.374 -0.13 -0.13    -0.303    23.234
ATOM     18  H   UNL d   1      18.449   9.250 -11.049 +0.07 +0.12    +0.222    23.234
ATOM     19  O   UNL d   1      18.745   6.971 -12.201 -0.04 -0.09    -0.303    23.234
ATOM     20  H   UNL d   1      18.426   7.700 -12.764 +0.04 +0.07    +0.222    23.234
ATOM     21  O   UNL d   1      23.953  10.838 -13.345 -0.01 -0.12    -0.278    23.234
ATOM     22  P   UNL d   1      25.345  10.137 -13.687 -0.03 +0.31    +0.473    23.234
ATOM     23  O   UNL d   1      26.598  10.922 -13.485 -0.06 -0.13    -0.228    23.234
ATOM     24  O   UNL d   1      25.252   8.797 -12.835 -0.28 -0.45    -0.303    23.234
ATOM     25  H   UNL d   1      24.573   8.929 -12.126 +0.01 +0.30    +0.222    23.234
ATOM     26  O   UNL d   1      25.083   9.602 -15.176 -0.00 -0.12    -0.303    23.234
ATOM     27  H   UNL d   1      24.167   9.824 -15.441 +0.01 +0.07    +0.222    23.234
ATOM     28  O   UNL d   1      18.658   9.403 -12.839 -0.06 -0.13    -0.278    23.234
ATOM     29  P   UNL d   1      17.235  10.035 -13.175 -0.09 +0.41    +0.473    23.234
ATOM     30  O   UNL d   1      16.322   9.171 -13.967 -0.07 -0.13    -0.228    23.234
ATOM     31  O   UNL d   1      16.755  10.442 -11.703 -0.52 -0.46    -0.303    23.234
ATOM     32  H   UNL d   1      17.069   9.756 -11.070 +0.07 +0.20    +0.222    23.234
ATOM     33  O   UNL d   1      17.634  11.437 -13.814 -0.09 -0.31    -0.303    23.234
ATOM     34  H   UNL d   1      17.597  11.363 -14.799 +0.02 +0.15    +0.222    23.234
ATOM     35  O   UNL d   1      22.370   9.826 -15.581 +0.00 -0.07    -0.278    23.234
ATOM     36  P   UNL d   1      22.455   8.235 -15.658 +0.01 +0.12    +0.473    23.234
ATOM     37  O   UNL d   1      23.836   7.661 -15.634 +0.00 -0.07    -0.228    23.234
ATOM     38  O   UNL d   1      21.543   7.799 -14.428 +0.00 -0.09    -0.303    23.234
ATOM     39  H   UNL d   1      22.041   7.941 -13.594 +0.02 +0.08    +0.222    23.234
ATOM     40  O   UNL d   1      21.560   7.909 -16.932 +0.00 -0.05    -0.303    23.234
ATOM     41  H   UNL d   1      20.701   8.387 -16.906 +0.00 +0.04    +0.222    23.234
ATOM     42  O   UNL d   1      19.636  10.754 -15.185 -0.00 -0.09    -0.278    23.234
ATOM     43  P   UNL d   1      18.899  10.003 -16.384 +0.01 +0.12    +0.473    23.234
ATOM     44  O   UNL d   1      17.569  10.523 -16.805 +0.00 -0.07    -0.228    23.234
ATOM     45  O   UNL d   1      19.999  10.020 -17.534 +0.00 -0.05    -0.303    23.234
ATOM     46  H   UNL d   1      20.902   9.932 -17.168 +0.00 +0.04    +0.222    23.234
ATOM     47  O   UNL d   1      18.929   8.467 -15.928 +0.00 -0.07    -0.303    23.234
ATOM     48  H   UNL d   1      19.839   8.230 -15.652 +0.00 +0.05    +0.222    23.234
TER
ENDMDL
MODEL       88
USER    Run = 88
USER    Cluster Rank = 91
USER    Number of conformations in this cluster = 1
USER  
USER    RMSD from reference structure       = 39.975 A
USER  
USER    Estimated Free Energy of Binding    =   +4.70 kcal/mol  [=(1)+(2)+(3)-(4)]
USER    
USER    (1) Final Intermolecular Energy     =   -2.46 kcal/mol
USER        vdW + Hbond + desolv Energy     =   -2.18 kcal/mol
USER        Electrostatic Energy            =   -0.28 kcal/mol
USER    (2) Final Total Internal Energy     =  -15.00 kcal/mol
USER    (3) Torsional Free Energy           =   +7.16 kcal/mol
USER    (4) Unbound System's Energy  [=(2)] =  -15.00 kcal/mol
USER    
USER    
USER  
USER    DPF = D:/Protein_go_brrr/autodock/final/1A3N/IHP/dock.dpf
USER    NEWDPF move	IHP_ideal_opt.pdbqt
USER    NEWDPF about	0.035000 0.082000 -0.065000
USER    NEWDPF tran0	0.135215 18.002199 38.351754
USER    NEWDPF axisangle0	-0.760994 0.520721 -0.386959 -171.449843
USER    NEWDPF quaternion0	-0.758877 0.519272 -0.385882 -0.074545
USER    NEWDPF dihe0	120.07 96.71 58.94 40.05 93.43 82.60 -43.32 -12.22 71.94 54.85 57.30 -14.44 -38.76 164.89 46.45 180.00 122.72 -97.29 38.77 -15.30 176.73 -13.57 -7.33 171.13 
USER  
USER                              x       y       z    vdW   Elec        q     RMS 
ATOM      1  C   UNL d   1       1.513  17.114  38.898 -0.03 +0.08    +0.194    39.975
ATOM      2  C   UNL d   1       1.652  18.637  38.932 -0.02 +0.06    +0.194    39.975
ATOM      3  C   UNL d   1       1.090  19.286  37.665 -0.03 +0.05    +0.194    39.975
ATOM      4  C   UNL d   1      -0.336  18.844  37.345 -0.03 +0.05    +0.194    39.975
ATOM      5  C   UNL d   1      -0.548  17.337  37.413 -0.05 +0.07    +0.194    39.975
ATOM      6  C   UNL d   1       0.068  16.679  38.649 -0.03 +0.07    +0.194    39.975
ATOM      7  O   UNL d   1       1.897  16.603  40.176 -0.01 -0.10    -0.278    39.975
ATOM      8  P   UNL d   1       3.451  16.362  40.461 -0.00 +0.19    +0.473    39.975
ATOM      9  O   UNL d   1       4.377  16.974  39.470 -0.04 -0.14    -0.228    39.975
ATOM     10  O   UNL d   1       3.662  16.914  41.943 +0.00 -0.07    -0.303    39.975
ATOM     11  H   UNL d   1       3.119  17.713  42.075 +0.00 +0.04    +0.222    39.975
ATOM     12  O   UNL d   1       3.594  14.793  40.667 -0.00 -0.12    -0.303    39.975
ATOM     13  H   UNL d   1       3.191  14.270  39.939 +0.02 +0.11    +0.222    39.975
ATOM     14  O   UNL d   1       0.934  19.147  40.063 -0.00 -0.05    -0.278    39.975
ATOM     15  P   UNL d   1       1.803  19.879  41.192 +0.00 +0.07    +0.473    39.975
ATOM     16  O   UNL d   1       1.428  19.602  42.614 +0.00 -0.03    -0.228    39.975
ATOM     17  O   UNL d   1       3.304  19.462  40.857 +0.00 -0.06    -0.303    39.975
ATOM     18  H   UNL d   1       3.350  18.541  40.537 +0.01 +0.06    +0.222    39.975
ATOM     19  O   UNL d   1       1.795  21.412  40.766 +0.00 -0.03    -0.303    39.975
ATOM     20  H   UNL d   1       1.567  21.523  39.825 +0.00 +0.03    +0.222    39.975
ATOM     21  O   UNL d   1       0.090  15.275  38.402 -0.04 -0.12    -0.278    39.975
ATOM     22  P   UNL d   1       1.161  14.668  37.387 -0.08 +0.35    +0.473    39.975
ATOM     23  O   UNL d   1       2.570  14.521  37.853 -0.25 -0.26    -0.228    39.975
ATOM     24  O   UNL d   1       0.458  13.309  36.948 -0.07 -0.18    -0.303    39.975
ATOM     25  H   UNL d   1      -0.522  13.428  37.032 +0.12 +0.13    +0.222    39.975
ATOM     26  O   UNL d   1       0.940  15.587  36.092 -0.13 -0.24    -0.303    39.975
ATOM     27  H   UNL d   1       0.278  15.166  35.507 -0.04 +0.14    +0.222    39.975
ATOM     28  O   UNL d   1       1.007  20.686  37.902 -0.00 -0.05    -0.278    39.975
ATOM     29  P   UNL d   1       2.164  21.657  37.398 +0.00 +0.06    +0.473    39.975
ATOM     30  O   UNL d   1       1.755  23.061  37.140 -0.00 -0.02    -0.228    39.975
ATOM     31  O   UNL d   1       3.251  21.416  38.548 -0.00 -0.05    -0.303    39.975
ATOM     32  H   UNL d   1       2.946  20.671  39.117 +0.01 +0.04    +0.222    39.975
ATOM     33  O   UNL d   1       2.769  20.846  36.168 -0.02 -0.06    -0.303    39.975
ATOM     34  H   UNL d   1       2.027  20.522  35.601 +0.03 +0.04    +0.222    39.975
ATOM     35  O   UNL d   1      -1.959  17.148  37.496 -0.03 -0.11    -0.278    39.975
ATOM     36  P   UNL d   1      -2.716  16.251  36.416 -0.11 +0.37    +0.473    39.975
ATOM     37  O   UNL d   1      -4.122  15.875  36.761 -0.70 -0.29    -0.228    39.975
ATOM     38  O   UNL d   1      -2.580  17.139  35.101 -0.02 -0.24    -0.303    39.975
ATOM     39  H   UNL d   1      -2.060  17.945  35.310 +0.06 +0.10    +0.222    39.975
ATOM     40  O   UNL d   1      -1.688  15.060  36.183 -0.14 -0.20    -0.303    39.975
ATOM     41  H   UNL d   1      -0.985  15.046  36.870 +0.09 +0.12    +0.222    39.975
ATOM     42  O   UNL d   1      -0.602  19.247  35.998 -0.05 -0.05    -0.278    39.975
ATOM     43  P   UNL d   1       0.315  18.673  34.826 -0.13 +0.09    +0.473    39.975
ATOM     44  O   UNL d   1       1.791  18.799  34.984 -0.13 -0.09    -0.228    39.975
ATOM     45  O   UNL d   1      -0.198  17.173  34.684 -0.27 -0.11    -0.303    39.975
ATOM     46  H   UNL d   1      -0.726  16.900  35.461 +0.08 +0.10    +0.222    39.975
ATOM     47  O   UNL d   1      -0.301  19.353  33.512 -0.18 +0.09    -0.303    39.975
ATOM     48  H   UNL d   1       0.335  19.262  32.773 +0.01 -0.12    +0.222    39.975
TER
ENDMDL
MODEL       73
USER    Run = 73
USER    Cluster Rank = 92
USER    Number of conformations in this cluster = 1
USER  
USER    RMSD from reference structure       = 44.284 A
USER  
USER    Estimated Free Energy of Binding    =   +4.76 kcal/mol  [=(1)+(2)+(3)-(4)]
USER    
USER    (1) Final Intermolecular Energy     =   -2.39 kcal/mol
USER        vdW + Hbond + desolv Energy     =   -2.34 kcal/mol
USER        Electrostatic Energy            =   -0.05 kcal/mol
USER    (2) Final Total Internal Energy     =  -13.60 kcal/mol
USER    (3) Torsional Free Energy           =   +7.16 kcal/mol
USER    (4) Unbound System's Energy  [=(2)] =  -13.60 kcal/mol
USER    
USER    
USER  
USER    DPF = D:/Protein_go_brrr/autodock/final/1A3N/IHP/dock.dpf
USER    NEWDPF move	IHP_ideal_opt.pdbqt
USER    NEWDPF about	0.035000 0.082000 -0.065000
USER    NEWDPF tran0	39.906906 14.802007 20.857239
USER    NEWDPF axisangle0	0.289722 -0.891587 0.348044 -165.568109
USER    NEWDPF quaternion0	0.287427 -0.884525 0.345287 -0.125609
USER    NEWDPF dihe0	63.13 -4.69 -174.24 -179.81 -180.00 -150.38 46.89 -66.68 14.83 105.50 168.93 148.86 -179.93 43.10 83.33 -66.55 -72.19 180.00 -157.96 6.31 12.59 -19.74 -174.18 29.05 
USER  
USER                              x       y       z    vdW   Elec        q     RMS 
ATOM      1  C   UNL d   1      39.410  13.204  21.285 -0.08 -0.01    +0.194    44.284
ATOM      2  C   UNL d   1      40.900  13.503  21.463 -0.05 -0.03    +0.194    44.284
ATOM      3  C   UNL d   1      41.466  14.288  20.277 -0.04 -0.02    +0.194    44.284
ATOM      4  C   UNL d   1      40.660  15.542  19.947 -0.07 -0.03    +0.194    44.284
ATOM      5  C   UNL d   1      39.156  15.313  19.874 -0.14 -0.03    +0.194    44.284
ATOM      6  C   UNL d   1      38.600  14.475  21.028 -0.13 -0.01    +0.194    44.284
ATOM      7  O   UNL d   1      38.923  12.627  22.499 -0.08 +0.03    -0.278    44.284
ATOM      8  P   UNL d   1      38.590  13.600  23.721 -0.08 -0.08    +0.473    44.284
ATOM      9  O   UNL d   1      39.222  13.227  25.016 -0.20 +0.10    -0.228    44.284
ATOM     10  O   UNL d   1      39.031  15.042  23.199 -0.02 +0.04    -0.303    44.284
ATOM     11  H   UNL d   1      39.940  15.233  23.496 +0.04 -0.04    +0.222    44.284
ATOM     12  O   UNL d   1      37.005  13.721  23.732 -0.11 +0.00    -0.303    44.284
ATOM     13  H   UNL d   1      36.629  13.940  22.850 +0.08 +0.00    +0.222    44.284
ATOM     14  O   UNL d   1      41.082  14.280  22.653 -0.01 +0.06    -0.278    44.284
ATOM     15  P   UNL d   1      42.322  13.882  23.585 -0.00 -0.17    +0.473    44.284
ATOM     16  O   UNL d   1      43.565  14.702  23.436 -0.00 +0.05    -0.228    44.284
ATOM     17  O   UNL d   1      41.726  13.925  25.062 -0.06 +0.19    -0.303    44.284
ATOM     18  H   UNL d   1      41.363  13.057  25.320 -0.05 -0.25    +0.222    44.284
ATOM     19  O   UNL d   1      42.502  12.318  23.359 -0.04 +0.16    -0.303    44.284
ATOM     20  H   UNL d   1      43.386  12.103  23.010 +0.02 -0.09    +0.222    44.284
ATOM     21  O   UNL d   1      37.289  14.065  20.645 -0.45 -0.02    -0.278    44.284
ATOM     22  P   UNL d   1      36.036  14.985  21.005 -0.10 -0.00    +0.473    44.284
ATOM     23  O   UNL d   1      35.287  15.625  19.886 -0.40 +0.02    -0.228    44.284
ATOM     24  O   UNL d   1      35.169  14.010  21.917 -0.15 +0.01    -0.303    44.284
ATOM     25  H   UNL d   1      35.150  14.382  22.835 +0.08 -0.00    +0.222    44.284
ATOM     26  O   UNL d   1      36.665  15.982  22.092 -0.06 +0.01    -0.303    44.284
ATOM     27  H   UNL d   1      37.593  16.177  21.850 +0.05 -0.01    +0.222    44.284
ATOM     28  O   UNL d   1      42.756  14.754  20.649 -0.00 +0.03    -0.278    44.284
ATOM     29  P   UNL d   1      44.048  13.875  20.344 +0.01 -0.06    +0.473    44.284
ATOM     30  O   UNL d   1      44.476  12.964  21.437 -0.00 +0.04    -0.228    44.284
ATOM     31  O   UNL d   1      43.605  13.197  18.964 -0.01 +0.03    -0.303    44.284
ATOM     32  H   UNL d   1      44.009  13.702  18.222 +0.02 -0.02    +0.222    44.284
ATOM     33  O   UNL d   1      45.098  14.976  19.873 +0.00 +0.03    -0.303    44.284
ATOM     34  H   UNL d   1      44.634  15.844  19.784 +0.00 -0.02    +0.222    44.284
ATOM     35  O   UNL d   1      38.562  16.606  19.970 -0.15 +0.03    -0.278    44.284
ATOM     36  P   UNL d   1      39.100  17.661  21.038 -0.02 -0.02    +0.473    44.284
ATOM     37  O   UNL d   1      39.718  17.076  22.268 -0.01 +0.02    -0.228    44.284
ATOM     38  O   UNL d   1      40.097  18.536  20.157 -0.03 +0.01    -0.303    44.284
ATOM     39  H   UNL d   1      40.757  17.945  19.735 +0.04 -0.01    +0.222    44.284
ATOM     40  O   UNL d   1      37.840  18.608  21.244 -0.05 -0.01    -0.303    44.284
ATOM     41  H   UNL d   1      37.080  18.123  21.636 +0.05 +0.01    +0.222    44.284
ATOM     42  O   UNL d   1      41.084  15.977  18.651 -0.08 +0.04    -0.278    44.284
ATOM     43  P   UNL d   1      42.415  16.846  18.526 -0.02 -0.04    +0.473    44.284
ATOM     44  O   UNL d   1      42.367  18.056  17.658 -0.06 +0.01    -0.228    44.284
ATOM     45  O   UNL d   1      42.778  17.149  20.045 -0.00 +0.02    -0.303    44.284
ATOM     46  H   UNL d   1      43.431  16.509  20.392 +0.01 -0.02    +0.222    44.284
ATOM     47  O   UNL d   1      43.527  15.759  18.136 -0.01 +0.02    -0.303    44.284
ATOM     48  H   UNL d   1      43.300  14.902  18.554 +0.02 -0.02    +0.222    44.284
TER
ENDMDL
MODEL       13
USER    Run = 13
USER    Cluster Rank = 93
USER    Number of conformations in this cluster = 1
USER  
USER    RMSD from reference structure       = 40.673 A
USER  
USER    Estimated Free Energy of Binding    =   +4.80 kcal/mol  [=(1)+(2)+(3)-(4)]
USER    
USER    (1) Final Intermolecular Energy     =   -2.36 kcal/mol
USER        vdW + Hbond + desolv Energy     =   -2.30 kcal/mol
USER        Electrostatic Energy            =   -0.06 kcal/mol
USER    (2) Final Total Internal Energy     =  -14.60 kcal/mol
USER    (3) Torsional Free Energy           =   +7.16 kcal/mol
USER    (4) Unbound System's Energy  [=(2)] =  -14.60 kcal/mol
USER    
USER    
USER  
USER    DPF = D:/Protein_go_brrr/autodock/final/1A3N/IHP/dock.dpf
USER    NEWDPF move	IHP_ideal_opt.pdbqt
USER    NEWDPF about	0.035000 0.082000 -0.065000
USER    NEWDPF tran0	14.622943 20.590512 35.662362
USER    NEWDPF axisangle0	-0.574333 -0.257498 -0.777069 -178.612571
USER    NEWDPF quaternion0	-0.574291 -0.257479 -0.777012 -0.012107
USER    NEWDPF dihe0	107.60 96.59 62.81 76.37 120.89 39.08 -65.20 -15.51 -3.10 29.60 -172.60 145.99 -60.06 -75.55 -131.33 47.10 180.00 180.00 -158.44 -8.68 3.59 -16.86 -30.08 29.01 
USER  
USER                              x       y       z    vdW   Elec        q     RMS 
ATOM      1  C   UNL d   1      14.618  22.035  36.610 -0.01 +0.01    +0.194    40.673
ATOM      2  C   UNL d   1      14.463  22.234  35.101 -0.02 +0.01    +0.194    40.673
ATOM      3  C   UNL d   1      15.422  21.341  34.310 -0.05 -0.00    +0.194    40.673
ATOM      4  C   UNL d   1      15.342  19.870  34.710 -0.08 +0.01    +0.194    40.673
ATOM      5  C   UNL d   1      15.378  19.633  36.214 -0.04 +0.02    +0.194    40.673
ATOM      6  C   UNL d   1      14.464  20.567  37.010 -0.01 +0.02    +0.194    40.673
ATOM      7  O   UNL d   1      13.580  22.767  37.265 -0.00 -0.02    -0.278    40.673
ATOM      8  P   UNL d   1      12.116  22.129  37.314 -0.00 +0.04    +0.473    40.673
ATOM      9  O   UNL d   1      11.934  20.903  36.490 -0.01 -0.03    -0.228    40.673
ATOM     10  O   UNL d   1      11.852  21.886  38.869 +0.00 -0.03    -0.303    40.673
ATOM     11  H   UNL d   1      12.609  21.409  39.258 +0.00 +0.02    +0.222    40.673
ATOM     12  O   UNL d   1      11.130  23.333  36.994 -0.00 -0.02    -0.303    40.673
ATOM     13  H   UNL d   1      11.375  23.824  36.177 +0.00 +0.01    +0.222    40.673
ATOM     14  O   UNL d   1      13.120  21.908  34.723 -0.02 -0.02    -0.278    40.673
ATOM     15  P   UNL d   1      12.288  23.055  33.978 -0.02 +0.03    +0.473    40.673
ATOM     16  O   UNL d   1      12.777  24.459  34.148 -0.02 -0.01    -0.228    40.673
ATOM     17  O   UNL d   1      12.265  22.590  32.454 -0.04 -0.02    -0.303    40.673
ATOM     18  H   UNL d   1      13.086  22.117  32.219 +0.07 +0.01    +0.222    40.673
ATOM     19  O   UNL d   1      10.779  22.798  34.413 -0.01 -0.03    -0.303    40.673
ATOM     20  H   UNL d   1      10.724  22.218  35.195 +0.01 +0.02    +0.222    40.673
ATOM     21  O   UNL d   1      14.859  20.463  38.377 -0.00 -0.02    -0.278    40.673
ATOM     22  P   UNL d   1      14.037  19.521  39.368 -0.00 +0.06    +0.473    40.673
ATOM     23  O   UNL d   1      13.057  20.158  40.295 +0.00 -0.02    -0.228    40.673
ATOM     24  O   UNL d   1      13.411  18.458  38.363 -0.01 -0.05    -0.303    40.673
ATOM     25  H   UNL d   1      14.151  18.056  37.840 +0.02 +0.04    +0.222    40.673
ATOM     26  O   UNL d   1      15.210  18.674  40.059 -0.00 -0.03    -0.303    40.673
ATOM     27  H   UNL d   1      14.953  17.730  40.084 +0.01 +0.03    +0.222    40.673
ATOM     28  O   UNL d   1      15.021  21.384  32.947 -0.10 +0.02    -0.278    40.673
ATOM     29  P   UNL d   1      15.688  22.427  31.944 -0.12 -0.13    +0.473    40.673
ATOM     30  O   UNL d   1      17.013  22.956  32.359 -0.09 +0.08    -0.228    40.673
ATOM     31  O   UNL d   1      15.637  21.580  30.587 -0.24 +0.16    -0.303    40.673
ATOM     32  H   UNL d   1      15.433  20.643  30.809 -0.25 -0.09    +0.222    40.673
ATOM     33  O   UNL d   1      14.520  23.489  31.741 -0.02 +0.02    -0.303    40.673
ATOM     34  H   UNL d   1      14.109  23.687  32.618 +0.04 -0.01    +0.222    40.673
ATOM     35  O   UNL d   1      14.893  18.306  36.408 -0.05 -0.05    -0.278    40.673
ATOM     36  P   UNL d   1      15.912  17.105  36.661 -0.07 +0.12    +0.473    40.673
ATOM     37  O   UNL d   1      15.633  15.851  35.896 -0.19 -0.11    -0.228    40.673
ATOM     38  O   UNL d   1      17.309  17.786  36.314 -0.04 -0.04    -0.303    40.673
ATOM     39  H   UNL d   1      17.378  17.902  35.342 +0.06 +0.03    +0.222    40.673
ATOM     40  O   UNL d   1      15.923  16.996  38.247 -0.02 -0.06    -0.303    40.673
ATOM     41  H   UNL d   1      15.486  17.770  38.668 +0.01 +0.04    +0.222    40.673
ATOM     42  O   UNL d   1      16.494  19.226  34.155 -0.08 -0.02    -0.278    40.673
ATOM     43  P   UNL d   1      16.462  18.772  32.626 -0.15 +0.02    +0.473    40.673
ATOM     44  O   UNL d   1      16.960  17.405  32.305 -0.33 -0.03    -0.228    40.673
ATOM     45  O   UNL d   1      14.944  19.024  32.219 -0.25 -0.01    -0.303    40.673
ATOM     46  H   UNL d   1      14.866  19.730  31.547 -0.06 -0.03    +0.222    40.673
ATOM     47  O   UNL d   1      17.205  19.974  31.870 -0.20 +0.06    -0.303    40.673
ATOM     48  H   UNL d   1      16.988  20.819  32.316 +0.08 -0.05    +0.222    40.673
TER
ENDMDL
MODEL       64
USER    Run = 64
USER    Cluster Rank = 94
USER    Number of conformations in this cluster = 1
USER  
USER    RMSD from reference structure       = 42.188 A
USER  
USER    Estimated Free Energy of Binding    =   +4.90 kcal/mol  [=(1)+(2)+(3)-(4)]
USER    
USER    (1) Final Intermolecular Energy     =   -2.26 kcal/mol
USER        vdW + Hbond + desolv Energy     =   -2.20 kcal/mol
USER        Electrostatic Energy            =   -0.05 kcal/mol
USER    (2) Final Total Internal Energy     =  -12.40 kcal/mol
USER    (3) Torsional Free Energy           =   +7.16 kcal/mol
USER    (4) Unbound System's Energy  [=(2)] =  -12.40 kcal/mol
USER    
USER    
USER  
USER    DPF = D:/Protein_go_brrr/autodock/final/1A3N/IHP/dock.dpf
USER    NEWDPF move	IHP_ideal_opt.pdbqt
USER    NEWDPF about	0.035000 0.082000 -0.065000
USER    NEWDPF tran0	19.044459 -16.806146 38.130916
USER    NEWDPF axisangle0	0.217250 0.975657 -0.029944 -58.637131
USER    NEWDPF quaternion0	0.106380 0.477745 -0.014663 -0.871911
USER    NEWDPF dihe0	10.93 102.56 -169.92 138.27 10.83 -113.97 164.92 -23.63 -1.30 84.17 124.41 137.52 129.83 -12.15 -71.49 -138.08 -33.57 99.95 39.49 -24.86 0.25 15.93 172.37 -20.96 
USER  
USER                              x       y       z    vdW   Elec        q     RMS 
ATOM      1  C   UNL d   1      20.269 -17.736  37.343 -0.05 -0.00    +0.194    42.188
ATOM      2  C   UNL d   1      19.182 -18.543  38.056 -0.04 -0.01    +0.194    42.188
ATOM      3  C   UNL d   1      18.845 -17.951  39.427 -0.02 -0.00    +0.194    42.188
ATOM      4  C   UNL d   1      18.517 -16.461  39.374 -0.03 -0.00    +0.194    42.188
ATOM      5  C   UNL d   1      19.515 -15.634  38.574 -0.05 +0.00    +0.194    42.188
ATOM      6  C   UNL d   1      19.899 -16.257  37.230 -0.08 +0.00    +0.194    42.188
ATOM      7  O   UNL d   1      20.401 -18.245  36.013 -0.07 +0.00    -0.278    42.188
ATOM      8  P   UNL d   1      21.314 -19.535  35.782 -0.01 -0.02    +0.473    42.188
ATOM      9  O   UNL d   1      21.428 -19.982  34.367 -0.03 +0.01    -0.228    42.188
ATOM     10  O   UNL d   1      22.716 -19.139  36.430 -0.00 +0.01    -0.303    42.188
ATOM     11  H   UNL d   1      23.439 -19.561  35.929 +0.01 -0.01    +0.222    42.188
ATOM     12  O   UNL d   1      20.767 -20.617  36.809 -0.01 +0.01    -0.303    42.188
ATOM     13  H   UNL d   1      19.810 -20.813  36.689 +0.01 -0.01    +0.222    42.188
ATOM     14  O   UNL d   1      17.995 -18.540  37.253 -0.05 +0.02    -0.278    42.188
ATOM     15  P   UNL d   1      17.638 -19.907  36.499 -0.04 -0.06    +0.473    42.188
ATOM     16  O   UNL d   1      17.788 -21.169  37.289 -0.02 +0.02    -0.228    42.188
ATOM     17  O   UNL d   1      16.151 -19.682  35.973 -0.08 +0.08    -0.303    42.188
ATOM     18  H   UNL d   1      16.150 -19.352  35.053 -0.43 -0.13    +0.222    42.188
ATOM     19  O   UNL d   1      18.470 -19.842  35.145 -0.08 +0.06    -0.303    42.188
ATOM     20  H   UNL d   1      19.408 -20.067  35.287 +0.02 -0.02    +0.222    42.188
ATOM     21  O   UNL d   1      21.061 -15.568  36.774 -0.06 -0.01    -0.278    42.188
ATOM     22  P   UNL d   1      20.927 -14.453  35.642 -0.17 +0.03    +0.473    42.188
ATOM     23  O   UNL d   1      20.013 -14.720  34.494 -0.36 -0.01    -0.228    42.188
ATOM     24  O   UNL d   1      20.564 -13.161  36.498 -0.15 -0.02    -0.303    42.188
ATOM     25  H   UNL d   1      19.761 -13.368  37.041 +0.07 +0.01    +0.222    42.188
ATOM     26  O   UNL d   1      22.463 -14.182  35.269 -0.10 -0.02    -0.303    42.188
ATOM     27  H   UNL d   1      22.814 -14.950  34.774 +0.05 +0.01    +0.222    42.188
ATOM     28  O   UNL d   1      17.657 -18.584  39.886 -0.01 +0.01    -0.278    42.188
ATOM     29  P   UNL d   1      17.617 -19.278  41.318 -0.00 -0.01    +0.473    42.188
ATOM     30  O   UNL d   1      16.483 -20.210  41.547 -0.00 +0.00    -0.228    42.188
ATOM     31  O   UNL d   1      19.090 -19.902  41.367 -0.00 +0.00    -0.303    42.188
ATOM     32  H   UNL d   1      19.048 -20.773  41.825 +0.00 -0.00    +0.222    42.188
ATOM     33  O   UNL d   1      17.731 -18.029  42.299 -0.00 -0.00    -0.303    42.188
ATOM     34  H   UNL d   1      17.245 -17.265  41.903 +0.00 +0.00    +0.222    42.188
ATOM     35  O   UNL d   1      18.856 -14.400  38.292 -0.08 -0.01    -0.278    42.188
ATOM     36  P   UNL d   1      17.461 -14.391  37.520 -0.11 -0.01    +0.473    42.188
ATOM     37  O   UNL d   1      16.805 -15.726  37.356 -0.03 +0.02    -0.228    42.188
ATOM     38  O   UNL d   1      16.619 -13.349  38.380 -0.11 -0.01    -0.303    42.188
ATOM     39  H   UNL d   1      16.394 -13.755  39.245 +0.05 +0.01    +0.222    42.188
ATOM     40  O   UNL d   1      17.814 -13.593  36.190 -0.26 +0.01    -0.303    42.188
ATOM     41  H   UNL d   1      18.680 -13.870  35.818 +0.09 -0.00    +0.222    42.188
ATOM     42  O   UNL d   1      18.557 -15.980  40.722 -0.01 -0.01    -0.278    42.188
ATOM     43  P   UNL d   1      17.352 -15.081  41.256 -0.01 +0.02    +0.473    42.188
ATOM     44  O   UNL d   1      16.967 -15.227  42.687 -0.00 -0.01    -0.228    42.188
ATOM     45  O   UNL d   1      17.809 -13.611  40.852 -0.02 -0.02    -0.303    42.188
ATOM     46  H   UNL d   1      18.059 -13.560  39.908 +0.03 +0.01    +0.222    42.188
ATOM     47  O   UNL d   1      16.186 -15.362  40.193 -0.01 -0.00    -0.303    42.188
ATOM     48  H   UNL d   1      16.563 -15.349  39.289 +0.03 -0.00    +0.222    42.188
TER
ENDMDL
MODEL       11
USER    Run = 11
USER    Cluster Rank = 95
USER    Number of conformations in this cluster = 1
USER  
USER    RMSD from reference structure       = 40.687 A
USER  
USER    Estimated Free Energy of Binding    =   +4.95 kcal/mol  [=(1)+(2)+(3)-(4)]
USER    
USER    (1) Final Intermolecular Energy     =   -2.21 kcal/mol
USER        vdW + Hbond + desolv Energy     =   -1.77 kcal/mol
USER        Electrostatic Energy            =   -0.44 kcal/mol
USER    (2) Final Total Internal Energy     =  -13.61 kcal/mol
USER    (3) Torsional Free Energy           =   +7.16 kcal/mol
USER    (4) Unbound System's Energy  [=(2)] =  -13.61 kcal/mol
USER    
USER    
USER  
USER    DPF = D:/Protein_go_brrr/autodock/final/1A3N/IHP/dock.dpf
USER    NEWDPF move	IHP_ideal_opt.pdbqt
USER    NEWDPF about	0.035000 0.082000 -0.065000
USER    NEWDPF tran0	30.385238 32.125660 7.773047
USER    NEWDPF axisangle0	-0.553807 0.205806 -0.806810 -34.974325
USER    NEWDPF quaternion0	-0.166415 0.061843 -0.242440 -0.953784
USER    NEWDPF dihe0	129.51 -0.36 -166.36 -31.75 91.98 98.79 -58.39 2.15 109.35 -38.71 31.69 -155.58 22.05 78.72 -123.90 54.72 -143.52 136.66 -1.06 -44.19 -12.51 -46.72 -0.74 -7.22 
USER  
USER                              x       y       z    vdW   Elec        q     RMS 
ATOM      1  C   UNL d   1      31.246  31.013   8.776 -0.01 -0.04    +0.194    40.687
ATOM      2  C   UNL d   1      29.726  30.845   8.756 -0.01 -0.03    +0.194    40.687
ATOM      3  C   UNL d   1      29.006  32.193   8.833 -0.00 -0.02    +0.194    40.687
ATOM      4  C   UNL d   1      29.489  33.194   7.786 +0.00 -0.01    +0.194    40.687
ATOM      5  C   UNL d   1      31.005  33.309   7.692 +0.00 -0.01    +0.194    40.687
ATOM      6  C   UNL d   1      31.729  31.961   7.677 -0.00 -0.02    +0.194    40.687
ATOM      7  O   UNL d   1      31.839  29.736   8.529 -0.05 +0.12    -0.278    40.687
ATOM      8  P   UNL d   1      32.871  29.158   9.602 -0.00 -0.25    +0.473    40.687
ATOM      9  O   UNL d   1      32.258  28.665  10.865 -0.07 +0.11    -0.228    40.687
ATOM     10  O   UNL d   1      33.664  28.025   8.806 +0.02 +0.28    -0.303    40.687
ATOM     11  H   UNL d   1      33.092  27.657   8.107 -0.49 -0.39    +0.222    40.687
ATOM     12  O   UNL d   1      33.977  30.287   9.762 -0.00 +0.05    -0.303    40.687
ATOM     13  H   UNL d   1      34.284  30.651   8.902 +0.01 -0.03    +0.222    40.687
ATOM     14  O   UNL d   1      29.344  30.192   7.539 -0.02 +0.06    -0.278    40.687
ATOM     15  P   UNL d   1      29.348  28.591   7.554 -0.05 -0.19    +0.473    40.687
ATOM     16  O   UNL d   1      28.157  27.910   6.958 -0.21 +0.08    -0.228    40.687
ATOM     17  O   UNL d   1      30.711  28.200   6.827 -0.10 +0.19    -0.303    40.687
ATOM     18  H   UNL d   1      31.412  28.001   7.477 -0.54 -0.30    +0.222    40.687
ATOM     19  O   UNL d   1      29.671  28.209   9.064 -0.07 +0.17    -0.303    40.687
ATOM     20  H   UNL d   1      30.629  28.101   9.212 -0.19 -0.27    +0.222    40.687
ATOM     21  O   UNL d   1      33.106  32.230   7.933 +0.00 +0.02    -0.278    40.687
ATOM     22  P   UNL d   1      34.193  31.933   6.804 +0.00 -0.03    +0.473    40.687
ATOM     23  O   UNL d   1      34.887  30.613   6.823 -0.00 +0.02    -0.228    40.687
ATOM     24  O   UNL d   1      33.373  32.237   5.474 +0.00 +0.02    -0.303    40.687
ATOM     25  H   UNL d   1      32.655  32.883   5.696 +0.00 -0.01    +0.222    40.687
ATOM     26  O   UNL d   1      35.137  33.225   6.913 +0.00 +0.01    -0.303    40.687
ATOM     27  H   UNL d   1      34.683  33.990   6.506 +0.00 -0.01    +0.222    40.687
ATOM     28  O   UNL d   1      27.635  31.964   8.531 -0.00 +0.03    -0.278    40.687
ATOM     29  P   UNL d   1      26.742  31.054   9.485 +0.01 -0.04    +0.473    40.687
ATOM     30  O   UNL d   1      27.147  31.034  10.914 -0.00 +0.01    -0.228    40.687
ATOM     31  O   UNL d   1      25.290  31.637   9.149 +0.00 +0.02    -0.303    40.687
ATOM     32  H   UNL d   1      25.395  32.424   8.565 +0.00 -0.02    +0.222    40.687
ATOM     33  O   UNL d   1      26.747  29.659   8.716 -0.02 +0.05    -0.303    40.687
ATOM     34  H   UNL d   1      27.678  29.331   8.652 +0.04 -0.04    +0.222    40.687
ATOM     35  O   UNL d   1      31.269  33.940   6.440 +0.00 +0.01    -0.278    40.687
ATOM     36  P   UNL d   1      32.241  35.202   6.364 +0.00 -0.01    +0.473    40.687
ATOM     37  O   UNL d   1      31.564  36.535   6.312 +0.00 +0.00    -0.228    40.687
ATOM     38  O   UNL d   1      33.159  34.984   7.646 +0.00 +0.01    -0.303    40.687
ATOM     39  H   UNL d   1      33.362  34.028   7.737 +0.00 -0.01    +0.222    40.687
ATOM     40  O   UNL d   1      33.190  34.827   5.145 +0.00 +0.01    -0.303    40.687
ATOM     41  H   UNL d   1      33.902  34.205   5.415 +0.00 -0.01    +0.222    40.687
ATOM     42  O   UNL d   1      28.993  34.478   8.179 +0.00 +0.01    -0.278    40.687
ATOM     43  P   UNL d   1      27.994  35.250   7.205 +0.00 -0.02    +0.473    40.687
ATOM     44  O   UNL d   1      27.541  36.606   7.620 +0.00 +0.01    -0.228    40.687
ATOM     45  O   UNL d   1      28.769  35.220   5.815 +0.00 +0.01    -0.303    40.687
ATOM     46  H   UNL d   1      29.724  35.392   5.934 +0.00 -0.01    +0.222    40.687
ATOM     47  O   UNL d   1      26.829  34.179   6.951 +0.00 +0.02    -0.303    40.687
ATOM     48  H   UNL d   1      26.813  33.538   7.692 +0.00 -0.01    +0.222    40.687
TER
ENDMDL
MODEL       41
USER    Run = 41
USER    Cluster Rank = 96
USER    Number of conformations in this cluster = 1
USER  
USER    RMSD from reference structure       = 13.349 A
USER  
USER    Estimated Free Energy of Binding    =   +5.01 kcal/mol  [=(1)+(2)+(3)-(4)]
USER    
USER    (1) Final Intermolecular Energy     =   -2.15 kcal/mol
USER        vdW + Hbond + desolv Energy     =   -1.80 kcal/mol
USER        Electrostatic Energy            =   -0.35 kcal/mol
USER    (2) Final Total Internal Energy     =  -15.44 kcal/mol
USER    (3) Torsional Free Energy           =   +7.16 kcal/mol
USER    (4) Unbound System's Energy  [=(2)] =  -15.44 kcal/mol
USER    
USER    
USER  
USER    DPF = D:/Protein_go_brrr/autodock/final/1A3N/IHP/dock.dpf
USER    NEWDPF move	IHP_ideal_opt.pdbqt
USER    NEWDPF about	0.035000 0.082000 -0.065000
USER    NEWDPF tran0	-8.093815 -7.882226 -10.795112
USER    NEWDPF axisangle0	-0.897773 0.392648 -0.199578 141.049962
USER    NEWDPF quaternion0	-0.846409 0.370184 -0.188159 0.333396
USER    NEWDPF dihe0	-127.18 -28.15 53.09 54.10 15.48 -147.37 71.19 -90.07 160.93 -14.28 143.40 -179.84 99.50 158.82 0.70 105.08 106.00 -140.30 -26.35 -20.29 152.03 -30.32 -42.56 160.60 
USER  
USER                              x       y       z    vdW   Elec        q     RMS 
ATOM      1  C   UNL d   1      -6.548  -8.620 -11.023 -0.04 +0.08    +0.194    13.349
ATOM      2  C   UNL d   1      -6.788  -7.330 -11.810 -0.03 +0.08    +0.194    13.349
ATOM      3  C   UNL d   1      -8.185  -7.296 -12.432 -0.00 +0.07    +0.194    13.349
ATOM      4  C   UNL d   1      -9.299  -7.573 -11.424 -0.02 +0.09    +0.194    13.349
ATOM      5  C   UNL d   1      -9.047  -8.787 -10.539 -0.03 +0.09    +0.194    13.349
ATOM      6  C   UNL d   1      -7.629  -8.852  -9.967 -0.05 +0.08    +0.194    13.349
ATOM      7  O   UNL d   1      -5.300  -8.498 -10.337 -0.08 -0.18    -0.278    13.349
ATOM      8  P   UNL d   1      -4.441  -9.822 -10.084 -0.04 +0.23    +0.473    13.349
ATOM      9  O   UNL d   1      -2.970  -9.614 -10.009 -0.06 -0.15    -0.228    13.349
ATOM     10  O   UNL d   1      -5.058 -10.433  -8.745 -0.09 -0.11    -0.303    13.349
ATOM     11  H   UNL d   1      -5.920 -10.846  -8.941 +0.03 +0.06    +0.222    13.349
ATOM     12  O   UNL d   1      -4.941 -10.855 -11.182 -0.01 -0.08    -0.303    13.349
ATOM     13  H   UNL d   1      -5.836 -11.217 -10.992 +0.01 +0.05    +0.222    13.349
ATOM     14  O   UNL d   1      -6.656  -6.211 -10.924 -0.08 -0.17    -0.278    13.349
ATOM     15  P   UNL d   1      -5.390  -5.259 -11.157 -0.09 +0.44    +0.473    13.349
ATOM     16  O   UNL d   1      -4.775  -4.647  -9.937 -0.55 -0.38    -0.228    13.349
ATOM     17  O   UNL d   1      -4.367  -6.167 -11.974 -0.17 -0.28    -0.303    13.349
ATOM     18  H   UNL d   1      -4.332  -7.072 -11.610 +0.03 +0.20    +0.222    13.349
ATOM     19  O   UNL d   1      -5.867  -4.231 -12.273 -0.06 -0.17    -0.303    13.349
ATOM     20  H   UNL d   1      -6.751  -4.457 -12.617 +0.05 +0.10    +0.222    13.349
ATOM     21  O   UNL d   1      -7.447 -10.175  -9.466 -0.02 -0.08    -0.278    13.349
ATOM     22  P   UNL d   1      -7.813 -11.426 -10.385 +0.01 +0.09    +0.473    13.349
ATOM     23  O   UNL d   1      -7.659 -11.285 -11.862 -0.00 -0.04    -0.228    13.349
ATOM     24  O   UNL d   1      -6.933 -12.579  -9.730 -0.00 -0.04    -0.303    13.349
ATOM     25  H   UNL d   1      -6.003 -12.248  -9.646 +0.01 +0.03    +0.222    13.349
ATOM     26  O   UNL d   1      -9.283 -11.795  -9.863 +0.00 -0.05    -0.303    13.349
ATOM     27  H   UNL d   1      -9.775 -10.969  -9.677 +0.01 +0.06    +0.222    13.349
ATOM     28  O   UNL d   1      -8.416  -5.972 -12.895 -0.00 -0.09    -0.278    13.349
ATOM     29  P   UNL d   1      -7.810  -5.489 -14.286 +0.01 +0.13    +0.473    13.349
ATOM     30  O   UNL d   1      -8.551  -5.929 -15.496 -0.00 -0.04    -0.228    13.349
ATOM     31  O   UNL d   1      -7.722  -3.913 -14.020 -0.01 -0.09    -0.303    13.349
ATOM     32  H   UNL d   1      -6.789  -3.625 -14.146 +0.04 +0.08    +0.222    13.349
ATOM     33  O   UNL d   1      -6.290  -5.950 -14.166 -0.00 -0.10    -0.303    13.349
ATOM     34  H   UNL d   1      -6.019  -5.918 -13.216 +0.02 +0.09    +0.222    13.349
ATOM     35  O   UNL d   1      -9.939  -8.652  -9.435 -0.08 -0.24    -0.278    13.349
ATOM     36  P   UNL d   1     -11.420  -9.240  -9.521 +0.00 +0.43    +0.473    13.349
ATOM     37  O   UNL d   1     -12.016  -9.678  -8.221 -0.44 -0.24    -0.228    13.349
ATOM     38  O   UNL d   1     -12.202  -8.049 -10.232 -0.10 -0.33    -0.303    13.349
ATOM     39  H   UNL d   1     -12.178  -8.183 -11.204 +0.01 +0.13    +0.222    13.349
ATOM     40  O   UNL d   1     -11.283 -10.341 -10.660 -0.00 -0.10    -0.303    13.349
ATOM     41  H   UNL d   1     -10.931  -9.960 -11.495 +0.01 +0.07    +0.222    13.349
ATOM     42  O   UNL d   1     -10.484  -7.843 -12.180 -0.00 -0.10    -0.278    13.349
ATOM     43  P   UNL d   1     -10.415  -8.901 -13.372 +0.01 +0.10    +0.473    13.349
ATOM     44  O   UNL d   1     -10.172  -8.374 -14.744 +0.00 -0.04    -0.228    13.349
ATOM     45  O   UNL d   1      -9.311  -9.927 -12.864 +0.00 -0.06    -0.303    13.349
ATOM     46  H   UNL d   1      -9.638 -10.462 -12.113 +0.00 +0.05    +0.222    13.349
ATOM     47  O   UNL d   1     -11.761  -9.751 -13.186 +0.00 -0.06    -0.303    13.349
ATOM     48  H   UNL d   1     -12.249  -9.416 -12.405 +0.00 +0.05    +0.222    13.349
TER
ENDMDL
MODEL       21
USER    Run = 21
USER    Cluster Rank = 97
USER    Number of conformations in this cluster = 1
USER  
USER    RMSD from reference structure       = 45.796 A
USER  
USER    Estimated Free Energy of Binding    =   +5.46 kcal/mol  [=(1)+(2)+(3)-(4)]
USER    
USER    (1) Final Intermolecular Energy     =   -1.70 kcal/mol
USER        vdW + Hbond + desolv Energy     =   -1.62 kcal/mol
USER        Electrostatic Energy            =   -0.08 kcal/mol
USER    (2) Final Total Internal Energy     =  -15.19 kcal/mol
USER    (3) Torsional Free Energy           =   +7.16 kcal/mol
USER    (4) Unbound System's Energy  [=(2)] =  -15.19 kcal/mol
USER    
USER    
USER  
USER    DPF = D:/Protein_go_brrr/autodock/final/1A3N/IHP/dock.dpf
USER    NEWDPF move	IHP_ideal_opt.pdbqt
USER    NEWDPF about	0.035000 0.082000 -0.065000
USER    NEWDPF tran0	38.027368 24.107498 21.168994
USER    NEWDPF axisangle0	-0.125234 0.459828 -0.879133 -170.441903
USER    NEWDPF quaternion0	-0.124799 0.458229 -0.876077 -0.083313
USER    NEWDPF dihe0	169.59 -47.77 69.58 119.30 107.72 84.70 -108.66 45.46 105.60 -8.88 122.34 161.05 42.23 -21.20 96.53 33.11 59.50 -168.87 26.46 -18.68 -54.79 171.86 -16.04 -23.80 
USER  
USER                              x       y       z    vdW   Elec        q     RMS 
ATOM      1  C   UNL d   1      37.036  23.665  22.513 -0.01 +0.01    +0.194    45.796
ATOM      2  C   UNL d   1      38.094  24.734  22.795 -0.00 +0.00    +0.194    45.796
ATOM      3  C   UNL d   1      39.437  24.385  22.152 -0.00 +0.00    +0.194    45.796
ATOM      4  C   UNL d   1      39.326  24.062  20.664 -0.01 +0.00    +0.194    45.796
ATOM      5  C   UNL d   1      38.207  23.086  20.323 -0.04 +0.01    +0.194    45.796
ATOM      6  C   UNL d   1      36.879  23.400  21.015 -0.05 +0.01    +0.194    45.796
ATOM      7  O   UNL d   1      35.778  24.144  22.995 -0.01 -0.01    -0.278    45.796
ATOM      8  P   UNL d   1      35.301  23.691  24.451 +0.00 +0.01    +0.473    45.796
ATOM      9  O   UNL d   1      35.649  24.632  25.550 +0.00 -0.00    -0.228    45.796
ATOM     10  O   UNL d   1      33.730  23.467  24.290 -0.00 -0.01    -0.303    45.796
ATOM     11  H   UNL d   1      33.494  23.474  23.343 +0.02 +0.01    +0.222    45.796
ATOM     12  O   UNL d   1      35.834  22.203  24.615 -0.00 -0.00    -0.303    45.796
ATOM     13  H   UNL d   1      35.174  21.525  24.347 +0.01 +0.00    +0.222    45.796
ATOM     14  O   UNL d   1      37.645  25.987  22.264 -0.00 -0.01    -0.278    45.796
ATOM     15  P   UNL d   1      37.302  27.134  23.328 -0.00 +0.01    +0.473    45.796
ATOM     16  O   UNL d   1      38.139  27.173  24.567 +0.00 -0.00    -0.228    45.796
ATOM     17  O   UNL d   1      37.385  28.483  22.484 -0.00 -0.01    -0.303    45.796
ATOM     18  H   UNL d   1      37.985  28.383  21.720 +0.00 +0.00    +0.222    45.796
ATOM     19  O   UNL d   1      35.734  27.000  23.563 -0.00 -0.01    -0.303    45.796
ATOM     20  H   UNL d   1      35.494  26.119  23.903 +0.00 +0.01    +0.222    45.796
ATOM     21  O   UNL d   1      36.059  22.241  20.879 -0.11 -0.03    -0.278    45.796
ATOM     22  P   UNL d   1      34.473  22.377  20.981 -0.16 +0.09    +0.473    45.796
ATOM     23  O   UNL d   1      33.645  21.823  19.871 -0.58 -0.11    -0.228    45.796
ATOM     24  O   UNL d   1      34.183  21.741  22.411 -0.05 -0.03    -0.303    45.796
ATOM     25  H   UNL d   1      34.881  22.061  23.038 +0.03 +0.01    +0.222    45.796
ATOM     26  O   UNL d   1      34.299  23.943  21.274 -0.08 -0.04    -0.303    45.796
ATOM     27  H   UNL d   1      34.318  24.094  22.241 +0.03 +0.02    +0.222    45.796
ATOM     28  O   UNL d   1      40.261  25.542  22.226 +0.00 -0.00    -0.278    45.796
ATOM     29  P   UNL d   1      40.043  26.751  21.212 -0.00 +0.01    +0.473    45.796
ATOM     30  O   UNL d   1      38.848  26.645  20.336 -0.00 -0.01    -0.228    45.796
ATOM     31  O   UNL d   1      40.087  27.983  22.234 +0.00 -0.00    -0.303    45.796
ATOM     32  H   UNL d   1      39.394  27.846  22.920 +0.00 +0.00    +0.222    45.796
ATOM     33  O   UNL d   1      41.459  26.842  20.491 +0.00 -0.00    -0.303    45.796
ATOM     34  H   UNL d   1      41.382  26.459  19.583 +0.00 +0.00    +0.222    45.796
ATOM     35  O   UNL d   1      37.990  23.221  18.919 -0.07 -0.02    -0.278    45.796
ATOM     36  P   UNL d   1      38.304  22.004  17.937 -0.15 +0.01    +0.473    45.796
ATOM     37  O   UNL d   1      37.110  21.256  17.435 -0.26 -0.03    -0.228    45.796
ATOM     38  O   UNL d   1      39.157  22.717  16.796 -0.10 +0.02    -0.303    45.796
ATOM     39  H   UNL d   1      39.714  23.415  17.202 +0.03 -0.00    +0.222    45.796
ATOM     40  O   UNL d   1      39.383  21.173  18.759 -0.08 -0.00    -0.303    45.796
ATOM     41  H   UNL d   1      40.116  21.744  19.079 +0.04 +0.00    +0.222    45.796
ATOM     42  O   UNL d   1      40.557  23.441  20.281 -0.00 -0.00    -0.278    45.796
ATOM     43  P   UNL d   1      41.268  23.904  18.930 +0.00 +0.00    +0.473    45.796
ATOM     44  O   UNL d   1      41.543  22.859  17.905 -0.02 +0.00    -0.228    45.796
ATOM     45  O   UNL d   1      40.321  25.079  18.423 -0.00 -0.01    -0.303    45.796
ATOM     46  H   UNL d   1      40.135  25.722  19.137 +0.01 +0.00    +0.222    45.796
ATOM     47  O   UNL d   1      42.547  24.718  19.449 +0.00 -0.00    -0.303    45.796
ATOM     48  H   UNL d   1      42.400  24.992  20.378 +0.00 -0.00    +0.222    45.796
TER
ENDMDL


AVSFLD: # AVS field file
AVSFLD: #
AVSFLD: # Created by AutoDock
AVSFLD: #
AVSFLD: ndim=2           # number of dimensions in the field
AVSFLD: nspace=1         # number of physical coordinates
AVSFLD: veclen=7         # vector size
AVSFLD: dim1=48          # atoms
AVSFLD: dim2=97          # conformations
AVSFLD: data=Real       # data type (byte,integer,Real,double)
AVSFLD: field=uniform    # field coordinate layout
AVSFLD: label= x y z vdW Elec q RMS
AVSFLD: variable 1 file = D:/Protein_go_brrr/autodock/final/1A3N/IHP/dock.dlg.pdb filetype = ascii offset = 5 stride = 12
AVSFLD: variable 2 file = D:/Protein_go_brrr/autodock/final/1A3N/IHP/dock.dlg.pdb filetype = ascii offset = 6 stride = 12
AVSFLD: variable 3 file = D:/Protein_go_brrr/autodock/final/1A3N/IHP/dock.dlg.pdb filetype = ascii offset = 7 stride = 12
AVSFLD: variable 4 file = D:/Protein_go_brrr/autodock/final/1A3N/IHP/dock.dlg.pdb filetype = ascii offset = 8 stride = 12
AVSFLD: variable 5 file = D:/Protein_go_brrr/autodock/final/1A3N/IHP/dock.dlg.pdb filetype = ascii offset = 9 stride = 12
AVSFLD: variable 6 file = D:/Protein_go_brrr/autodock/final/1A3N/IHP/dock.dlg.pdb filetype = ascii offset = 10 stride = 12
AVSFLD: variable 7 file = D:/Protein_go_brrr/autodock/final/1A3N/IHP/dock.dlg.pdb filetype = ascii offset = 11 stride = 12
AVSFLD: # end of file

>>> Closing the docking parameter file (DPF)...
This docking finished at:			5:18 27" p.m., 09/26/2025


________________________________________________________________________________

D:/autodockScripts/autodock4.exe: Successful Completion on "ACER"

Real= 15h 15m 38.62s,  CPU= 1m 10.16s,  System= 1m 43.91s
________________________________________________________________________________

