          AutoDock 4.2 Release 4.2.6   
         (C) 1989-2012 The Scripps Research Institute
        AutoDock comes with ABSOLUTELY NO WARRANTY.
        AutoDock is free software, and you are welcome
        to redistribute it under certain conditions;
        for details type 'autodock4 -C'

                     main.cc  $Revision: 1.213 $

                   Compiled on Jul 18 2014 at 15:34:58


This file was created at:			5:34 57" p.m., 10/02/2025
                   on host:		"ACER"
Current Working Directory = "D:\Protein_go_brrr\autodock\final\mut_D99N\heme_Fe"

      ________________________________________________________________

                   SETTING UP DEFAULT PARAMETER LIBRARY
      ________________________________________________________________


Random number generator was seeded with values 112148, 1759419297.
Docking parameter file (DPF) used for this docking:		D:/Protein_go_brrr/autodock/final/mut_D99N/heme_Fe/dock.dpf
DPF> autodock_parameter_version 4.2       # used by autodock to validate parameter set

	Autodock parameter version 4.2.
DPF> outlev 1                             # diagnostic output level

Output Level = 1  ADT-COMPATIBLE OUTPUT DURING DOCKING.
DPF> intelec                              # calculate internal electrostatics

Electrostatic energies will be calculated for all non-bonds between moving atoms.
DPF> seed pid time                        # seeds for random generator

Random number generator was seeded with values 112148, 1759419297.
DPF> ligand_types A C OA N Fe HD          # atoms types in ligand

DPF> fld mut_D99N_m0.maps.fld             # grid_data_file

Opening Grid Map Dimensions file:		mut_D99N_m0.maps.fld
Grid Point Spacing =				0.447 Angstroms

Even Number of User-specified Grid Points =	126 x-points
						126 y-points
						126 z-points

Coordinates of Central Grid Point of Maps =	(-0.119, -0.072, -0.886)
Macromolecule file used to create Grid Maps =	mut_D99N_m0.pdbqt
Grid Parameter file used to create Grid Maps =	D:/Protein_go_brrr/autodock/final/mut_D99N/heme_Fe/grid.gpf
Minimum coordinates in grid = (-28.280, -28.233, -29.047)
Maximum coordinates in grid = (28.042, 28.089, 27.275)

DPF> map mut_D99N_m0.A.map                # atom-specific affinity map

DPF> map mut_D99N_m0.C.map                # atom-specific affinity map

DPF> map mut_D99N_m0.OA.map               # atom-specific affinity map

DPF> map mut_D99N_m0.N.map                # atom-specific affinity map

DPF> map mut_D99N_m0.Fe.map               # atom-specific affinity map

DPF> map mut_D99N_m0.HD.map               # atom-specific affinity map

DPF> elecmap mut_D99N_m0.e.map            # electrostatics map

DPF> desolvmap mut_D99N_m0.d.map          # desolvation map

DPF> move heme_Fe_opt.pdbqt               # small molecule

1,4-interactions will be _ignored_ in the non-bonded internal energy calculation.

Ligand PDBQT file = "heme_Fe_opt.pdbqt"

INPUT LIGAND PDBQT FILE:
________________________

INPUT-LIGAND-PDBQT: REMARK  10 active torsions:
INPUT-LIGAND-PDBQT: REMARK  status: ('A' for Active; 'I' for Inactive)
INPUT-LIGAND-PDBQT: REMARK    1  A    between atoms: C_6  and  C_10 
INPUT-LIGAND-PDBQT: REMARK    2  A    between atoms: C_10  and  C_11 
INPUT-LIGAND-PDBQT: REMARK    3  A    between atoms: C_11  and  C_12 
INPUT-LIGAND-PDBQT: REMARK    4  A    between atoms: C_12  and  O_14 
INPUT-LIGAND-PDBQT: REMARK    5  A    between atoms: C_17  and  C_20 
INPUT-LIGAND-PDBQT: REMARK    6  A    between atoms: C_24  and  C_27 
INPUT-LIGAND-PDBQT: REMARK    7  A    between atoms: C_31  and  C_34 
INPUT-LIGAND-PDBQT: REMARK    8  A    between atoms: C_34  and  C_35 
INPUT-LIGAND-PDBQT: REMARK    9  A    between atoms: C_35  and  C_36 
INPUT-LIGAND-PDBQT: REMARK   10  A    between atoms: C_36  and  O_38 
INPUT-LIGAND-PDBQT: ROOT
INPUT-LIGAND-PDBQT: ATOM      1  C   UNL d   1      -2.155  -0.060   0.485  0.00  0.00     0.064 C 
INPUT-LIGAND-PDBQT: ATOM      2  C   UNL d   1       1.497  -3.385   0.291  0.00  0.00     0.064 A 
INPUT-LIGAND-PDBQT: ATOM      3  C   UNL d   1       4.660   0.212  -0.062  0.00  0.00     0.064 C 
INPUT-LIGAND-PDBQT: ATOM      4  C   UNL d   1       1.133   3.443   0.018  0.00  0.00     0.064 C 
INPUT-LIGAND-PDBQT: ATOM      5  C   UNL d   1      -1.427  -1.332   0.379  0.00  0.00     0.066 A 
INPUT-LIGAND-PDBQT: ATOM      6  C   UNL d   1      -2.022  -2.582   0.331  0.00  0.00    -0.021 A 
INPUT-LIGAND-PDBQT: ATOM      7  C   UNL d   1      -1.007  -3.505   0.281  0.00  0.00    -0.025 A 
INPUT-LIGAND-PDBQT: ATOM      8  C   UNL d   1       0.170  -2.782   0.300  0.00  0.00     0.066 A 
INPUT-LIGAND-PDBQT: ATOM      9  C   UNL d   1      -1.169  -4.992   0.200  0.00  0.00     0.051 C 
INPUT-LIGAND-PDBQT: ATOM     10  C   UNL d   1       2.647  -2.710   0.251  0.00  0.00     0.066 A 
INPUT-LIGAND-PDBQT: ATOM     11  C   UNL d   1       3.903  -3.312   0.359  0.00  0.00    -0.021 A 
INPUT-LIGAND-PDBQT: ATOM     12  C   UNL d   1       4.832  -2.294   0.277  0.00  0.00     0.000 A 
INPUT-LIGAND-PDBQT: ATOM     13  C   UNL d   1       4.087  -1.111   0.130  0.00  0.00     0.070 A 
INPUT-LIGAND-PDBQT: ATOM     14  C   UNL d   1       4.202  -4.778   0.598  0.00  0.00     0.052 C 
INPUT-LIGAND-PDBQT: ATOM     15  C   UNL d   1       3.948   1.360  -0.152  0.00  0.00     0.066 A 
INPUT-LIGAND-PDBQT: ATOM     16  C   UNL d   1       4.526   2.591  -0.435  0.00  0.00    -0.021 A 
INPUT-LIGAND-PDBQT: ATOM     17  C   UNL d   1       3.511   3.525  -0.409  0.00  0.00     0.000 A 
INPUT-LIGAND-PDBQT: ATOM     18  C   UNL d   1       2.336   2.841  -0.106  0.00  0.00     0.070 A 
INPUT-LIGAND-PDBQT: ATOM     19  C   UNL d   1       5.979   2.885  -0.695  0.00  0.00     0.052 C 
INPUT-LIGAND-PDBQT: ATOM     20  C   UNL d   1      -0.134   2.748   0.275  0.00  0.00     0.066 A 
INPUT-LIGAND-PDBQT: ATOM     21  C   UNL d   1      -1.347   3.370   0.603  0.00  0.00    -0.025 A 
INPUT-LIGAND-PDBQT: ATOM     22  C   UNL d   1      -2.273   2.354   0.719  0.00  0.00    -0.021 A 
INPUT-LIGAND-PDBQT: ATOM     23  C   UNL d   1      -1.591   1.158   0.465  0.00  0.00     0.066 A 
INPUT-LIGAND-PDBQT: ATOM     24  C   UNL d   1      -1.629   4.841   0.803  0.00  0.00     0.051 C 
INPUT-LIGAND-PDBQT: ATOM     25  N   UNL d   1      -0.089  -1.460   0.350  0.00  0.00    -0.248 N 
INPUT-LIGAND-PDBQT: ATOM     26  N   UNL d   1       2.755  -1.363   0.123  0.00  0.00    -0.248 N 
INPUT-LIGAND-PDBQT: ATOM     27  N   UNL d   1       2.596   1.504   0.009  0.00  0.00    -0.248 N 
INPUT-LIGAND-PDBQT: ATOM     28  N   UNL d   1      -0.277   1.401   0.239  0.00  0.00    -0.248 N 
INPUT-LIGAND-PDBQT: ATOM     29 FE   UNL d   1       1.239   0.021   0.181  0.00  0.00     0.000 Fe
INPUT-LIGAND-PDBQT: ENDROOT
INPUT-LIGAND-PDBQT: BRANCH   6  30
INPUT-LIGAND-PDBQT: ATOM     30  C   UNL d   1      -3.481  -2.886   0.312  0.00  0.00     0.052 C 
INPUT-LIGAND-PDBQT: BRANCH  30  31
INPUT-LIGAND-PDBQT: ATOM     31  C   UNL d   1      -4.006  -2.926  -1.119  0.00  0.00     0.115 C 
INPUT-LIGAND-PDBQT: BRANCH  31  32
INPUT-LIGAND-PDBQT: ATOM     32  C   UNL d   1      -5.478  -3.232  -1.131  0.00  0.00     0.139 C 
INPUT-LIGAND-PDBQT: ATOM     33  O   UNL d   1      -6.086  -3.411  -0.085  0.00  0.00    -0.650 OA
INPUT-LIGAND-PDBQT: BRANCH  32  34
INPUT-LIGAND-PDBQT: ATOM     34  O   UNL d   1      -6.141  -3.312  -2.297  0.00  0.00    -0.776 OA
INPUT-LIGAND-PDBQT: ATOM     35  H   UNL d   1      -7.088  -3.510  -2.286  0.00  0.00     0.167 HD
INPUT-LIGAND-PDBQT: ENDBRANCH  32  34
INPUT-LIGAND-PDBQT: ENDBRANCH  31  32
INPUT-LIGAND-PDBQT: ENDBRANCH  30  31
INPUT-LIGAND-PDBQT: ENDBRANCH   6  30
INPUT-LIGAND-PDBQT: BRANCH  22  36
INPUT-LIGAND-PDBQT: ATOM     36  C   UNL d   1      -3.720   2.522   1.101  0.00  0.00     0.052 C 
INPUT-LIGAND-PDBQT: BRANCH  36  37
INPUT-LIGAND-PDBQT: ATOM     37  C   UNL d   1      -4.581   2.559  -0.153  0.00  0.00     0.115 C 
INPUT-LIGAND-PDBQT: BRANCH  37  38
INPUT-LIGAND-PDBQT: ATOM     38  C   UNL d   1      -6.035   2.706   0.196  0.00  0.00     0.139 C 
INPUT-LIGAND-PDBQT: ATOM     39  O   UNL d   1      -6.394   2.778   1.362  0.00  0.00    -0.650 OA
INPUT-LIGAND-PDBQT: BRANCH  38  40
INPUT-LIGAND-PDBQT: ATOM     40  O   UNL d   1      -6.958   2.756  -0.781  0.00  0.00    -0.776 OA
INPUT-LIGAND-PDBQT: ATOM     41  H   UNL d   1      -7.891   2.847  -0.542  0.00  0.00     0.167 HD
INPUT-LIGAND-PDBQT: ENDBRANCH  38  40
INPUT-LIGAND-PDBQT: ENDBRANCH  37  38
INPUT-LIGAND-PDBQT: ENDBRANCH  36  37
INPUT-LIGAND-PDBQT: ENDBRANCH  22  36
INPUT-LIGAND-PDBQT: BRANCH  12  42
INPUT-LIGAND-PDBQT: ATOM     42  C   UNL d   1       6.314  -2.479   0.357  0.00  0.00     0.004 C 
INPUT-LIGAND-PDBQT: ATOM     43  C   UNL d   1       6.931  -3.422  -0.367  0.00  0.00     0.012 C 
INPUT-LIGAND-PDBQT: ENDBRANCH  12  42
INPUT-LIGAND-PDBQT: BRANCH  17  44
INPUT-LIGAND-PDBQT: ATOM     44  C   UNL d   1       3.653   4.974  -0.677  0.00  0.00     0.004 C 
INPUT-LIGAND-PDBQT: ATOM     45  C   UNL d   1       4.222   5.409  -1.806  0.00  0.00     0.012 C 
INPUT-LIGAND-PDBQT: ENDBRANCH  17  44
INPUT-LIGAND-PDBQT: TORSDOF 10
________________________________________________________________________________

Total charge on ligand                               =	-2.002 e
REMARK  10 active torsions:
REMARK  status: ('A' for Active; 'I' for Inactive)
REMARK    1  A    between atoms: C_6  and  C_10 
REMARK    2  A    between atoms: C_10  and  C_11 
REMARK    3  A    between atoms: C_11  and  C_12 
REMARK    4  A    between atoms: C_12  and  O_14 
REMARK    5  A    between atoms: C_17  and  C_20 
REMARK    6  A    between atoms: C_24  and  C_27 
REMARK    7  A    between atoms: C_31  and  C_34 
REMARK    8  A    between atoms: C_34  and  C_35 
REMARK    9  A    between atoms: C_35  and  C_36 
REMARK   10  A    between atoms: C_36  and  O_38 


Number of Rotatable Bonds in Small Molecule =	10 torsions
Number of atoms in ligand:  45

Number of non-hydrogen atoms in ligand:  43

Number of vibrational degrees of freedom of ligand:  129


Number of torsional degrees of freedom = 10
Estimated loss of torsional free energy upon binding = +2.9830 kcal/mol


DPF> about -0.174 -0.001 -0.047            # small molecule center

Small molecule center of rotation =	(-0.174, -0.001, -0.047)

DPF> tran0 random                         # initial coordinates/A or random

Initial translation =			(-5.947, 3.918, -4.885) Angstroms
DPF> quaternion0 random                   # initial orientation

Each run will begin with a new, random initial orientation.
Initial quaternion,  (x,y,z,w) =	( -0.763, -0.035, 0.315, 0.564 ),
DPF> dihe0 random                         # initial dihedrals (relative) or random

DPF> torsdof 10                            # torsional degrees of freedom

Number of torsional degrees of freedom = 10
Free energy coefficient for torsional degrees of freedom = 0.2983, the factory default value.

Estimated loss of torsional free energy upon binding = +2.9830 kcal/mol

DPF> rmstol 2.0                           # cluster_tolerance/A

Maximum RMS tolerance for conformational cluster analysis = 2.00 Angstroms
DPF> extnrg 1000.0                        # external grid energy

External grid energy (beyond grid map walls) = 1000.00

DPF> e0max 0.0 10000                      # max initial energy; max number of retries

Using user-specified maximum number of retries for simanneal initialization, 10000 retries.
If the simanneal initial energy is greater than e0max, 0.000,
then a new, random initial state will be created.

DPF> ga_pop_size 150                      # number of individuals in population

A population of 150 individuals will be used
DPF> ga_num_evals 25000000                # maximum number of energy evaluations

There will be at most 25000000 function evaluations used.
DPF> ga_num_generations 27000             # maximum number of generations

The GA will run for at most 27000 generations.
DPF> ga_elitism 1                         # number of top individuals to survive to next generation

The 1 best will be preserved each GA generation.
DPF> ga_mutation_rate 0.02                # rate of gene mutation

The mutation rate is 0.020000.
DPF> ga_crossover_rate 0.8                # rate of crossover

The crossover rate is 0.800000.
DPF> ga_window_size 10                    # 

The GA's selection window is 10 generations.
DPF> ga_cauchy_alpha 0.0                  # Alpha parameter of Cauchy distribution

The alpha parameter (for the Cauchy distribution) is being set to 0.000000.
DPF> ga_cauchy_beta 1.0                   # Beta parameter Cauchy distribution

The beta parameter (for the Cauchy distribution) is being set to 1.000000.
DPF> set_ga                               # set the above parameters for GA or LGA

DPF> sw_max_its 300                       # iterations of Solis & Wets local search

Solis & Wets algorithms will perform at most 300 iterations.
DPF> sw_max_succ 4                        # consecutive successes before changing rho

Solis & Wets algorithms expand rho every 4 in a row successes.
DPF> sw_max_fail 4                        # consecutive failures before changing rho

Solis & Wets algorithms contract rho every 4 in a row failures.
DPF> sw_rho 1.0                           # size of local search space to sample

rho is set to 1.000000.
DPF> sw_lb_rho 0.01                       # lower bound on rho

rho will never get smaller than 0.010000.
DPF> ls_search_freq 0.06                  # probability of performing local search on individual

Local search will be performed with frequency 0.060000.
DPF> set_psw1                             # set the above pseudo-Solis & Wets parameters

Creating a new Local Search object using the pseudo-Solis-Wets algorithm (pSW1) with the current settings.

DPF> unbound_model bound                  # state of unbound ligand

DPF> ga_run 100                           # do this many hybrid GA-LS runs

centering ligand on specified point: -0.174 -0.001 -0.047
Furthest true ligand atom from "about" center is 8.241 Angstroms (maxrad).
Number of requested GA dockings = 100 runs
Unbound model to be used is 'same as bound' [AutoDock 4.2 default].

	BEGINNING GENETIC ALGORITHM DOCKING 1 of 100
Run: 1 Seed: 1038160275 928916852 [ Run 1 of 100 GA/GALS ]
Beginning LAMARCKIAN GENETIC ALGORITHM (LGA), with a maximum of 25000000 energy evaluations.

Final-Value: -12.201


	FINAL GENETIC ALGORITHM DOCKED STATE
	_______________________________________________


Detailed state:  trans -15.206 5.184 3.512 quatxyzw 0.113899 0.305397 -0.729236 0.601644 center -0.174 -0.001 -0.047 ntor 10 137.3767 63.7363 15.6690 -5.0792 159.7227 10.4459 -29.1193 57.4170 151.6276 139.6669
State:	-15.206   5.184   3.512   0.143  0.382 -0.913 106.025    137.38   63.74   15.67   -5.08  159.72   10.45  -29.12   57.42  151.63  139.67

DOCKED: MODEL        1
DOCKED: USER    Run = 1
DOCKED: USER    DPF = D:/Protein_go_brrr/autodock/final/mut_D99N/heme_Fe/dock.dpf
DOCKED: USER  
DOCKED: USER    Estimated Free Energy of Binding    =   -7.32 kcal/mol  [=(1)+(2)+(3)-(4)]
DOCKED: USER    Estimated Inhibition Constant, Ki   =    4.30 uM (micromolar)  [Temperature = 298.15 K]
DOCKED: USER    
DOCKED: USER    (1) Final Intermolecular Energy     =  -10.30 kcal/mol
DOCKED: USER        vdW + Hbond + desolv Energy     =   -7.51 kcal/mol
DOCKED: USER        Electrostatic Energy            =   -2.79 kcal/mol
DOCKED: USER    (2) Final Total Internal Energy     =   -1.90 kcal/mol
DOCKED: USER    (3) Torsional Free Energy           =   +2.98 kcal/mol
DOCKED: USER    (4) Unbound System's Energy  [=(2)] =   -1.90 kcal/mol
DOCKED: USER    
DOCKED: USER    
DOCKED: USER    NEWDPF move heme_Fe_opt.pdbqt
DOCKED: USER    NEWDPF about -0.174000 -0.001000 -0.047000
DOCKED: USER    NEWDPF tran0 -15.206174 5.183675 3.511799
DOCKED: USER    NEWDPF quaternion0 0.113899 0.305397 -0.729236 0.601644
DOCKED: USER    NEWDPF axisangle0 0.142594 0.382336 -0.912954 106.024576
DOCKED: USER    NEWDPF quat0 0.142594 0.382336 -0.912954 106.024576
DOCKED: USER    NEWDPF dihe0 137.38 63.74 15.67 -5.08 159.72 10.45 -29.12 57.42 151.63 139.67 
DOCKED: USER  keepresnum = 1 
DOCKED: USER  
DOCKED: REMARK  10 active torsions:
DOCKED: REMARK  status: ('A' for Active; 'I' for Inactive)
DOCKED: REMARK    1  A    between atoms: C_6  and  C_10 
DOCKED: REMARK    2  A    between atoms: C_10  and  C_11 
DOCKED: REMARK    3  A    between atoms: C_11  and  C_12 
DOCKED: REMARK    4  A    between atoms: C_12  and  O_14 
DOCKED: REMARK    5  A    between atoms: C_17  and  C_20 
DOCKED: REMARK    6  A    between atoms: C_24  and  C_27 
DOCKED: REMARK    7  A    between atoms: C_31  and  C_34 
DOCKED: REMARK    8  A    between atoms: C_34  and  C_35 
DOCKED: REMARK    9  A    between atoms: C_35  and  C_36 
DOCKED: REMARK   10  A    between atoms: C_36  and  O_38 
DOCKED: USER                              x       y       z     vdW  Elec       q    Type
DOCKED: USER                           _______ _______ _______ _____ _____    ______ ____
DOCKED: ROOT
DOCKED: ATOM      1  C   UNL d   1     -14.947   3.149   3.566 -0.18 +0.01    +0.064 C 
DOCKED: ATOM      2  C   UNL d   1     -13.070   6.965   6.086 -0.21 -0.01    +0.064 A 
DOCKED: ATOM      3  C   UNL d   1     -16.579   9.747   4.349 -0.10 -0.01    +0.064 C 
DOCKED: ATOM      4  C   UNL d   1     -18.350   6.093   1.820 -0.28 +0.01    +0.064 C 
DOCKED: ATOM      5  C   UNL d   1     -14.045   3.985   4.370 -0.13 +0.01    +0.066 A 
DOCKED: ATOM      6  C   UNL d   1     -12.860   3.548   4.941 -0.18 -0.00    -0.021 A 
DOCKED: ATOM      7  C   UNL d   1     -12.342   4.607   5.643 -0.24 -0.00    -0.025 A 
DOCKED: ATOM      8  C   UNL d   1     -13.231   5.651   5.474 -0.18 +0.00    +0.066 A 
DOCKED: ATOM      9  C   UNL d   1     -11.057   4.612   6.413 -0.45 +0.00    +0.051 C 
DOCKED: ATOM     10  C   UNL d   1     -13.882   8.006   5.892 -0.18 -0.01    +0.066 A 
DOCKED: ATOM     11  C   UNL d   1     -13.767   9.216   6.581 -0.24 +0.00    -0.021 A 
DOCKED: ATOM     12  C   UNL d   1     -14.779  10.030   6.111 -0.12 -0.00    +0.000 A 
DOCKED: ATOM     13  C   UNL d   1     -15.470   9.264   5.156 -0.09 -0.01    +0.070 A 
DOCKED: ATOM     14  C   UNL d   1     -12.785   9.557   7.683 -0.47 -0.01    +0.052 C 
DOCKED: ATOM     15  C   UNL d   1     -17.281   8.998   3.466 -0.15 -0.00    +0.066 A 
DOCKED: ATOM     16  C   UNL d   1     -18.269   9.522   2.643 -0.15 +0.00    -0.021 A 
DOCKED: ATOM     17  C   UNL d   1     -18.783   8.470   1.915 -0.22 +0.00    +0.000 A 
DOCKED: ATOM     18  C   UNL d   1     -18.099   7.325   2.315 -0.24 +0.00    +0.070 A 
DOCKED: ATOM     19  C   UNL d   1     -18.731  10.952   2.559 -0.11 -0.00    +0.052 C 
DOCKED: ATOM     20  C   UNL d   1     -17.609   4.876   2.172 -0.24 +0.01    +0.066 A 
DOCKED: ATOM     21  C   UNL d   1     -17.983   3.571   1.824 -0.18 -0.00    -0.025 A 
DOCKED: ATOM     22  C   UNL d   1     -16.993   2.749   2.321 -0.16 -0.00    -0.021 A 
DOCKED: ATOM     23  C   UNL d   1     -16.061   3.580   2.955 -0.18 +0.01    +0.066 A 
DOCKED: ATOM     24  C   UNL d   1     -19.208   3.110   1.068 -0.17 +0.01    +0.051 C 
DOCKED: ATOM     25  N   UNL d   1     -14.261   5.272   4.691 -0.04 -0.02    -0.248 N 
DOCKED: ATOM     26  N   UNL d   1     -14.929   8.027   5.029 -0.07 +0.01    -0.248 N 
DOCKED: ATOM     27  N   UNL d   1     -17.145   7.655   3.237 -0.13 +0.00    -0.248 N 
DOCKED: ATOM     28  N   UNL d   1     -16.466   4.872   2.900 -0.00 -0.03    -0.248 N 
DOCKED: ATOM     29 FE   UNL d   1     -15.699   6.450   3.963 -0.04 +0.00    +0.000 Fe
DOCKED: ENDROOT
DOCKED: BRANCH   6  30
DOCKED: ATOM     30  C   UNL d   1     -12.240   2.199   4.809 -0.18 +0.02    +0.052 C 
DOCKED: BRANCH  30  31
DOCKED: ATOM     31  C   UNL d   1     -12.115   1.527   6.172 -0.11 +0.05    +0.115 C 
DOCKED: BRANCH  31  32
DOCKED: ATOM     32  C   UNL d   1     -12.182   0.032   6.029 -0.15 +0.13    +0.139 C 
DOCKED: ATOM     33  O   UNL d   1     -11.744  -0.699   6.906 -0.56 -0.56    -0.650 OA
DOCKED: BRANCH  32  34
DOCKED: ATOM     34  O   UNL d   1     -12.728  -0.517   4.930 -0.26 -1.60    -0.776 OA
DOCKED: ATOM     35  H   UNL d   1     -13.546  -0.142   4.574 +0.03 +0.26    +0.167 HD
DOCKED: ENDBRANCH  32  34
DOCKED: ENDBRANCH  31  32
DOCKED: ENDBRANCH  30  31
DOCKED: ENDBRANCH   6  30
DOCKED: BRANCH  22  36
DOCKED: ATOM     36  C   UNL d   1     -16.970   1.246   2.232 -0.14 +0.01    +0.052 C 
DOCKED: BRANCH  36  37
DOCKED: ATOM     37  C   UNL d   1     -16.861   0.651   3.629 -0.06 +0.04    +0.115 C 
DOCKED: BRANCH  37  38
DOCKED: ATOM     38  C   UNL d   1     -15.662  -0.248   3.739 -0.09 +0.10    +0.139 C 
DOCKED: ATOM     39  O   UNL d   1     -14.821  -0.280   2.853 -0.03 -0.67    -0.650 OA
DOCKED: BRANCH  38  40
DOCKED: ATOM     40  O   UNL d   1     -15.508  -1.033   4.820 +0.02 -0.75    -0.776 OA
DOCKED: ATOM     41  H   UNL d   1     -14.749  -0.888   5.402 +0.01 +0.19    +0.167 HD
DOCKED: ENDBRANCH  38  40
DOCKED: ENDBRANCH  37  38
DOCKED: ENDBRANCH  36  37
DOCKED: ENDBRANCH  22  36
DOCKED: BRANCH  12  42
DOCKED: ATOM     42  C   UNL d   1     -15.042  11.425   6.580 -0.14 -0.00    +0.004 C 
DOCKED: ATOM     43  C   UNL d   1     -14.140  12.397   6.394 -0.22 -0.01    +0.012 C 
DOCKED: ENDBRANCH  12  42
DOCKED: BRANCH  17  44
DOCKED: ATOM     44  C   UNL d   1     -19.847   8.557   0.889 -0.26 +0.00    +0.004 C 
DOCKED: ATOM     45  C   UNL d   1     -19.787   9.474  -0.083 -0.27 +0.00    +0.012 C 
DOCKED: ENDBRANCH  17  44
DOCKED: TORSDOF 10
DOCKED: TER
DOCKED: ENDMDL
________________________________________________________________________________


	BEGINNING GENETIC ALGORITHM DOCKING 2 of 100
Run: 2 Seed: 851528846 1225867617 [ Run 2 of 100 GA/GALS ]
Beginning LAMARCKIAN GENETIC ALGORITHM (LGA), with a maximum of 25000000 energy evaluations.

Final-Value: -13.841


	FINAL GENETIC ALGORITHM DOCKED STATE
	_______________________________________________


Detailed state:  trans -6.873 2.205 0.785 quatxyzw 0.145914 -0.963528 -0.175239 -0.140051 center -0.174 -0.001 -0.047 ntor 10 -30.0852 81.9073 -137.9535 33.8815 -178.7321 -72.7479 -46.4139 156.6439 148.4134 8.7895
State:	 -6.873   2.205   0.785   0.147 -0.973 -0.177 -163.898    -30.09   81.91 -137.95   33.88 -178.73  -72.75  -46.41  156.64  148.41    8.79

DOCKED: MODEL        2
DOCKED: USER    Run = 2
DOCKED: USER    DPF = D:/Protein_go_brrr/autodock/final/mut_D99N/heme_Fe/dock.dpf
DOCKED: USER  
DOCKED: USER    Estimated Free Energy of Binding    =  -10.25 kcal/mol  [=(1)+(2)+(3)-(4)]
DOCKED: USER    Estimated Inhibition Constant, Ki   =   30.59 nM (nanomolar)  [Temperature = 298.15 K]
DOCKED: USER    
DOCKED: USER    (1) Final Intermolecular Energy     =  -13.23 kcal/mol
DOCKED: USER        vdW + Hbond + desolv Energy     =  -12.99 kcal/mol
DOCKED: USER        Electrostatic Energy            =   -0.24 kcal/mol
DOCKED: USER    (2) Final Total Internal Energy     =   -0.61 kcal/mol
DOCKED: USER    (3) Torsional Free Energy           =   +2.98 kcal/mol
DOCKED: USER    (4) Unbound System's Energy  [=(2)] =   -0.61 kcal/mol
DOCKED: USER    
DOCKED: USER    
DOCKED: USER    NEWDPF move heme_Fe_opt.pdbqt
DOCKED: USER    NEWDPF about -0.174000 -0.001000 -0.047000
DOCKED: USER    NEWDPF tran0 -6.873374 2.205194 0.784694
DOCKED: USER    NEWDPF quaternion0 0.145914 -0.963528 -0.175239 -0.140051
DOCKED: USER    NEWDPF axisangle0 0.147367 -0.973119 -0.176983 -163.898454
DOCKED: USER    NEWDPF quat0 0.147367 -0.973119 -0.176983 -163.898454
DOCKED: USER    NEWDPF dihe0 -30.09 81.91 -137.95 33.88 -178.73 -72.75 -46.41 156.64 148.41 8.79 
DOCKED: USER  keepresnum = 1 
DOCKED: USER  
DOCKED: REMARK  10 active torsions:
DOCKED: REMARK  status: ('A' for Active; 'I' for Inactive)
DOCKED: REMARK    1  A    between atoms: C_6  and  C_10 
DOCKED: REMARK    2  A    between atoms: C_10  and  C_11 
DOCKED: REMARK    3  A    between atoms: C_11  and  C_12 
DOCKED: REMARK    4  A    between atoms: C_12  and  O_14 
DOCKED: REMARK    5  A    between atoms: C_17  and  C_20 
DOCKED: REMARK    6  A    between atoms: C_24  and  C_27 
DOCKED: REMARK    7  A    between atoms: C_31  and  C_34 
DOCKED: REMARK    8  A    between atoms: C_34  and  C_35 
DOCKED: REMARK    9  A    between atoms: C_35  and  C_36 
DOCKED: REMARK   10  A    between atoms: C_36  and  O_38 
DOCKED: USER                              x       y       z     vdW  Elec       q    Type
DOCKED: USER                           _______ _______ _______ _____ _____    ______ ____
DOCKED: ROOT
DOCKED: ATOM      1  C   UNL d   1      -5.212   2.965  -0.149 -0.43 +0.01    +0.064 C 
DOCKED: ATOM      2  C   UNL d   1      -7.731  -1.278  -0.435 -0.33 +0.01    +0.064 A 
DOCKED: ATOM      3  C   UNL d   1     -11.357   0.795   1.936 -0.37 +0.03    +0.064 C 
DOCKED: ATOM      4  C   UNL d   1      -8.894   4.879   2.316 -0.49 +0.01    +0.064 C 
DOCKED: ATOM      5  C   UNL d   1      -5.551   1.553  -0.376 -0.38 +0.01    +0.066 A 
DOCKED: ATOM      6  C   UNL d   1      -4.699   0.615  -0.937 -0.30 -0.00    -0.021 A 
DOCKED: ATOM      7  C   UNL d   1      -5.401  -0.562  -1.019 -0.37 -0.00    -0.025 A 
DOCKED: ATOM      8  C   UNL d   1      -6.655  -0.297  -0.505 -0.41 +0.01    +0.066 A 
DOCKED: ATOM      9  C   UNL d   1      -4.881  -1.865  -1.545 -0.55 -0.00    +0.051 C 
DOCKED: ATOM     10  C   UNL d   1      -8.930  -1.065   0.108 -0.30 +0.02    +0.066 A 
DOCKED: ATOM     11  C   UNL d   1      -9.979  -1.987   0.058 -0.05 -0.01    -0.021 A 
DOCKED: ATOM     12  C   UNL d   1     -11.042  -1.406   0.720 -0.12 +0.00    +0.000 A 
DOCKED: ATOM     13  C   UNL d   1     -10.585  -0.144   1.137 -0.33 +0.03    +0.070 A 
DOCKED: ATOM     14  C   UNL d   1      -9.990  -3.329  -0.647 -0.25 +0.01    +0.052 C 
DOCKED: ATOM     15  C   UNL d   1     -10.940   2.032   2.296 -0.25 +0.02    +0.066 A 
DOCKED: ATOM     16  C   UNL d   1     -11.666   2.860   3.143 -0.26 -0.01    -0.021 A 
DOCKED: ATOM     17  C   UNL d   1     -10.959   4.040   3.251 -0.31 +0.00    +0.000 A 
DOCKED: ATOM     18  C   UNL d   1      -9.819   3.905   2.463 -0.36 +0.01    +0.070 A 
DOCKED: ATOM     19  C   UNL d   1     -12.985   2.567   3.806 -0.21 +0.02    +0.052 C 
DOCKED: ATOM     20  C   UNL d   1      -7.652   4.751   1.545 -0.38 +0.01    +0.066 A 
DOCKED: ATOM     21  C   UNL d   1      -6.787   5.806   1.220 -0.46 -0.00    -0.025 A 
DOCKED: ATOM     22  C   UNL d   1      -5.739   5.236   0.528 -0.46 -0.00    -0.021 A 
DOCKED: ATOM     23  C   UNL d   1      -6.006   3.864   0.453 -0.39 +0.01    +0.066 A 
DOCKED: ATOM     24  C   UNL d   1      -6.934   7.276   1.535 -0.52 +0.01    +0.051 C 
DOCKED: ATOM     25  N   UNL d   1      -6.740   0.988  -0.106 -0.26 -0.03    -0.248 N 
DOCKED: ATOM     26  N   UNL d   1      -9.301   0.068   0.757 -0.25 -0.07    -0.248 N 
DOCKED: ATOM     27  N   UNL d   1      -9.784   2.655   1.910 -0.20 -0.08    -0.248 N 
DOCKED: ATOM     28  N   UNL d   1      -7.196   3.580   1.036 -0.16 -0.08    -0.248 N 
DOCKED: ATOM     29 FE   UNL d   1      -8.249   1.826   0.897 -0.09 +0.00    +0.000 Fe
DOCKED: ENDROOT
DOCKED: BRANCH   6  30
DOCKED: ATOM     30  C   UNL d   1      -3.283   0.819  -1.354 -0.19 +0.00    +0.052 C 
DOCKED: BRANCH  30  31
DOCKED: ATOM     31  C   UNL d   1      -3.101   0.485  -2.830 -0.36 +0.01    +0.115 C 
DOCKED: BRANCH  31  32
DOCKED: ATOM     32  C   UNL d   1      -2.306   1.560  -3.519 -0.53 +0.01    +0.139 C 
DOCKED: ATOM     33  O   UNL d   1      -2.068   1.489  -4.716 -0.07 -0.04    -0.650 OA
DOCKED: BRANCH  32  34
DOCKED: ATOM     34  O   UNL d   1      -1.847   2.612  -2.820 +0.03 -0.04    -0.776 OA
DOCKED: ATOM     35  H   UNL d   1      -1.026   3.040  -3.101 -0.44 -0.04    +0.167 HD
DOCKED: ENDBRANCH  32  34
DOCKED: ENDBRANCH  31  32
DOCKED: ENDBRANCH  30  31
DOCKED: ENDBRANCH   6  30
DOCKED: BRANCH  22  36
DOCKED: ATOM     36  C   UNL d   1      -4.572   5.978  -0.068 -0.60 +0.01    +0.052 C 
DOCKED: BRANCH  36  37
DOCKED: ATOM     37  C   UNL d   1      -3.328   5.742   0.776 -0.53 +0.01    +0.115 C 
DOCKED: BRANCH  37  38
DOCKED: ATOM     38  C   UNL d   1      -3.695   5.378   2.187 -0.32 +0.01    +0.139 C 
DOCKED: ATOM     39  O   UNL d   1      -4.137   6.220   2.955 +0.04 -0.07    -0.650 OA
DOCKED: BRANCH  38  40
DOCKED: ATOM     40  O   UNL d   1      -3.535   4.114   2.617 +0.11 -0.08    -0.776 OA
DOCKED: ATOM     41  H   UNL d   1      -4.300   3.521   2.628 +0.11 +0.02    +0.167 HD
DOCKED: ENDBRANCH  38  40
DOCKED: ENDBRANCH  37  38
DOCKED: ENDBRANCH  36  37
DOCKED: ENDBRANCH  22  36
DOCKED: BRANCH  12  42
DOCKED: ATOM     42  C   UNL d   1     -12.385  -2.038   0.902 +0.11 +0.00    +0.004 C 
DOCKED: ATOM     43  C   UNL d   1     -13.360  -1.856   0.003 -0.24 +0.01    +0.012 C 
DOCKED: ENDBRANCH  12  42
DOCKED: BRANCH  17  44
DOCKED: ATOM     44  C   UNL d   1     -11.340   5.212   4.072 -0.41 +0.00    +0.004 C 
DOCKED: ATOM     45  C   UNL d   1     -10.969   5.300   5.354 -0.45 -0.00    +0.012 C 
DOCKED: ENDBRANCH  17  44
DOCKED: TORSDOF 10
DOCKED: TER
DOCKED: ENDMDL
________________________________________________________________________________


	BEGINNING GENETIC ALGORITHM DOCKING 3 of 100
Run: 3 Seed: 921279555 1594949909 [ Run 3 of 100 GA/GALS ]
Beginning LAMARCKIAN GENETIC ALGORITHM (LGA), with a maximum of 25000000 energy evaluations.

Final-Value: -11.447


	FINAL GENETIC ALGORITHM DOCKED STATE
	_______________________________________________


Detailed state:  trans -15.463 4.801 3.968 quatxyzw -0.563677 -0.777288 -0.229752 0.159076 center -0.174 -0.001 -0.047 ntor 10 86.4260 179.7274 -136.2404 44.0574 -76.2154 -137.7152 50.9286 14.5408 -23.8255 128.2996
State:	-15.463   4.801   3.968  -0.571 -0.787 -0.233 161.693     86.43  179.73 -136.24   44.06  -76.22 -137.72   50.93   14.54  -23.83  128.30

DOCKED: MODEL        3
DOCKED: USER    Run = 3
DOCKED: USER    DPF = D:/Protein_go_brrr/autodock/final/mut_D99N/heme_Fe/dock.dpf
DOCKED: USER  
DOCKED: USER    Estimated Free Energy of Binding    =   -7.05 kcal/mol  [=(1)+(2)+(3)-(4)]
DOCKED: USER    Estimated Inhibition Constant, Ki   =    6.79 uM (micromolar)  [Temperature = 298.15 K]
DOCKED: USER    
DOCKED: USER    (1) Final Intermolecular Energy     =  -10.03 kcal/mol
DOCKED: USER        vdW + Hbond + desolv Energy     =   -7.04 kcal/mol
DOCKED: USER        Electrostatic Energy            =   -3.00 kcal/mol
DOCKED: USER    (2) Final Total Internal Energy     =   -1.41 kcal/mol
DOCKED: USER    (3) Torsional Free Energy           =   +2.98 kcal/mol
DOCKED: USER    (4) Unbound System's Energy  [=(2)] =   -1.41 kcal/mol
DOCKED: USER    
DOCKED: USER    
DOCKED: USER    NEWDPF move heme_Fe_opt.pdbqt
DOCKED: USER    NEWDPF about -0.174000 -0.001000 -0.047000
DOCKED: USER    NEWDPF tran0 -15.463369 4.801031 3.968251
DOCKED: USER    NEWDPF quaternion0 -0.563677 -0.777288 -0.229752 0.159076
DOCKED: USER    NEWDPF axisangle0 -0.570948 -0.787313 -0.232715 161.693474
DOCKED: USER    NEWDPF quat0 -0.570948 -0.787313 -0.232715 161.693474
DOCKED: USER    NEWDPF dihe0 86.43 179.73 -136.24 44.06 -76.22 -137.72 50.93 14.54 -23.83 128.30 
DOCKED: USER  keepresnum = 1 
DOCKED: USER  
DOCKED: REMARK  10 active torsions:
DOCKED: REMARK  status: ('A' for Active; 'I' for Inactive)
DOCKED: REMARK    1  A    between atoms: C_6  and  C_10 
DOCKED: REMARK    2  A    between atoms: C_10  and  C_11 
DOCKED: REMARK    3  A    between atoms: C_11  and  C_12 
DOCKED: REMARK    4  A    between atoms: C_12  and  O_14 
DOCKED: REMARK    5  A    between atoms: C_17  and  C_20 
DOCKED: REMARK    6  A    between atoms: C_24  and  C_27 
DOCKED: REMARK    7  A    between atoms: C_31  and  C_34 
DOCKED: REMARK    8  A    between atoms: C_34  and  C_35 
DOCKED: REMARK    9  A    between atoms: C_35  and  C_36 
DOCKED: REMARK   10  A    between atoms: C_36  and  O_38 
DOCKED: USER                              x       y       z     vdW  Elec       q    Type
DOCKED: USER                           _______ _______ _______ _____ _____    ______ ____
DOCKED: ROOT
DOCKED: ATOM      1  C   UNL d   1     -14.620   3.000   3.464 -0.19 +0.02    +0.064 C 
DOCKED: ATOM      2  C   UNL d   1     -18.535   5.571   1.887 -0.23 +0.01    +0.064 A 
DOCKED: ATOM      3  C   UNL d   1     -16.817   9.443   4.152 -0.12 -0.00    +0.064 C 
DOCKED: ATOM      4  C   UNL d   1     -13.075   6.945   5.776 -0.25 -0.01    +0.064 C 
DOCKED: ATOM      5  C   UNL d   1     -15.923   3.343   2.880 -0.19 +0.01    +0.066 A 
DOCKED: ATOM      6  C   UNL d   1     -16.765   2.445   2.243 -0.16 -0.00    -0.021 A 
DOCKED: ATOM      7  C   UNL d   1     -17.850   3.161   1.802 -0.13 -0.00    -0.025 A 
DOCKED: ATOM      8  C   UNL d   1     -17.629   4.469   2.187 -0.22 +0.01    +0.066 A 
DOCKED: ATOM      9  C   UNL d   1     -19.035   2.608   1.070 -0.13 +0.01    +0.051 C 
DOCKED: ATOM     10  C   UNL d   1     -18.374   6.831   2.296 -0.23 +0.01    +0.066 A 
DOCKED: ATOM     11  C   UNL d   1     -19.197   7.886   1.897 -0.22 -0.00    -0.021 A 
DOCKED: ATOM     12  C   UNL d   1     -18.713   9.017   2.523 -0.17 -0.00    +0.000 A 
DOCKED: ATOM     13  C   UNL d   1     -17.603   8.590   3.273 -0.16 -0.00    +0.070 A 
DOCKED: ATOM     14  C   UNL d   1     -20.347   7.833   0.912 -0.19 +0.02    +0.052 C 
DOCKED: ATOM     15  C   UNL d   1     -15.717   9.048   4.835 -0.09 -0.00    +0.066 A 
DOCKED: ATOM     16  C   UNL d   1     -15.053   9.865   5.741 -0.09 +0.00    -0.021 A 
DOCKED: ATOM     17  C   UNL d   1     -13.971   9.148   6.209 -0.21 -0.00    +0.000 A 
DOCKED: ATOM     18  C   UNL d   1     -13.999   7.909   5.572 -0.17 -0.01    +0.070 A 
DOCKED: ATOM     19  C   UNL d   1     -15.405  11.275   6.135 -0.08 -0.01    +0.052 C 
DOCKED: ATOM     20  C   UNL d   1     -13.105   5.608   5.172 -0.19 +0.00    +0.066 A 
DOCKED: ATOM     21  C   UNL d   1     -12.059   4.676   5.215 -0.27 -0.00    -0.025 A 
DOCKED: ATOM     22  C   UNL d   1     -12.525   3.554   4.561 -0.21 -0.00    -0.021 A 
DOCKED: ATOM     23  C   UNL d   1     -13.828   3.847   4.141 -0.14 +0.01    +0.066 A 
DOCKED: ATOM     24  C   UNL d   1     -10.687   4.825   5.832 -0.44 -0.00    +0.051 C 
DOCKED: ATOM     25  N   UNL d   1     -16.461   4.574   2.851 -0.08 -0.03    -0.248 N 
DOCKED: ATOM     26  N   UNL d   1     -17.391   7.259   3.128 -0.13 -0.01    -0.248 N 
DOCKED: ATOM     27  N   UNL d   1     -15.096   7.830   4.761 -0.05 +0.01    -0.248 N 
DOCKED: ATOM     28  N   UNL d   1     -14.160   5.117   4.478 -0.03 -0.02    -0.248 N 
DOCKED: ATOM     29 FE   UNL d   1     -15.774   6.189   3.804 -0.04 +0.00    +0.000 Fe
DOCKED: ENDROOT
DOCKED: BRANCH   6  30
DOCKED: ATOM     30  C   UNL d   1     -16.561   0.978   2.079 -0.12 +0.02    +0.052 C 
DOCKED: BRANCH  30  31
DOCKED: ATOM     31  C   UNL d   1     -16.593   0.274   3.431 -0.07 +0.05    +0.115 C 
DOCKED: BRANCH  31  32
DOCKED: ATOM     32  C   UNL d   1     -15.386  -0.608   3.593 -0.08 +0.14    +0.139 C 
DOCKED: ATOM     33  O   UNL d   1     -15.319  -1.685   3.016 -0.16 -0.98    -0.650 OA
DOCKED: BRANCH  32  34
DOCKED: ATOM     34  O   UNL d   1     -14.366  -0.219   4.377 -0.04 -0.98    -0.776 OA
DOCKED: ATOM     35  H   UNL d   1     -13.620   0.249   3.978 +0.03 +0.21    +0.167 HD
DOCKED: ENDBRANCH  32  34
DOCKED: ENDBRANCH  31  32
DOCKED: ENDBRANCH  30  31
DOCKED: ENDBRANCH   6  30
DOCKED: BRANCH  22  36
DOCKED: ATOM     36  C   UNL d   1     -11.743   2.292   4.312 +0.05 +0.02    +0.052 C 
DOCKED: BRANCH  36  37
DOCKED: ATOM     37  C   UNL d   1     -11.939   1.842   2.871 -0.26 +0.05    +0.115 C 
DOCKED: BRANCH  37  38
DOCKED: ATOM     38  C   UNL d   1     -11.456   0.432   2.677 -0.22 +0.11    +0.139 C 
DOCKED: ATOM     39  O   UNL d   1     -10.817   0.122   1.683 -0.04 -0.37    -0.650 OA
DOCKED: BRANCH  38  40
DOCKED: ATOM     40  O   UNL d   1     -11.731  -0.505   3.602 -0.10 -1.56    -0.776 OA
DOCKED: ATOM     41  H   UNL d   1     -12.232  -0.254   4.390 +0.04 +0.32    +0.167 HD
DOCKED: ENDBRANCH  38  40
DOCKED: ENDBRANCH  37  38
DOCKED: ENDBRANCH  36  37
DOCKED: ENDBRANCH  22  36
DOCKED: BRANCH  12  42
DOCKED: ATOM     42  C   UNL d   1     -19.286  10.391   2.374 -0.12 -0.00    +0.004 C 
DOCKED: ATOM     43  C   UNL d   1     -18.875  11.206   1.394 -0.18 -0.00    +0.012 C 
DOCKED: ENDBRANCH  12  42
DOCKED: BRANCH  17  44
DOCKED: ATOM     44  C   UNL d   1     -12.988   9.611   7.214 -0.45 -0.00    +0.004 C 
DOCKED: ATOM     45  C   UNL d   1     -13.102   9.255   8.498 -0.50 -0.00    +0.012 C 
DOCKED: ENDBRANCH  17  44
DOCKED: TORSDOF 10
DOCKED: TER
DOCKED: ENDMDL
________________________________________________________________________________


	BEGINNING GENETIC ALGORITHM DOCKING 4 of 100
Run: 4 Seed: 896261261 174338218 [ Run 4 of 100 GA/GALS ]
Beginning LAMARCKIAN GENETIC ALGORITHM (LGA), with a maximum of 25000000 energy evaluations.

Final-Value: -17.611


	FINAL GENETIC ALGORITHM DOCKED STATE
	_______________________________________________


Detailed state:  trans -9.020 1.216 1.504 quatxyzw -0.933788 -0.162961 0.251604 -0.195396 center -0.174 -0.001 -0.047 ntor 10 -115.2141 -103.0106 47.2765 -139.9120 136.2939 -123.9979 74.6346 21.6069 -5.9347 146.1696
State:	 -9.020   1.216   1.504  -0.952 -0.166  0.257 -157.464   -115.21 -103.01   47.28 -139.91  136.29 -124.00   74.63   21.61   -5.93  146.17

DOCKED: MODEL        4
DOCKED: USER    Run = 4
DOCKED: USER    DPF = D:/Protein_go_brrr/autodock/final/mut_D99N/heme_Fe/dock.dpf
DOCKED: USER  
DOCKED: USER    Estimated Free Energy of Binding    =  -13.08 kcal/mol  [=(1)+(2)+(3)-(4)]
DOCKED: USER    Estimated Inhibition Constant, Ki   =  259.54 pM (picomolar)  [Temperature = 298.15 K]
DOCKED: USER    
DOCKED: USER    (1) Final Intermolecular Energy     =  -16.06 kcal/mol
DOCKED: USER        vdW + Hbond + desolv Energy     =  -13.22 kcal/mol
DOCKED: USER        Electrostatic Energy            =   -2.84 kcal/mol
DOCKED: USER    (2) Final Total Internal Energy     =   -1.55 kcal/mol
DOCKED: USER    (3) Torsional Free Energy           =   +2.98 kcal/mol
DOCKED: USER    (4) Unbound System's Energy  [=(2)] =   -1.55 kcal/mol
DOCKED: USER    
DOCKED: USER    
DOCKED: USER    NEWDPF move heme_Fe_opt.pdbqt
DOCKED: USER    NEWDPF about -0.174000 -0.001000 -0.047000
DOCKED: USER    NEWDPF tran0 -9.020386 1.215853 1.503559
DOCKED: USER    NEWDPF quaternion0 -0.933788 -0.162961 0.251604 -0.195396
DOCKED: USER    NEWDPF axisangle0 -0.952141 -0.166163 0.256549 -157.464333
DOCKED: USER    NEWDPF quat0 -0.952141 -0.166163 0.256549 -157.464333
DOCKED: USER    NEWDPF dihe0 -115.21 -103.01 47.28 -139.91 136.29 -124.00 74.63 21.61 -5.93 146.17 
DOCKED: USER  keepresnum = 1 
DOCKED: USER  
DOCKED: REMARK  10 active torsions:
DOCKED: REMARK  status: ('A' for Active; 'I' for Inactive)
DOCKED: REMARK    1  A    between atoms: C_6  and  C_10 
DOCKED: REMARK    2  A    between atoms: C_10  and  C_11 
DOCKED: REMARK    3  A    between atoms: C_11  and  C_12 
DOCKED: REMARK    4  A    between atoms: C_12  and  O_14 
DOCKED: REMARK    5  A    between atoms: C_17  and  C_20 
DOCKED: REMARK    6  A    between atoms: C_24  and  C_27 
DOCKED: REMARK    7  A    between atoms: C_31  and  C_34 
DOCKED: REMARK    8  A    between atoms: C_34  and  C_35 
DOCKED: REMARK    9  A    between atoms: C_35  and  C_36 
DOCKED: REMARK   10  A    between atoms: C_36  and  O_38 
DOCKED: USER                              x       y       z     vdW  Elec       q    Type
DOCKED: USER                           _______ _______ _______ _____ _____    ______ ____
DOCKED: ROOT
DOCKED: ATOM      1  C   UNL d   1     -10.941   0.620   1.911 -0.37 +0.03    +0.064 C 
DOCKED: ATOM      2  C   UNL d   1      -8.527   4.930   2.068 -0.42 +0.01    +0.064 A 
DOCKED: ATOM      3  C   UNL d   1      -5.003   2.973  -0.543 -0.41 +0.01    +0.064 C 
DOCKED: ATOM      4  C   UNL d   1      -7.273  -1.238  -0.618 -0.42 +0.01    +0.064 C 
DOCKED: ATOM      5  C   UNL d   1     -10.550   1.991   2.268 -0.16 +0.02    +0.066 A 
DOCKED: ATOM      6  C   UNL d   1     -11.270   2.826   3.106 -0.24 -0.01    -0.021 A 
DOCKED: ATOM      7  C   UNL d   1     -10.601   4.024   3.147 -0.35 -0.00    -0.025 A 
DOCKED: ATOM      8  C   UNL d   1      -9.496   3.873   2.330 -0.36 +0.01    +0.066 A 
DOCKED: ATOM      9  C   UNL d   1     -10.997   5.230   3.941 -0.41 +0.00    +0.051 C 
DOCKED: ATOM     10  C   UNL d   1      -7.423   4.794   1.331 -0.39 +0.01    +0.066 A 
DOCKED: ATOM     11  C   UNL d   1      -6.575   5.855   1.004 -0.47 -0.00    -0.021 A 
DOCKED: ATOM     12  C   UNL d   1      -5.559   5.319   0.237 -0.48 +0.00    +0.000 A 
DOCKED: ATOM     13  C   UNL d   1      -5.848   3.948   0.128 -0.38 +0.01    +0.070 A 
DOCKED: ATOM     14  C   UNL d   1      -6.759   7.319   1.347 -0.52 +0.01    +0.052 C 
DOCKED: ATOM     15  C   UNL d   1      -5.303   1.661  -0.695 -0.39 +0.01    +0.066 A 
DOCKED: ATOM     16  C   UNL d   1      -4.424   0.742  -1.255 -0.37 -0.00    -0.021 A 
DOCKED: ATOM     17  C   UNL d   1      -5.078  -0.472  -1.281 -0.42 +0.00    +0.000 A 
DOCKED: ATOM     18  C   UNL d   1      -6.345  -0.264  -0.739 -0.41 +0.01    +0.070 A 
DOCKED: ATOM     19  C   UNL d   1      -3.033   0.998  -1.769 -0.34 +0.00    +0.052 C 
DOCKED: ATOM     20  C   UNL d   1      -8.593  -1.070   0.002 -0.34 +0.01    +0.066 A 
DOCKED: ATOM     21  C   UNL d   1      -9.635  -2.007  -0.045 -0.09 -0.01    -0.025 A 
DOCKED: ATOM     22  C   UNL d   1     -10.666  -1.463   0.693 -0.16 -0.01    -0.021 A 
DOCKED: ATOM     23  C   UNL d   1     -10.217  -0.219   1.153 -0.35 +0.03    +0.066 A 
DOCKED: ATOM     24  C   UNL d   1      -9.670  -3.345  -0.747 -0.14 +0.01    +0.051 C 
DOCKED: ATOM     25  N   UNL d   1      -9.463   2.632   1.805 -0.17 -0.09    -0.248 N 
DOCKED: ATOM     26  N   UNL d   1      -6.989   3.629   0.787 -0.15 -0.07    -0.248 N 
DOCKED: ATOM     27  N   UNL d   1      -6.468   1.037  -0.339 -0.27 -0.03    -0.248 N 
DOCKED: ATOM     28  N   UNL d   1      -8.969   0.035   0.691 -0.26 -0.07    -0.248 N 
DOCKED: ATOM     29 FE   UNL d   1      -7.978   1.830   0.738 -0.09 +0.00    +0.000 Fe
DOCKED: ENDROOT
DOCKED: BRANCH   6  30
DOCKED: ATOM     30  C   UNL d   1     -12.519   2.497   3.850 -0.23 +0.02    +0.052 C 
DOCKED: BRANCH  30  31
DOCKED: ATOM     31  C   UNL d   1     -12.197   1.783   5.158 -0.11 +0.05    +0.115 C 
DOCKED: BRANCH  31  32
DOCKED: ATOM     32  C   UNL d   1     -12.515   0.317   5.049 -0.13 +0.15    +0.139 C 
DOCKED: ATOM     33  O   UNL d   1     -11.739  -0.523   5.483 -0.52 -0.87    -0.650 OA
DOCKED: BRANCH  32  34
DOCKED: ATOM     34  O   UNL d   1     -13.659  -0.084   4.470 -0.26 -1.13    -0.776 OA
DOCKED: ATOM     35  H   UNL d   1     -13.797   0.094   3.529 +0.03 +0.22    +0.167 HD
DOCKED: ENDBRANCH  32  34
DOCKED: ENDBRANCH  31  32
DOCKED: ENDBRANCH  30  31
DOCKED: ENDBRANCH   6  30
DOCKED: BRANCH  22  36
DOCKED: ATOM     36  C   UNL d   1     -12.022  -2.084   0.901 +0.23 +0.06    +0.052 C 
DOCKED: BRANCH  36  37
DOCKED: ATOM     37  C   UNL d   1     -13.093  -1.196   0.285 -0.06 +0.08    +0.115 C 
DOCKED: BRANCH  37  38
DOCKED: ATOM     38  C   UNL d   1     -14.441  -1.486   0.881 -0.13 +0.12    +0.139 C 
DOCKED: ATOM     39  O   UNL d   1     -15.386  -1.794   0.170 -0.01 -0.31    -0.650 OA
DOCKED: BRANCH  38  40
DOCKED: ATOM     40  O   UNL d   1     -14.619  -1.403   2.212 -0.13 -1.32    -0.776 OA
DOCKED: ATOM     41  H   UNL d   1     -14.699  -0.531   2.623 +0.02 +0.20    +0.167 HD
DOCKED: ENDBRANCH  38  40
DOCKED: ENDBRANCH  37  38
DOCKED: ENDBRANCH  36  37
DOCKED: ENDBRANCH  22  36
DOCKED: BRANCH  12  42
DOCKED: ATOM     42  C   UNL d   1      -4.424   6.100  -0.346 -0.64 +0.00    +0.004 C 
DOCKED: ATOM     43  C   UNL d   1      -3.248   6.185   0.289 -0.59 +0.00    +0.012 C 
DOCKED: ENDBRANCH  12  42
DOCKED: BRANCH  17  44
DOCKED: ATOM     44  C   UNL d   1      -4.520  -1.752  -1.772 -0.65 -0.00    +0.004 C 
DOCKED: ATOM     45  C   UNL d   1      -4.587  -2.076  -3.068 -0.72 -0.00    +0.012 C 
DOCKED: ENDBRANCH  17  44
DOCKED: TORSDOF 10
DOCKED: TER
DOCKED: ENDMDL
________________________________________________________________________________


	BEGINNING GENETIC ALGORITHM DOCKING 5 of 100
Run: 5 Seed: 773489148 881347225 [ Run 5 of 100 GA/GALS ]
Beginning LAMARCKIAN GENETIC ALGORITHM (LGA), with a maximum of 25000000 energy evaluations.

Final-Value: -16.369


	FINAL GENETIC ALGORITHM DOCKED STATE
	_______________________________________________


Detailed state:  trans -9.234 2.436 1.181 quatxyzw 0.170079 0.185162 -0.001450 -0.967877 center -0.174 -0.001 -0.047 ntor 10 -67.1419 -69.3438 71.0390 -150.6213 -109.9966 92.7571 -49.4253 -62.5704 39.7650 175.4744
State:	 -9.234   2.436   1.181   0.676  0.736 -0.006 -29.124    -67.14  -69.34   71.04 -150.62 -110.00   92.76  -49.43  -62.57   39.76  175.47

DOCKED: MODEL        5
DOCKED: USER    Run = 5
DOCKED: USER    DPF = D:/Protein_go_brrr/autodock/final/mut_D99N/heme_Fe/dock.dpf
DOCKED: USER  
DOCKED: USER    Estimated Free Energy of Binding    =  -12.78 kcal/mol  [=(1)+(2)+(3)-(4)]
DOCKED: USER    Estimated Inhibition Constant, Ki   =  425.24 pM (picomolar)  [Temperature = 298.15 K]
DOCKED: USER    
DOCKED: USER    (1) Final Intermolecular Energy     =  -15.77 kcal/mol
DOCKED: USER        vdW + Hbond + desolv Energy     =  -14.31 kcal/mol
DOCKED: USER        Electrostatic Energy            =   -1.46 kcal/mol
DOCKED: USER    (2) Final Total Internal Energy     =   -0.60 kcal/mol
DOCKED: USER    (3) Torsional Free Energy           =   +2.98 kcal/mol
DOCKED: USER    (4) Unbound System's Energy  [=(2)] =   -0.60 kcal/mol
DOCKED: USER    
DOCKED: USER    
DOCKED: USER    NEWDPF move heme_Fe_opt.pdbqt
DOCKED: USER    NEWDPF about -0.174000 -0.001000 -0.047000
DOCKED: USER    NEWDPF tran0 -9.233664 2.436000 1.181270
DOCKED: USER    NEWDPF quaternion0 0.170079 0.185162 -0.001450 -0.967877
DOCKED: USER    NEWDPF axisangle0 0.676465 0.736452 -0.005765 -29.123549
DOCKED: USER    NEWDPF quat0 0.676465 0.736452 -0.005765 -29.123549
DOCKED: USER    NEWDPF dihe0 -67.14 -69.34 71.04 -150.62 -110.00 92.76 -49.43 -62.57 39.76 175.47 
DOCKED: USER  keepresnum = 1 
DOCKED: USER  
DOCKED: REMARK  10 active torsions:
DOCKED: REMARK  status: ('A' for Active; 'I' for Inactive)
DOCKED: REMARK    1  A    between atoms: C_6  and  C_10 
DOCKED: REMARK    2  A    between atoms: C_10  and  C_11 
DOCKED: REMARK    3  A    between atoms: C_11  and  C_12 
DOCKED: REMARK    4  A    between atoms: C_12  and  O_14 
DOCKED: REMARK    5  A    between atoms: C_17  and  C_20 
DOCKED: REMARK    6  A    between atoms: C_24  and  C_27 
DOCKED: REMARK    7  A    between atoms: C_31  and  C_34 
DOCKED: REMARK    8  A    between atoms: C_34  and  C_35 
DOCKED: REMARK    9  A    between atoms: C_35  and  C_36 
DOCKED: REMARK   10  A    between atoms: C_36  and  O_38 
DOCKED: USER                              x       y       z     vdW  Elec       q    Type
DOCKED: USER                           _______ _______ _______ _____ _____    ______ ____
DOCKED: ROOT
DOCKED: ATOM      1  C   UNL d   1     -10.892   2.086   2.338 -0.28 +0.02    +0.064 C 
DOCKED: ATOM      2  C   UNL d   1      -7.779  -0.763  -0.236 -0.37 +0.01    +0.064 A 
DOCKED: ATOM      3  C   UNL d   1      -4.723   2.933  -0.497 -0.35 +0.01    +0.064 C 
DOCKED: ATOM      4  C   UNL d   1      -7.766   5.738   1.901 -0.50 +0.01    +0.064 C 
DOCKED: ATOM      5  C   UNL d   1     -10.336   0.966   1.566 -0.32 +0.02    +0.066 A 
DOCKED: ATOM      6  C   UNL d   1     -10.989  -0.232   1.326 -0.35 -0.01    -0.021 A 
DOCKED: ATOM      7  C   UNL d   1     -10.123  -1.024   0.615 -0.21 -0.01    -0.025 A 
DOCKED: ATOM      8  C   UNL d   1      -8.972  -0.278   0.447 -0.36 +0.02    +0.066 A 
DOCKED: ATOM      9  C   UNL d   1     -10.400  -2.408   0.114 -0.17 +0.02    +0.051 C 
DOCKED: ATOM     10  C   UNL d   1      -6.678  -0.045  -0.461 -0.40 +0.01    +0.066 A 
DOCKED: ATOM     11  C   UNL d   1      -5.509  -0.572  -1.016 -0.41 -0.00    -0.021 A 
DOCKED: ATOM     12  C   UNL d   1      -4.606   0.470  -1.086 -0.32 +0.00    +0.000 A 
DOCKED: ATOM     13  C   UNL d   1      -5.275   1.588  -0.558 -0.38 +0.01    +0.070 A 
DOCKED: ATOM     14  C   UNL d   1      -5.241  -2.014  -1.396 -0.46 -0.00    +0.052 C 
DOCKED: ATOM     15  C   UNL d   1      -5.342   4.001   0.057 -0.39 +0.01    +0.066 A 
DOCKED: ATOM     16  C   UNL d   1      -4.824   5.289   0.007 -0.50 -0.00    -0.021 A 
DOCKED: ATOM     17  C   UNL d   1      -5.699   6.099   0.701 -0.50 +0.00    +0.000 A 
DOCKED: ATOM     18  C   UNL d   1      -6.730   5.284   1.163 -0.41 +0.01    +0.070 A 
DOCKED: ATOM     19  C   UNL d   1      -3.545   5.739  -0.645 -0.30 +0.00    +0.052 C 
DOCKED: ATOM     20  C   UNL d   1      -8.900   4.922   2.352 -0.43 +0.01    +0.066 A 
DOCKED: ATOM     21  C   UNL d   1      -9.872   5.327   3.278 -0.47 -0.00    -0.025 A 
DOCKED: ATOM     22  C   UNL d   1     -10.760   4.276   3.378 -0.34 -0.00    -0.021 A 
DOCKED: ATOM     23  C   UNL d   1     -10.294   3.274   2.518 -0.29 +0.01    +0.066 A 
DOCKED: ATOM     24  C   UNL d   1      -9.966   6.630   4.038 -0.36 -0.00    +0.051 C 
DOCKED: ATOM     25  N   UNL d   1      -9.108   0.936   1.018 -0.22 -0.07    -0.248 N 
DOCKED: ATOM     26  N   UNL d   1      -6.534   1.273  -0.169 -0.26 -0.03    -0.248 N 
DOCKED: ATOM     27  N   UNL d   1      -6.535   4.002   0.731 -0.25 -0.05    -0.248 N 
DOCKED: ATOM     28  N   UNL d   1      -9.135   3.656   1.929 -0.15 -0.08    -0.248 N 
DOCKED: ATOM     29 FE   UNL d   1      -7.835   2.467   0.881 -0.09 +0.00    +0.000 Fe
DOCKED: ENDROOT
DOCKED: BRANCH   6  30
DOCKED: ATOM     30  C   UNL d   1     -12.375  -0.599   1.734 -0.13 +0.06    +0.052 C 
DOCKED: BRANCH  30  31
DOCKED: ATOM     31  C   UNL d   1     -13.164  -1.135   0.544 -0.12 +0.09    +0.115 C 
DOCKED: BRANCH  31  32
DOCKED: ATOM     32  C   UNL d   1     -13.838  -2.431   0.900 +0.02 +0.17    +0.139 C 
DOCKED: ATOM     33  O   UNL d   1     -13.459  -3.486   0.410 -0.08 -0.54    -0.650 OA
DOCKED: BRANCH  32  34
DOCKED: ATOM     34  O   UNL d   1     -14.867  -2.441   1.763 -0.53 -1.24    -0.776 OA
DOCKED: ATOM     35  H   UNL d   1     -15.749  -2.675   1.439 +0.02 +0.13    +0.167 HD
DOCKED: ENDBRANCH  32  34
DOCKED: ENDBRANCH  31  32
DOCKED: ENDBRANCH  30  31
DOCKED: ENDBRANCH   6  30
DOCKED: BRANCH  22  36
DOCKED: ATOM     36  C   UNL d   1     -11.960   4.221   4.286 -0.29 +0.01    +0.052 C 
DOCKED: BRANCH  36  37
DOCKED: ATOM     37  C   UNL d   1     -11.549   3.680   5.648 -0.29 +0.01    +0.115 C 
DOCKED: BRANCH  37  38
DOCKED: ATOM     38  C   UNL d   1     -11.753   4.712   6.721 -0.33 +0.01    +0.139 C 
DOCKED: ATOM     39  O   UNL d   1     -12.797   4.755   7.355 +0.02 -0.07    -0.650 OA
DOCKED: BRANCH  38  40
DOCKED: ATOM     40  O   UNL d   1     -10.782   5.603   6.990 +0.01 +0.09    -0.776 OA
DOCKED: ATOM     41  H   UNL d   1     -10.919   6.532   6.757 -0.49 -0.09    +0.167 HD
DOCKED: ENDBRANCH  38  40
DOCKED: ENDBRANCH  37  38
DOCKED: ENDBRANCH  36  37
DOCKED: ENDBRANCH  22  36
DOCKED: BRANCH  12  42
DOCKED: ATOM     42  C   UNL d   1      -3.209   0.359  -1.609 -0.43 +0.00    +0.004 C 
DOCKED: ATOM     43  C   UNL d   1      -2.813   1.069  -2.673 -0.57 +0.00    +0.012 C 
DOCKED: ENDBRANCH  12  42
DOCKED: BRANCH  17  44
DOCKED: ATOM     44  C   UNL d   1      -5.567   7.561   0.893 -0.56 +0.00    +0.004 C 
DOCKED: ATOM     45  C   UNL d   1      -5.029   8.060   2.010 -0.71 +0.00    +0.012 C 
DOCKED: ENDBRANCH  17  44
DOCKED: TORSDOF 10
DOCKED: TER
DOCKED: ENDMDL
________________________________________________________________________________


	BEGINNING GENETIC ALGORITHM DOCKING 6 of 100
Run: 6 Seed: 1292896459 536466250 [ Run 6 of 100 GA/GALS ]
Beginning LAMARCKIAN GENETIC ALGORITHM (LGA), with a maximum of 25000000 energy evaluations.

Final-Value: -11.578


	FINAL GENETIC ALGORITHM DOCKED STATE
	_______________________________________________


Detailed state:  trans -12.692 -0.304 1.142 quatxyzw -0.134862 -0.115754 0.355247 0.917722 center -0.174 -0.001 -0.047 ntor 10 96.0354 76.0065 -133.9013 24.2184 -88.4845 168.6335 -153.2481 120.9943 170.5784 -150.3183
State:	-12.692  -0.304   1.142  -0.340 -0.291  0.894 46.810     96.04   76.01 -133.90   24.22  -88.48  168.63 -153.25  120.99  170.58 -150.32

DOCKED: MODEL        6
DOCKED: USER    Run = 6
DOCKED: USER    DPF = D:/Protein_go_brrr/autodock/final/mut_D99N/heme_Fe/dock.dpf
DOCKED: USER  
DOCKED: USER    Estimated Free Energy of Binding    =   -7.10 kcal/mol  [=(1)+(2)+(3)-(4)]
DOCKED: USER    Estimated Inhibition Constant, Ki   =    6.28 uM (micromolar)  [Temperature = 298.15 K]
DOCKED: USER    
DOCKED: USER    (1) Final Intermolecular Energy     =  -10.08 kcal/mol
DOCKED: USER        vdW + Hbond + desolv Energy     =   -8.28 kcal/mol
DOCKED: USER        Electrostatic Energy            =   -1.80 kcal/mol
DOCKED: USER    (2) Final Total Internal Energy     =   -1.50 kcal/mol
DOCKED: USER    (3) Torsional Free Energy           =   +2.98 kcal/mol
DOCKED: USER    (4) Unbound System's Energy  [=(2)] =   -1.50 kcal/mol
DOCKED: USER    
DOCKED: USER    
DOCKED: USER    NEWDPF move heme_Fe_opt.pdbqt
DOCKED: USER    NEWDPF about -0.174000 -0.001000 -0.047000
DOCKED: USER    NEWDPF tran0 -12.691631 -0.304238 1.142474
DOCKED: USER    NEWDPF quaternion0 -0.134862 -0.115754 0.355247 0.917722
DOCKED: USER    NEWDPF axisangle0 -0.339512 -0.291407 0.894323 46.809547
DOCKED: USER    NEWDPF quat0 -0.339512 -0.291407 0.894323 46.809547
DOCKED: USER    NEWDPF dihe0 96.04 76.01 -133.90 24.22 -88.48 168.63 -153.25 120.99 170.58 -150.32 
DOCKED: USER  keepresnum = 1 
DOCKED: USER  
DOCKED: REMARK  10 active torsions:
DOCKED: REMARK  status: ('A' for Active; 'I' for Inactive)
DOCKED: REMARK    1  A    between atoms: C_6  and  C_10 
DOCKED: REMARK    2  A    between atoms: C_10  and  C_11 
DOCKED: REMARK    3  A    between atoms: C_11  and  C_12 
DOCKED: REMARK    4  A    between atoms: C_12  and  O_14 
DOCKED: REMARK    5  A    between atoms: C_17  and  C_20 
DOCKED: REMARK    6  A    between atoms: C_24  and  C_27 
DOCKED: REMARK    7  A    between atoms: C_31  and  C_34 
DOCKED: REMARK    8  A    between atoms: C_34  and  C_35 
DOCKED: REMARK    9  A    between atoms: C_35  and  C_36 
DOCKED: REMARK   10  A    between atoms: C_36  and  O_38 
DOCKED: USER                              x       y       z     vdW  Elec       q    Type
DOCKED: USER                           _______ _______ _______ _____ _____    ______ ____
DOCKED: ROOT
DOCKED: ATOM      1  C   UNL d   1     -14.098   0.708   2.242 -0.13 +0.04    +0.064 C 
DOCKED: ATOM      2  C   UNL d   1     -13.760  -3.860   0.385 -0.12 +0.05    +0.064 A 
DOCKED: ATOM      3  C   UNL d   1      -9.063  -3.149  -0.327 -0.17 +0.01    +0.064 C 
DOCKED: ATOM      4  C   UNL d   1      -9.389   1.312   1.370 -0.31 +0.02    +0.064 C 
DOCKED: ATOM      5  C   UNL d   1     -14.455  -0.613   1.708 -0.05 +0.06    +0.066 A 
DOCKED: ATOM      6  C   UNL d   1     -15.743  -1.117   1.640 -0.13 -0.01    -0.021 A 
DOCKED: ATOM      7  C   UNL d   1     -15.648  -2.387   1.127 -0.12 -0.02    -0.025 A 
DOCKED: ATOM      8  C   UNL d   1     -14.303  -2.610   0.902 -0.06 +0.07    +0.066 A 
DOCKED: ATOM      9  C   UNL d   1     -16.790  -3.318   0.856 -0.05 +0.02    +0.051 C 
DOCKED: ATOM     10  C   UNL d   1     -12.474  -4.081   0.104 -0.13 +0.04    +0.066 A 
DOCKED: ATOM     11  C   UNL d   1     -11.968  -5.324  -0.281 -0.14 -0.01    -0.021 A 
DOCKED: ATOM     12  C   UNL d   1     -10.612  -5.150  -0.476 -0.25 +0.00    +0.000 A 
DOCKED: ATOM     13  C   UNL d   1     -10.358  -3.797  -0.189 -0.28 +0.02    +0.070 A 
DOCKED: ATOM     14  C   UNL d   1     -12.726  -6.631  -0.392 -0.07 +0.00    +0.052 C 
DOCKED: ATOM     15  C   UNL d   1      -8.803  -1.861  -0.002 -0.34 +0.01    +0.066 A 
DOCKED: ATOM     16  C   UNL d   1      -7.578  -1.251  -0.241 -0.43 -0.00    -0.021 A 
DOCKED: ATOM     17  C   UNL d   1      -7.669   0.035   0.250 -0.44 +0.00    +0.000 A 
DOCKED: ATOM     18  C   UNL d   1      -8.947   0.178   0.783 -0.36 +0.02    +0.070 A 
DOCKED: ATOM     19  C   UNL d   1      -6.360  -1.858  -0.884 -0.47 +0.00    +0.052 C 
DOCKED: ATOM     20  C   UNL d   1     -10.747   1.520   1.886 -0.30 +0.02    +0.066 A 
DOCKED: ATOM     21  C   UNL d   1     -11.158   2.607   2.670 -0.28 -0.01    -0.025 A 
DOCKED: ATOM     22  C   UNL d   1     -12.506   2.421   2.896 -0.25 -0.01    -0.021 A 
DOCKED: ATOM     23  C   UNL d   1     -12.861   1.231   2.251 -0.24 +0.04    +0.066 A 
DOCKED: ATOM     24  C   UNL d   1     -10.333   3.762   3.188 -0.37 +0.01    +0.051 C 
DOCKED: ATOM     25  N   UNL d   1     -13.581  -1.526   1.247 -0.01 -0.34    -0.248 N 
DOCKED: ATOM     26  N   UNL d   1     -11.491  -3.147   0.174 -0.13 -0.15    -0.248 N 
DOCKED: ATOM     27  N   UNL d   1      -9.660  -0.972   0.590 -0.23 -0.09    -0.248 N 
DOCKED: ATOM     28  N   UNL d   1     -11.775   0.663   1.674 -0.22 -0.14    -0.248 N 
DOCKED: ATOM     29 FE   UNL d   1     -11.632  -1.241   0.924 -0.07 +0.00    +0.000 Fe
DOCKED: ENDROOT
DOCKED: BRANCH   6  30
DOCKED: ATOM     30  C   UNL d   1     -17.005  -0.421   2.021 -0.10 +0.02    +0.052 C 
DOCKED: BRANCH  30  31
DOCKED: ATOM     31  C   UNL d   1     -17.471  -0.868   3.403 -0.03 +0.04    +0.115 C 
DOCKED: BRANCH  31  32
DOCKED: ATOM     32  C   UNL d   1     -16.302  -1.321   4.232 -0.05 +0.10    +0.139 C 
DOCKED: ATOM     33  O   UNL d   1     -15.926  -2.485   4.197 -0.02 -0.73    -0.650 OA
DOCKED: BRANCH  32  34
DOCKED: ATOM     34  O   UNL d   1     -15.656  -0.448   5.023 +0.02 -0.55    -0.776 OA
DOCKED: ATOM     35  H   UNL d   1     -14.964   0.110   4.640 +0.02 +0.13    +0.167 HD
DOCKED: ENDBRANCH  32  34
DOCKED: ENDBRANCH  31  32
DOCKED: ENDBRANCH  30  31
DOCKED: ENDBRANCH   6  30
DOCKED: BRANCH  22  36
DOCKED: ATOM     36  C   UNL d   1     -13.390   3.313   3.728 -0.20 +0.01    +0.052 C 
DOCKED: BRANCH  36  37
DOCKED: ATOM     37  C   UNL d   1     -12.777   3.500   5.108 -0.17 +0.02    +0.115 C 
DOCKED: BRANCH  37  38
DOCKED: ATOM     38  C   UNL d   1     -12.624   2.181   5.813 -0.16 +0.05    +0.139 C 
DOCKED: ATOM     39  O   UNL d   1     -11.966   2.094   6.839 -0.01 -0.19    -0.650 OA
DOCKED: BRANCH  38  40
DOCKED: ATOM     40  O   UNL d   1     -13.211   1.080   5.311 +0.02 -0.49    -0.776 OA
DOCKED: ATOM     41  H   UNL d   1     -14.012   0.741   5.735 +0.03 +0.10    +0.167 HD
DOCKED: ENDBRANCH  38  40
DOCKED: ENDBRANCH  37  38
DOCKED: ENDBRANCH  36  37
DOCKED: ENDBRANCH  22  36
DOCKED: BRANCH  12  42
DOCKED: ATOM     42  C   UNL d   1      -9.661  -6.228  -0.889 -0.18 -0.00    +0.004 C 
DOCKED: ATOM     43  C   UNL d   1      -9.092  -7.030   0.021 -0.34 -0.00    +0.012 C 
DOCKED: ENDBRANCH  12  42
DOCKED: BRANCH  17  44
DOCKED: ATOM     44  C   UNL d   1      -6.607   1.066   0.195 -0.43 +0.00    +0.004 C 
DOCKED: ATOM     45  C   UNL d   1      -6.366   1.740  -0.934 -0.52 +0.00    +0.012 C 
DOCKED: ENDBRANCH  17  44
DOCKED: TORSDOF 10
DOCKED: TER
DOCKED: ENDMDL
________________________________________________________________________________


	BEGINNING GENETIC ALGORITHM DOCKING 7 of 100
Run: 7 Seed: 964771037 1682864221 [ Run 7 of 100 GA/GALS ]
Beginning LAMARCKIAN GENETIC ALGORITHM (LGA), with a maximum of 25000000 energy evaluations.

Final-Value: -14.925


	FINAL GENETIC ALGORITHM DOCKED STATE
	_______________________________________________


Detailed state:  trans -7.051 1.967 -0.136 quatxyzw 0.344481 0.005986 0.735169 -0.583801 center -0.174 -0.001 -0.047 ntor 10 65.9985 -165.4911 -108.8620 -151.8040 -152.5991 -67.1174 -66.9768 -45.7053 146.1071 -136.1759
State:	 -7.051   1.967  -0.136   0.424  0.007  0.905 -108.563     66.00 -165.49 -108.86 -151.80 -152.60  -67.12  -66.98  -45.71  146.11 -136.18

DOCKED: MODEL        7
DOCKED: USER    Run = 7
DOCKED: USER    DPF = D:/Protein_go_brrr/autodock/final/mut_D99N/heme_Fe/dock.dpf
DOCKED: USER  
DOCKED: USER    Estimated Free Energy of Binding    =  -11.69 kcal/mol  [=(1)+(2)+(3)-(4)]
DOCKED: USER    Estimated Inhibition Constant, Ki   =    2.68 nM (nanomolar)  [Temperature = 298.15 K]
DOCKED: USER    
DOCKED: USER    (1) Final Intermolecular Energy     =  -14.68 kcal/mol
DOCKED: USER        vdW + Hbond + desolv Energy     =  -14.39 kcal/mol
DOCKED: USER        Electrostatic Energy            =   -0.29 kcal/mol
DOCKED: USER    (2) Final Total Internal Energy     =   -0.25 kcal/mol
DOCKED: USER    (3) Torsional Free Energy           =   +2.98 kcal/mol
DOCKED: USER    (4) Unbound System's Energy  [=(2)] =   -0.25 kcal/mol
DOCKED: USER    
DOCKED: USER    
DOCKED: USER    NEWDPF move heme_Fe_opt.pdbqt
DOCKED: USER    NEWDPF about -0.174000 -0.001000 -0.047000
DOCKED: USER    NEWDPF tran0 -7.050708 1.967317 -0.136355
DOCKED: USER    NEWDPF quaternion0 0.344481 0.005986 0.735169 -0.583801
DOCKED: USER    NEWDPF axisangle0 0.424292 0.007373 0.905495 -108.563277
DOCKED: USER    NEWDPF quat0 0.424292 0.007373 0.905495 -108.563277
DOCKED: USER    NEWDPF dihe0 66.00 -165.49 -108.86 -151.80 -152.60 -67.12 -66.98 -45.71 146.11 -136.18 
DOCKED: USER  keepresnum = 1 
DOCKED: USER  
DOCKED: REMARK  10 active torsions:
DOCKED: REMARK  status: ('A' for Active; 'I' for Inactive)
DOCKED: REMARK    1  A    between atoms: C_6  and  C_10 
DOCKED: REMARK    2  A    between atoms: C_10  and  C_11 
DOCKED: REMARK    3  A    between atoms: C_11  and  C_12 
DOCKED: REMARK    4  A    between atoms: C_12  and  O_14 
DOCKED: REMARK    5  A    between atoms: C_17  and  C_20 
DOCKED: REMARK    6  A    between atoms: C_24  and  C_27 
DOCKED: REMARK    7  A    between atoms: C_31  and  C_34 
DOCKED: REMARK    8  A    between atoms: C_34  and  C_35 
DOCKED: REMARK    9  A    between atoms: C_35  and  C_36 
DOCKED: REMARK   10  A    between atoms: C_36  and  O_38 
DOCKED: USER                              x       y       z     vdW  Elec       q    Type
DOCKED: USER                           _______ _______ _______ _____ _____    ______ ____
DOCKED: ROOT
DOCKED: ATOM      1  C   UNL d   1      -6.567   0.068  -0.744 -0.48 +0.01    +0.064 C 
DOCKED: ATOM      2  C   UNL d   1      -4.122   4.353  -0.435 -0.35 +0.01    +0.064 A 
DOCKED: ATOM      3  C   UNL d   1      -7.632   6.075   2.354 -0.42 +0.01    +0.064 C 
DOCKED: ATOM      4  C   UNL d   1     -10.065   1.973   1.982 -0.21 +0.02    +0.064 C 
DOCKED: ATOM      5  C   UNL d   1      -5.593   1.143  -0.984 -0.41 +0.01    +0.066 A 
DOCKED: ATOM      6  C   UNL d   1      -4.502   1.046  -1.832 -0.40 -0.00    -0.021 A 
DOCKED: ATOM      7  C   UNL d   1      -3.821   2.235  -1.743 -0.32 -0.00    -0.025 A 
DOCKED: ATOM      8  C   UNL d   1      -4.525   3.013  -0.843 -0.24 +0.01    +0.066 A 
DOCKED: ATOM      9  C   UNL d   1      -2.580   2.600  -2.496 -0.48 +0.00    +0.051 C 
DOCKED: ATOM     10  C   UNL d   1      -4.812   5.145   0.387 -0.44 +0.01    +0.066 A 
DOCKED: ATOM     11  C   UNL d   1      -4.344   6.378   0.849 -0.54 -0.00    -0.021 A 
DOCKED: ATOM     12  C   UNL d   1      -5.331   6.887   1.669 -0.53 +0.00    +0.000 A 
DOCKED: ATOM     13  C   UNL d   1      -6.357   5.926   1.671 -0.41 +0.01    +0.070 A 
DOCKED: ATOM     14  C   UNL d   1      -2.993   7.008   0.578 -0.12 +0.01    +0.052 C 
DOCKED: ATOM     15  C   UNL d   1      -8.601   5.131   2.402 -0.44 +0.01    +0.066 A 
DOCKED: ATOM     16  C   UNL d   1      -9.845   5.349   2.981 -0.47 -0.00    -0.021 A 
DOCKED: ATOM     17  C   UNL d   1     -10.547   4.166   2.878 -0.31 +0.00    +0.000 A 
DOCKED: ATOM     18  C   UNL d   1      -9.712   3.251   2.241 -0.30 +0.02    +0.070 A 
DOCKED: ATOM     19  C   UNL d   1     -10.347   6.611   3.629 -0.51 -0.00    +0.052 C 
DOCKED: ATOM     20  C   UNL d   1      -9.237   1.000   1.259 -0.28 +0.02    +0.066 A 
DOCKED: ATOM     21  C   UNL d   1      -9.502  -0.373   1.159 -0.41 -0.01    -0.025 A 
DOCKED: ATOM     22  C   UNL d   1      -8.499  -0.894   0.367 -0.43 -0.00    -0.021 A 
DOCKED: ATOM     23  C   UNL d   1      -7.663   0.175   0.023 -0.39 +0.01    +0.066 A 
DOCKED: ATOM     24  C   UNL d   1     -10.633  -1.163   1.775 -0.10 +0.04    +0.051 C 
DOCKED: ATOM     25  N   UNL d   1      -5.607   2.349  -0.391 -0.27 -0.03    -0.248 N 
DOCKED: ATOM     26  N   UNL d   1      -6.037   4.860   0.897 -0.25 -0.04    -0.248 N 
DOCKED: ATOM     27  N   UNL d   1      -8.532   3.855   1.909 -0.20 -0.08    -0.248 N 
DOCKED: ATOM     28  N   UNL d   1      -8.093   1.320   0.607 -0.15 -0.07    -0.248 N 
DOCKED: ATOM     29 FE   UNL d   1      -7.067   3.089   0.752 -0.09 +0.00    +0.000 Fe
DOCKED: ENDROOT
DOCKED: BRANCH   6  30
DOCKED: ATOM     30  C   UNL d   1      -4.134  -0.108  -2.700 -0.27 +0.00    +0.052 C 
DOCKED: BRANCH  30  31
DOCKED: ATOM     31  C   UNL d   1      -2.712  -0.573  -2.406 -0.49 +0.00    +0.115 C 
DOCKED: BRANCH  31  32
DOCKED: ATOM     32  C   UNL d   1      -2.724  -1.946  -1.793 -0.51 -0.00    +0.139 C 
DOCKED: ATOM     33  O   UNL d   1      -1.821  -2.304  -1.048 -0.08 -0.00    -0.650 OA
DOCKED: BRANCH  32  34
DOCKED: ATOM     34  O   UNL d   1      -3.730  -2.795  -2.058 +0.06 +0.09    -0.776 OA
DOCKED: ATOM     35  H   UNL d   1      -4.327  -3.054  -1.342 -0.44 -0.06    +0.167 HD
DOCKED: ENDBRANCH  32  34
DOCKED: ENDBRANCH  31  32
DOCKED: ENDBRANCH  30  31
DOCKED: ENDBRANCH   6  30
DOCKED: BRANCH  22  36
DOCKED: ATOM     36  C   UNL d   1      -8.329  -2.346   0.005 -0.45 +0.01    +0.052 C 
DOCKED: BRANCH  36  37
DOCKED: ATOM     37  C   UNL d   1      -8.664  -3.217   1.206 -0.14 +0.03    +0.115 C 
DOCKED: BRANCH  37  38
DOCKED: ATOM     38  C   UNL d   1      -9.563  -4.355   0.812 -0.23 +0.04    +0.139 C 
DOCKED: ATOM     39  O   UNL d   1     -10.710  -4.147   0.446 -0.02 -0.31    -0.650 OA
DOCKED: BRANCH  38  40
DOCKED: ATOM     40  O   UNL d   1      -9.108  -5.620   0.865 -0.02 -0.00    -0.776 OA
DOCKED: ATOM     41  H   UNL d   1      -8.290  -5.805   1.346 -0.45 -0.05    +0.167 HD
DOCKED: ENDBRANCH  38  40
DOCKED: ENDBRANCH  37  38
DOCKED: ENDBRANCH  36  37
DOCKED: ENDBRANCH  22  36
DOCKED: BRANCH  12  42
DOCKED: ATOM     42  C   UNL d   1      -5.252   8.193   2.394 -0.65 +0.00    +0.004 C 
DOCKED: ATOM     43  C   UNL d   1      -4.294   8.420   3.302 -0.38 +0.00    +0.012 C 
DOCKED: ENDBRANCH  12  42
DOCKED: BRANCH  17  44
DOCKED: ATOM     44  C   UNL d   1     -11.934   3.933   3.340 -0.11 +0.00    +0.004 C 
DOCKED: ATOM     45  C   UNL d   1     -12.174   3.351   4.519 -0.27 +0.00    +0.012 C 
DOCKED: ENDBRANCH  17  44
DOCKED: TORSDOF 10
DOCKED: TER
DOCKED: ENDMDL
________________________________________________________________________________


	BEGINNING GENETIC ALGORITHM DOCKING 8 of 100
Run: 8 Seed: 22075732 877065468 [ Run 8 of 100 GA/GALS ]
Beginning LAMARCKIAN GENETIC ALGORITHM (LGA), with a maximum of 25000000 energy evaluations.

Final-Value: -17.525


	FINAL GENETIC ALGORITHM DOCKED STATE
	_______________________________________________


Detailed state:  trans -8.996 1.244 1.505 quatxyzw 0.936932 0.151004 -0.246932 0.195910 center -0.174 -0.001 -0.047 ntor 10 72.9772 -103.8598 28.9459 -137.5974 171.0056 -141.7207 82.5897 22.1541 -12.0805 158.8365
State:	 -8.996   1.244   1.505   0.955  0.154 -0.252 157.404     72.98 -103.86   28.95 -137.60  171.01 -141.72   82.59   22.15  -12.08  158.84

DOCKED: MODEL        8
DOCKED: USER    Run = 8
DOCKED: USER    DPF = D:/Protein_go_brrr/autodock/final/mut_D99N/heme_Fe/dock.dpf
DOCKED: USER  
DOCKED: USER    Estimated Free Energy of Binding    =  -13.01 kcal/mol  [=(1)+(2)+(3)-(4)]
DOCKED: USER    Estimated Inhibition Constant, Ki   =  290.06 pM (picomolar)  [Temperature = 298.15 K]
DOCKED: USER    
DOCKED: USER    (1) Final Intermolecular Energy     =  -15.99 kcal/mol
DOCKED: USER        vdW + Hbond + desolv Energy     =  -13.27 kcal/mol
DOCKED: USER        Electrostatic Energy            =   -2.72 kcal/mol
DOCKED: USER    (2) Final Total Internal Energy     =   -1.53 kcal/mol
DOCKED: USER    (3) Torsional Free Energy           =   +2.98 kcal/mol
DOCKED: USER    (4) Unbound System's Energy  [=(2)] =   -1.53 kcal/mol
DOCKED: USER    
DOCKED: USER    
DOCKED: USER    NEWDPF move heme_Fe_opt.pdbqt
DOCKED: USER    NEWDPF about -0.174000 -0.001000 -0.047000
DOCKED: USER    NEWDPF tran0 -8.995580 1.243790 1.505199
DOCKED: USER    NEWDPF quaternion0 0.936932 0.151004 -0.246932 0.195910
DOCKED: USER    NEWDPF axisangle0 0.955447 0.153988 -0.251811 157.404278
DOCKED: USER    NEWDPF quat0 0.955447 0.153988 -0.251811 157.404278
DOCKED: USER    NEWDPF dihe0 72.98 -103.86 28.95 -137.60 171.01 -141.72 82.59 22.15 -12.08 158.84 
DOCKED: USER  keepresnum = 1 
DOCKED: USER  
DOCKED: REMARK  10 active torsions:
DOCKED: REMARK  status: ('A' for Active; 'I' for Inactive)
DOCKED: REMARK    1  A    between atoms: C_6  and  C_10 
DOCKED: REMARK    2  A    between atoms: C_10  and  C_11 
DOCKED: REMARK    3  A    between atoms: C_11  and  C_12 
DOCKED: REMARK    4  A    between atoms: C_12  and  O_14 
DOCKED: REMARK    5  A    between atoms: C_17  and  C_20 
DOCKED: REMARK    6  A    between atoms: C_24  and  C_27 
DOCKED: REMARK    7  A    between atoms: C_31  and  C_34 
DOCKED: REMARK    8  A    between atoms: C_34  and  C_35 
DOCKED: REMARK    9  A    between atoms: C_35  and  C_36 
DOCKED: REMARK   10  A    between atoms: C_36  and  O_38 
DOCKED: USER                              x       y       z     vdW  Elec       q    Type
DOCKED: USER                           _______ _______ _______ _____ _____    ______ ____
DOCKED: ROOT
DOCKED: ATOM      1  C   UNL d   1     -10.933   0.699   1.904 -0.37 +0.03    +0.064 C 
DOCKED: ATOM      2  C   UNL d   1      -8.411   4.947   2.055 -0.42 +0.01    +0.064 A 
DOCKED: ATOM      3  C   UNL d   1      -4.924   2.888  -0.528 -0.39 +0.01    +0.064 C 
DOCKED: ATOM      4  C   UNL d   1      -7.300  -1.263  -0.595 -0.41 +0.01    +0.064 C 
DOCKED: ATOM      5  C   UNL d   1     -10.509   2.061   2.257 -0.18 +0.02    +0.066 A 
DOCKED: ATOM      6  C   UNL d   1     -11.212   2.918   3.088 -0.24 -0.00    -0.021 A 
DOCKED: ATOM      7  C   UNL d   1     -10.513   4.099   3.126 -0.36 -0.00    -0.025 A 
DOCKED: ATOM      8  C   UNL d   1      -9.408   3.917   2.317 -0.37 +0.01    +0.066 A 
DOCKED: ATOM      9  C   UNL d   1     -10.882   5.319   3.913 -0.43 +0.00    +0.051 C 
DOCKED: ATOM     10  C   UNL d   1      -7.307   4.780   1.325 -0.39 +0.01    +0.066 A 
DOCKED: ATOM     11  C   UNL d   1      -6.430   5.817   0.997 -0.47 -0.00    -0.021 A 
DOCKED: ATOM     12  C   UNL d   1      -5.424   5.252   0.238 -0.48 +0.00    +0.000 A 
DOCKED: ATOM     13  C   UNL d   1      -5.748   3.888   0.134 -0.38 +0.01    +0.070 A 
DOCKED: ATOM     14  C   UNL d   1      -6.579   7.287   1.332 -0.53 +0.01    +0.052 C 
DOCKED: ATOM     15  C   UNL d   1      -5.256   1.584  -0.675 -0.38 +0.01    +0.066 A 
DOCKED: ATOM     16  C   UNL d   1      -4.398   0.640  -1.225 -0.35 -0.00    -0.021 A 
DOCKED: ATOM     17  C   UNL d   1      -5.083  -0.557  -1.249 -0.40 +0.00    +0.000 A 
DOCKED: ATOM     18  C   UNL d   1      -6.346  -0.315  -0.716 -0.41 +0.01    +0.070 A 
DOCKED: ATOM     19  C   UNL d   1      -2.998   0.858  -1.733 -0.34 +0.00    +0.052 C 
DOCKED: ATOM     20  C   UNL d   1      -8.618  -1.059   0.017 -0.35 +0.01    +0.066 A 
DOCKED: ATOM     21  C   UNL d   1      -9.684  -1.970  -0.031 -0.07 -0.01    -0.025 A 
DOCKED: ATOM     22  C   UNL d   1     -10.704  -1.396   0.698 -0.15 -0.01    -0.021 A 
DOCKED: ATOM     23  C   UNL d   1     -10.227  -0.162   1.155 -0.35 +0.03    +0.066 A 
DOCKED: ATOM     24  C   UNL d   1      -9.749  -3.310  -0.727 -0.17 +0.01    +0.051 C 
DOCKED: ATOM     25  N   UNL d   1      -9.404   2.673   1.797 -0.16 -0.09    -0.248 N 
DOCKED: ATOM     26  N   UNL d   1      -6.900   3.601   0.789 -0.19 -0.06    -0.248 N 
DOCKED: ATOM     27  N   UNL d   1      -6.439   0.991  -0.322 -0.27 -0.03    -0.248 N 
DOCKED: ATOM     28  N   UNL d   1      -8.970   0.058   0.698 -0.26 -0.07    -0.248 N 
DOCKED: ATOM     29 FE   UNL d   1      -7.934   1.828   0.743 -0.09 +0.00    +0.000 Fe
DOCKED: ENDROOT
DOCKED: BRANCH   6  30
DOCKED: ATOM     30  C   UNL d   1     -12.473   2.625   3.826 -0.23 +0.02    +0.052 C 
DOCKED: BRANCH  30  31
DOCKED: ATOM     31  C   UNL d   1     -12.191   1.778   5.062 -0.11 +0.05    +0.115 C 
DOCKED: BRANCH  31  32
DOCKED: ATOM     32  C   UNL d   1     -12.444   0.324   4.772 -0.08 +0.16    +0.139 C 
DOCKED: ATOM     33  O   UNL d   1     -12.120  -0.537   5.578 -0.46 -0.92    -0.650 OA
DOCKED: BRANCH  32  34
DOCKED: ATOM     34  O   UNL d   1     -13.029  -0.042   3.620 -0.30 -1.32    -0.776 OA
DOCKED: ATOM     35  H   UNL d   1     -13.946  -0.352   3.636 +0.02 +0.29    +0.167 HD
DOCKED: ENDBRANCH  32  34
DOCKED: ENDBRANCH  31  32
DOCKED: ENDBRANCH  30  31
DOCKED: ENDBRANCH   6  30
DOCKED: BRANCH  22  36
DOCKED: ATOM     36  C   UNL d   1     -12.077  -1.981   0.902 +0.12 +0.05    +0.052 C 
DOCKED: BRANCH  36  37
DOCKED: ATOM     37  C   UNL d   1     -13.081  -1.252   0.021 +0.03 +0.07    +0.115 C 
DOCKED: BRANCH  37  38
DOCKED: ATOM     38  C   UNL d   1     -14.480  -1.424   0.544 -0.07 +0.10    +0.139 C 
DOCKED: ATOM     39  O   UNL d   1     -15.420  -1.570  -0.223 +0.02 -0.25    -0.650 OA
DOCKED: BRANCH  38  40
DOCKED: ATOM     40  O   UNL d   1     -14.707  -1.413   1.870 -0.29 -1.07    -0.776 OA
DOCKED: ATOM     41  H   UNL d   1     -14.693  -0.569   2.342 +0.03 +0.18    +0.167 HD
DOCKED: ENDBRANCH  38  40
DOCKED: ENDBRANCH  37  38
DOCKED: ENDBRANCH  36  37
DOCKED: ENDBRANCH  22  36
DOCKED: BRANCH  12  42
DOCKED: ATOM     42  C   UNL d   1      -4.267   6.000  -0.342 -0.64 +0.00    +0.004 C 
DOCKED: ATOM     43  C   UNL d   1      -3.233   6.373   0.424 -0.58 +0.00    +0.012 C 
DOCKED: ENDBRANCH  12  42
DOCKED: BRANCH  17  44
DOCKED: ATOM     44  C   UNL d   1      -4.555  -1.854  -1.732 -0.64 -0.00    +0.004 C 
DOCKED: ATOM     45  C   UNL d   1      -4.581  -2.162  -3.032 -0.73 -0.00    +0.012 C 
DOCKED: ENDBRANCH  17  44
DOCKED: TORSDOF 10
DOCKED: TER
DOCKED: ENDMDL
________________________________________________________________________________


	BEGINNING GENETIC ALGORITHM DOCKING 9 of 100
Run: 9 Seed: 1194597419 109243423 [ Run 9 of 100 GA/GALS ]
Beginning LAMARCKIAN GENETIC ALGORITHM (LGA), with a maximum of 25000000 energy evaluations.

Final-Value: -10.405


	FINAL GENETIC ALGORITHM DOCKED STATE
	_______________________________________________


Detailed state:  trans 9.360 0.381 -15.924 quatxyzw 0.533037 -0.205807 -0.043973 -0.819500 center -0.174 -0.001 -0.047 ntor 10 -93.0354 -2.0342 -162.4169 -126.4521 41.0080 96.4136 -38.6692 76.5586 172.5173 172.3223
State:	  9.360   0.381 -15.924   0.930 -0.359 -0.077 -69.930    -93.04   -2.03 -162.42 -126.45   41.01   96.41  -38.67   76.56  172.52  172.32

DOCKED: MODEL        9
DOCKED: USER    Run = 9
DOCKED: USER    DPF = D:/Protein_go_brrr/autodock/final/mut_D99N/heme_Fe/dock.dpf
DOCKED: USER  
DOCKED: USER    Estimated Free Energy of Binding    =   -5.33 kcal/mol  [=(1)+(2)+(3)-(4)]
DOCKED: USER    Estimated Inhibition Constant, Ki   =  124.44 uM (micromolar)  [Temperature = 298.15 K]
DOCKED: USER    
DOCKED: USER    (1) Final Intermolecular Energy     =   -8.31 kcal/mol
DOCKED: USER        vdW + Hbond + desolv Energy     =   -7.39 kcal/mol
DOCKED: USER        Electrostatic Energy            =   -0.92 kcal/mol
DOCKED: USER    (2) Final Total Internal Energy     =   -2.09 kcal/mol
DOCKED: USER    (3) Torsional Free Energy           =   +2.98 kcal/mol
DOCKED: USER    (4) Unbound System's Energy  [=(2)] =   -2.09 kcal/mol
DOCKED: USER    
DOCKED: USER    
DOCKED: USER    NEWDPF move heme_Fe_opt.pdbqt
DOCKED: USER    NEWDPF about -0.174000 -0.001000 -0.047000
DOCKED: USER    NEWDPF tran0 9.359665 0.380540 -15.923728
DOCKED: USER    NEWDPF quaternion0 0.533037 -0.205807 -0.043973 -0.819500
DOCKED: USER    NEWDPF axisangle0 0.930129 -0.359126 -0.076731 -69.930372
DOCKED: USER    NEWDPF quat0 0.930129 -0.359126 -0.076731 -69.930372
DOCKED: USER    NEWDPF dihe0 -93.04 -2.03 -162.42 -126.45 41.01 96.41 -38.67 76.56 172.52 172.32 
DOCKED: USER  keepresnum = 1 
DOCKED: USER  
DOCKED: REMARK  10 active torsions:
DOCKED: REMARK  status: ('A' for Active; 'I' for Inactive)
DOCKED: REMARK    1  A    between atoms: C_6  and  C_10 
DOCKED: REMARK    2  A    between atoms: C_10  and  C_11 
DOCKED: REMARK    3  A    between atoms: C_11  and  C_12 
DOCKED: REMARK    4  A    between atoms: C_12  and  O_14 
DOCKED: REMARK    5  A    between atoms: C_17  and  C_20 
DOCKED: REMARK    6  A    between atoms: C_24  and  C_27 
DOCKED: REMARK    7  A    between atoms: C_31  and  C_34 
DOCKED: REMARK    8  A    between atoms: C_34  and  C_35 
DOCKED: REMARK    9  A    between atoms: C_35  and  C_36 
DOCKED: REMARK   10  A    between atoms: C_36  and  O_38 
DOCKED: USER                              x       y       z     vdW  Elec       q    Type
DOCKED: USER                           _______ _______ _______ _____ _____    ______ ____
DOCKED: ROOT
DOCKED: ATOM      1  C   UNL d   1       7.358   0.478 -16.367 -0.16 +0.02    +0.064 C 
DOCKED: ATOM      2  C   UNL d   1      11.251  -1.844 -18.339 -0.09 +0.03    +0.064 A 
DOCKED: ATOM      3  C   UNL d   1      13.740  -0.924 -14.335 -0.13 +0.01    +0.064 C 
DOCKED: ATOM      4  C   UNL d   1      10.018   1.418 -12.450 -0.31 +0.01    +0.064 C 
DOCKED: ATOM      5  C   UNL d   1       8.250  -0.188 -17.327 -0.13 +0.02    +0.066 A 
DOCKED: ATOM      6  C   UNL d   1       7.910  -0.509 -18.631 -0.11 -0.01    -0.021 A 
DOCKED: ATOM      7  C   UNL d   1       8.991  -1.157 -19.177 -0.11 -0.01    -0.025 A 
DOCKED: ATOM      8  C   UNL d   1       9.950  -1.207 -18.183 -0.11 +0.03    +0.066 A 
DOCKED: ATOM      9  C   UNL d   1       9.093  -1.676 -20.578 -0.10 +0.01    +0.051 C 
DOCKED: ATOM     10  C   UNL d   1      12.215  -1.856 -17.417 -0.06 +0.05    +0.066 A 
DOCKED: ATOM     11  C   UNL d   1      13.407  -2.572 -17.551 -0.07 -0.01    -0.021 A 
DOCKED: ATOM     12  C   UNL d   1      14.136  -2.337 -16.402 -0.08 +0.00    +0.000 A 
DOCKED: ATOM     13  C   UNL d   1      13.339  -1.488 -15.615 -0.09 +0.03    +0.070 A 
DOCKED: ATOM     14  C   UNL d   1      13.804  -3.491 -18.689 -0.04 +0.01    +0.052 C 
DOCKED: ATOM     15  C   UNL d   1      12.956  -0.149 -13.549 -0.15 +0.01    +0.066 A 
DOCKED: ATOM     16  C   UNL d   1      13.411   0.452 -12.382 -0.14 -0.00    -0.021 A 
DOCKED: ATOM     17  C   UNL d   1      12.338   1.125 -11.835 -0.22 +0.00    +0.000 A 
DOCKED: ATOM     18  C   UNL d   1      11.251   0.915 -12.681 -0.23 +0.01    +0.070 A 
DOCKED: ATOM     19  C   UNL d   1      14.791   0.376 -11.788 -0.08 +0.01    +0.052 C 
DOCKED: ATOM     20  C   UNL d   1       8.867   1.270 -13.349 -0.18 +0.01    +0.066 A 
DOCKED: ATOM     21  C   UNL d   1       7.544   1.609 -13.033 -0.28 -0.00    -0.025 A 
DOCKED: ATOM     22  C   UNL d   1       6.805   1.345 -14.167 -0.23 -0.00    -0.021 A 
DOCKED: ATOM     23  C   UNL d   1       7.701   0.851 -15.124 -0.15 +0.02    +0.066 A 
DOCKED: ATOM     24  C   UNL d   1       6.994   2.149 -11.733 -0.29 +0.01    +0.051 C 
DOCKED: ATOM     25  N   UNL d   1       9.500  -0.608 -17.062 -0.08 -0.13    -0.248 N 
DOCKED: ATOM     26  N   UNL d   1      12.165  -1.201 -16.229 +0.02 -0.17    -0.248 N 
DOCKED: ATOM     27  N   UNL d   1      11.641   0.169 -13.758 -0.12 -0.07    -0.248 N 
DOCKED: ATOM     28  N   UNL d   1       8.949   0.766 -14.604 -0.07 -0.08    -0.248 N 
DOCKED: ATOM     29 FE   UNL d   1      10.557  -0.217 -15.415 -0.04 +0.00    +0.000 Fe
DOCKED: ENDROOT
DOCKED: BRANCH   6  30
DOCKED: ATOM     30  C   UNL d   1       6.633  -0.197 -19.332 -0.10 +0.01    +0.052 C 
DOCKED: BRANCH  30  31
DOCKED: ATOM     31  C   UNL d   1       5.699  -1.402 -19.314 +0.00 +0.03    +0.115 C 
DOCKED: BRANCH  31  32
DOCKED: ATOM     32  C   UNL d   1       4.276  -0.961 -19.109 -0.22 +0.04    +0.139 C 
DOCKED: ATOM     33  O   UNL d   1       3.843   0.032 -19.676 +0.03 -0.17    -0.650 OA
DOCKED: BRANCH  32  34
DOCKED: ATOM     34  O   UNL d   1       3.464  -1.659 -18.297 -0.08 -0.26    -0.776 OA
DOCKED: ATOM     35  H   UNL d   1       3.456  -1.453 -17.351 -0.36 +0.06    +0.167 HD
DOCKED: ENDBRANCH  32  34
DOCKED: ENDBRANCH  31  32
DOCKED: ENDBRANCH  30  31
DOCKED: ENDBRANCH   6  30
DOCKED: BRANCH  22  36
DOCKED: ATOM     36  C   UNL d   1       5.315   1.511 -14.305 -0.26 +0.01    +0.052 C 
DOCKED: BRANCH  36  37
DOCKED: ATOM     37  C   UNL d   1       4.616   0.215 -13.925 -0.39 +0.02    +0.115 C 
DOCKED: BRANCH  37  38
DOCKED: ATOM     38  C   UNL d   1       4.135  -0.516 -15.147 -0.42 +0.04    +0.139 C 
DOCKED: ATOM     39  O   UNL d   1       4.802  -1.412 -15.643 -0.60 -0.29    -0.650 OA
DOCKED: BRANCH  38  40
DOCKED: ATOM     40  O   UNL d   1       2.958  -0.184 -15.707 +0.03 -0.27    -0.776 OA
DOCKED: ATOM     41  H   UNL d   1       2.676  -0.640 -16.513 -0.46 +0.04    +0.167 HD
DOCKED: ENDBRANCH  38  40
DOCKED: ENDBRANCH  37  38
DOCKED: ENDBRANCH  36  37
DOCKED: ENDBRANCH  22  36
DOCKED: BRANCH  12  42
DOCKED: ATOM     42  C   UNL d   1      15.483  -2.916 -16.109 -0.05 +0.00    +0.004 C 
DOCKED: ATOM     43  C   UNL d   1      15.657  -3.779 -15.099 -0.09 -0.00    +0.012 C 
DOCKED: ENDBRANCH  12  42
DOCKED: BRANCH  17  44
DOCKED: ATOM     44  C   UNL d   1      12.357   1.933 -10.594 -0.25 +0.00    +0.004 C 
DOCKED: ATOM     45  C   UNL d   1      12.437   1.345  -9.396 -0.33 +0.00    +0.012 C 
DOCKED: ENDBRANCH  17  44
DOCKED: TORSDOF 10
DOCKED: TER
DOCKED: ENDMDL
________________________________________________________________________________


	BEGINNING GENETIC ALGORITHM DOCKING 10 of 100
Run: 10 Seed: 541448955 903968147 [ Run 10 of 100 GA/GALS ]
Beginning LAMARCKIAN GENETIC ALGORITHM (LGA), with a maximum of 25000000 energy evaluations.

Final-Value: -11.094


	FINAL GENETIC ALGORITHM DOCKED STATE
	_______________________________________________


Detailed state:  trans -14.384 -5.221 0.750 quatxyzw -0.509694 0.190093 -0.084716 -0.834805 center -0.174 -0.001 -0.047 ntor 10 -145.3272 42.4814 27.9886 -108.3914 -93.7137 -98.5042 -176.2467 108.5389 -180.0000 -178.1937
State:	-14.384  -5.221   0.750  -0.926  0.345 -0.154 -66.809   -145.33   42.48   27.99 -108.39  -93.71  -98.50 -176.25  108.54 -180.00 -178.19

DOCKED: MODEL       10
DOCKED: USER    Run = 10
DOCKED: USER    DPF = D:/Protein_go_brrr/autodock/final/mut_D99N/heme_Fe/dock.dpf
DOCKED: USER  
DOCKED: USER    Estimated Free Energy of Binding    =   -6.15 kcal/mol  [=(1)+(2)+(3)-(4)]
DOCKED: USER    Estimated Inhibition Constant, Ki   =   30.89 uM (micromolar)  [Temperature = 298.15 K]
DOCKED: USER    
DOCKED: USER    (1) Final Intermolecular Energy     =   -9.14 kcal/mol
DOCKED: USER        vdW + Hbond + desolv Energy     =   -6.44 kcal/mol
DOCKED: USER        Electrostatic Energy            =   -2.70 kcal/mol
DOCKED: USER    (2) Final Total Internal Energy     =   -1.96 kcal/mol
DOCKED: USER    (3) Torsional Free Energy           =   +2.98 kcal/mol
DOCKED: USER    (4) Unbound System's Energy  [=(2)] =   -1.96 kcal/mol
DOCKED: USER    
DOCKED: USER    
DOCKED: USER    NEWDPF move heme_Fe_opt.pdbqt
DOCKED: USER    NEWDPF about -0.174000 -0.001000 -0.047000
DOCKED: USER    NEWDPF tran0 -14.384148 -5.221475 0.749720
DOCKED: USER    NEWDPF quaternion0 -0.509694 0.190093 -0.084716 -0.834805
DOCKED: USER    NEWDPF axisangle0 -0.925799 0.345281 -0.153877 -66.808880
DOCKED: USER    NEWDPF quat0 -0.925799 0.345281 -0.153877 -66.808880
DOCKED: USER    NEWDPF dihe0 -145.33 42.48 27.99 -108.39 -93.71 -98.50 -176.25 108.54 -180.00 -178.19 
DOCKED: USER  keepresnum = 1 
DOCKED: USER  
DOCKED: REMARK  10 active torsions:
DOCKED: REMARK  status: ('A' for Active; 'I' for Inactive)
DOCKED: REMARK    1  A    between atoms: C_6  and  C_10 
DOCKED: REMARK    2  A    between atoms: C_10  and  C_11 
DOCKED: REMARK    3  A    between atoms: C_11  and  C_12 
DOCKED: REMARK    4  A    between atoms: C_12  and  O_14 
DOCKED: REMARK    5  A    between atoms: C_17  and  C_20 
DOCKED: REMARK    6  A    between atoms: C_24  and  C_27 
DOCKED: REMARK    7  A    between atoms: C_31  and  C_34 
DOCKED: REMARK    8  A    between atoms: C_34  and  C_35 
DOCKED: REMARK    9  A    between atoms: C_35  and  C_36 
DOCKED: REMARK   10  A    between atoms: C_36  and  O_38 
DOCKED: USER                              x       y       z     vdW  Elec       q    Type
DOCKED: USER                           _______ _______ _______ _____ _____    ______ ____
DOCKED: ROOT
DOCKED: ATOM      1  C   UNL d   1     -15.976  -4.149   1.477 -0.06 +0.04    +0.064 C 
DOCKED: ATOM      2  C   UNL d   1     -12.544  -7.082   3.490 -0.10 +0.03    +0.064 A 
DOCKED: ATOM      3  C   UNL d   1      -9.986  -6.755  -0.561 -0.26 -0.02    +0.064 C 
DOCKED: ATOM      4  C   UNL d   1     -13.344  -4.001  -2.567 -0.24 +0.01    +0.064 C 
DOCKED: ATOM      5  C   UNL d   1     -15.287  -5.073   2.389 -0.06 +0.05    +0.066 A 
DOCKED: ATOM      6  C   UNL d   1     -15.784  -5.495   3.610 -0.06 -0.01    -0.021 A 
DOCKED: ATOM      7  C   UNL d   1     -14.829  -6.307   4.171 -0.07 -0.01    -0.025 A 
DOCKED: ATOM      8  C   UNL d   1     -13.784  -6.349   3.268 -0.08 +0.04    +0.066 A 
DOCKED: ATOM      9  C   UNL d   1     -14.932  -7.012   5.488 -0.03 +0.02    +0.051 C 
DOCKED: ATOM     10  C   UNL d   1     -11.545  -7.186   2.612 -0.12 +0.02    +0.066 A 
DOCKED: ATOM     11  C   UNL d   1     -10.323  -7.799   2.898 -0.18 -0.00    -0.021 A 
DOCKED: ATOM     12  C   UNL d   1      -9.561  -7.703   1.751 -0.27 -0.00    +0.000 A 
DOCKED: ATOM     13  C   UNL d   1     -10.363  -7.022   0.818 -0.20 -0.00    +0.070 A 
DOCKED: ATOM     14  C   UNL d   1      -9.877  -8.387   4.221 -0.18 +0.01    +0.052 C 
DOCKED: ATOM     15  C   UNL d   1     -10.733  -6.055  -1.447 -0.17 -0.01    +0.066 A 
DOCKED: ATOM     16  C   UNL d   1     -10.384  -5.907  -2.784 -0.26 +0.00    -0.021 A 
DOCKED: ATOM     17  C   UNL d   1     -11.349  -5.110  -3.364 -0.26 -0.00    +0.000 A 
DOCKED: ATOM     18  C   UNL d   1     -12.264  -4.787  -2.364 -0.17 +0.00    +0.070 A 
DOCKED: ATOM     19  C   UNL d   1      -9.177  -6.470  -3.485 -0.34 -0.03    +0.052 C 
DOCKED: ATOM     20  C   UNL d   1     -14.361  -3.690  -1.556 -0.14 +0.02    +0.066 A 
DOCKED: ATOM     21  C   UNL d   1     -15.370  -2.725  -1.691 -0.19 -0.01    -0.025 A 
DOCKED: ATOM     22  C   UNL d   1     -16.115  -2.793  -0.533 -0.11 -0.01    -0.021 A 
DOCKED: ATOM     23  C   UNL d   1     -15.532  -3.787   0.262 -0.08 +0.03    +0.066 A 
DOCKED: ATOM     24  C   UNL d   1     -15.623  -1.781  -2.844 -0.31 +0.01    +0.051 C 
DOCKED: ATOM     25  N   UNL d   1     -14.070  -5.605   2.181 -0.07 -0.19    -0.248 N 
DOCKED: ATOM     26  N   UNL d   1     -11.569  -6.699   1.345 -0.08 -0.06    -0.248 N 
DOCKED: ATOM     27  N   UNL d   1     -11.910  -5.403  -1.197 -0.06 -0.02    -0.248 N 
DOCKED: ATOM     28  N   UNL d   1     -14.436  -4.299  -0.348 -0.05 -0.09    -0.248 N 
DOCKED: ATOM     29 FE   UNL d   1     -13.003  -5.498   0.497 -0.02 +0.00    +0.000 Fe
DOCKED: ENDROOT
DOCKED: BRANCH   6  30
DOCKED: ATOM     30  C   UNL d   1     -17.109  -5.164   4.208 -0.01 +0.02    +0.052 C 
DOCKED: BRANCH  30  31
DOCKED: ATOM     31  C   UNL d   1     -17.014  -3.909   5.069 -0.02 +0.05    +0.115 C 
DOCKED: BRANCH  31  32
DOCKED: ATOM     32  C   UNL d   1     -15.633  -3.319   4.990 +0.01 +0.16    +0.139 C 
DOCKED: ATOM     33  O   UNL d   1     -14.783  -3.609   5.820 -0.50 -0.86    -0.650 OA
DOCKED: BRANCH  32  34
DOCKED: ATOM     34  O   UNL d   1     -15.319  -2.465   4.001 +0.17 -1.39    -0.776 OA
DOCKED: ATOM     35  H   UNL d   1     -15.997  -1.856   3.674 +0.01 +0.17    +0.167 HD
DOCKED: ENDBRANCH  32  34
DOCKED: ENDBRANCH  31  32
DOCKED: ENDBRANCH  30  31
DOCKED: ENDBRANCH   6  30
DOCKED: BRANCH  22  36
DOCKED: ATOM     36  C   UNL d   1     -17.292  -1.917  -0.191 -0.10 +0.01    +0.052 C 
DOCKED: BRANCH  36  37
DOCKED: ATOM     37  C   UNL d   1     -16.798  -0.581   0.346 -0.03 +0.03    +0.115 C 
DOCKED: BRANCH  37  38
DOCKED: ATOM     38  C   UNL d   1     -16.228  -0.734   1.728 -0.12 +0.07    +0.139 C 
DOCKED: ATOM     39  O   UNL d   1     -16.897  -0.461   2.714 +0.00 -0.28    -0.650 OA
DOCKED: BRANCH  38  40
DOCKED: ATOM     40  O   UNL d   1     -14.967  -1.172   1.889 -0.20 -0.86    -0.776 OA
DOCKED: ATOM     41  H   UNL d   1     -14.778  -1.816   2.586 +0.04 +0.37    +0.167 HD
DOCKED: ENDBRANCH  38  40
DOCKED: ENDBRANCH  37  38
DOCKED: ENDBRANCH  36  37
DOCKED: ENDBRANCH  22  36
DOCKED: BRANCH  12  42
DOCKED: ATOM     42  C   UNL d   1      -8.165  -8.221   1.604 -0.31 -0.00    +0.004 C 
DOCKED: ATOM     43  C   UNL d   1      -7.928  -9.530   1.454 -0.19 -0.00    +0.012 C 
DOCKED: ENDBRANCH  12  42
DOCKED: BRANCH  17  44
DOCKED: ATOM     44  C   UNL d   1     -11.403  -4.702  -4.785 -0.46 -0.00    +0.004 C 
DOCKED: ATOM     45  C   UNL d   1     -10.362  -4.094  -5.364 -0.50 -0.00    +0.012 C 
DOCKED: ENDBRANCH  17  44
DOCKED: TORSDOF 10
DOCKED: TER
DOCKED: ENDMDL
________________________________________________________________________________


	BEGINNING GENETIC ALGORITHM DOCKING 11 of 100
Run: 11 Seed: 2016807127 21108752 [ Run 11 of 100 GA/GALS ]
Beginning LAMARCKIAN GENETIC ALGORITHM (LGA), with a maximum of 25000000 energy evaluations.

Final-Value: -10.592


	FINAL GENETIC ALGORITHM DOCKED STATE
	_______________________________________________


Detailed state:  trans -18.285 9.966 1.903 quatxyzw -0.935565 -0.139371 -0.229733 0.229167 center -0.174 -0.001 -0.047 ntor 10 -116.6474 -134.5763 -173.9703 -120.1145 -120.9054 -98.0361 63.2602 -38.3816 -145.9172 17.7001
State:	-18.285   9.966   1.903  -0.961 -0.143 -0.236 153.504   -116.65 -134.58 -173.97 -120.11 -120.91  -98.04   63.26  -38.38 -145.92   17.70

DOCKED: MODEL       11
DOCKED: USER    Run = 11
DOCKED: USER    DPF = D:/Protein_go_brrr/autodock/final/mut_D99N/heme_Fe/dock.dpf
DOCKED: USER  
DOCKED: USER    Estimated Free Energy of Binding    =   -7.07 kcal/mol  [=(1)+(2)+(3)-(4)]
DOCKED: USER    Estimated Inhibition Constant, Ki   =    6.61 uM (micromolar)  [Temperature = 298.15 K]
DOCKED: USER    
DOCKED: USER    (1) Final Intermolecular Energy     =  -10.05 kcal/mol
DOCKED: USER        vdW + Hbond + desolv Energy     =   -8.00 kcal/mol
DOCKED: USER        Electrostatic Energy            =   -2.05 kcal/mol
DOCKED: USER    (2) Final Total Internal Energy     =   -0.54 kcal/mol
DOCKED: USER    (3) Torsional Free Energy           =   +2.98 kcal/mol
DOCKED: USER    (4) Unbound System's Energy  [=(2)] =   -0.54 kcal/mol
DOCKED: USER    
DOCKED: USER    
DOCKED: USER    NEWDPF move heme_Fe_opt.pdbqt
DOCKED: USER    NEWDPF about -0.174000 -0.001000 -0.047000
DOCKED: USER    NEWDPF tran0 -18.285228 9.966262 1.903497
DOCKED: USER    NEWDPF quaternion0 -0.935565 -0.139371 -0.229733 0.229167
DOCKED: USER    NEWDPF axisangle0 -0.961143 -0.143181 -0.236014 153.503956
DOCKED: USER    NEWDPF quat0 -0.961143 -0.143181 -0.236014 153.503956
DOCKED: USER    NEWDPF dihe0 -116.65 -134.58 -173.97 -120.11 -120.91 -98.04 63.26 -38.38 -145.92 17.70 
DOCKED: USER  keepresnum = 1 
DOCKED: USER  
DOCKED: REMARK  10 active torsions:
DOCKED: REMARK  status: ('A' for Active; 'I' for Inactive)
DOCKED: REMARK    1  A    between atoms: C_6  and  C_10 
DOCKED: REMARK    2  A    between atoms: C_10  and  C_11 
DOCKED: REMARK    3  A    between atoms: C_11  and  C_12 
DOCKED: REMARK    4  A    between atoms: C_12  and  O_14 
DOCKED: REMARK    5  A    between atoms: C_17  and  C_20 
DOCKED: REMARK    6  A    between atoms: C_24  and  C_27 
DOCKED: REMARK    7  A    between atoms: C_31  and  C_34 
DOCKED: REMARK    8  A    between atoms: C_34  and  C_35 
DOCKED: REMARK    9  A    between atoms: C_35  and  C_36 
DOCKED: REMARK   10  A    between atoms: C_36  and  O_38 
DOCKED: USER                              x       y       z     vdW  Elec       q    Type
DOCKED: USER                           _______ _______ _______ _____ _____    ______ ____
DOCKED: ROOT
DOCKED: ATOM      1  C   UNL d   1     -19.727   9.098   0.729 -0.24 +0.01    +0.064 C 
DOCKED: ATOM      2  C   UNL d   1     -17.215  13.352   0.580 +0.02 -0.01    +0.064 A 
DOCKED: ATOM      3  C   UNL d   1     -14.124  11.559   3.789 -0.22 -0.01    +0.064 C 
DOCKED: ATOM      4  C   UNL d   1     -16.599   7.473   4.028 -0.10 +0.00    +0.064 C 
DOCKED: ATOM      5  C   UNL d   1     -19.354  10.492   0.453 -0.20 -0.00    +0.066 A 
DOCKED: ATOM      6  C   UNL d   1     -20.081  11.362  -0.343 -0.20 -0.00    -0.021 A 
DOCKED: ATOM      7  C   UNL d   1     -19.381  12.542  -0.387 -0.16 -0.00    -0.025 A 
DOCKED: ATOM      8  C   UNL d   1     -18.252  12.346   0.385 -0.17 -0.01    +0.066 A 
DOCKED: ATOM      9  C   UNL d   1     -19.791  13.785  -1.115 -0.11 +0.00    +0.051 C 
DOCKED: ATOM     10  C   UNL d   1     -16.146  13.209   1.366 -0.18 -0.01    +0.066 A 
DOCKED: ATOM     11  C   UNL d   1     -15.111  14.145   1.443 -0.16 +0.00    -0.021 A 
DOCKED: ATOM     12  C   UNL d   1     -14.199  13.644   2.350 -0.17 -0.00    +0.000 A 
DOCKED: ATOM     13  C   UNL d   1     -14.725  12.412   2.776 -0.17 -0.01    +0.070 A 
DOCKED: ATOM     14  C   UNL d   1     -14.965  15.423   0.642 -0.13 -0.00    +0.052 C 
DOCKED: ATOM     15  C   UNL d   1     -14.599  10.348   4.166 -0.17 -0.01    +0.066 A 
DOCKED: ATOM     16  C   UNL d   1     -14.052   9.609   5.207 -0.20 +0.00    -0.021 A 
DOCKED: ATOM     17  C   UNL d   1     -14.763   8.429   5.276 -0.14 -0.00    +0.000 A 
DOCKED: ATOM     18  C   UNL d   1     -15.725   8.474   4.269 -0.11 -0.00    +0.070 A 
DOCKED: ATOM     19  C   UNL d   1     -12.892   9.984   6.089 -0.34 -0.01    +0.052 C 
DOCKED: ATOM     20  C   UNL d   1     -17.665   7.510   3.019 -0.19 +0.00    +0.066 A 
DOCKED: ATOM     21  C   UNL d   1     -18.444   6.414   2.622 -0.20 -0.00    -0.025 A 
DOCKED: ATOM     22  C   UNL d   1     -19.337   6.902   1.691 -0.22 -0.00    -0.021 A 
DOCKED: ATOM     23  C   UNL d   1     -19.065   8.269   1.552 -0.20 +0.01    +0.066 A 
DOCKED: ATOM     24  C   UNL d   1     -18.358   4.978   3.086 -0.15 +0.01    +0.051 C 
DOCKED: ATOM     25  N   UNL d   1     -18.243  11.102   0.902 -0.01 +0.06    -0.248 N 
DOCKED: ATOM     26  N   UNL d   1     -15.907  12.143   2.170 -0.13 +0.04    -0.248 N 
DOCKED: ATOM     27  N   UNL d   1     -15.654   9.671   3.615 -0.13 +0.03    -0.248 N 
DOCKED: ATOM     28  N   UNL d   1     -18.014   8.624   2.331 -0.15 +0.02    -0.248 N 
DOCKED: ATOM     29 FE   UNL d   1     -16.960  10.382   2.251 -0.05 -0.00    +0.000 Fe
DOCKED: ENDROOT
DOCKED: BRANCH   6  30
DOCKED: ATOM     30  C   UNL d   1     -21.386  11.095  -1.012 -0.14 +0.01    +0.052 C 
DOCKED: BRANCH  30  31
DOCKED: ATOM     31  C   UNL d   1     -21.288   9.874  -1.920 -0.17 +0.09    +0.115 C 
DOCKED: BRANCH  31  32
DOCKED: ATOM     32  C   UNL d   1     -21.522  10.264  -3.353 -0.18 +0.09    +0.139 C 
DOCKED: ATOM     33  O   UNL d   1     -22.434   9.762  -3.995 -0.54 -0.77    -0.650 OA
DOCKED: BRANCH  32  34
DOCKED: ATOM     34  O   UNL d   1     -20.727  11.172  -3.944 +0.00 -0.06    -0.776 OA
DOCKED: ATOM     35  H   UNL d   1     -19.787  10.971  -4.055 -0.51 -0.05    +0.167 HD
DOCKED: ENDBRANCH  32  34
DOCKED: ENDBRANCH  31  32
DOCKED: ENDBRANCH  30  31
DOCKED: ENDBRANCH   6  30
DOCKED: BRANCH  22  36
DOCKED: ATOM     36  C   UNL d   1     -20.360   6.089   0.943 -0.14 +0.02    +0.052 C 
DOCKED: BRANCH  36  37
DOCKED: ATOM     37  C   UNL d   1     -21.760   6.529   1.347 -0.12 +0.05    +0.115 C 
DOCKED: BRANCH  37  38
DOCKED: ATOM     38  C   UNL d   1     -22.681   6.549   0.160 -0.03 +0.14    +0.139 C 
DOCKED: ATOM     39  O   UNL d   1     -22.918   7.593  -0.430 -0.53 -1.07    -0.650 OA
DOCKED: BRANCH  38  40
DOCKED: ATOM     40  O   UNL d   1     -23.259   5.410  -0.261 -0.04 -0.68    -0.776 OA
DOCKED: ATOM     41  H   UNL d   1     -23.652   4.813   0.392 +0.01 +0.08    +0.167 HD
DOCKED: ENDBRANCH  38  40
DOCKED: ENDBRANCH  37  38
DOCKED: ENDBRANCH  36  37
DOCKED: ENDBRANCH  22  36
DOCKED: BRANCH  12  42
DOCKED: ATOM     42  C   UNL d   1     -12.920  14.315   2.738 -0.20 -0.00    +0.004 C 
DOCKED: ATOM     43  C   UNL d   1     -11.749  13.672   2.648 -0.38 -0.00    +0.012 C 
DOCKED: ENDBRANCH  12  42
DOCKED: BRANCH  17  44
DOCKED: ATOM     44  C   UNL d   1     -14.548   7.338   6.253 -0.17 -0.00    +0.004 C 
DOCKED: ATOM     45  C   UNL d   1     -13.419   6.622   6.244 -0.25 -0.00    +0.012 C 
DOCKED: ENDBRANCH  17  44
DOCKED: TORSDOF 10
DOCKED: TER
DOCKED: ENDMDL
________________________________________________________________________________


	BEGINNING GENETIC ALGORITHM DOCKING 12 of 100
Run: 12 Seed: 1618581958 997245043 [ Run 12 of 100 GA/GALS ]
Beginning LAMARCKIAN GENETIC ALGORITHM (LGA), with a maximum of 25000000 energy evaluations.

Final-Value: -17.050


	FINAL GENETIC ALGORITHM DOCKED STATE
	_______________________________________________


Detailed state:  trans -9.335 1.999 1.114 quatxyzw 0.204573 0.190878 0.063436 -0.957962 center -0.174 -0.001 -0.047 ntor 10 164.1843 64.2089 78.7343 -128.2783 -31.9102 -179.9638 2.6434 76.2050 -64.8147 168.3749
State:	 -9.335   1.999   1.114   0.713  0.665  0.221 -33.344    164.18   64.21   78.73 -128.28  -31.91 -179.96    2.64   76.20  -64.81  168.37

DOCKED: MODEL       12
DOCKED: USER    Run = 12
DOCKED: USER    DPF = D:/Protein_go_brrr/autodock/final/mut_D99N/heme_Fe/dock.dpf
DOCKED: USER  
DOCKED: USER    Estimated Free Energy of Binding    =  -12.84 kcal/mol  [=(1)+(2)+(3)-(4)]
DOCKED: USER    Estimated Inhibition Constant, Ki   =  388.45 pM (picomolar)  [Temperature = 298.15 K]
DOCKED: USER    
DOCKED: USER    (1) Final Intermolecular Energy     =  -15.82 kcal/mol
DOCKED: USER        vdW + Hbond + desolv Energy     =  -13.65 kcal/mol
DOCKED: USER        Electrostatic Energy            =   -2.17 kcal/mol
DOCKED: USER    (2) Final Total Internal Energy     =   -1.23 kcal/mol
DOCKED: USER    (3) Torsional Free Energy           =   +2.98 kcal/mol
DOCKED: USER    (4) Unbound System's Energy  [=(2)] =   -1.23 kcal/mol
DOCKED: USER    
DOCKED: USER    
DOCKED: USER    NEWDPF move heme_Fe_opt.pdbqt
DOCKED: USER    NEWDPF about -0.174000 -0.001000 -0.047000
DOCKED: USER    NEWDPF tran0 -9.334795 1.999173 1.113577
DOCKED: USER    NEWDPF quaternion0 0.204573 0.190878 0.063436 -0.957962
DOCKED: USER    NEWDPF axisangle0 0.713059 0.665323 0.221113 -33.344251
DOCKED: USER    NEWDPF quat0 0.713059 0.665323 0.221113 -33.344251
DOCKED: USER    NEWDPF dihe0 164.18 64.21 78.73 -128.28 -31.91 -179.96 2.64 76.20 -64.81 168.37 
DOCKED: USER  keepresnum = 1 
DOCKED: USER  
DOCKED: REMARK  10 active torsions:
DOCKED: REMARK  status: ('A' for Active; 'I' for Inactive)
DOCKED: REMARK    1  A    between atoms: C_6  and  C_10 
DOCKED: REMARK    2  A    between atoms: C_10  and  C_11 
DOCKED: REMARK    3  A    between atoms: C_11  and  C_12 
DOCKED: REMARK    4  A    between atoms: C_12  and  O_14 
DOCKED: REMARK    5  A    between atoms: C_17  and  C_20 
DOCKED: REMARK    6  A    between atoms: C_24  and  C_27 
DOCKED: REMARK    7  A    between atoms: C_31  and  C_34 
DOCKED: REMARK    8  A    between atoms: C_34  and  C_35 
DOCKED: REMARK    9  A    between atoms: C_35  and  C_36 
DOCKED: REMARK   10  A    between atoms: C_36  and  O_38 
DOCKED: USER                              x       y       z     vdW  Elec       q    Type
DOCKED: USER                           _______ _______ _______ _____ _____    ______ ____
DOCKED: ROOT
DOCKED: ATOM      1  C   UNL d   1     -10.945   1.354   2.211 -0.30 +0.03    +0.064 C 
DOCKED: ATOM      2  C   UNL d   1      -7.520  -0.865  -0.577 -0.29 +0.01    +0.064 A 
DOCKED: ATOM      3  C   UNL d   1      -4.907   3.163  -0.453 -0.40 +0.01    +0.064 C 
DOCKED: ATOM      4  C   UNL d   1      -8.258   5.364   2.158 -0.50 +0.01    +0.064 C 
DOCKED: ATOM      5  C   UNL d   1     -10.262   0.383   1.345 -0.36 +0.03    +0.066 A 
DOCKED: ATOM      6  C   UNL d   1     -10.773  -0.853   0.986 -0.31 -0.01    -0.021 A 
DOCKED: ATOM      7  C   UNL d   1      -9.820  -1.470   0.215 -0.01 -0.01    -0.025 A 
DOCKED: ATOM      8  C   UNL d   1      -8.762  -0.586   0.132 -0.33 +0.01    +0.066 A 
DOCKED: ATOM      9  C   UNL d   1      -9.936  -2.823  -0.417 -0.19 +0.01    +0.051 C 
DOCKED: ATOM     10  C   UNL d   1      -6.508  -0.008  -0.721 -0.41 +0.01    +0.066 A 
DOCKED: ATOM     11  C   UNL d   1      -5.285  -0.343  -1.307 -0.44 -0.00    -0.021 A 
DOCKED: ATOM     12  C   UNL d   1      -4.507   0.797  -1.268 -0.41 +0.00    +0.000 A 
DOCKED: ATOM     13  C   UNL d   1      -5.301   1.777  -0.647 -0.39 +0.01    +0.070 A 
DOCKED: ATOM     14  C   UNL d   1      -4.853  -1.703  -1.817 -0.62 -0.00    +0.052 C 
DOCKED: ATOM     15  C   UNL d   1      -5.647   4.097   0.191 -0.39 +0.01    +0.066 A 
DOCKED: ATOM     16  C   UNL d   1      -5.280   5.434   0.268 -0.48 -0.00    -0.021 A 
DOCKED: ATOM     17  C   UNL d   1      -6.243   6.070   1.024 -0.49 +0.00    +0.000 A 
DOCKED: ATOM     18  C   UNL d   1      -7.174   5.103   1.394 -0.41 +0.01    +0.070 A 
DOCKED: ATOM     19  C   UNL d   1      -4.059   6.087  -0.322 -0.59 +0.01    +0.052 C 
DOCKED: ATOM     20  C   UNL d   1      -9.291   4.386   2.516 -0.40 +0.01    +0.066 A 
DOCKED: ATOM     21  C   UNL d   1     -10.305   4.588   3.463 -0.40 -0.00    -0.025 A 
DOCKED: ATOM     22  C   UNL d   1     -11.066   3.437   3.453 -0.27 -0.00    -0.021 A 
DOCKED: ATOM     23  C   UNL d   1     -10.487   2.581   2.509 -0.15 +0.02    +0.066 A 
DOCKED: ATOM     24  C   UNL d   1     -10.549   5.794   4.340 -0.46 -0.00    +0.051 C 
DOCKED: ATOM     25  N   UNL d   1      -9.038   0.545   0.812 -0.24 -0.07    -0.248 N 
DOCKED: ATOM     26  N   UNL d   1      -6.517   1.284  -0.305 -0.27 -0.03    -0.248 N 
DOCKED: ATOM     27  N   UNL d   1      -6.832   3.898   0.846 -0.24 -0.05    -0.248 N 
DOCKED: ATOM     28  N   UNL d   1      -9.378   3.147   1.973 -0.15 -0.08    -0.248 N 
DOCKED: ATOM     29 FE   UNL d   1      -7.948   2.217   0.835 -0.09 +0.00    +0.000 Fe
DOCKED: ENDROOT
DOCKED: BRANCH   6  30
DOCKED: ATOM     30  C   UNL d   1     -12.108  -1.413   1.339 +0.17 +0.06    +0.052 C 
DOCKED: BRANCH  30  31
DOCKED: ATOM     31  C   UNL d   1     -13.102  -0.296   1.634 -0.14 +0.12    +0.115 C 
DOCKED: BRANCH  31  32
DOCKED: ATOM     32  C   UNL d   1     -14.428  -0.868   2.053 +0.05 +0.18    +0.139 C 
DOCKED: ATOM     33  O   UNL d   1     -14.816  -1.937   1.603 -0.47 -0.88    -0.650 OA
DOCKED: BRANCH  32  34
DOCKED: ATOM     34  O   UNL d   1     -15.202  -0.206   2.930 +0.01 -0.66    -0.776 OA
DOCKED: ATOM     35  H   UNL d   1     -14.812   0.505   3.457 +0.03 +0.12    +0.167 HD
DOCKED: ENDBRANCH  32  34
DOCKED: ENDBRANCH  31  32
DOCKED: ENDBRANCH  30  31
DOCKED: ENDBRANCH   6  30
DOCKED: BRANCH  22  36
DOCKED: ATOM     36  C   UNL d   1     -12.254   3.161   4.337 -0.24 +0.01    +0.052 C 
DOCKED: BRANCH  36  37
DOCKED: ATOM     37  C   UNL d   1     -11.808   2.387   5.568 -0.05 +0.03    +0.115 C 
DOCKED: BRANCH  37  38
DOCKED: ATOM     38  C   UNL d   1     -12.200   0.940   5.466 -0.09 +0.09    +0.139 C 
DOCKED: ATOM     39  O   UNL d   1     -11.927   0.154   6.362 -0.26 -0.52    -0.650 OA
DOCKED: BRANCH  38  40
DOCKED: ATOM     40  O   UNL d   1     -12.855   0.497   4.379 -0.39 -0.84    -0.776 OA
DOCKED: ATOM     41  H   UNL d   1     -13.754   0.156   4.478 +0.03 +0.20    +0.167 HD
DOCKED: ENDBRANCH  38  40
DOCKED: ENDBRANCH  37  38
DOCKED: ENDBRANCH  36  37
DOCKED: ENDBRANCH  22  36
DOCKED: BRANCH  12  42
DOCKED: ATOM     42  C   UNL d   1      -3.106   0.895  -1.781 -0.43 +0.00    +0.004 C 
DOCKED: ATOM     43  C   UNL d   1      -2.758   1.846  -2.659 -0.61 +0.00    +0.012 C 
DOCKED: ENDBRANCH  12  42
DOCKED: BRANCH  17  44
DOCKED: ATOM     44  C   UNL d   1      -6.280   7.513   1.352 -0.62 +0.00    +0.004 C 
DOCKED: ATOM     45  C   UNL d   1      -5.448   8.030   2.262 -0.67 +0.00    +0.012 C 
DOCKED: ENDBRANCH  17  44
DOCKED: TORSDOF 10
DOCKED: TER
DOCKED: ENDMDL
________________________________________________________________________________


	BEGINNING GENETIC ALGORITHM DOCKING 13 of 100
Run: 13 Seed: 1589802426 607083466 [ Run 13 of 100 GA/GALS ]
Beginning LAMARCKIAN GENETIC ALGORITHM (LGA), with a maximum of 25000000 energy evaluations.

Final-Value: -16.634


	FINAL GENETIC ALGORITHM DOCKED STATE
	_______________________________________________


Detailed state:  trans -9.168 1.658 1.806 quatxyzw -0.941304 -0.117689 0.251798 -0.191554 center -0.174 -0.001 -0.047 ntor 10 137.4751 -43.8651 33.8232 -136.5550 121.2461 -145.9513 79.2084 -36.3593 -24.3877 -147.2628
State:	 -9.168   1.658   1.806  -0.959 -0.120  0.257 -157.913    137.48  -43.87   33.82 -136.56  121.25 -145.95   79.21  -36.36  -24.39 -147.26

DOCKED: MODEL       13
DOCKED: USER    Run = 13
DOCKED: USER    DPF = D:/Protein_go_brrr/autodock/final/mut_D99N/heme_Fe/dock.dpf
DOCKED: USER  
DOCKED: USER    Estimated Free Energy of Binding    =  -13.24 kcal/mol  [=(1)+(2)+(3)-(4)]
DOCKED: USER    Estimated Inhibition Constant, Ki   =  198.47 pM (picomolar)  [Temperature = 298.15 K]
DOCKED: USER    
DOCKED: USER    (1) Final Intermolecular Energy     =  -16.22 kcal/mol
DOCKED: USER        vdW + Hbond + desolv Energy     =  -13.97 kcal/mol
DOCKED: USER        Electrostatic Energy            =   -2.25 kcal/mol
DOCKED: USER    (2) Final Total Internal Energy     =   -0.42 kcal/mol
DOCKED: USER    (3) Torsional Free Energy           =   +2.98 kcal/mol
DOCKED: USER    (4) Unbound System's Energy  [=(2)] =   -0.42 kcal/mol
DOCKED: USER    
DOCKED: USER    
DOCKED: USER    NEWDPF move heme_Fe_opt.pdbqt
DOCKED: USER    NEWDPF about -0.174000 -0.001000 -0.047000
DOCKED: USER    NEWDPF tran0 -9.168104 1.658077 1.805716
DOCKED: USER    NEWDPF quaternion0 -0.941304 -0.117689 0.251798 -0.191554
DOCKED: USER    NEWDPF axisangle0 -0.959064 -0.119909 0.256549 -157.912966
DOCKED: USER    NEWDPF quat0 -0.959064 -0.119909 0.256549 -157.912966
DOCKED: USER    NEWDPF dihe0 137.48 -43.87 33.82 -136.56 121.25 -145.95 79.21 -36.36 -24.39 -147.26 
DOCKED: USER  keepresnum = 1 
DOCKED: USER  
DOCKED: REMARK  10 active torsions:
DOCKED: REMARK  status: ('A' for Active; 'I' for Inactive)
DOCKED: REMARK    1  A    between atoms: C_6  and  C_10 
DOCKED: REMARK    2  A    between atoms: C_10  and  C_11 
DOCKED: REMARK    3  A    between atoms: C_11  and  C_12 
DOCKED: REMARK    4  A    between atoms: C_12  and  O_14 
DOCKED: REMARK    5  A    between atoms: C_17  and  C_20 
DOCKED: REMARK    6  A    between atoms: C_24  and  C_27 
DOCKED: REMARK    7  A    between atoms: C_31  and  C_34 
DOCKED: REMARK    8  A    between atoms: C_34  and  C_35 
DOCKED: REMARK    9  A    between atoms: C_35  and  C_36 
DOCKED: REMARK   10  A    between atoms: C_36  and  O_38 
DOCKED: USER                              x       y       z     vdW  Elec       q    Type
DOCKED: USER                           _______ _______ _______ _____ _____    ______ ____
DOCKED: ROOT
DOCKED: ATOM      1  C   UNL d   1     -11.127   1.241   2.255 -0.31 +0.03    +0.064 C 
DOCKED: ATOM      2  C   UNL d   1      -8.354   5.333   2.240 -0.44 +0.01    +0.064 A 
DOCKED: ATOM      3  C   UNL d   1      -5.047   2.999  -0.345 -0.43 +0.01    +0.064 C 
DOCKED: ATOM      4  C   UNL d   1      -7.666  -1.003  -0.253 -0.44 +0.01    +0.064 C 
DOCKED: ATOM      5  C   UNL d   1     -10.615   2.584   2.561 -0.16 +0.02    +0.066 A 
DOCKED: ATOM      6  C   UNL d   1     -11.250   3.504   3.380 -0.29 -0.00    -0.021 A 
DOCKED: ATOM      7  C   UNL d   1     -10.481   4.642   3.372 -0.38 -0.00    -0.025 A 
DOCKED: ATOM      8  C   UNL d   1      -9.405   4.372   2.548 -0.40 +0.01    +0.066 A 
DOCKED: ATOM      9  C   UNL d   1     -10.762   5.903   4.131 -0.46 -0.00    +0.051 C 
DOCKED: ATOM     10  C   UNL d   1      -7.277   5.080   1.495 -0.41 +0.01    +0.066 A 
DOCKED: ATOM     11  C   UNL d   1      -6.346   6.053   1.122 -0.47 -0.00    -0.021 A 
DOCKED: ATOM     12  C   UNL d   1      -5.391   5.409   0.362 -0.49 +0.00    +0.000 A 
DOCKED: ATOM     13  C   UNL d   1      -5.796   4.064   0.302 -0.38 +0.01    +0.070 A 
DOCKED: ATOM     14  C   UNL d   1      -6.401   7.538   1.419 -0.57 +0.01    +0.052 C 
DOCKED: ATOM     15  C   UNL d   1      -5.458   1.714  -0.450 -0.39 +0.01    +0.066 A 
DOCKED: ATOM     16  C   UNL d   1      -4.669   0.706  -0.988 -0.33 -0.00    -0.021 A 
DOCKED: ATOM     17  C   UNL d   1      -5.423  -0.449  -0.966 -0.39 +0.00    +0.000 A 
DOCKED: ATOM     18  C   UNL d   1      -6.660  -0.116  -0.417 -0.39 +0.01    +0.070 A 
DOCKED: ATOM     19  C   UNL d   1      -3.268   0.825  -1.527 -0.28 +0.00    +0.052 C 
DOCKED: ATOM     20  C   UNL d   1      -8.958  -0.703   0.377 -0.36 +0.02    +0.066 A 
DOCKED: ATOM     21  C   UNL d   1     -10.076  -1.549   0.374 -0.09 -0.01    -0.025 A 
DOCKED: ATOM     22  C   UNL d   1     -11.046  -0.896   1.105 -0.29 -0.01    -0.021 A 
DOCKED: ATOM     23  C   UNL d   1     -10.487   0.320   1.517 -0.35 +0.03    +0.066 A 
DOCKED: ATOM     24  C   UNL d   1     -10.234  -2.901  -0.283 -0.21 +0.02    +0.051 C 
DOCKED: ATOM     25  N   UNL d   1      -9.485   3.116   2.064 -0.19 -0.08    -0.248 N 
DOCKED: ATOM     26  N   UNL d   1      -6.950   3.865   0.985 -0.23 -0.06    -0.248 N 
DOCKED: ATOM     27  N   UNL d   1      -6.667   1.203  -0.059 -0.26 -0.03    -0.248 N 
DOCKED: ATOM     28  N   UNL d   1      -9.228   0.451   1.032 -0.26 -0.07    -0.248 N 
DOCKED: ATOM     29 FE   UNL d   1      -8.089   2.156   1.008 -0.09 +0.00    +0.000 Fe
DOCKED: ENDROOT
DOCKED: BRANCH   6  30
DOCKED: ATOM     30  C   UNL d   1     -12.511   3.308   4.149 -0.23 +0.01    +0.052 C 
DOCKED: BRANCH  30  31
DOCKED: ATOM     31  C   UNL d   1     -12.329   2.242   5.224 -0.16 +0.04    +0.115 C 
DOCKED: BRANCH  31  32
DOCKED: ATOM     32  C   UNL d   1     -12.911   0.932   4.770 -0.17 +0.11    +0.139 C 
DOCKED: ATOM     33  O   UNL d   1     -12.211  -0.068   4.693 -0.61 -0.97    -0.650 OA
DOCKED: BRANCH  32  34
DOCKED: ATOM     34  O   UNL d   1     -14.212   0.849   4.445 +0.02 -0.54    -0.776 OA
DOCKED: ATOM     35  H   UNL d   1     -14.865   1.295   5.003 +0.03 +0.08    +0.167 HD
DOCKED: ENDBRANCH  32  34
DOCKED: ENDBRANCH  31  32
DOCKED: ENDBRANCH  30  31
DOCKED: ENDBRANCH   6  30
DOCKED: BRANCH  22  36
DOCKED: ATOM     36  C   UNL d   1     -12.447  -1.392   1.349 +0.20 +0.07    +0.052 C 
DOCKED: BRANCH  36  37
DOCKED: ATOM     37  C   UNL d   1     -13.083  -1.803   0.030 -0.17 +0.08    +0.115 C 
DOCKED: BRANCH  37  38
DOCKED: ATOM     38  C   UNL d   1     -13.948  -3.019   0.205 -0.16 +0.10    +0.139 C 
DOCKED: ATOM     39  O   UNL d   1     -14.045  -3.851  -0.685 +0.02 -0.24    -0.650 OA
DOCKED: BRANCH  38  40
DOCKED: ATOM     40  O   UNL d   1     -14.630  -3.198   1.351 -0.52 -1.02    -0.776 OA
DOCKED: ATOM     41  H   UNL d   1     -15.552  -3.488   1.309 +0.02 +0.13    +0.167 HD
DOCKED: ENDBRANCH  38  40
DOCKED: ENDBRANCH  37  38
DOCKED: ENDBRANCH  36  37
DOCKED: ENDBRANCH  22  36
DOCKED: BRANCH  12  42
DOCKED: ATOM     42  C   UNL d   1      -4.202   6.071  -0.260 -0.65 +0.00    +0.004 C 
DOCKED: ATOM     43  C   UNL d   1      -3.096   6.314   0.455 -0.56 +0.00    +0.012 C 
DOCKED: ENDBRANCH  12  42
DOCKED: BRANCH  17  44
DOCKED: ATOM     44  C   UNL d   1      -4.983  -1.787  -1.421 -0.57 -0.00    +0.004 C 
DOCKED: ATOM     45  C   UNL d   1      -5.033  -2.121  -2.715 -0.71 -0.00    +0.012 C 
DOCKED: ENDBRANCH  17  44
DOCKED: TORSDOF 10
DOCKED: TER
DOCKED: ENDMDL
________________________________________________________________________________


	BEGINNING GENETIC ALGORITHM DOCKING 14 of 100
Run: 14 Seed: 112012431 1908990420 [ Run 14 of 100 GA/GALS ]
Beginning LAMARCKIAN GENETIC ALGORITHM (LGA), with a maximum of 25000000 energy evaluations.

Final-Value: -16.082


	FINAL GENETIC ALGORITHM DOCKED STATE
	_______________________________________________


Detailed state:  trans -9.076 1.728 1.823 quatxyzw -0.929283 -0.135748 0.270573 -0.211652 center -0.174 -0.001 -0.047 ntor 10 -156.6617 -32.8314 34.7255 -150.6762 -94.9599 -161.3819 -64.8041 -20.9324 -118.9170 -162.7447
State:	 -9.076   1.728   1.823  -0.951 -0.139  0.277 -155.562   -156.66  -32.83   34.73 -150.68  -94.96 -161.38  -64.80  -20.93 -118.92 -162.74

DOCKED: MODEL       14
DOCKED: USER    Run = 14
DOCKED: USER    DPF = D:/Protein_go_brrr/autodock/final/mut_D99N/heme_Fe/dock.dpf
DOCKED: USER  
DOCKED: USER    Estimated Free Energy of Binding    =  -13.02 kcal/mol  [=(1)+(2)+(3)-(4)]
DOCKED: USER    Estimated Inhibition Constant, Ki   =  283.68 pM (picomolar)  [Temperature = 298.15 K]
DOCKED: USER    
DOCKED: USER    (1) Final Intermolecular Energy     =  -16.01 kcal/mol
DOCKED: USER        vdW + Hbond + desolv Energy     =  -13.63 kcal/mol
DOCKED: USER        Electrostatic Energy            =   -2.38 kcal/mol
DOCKED: USER    (2) Final Total Internal Energy     =   -0.07 kcal/mol
DOCKED: USER    (3) Torsional Free Energy           =   +2.98 kcal/mol
DOCKED: USER    (4) Unbound System's Energy  [=(2)] =   -0.07 kcal/mol
DOCKED: USER    
DOCKED: USER    
DOCKED: USER    NEWDPF move heme_Fe_opt.pdbqt
DOCKED: USER    NEWDPF about -0.174000 -0.001000 -0.047000
DOCKED: USER    NEWDPF tran0 -9.076343 1.728049 1.822922
DOCKED: USER    NEWDPF quaternion0 -0.929283 -0.135748 0.270573 -0.211652
DOCKED: USER    NEWDPF axisangle0 -0.950823 -0.138895 0.276845 -155.561695
DOCKED: USER    NEWDPF quat0 -0.950823 -0.138895 0.276845 -155.561695
DOCKED: USER    NEWDPF dihe0 -156.66 -32.83 34.73 -150.68 -94.96 -161.38 -64.80 -20.93 -118.92 -162.74 
DOCKED: USER  keepresnum = 1 
DOCKED: USER  
DOCKED: REMARK  10 active torsions:
DOCKED: REMARK  status: ('A' for Active; 'I' for Inactive)
DOCKED: REMARK    1  A    between atoms: C_6  and  C_10 
DOCKED: REMARK    2  A    between atoms: C_10  and  C_11 
DOCKED: REMARK    3  A    between atoms: C_11  and  C_12 
DOCKED: REMARK    4  A    between atoms: C_12  and  O_14 
DOCKED: REMARK    5  A    between atoms: C_17  and  C_20 
DOCKED: REMARK    6  A    between atoms: C_24  and  C_27 
DOCKED: REMARK    7  A    between atoms: C_31  and  C_34 
DOCKED: REMARK    8  A    between atoms: C_34  and  C_35 
DOCKED: REMARK    9  A    between atoms: C_35  and  C_36 
DOCKED: REMARK   10  A    between atoms: C_36  and  O_38 
DOCKED: USER                              x       y       z     vdW  Elec       q    Type
DOCKED: USER                           _______ _______ _______ _____ _____    ______ ____
DOCKED: ROOT
DOCKED: ATOM      1  C   UNL d   1     -11.001   1.223   2.326 -0.22 +0.03    +0.064 C 
DOCKED: ATOM      2  C   UNL d   1      -8.367   5.405   2.400 -0.43 +0.01    +0.064 A 
DOCKED: ATOM      3  C   UNL d   1      -5.091   3.310  -0.418 -0.42 +0.01    +0.064 C 
DOCKED: ATOM      4  C   UNL d   1      -7.571  -0.780  -0.417 -0.43 +0.01    +0.064 C 
DOCKED: ATOM      5  C   UNL d   1     -10.522   2.567   2.677 -0.06 +0.02    +0.066 A 
DOCKED: ATOM      6  C   UNL d   1     -11.153   3.426   3.562 -0.26 -0.00    -0.021 A 
DOCKED: ATOM      7  C   UNL d   1     -10.423   4.588   3.579 -0.40 -0.00    -0.025 A 
DOCKED: ATOM      8  C   UNL d   1      -9.373   4.395   2.703 -0.40 +0.01    +0.066 A 
DOCKED: ATOM      9  C   UNL d   1     -10.715   5.802   4.407 -0.45 -0.00    +0.051 C 
DOCKED: ATOM     10  C   UNL d   1      -7.313   5.225   1.603 -0.41 +0.01    +0.066 A 
DOCKED: ATOM     11  C   UNL d   1      -6.430   6.246   1.242 -0.47 -0.00    -0.021 A 
DOCKED: ATOM     12  C   UNL d   1      -5.485   5.671   0.416 -0.49 +0.00    +0.000 A 
DOCKED: ATOM     13  C   UNL d   1      -5.848   4.317   0.308 -0.39 +0.01    +0.070 A 
DOCKED: ATOM     14  C   UNL d   1      -6.522   7.713   1.611 -0.54 +0.01    +0.052 C 
DOCKED: ATOM     15  C   UNL d   1      -5.463   2.018  -0.568 -0.40 +0.01    +0.066 A 
DOCKED: ATOM     16  C   UNL d   1      -4.663   1.064  -1.184 -0.40 -0.00    -0.021 A 
DOCKED: ATOM     17  C   UNL d   1      -5.378  -0.116  -1.188 -0.43 +0.00    +0.000 A 
DOCKED: ATOM     18  C   UNL d   1      -6.602   0.147  -0.577 -0.41 +0.01    +0.070 A 
DOCKED: ATOM     19  C   UNL d   1      -3.290   1.257  -1.770 -0.36 +0.00    +0.052 C 
DOCKED: ATOM     20  C   UNL d   1      -8.845  -0.556   0.276 -0.35 +0.02    +0.066 A 
DOCKED: ATOM     21  C   UNL d   1      -9.934  -1.439   0.275 -0.00 -0.01    -0.025 A 
DOCKED: ATOM     22  C   UNL d   1     -10.895  -0.854   1.073 -0.30 -0.01    -0.021 A 
DOCKED: ATOM     23  C   UNL d   1     -10.361   0.360   1.522 -0.35 +0.03    +0.066 A 
DOCKED: ATOM     24  C   UNL d   1     -10.074  -2.764  -0.439 -0.12 +0.02    +0.051 C 
DOCKED: ATOM     25  N   UNL d   1      -9.430   3.161   2.163 -0.22 -0.08    -0.248 N 
DOCKED: ATOM     26  N   UNL d   1      -6.967   4.047   1.024 -0.23 -0.06    -0.248 N 
DOCKED: ATOM     27  N   UNL d   1      -6.638   1.447  -0.156 -0.26 -0.03    -0.248 N 
DOCKED: ATOM     28  N   UNL d   1      -9.128   0.557   0.996 -0.26 -0.07    -0.248 N 
DOCKED: ATOM     29 FE   UNL d   1      -8.047   2.300   1.009 -0.09 +0.00    +0.000 Fe
DOCKED: ENDROOT
DOCKED: BRANCH   6  30
DOCKED: ATOM     30  C   UNL d   1     -12.376   3.150   4.368 -0.24 +0.01    +0.052 C 
DOCKED: BRANCH  30  31
DOCKED: ATOM     31  C   UNL d   1     -13.285   2.159   3.650 -0.18 +0.04    +0.115 C 
DOCKED: BRANCH  31  32
DOCKED: ATOM     32  C   UNL d   1     -13.392   0.880   4.433 -0.15 +0.11    +0.139 C 
DOCKED: ATOM     33  O   UNL d   1     -12.665  -0.070   4.177 -0.53 -1.14    -0.650 OA
DOCKED: BRANCH  32  34
DOCKED: ATOM     34  O   UNL d   1     -14.291   0.769   5.425 +0.04 -0.48    -0.776 OA
DOCKED: ATOM     35  H   UNL d   1     -15.070   1.343   5.418 +0.03 +0.07    +0.167 HD
DOCKED: ENDBRANCH  32  34
DOCKED: ENDBRANCH  31  32
DOCKED: ENDBRANCH  30  31
DOCKED: ENDBRANCH   6  30
DOCKED: BRANCH  22  36
DOCKED: ATOM     36  C   UNL d   1     -12.268  -1.409   1.348 +0.20 +0.07    +0.052 C 
DOCKED: BRANCH  36  37
DOCKED: ATOM     37  C   UNL d   1     -13.083  -1.422   0.062 -0.10 +0.07    +0.115 C 
DOCKED: BRANCH  37  38
DOCKED: ATOM     38  C   UNL d   1     -14.210  -2.412   0.149 -0.18 +0.09    +0.139 C 
DOCKED: ATOM     39  O   UNL d   1     -14.764  -2.819  -0.862 +0.01 -0.22    -0.650 OA
DOCKED: BRANCH  38  40
DOCKED: ATOM     40  O   UNL d   1     -14.621  -2.857   1.350 -0.54 -1.07    -0.776 OA
DOCKED: ATOM     41  H   UNL d   1     -15.557  -3.069   1.477 +0.02 +0.15    +0.167 HD
DOCKED: ENDBRANCH  38  40
DOCKED: ENDBRANCH  37  38
DOCKED: ENDBRANCH  36  37
DOCKED: ENDBRANCH  22  36
DOCKED: BRANCH  12  42
DOCKED: ATOM     42  C   UNL d   1      -4.345   6.402  -0.219 -0.61 +0.00    +0.004 C 
DOCKED: ATOM     43  C   UNL d   1      -3.213   6.634   0.458 -0.54 +0.00    +0.012 C 
DOCKED: ENDBRANCH  12  42
DOCKED: BRANCH  17  44
DOCKED: ATOM     44  C   UNL d   1      -4.912  -1.416  -1.723 -0.62 +0.00    +0.004 C 
DOCKED: ATOM     45  C   UNL d   1      -5.249  -1.809  -2.955 -0.67 +0.00    +0.012 C 
DOCKED: ENDBRANCH  17  44
DOCKED: TORSDOF 10
DOCKED: TER
DOCKED: ENDMDL
________________________________________________________________________________


	BEGINNING GENETIC ALGORITHM DOCKING 15 of 100
Run: 15 Seed: 1788417214 1878271093 [ Run 15 of 100 GA/GALS ]
Beginning LAMARCKIAN GENETIC ALGORITHM (LGA), with a maximum of 25000000 energy evaluations.

Final-Value: -15.944


	FINAL GENETIC ALGORITHM DOCKED STATE
	_______________________________________________


Detailed state:  trans -9.710 0.838 1.827 quatxyzw 0.927705 0.174946 -0.235257 0.231107 center -0.174 -0.001 -0.047 ntor 10 -144.3424 59.3083 71.8587 -128.2883 -16.0492 145.3893 103.9286 43.7698 17.3012 142.6679
State:	 -9.710   0.838   1.827   0.954  0.180 -0.242 153.275   -144.34   59.31   71.86 -128.29  -16.05  145.39  103.93   43.77   17.30  142.67

DOCKED: MODEL       15
DOCKED: USER    Run = 15
DOCKED: USER    DPF = D:/Protein_go_brrr/autodock/final/mut_D99N/heme_Fe/dock.dpf
DOCKED: USER  
DOCKED: USER    Estimated Free Energy of Binding    =  -12.43 kcal/mol  [=(1)+(2)+(3)-(4)]
DOCKED: USER    Estimated Inhibition Constant, Ki   =  769.73 pM (picomolar)  [Temperature = 298.15 K]
DOCKED: USER    
DOCKED: USER    (1) Final Intermolecular Energy     =  -15.42 kcal/mol
DOCKED: USER        vdW + Hbond + desolv Energy     =  -12.76 kcal/mol
DOCKED: USER        Electrostatic Energy            =   -2.65 kcal/mol
DOCKED: USER    (2) Final Total Internal Energy     =   -0.53 kcal/mol
DOCKED: USER    (3) Torsional Free Energy           =   +2.98 kcal/mol
DOCKED: USER    (4) Unbound System's Energy  [=(2)] =   -0.53 kcal/mol
DOCKED: USER    
DOCKED: USER    
DOCKED: USER    NEWDPF move heme_Fe_opt.pdbqt
DOCKED: USER    NEWDPF about -0.174000 -0.001000 -0.047000
DOCKED: USER    NEWDPF tran0 -9.710070 0.838303 1.827145
DOCKED: USER    NEWDPF quaternion0 0.927705 0.174946 -0.235257 0.231107
DOCKED: USER    NEWDPF axisangle0 0.953519 0.179814 -0.241803 153.275464
DOCKED: USER    NEWDPF quat0 0.953519 0.179814 -0.241803 153.275464
DOCKED: USER    NEWDPF dihe0 -144.34 59.31 71.86 -128.29 -16.05 145.39 103.93 43.77 17.30 142.67 
DOCKED: USER  keepresnum = 1 
DOCKED: USER  
DOCKED: REMARK  10 active torsions:
DOCKED: REMARK  status: ('A' for Active; 'I' for Inactive)
DOCKED: REMARK    1  A    between atoms: C_6  and  C_10 
DOCKED: REMARK    2  A    between atoms: C_10  and  C_11 
DOCKED: REMARK    3  A    between atoms: C_11  and  C_12 
DOCKED: REMARK    4  A    between atoms: C_12  and  O_14 
DOCKED: REMARK    5  A    between atoms: C_17  and  C_20 
DOCKED: REMARK    6  A    between atoms: C_24  and  C_27 
DOCKED: REMARK    7  A    between atoms: C_31  and  C_34 
DOCKED: REMARK    8  A    between atoms: C_34  and  C_35 
DOCKED: REMARK    9  A    between atoms: C_35  and  C_36 
DOCKED: REMARK   10  A    between atoms: C_36  and  O_38 
DOCKED: USER                              x       y       z     vdW  Elec       q    Type
DOCKED: USER                           _______ _______ _______ _____ _____    ______ ____
DOCKED: ROOT
DOCKED: ATOM      1  C   UNL d   1     -11.639   0.213   2.146 -0.33 +0.05    +0.064 C 
DOCKED: ATOM      2  C   UNL d   1      -9.232   4.495   2.698 -0.41 +0.01    +0.064 A 
DOCKED: ATOM      3  C   UNL d   1      -5.653   2.751   0.011 -0.44 +0.01    +0.064 C 
DOCKED: ATOM      4  C   UNL d   1      -7.918  -1.438  -0.449 -0.30 +0.01    +0.064 C 
DOCKED: ATOM      5  C   UNL d   1     -11.255   1.550   2.620 -0.16 +0.03    +0.066 A 
DOCKED: ATOM      6  C   UNL d   1     -11.993   2.316   3.508 -0.21 -0.01    -0.021 A 
DOCKED: ATOM      7  C   UNL d   1     -11.326   3.506   3.658 -0.28 -0.00    -0.025 A 
DOCKED: ATOM      8  C   UNL d   1     -10.205   3.421   2.855 -0.26 +0.01    +0.066 A 
DOCKED: ATOM      9  C   UNL d   1     -11.739   4.645   4.539 -0.32 +0.00    +0.051 C 
DOCKED: ATOM     10  C   UNL d   1      -8.113   4.418   1.975 -0.38 +0.02    +0.066 A 
DOCKED: ATOM     11  C   UNL d   1      -7.259   5.500   1.752 -0.46 -0.00    -0.021 A 
DOCKED: ATOM     12  C   UNL d   1      -6.227   5.028   0.965 -0.45 +0.00    +0.000 A 
DOCKED: ATOM     13  C   UNL d   1      -6.513   3.670   0.741 -0.36 +0.01    +0.070 A 
DOCKED: ATOM     14  C   UNL d   1      -7.451   6.932   2.208 -0.54 +0.01    +0.052 C 
DOCKED: ATOM     15  C   UNL d   1      -5.949   1.456  -0.252 -0.39 +0.01    +0.066 A 
DOCKED: ATOM     16  C   UNL d   1      -5.058   0.584  -0.866 -0.36 -0.00    -0.021 A 
DOCKED: ATOM     17  C   UNL d   1      -5.710  -0.624  -1.002 -0.45 +0.00    +0.000 A 
DOCKED: ATOM     18  C   UNL d   1      -6.988  -0.459  -0.472 -0.41 +0.01    +0.070 A 
DOCKED: ATOM     19  C   UNL d   1      -3.657   0.879  -1.329 -0.32 +0.00    +0.052 C 
DOCKED: ATOM     20  C   UNL d   1      -9.250  -1.320   0.156 -0.23 +0.02    +0.066 A 
DOCKED: ATOM     21  C   UNL d   1     -10.290  -2.249   0.013 -0.04 -0.01    -0.025 A 
DOCKED: ATOM     22  C   UNL d   1     -11.336  -1.765   0.771 -0.07 -0.02    -0.021 A 
DOCKED: ATOM     23  C   UNL d   1     -10.898  -0.563   1.338 -0.32 +0.04    +0.066 A 
DOCKED: ATOM     24  C   UNL d   1     -10.310  -3.526  -0.795 -0.25 +0.01    +0.051 C 
DOCKED: ATOM     25  N   UNL d   1     -10.160   2.227   2.232 -0.18 -0.07    -0.248 N 
DOCKED: ATOM     26  N   UNL d   1      -7.667   3.300   1.349 -0.06 -0.10    -0.248 N 
DOCKED: ATOM     27  N   UNL d   1      -7.120   0.806   0.029 -0.26 -0.04    -0.248 N 
DOCKED: ATOM     28  N   UNL d   1      -9.641  -0.274   0.923 -0.26 -0.09    -0.248 N 
DOCKED: ATOM     29 FE   UNL d   1      -8.653   1.511   1.135 -0.09 +0.00    +0.000 Fe
DOCKED: ENDROOT
DOCKED: BRANCH   6  30
DOCKED: ATOM     30  C   UNL d   1     -13.257   1.930   4.197 -0.18 +0.02    +0.052 C 
DOCKED: BRANCH  30  31
DOCKED: ATOM     31  C   UNL d   1     -13.002   1.640   5.672 -0.14 +0.05    +0.115 C 
DOCKED: BRANCH  31  32
DOCKED: ATOM     32  C   UNL d   1     -12.346   0.298   5.839 -0.16 +0.12    +0.139 C 
DOCKED: ATOM     33  O   UNL d   1     -12.353  -0.517   4.926 -0.42 -1.29    -0.650 OA
DOCKED: BRANCH  32  34
DOCKED: ATOM     34  O   UNL d   1     -11.743  -0.020   6.997 -0.40 -0.56    -0.776 OA
DOCKED: ATOM     35  H   UNL d   1     -12.124   0.299   7.827 +0.06 +0.08    +0.167 HD
DOCKED: ENDBRANCH  32  34
DOCKED: ENDBRANCH  31  32
DOCKED: ENDBRANCH  30  31
DOCKED: ENDBRANCH   6  30
DOCKED: BRANCH  22  36
DOCKED: ATOM     36  C   UNL d   1     -12.696  -2.400   0.900 +0.34 +0.06    +0.052 C 
DOCKED: BRANCH  36  37
DOCKED: ATOM     37  C   UNL d   1     -13.763  -1.430   0.416 -0.14 +0.09    +0.115 C 
DOCKED: BRANCH  37  38
DOCKED: ATOM     38  C   UNL d   1     -14.948  -1.427   1.340 -0.14 +0.13    +0.139 C 
DOCKED: ATOM     39  O   UNL d   1     -15.577  -0.400   1.547 +0.02 -0.37    -0.650 OA
DOCKED: BRANCH  38  40
DOCKED: ATOM     40  O   UNL d   1     -15.324  -2.564   1.952 -0.53 -1.01    -0.776 OA
DOCKED: ATOM     41  H   UNL d   1     -16.217  -2.905   1.803 +0.02 +0.12    +0.167 HD
DOCKED: ENDBRANCH  38  40
DOCKED: ENDBRANCH  37  38
DOCKED: ENDBRANCH  36  37
DOCKED: ENDBRANCH  22  36
DOCKED: BRANCH  12  42
DOCKED: ATOM     42  C   UNL d   1      -5.081   5.851   0.470 -0.58 +0.00    +0.004 C 
DOCKED: ATOM     43  C   UNL d   1      -3.819   5.544   0.797 -0.61 +0.00    +0.012 C 
DOCKED: ENDBRANCH  12  42
DOCKED: BRANCH  17  44
DOCKED: ATOM     44  C   UNL d   1      -5.141  -1.861  -1.584 -0.62 -0.00    +0.004 C 
DOCKED: ATOM     45  C   UNL d   1      -4.970  -1.981  -2.904 -0.70 -0.00    +0.012 C 
DOCKED: ENDBRANCH  17  44
DOCKED: TORSDOF 10
DOCKED: TER
DOCKED: ENDMDL
________________________________________________________________________________


	BEGINNING GENETIC ALGORITHM DOCKING 16 of 100
Run: 16 Seed: 94609697 1961658256 [ Run 16 of 100 GA/GALS ]
Beginning LAMARCKIAN GENETIC ALGORITHM (LGA), with a maximum of 25000000 energy evaluations.

Final-Value: -10.662


	FINAL GENETIC ALGORITHM DOCKED STATE
	_______________________________________________


Detailed state:  trans -9.957 -5.030 -18.319 quatxyzw 0.236561 -0.118734 0.867677 0.420806 center -0.174 -0.001 -0.047 ntor 10 130.4258 163.1867 -162.0902 -165.3796 99.0108 -74.1655 30.5008 69.0596 -30.0251 -162.4016
State:	 -9.957  -5.030 -18.319   0.261 -0.131  0.956 130.229    130.43  163.19 -162.09 -165.38   99.01  -74.17   30.50   69.06  -30.03 -162.40

DOCKED: MODEL       16
DOCKED: USER    Run = 16
DOCKED: USER    DPF = D:/Protein_go_brrr/autodock/final/mut_D99N/heme_Fe/dock.dpf
DOCKED: USER  
DOCKED: USER    Estimated Free Energy of Binding    =   -7.25 kcal/mol  [=(1)+(2)+(3)-(4)]
DOCKED: USER    Estimated Inhibition Constant, Ki   =    4.89 uM (micromolar)  [Temperature = 298.15 K]
DOCKED: USER    
DOCKED: USER    (1) Final Intermolecular Energy     =  -10.23 kcal/mol
DOCKED: USER        vdW + Hbond + desolv Energy     =   -6.54 kcal/mol
DOCKED: USER        Electrostatic Energy            =   -3.69 kcal/mol
DOCKED: USER    (2) Final Total Internal Energy     =   -0.43 kcal/mol
DOCKED: USER    (3) Torsional Free Energy           =   +2.98 kcal/mol
DOCKED: USER    (4) Unbound System's Energy  [=(2)] =   -0.43 kcal/mol
DOCKED: USER    
DOCKED: USER    
DOCKED: USER    NEWDPF move heme_Fe_opt.pdbqt
DOCKED: USER    NEWDPF about -0.174000 -0.001000 -0.047000
DOCKED: USER    NEWDPF tran0 -9.957388 -5.029644 -18.319227
DOCKED: USER    NEWDPF quaternion0 0.236561 -0.118734 0.867677 0.420806
DOCKED: USER    NEWDPF axisangle0 0.260773 -0.130887 0.956486 130.228976
DOCKED: USER    NEWDPF quat0 0.260773 -0.130887 0.956486 130.228976
DOCKED: USER    NEWDPF dihe0 130.43 163.19 -162.09 -165.38 99.01 -74.17 30.50 69.06 -30.03 -162.40 
DOCKED: USER  keepresnum = 1 
DOCKED: USER  
DOCKED: REMARK  10 active torsions:
DOCKED: REMARK  status: ('A' for Active; 'I' for Inactive)
DOCKED: REMARK    1  A    between atoms: C_6  and  C_10 
DOCKED: REMARK    2  A    between atoms: C_10  and  C_11 
DOCKED: REMARK    3  A    between atoms: C_11  and  C_12 
DOCKED: REMARK    4  A    between atoms: C_12  and  O_14 
DOCKED: REMARK    5  A    between atoms: C_17  and  C_20 
DOCKED: REMARK    6  A    between atoms: C_24  and  C_27 
DOCKED: REMARK    7  A    between atoms: C_31  and  C_34 
DOCKED: REMARK    8  A    between atoms: C_34  and  C_35 
DOCKED: REMARK    9  A    between atoms: C_35  and  C_36 
DOCKED: REMARK   10  A    between atoms: C_36  and  O_38 
DOCKED: USER                              x       y       z     vdW  Elec       q    Type
DOCKED: USER                           _______ _______ _______ _____ _____    ______ ____
DOCKED: ROOT
DOCKED: ATOM      1  C   UNL d   1      -8.668  -3.439 -18.453 -0.23 +0.02    +0.064 C 
DOCKED: ATOM      2  C   UNL d   1     -12.958  -4.256 -16.139 -0.14 +0.01    +0.064 A 
DOCKED: ATOM      3  C   UNL d   1     -12.402  -8.963 -16.917 -0.08 +0.01    +0.064 C 
DOCKED: ATOM      4  C   UNL d   1      -8.301  -8.185 -19.253 -0.16 +0.00    +0.064 C 
DOCKED: ATOM      5  C   UNL d   1      -9.968  -3.225 -17.803 -0.22 +0.02    +0.066 A 
DOCKED: ATOM      6  C   UNL d   1     -10.518  -1.985 -17.522 -0.25 -0.01    -0.021 A 
DOCKED: ATOM      7  C   UNL d   1     -11.707  -2.213 -16.876 -0.23 -0.01    -0.025 A 
DOCKED: ATOM      8  C   UNL d   1     -11.839  -3.585 -16.787 -0.18 +0.01    +0.066 A 
DOCKED: ATOM      9  C   UNL d   1     -12.664  -1.166 -16.394 -0.23 +0.02    +0.051 C 
DOCKED: ATOM     10  C   UNL d   1     -13.138  -5.577 -16.089 -0.12 +0.01    +0.066 A 
DOCKED: ATOM     11  C   UNL d   1     -14.159  -6.194 -15.362 -0.09 -0.00    -0.021 A 
DOCKED: ATOM     12  C   UNL d   1     -14.010  -7.552 -15.557 -0.07 +0.00    +0.000 A 
DOCKED: ATOM     13  C   UNL d   1     -12.890  -7.696 -16.394 -0.10 +0.01    +0.070 A 
DOCKED: ATOM     14  C   UNL d   1     -15.185  -5.525 -14.470 -0.08 +0.00    +0.052 C 
DOCKED: ATOM     15  C   UNL d   1     -11.294  -9.111 -17.681 -0.04 +0.00    +0.066 A 
DOCKED: ATOM     16  C   UNL d   1     -10.918 -10.324 -18.243 -0.07 -0.00    -0.021 A 
DOCKED: ATOM     17  C   UNL d   1      -9.733 -10.103 -18.915 -0.09 +0.00    +0.000 A 
DOCKED: ATOM     18  C   UNL d   1      -9.412  -8.759 -18.742 -0.10 +0.00    +0.070 A 
DOCKED: ATOM     19  C   UNL d   1     -11.628 -11.647 -18.135 -0.02 +0.00    +0.052 C 
DOCKED: ATOM     20  C   UNL d   1      -7.961  -6.761 -19.144 -0.16 +0.00    +0.066 A 
DOCKED: ATOM     21  C   UNL d   1      -6.727  -6.194 -19.490 -0.21 -0.00    -0.025 A 
DOCKED: ATOM     22  C   UNL d   1      -6.858  -4.839 -19.267 -0.20 -0.01    -0.021 A 
DOCKED: ATOM     23  C   UNL d   1      -8.158  -4.635 -18.789 -0.18 +0.01    +0.066 A 
DOCKED: ATOM     24  C   UNL d   1      -5.483  -6.882 -20.002 -0.14 +0.00    +0.051 C 
DOCKED: ATOM     25  N   UNL d   1     -10.784  -4.198 -17.360 -0.16 -0.04    -0.248 N 
DOCKED: ATOM     26  N   UNL d   1     -12.353  -6.493 -16.712 -0.11 -0.03    -0.248 N 
DOCKED: ATOM     27  N   UNL d   1     -10.393  -8.138 -18.020 -0.04 -0.00    -0.248 N 
DOCKED: ATOM     28  N   UNL d   1      -8.811  -5.817 -18.673 -0.07 -0.00    -0.248 N 
DOCKED: ATOM     29 FE   UNL d   1     -10.581  -6.156 -17.693 -0.04 -0.00    +0.000 Fe
DOCKED: ENDROOT
DOCKED: BRANCH   6  30
DOCKED: ATOM     30  C   UNL d   1      -9.953  -0.650 -17.869 -0.09 +0.03    +0.052 C 
DOCKED: BRANCH  30  31
DOCKED: ATOM     31  C   UNL d   1      -9.773  -0.514 -19.377 -0.18 +0.08    +0.115 C 
DOCKED: BRANCH  31  32
DOCKED: ATOM     32  C   UNL d   1      -8.612   0.389 -19.689 -0.06 +0.19    +0.139 C 
DOCKED: ATOM     33  O   UNL d   1      -7.519  -0.079 -19.976 -0.46 -1.07    -0.650 OA
DOCKED: BRANCH  32  34
DOCKED: ATOM     34  O   UNL d   1      -8.766   1.723 -19.655 -0.06 -1.30    -0.776 OA
DOCKED: ATOM     35  H   UNL d   1      -9.511   2.122 -20.126 +0.02 +0.14    +0.167 HD
DOCKED: ENDBRANCH  32  34
DOCKED: ENDBRANCH  31  32
DOCKED: ENDBRANCH  30  31
DOCKED: ENDBRANCH   6  30
DOCKED: BRANCH  22  36
DOCKED: ATOM     36  C   UNL d   1      -5.777  -3.807 -19.456 -0.22 +0.03    +0.052 C 
DOCKED: BRANCH  36  37
DOCKED: ATOM     37  C   UNL d   1      -4.653  -4.054 -18.460 -0.33 +0.08    +0.115 C 
DOCKED: BRANCH  37  38
DOCKED: ATOM     38  C   UNL d   1      -4.588  -2.954 -17.438 -0.40 +0.17    +0.139 C 
DOCKED: ATOM     39  O   UNL d   1      -4.145  -1.854 -17.731 -0.38 -1.41    -0.650 OA
DOCKED: BRANCH  38  40
DOCKED: ATOM     40  O   UNL d   1      -5.017  -3.178 -16.183 -0.47 -0.81    -0.776 OA
DOCKED: ATOM     41  H   UNL d   1      -5.584  -3.943 -16.010 +0.08 +0.15    +0.167 HD
DOCKED: ENDBRANCH  38  40
DOCKED: ENDBRANCH  37  38
DOCKED: ENDBRANCH  36  37
DOCKED: ENDBRANCH  22  36
DOCKED: BRANCH  12  42
DOCKED: ATOM     42  C   UNL d   1     -14.886  -8.604 -14.953 -0.03 +0.00    +0.004 C 
DOCKED: ATOM     43  C   UNL d   1     -14.401  -9.473 -14.056 -0.03 +0.00    +0.012 C 
DOCKED: ENDBRANCH  12  42
DOCKED: BRANCH  17  44
DOCKED: ATOM     44  C   UNL d   1      -8.969 -11.108 -19.688 -0.04 +0.00    +0.004 C 
DOCKED: ATOM     45  C   UNL d   1      -7.778 -11.541 -19.260 -0.06 +0.00    +0.012 C 
DOCKED: ENDBRANCH  17  44
DOCKED: TORSDOF 10
DOCKED: TER
DOCKED: ENDMDL
________________________________________________________________________________


	BEGINNING GENETIC ALGORITHM DOCKING 17 of 100
Run: 17 Seed: 1908758050 2007402882 [ Run 17 of 100 GA/GALS ]
Beginning LAMARCKIAN GENETIC ALGORITHM (LGA), with a maximum of 25000000 energy evaluations.

Final-Value: -11.592


	FINAL GENETIC ALGORITHM DOCKED STATE
	_______________________________________________


Detailed state:  trans 0.294 17.763 0.209 quatxyzw -0.394691 -0.003400 0.096021 0.913776 center -0.174 -0.001 -0.047 ntor 10 -178.9443 15.8071 -142.7714 -157.0548 -58.7189 -16.4729 -0.4641 -72.4854 -24.6346 1.5074
State:	  0.294  17.763   0.209  -0.972 -0.008  0.236 47.935   -178.94   15.81 -142.77 -157.05  -58.72  -16.47   -0.46  -72.49  -24.63    1.51

DOCKED: MODEL       17
DOCKED: USER    Run = 17
DOCKED: USER    DPF = D:/Protein_go_brrr/autodock/final/mut_D99N/heme_Fe/dock.dpf
DOCKED: USER  
DOCKED: USER    Estimated Free Energy of Binding    =   -6.53 kcal/mol  [=(1)+(2)+(3)-(4)]
DOCKED: USER    Estimated Inhibition Constant, Ki   =   16.43 uM (micromolar)  [Temperature = 298.15 K]
DOCKED: USER    
DOCKED: USER    (1) Final Intermolecular Energy     =   -9.51 kcal/mol
DOCKED: USER        vdW + Hbond + desolv Energy     =   -7.80 kcal/mol
DOCKED: USER        Electrostatic Energy            =   -1.71 kcal/mol
DOCKED: USER    (2) Final Total Internal Energy     =   -2.08 kcal/mol
DOCKED: USER    (3) Torsional Free Energy           =   +2.98 kcal/mol
DOCKED: USER    (4) Unbound System's Energy  [=(2)] =   -2.08 kcal/mol
DOCKED: USER    
DOCKED: USER    
DOCKED: USER    NEWDPF move heme_Fe_opt.pdbqt
DOCKED: USER    NEWDPF about -0.174000 -0.001000 -0.047000
DOCKED: USER    NEWDPF tran0 0.294149 17.762814 0.208908
DOCKED: USER    NEWDPF quaternion0 -0.394691 -0.003400 0.096021 0.913776
DOCKED: USER    NEWDPF axisangle0 -0.971625 -0.008369 0.236378 47.934898
DOCKED: USER    NEWDPF quat0 -0.971625 -0.008369 0.236378 47.934898
DOCKED: USER    NEWDPF dihe0 -178.94 15.81 -142.77 -157.05 -58.72 -16.47 -0.46 -72.49 -24.63 1.51 
DOCKED: USER  keepresnum = 1 
DOCKED: USER  
DOCKED: REMARK  10 active torsions:
DOCKED: REMARK  status: ('A' for Active; 'I' for Inactive)
DOCKED: REMARK    1  A    between atoms: C_6  and  C_10 
DOCKED: REMARK    2  A    between atoms: C_10  and  C_11 
DOCKED: REMARK    3  A    between atoms: C_11  and  C_12 
DOCKED: REMARK    4  A    between atoms: C_12  and  O_14 
DOCKED: REMARK    5  A    between atoms: C_17  and  C_20 
DOCKED: REMARK    6  A    between atoms: C_24  and  C_27 
DOCKED: REMARK    7  A    between atoms: C_31  and  C_34 
DOCKED: REMARK    8  A    between atoms: C_34  and  C_35 
DOCKED: REMARK    9  A    between atoms: C_35  and  C_36 
DOCKED: REMARK   10  A    between atoms: C_36  and  O_38 
DOCKED: USER                              x       y       z     vdW  Elec       q    Type
DOCKED: USER                           _______ _______ _______ _____ _____    ______ ____
DOCKED: ROOT
DOCKED: ATOM      1  C   UNL d   1      -1.698  17.682   0.695 -0.18 +0.01    +0.064 C 
DOCKED: ATOM      2  C   UNL d   1       1.308  14.963  -2.134 -0.29 -0.00    +0.064 A 
DOCKED: ATOM      3  C   UNL d   1       5.078  17.081  -0.044 -0.15 +0.00    +0.064 C 
DOCKED: ATOM      4  C   UNL d   1       2.186  19.798   2.628 -0.15 +0.00    +0.064 C 
DOCKED: ATOM      5  C   UNL d   1      -1.202  16.780  -0.354 -0.13 +0.01    +0.066 A 
DOCKED: ATOM      6  C   UNL d   1      -2.006  16.080  -1.239 -0.28 -0.00    -0.021 A 
DOCKED: ATOM      7  C   UNL d   1      -1.171  15.322  -2.022 -0.33 -0.00    -0.025 A 
DOCKED: ATOM      8  C   UNL d   1       0.112  15.590  -1.585 -0.25 +0.00    +0.066 A 
DOCKED: ATOM      9  C   UNL d   1      -1.589  14.412  -3.136 -0.35 +0.00    +0.051 C 
DOCKED: ATOM     10  C   UNL d   1       2.560  15.245  -1.770 -0.23 -0.00    +0.066 A 
DOCKED: ATOM     11  C   UNL d   1       3.678  14.547  -2.232 -0.27 +0.00    -0.021 A 
DOCKED: ATOM     12  C   UNL d   1       4.777  15.128  -1.631 -0.20 +0.00    +0.000 A 
DOCKED: ATOM     13  C   UNL d   1       4.266  16.155  -0.819 -0.15 +0.00    +0.070 A 
DOCKED: ATOM     14  C   UNL d   1       3.693  13.340  -3.149 -0.26 -0.01    +0.052 C 
DOCKED: ATOM     15  C   UNL d   1       4.590  18.038   0.779 -0.13 +0.00    +0.066 A 
DOCKED: ATOM     16  C   UNL d   1       5.396  18.967   1.424 -0.07 -0.00    -0.021 A 
DOCKED: ATOM     17  C   UNL d   1       4.565  19.750   2.199 -0.08 +0.00    +0.000 A 
DOCKED: ATOM     18  C   UNL d   1       3.268  19.276   2.011 -0.13 +0.00    +0.070 A 
DOCKED: ATOM     19  C   UNL d   1       6.893  19.101   1.338 -0.03 +0.00    +0.052 C 
DOCKED: ATOM     20  C   UNL d   1       0.801  19.365   2.408 -0.19 +0.01    +0.066 A 
DOCKED: ATOM     21  C   UNL d   1      -0.302  19.755   3.182 -0.17 -0.00    -0.025 A 
DOCKED: ATOM     22  C   UNL d   1      -1.400  19.150   2.606 -0.20 -0.00    -0.021 A 
DOCKED: ATOM     23  C   UNL d   1      -0.926  18.415   1.513 -0.20 +0.01    +0.066 A 
DOCKED: ATOM     24  C   UNL d   1      -0.330  20.645   4.403 -0.10 +0.00    +0.051 C 
DOCKED: ATOM     25  N   UNL d   1       0.090  16.484  -0.576 -0.15 -0.01    -0.248 N 
DOCKED: ATOM     26  N   UNL d   1       2.915  16.221  -0.896 -0.10 -0.01    -0.248 N 
DOCKED: ATOM     27  N   UNL d   1       3.277  18.252   1.105 -0.13 -0.01    -0.248 N 
DOCKED: ATOM     28  N   UNL d   1       0.423  18.513   1.425 -0.20 -0.03    -0.248 N 
DOCKED: ATOM     29 FE   UNL d   1       1.669  17.369   0.266 -0.06 +0.00    +0.000 Fe
DOCKED: ENDROOT
DOCKED: BRANCH   6  30
DOCKED: ATOM     30  C   UNL d   1      -3.491  16.142  -1.352 -0.32 +0.03    +0.052 C 
DOCKED: BRANCH  30  31
DOCKED: ATOM     31  C   UNL d   1      -3.942  17.531  -1.790 -0.15 +0.06    +0.115 C 
DOCKED: BRANCH  31  32
DOCKED: ATOM     32  C   UNL d   1      -5.439  17.584  -1.911 -0.02 +0.13    +0.139 C 
DOCKED: ATOM     33  O   UNL d   1      -6.030  16.831  -2.673 -0.99 -0.60    -0.650 OA
DOCKED: BRANCH  32  34
DOCKED: ATOM     34  O   UNL d   1      -6.145  18.464  -1.180 -0.43 -0.79    -0.776 OA
DOCKED: ATOM     35  H   UNL d   1      -5.674  19.069  -0.590 +0.01 +0.14    +0.167 HD
DOCKED: ENDBRANCH  32  34
DOCKED: ENDBRANCH  31  32
DOCKED: ENDBRANCH  30  31
DOCKED: ENDBRANCH   6  30
DOCKED: BRANCH  22  36
DOCKED: ATOM     36  C   UNL d   1      -2.817  19.237   3.108 -0.17 +0.02    +0.052 C 
DOCKED: BRANCH  36  37
DOCKED: ATOM     37  C   UNL d   1      -3.579  20.290   2.317 -0.07 +0.03    +0.115 C 
DOCKED: BRANCH  37  38
DOCKED: ATOM     38  C   UNL d   1      -4.551  19.651   1.367 -0.09 +0.07    +0.139 C 
DOCKED: ATOM     39  O   UNL d   1      -4.455  18.468   1.076 +0.04 -0.53    -0.650 OA
DOCKED: BRANCH  38  40
DOCKED: ATOM     40  O   UNL d   1      -5.539  20.384   0.823 -0.03 -0.37    -0.776 OA
DOCKED: ATOM     41  H   UNL d   1      -6.283  19.932   0.402 +0.01 +0.12    +0.167 HD
DOCKED: ENDBRANCH  38  40
DOCKED: ENDBRANCH  37  38
DOCKED: ENDBRANCH  36  37
DOCKED: ENDBRANCH  22  36
DOCKED: BRANCH  12  42
DOCKED: ATOM     42  C   UNL d   1       6.193  14.690  -1.831 -0.16 +0.00    +0.004 C 
DOCKED: ATOM     43  C   UNL d   1       6.776  13.835  -0.981 -0.23 +0.00    +0.012 C 
DOCKED: ENDBRANCH  12  42
DOCKED: BRANCH  17  44
DOCKED: ATOM     44  C   UNL d   1       4.981  20.890   3.047 -0.03 +0.00    +0.004 C 
DOCKED: ATOM     45  C   UNL d   1       5.071  20.758   4.374 -0.03 +0.00    +0.012 C 
DOCKED: ENDBRANCH  17  44
DOCKED: TORSDOF 10
DOCKED: TER
DOCKED: ENDMDL
________________________________________________________________________________


	BEGINNING GENETIC ALGORITHM DOCKING 18 of 100
Run: 18 Seed: 1392944158 1617106708 [ Run 18 of 100 GA/GALS ]
Beginning LAMARCKIAN GENETIC ALGORITHM (LGA), with a maximum of 25000000 energy evaluations.

Final-Value: -14.745


	FINAL GENETIC ALGORITHM DOCKED STATE
	_______________________________________________


Detailed state:  trans -7.218 1.642 -0.267 quatxyzw -0.349826 0.022297 -0.719028 0.600103 center -0.174 -0.001 -0.047 ntor 10 99.9841 -180.0000 -0.2933 -151.7668 153.7913 -46.5938 93.0059 -45.8474 -163.9168 -158.8625
State:	 -7.218   1.642  -0.267  -0.437  0.028 -0.899 106.245     99.98 -180.00   -0.29 -151.77  153.79  -46.59   93.01  -45.85 -163.92 -158.86

DOCKED: MODEL       18
DOCKED: USER    Run = 18
DOCKED: USER    DPF = D:/Protein_go_brrr/autodock/final/mut_D99N/heme_Fe/dock.dpf
DOCKED: USER  
DOCKED: USER    Estimated Free Energy of Binding    =  -11.12 kcal/mol  [=(1)+(2)+(3)-(4)]
DOCKED: USER    Estimated Inhibition Constant, Ki   =    7.02 nM (nanomolar)  [Temperature = 298.15 K]
DOCKED: USER    
DOCKED: USER    (1) Final Intermolecular Energy     =  -14.11 kcal/mol
DOCKED: USER        vdW + Hbond + desolv Energy     =  -13.75 kcal/mol
DOCKED: USER        Electrostatic Energy            =   -0.36 kcal/mol
DOCKED: USER    (2) Final Total Internal Energy     =   -0.64 kcal/mol
DOCKED: USER    (3) Torsional Free Energy           =   +2.98 kcal/mol
DOCKED: USER    (4) Unbound System's Energy  [=(2)] =   -0.64 kcal/mol
DOCKED: USER    
DOCKED: USER    
DOCKED: USER    NEWDPF move heme_Fe_opt.pdbqt
DOCKED: USER    NEWDPF about -0.174000 -0.001000 -0.047000
DOCKED: USER    NEWDPF tran0 -7.217607 1.641701 -0.266541
DOCKED: USER    NEWDPF quaternion0 -0.349826 0.022297 -0.719028 0.600103
DOCKED: USER    NEWDPF axisangle0 -0.437324 0.027875 -0.898872 106.245416
DOCKED: USER    NEWDPF quat0 -0.437324 0.027875 -0.898872 106.245416
DOCKED: USER    NEWDPF dihe0 99.98 -180.00 -0.29 -151.77 153.79 -46.59 93.01 -45.85 -163.92 -158.86 
DOCKED: USER  keepresnum = 1 
DOCKED: USER  
DOCKED: REMARK  10 active torsions:
DOCKED: REMARK  status: ('A' for Active; 'I' for Inactive)
DOCKED: REMARK    1  A    between atoms: C_6  and  C_10 
DOCKED: REMARK    2  A    between atoms: C_10  and  C_11 
DOCKED: REMARK    3  A    between atoms: C_11  and  C_12 
DOCKED: REMARK    4  A    between atoms: C_12  and  O_14 
DOCKED: REMARK    5  A    between atoms: C_17  and  C_20 
DOCKED: REMARK    6  A    between atoms: C_24  and  C_27 
DOCKED: REMARK    7  A    between atoms: C_31  and  C_34 
DOCKED: REMARK    8  A    between atoms: C_34  and  C_35 
DOCKED: REMARK    9  A    between atoms: C_35  and  C_36 
DOCKED: REMARK   10  A    between atoms: C_36  and  O_38 
DOCKED: USER                              x       y       z     vdW  Elec       q    Type
DOCKED: USER                           _______ _______ _______ _____ _____    ______ ____
DOCKED: ROOT
DOCKED: ATOM      1  C   UNL d   1      -6.843  -0.261  -0.938 -0.48 +0.01    +0.064 C 
DOCKED: ATOM      2  C   UNL d   1      -4.142   3.848  -0.439 -0.18 +0.01    +0.064 A 
DOCKED: ATOM      3  C   UNL d   1      -7.581   5.685   2.366 -0.36 +0.01    +0.064 C 
DOCKED: ATOM      4  C   UNL d   1     -10.258   1.760   1.811 -0.34 +0.02    +0.064 C 
DOCKED: ATOM      5  C   UNL d   1      -5.801   0.758  -1.125 -0.42 +0.01    +0.066 A 
DOCKED: ATOM      6  C   UNL d   1      -4.705   0.624  -1.961 -0.37 -0.00    -0.021 A 
DOCKED: ATOM      7  C   UNL d   1      -3.954   1.764  -1.819 -0.41 -0.00    -0.025 A 
DOCKED: ATOM      8  C   UNL d   1      -4.621   2.552  -0.901 -0.33 +0.01    +0.066 A 
DOCKED: ATOM      9  C   UNL d   1      -2.680   2.078  -2.543 -0.55 +0.00    +0.051 C 
DOCKED: ATOM     10  C   UNL d   1      -4.794   4.653   0.402 -0.41 +0.01    +0.066 A 
DOCKED: ATOM     11  C   UNL d   1      -4.258   5.836   0.916 -0.52 -0.00    -0.021 A 
DOCKED: ATOM     12  C   UNL d   1      -5.224   6.376   1.741 -0.49 +0.00    +0.000 A 
DOCKED: ATOM     13  C   UNL d   1      -6.307   5.482   1.694 -0.39 +0.01    +0.070 A 
DOCKED: ATOM     14  C   UNL d   1      -2.867   6.390   0.686 -0.40 +0.01    +0.052 C 
DOCKED: ATOM     15  C   UNL d   1      -8.608   4.803   2.366 -0.42 +0.01    +0.066 A 
DOCKED: ATOM     16  C   UNL d   1      -9.844   5.077   2.936 -0.45 -0.00    -0.021 A 
DOCKED: ATOM     17  C   UNL d   1     -10.617   3.945   2.780 -0.30 +0.00    +0.000 A 
DOCKED: ATOM     18  C   UNL d   1      -9.830   3.003   2.121 -0.21 +0.02    +0.070 A 
DOCKED: ATOM     19  C   UNL d   1     -10.277   6.344   3.624 -0.52 -0.00    +0.052 C 
DOCKED: ATOM     20  C   UNL d   1      -9.481   0.764   1.064 -0.28 +0.02    +0.066 A 
DOCKED: ATOM     21  C   UNL d   1      -9.829  -0.586   0.909 -0.38 -0.01    -0.025 A 
DOCKED: ATOM     22  C   UNL d   1      -8.848  -1.140   0.112 -0.35 -0.00    -0.021 A 
DOCKED: ATOM     23  C   UNL d   1      -7.942  -0.114  -0.182 -0.37 +0.01    +0.066 A 
DOCKED: ATOM     24  C   UNL d   1     -11.016  -1.325   1.481 +0.02 +0.05    +0.051 C 
DOCKED: ATOM     25  N   UNL d   1      -5.750   1.941  -0.488 -0.27 -0.02    -0.248 N 
DOCKED: ATOM     26  N   UNL d   1      -6.043   4.427   0.885 -0.24 -0.04    -0.248 N 
DOCKED: ATOM     27  N   UNL d   1      -8.610   3.544   1.827 -0.11 -0.10    -0.248 N 
DOCKED: ATOM     28  N   UNL d   1      -8.310   1.034   0.438 -0.14 -0.06    -0.248 N 
DOCKED: ATOM     29 FE   UNL d   1      -7.178   2.730   0.663 -0.09 +0.00    +0.000 Fe
DOCKED: ENDROOT
DOCKED: BRANCH   6  30
DOCKED: ATOM     30  C   UNL d   1      -4.396  -0.519  -2.867 -0.28 +0.00    +0.052 C 
DOCKED: BRANCH  30  31
DOCKED: ATOM     31  C   UNL d   1      -3.900  -1.720  -2.070 -0.57 -0.00    +0.115 C 
DOCKED: BRANCH  31  32
DOCKED: ATOM     32  C   UNL d   1      -2.414  -1.636  -1.860 -0.52 +0.00    +0.139 C 
DOCKED: ATOM     33  O   UNL d   1      -1.888  -2.180  -0.899 -0.08 +0.00    -0.650 OA
DOCKED: BRANCH  32  34
DOCKED: ATOM     34  O   UNL d   1      -1.647  -0.959  -2.732 +0.12 -0.04    -0.776 OA
DOCKED: ATOM     35  H   UNL d   1      -1.396  -1.383  -3.564 +0.14 +0.01    +0.167 HD
DOCKED: ENDBRANCH  32  34
DOCKED: ENDBRANCH  31  32
DOCKED: ENDBRANCH  30  31
DOCKED: ENDBRANCH   6  30
DOCKED: BRANCH  22  36
DOCKED: ATOM     36  C   UNL d   1      -8.763  -2.585  -0.301 -0.22 +0.01    +0.052 C 
DOCKED: BRANCH  36  37
DOCKED: ATOM     37  C   UNL d   1      -8.611  -3.464   0.932 -0.22 +0.02    +0.115 C 
DOCKED: BRANCH  37  38
DOCKED: ATOM     38  C   UNL d   1      -9.549  -4.636   0.877 -0.23 +0.03    +0.139 C 
DOCKED: ATOM     39  O   UNL d   1     -10.724  -4.484   0.577 +0.01 -0.30    -0.650 OA
DOCKED: BRANCH  38  40
DOCKED: ATOM     40  O   UNL d   1      -9.098  -5.870   1.164 -0.01 +0.00    -0.776 OA
DOCKED: ATOM     41  H   UNL d   1      -8.167  -5.988   1.399 -0.48 -0.06    +0.167 HD
DOCKED: ENDBRANCH  38  40
DOCKED: ENDBRANCH  37  38
DOCKED: ENDBRANCH  36  37
DOCKED: ENDBRANCH  22  36
DOCKED: BRANCH  12  42
DOCKED: ATOM     42  C   UNL d   1      -5.075   7.648   2.515 -0.63 +0.00    +0.004 C 
DOCKED: ATOM     43  C   UNL d   1      -4.608   8.759   1.931 -0.67 +0.00    +0.012 C 
DOCKED: ENDBRANCH  12  42
DOCKED: BRANCH  17  44
DOCKED: ATOM     44  C   UNL d   1     -12.023   3.783   3.215 -0.06 +0.00    +0.004 C 
DOCKED: ATOM     45  C   UNL d   1     -12.316   3.176   4.370 -0.26 +0.00    +0.012 C 
DOCKED: ENDBRANCH  17  44
DOCKED: TORSDOF 10
DOCKED: TER
DOCKED: ENDMDL
________________________________________________________________________________


	BEGINNING GENETIC ALGORITHM DOCKING 19 of 100
Run: 19 Seed: 686992478 858126292 [ Run 19 of 100 GA/GALS ]
Beginning LAMARCKIAN GENETIC ALGORITHM (LGA), with a maximum of 25000000 energy evaluations.

Final-Value: -15.826


	FINAL GENETIC ALGORITHM DOCKED STATE
	_______________________________________________


Detailed state:  trans -9.054 1.698 1.797 quatxyzw 0.930970 0.131265 -0.268016 0.210311 center -0.174 -0.001 -0.047 ntor 10 -127.9315 -24.8187 31.0446 -147.5941 175.9191 159.2121 -77.0030 -0.0053 -139.6630 -161.9838
State:	 -9.054   1.698   1.797   0.952  0.134 -0.274 155.719   -127.93  -24.82   31.04 -147.59  175.92  159.21  -77.00   -0.01 -139.66 -161.98

DOCKED: MODEL       19
DOCKED: USER    Run = 19
DOCKED: USER    DPF = D:/Protein_go_brrr/autodock/final/mut_D99N/heme_Fe/dock.dpf
DOCKED: USER  
DOCKED: USER    Estimated Free Energy of Binding    =  -12.70 kcal/mol  [=(1)+(2)+(3)-(4)]
DOCKED: USER    Estimated Inhibition Constant, Ki   =  491.70 pM (picomolar)  [Temperature = 298.15 K]
DOCKED: USER    
DOCKED: USER    (1) Final Intermolecular Energy     =  -15.68 kcal/mol
DOCKED: USER        vdW + Hbond + desolv Energy     =  -13.63 kcal/mol
DOCKED: USER        Electrostatic Energy            =   -2.05 kcal/mol
DOCKED: USER    (2) Final Total Internal Energy     =   -0.14 kcal/mol
DOCKED: USER    (3) Torsional Free Energy           =   +2.98 kcal/mol
DOCKED: USER    (4) Unbound System's Energy  [=(2)] =   -0.14 kcal/mol
DOCKED: USER    
DOCKED: USER    
DOCKED: USER    NEWDPF move heme_Fe_opt.pdbqt
DOCKED: USER    NEWDPF about -0.174000 -0.001000 -0.047000
DOCKED: USER    NEWDPF tran0 -9.053517 1.698016 1.797216
DOCKED: USER    NEWDPF quaternion0 0.930970 0.131265 -0.268016 0.210311
DOCKED: USER    NEWDPF axisangle0 0.952268 0.134268 -0.274148 155.718828
DOCKED: USER    NEWDPF quat0 0.952268 0.134268 -0.274148 155.718828
DOCKED: USER    NEWDPF dihe0 -127.93 -24.82 31.04 -147.59 175.92 159.21 -77.00 -0.01 -139.66 -161.98 
DOCKED: USER  keepresnum = 1 
DOCKED: USER  
DOCKED: REMARK  10 active torsions:
DOCKED: REMARK  status: ('A' for Active; 'I' for Inactive)
DOCKED: REMARK    1  A    between atoms: C_6  and  C_10 
DOCKED: REMARK    2  A    between atoms: C_10  and  C_11 
DOCKED: REMARK    3  A    between atoms: C_11  and  C_12 
DOCKED: REMARK    4  A    between atoms: C_12  and  O_14 
DOCKED: REMARK    5  A    between atoms: C_17  and  C_20 
DOCKED: REMARK    6  A    between atoms: C_24  and  C_27 
DOCKED: REMARK    7  A    between atoms: C_31  and  C_34 
DOCKED: REMARK    8  A    between atoms: C_34  and  C_35 
DOCKED: REMARK    9  A    between atoms: C_35  and  C_36 
DOCKED: REMARK   10  A    between atoms: C_36  and  O_38 
DOCKED: USER                              x       y       z     vdW  Elec       q    Type
DOCKED: USER                           _______ _______ _______ _____ _____    ______ ____
DOCKED: ROOT
DOCKED: ATOM      1  C   UNL d   1     -10.984   1.213   2.295 -0.24 +0.03    +0.064 C 
DOCKED: ATOM      2  C   UNL d   1      -8.313   5.371   2.359 -0.43 +0.01    +0.064 A 
DOCKED: ATOM      3  C   UNL d   1      -5.044   3.233  -0.435 -0.43 +0.01    +0.064 C 
DOCKED: ATOM      4  C   UNL d   1      -7.562  -0.835  -0.424 -0.43 +0.01    +0.064 C 
DOCKED: ATOM      5  C   UNL d   1     -10.495   2.555   2.641 -0.06 +0.02    +0.066 A 
DOCKED: ATOM      6  C   UNL d   1     -11.122   3.423   3.519 -0.26 -0.00    -0.021 A 
DOCKED: ATOM      7  C   UNL d   1     -10.381   4.579   3.534 -0.40 -0.00    -0.025 A 
DOCKED: ATOM      8  C   UNL d   1      -9.329   4.371   2.663 -0.40 +0.01    +0.066 A 
DOCKED: ATOM      9  C   UNL d   1     -10.665   5.799   4.355 -0.45 -0.00    +0.051 C 
DOCKED: ATOM     10  C   UNL d   1      -7.257   5.177   1.568 -0.41 +0.01    +0.066 A 
DOCKED: ATOM     11  C   UNL d   1      -6.364   6.189   1.206 -0.47 -0.00    -0.021 A 
DOCKED: ATOM     12  C   UNL d   1      -5.421   5.601   0.386 -0.49 +0.00    +0.000 A 
DOCKED: ATOM     13  C   UNL d   1      -5.796   4.250   0.283 -0.39 +0.01    +0.070 A 
DOCKED: ATOM     14  C   UNL d   1      -6.443   7.658   1.567 -0.56 +0.01    +0.052 C 
DOCKED: ATOM     15  C   UNL d   1      -5.428   1.943  -0.580 -0.40 +0.01    +0.066 A 
DOCKED: ATOM     16  C   UNL d   1      -4.634   0.979  -1.188 -0.40 -0.00    -0.021 A 
DOCKED: ATOM     17  C   UNL d   1      -5.360  -0.195  -1.189 -0.43 +0.00    +0.000 A 
DOCKED: ATOM     18  C   UNL d   1      -6.584   0.083  -0.584 -0.41 +0.01    +0.070 A 
DOCKED: ATOM     19  C   UNL d   1      -3.257   1.156  -1.769 -0.37 +0.00    +0.052 C 
DOCKED: ATOM     20  C   UNL d   1      -8.837  -0.595   0.262 -0.34 +0.02    +0.066 A 
DOCKED: ATOM     21  C   UNL d   1      -9.934  -1.469   0.261 +0.00 -0.01    -0.025 A 
DOCKED: ATOM     22  C   UNL d   1     -10.893  -0.871   1.053 -0.30 -0.01    -0.021 A 
DOCKED: ATOM     23  C   UNL d   1     -10.349   0.340   1.498 -0.35 +0.03    +0.066 A 
DOCKED: ATOM     24  C   UNL d   1     -10.083  -2.795  -0.446 -0.12 +0.01    +0.051 C 
DOCKED: ATOM     25  N   UNL d   1      -9.396   3.136   2.129 -0.20 -0.08    -0.248 N 
DOCKED: ATOM     26  N   UNL d   1      -6.920   3.993   0.996 -0.24 -0.06    -0.248 N 
DOCKED: ATOM     27  N   UNL d   1      -6.610   1.385  -0.170 -0.26 -0.03    -0.248 N 
DOCKED: ATOM     28  N   UNL d   1      -9.112   0.523   0.976 -0.26 -0.07    -0.248 N 
DOCKED: ATOM     29 FE   UNL d   1      -8.016   2.257   0.985 -0.09 +0.00    +0.000 Fe
DOCKED: ENDROOT
DOCKED: BRANCH   6  30
DOCKED: ATOM     30  C   UNL d   1     -12.350   3.163   4.322 -0.24 +0.01    +0.052 C 
DOCKED: BRANCH  30  31
DOCKED: ATOM     31  C   UNL d   1     -13.467   2.618   3.439 -0.19 +0.03    +0.115 C 
DOCKED: BRANCH  31  32
DOCKED: ATOM     32  C   UNL d   1     -13.614   1.134   3.630 -0.17 +0.09    +0.139 C 
DOCKED: ATOM     33  O   UNL d   1     -14.508   0.518   3.067 -0.01 -0.50    -0.650 OA
DOCKED: BRANCH  32  34
DOCKED: ATOM     34  O   UNL d   1     -12.760   0.469   4.427 -0.43 -0.86    -0.776 OA
DOCKED: ATOM     35  H   UNL d   1     -12.614   0.788   5.328 +0.04 +0.12    +0.167 HD
DOCKED: ENDBRANCH  32  34
DOCKED: ENDBRANCH  31  32
DOCKED: ENDBRANCH  30  31
DOCKED: ENDBRANCH   6  30
DOCKED: BRANCH  22  36
DOCKED: ATOM     36  C   UNL d   1     -12.272  -1.413   1.324 +0.18 +0.07    +0.052 C 
DOCKED: BRANCH  36  37
DOCKED: ATOM     37  C   UNL d   1     -13.075  -1.442   0.032 -0.09 +0.07    +0.115 C 
DOCKED: BRANCH  37  38
DOCKED: ATOM     38  C   UNL d   1     -14.452  -1.997   0.266 -0.17 +0.09    +0.139 C 
DOCKED: ATOM     39  O   UNL d   1     -15.361  -1.765  -0.517 +0.01 -0.23    -0.650 OA
DOCKED: BRANCH  38  40
DOCKED: ATOM     40  O   UNL d   1     -14.694  -2.756   1.349 -0.55 -1.04    -0.776 OA
DOCKED: ATOM     41  H   UNL d   1     -15.595  -2.806   1.697 +0.01 +0.16    +0.167 HD
DOCKED: ENDBRANCH  38  40
DOCKED: ENDBRANCH  37  38
DOCKED: ENDBRANCH  36  37
DOCKED: ENDBRANCH  22  36
DOCKED: BRANCH  12  42
DOCKED: ATOM     42  C   UNL d   1      -4.271   6.318  -0.248 -0.62 +0.00    +0.004 C 
DOCKED: ATOM     43  C   UNL d   1      -3.168   6.608   0.454 -0.52 +0.00    +0.012 C 
DOCKED: ENDBRANCH  12  42
DOCKED: BRANCH  17  44
DOCKED: ATOM     44  C   UNL d   1      -4.904  -1.501  -1.716 -0.62 -0.00    +0.004 C 
DOCKED: ATOM     45  C   UNL d   1      -5.188  -1.871  -2.969 -0.68 +0.00    +0.012 C 
DOCKED: ENDBRANCH  17  44
DOCKED: TORSDOF 10
DOCKED: TER
DOCKED: ENDMDL
________________________________________________________________________________


	BEGINNING GENETIC ALGORITHM DOCKING 20 of 100
Run: 20 Seed: 953731731 2056330853 [ Run 20 of 100 GA/GALS ]
Beginning LAMARCKIAN GENETIC ALGORITHM (LGA), with a maximum of 25000000 energy evaluations.

Final-Value: -17.104


	FINAL GENETIC ALGORITHM DOCKED STATE
	_______________________________________________


Detailed state:  trans -9.002 1.103 1.499 quatxyzw -0.934870 -0.155473 0.250702 -0.197472 center -0.174 -0.001 -0.047 ntor 10 53.5845 -96.4707 34.2323 -135.8799 160.6736 -144.6949 -65.9420 12.3764 -161.7546 160.8081
State:	 -9.002   1.103   1.499  -0.954 -0.159  0.256 -157.222     53.58  -96.47   34.23 -135.88  160.67 -144.69  -65.94   12.38 -161.75  160.81

DOCKED: MODEL       20
DOCKED: USER    Run = 20
DOCKED: USER    DPF = D:/Protein_go_brrr/autodock/final/mut_D99N/heme_Fe/dock.dpf
DOCKED: USER  
DOCKED: USER    Estimated Free Energy of Binding    =  -12.03 kcal/mol  [=(1)+(2)+(3)-(4)]
DOCKED: USER    Estimated Inhibition Constant, Ki   =    1.52 nM (nanomolar)  [Temperature = 298.15 K]
DOCKED: USER    
DOCKED: USER    (1) Final Intermolecular Energy     =  -15.01 kcal/mol
DOCKED: USER        vdW + Hbond + desolv Energy     =  -13.03 kcal/mol
DOCKED: USER        Electrostatic Energy            =   -1.98 kcal/mol
DOCKED: USER    (2) Final Total Internal Energy     =   -2.09 kcal/mol
DOCKED: USER    (3) Torsional Free Energy           =   +2.98 kcal/mol
DOCKED: USER    (4) Unbound System's Energy  [=(2)] =   -2.09 kcal/mol
DOCKED: USER    
DOCKED: USER    
DOCKED: USER    NEWDPF move heme_Fe_opt.pdbqt
DOCKED: USER    NEWDPF about -0.174000 -0.001000 -0.047000
DOCKED: USER    NEWDPF tran0 -9.001658 1.103209 1.499425
DOCKED: USER    NEWDPF quaternion0 -0.934870 -0.155473 0.250702 -0.197472
DOCKED: USER    NEWDPF axisangle0 -0.953649 -0.158596 0.255738 -157.221639
DOCKED: USER    NEWDPF quat0 -0.953649 -0.158596 0.255738 -157.221639
DOCKED: USER    NEWDPF dihe0 53.58 -96.47 34.23 -135.88 160.67 -144.69 -65.94 12.38 -161.75 160.81 
DOCKED: USER  keepresnum = 1 
DOCKED: USER  
DOCKED: REMARK  10 active torsions:
DOCKED: REMARK  status: ('A' for Active; 'I' for Inactive)
DOCKED: REMARK    1  A    between atoms: C_6  and  C_10 
DOCKED: REMARK    2  A    between atoms: C_10  and  C_11 
DOCKED: REMARK    3  A    between atoms: C_11  and  C_12 
DOCKED: REMARK    4  A    between atoms: C_12  and  O_14 
DOCKED: REMARK    5  A    between atoms: C_17  and  C_20 
DOCKED: REMARK    6  A    between atoms: C_24  and  C_27 
DOCKED: REMARK    7  A    between atoms: C_31  and  C_34 
DOCKED: REMARK    8  A    between atoms: C_34  and  C_35 
DOCKED: REMARK    9  A    between atoms: C_35  and  C_36 
DOCKED: REMARK   10  A    between atoms: C_36  and  O_38 
DOCKED: USER                              x       y       z     vdW  Elec       q    Type
DOCKED: USER                           _______ _______ _______ _____ _____    ______ ____
DOCKED: ROOT
DOCKED: ATOM      1  C   UNL d   1     -10.931   0.538   1.909 -0.37 +0.03    +0.064 C 
DOCKED: ATOM      2  C   UNL d   1      -8.449   4.809   2.063 -0.41 +0.01    +0.064 A 
DOCKED: ATOM      3  C   UNL d   1      -4.960   2.797  -0.553 -0.40 +0.01    +0.064 C 
DOCKED: ATOM      4  C   UNL d   1      -7.296  -1.377  -0.625 -0.40 +0.01    +0.064 C 
DOCKED: ATOM      5  C   UNL d   1     -10.518   1.902   2.266 -0.13 +0.02    +0.066 A 
DOCKED: ATOM      6  C   UNL d   1     -11.223   2.748   3.105 -0.20 -0.01    -0.021 A 
DOCKED: ATOM      7  C   UNL d   1     -10.535   3.935   3.144 -0.35 -0.00    -0.025 A 
DOCKED: ATOM      8  C   UNL d   1      -9.435   3.768   2.327 -0.35 +0.02    +0.066 A 
DOCKED: ATOM      9  C   UNL d   1     -10.911   5.148   3.940 -0.42 +0.00    +0.051 C 
DOCKED: ATOM     10  C   UNL d   1      -7.349   4.656   1.324 -0.38 +0.01    +0.066 A 
DOCKED: ATOM     11  C   UNL d   1      -6.484   5.703   0.996 -0.46 -0.00    -0.021 A 
DOCKED: ATOM     12  C   UNL d   1      -5.478   5.152   0.228 -0.47 +0.00    +0.000 A 
DOCKED: ATOM     13  C   UNL d   1      -5.789   3.785   0.119 -0.38 +0.01    +0.070 A 
DOCKED: ATOM     14  C   UNL d   1      -6.645   7.170   1.339 -0.54 +0.01    +0.052 C 
DOCKED: ATOM     15  C   UNL d   1      -5.281   1.490  -0.705 -0.39 +0.01    +0.066 A 
DOCKED: ATOM     16  C   UNL d   1      -4.417   0.557  -1.265 -0.36 -0.00    -0.021 A 
DOCKED: ATOM     17  C   UNL d   1      -5.090  -0.647  -1.290 -0.43 +0.00    +0.000 A 
DOCKED: ATOM     18  C   UNL d   1      -6.352  -0.419  -0.747 -0.41 +0.01    +0.070 A 
DOCKED: ATOM     19  C   UNL d   1      -3.023   0.791  -1.782 -0.41 +0.00    +0.052 C 
DOCKED: ATOM     20  C   UNL d   1      -8.612  -1.189  -0.003 -0.34 +0.01    +0.066 A 
DOCKED: ATOM     21  C   UNL d   1      -9.669  -2.110  -0.048 -0.12 -0.01    -0.025 A 
DOCKED: ATOM     22  C   UNL d   1     -10.690  -1.549   0.691 -0.16 -0.01    -0.021 A 
DOCKED: ATOM     23  C   UNL d   1     -10.221  -0.312   1.151 -0.35 +0.03    +0.066 A 
DOCKED: ATOM     24  C   UNL d   1      -9.726  -3.447  -0.750 -0.16 +0.01    +0.051 C 
DOCKED: ATOM     25  N   UNL d   1      -9.422   2.527   1.801 -0.18 -0.09    -0.248 N 
DOCKED: ATOM     26  N   UNL d   1      -6.934   3.484   0.780 -0.16 -0.07    -0.248 N 
DOCKED: ATOM     27  N   UNL d   1      -6.455   0.884  -0.347 -0.27 -0.03    -0.248 N 
DOCKED: ATOM     28  N   UNL d   1      -8.970  -0.079   0.687 -0.27 -0.07    -0.248 N 
DOCKED: ATOM     29 FE   UNL d   1      -7.951   1.701   0.732 -0.09 +0.00    +0.000 Fe
DOCKED: ENDROOT
DOCKED: BRANCH   6  30
DOCKED: ATOM     30  C   UNL d   1     -12.476   2.440   3.851 -0.23 +0.02    +0.052 C 
DOCKED: BRANCH  30  31
DOCKED: ATOM     31  C   UNL d   1     -13.667   2.368   2.900 -0.21 +0.04    +0.115 C 
DOCKED: BRANCH  31  32
DOCKED: ATOM     32  C   UNL d   1     -14.215   0.969   2.848 -0.17 +0.09    +0.139 C 
DOCKED: ATOM     33  O   UNL d   1     -15.349   0.758   2.444 -0.00 -0.32    -0.650 OA
DOCKED: BRANCH  32  34
DOCKED: ATOM     34  O   UNL d   1     -13.458  -0.068   3.247 -0.17 -1.17    -0.776 OA
DOCKED: ATOM     35  H   UNL d   1     -13.331  -0.815   2.647 +0.05 +0.38    +0.167 HD
DOCKED: ENDBRANCH  32  34
DOCKED: ENDBRANCH  31  32
DOCKED: ENDBRANCH  30  31
DOCKED: ENDBRANCH   6  30
DOCKED: BRANCH  22  36
DOCKED: ATOM     36  C   UNL d   1     -12.055  -2.149   0.901 +0.30 +0.06    +0.052 C 
DOCKED: BRANCH  36  37
DOCKED: ATOM     37  C   UNL d   1     -13.064  -1.458  -0.005 -0.06 +0.07    +0.115 C 
DOCKED: BRANCH  37  38
DOCKED: ATOM     38  C   UNL d   1     -14.470  -1.829   0.373 -0.16 +0.10    +0.139 C 
DOCKED: ATOM     39  O   UNL d   1     -15.335  -1.955  -0.482 +0.00 -0.23    -0.650 OA
DOCKED: BRANCH  38  40
DOCKED: ATOM     40  O   UNL d   1     -14.789  -2.024   1.665 -0.42 -1.13    -0.776 OA
DOCKED: ATOM     41  H   UNL d   1     -15.002  -1.258   2.217 +0.02 +0.21    +0.167 HD
DOCKED: ENDBRANCH  38  40
DOCKED: ENDBRANCH  37  38
DOCKED: ENDBRANCH  36  37
DOCKED: ENDBRANCH  22  36
DOCKED: BRANCH  12  42
DOCKED: ATOM     42  C   UNL d   1      -4.332   5.914  -0.357 -0.63 +0.00    +0.004 C 
DOCKED: ATOM     43  C   UNL d   1      -3.249   6.202   0.377 -0.62 +0.00    +0.012 C 
DOCKED: ENDBRANCH  12  42
DOCKED: BRANCH  17  44
DOCKED: ATOM     44  C   UNL d   1      -4.553  -1.935  -1.783 -0.65 -0.00    +0.004 C 
DOCKED: ATOM     45  C   UNL d   1      -4.554  -2.223  -3.088 -0.73 -0.00    +0.012 C 
DOCKED: ENDBRANCH  17  44
DOCKED: TORSDOF 10
DOCKED: TER
DOCKED: ENDMDL
________________________________________________________________________________


	BEGINNING GENETIC ALGORITHM DOCKING 21 of 100
Run: 21 Seed: 1950489831 784852173 [ Run 21 of 100 GA/GALS ]
Beginning LAMARCKIAN GENETIC ALGORITHM (LGA), with a maximum of 25000000 energy evaluations.

Final-Value: -10.378


	FINAL GENETIC ALGORITHM DOCKED STATE
	_______________________________________________


Detailed state:  trans -1.148 6.613 -15.264 quatxyzw -0.402945 0.164093 -0.473803 0.765650 center -0.174 -0.001 -0.047 ntor 10 -110.3957 73.8651 -162.4905 68.1066 139.9485 -120.0788 -32.9640 -92.9377 152.1372 0.8631
State:	 -1.148   6.613 -15.264  -0.626  0.255 -0.737 80.070   -110.40   73.87 -162.49   68.11  139.95 -120.08  -32.96  -92.94  152.14    0.86

DOCKED: MODEL       21
DOCKED: USER    Run = 21
DOCKED: USER    DPF = D:/Protein_go_brrr/autodock/final/mut_D99N/heme_Fe/dock.dpf
DOCKED: USER  
DOCKED: USER    Estimated Free Energy of Binding    =   -5.74 kcal/mol  [=(1)+(2)+(3)-(4)]
DOCKED: USER    Estimated Inhibition Constant, Ki   =   61.53 uM (micromolar)  [Temperature = 298.15 K]
DOCKED: USER    
DOCKED: USER    (1) Final Intermolecular Energy     =   -8.73 kcal/mol
DOCKED: USER        vdW + Hbond + desolv Energy     =   -5.72 kcal/mol
DOCKED: USER        Electrostatic Energy            =   -3.00 kcal/mol
DOCKED: USER    (2) Final Total Internal Energy     =   -1.65 kcal/mol
DOCKED: USER    (3) Torsional Free Energy           =   +2.98 kcal/mol
DOCKED: USER    (4) Unbound System's Energy  [=(2)] =   -1.65 kcal/mol
DOCKED: USER    
DOCKED: USER    
DOCKED: USER    NEWDPF move heme_Fe_opt.pdbqt
DOCKED: USER    NEWDPF about -0.174000 -0.001000 -0.047000
DOCKED: USER    NEWDPF tran0 -1.148467 6.613016 -15.263847
DOCKED: USER    NEWDPF quaternion0 -0.402945 0.164093 -0.473803 0.765650
DOCKED: USER    NEWDPF axisangle0 -0.626413 0.255097 -0.736568 80.070380
DOCKED: USER    NEWDPF quat0 -0.626413 0.255097 -0.736568 80.070380
DOCKED: USER    NEWDPF dihe0 -110.40 73.87 -162.49 68.11 139.95 -120.08 -32.96 -92.94 152.14 0.86 
DOCKED: USER  keepresnum = 1 
DOCKED: USER  
DOCKED: REMARK  10 active torsions:
DOCKED: REMARK  status: ('A' for Active; 'I' for Inactive)
DOCKED: REMARK    1  A    between atoms: C_6  and  C_10 
DOCKED: REMARK    2  A    between atoms: C_10  and  C_11 
DOCKED: REMARK    3  A    between atoms: C_11  and  C_12 
DOCKED: REMARK    4  A    between atoms: C_12  and  O_14 
DOCKED: REMARK    5  A    between atoms: C_17  and  C_20 
DOCKED: REMARK    6  A    between atoms: C_24  and  C_27 
DOCKED: REMARK    7  A    between atoms: C_31  and  C_34 
DOCKED: REMARK    8  A    between atoms: C_34  and  C_35 
DOCKED: REMARK    9  A    between atoms: C_35  and  C_36 
DOCKED: REMARK   10  A    between atoms: C_36  and  O_38 
DOCKED: USER                              x       y       z     vdW  Elec       q    Type
DOCKED: USER                           _______ _______ _______ _____ _____    ______ ____
DOCKED: ROOT
DOCKED: ATOM      1  C   UNL d   1      -2.013   5.013 -16.215 -0.15 +0.03    +0.064 C 
DOCKED: ATOM      2  C   UNL d   1       2.629   6.578 -15.558 -0.06 +0.01    +0.064 A 
DOCKED: ATOM      3  C   UNL d   1       1.070   9.541 -12.114 -0.07 -0.00    +0.064 C 
DOCKED: ATOM      4  C   UNL d   1      -3.444   8.118 -12.806 -0.31 +0.00    +0.064 C 
DOCKED: ATOM      5  C   UNL d   1      -0.574   5.239 -16.407 -0.06 +0.02    +0.066 A 
DOCKED: ATOM      6  C   UNL d   1       0.196   4.641 -17.390 -0.06 -0.01    -0.021 A 
DOCKED: ATOM      7  C   UNL d   1       1.486   5.072 -17.205 -0.05 -0.01    -0.025 A 
DOCKED: ATOM      8  C   UNL d   1       1.453   5.920 -16.114 -0.07 +0.01    +0.066 A 
DOCKED: ATOM      9  C   UNL d   1       2.670   4.702 -18.044 -0.01 +0.01    +0.051 C 
DOCKED: ATOM     10  C   UNL d   1       2.617   7.443 -14.543 -0.06 +0.01    +0.066 A 
DOCKED: ATOM     11  C   UNL d   1       3.772   7.969 -13.959 -0.03 -0.00    -0.021 A 
DOCKED: ATOM     12  C   UNL d   1       3.350   8.814 -12.951 -0.03 +0.00    +0.000 A 
DOCKED: ATOM     13  C   UNL d   1       1.945   8.753 -12.968 -0.05 +0.00    +0.070 A 
DOCKED: ATOM     14  C   UNL d   1       5.209   7.630 -14.297 -0.01 +0.00    +0.052 C 
DOCKED: ATOM     15  C   UNL d   1      -0.280   9.448 -12.091 -0.08 -0.01    +0.066 A 
DOCKED: ATOM     16  C   UNL d   1      -1.086  10.288 -11.333 -0.10 +0.00    -0.021 A 
DOCKED: ATOM     17  C   UNL d   1      -2.388   9.877 -11.528 -0.18 -0.00    +0.000 A 
DOCKED: ATOM     18  C   UNL d   1      -2.346   8.791 -12.400 -0.17 -0.00    +0.070 A 
DOCKED: ATOM     19  C   UNL d   1      -0.650  11.417 -10.439 -0.16 -0.02    +0.052 C 
DOCKED: ATOM     20  C   UNL d   1      -3.445   7.010 -13.770 -0.30 +0.01    +0.066 A 
DOCKED: ATOM     21  C   UNL d   1      -4.538   6.178 -14.047 -0.43 -0.00    -0.025 A 
DOCKED: ATOM     22  C   UNL d   1      -4.112   5.309 -15.030 -0.32 -0.01    -0.021 A 
DOCKED: ATOM     23  C   UNL d   1      -2.780   5.639 -15.308 -0.17 +0.02    +0.066 A 
DOCKED: ATOM     24  C   UNL d   1      -5.914   6.189 -13.422 +0.04 -0.00    +0.051 C 
DOCKED: ATOM     25  N   UNL d   1       0.197   6.027 -15.637 -0.05 -0.03    -0.248 N 
DOCKED: ATOM     26  N   UNL d   1       1.498   7.911 -13.932 -0.06 -0.00    -0.248 N 
DOCKED: ATOM     27  N   UNL d   1      -1.055   8.554 -12.781 -0.07 +0.03    -0.248 N 
DOCKED: ATOM     28  N   UNL d   1      -2.365   6.648 -14.504 -0.13 -0.02    -0.248 N 
DOCKED: ATOM     29 FE   UNL d   1      -0.435   7.280 -14.217 -0.04 -0.00    +0.000 Fe
DOCKED: ENDROOT
DOCKED: BRANCH   6  30
DOCKED: ATOM     30  C   UNL d   1      -0.271   3.721 -18.466 -0.03 +0.02    +0.052 C 
DOCKED: BRANCH  30  31
DOCKED: ATOM     31  C   UNL d   1       0.398   2.357 -18.339 -0.08 +0.08    +0.115 C 
DOCKED: BRANCH  31  32
DOCKED: ATOM     32  C   UNL d   1      -0.535   1.269 -18.794 -0.07 +0.19    +0.139 C 
DOCKED: ATOM     33  O   UNL d   1      -0.119   0.325 -19.451 -0.62 -0.97    -0.650 OA
DOCKED: BRANCH  32  34
DOCKED: ATOM     34  O   UNL d   1      -1.840   1.324 -18.480 -0.04 -1.30    -0.776 OA
DOCKED: ATOM     35  H   UNL d   1      -2.395   2.000 -18.895 +0.03 +0.20    +0.167 HD
DOCKED: ENDBRANCH  32  34
DOCKED: ENDBRANCH  31  32
DOCKED: ENDBRANCH  30  31
DOCKED: ENDBRANCH   6  30
DOCKED: BRANCH  22  36
DOCKED: ATOM     36  C   UNL d   1      -4.926   4.193 -15.631 -0.41 +0.04    +0.052 C 
DOCKED: BRANCH  36  37
DOCKED: ATOM     37  C   UNL d   1      -5.532   4.653 -16.949 -0.22 +0.12    +0.115 C 
DOCKED: BRANCH  37  38
DOCKED: ATOM     38  C   UNL d   1      -4.574   4.438 -18.086 -0.05 +0.16    +0.139 C 
DOCKED: ATOM     39  O   UNL d   1      -4.187   5.379 -18.764 +0.02 -0.39    -0.650 OA
DOCKED: BRANCH  38  40
DOCKED: ATOM     40  O   UNL d   1      -4.135   3.199 -18.370 -0.33 -1.39    -0.776 OA
DOCKED: ATOM     41  H   UNL d   1      -3.227   2.958 -18.142 +0.04 +0.20    +0.167 HD
DOCKED: ENDBRANCH  38  40
DOCKED: ENDBRANCH  37  38
DOCKED: ENDBRANCH  36  37
DOCKED: ENDBRANCH  22  36
DOCKED: BRANCH  12  42
DOCKED: ATOM     42  C   UNL d   1       4.255   9.589 -12.049 -0.05 +0.00    +0.004 C 
DOCKED: ATOM     43  C   UNL d   1       4.304   9.333 -10.735 -0.10 +0.00    +0.012 C 
DOCKED: ENDBRANCH  12  42
DOCKED: BRANCH  17  44
DOCKED: ATOM     44  C   UNL d   1      -3.595  10.496 -10.936 -0.26 -0.00    +0.004 C 
DOCKED: ATOM     45  C   UNL d   1      -4.574  10.969 -11.715 -0.30 -0.00    +0.012 C 
DOCKED: ENDBRANCH  17  44
DOCKED: TORSDOF 10
DOCKED: TER
DOCKED: ENDMDL
________________________________________________________________________________


	BEGINNING GENETIC ALGORITHM DOCKING 22 of 100
Run: 22 Seed: 1517169074 1858764618 [ Run 22 of 100 GA/GALS ]
Beginning LAMARCKIAN GENETIC ALGORITHM (LGA), with a maximum of 25000000 energy evaluations.

Final-Value: -16.814


	FINAL GENETIC ALGORITHM DOCKED STATE
	_______________________________________________


Detailed state:  trans -9.035 2.107 1.023 quatxyzw -0.192329 -0.190016 -0.053118 0.961292 center -0.174 -0.001 -0.047 ntor 10 -85.5033 -80.3748 79.0943 -130.1982 -128.9400 155.2963 55.6605 43.1506 -54.4954 -168.6298
State:	 -9.035   2.107   1.023  -0.698 -0.690 -0.193 31.988    -85.50  -80.37   79.09 -130.20 -128.94  155.30   55.66   43.15  -54.50 -168.63

DOCKED: MODEL       22
DOCKED: USER    Run = 22
DOCKED: USER    DPF = D:/Protein_go_brrr/autodock/final/mut_D99N/heme_Fe/dock.dpf
DOCKED: USER  
DOCKED: USER    Estimated Free Energy of Binding    =  -12.44 kcal/mol  [=(1)+(2)+(3)-(4)]
DOCKED: USER    Estimated Inhibition Constant, Ki   =  760.24 pM (picomolar)  [Temperature = 298.15 K]
DOCKED: USER    
DOCKED: USER    (1) Final Intermolecular Energy     =  -15.42 kcal/mol
DOCKED: USER        vdW + Hbond + desolv Energy     =  -13.52 kcal/mol
DOCKED: USER        Electrostatic Energy            =   -1.91 kcal/mol
DOCKED: USER    (2) Final Total Internal Energy     =   -1.39 kcal/mol
DOCKED: USER    (3) Torsional Free Energy           =   +2.98 kcal/mol
DOCKED: USER    (4) Unbound System's Energy  [=(2)] =   -1.39 kcal/mol
DOCKED: USER    
DOCKED: USER    
DOCKED: USER    NEWDPF move heme_Fe_opt.pdbqt
DOCKED: USER    NEWDPF about -0.174000 -0.001000 -0.047000
DOCKED: USER    NEWDPF tran0 -9.034783 2.107303 1.022914
DOCKED: USER    NEWDPF quaternion0 -0.192329 -0.190016 -0.053118 0.961292
DOCKED: USER    NEWDPF axisangle0 -0.698027 -0.689632 -0.192783 31.987533
DOCKED: USER    NEWDPF quat0 -0.698027 -0.689632 -0.192783 31.987533
DOCKED: USER    NEWDPF dihe0 -85.50 -80.37 79.09 -130.20 -128.94 155.30 55.66 43.15 -54.50 -168.63 
DOCKED: USER  keepresnum = 1 
DOCKED: USER  
DOCKED: REMARK  10 active torsions:
DOCKED: REMARK  status: ('A' for Active; 'I' for Inactive)
DOCKED: REMARK    1  A    between atoms: C_6  and  C_10 
DOCKED: REMARK    2  A    between atoms: C_10  and  C_11 
DOCKED: REMARK    3  A    between atoms: C_11  and  C_12 
DOCKED: REMARK    4  A    between atoms: C_12  and  O_14 
DOCKED: REMARK    5  A    between atoms: C_17  and  C_20 
DOCKED: REMARK    6  A    between atoms: C_24  and  C_27 
DOCKED: REMARK    7  A    between atoms: C_31  and  C_34 
DOCKED: REMARK    8  A    between atoms: C_34  and  C_35 
DOCKED: REMARK    9  A    between atoms: C_35  and  C_36 
DOCKED: REMARK   10  A    between atoms: C_36  and  O_38 
DOCKED: USER                              x       y       z     vdW  Elec       q    Type
DOCKED: USER                           _______ _______ _______ _____ _____    ______ ____
DOCKED: ROOT
DOCKED: ATOM      1  C   UNL d   1     -10.655   1.520   2.137 -0.25 +0.02    +0.064 C 
DOCKED: ATOM      2  C   UNL d   1      -7.265  -0.833  -0.584 -0.38 +0.01    +0.064 A 
DOCKED: ATOM      3  C   UNL d   1      -4.589   3.156  -0.574 -0.33 +0.01    +0.064 C 
DOCKED: ATOM      4  C   UNL d   1      -7.904   5.483   1.971 -0.49 +0.01    +0.064 C 
DOCKED: ATOM      5  C   UNL d   1      -9.987   0.514   1.300 -0.34 +0.02    +0.066 A 
DOCKED: ATOM      6  C   UNL d   1     -10.518  -0.724   0.977 -0.33 -0.01    -0.021 A 
DOCKED: ATOM      7  C   UNL d   1      -9.575  -1.378   0.224 -0.16 -0.01    -0.025 A 
DOCKED: ATOM      8  C   UNL d   1      -8.503  -0.513   0.116 -0.37 +0.01    +0.066 A 
DOCKED: ATOM      9  C   UNL d   1      -9.712  -2.747  -0.369 -0.22 +0.01    +0.051 C 
DOCKED: ATOM     10  C   UNL d   1      -6.240   0.004  -0.752 -0.41 +0.01    +0.066 A 
DOCKED: ATOM     11  C   UNL d   1      -5.022  -0.368  -1.328 -0.42 -0.00    -0.021 A 
DOCKED: ATOM     12  C   UNL d   1      -4.227   0.761  -1.321 -0.40 +0.00    +0.000 A 
DOCKED: ATOM     13  C   UNL d   1      -5.005   1.770  -0.728 -0.37 +0.01    +0.070 A 
DOCKED: ATOM     14  C   UNL d   1      -4.612  -1.748  -1.798 -0.62 -0.00    +0.052 C 
DOCKED: ATOM     15  C   UNL d   1      -5.314   4.119   0.042 -0.39 +0.01    +0.066 A 
DOCKED: ATOM     16  C   UNL d   1      -4.926   5.452   0.081 -0.50 -0.00    -0.021 A 
DOCKED: ATOM     17  C   UNL d   1      -5.879   6.125   0.818 -0.50 +0.00    +0.000 A 
DOCKED: ATOM     18  C   UNL d   1      -6.825   5.183   1.215 -0.41 +0.01    +0.070 A 
DOCKED: ATOM     19  C   UNL d   1      -3.695   6.068  -0.527 -0.40 +0.01    +0.052 C 
DOCKED: ATOM     20  C   UNL d   1      -8.953   4.532   2.356 -0.41 +0.01    +0.066 A 
DOCKED: ATOM     21  C   UNL d   1      -9.964   4.777   3.297 -0.43 -0.00    -0.025 A 
DOCKED: ATOM     22  C   UNL d   1     -10.743   3.639   3.319 -0.31 -0.00    -0.021 A 
DOCKED: ATOM     23  C   UNL d   1     -10.178   2.747   2.401 -0.16 +0.02    +0.066 A 
DOCKED: ATOM     24  C   UNL d   1     -10.189   6.012   4.139 -0.48 -0.00    +0.051 C 
DOCKED: ATOM     25  N   UNL d   1      -8.761   0.641   0.764 -0.24 -0.06    -0.248 N 
DOCKED: ATOM     26  N   UNL d   1      -6.229   1.308  -0.373 -0.27 -0.03    -0.248 N 
DOCKED: ATOM     27  N   UNL d   1      -6.503   3.958   0.702 -0.25 -0.05    -0.248 N 
DOCKED: ATOM     28  N   UNL d   1      -9.060   3.280   1.849 -0.07 -0.10    -0.248 N 
DOCKED: ATOM     29 FE   UNL d   1      -7.644   2.295   0.739 -0.09 +0.00    +0.000 Fe
DOCKED: ENDROOT
DOCKED: BRANCH   6  30
DOCKED: ATOM     30  C   UNL d   1     -11.862  -1.253   1.345 +0.00 +0.06    +0.052 C 
DOCKED: BRANCH  30  31
DOCKED: ATOM     31  C   UNL d   1     -12.898  -0.134   1.359 -0.14 +0.09    +0.115 C 
DOCKED: BRANCH  31  32
DOCKED: ATOM     32  C   UNL d   1     -13.586  -0.071   2.694 -0.06 +0.18    +0.139 C 
DOCKED: ATOM     33  O   UNL d   1     -14.807  -0.059   2.766 -0.02 -0.58    -0.650 OA
DOCKED: BRANCH  32  34
DOCKED: ATOM     34  O   UNL d   1     -12.862  -0.027   3.825 -0.38 -1.33    -0.776 OA
DOCKED: ATOM     35  H   UNL d   1     -12.659   0.832   4.220 +0.04 +0.14    +0.167 HD
DOCKED: ENDBRANCH  32  34
DOCKED: ENDBRANCH  31  32
DOCKED: ENDBRANCH  30  31
DOCKED: ENDBRANCH   6  30
DOCKED: BRANCH  22  36
DOCKED: ATOM     36  C   UNL d   1     -11.935   3.407   4.210 -0.27 +0.01    +0.052 C 
DOCKED: BRANCH  36  37
DOCKED: ATOM     37  C   UNL d   1     -11.472   3.202   5.645 -0.22 +0.02    +0.115 C 
DOCKED: BRANCH  37  38
DOCKED: ATOM     38  C   UNL d   1     -12.226   2.080   6.300 -0.19 +0.04    +0.139 C 
DOCKED: ATOM     39  O   UNL d   1     -11.741   1.464   7.237 -0.10 -0.24    -0.650 OA
DOCKED: BRANCH  38  40
DOCKED: ATOM     40  O   UNL d   1     -13.449   1.743   5.853 +0.06 -0.31    -0.776 OA
DOCKED: ATOM     41  H   UNL d   1     -13.540   0.984   5.260 +0.04 +0.11    +0.167 HD
DOCKED: ENDBRANCH  38  40
DOCKED: ENDBRANCH  37  38
DOCKED: ENDBRANCH  36  37
DOCKED: ENDBRANCH  22  36
DOCKED: BRANCH  12  42
DOCKED: ATOM     42  C   UNL d   1      -2.824   0.822  -1.836 -0.43 +0.00    +0.004 C 
DOCKED: ATOM     43  C   UNL d   1      -2.460   1.746  -2.735 -0.63 +0.00    +0.012 C 
DOCKED: ENDBRANCH  12  42
DOCKED: BRANCH  17  44
DOCKED: ATOM     44  C   UNL d   1      -5.893   7.577   1.105 -0.55 +0.00    +0.004 C 
DOCKED: ATOM     45  C   UNL d   1      -5.079   8.101   2.027 -0.70 +0.00    +0.012 C 
DOCKED: ENDBRANCH  17  44
DOCKED: TORSDOF 10
DOCKED: TER
DOCKED: ENDMDL
________________________________________________________________________________


	BEGINNING GENETIC ALGORITHM DOCKING 23 of 100
Run: 23 Seed: 838761599 1540250250 [ Run 23 of 100 GA/GALS ]
Beginning LAMARCKIAN GENETIC ALGORITHM (LGA), with a maximum of 25000000 energy evaluations.

Final-Value: -17.312


	FINAL GENETIC ALGORITHM DOCKED STATE
	_______________________________________________


Detailed state:  trans -9.204 1.688 0.959 quatxyzw -0.191333 -0.186418 -0.087101 0.959715 center -0.174 -0.001 -0.047 ntor 10 -114.9719 -64.9283 76.3534 -117.9660 -179.9080 -14.2514 26.0043 -69.7287 10.6327 21.9183
State:	 -9.204   1.688   0.959  -0.681 -0.663 -0.310 32.637   -114.97  -64.93   76.35 -117.97 -179.91  -14.25   26.00  -69.73   10.63   21.92

DOCKED: MODEL       23
DOCKED: USER    Run = 23
DOCKED: USER    DPF = D:/Protein_go_brrr/autodock/final/mut_D99N/heme_Fe/dock.dpf
DOCKED: USER  
DOCKED: USER    Estimated Free Energy of Binding    =  -12.20 kcal/mol  [=(1)+(2)+(3)-(4)]
DOCKED: USER    Estimated Inhibition Constant, Ki   =    1.14 nM (nanomolar)  [Temperature = 298.15 K]
DOCKED: USER    
DOCKED: USER    (1) Final Intermolecular Energy     =  -15.19 kcal/mol
DOCKED: USER        vdW + Hbond + desolv Energy     =  -12.87 kcal/mol
DOCKED: USER        Electrostatic Energy            =   -2.32 kcal/mol
DOCKED: USER    (2) Final Total Internal Energy     =   -2.13 kcal/mol
DOCKED: USER    (3) Torsional Free Energy           =   +2.98 kcal/mol
DOCKED: USER    (4) Unbound System's Energy  [=(2)] =   -2.13 kcal/mol
DOCKED: USER    
DOCKED: USER    
DOCKED: USER    NEWDPF move heme_Fe_opt.pdbqt
DOCKED: USER    NEWDPF about -0.174000 -0.001000 -0.047000
DOCKED: USER    NEWDPF tran0 -9.203559 1.687813 0.958765
DOCKED: USER    NEWDPF quaternion0 -0.191333 -0.186418 -0.087101 0.959715
DOCKED: USER    NEWDPF axisangle0 -0.680962 -0.663471 -0.309995 32.636736
DOCKED: USER    NEWDPF quat0 -0.680962 -0.663471 -0.309995 32.636736
DOCKED: USER    NEWDPF dihe0 -114.97 -64.93 76.35 -117.97 -179.91 -14.25 26.00 -69.73 10.63 21.92 
DOCKED: USER  keepresnum = 1 
DOCKED: USER  
DOCKED: REMARK  10 active torsions:
DOCKED: REMARK  status: ('A' for Active; 'I' for Inactive)
DOCKED: REMARK    1  A    between atoms: C_6  and  C_10 
DOCKED: REMARK    2  A    between atoms: C_10  and  C_11 
DOCKED: REMARK    3  A    between atoms: C_11  and  C_12 
DOCKED: REMARK    4  A    between atoms: C_12  and  O_14 
DOCKED: REMARK    5  A    between atoms: C_17  and  C_20 
DOCKED: REMARK    6  A    between atoms: C_24  and  C_27 
DOCKED: REMARK    7  A    between atoms: C_31  and  C_34 
DOCKED: REMARK    8  A    between atoms: C_34  and  C_35 
DOCKED: REMARK    9  A    between atoms: C_35  and  C_36 
DOCKED: REMARK   10  A    between atoms: C_36  and  O_38 
DOCKED: USER                              x       y       z     vdW  Elec       q    Type
DOCKED: USER                           _______ _______ _______ _____ _____    ______ ____
DOCKED: ROOT
DOCKED: ATOM      1  C   UNL d   1     -10.803   0.983   2.034 -0.32 +0.03    +0.064 C 
DOCKED: ATOM      2  C   UNL d   1      -7.217  -1.112  -0.646 -0.36 +0.01    +0.064 A 
DOCKED: ATOM      3  C   UNL d   1      -4.805   3.040  -0.538 -0.37 +0.01    +0.064 C 
DOCKED: ATOM      4  C   UNL d   1      -8.312   5.117   1.967 -0.49 +0.01    +0.064 C 
DOCKED: ATOM      5  C   UNL d   1     -10.056   0.033   1.199 -0.36 +0.03    +0.066 A 
DOCKED: ATOM      6  C   UNL d   1     -10.500  -1.232   0.851 -0.28 -0.01    -0.021 A 
DOCKED: ATOM      7  C   UNL d   1      -9.502  -1.815   0.110 -0.25 -0.01    -0.025 A 
DOCKED: ATOM      8  C   UNL d   1      -8.486  -0.881   0.033 -0.36 +0.01    +0.066 A 
DOCKED: ATOM      9  C   UNL d   1      -9.539  -3.182  -0.502 -0.26 +0.01    +0.051 C 
DOCKED: ATOM     10  C   UNL d   1      -6.245  -0.209  -0.784 -0.41 +0.01    +0.066 A 
DOCKED: ATOM     11  C   UNL d   1      -4.996  -0.494  -1.340 -0.42 -0.00    -0.021 A 
DOCKED: ATOM     12  C   UNL d   1      -4.275   0.683  -1.304 -0.39 +0.00    +0.000 A 
DOCKED: ATOM     13  C   UNL d   1      -5.128   1.633  -0.716 -0.38 +0.01    +0.070 A 
DOCKED: ATOM     14  C   UNL d   1      -4.488  -1.839  -1.818 -0.62 -0.00    +0.052 C 
DOCKED: ATOM     15  C   UNL d   1      -5.602   3.947   0.075 -0.39 +0.01    +0.066 A 
DOCKED: ATOM     16  C   UNL d   1      -5.302   5.302   0.137 -0.47 -0.00    -0.021 A 
DOCKED: ATOM     17  C   UNL d   1      -6.310   5.902   0.862 -0.49 +0.00    +0.000 A 
DOCKED: ATOM     18  C   UNL d   1      -7.202   4.897   1.230 -0.40 +0.01    +0.070 A 
DOCKED: ATOM     19  C   UNL d   1      -4.102   6.003  -0.440 -0.59 +0.01    +0.052 C 
DOCKED: ATOM     20  C   UNL d   1      -9.304   4.096   2.321 -0.38 +0.01    +0.066 A 
DOCKED: ATOM     21  C   UNL d   1     -10.346   4.263   3.244 -0.38 -0.00    -0.025 A 
DOCKED: ATOM     22  C   UNL d   1     -11.051   3.078   3.238 -0.22 -0.00    -0.021 A 
DOCKED: ATOM     23  C   UNL d   1     -10.411   2.235   2.321 -0.12 +0.02    +0.066 A 
DOCKED: ATOM     24  C   UNL d   1     -10.667   5.470   4.095 -0.46 +0.00    +0.051 C 
DOCKED: ATOM     25  N   UNL d   1      -8.831   0.245   0.688 -0.26 -0.06    -0.248 N 
DOCKED: ATOM     26  N   UNL d   1      -6.326   1.088  -0.390 -0.27 -0.03    -0.248 N 
DOCKED: ATOM     27  N   UNL d   1      -6.790   3.702   0.710 -0.24 -0.06    -0.248 N 
DOCKED: ATOM     28  N   UNL d   1      -9.320   2.846   1.798 -0.12 -0.09    -0.248 N 
DOCKED: ATOM     29 FE   UNL d   1      -7.823   1.969   0.705 -0.09 +0.00    +0.000 Fe
DOCKED: ENDROOT
DOCKED: BRANCH   6  30
DOCKED: ATOM     30  C   UNL d   1     -11.814  -1.851   1.186 +0.88 +0.06    +0.052 C 
DOCKED: BRANCH  30  31
DOCKED: ATOM     31  C   UNL d   1     -12.771  -1.761   0.003 -0.02 +0.07    +0.115 C 
DOCKED: BRANCH  31  32
DOCKED: ATOM     32  C   UNL d   1     -14.198  -1.774   0.479 -0.16 +0.11    +0.139 C 
DOCKED: ATOM     33  O   UNL d   1     -15.122  -1.709  -0.319 +0.02 -0.26    -0.650 OA
DOCKED: BRANCH  32  34
DOCKED: ATOM     34  O   UNL d   1     -14.470  -1.857   1.792 -0.31 -1.39    -0.776 OA
DOCKED: ATOM     35  H   UNL d   1     -14.206  -1.130   2.374 +0.03 +0.32    +0.167 HD
DOCKED: ENDBRANCH  32  34
DOCKED: ENDBRANCH  31  32
DOCKED: ENDBRANCH  30  31
DOCKED: ENDBRANCH   6  30
DOCKED: BRANCH  22  36
DOCKED: ATOM     36  C   UNL d   1     -12.242   2.758   4.102 -0.24 +0.01    +0.052 C 
DOCKED: BRANCH  36  37
DOCKED: ATOM     37  C   UNL d   1     -13.452   2.475   3.224 -0.21 +0.04    +0.115 C 
DOCKED: BRANCH  37  38
DOCKED: ATOM     38  C   UNL d   1     -13.818   1.018   3.264 -0.17 +0.10    +0.139 C 
DOCKED: ATOM     39  O   UNL d   1     -13.041   0.191   3.717 -0.40 -0.93    -0.650 OA
DOCKED: BRANCH  38  40
DOCKED: ATOM     40  O   UNL d   1     -15.010   0.612   2.793 +0.02 -0.47    -0.776 OA
DOCKED: ATOM     41  H   UNL d   1     -15.038   0.039   2.014 +0.04 +0.11    +0.167 HD
DOCKED: ENDBRANCH  38  40
DOCKED: ENDBRANCH  37  38
DOCKED: ENDBRANCH  36  37
DOCKED: ENDBRANCH  22  36
DOCKED: BRANCH  12  42
DOCKED: ATOM     42  C   UNL d   1      -2.869   0.841  -1.791 -0.42 +0.00    +0.004 C 
DOCKED: ATOM     43  C   UNL d   1      -2.558   1.762  -2.712 -0.62 +0.00    +0.012 C 
DOCKED: ENDBRANCH  12  42
DOCKED: BRANCH  17  44
DOCKED: ATOM     44  C   UNL d   1      -6.424   7.347   1.165 -0.48 +0.00    +0.004 C 
DOCKED: ATOM     45  C   UNL d   1      -5.511   7.961   1.925 -0.69 +0.00    +0.012 C 
DOCKED: ENDBRANCH  17  44
DOCKED: TORSDOF 10
DOCKED: TER
DOCKED: ENDMDL
________________________________________________________________________________


	BEGINNING GENETIC ALGORITHM DOCKING 24 of 100
Run: 24 Seed: 702173294 1498917509 [ Run 24 of 100 GA/GALS ]
Beginning LAMARCKIAN GENETIC ALGORITHM (LGA), with a maximum of 25000000 energy evaluations.

Final-Value: -17.190


	FINAL GENETIC ALGORITHM DOCKED STATE
	_______________________________________________


Detailed state:  trans -8.970 1.108 1.500 quatxyzw -0.935020 -0.154986 0.250341 -0.197604 center -0.174 -0.001 -0.047 ntor 10 57.1131 -98.8216 29.5093 -137.6139 151.4508 -136.7836 -59.6837 9.8854 -161.1376 157.3240
State:	 -8.970   1.108   1.500  -0.954 -0.158  0.255 -157.206     57.11  -98.82   29.51 -137.61  151.45 -136.78  -59.68    9.89 -161.14  157.32

DOCKED: MODEL       24
DOCKED: USER    Run = 24
DOCKED: USER    DPF = D:/Protein_go_brrr/autodock/final/mut_D99N/heme_Fe/dock.dpf
DOCKED: USER  
DOCKED: USER    Estimated Free Energy of Binding    =  -12.05 kcal/mol  [=(1)+(2)+(3)-(4)]
DOCKED: USER    Estimated Inhibition Constant, Ki   =    1.48 nM (nanomolar)  [Temperature = 298.15 K]
DOCKED: USER    
DOCKED: USER    (1) Final Intermolecular Energy     =  -15.03 kcal/mol
DOCKED: USER        vdW + Hbond + desolv Energy     =  -13.05 kcal/mol
DOCKED: USER        Electrostatic Energy            =   -1.98 kcal/mol
DOCKED: USER    (2) Final Total Internal Energy     =   -2.16 kcal/mol
DOCKED: USER    (3) Torsional Free Energy           =   +2.98 kcal/mol
DOCKED: USER    (4) Unbound System's Energy  [=(2)] =   -2.16 kcal/mol
DOCKED: USER    
DOCKED: USER    
DOCKED: USER    NEWDPF move heme_Fe_opt.pdbqt
DOCKED: USER    NEWDPF about -0.174000 -0.001000 -0.047000
DOCKED: USER    NEWDPF tran0 -8.970481 1.108283 1.499558
DOCKED: USER    NEWDPF quaternion0 -0.935020 -0.154986 0.250341 -0.197604
DOCKED: USER    NEWDPF axisangle0 -0.953827 -0.158104 0.255376 -157.206254
DOCKED: USER    NEWDPF quat0 -0.953827 -0.158104 0.255376 -157.206254
DOCKED: USER    NEWDPF dihe0 57.11 -98.82 29.51 -137.61 151.45 -136.78 -59.68 9.89 -161.14 157.32 
DOCKED: USER  keepresnum = 1 
DOCKED: USER  
DOCKED: REMARK  10 active torsions:
DOCKED: REMARK  status: ('A' for Active; 'I' for Inactive)
DOCKED: REMARK    1  A    between atoms: C_6  and  C_10 
DOCKED: REMARK    2  A    between atoms: C_10  and  C_11 
DOCKED: REMARK    3  A    between atoms: C_11  and  C_12 
DOCKED: REMARK    4  A    between atoms: C_12  and  O_14 
DOCKED: REMARK    5  A    between atoms: C_17  and  C_20 
DOCKED: REMARK    6  A    between atoms: C_24  and  C_27 
DOCKED: REMARK    7  A    between atoms: C_31  and  C_34 
DOCKED: REMARK    8  A    between atoms: C_34  and  C_35 
DOCKED: REMARK    9  A    between atoms: C_35  and  C_36 
DOCKED: REMARK   10  A    between atoms: C_36  and  O_38 
DOCKED: USER                              x       y       z     vdW  Elec       q    Type
DOCKED: USER                           _______ _______ _______ _____ _____    ______ ____
DOCKED: ROOT
DOCKED: ATOM      1  C   UNL d   1     -10.901   0.545   1.908 -0.37 +0.03    +0.064 C 
DOCKED: ATOM      2  C   UNL d   1      -8.414   4.814   2.063 -0.42 +0.01    +0.064 A 
DOCKED: ATOM      3  C   UNL d   1      -4.926   2.797  -0.551 -0.39 +0.01    +0.064 C 
DOCKED: ATOM      4  C   UNL d   1      -7.267  -1.374  -0.624 -0.42 +0.01    +0.064 C 
DOCKED: ATOM      5  C   UNL d   1     -10.486   1.909   2.265 -0.12 +0.02    +0.066 A 
DOCKED: ATOM      6  C   UNL d   1     -11.191   2.756   3.104 -0.19 -0.01    -0.021 A 
DOCKED: ATOM      7  C   UNL d   1     -10.502   3.942   3.144 -0.36 -0.00    -0.025 A 
DOCKED: ATOM      8  C   UNL d   1      -9.401   3.774   2.327 -0.35 +0.02    +0.066 A 
DOCKED: ATOM      9  C   UNL d   1     -10.876   5.155   3.939 -0.43 +0.00    +0.051 C 
DOCKED: ATOM     10  C   UNL d   1      -7.313   4.659   1.326 -0.38 +0.01    +0.066 A 
DOCKED: ATOM     11  C   UNL d   1      -6.447   5.705   0.998 -0.46 -0.00    -0.021 A 
DOCKED: ATOM     12  C   UNL d   1      -5.442   5.153   0.230 -0.47 +0.00    +0.000 A 
DOCKED: ATOM     13  C   UNL d   1      -5.754   3.786   0.121 -0.38 +0.01    +0.070 A 
DOCKED: ATOM     14  C   UNL d   1      -6.607   7.172   1.341 -0.54 +0.01    +0.052 C 
DOCKED: ATOM     15  C   UNL d   1      -5.248   1.491  -0.703 -0.38 +0.01    +0.066 A 
DOCKED: ATOM     16  C   UNL d   1      -4.385   0.557  -1.263 -0.35 -0.00    -0.021 A 
DOCKED: ATOM     17  C   UNL d   1      -5.060  -0.646  -1.288 -0.42 +0.00    +0.000 A 
DOCKED: ATOM     18  C   UNL d   1      -6.322  -0.417  -0.745 -0.41 +0.01    +0.070 A 
DOCKED: ATOM     19  C   UNL d   1      -2.990   0.789  -1.778 -0.40 +0.00    +0.052 C 
DOCKED: ATOM     20  C   UNL d   1      -8.583  -1.184  -0.002 -0.34 +0.01    +0.066 A 
DOCKED: ATOM     21  C   UNL d   1      -9.641  -2.104  -0.048 -0.13 -0.01    -0.025 A 
DOCKED: ATOM     22  C   UNL d   1     -10.662  -1.542   0.690 -0.16 -0.01    -0.021 A 
DOCKED: ATOM     23  C   UNL d   1     -10.192  -0.306   1.150 -0.35 +0.03    +0.066 A 
DOCKED: ATOM     24  C   UNL d   1      -9.699  -3.440  -0.750 -0.15 +0.01    +0.051 C 
DOCKED: ATOM     25  N   UNL d   1      -9.389   2.532   1.801 -0.17 -0.09    -0.248 N 
DOCKED: ATOM     26  N   UNL d   1      -6.899   3.487   0.781 -0.19 -0.06    -0.248 N 
DOCKED: ATOM     27  N   UNL d   1      -6.423   0.886  -0.345 -0.27 -0.03    -0.248 N 
DOCKED: ATOM     28  N   UNL d   1      -8.939  -0.073   0.687 -0.27 -0.07    -0.248 N 
DOCKED: ATOM     29 FE   UNL d   1      -7.919   1.705   0.733 -0.09 +0.00    +0.000 Fe
DOCKED: ENDROOT
DOCKED: BRANCH   6  30
DOCKED: ATOM     30  C   UNL d   1     -12.445   2.449   3.849 -0.23 +0.02    +0.052 C 
DOCKED: BRANCH  30  31
DOCKED: ATOM     31  C   UNL d   1     -13.632   2.363   2.896 -0.21 +0.04    +0.115 C 
DOCKED: BRANCH  31  32
DOCKED: ATOM     32  C   UNL d   1     -14.268   1.003   2.969 -0.16 +0.09    +0.139 C 
DOCKED: ATOM     33  O   UNL d   1     -15.460   0.859   2.733 -0.00 -0.31    -0.650 OA
DOCKED: BRANCH  32  34
DOCKED: ATOM     34  O   UNL d   1     -13.530  -0.071   3.296 -0.16 -1.17    -0.776 OA
DOCKED: ATOM     35  H   UNL d   1     -13.494  -0.820   2.685 +0.05 +0.37    +0.167 HD
DOCKED: ENDBRANCH  32  34
DOCKED: ENDBRANCH  31  32
DOCKED: ENDBRANCH  30  31
DOCKED: ENDBRANCH   6  30
DOCKED: BRANCH  22  36
DOCKED: ATOM     36  C   UNL d   1     -12.028  -2.140   0.900 +0.29 +0.06    +0.052 C 
DOCKED: BRANCH  36  37
DOCKED: ATOM     37  C   UNL d   1     -13.050  -1.391   0.058 -0.06 +0.07    +0.115 C 
DOCKED: BRANCH  37  38
DOCKED: ATOM     38  C   UNL d   1     -14.449  -1.815   0.406 -0.16 +0.10    +0.139 C 
DOCKED: ATOM     39  O   UNL d   1     -15.276  -2.021  -0.470 +0.00 -0.24    -0.650 OA
DOCKED: BRANCH  38  40
DOCKED: ATOM     40  O   UNL d   1     -14.803  -1.968   1.695 -0.43 -1.13    -0.776 OA
DOCKED: ATOM     41  H   UNL d   1     -15.038  -1.186   2.213 +0.02 +0.20    +0.167 HD
DOCKED: ENDBRANCH  38  40
DOCKED: ENDBRANCH  37  38
DOCKED: ENDBRANCH  36  37
DOCKED: ENDBRANCH  22  36
DOCKED: BRANCH  12  42
DOCKED: ATOM     42  C   UNL d   1      -4.294   5.914  -0.354 -0.64 +0.00    +0.004 C 
DOCKED: ATOM     43  C   UNL d   1      -3.254   6.282   0.405 -0.61 +0.00    +0.012 C 
DOCKED: ENDBRANCH  12  42
DOCKED: BRANCH  17  44
DOCKED: ATOM     44  C   UNL d   1      -4.524  -1.935  -1.780 -0.65 -0.00    +0.004 C 
DOCKED: ATOM     45  C   UNL d   1      -4.556  -2.238  -3.082 -0.73 -0.00    +0.012 C 
DOCKED: ENDBRANCH  17  44
DOCKED: TORSDOF 10
DOCKED: TER
DOCKED: ENDMDL
________________________________________________________________________________


	BEGINNING GENETIC ALGORITHM DOCKING 25 of 100
Run: 25 Seed: 1440694246 867181425 [ Run 25 of 100 GA/GALS ]
Beginning LAMARCKIAN GENETIC ALGORITHM (LGA), with a maximum of 25000000 energy evaluations.

Final-Value: -11.786


	FINAL GENETIC ALGORITHM DOCKED STATE
	_______________________________________________


Detailed state:  trans 5.510 0.446 -18.220 quatxyzw -0.513857 0.137146 0.104440 0.840378 center -0.174 -0.001 -0.047 ntor 10 121.0772 -110.5967 -136.4665 180.0000 124.3950 179.7045 -42.2502 32.3621 -177.4224 -169.4953
State:	  5.510   0.446 -18.220  -0.948  0.253  0.193 65.640    121.08 -110.60 -136.47  180.00  124.39  179.70  -42.25   32.36 -177.42 -169.50

DOCKED: MODEL       25
DOCKED: USER    Run = 25
DOCKED: USER    DPF = D:/Protein_go_brrr/autodock/final/mut_D99N/heme_Fe/dock.dpf
DOCKED: USER  
DOCKED: USER    Estimated Free Energy of Binding    =   -7.40 kcal/mol  [=(1)+(2)+(3)-(4)]
DOCKED: USER    Estimated Inhibition Constant, Ki   =    3.74 uM (micromolar)  [Temperature = 298.15 K]
DOCKED: USER    
DOCKED: USER    (1) Final Intermolecular Energy     =  -10.39 kcal/mol
DOCKED: USER        vdW + Hbond + desolv Energy     =   -7.13 kcal/mol
DOCKED: USER        Electrostatic Energy            =   -3.26 kcal/mol
DOCKED: USER    (2) Final Total Internal Energy     =   -1.40 kcal/mol
DOCKED: USER    (3) Torsional Free Energy           =   +2.98 kcal/mol
DOCKED: USER    (4) Unbound System's Energy  [=(2)] =   -1.40 kcal/mol
DOCKED: USER    
DOCKED: USER    
DOCKED: USER    NEWDPF move heme_Fe_opt.pdbqt
DOCKED: USER    NEWDPF about -0.174000 -0.001000 -0.047000
DOCKED: USER    NEWDPF tran0 5.510308 0.445980 -18.220042
DOCKED: USER    NEWDPF quaternion0 -0.513857 0.137146 0.104440 0.840378
DOCKED: USER    NEWDPF axisangle0 -0.948073 0.253037 0.192693 65.639955
DOCKED: USER    NEWDPF quat0 -0.948073 0.253037 0.192693 65.639955
DOCKED: USER    NEWDPF dihe0 121.08 -110.60 -136.47 180.00 124.39 179.70 -42.25 32.36 -177.42 -169.50 
DOCKED: USER  keepresnum = 1 
DOCKED: USER  
DOCKED: REMARK  10 active torsions:
DOCKED: REMARK  status: ('A' for Active; 'I' for Inactive)
DOCKED: REMARK    1  A    between atoms: C_6  and  C_10 
DOCKED: REMARK    2  A    between atoms: C_10  and  C_11 
DOCKED: REMARK    3  A    between atoms: C_11  and  C_12 
DOCKED: REMARK    4  A    between atoms: C_12  and  O_14 
DOCKED: REMARK    5  A    between atoms: C_17  and  C_20 
DOCKED: REMARK    6  A    between atoms: C_24  and  C_27 
DOCKED: REMARK    7  A    between atoms: C_31  and  C_34 
DOCKED: REMARK    8  A    between atoms: C_34  and  C_35 
DOCKED: REMARK    9  A    between atoms: C_35  and  C_36 
DOCKED: REMARK   10  A    between atoms: C_36  and  O_38 
DOCKED: USER                              x       y       z     vdW  Elec       q    Type
DOCKED: USER                           _______ _______ _______ _____ _____    ______ ____
DOCKED: ROOT
DOCKED: ATOM      1  C   UNL d   1       3.465   0.602 -18.286 -0.14 +0.02    +0.064 C 
DOCKED: ATOM      2  C   UNL d   1       6.851  -1.888 -20.887 -0.13 +0.01    +0.064 A 
DOCKED: ATOM      3  C   UNL d   1      10.069  -0.976 -17.441 -0.10 +0.04    +0.064 C 
DOCKED: ATOM      4  C   UNL d   1       6.837   1.528 -14.958 -0.17 +0.01    +0.064 C 
DOCKED: ATOM      5  C   UNL d   1       4.142  -0.112 -19.377 -0.12 +0.02    +0.066 A 
DOCKED: ATOM      6  C   UNL d   1       3.555  -0.446 -20.587 -0.11 -0.01    -0.021 A 
DOCKED: ATOM      7  C   UNL d   1       4.495  -1.141 -21.307 -0.11 -0.00    -0.025 A 
DOCKED: ATOM      8  C   UNL d   1       5.620  -1.204 -20.508 -0.12 +0.01    +0.066 A 
DOCKED: ATOM      9  C   UNL d   1       4.318  -1.692 -22.689 -0.10 +0.01    +0.051 C 
DOCKED: ATOM     10  C   UNL d   1       7.969  -1.915 -20.160 -0.16 +0.01    +0.066 A 
DOCKED: ATOM     11  C   UNL d   1       9.093  -2.674 -20.496 -0.16 -0.00    -0.021 A 
DOCKED: ATOM     12  C   UNL d   1      10.030  -2.441 -19.509 -0.15 +0.00    +0.000 A 
DOCKED: ATOM     13  C   UNL d   1       9.420  -1.550 -18.609 -0.14 +0.03    +0.070 A 
DOCKED: ATOM     14  C   UNL d   1       9.243  -3.628 -21.663 -0.14 +0.00    +0.052 C 
DOCKED: ATOM     15  C   UNL d   1       9.470  -0.158 -16.543 -0.05 +0.03    +0.066 A 
DOCKED: ATOM     16  C   UNL d   1      10.152   0.449 -15.497 -0.08 -0.01    -0.021 A 
DOCKED: ATOM     17  C   UNL d   1       9.221   1.169 -14.777 -0.15 +0.00    +0.000 A 
DOCKED: ATOM     18  C   UNL d   1       7.989   0.980 -15.401 -0.14 +0.02    +0.070 A 
DOCKED: ATOM     19  C   UNL d   1      11.616   0.339 -15.168 -0.11 +0.02    +0.052 C 
DOCKED: ATOM     20  C   UNL d   1       5.534   1.402 -15.622 -0.11 +0.01    +0.066 A 
DOCKED: ATOM     21  C   UNL d   1       4.304   1.792 -15.074 -0.16 -0.01    -0.025 A 
DOCKED: ATOM     22  C   UNL d   1       3.359   1.531 -16.045 -0.15 -0.01    -0.021 A 
DOCKED: ATOM     23  C   UNL d   1       4.045   0.989 -17.138 -0.11 +0.02    +0.066 A 
DOCKED: ATOM     24  C   UNL d   1       4.022   2.376 -13.710 -0.14 +0.01    +0.051 C 
DOCKED: ATOM     25  N   UNL d   1       5.406  -0.569 -19.339 -0.08 -0.06    -0.248 N 
DOCKED: ATOM     26  N   UNL d   1       8.161  -1.236 -19.001 -0.09 -0.07    -0.248 N 
DOCKED: ATOM     27  N   UNL d   1       8.149   0.200 -16.512 -0.09 -0.08    -0.248 N 
DOCKED: ATOM     28  N   UNL d   1       5.365   0.871 -16.857 -0.04 -0.06    -0.248 N 
DOCKED: ATOM     29 FE   UNL d   1       6.763  -0.182 -17.927 -0.03 +0.00    +0.000 Fe
DOCKED: ENDROOT
DOCKED: BRANCH   6  30
DOCKED: ATOM     30  C   UNL d   1       2.179  -0.106 -21.046 -0.10 +0.02    +0.052 C 
DOCKED: BRANCH  30  31
DOCKED: ATOM     31  C   UNL d   1       1.182  -1.171 -20.602 -0.20 +0.07    +0.115 C 
DOCKED: BRANCH  31  32
DOCKED: ATOM     32  C   UNL d   1      -0.084  -0.531 -20.104 -0.05 +0.17    +0.139 C 
DOCKED: ATOM     33  O   UNL d   1      -1.166  -0.829 -20.590 -0.14 -0.80    -0.650 OA
DOCKED: BRANCH  32  34
DOCKED: ATOM     34  O   UNL d   1      -0.037   0.378 -19.115 -0.56 -1.27    -0.776 OA
DOCKED: ATOM     35  H   UNL d   1       0.339   0.123 -18.261 -0.37 +0.31    +0.167 HD
DOCKED: ENDBRANCH  32  34
DOCKED: ENDBRANCH  31  32
DOCKED: ENDBRANCH  30  31
DOCKED: ENDBRANCH   6  30
DOCKED: BRANCH  22  36
DOCKED: ATOM     36  C   UNL d   1       1.874   1.745 -15.907 -0.23 +0.03    +0.052 C 
DOCKED: BRANCH  36  37
DOCKED: ATOM     37  C   UNL d   1       1.288   0.694 -14.977 -0.39 +0.08    +0.115 C 
DOCKED: BRANCH  37  38
DOCKED: ATOM     38  C   UNL d   1      -0.123   0.356 -15.367 -0.26 +0.19    +0.139 C 
DOCKED: ATOM     39  O   UNL d   1      -0.763  -0.476 -14.741 -0.61 -1.00    -0.650 OA
DOCKED: BRANCH  38  40
DOCKED: ATOM     40  O   UNL d   1      -0.694   0.971 -16.418 +0.01 -1.35    -0.776 OA
DOCKED: ATOM     41  H   UNL d   1      -0.373   0.773 -17.309 +0.01 +0.33    +0.167 HD
DOCKED: ENDBRANCH  38  40
DOCKED: ENDBRANCH  37  38
DOCKED: ENDBRANCH  36  37
DOCKED: ENDBRANCH  22  36
DOCKED: BRANCH  12  42
DOCKED: ATOM     42  C   UNL d   1      11.391  -3.060 -19.457 -0.12 +0.00    +0.004 C 
DOCKED: ATOM     43  C   UNL d   1      11.589  -4.237 -18.849 -0.20 +0.01    +0.012 C 
DOCKED: ENDBRANCH  12  42
DOCKED: BRANCH  17  44
DOCKED: ATOM     44  C   UNL d   1       9.495   2.000 -13.583 -0.19 +0.00    +0.004 C 
DOCKED: ATOM     45  C   UNL d   1       8.817   1.810 -12.446 -0.35 +0.00    +0.012 C 
DOCKED: ENDBRANCH  17  44
DOCKED: TORSDOF 10
DOCKED: TER
DOCKED: ENDMDL
________________________________________________________________________________


	BEGINNING GENETIC ALGORITHM DOCKING 26 of 100
Run: 26 Seed: 1846598387 1591507 [ Run 26 of 100 GA/GALS ]
Beginning LAMARCKIAN GENETIC ALGORITHM (LGA), with a maximum of 25000000 energy evaluations.

Final-Value: -10.906


	FINAL GENETIC ALGORITHM DOCKED STATE
	_______________________________________________


Detailed state:  trans -1.040 6.433 -15.350 quatxyzw 0.427672 -0.231682 0.445252 -0.751778 center -0.174 -0.001 -0.047 ntor 10 -125.3657 49.8524 78.7655 64.5161 151.4287 -113.6687 -61.9997 -84.1060 156.7688 0.6718
State:	 -1.040   6.433 -15.350   0.649 -0.351  0.675 -82.511   -125.37   49.85   78.77   64.52  151.43 -113.67  -62.00  -84.11  156.77    0.67

DOCKED: MODEL       26
DOCKED: USER    Run = 26
DOCKED: USER    DPF = D:/Protein_go_brrr/autodock/final/mut_D99N/heme_Fe/dock.dpf
DOCKED: USER  
DOCKED: USER    Estimated Free Energy of Binding    =   -6.23 kcal/mol  [=(1)+(2)+(3)-(4)]
DOCKED: USER    Estimated Inhibition Constant, Ki   =   27.31 uM (micromolar)  [Temperature = 298.15 K]
DOCKED: USER    
DOCKED: USER    (1) Final Intermolecular Energy     =   -9.21 kcal/mol
DOCKED: USER        vdW + Hbond + desolv Energy     =   -6.11 kcal/mol
DOCKED: USER        Electrostatic Energy            =   -3.10 kcal/mol
DOCKED: USER    (2) Final Total Internal Energy     =   -1.70 kcal/mol
DOCKED: USER    (3) Torsional Free Energy           =   +2.98 kcal/mol
DOCKED: USER    (4) Unbound System's Energy  [=(2)] =   -1.70 kcal/mol
DOCKED: USER    
DOCKED: USER    
DOCKED: USER    NEWDPF move heme_Fe_opt.pdbqt
DOCKED: USER    NEWDPF about -0.174000 -0.001000 -0.047000
DOCKED: USER    NEWDPF tran0 -1.039865 6.432782 -15.350206
DOCKED: USER    NEWDPF quaternion0 0.427672 -0.231682 0.445252 -0.751778
DOCKED: USER    NEWDPF axisangle0 0.648562 -0.351344 0.675222 -82.510725
DOCKED: USER    NEWDPF quat0 0.648562 -0.351344 0.675222 -82.510725
DOCKED: USER    NEWDPF dihe0 -125.37 49.85 78.77 64.52 151.43 -113.67 -62.00 -84.11 156.77 0.67 
DOCKED: USER  keepresnum = 1 
DOCKED: USER  
DOCKED: REMARK  10 active torsions:
DOCKED: REMARK  status: ('A' for Active; 'I' for Inactive)
DOCKED: REMARK    1  A    between atoms: C_6  and  C_10 
DOCKED: REMARK    2  A    between atoms: C_10  and  C_11 
DOCKED: REMARK    3  A    between atoms: C_11  and  C_12 
DOCKED: REMARK    4  A    between atoms: C_12  and  O_14 
DOCKED: REMARK    5  A    between atoms: C_17  and  C_20 
DOCKED: REMARK    6  A    between atoms: C_24  and  C_27 
DOCKED: REMARK    7  A    between atoms: C_31  and  C_34 
DOCKED: REMARK    8  A    between atoms: C_34  and  C_35 
DOCKED: REMARK    9  A    between atoms: C_35  and  C_36 
DOCKED: REMARK   10  A    between atoms: C_36  and  O_38 
DOCKED: USER                              x       y       z     vdW  Elec       q    Type
DOCKED: USER                           _______ _______ _______ _____ _____    ______ ____
DOCKED: ROOT
DOCKED: ATOM      1  C   UNL d   1      -1.954   5.033 -16.540 -0.14 +0.03    +0.064 C 
DOCKED: ATOM      2  C   UNL d   1       2.736   6.129 -15.432 -0.07 +0.01    +0.064 A 
DOCKED: ATOM      3  C   UNL d   1       1.173   8.774 -11.740 -0.13 -0.00    +0.064 C 
DOCKED: ATOM      4  C   UNL d   1      -3.377   7.812 -12.859 -0.33 +0.00    +0.064 C 
DOCKED: ATOM      5  C   UNL d   1      -0.493   5.164 -16.621 -0.08 +0.02    +0.066 A 
DOCKED: ATOM      6  C   UNL d   1       0.295   4.627 -17.626 -0.05 -0.01    -0.021 A 
DOCKED: ATOM      7  C   UNL d   1       1.598   4.929 -17.315 -0.05 -0.01    -0.025 A 
DOCKED: ATOM      8  C   UNL d   1       1.555   5.639 -16.131 -0.07 +0.01    +0.066 A 
DOCKED: ATOM      9  C   UNL d   1       2.805   4.568 -18.125 -0.01 +0.01    +0.051 C 
DOCKED: ATOM     10  C   UNL d   1       2.720   6.865 -14.319 -0.08 +0.01    +0.066 A 
DOCKED: ATOM     11  C   UNL d   1       3.869   7.222 -13.609 -0.05 -0.00    -0.021 A 
DOCKED: ATOM     12  C   UNL d   1       3.444   7.972 -12.531 -0.07 +0.00    +0.000 A 
DOCKED: ATOM     13  C   UNL d   1       2.043   8.027 -12.635 -0.09 +0.00    +0.070 A 
DOCKED: ATOM     14  C   UNL d   1       5.297   6.812 -13.906 -0.02 +0.01    +0.052 C 
DOCKED: ATOM     15  C   UNL d   1      -0.179   8.788 -11.805 -0.11 -0.01    +0.066 A 
DOCKED: ATOM     16  C   UNL d   1      -0.969   9.594 -10.995 -0.15 +0.00    -0.021 A 
DOCKED: ATOM     17  C   UNL d   1      -2.283   9.315 -11.314 -0.22 -0.00    +0.000 A 
DOCKED: ATOM     18  C   UNL d   1      -2.262   8.341 -12.310 -0.20 -0.00    +0.070 A 
DOCKED: ATOM     19  C   UNL d   1      -0.512  10.569  -9.945 -0.25 -0.02    +0.052 C 
DOCKED: ATOM     20  C   UNL d   1      -3.395   6.832 -13.951 -0.30 +0.01    +0.066 A 
DOCKED: ATOM     21  C   UNL d   1      -4.526   6.129 -14.391 -0.40 -0.00    -0.025 A 
DOCKED: ATOM     22  C   UNL d   1      -4.100   5.353 -15.449 -0.29 -0.01    -0.021 A 
DOCKED: ATOM     23  C   UNL d   1      -2.732   5.606 -15.608 -0.17 +0.02    +0.066 A 
DOCKED: ATOM     24  C   UNL d   1      -5.935   6.176 -13.849 -0.35 +0.00    +0.051 C 
DOCKED: ATOM     25  N   UNL d   1       0.281   5.789 -15.716 -0.01 -0.04    -0.248 N 
DOCKED: ATOM     26  N   UNL d   1       1.601   7.345 -13.720 -0.08 -0.00    -0.248 N 
DOCKED: ATOM     27  N   UNL d   1      -0.969   8.048 -12.644 -0.05 +0.04    -0.248 N 
DOCKED: ATOM     28  N   UNL d   1      -2.298   6.475 -14.662 -0.11 -0.03    -0.248 N 
DOCKED: ATOM     29 FE   UNL d   1      -0.350   6.910 -14.190 -0.04 -0.00    +0.000 Fe
DOCKED: ENDROOT
DOCKED: BRANCH   6  30
DOCKED: ATOM     30  C   UNL d   1      -0.166   3.884 -18.832 -0.02 +0.02    +0.052 C 
DOCKED: BRANCH  30  31
DOCKED: ATOM     31  C   UNL d   1       0.297   2.432 -18.782 -0.06 +0.07    +0.115 C 
DOCKED: BRANCH  31  32
DOCKED: ATOM     32  C   UNL d   1      -0.885   1.503 -18.753 -0.07 +0.18    +0.139 C 
DOCKED: ATOM     33  O   UNL d   1      -0.804   0.375 -19.219 -0.43 -1.37    -0.650 OA
DOCKED: BRANCH  32  34
DOCKED: ATOM     34  O   UNL d   1      -2.047   1.907 -18.212 +0.04 -1.04    -0.776 OA
DOCKED: ATOM     35  H   UNL d   1      -2.456   2.722 -18.534 +0.04 +0.17    +0.167 HD
DOCKED: ENDBRANCH  32  34
DOCKED: ENDBRANCH  31  32
DOCKED: ENDBRANCH  30  31
DOCKED: ENDBRANCH   6  30
DOCKED: BRANCH  22  36
DOCKED: ATOM     36  C   UNL d   1      -4.951   4.386 -16.229 -0.34 +0.05    +0.052 C 
DOCKED: BRANCH  36  37
DOCKED: ATOM     37  C   UNL d   1      -5.437   5.049 -17.510 -0.19 +0.11    +0.115 C 
DOCKED: BRANCH  37  38
DOCKED: ATOM     38  C   UNL d   1      -4.533   4.720 -18.664 -0.06 +0.14    +0.139 C 
DOCKED: ATOM     39  O   UNL d   1      -3.865   5.589 -19.203 +0.04 -0.32    -0.650 OA
DOCKED: BRANCH  38  40
DOCKED: ATOM     40  O   UNL d   1      -4.456   3.455 -19.116 -0.38 -1.36    -0.776 OA
DOCKED: ATOM     41  H   UNL d   1      -3.585   3.054 -19.243 +0.02 +0.21    +0.167 HD
DOCKED: ENDBRANCH  38  40
DOCKED: ENDBRANCH  37  38
DOCKED: ENDBRANCH  36  37
DOCKED: ENDBRANCH  22  36
DOCKED: BRANCH  12  42
DOCKED: ATOM     42  C   UNL d   1       4.342   8.558 -11.489 -0.09 +0.00    +0.004 C 
DOCKED: ATOM     43  C   UNL d   1       4.292   9.863 -11.191 -0.09 +0.00    +0.012 C 
DOCKED: ENDBRANCH  12  42
DOCKED: BRANCH  17  44
DOCKED: ATOM     44  C   UNL d   1      -3.478   9.954 -10.719 -0.23 +0.00    +0.004 C 
DOCKED: ATOM     45  C   UNL d   1      -4.329  10.654 -11.476 -0.31 +0.00    +0.012 C 
DOCKED: ENDBRANCH  17  44
DOCKED: TORSDOF 10
DOCKED: TER
DOCKED: ENDMDL
________________________________________________________________________________


	BEGINNING GENETIC ALGORITHM DOCKING 27 of 100
Run: 27 Seed: 212847423 323673198 [ Run 27 of 100 GA/GALS ]
Beginning LAMARCKIAN GENETIC ALGORITHM (LGA), with a maximum of 25000000 energy evaluations.

Final-Value: -10.223


	FINAL GENETIC ALGORITHM DOCKED STATE
	_______________________________________________


Detailed state:  trans -0.035 4.465 -15.781 quatxyzw -0.942821 -0.148345 -0.211766 -0.210327 center -0.174 -0.001 -0.047 ntor 10 127.1600 -18.1736 57.7132 49.0321 -112.7633 -51.0172 39.5456 45.2086 -17.3503 4.6309
State:	 -0.035   4.465 -15.781  -0.964 -0.152 -0.217 -155.717    127.16  -18.17   57.71   49.03 -112.76  -51.02   39.55   45.21  -17.35    4.63

DOCKED: MODEL       27
DOCKED: USER    Run = 27
DOCKED: USER    DPF = D:/Protein_go_brrr/autodock/final/mut_D99N/heme_Fe/dock.dpf
DOCKED: USER  
DOCKED: USER    Estimated Free Energy of Binding    =   -6.66 kcal/mol  [=(1)+(2)+(3)-(4)]
DOCKED: USER    Estimated Inhibition Constant, Ki   =   13.07 uM (micromolar)  [Temperature = 298.15 K]
DOCKED: USER    
DOCKED: USER    (1) Final Intermolecular Energy     =   -9.65 kcal/mol
DOCKED: USER        vdW + Hbond + desolv Energy     =   -5.87 kcal/mol
DOCKED: USER        Electrostatic Energy            =   -3.77 kcal/mol
DOCKED: USER    (2) Final Total Internal Energy     =   -0.58 kcal/mol
DOCKED: USER    (3) Torsional Free Energy           =   +2.98 kcal/mol
DOCKED: USER    (4) Unbound System's Energy  [=(2)] =   -0.58 kcal/mol
DOCKED: USER    
DOCKED: USER    
DOCKED: USER    NEWDPF move heme_Fe_opt.pdbqt
DOCKED: USER    NEWDPF about -0.174000 -0.001000 -0.047000
DOCKED: USER    NEWDPF tran0 -0.035028 4.464623 -15.781289
DOCKED: USER    NEWDPF quaternion0 -0.942821 -0.148345 -0.211766 -0.210327
DOCKED: USER    NEWDPF axisangle0 -0.964393 -0.151740 -0.216611 -155.716920
DOCKED: USER    NEWDPF quat0 -0.964393 -0.151740 -0.216611 -155.716920
DOCKED: USER    NEWDPF dihe0 127.16 -18.17 57.71 49.03 -112.76 -51.02 39.55 45.21 -17.35 4.63 
DOCKED: USER  keepresnum = 1 
DOCKED: USER  
DOCKED: REMARK  10 active torsions:
DOCKED: REMARK  status: ('A' for Active; 'I' for Inactive)
DOCKED: REMARK    1  A    between atoms: C_6  and  C_10 
DOCKED: REMARK    2  A    between atoms: C_10  and  C_11 
DOCKED: REMARK    3  A    between atoms: C_11  and  C_12 
DOCKED: REMARK    4  A    between atoms: C_12  and  O_14 
DOCKED: REMARK    5  A    between atoms: C_17  and  C_20 
DOCKED: REMARK    6  A    between atoms: C_24  and  C_27 
DOCKED: REMARK    7  A    between atoms: C_31  and  C_34 
DOCKED: REMARK    8  A    between atoms: C_34  and  C_35 
DOCKED: REMARK    9  A    between atoms: C_35  and  C_36 
DOCKED: REMARK   10  A    between atoms: C_36  and  O_38 
DOCKED: USER                              x       y       z     vdW  Elec       q    Type
DOCKED: USER                           _______ _______ _______ _____ _____    ______ ____
DOCKED: ROOT
DOCKED: ATOM      1  C   UNL d   1      -1.594   4.383 -17.113 -0.11 +0.03    +0.064 C 
DOCKED: ATOM      2  C   UNL d   1       0.278   7.874 -14.158 -0.09 -0.00    +0.064 A 
DOCKED: ATOM      3  C   UNL d   1       4.226   5.195 -13.608 -0.12 +0.01    +0.064 C 
DOCKED: ATOM      4  C   UNL d   1       2.389   1.756 -16.381 -0.17 +0.03    +0.064 C 
DOCKED: ATOM      5  C   UNL d   1      -1.468   5.576 -16.266 -0.10 +0.02    +0.066 A 
DOCKED: ATOM      6  C   UNL d   1      -2.460   6.525 -16.084 -0.12 -0.00    -0.021 A 
DOCKED: ATOM      7  C   UNL d   1      -1.938   7.496 -15.266 -0.13 -0.00    -0.025 A 
DOCKED: ATOM      8  C   UNL d   1      -0.646   7.102 -14.979 -0.09 +0.00    +0.066 A 
DOCKED: ATOM      9  C   UNL d   1      -2.654   8.718 -14.778 -0.14 +0.00    +0.051 C 
DOCKED: ATOM     10  C   UNL d   1       1.510   7.489 -13.820 -0.10 +0.00    +0.066 A 
DOCKED: ATOM     11  C   UNL d   1       2.413   8.301 -13.127 -0.06 -0.00    -0.021 A 
DOCKED: ATOM     12  C   UNL d   1       3.565   7.557 -12.971 -0.06 +0.00    +0.000 A 
DOCKED: ATOM     13  C   UNL d   1       3.307   6.321 -13.589 -0.10 +0.01    +0.070 A 
DOCKED: ATOM     14  C   UNL d   1       2.211   9.739 -12.696 -0.04 -0.00    +0.052 C 
DOCKED: ATOM     15  C   UNL d   1       4.002   4.022 -14.246 -0.12 +0.01    +0.066 A 
DOCKED: ATOM     16  C   UNL d   1       4.862   2.934 -14.157 -0.14 -0.00    -0.021 A 
DOCKED: ATOM     17  C   UNL d   1       4.336   1.942 -14.959 -0.17 +0.00    +0.000 A 
DOCKED: ATOM     18  C   UNL d   1       3.168   2.451 -15.522 -0.13 +0.02    +0.070 A 
DOCKED: ATOM     19  C   UNL d   1       6.141   2.836 -13.371 -0.19 +0.01    +0.052 C 
DOCKED: ATOM     20  C   UNL d   1       1.122   2.235 -16.945 -0.13 +0.04    +0.066 A 
DOCKED: ATOM     21  C   UNL d   1       0.411   1.615 -17.982 -0.14 -0.02    -0.025 A 
DOCKED: ATOM     22  C   UNL d   1      -0.727   2.373 -18.166 -0.10 -0.02    -0.021 A 
DOCKED: ATOM     23  C   UNL d   1      -0.663   3.424 -17.243 -0.09 +0.04    +0.066 A 
DOCKED: ATOM     24  C   UNL d   1       0.777   0.377 -18.768 +0.02 +0.05    +0.051 C 
DOCKED: ATOM     25  N   UNL d   1      -0.366   5.929 -15.581 -0.01 -0.03    -0.248 N 
DOCKED: ATOM     26  N   UNL d   1       2.057   6.283 -14.114 -0.02 -0.05    -0.248 N 
DOCKED: ATOM     27  N   UNL d   1       2.939   3.713 -15.051 -0.06 -0.07    -0.248 N 
DOCKED: ATOM     28  N   UNL d   1       0.489   3.360 -16.532 -0.06 -0.12    -0.248 N 
DOCKED: ATOM     29 FE   UNL d   1       1.274   4.820 -15.324 -0.04 +0.00    +0.000 Fe
DOCKED: ENDROOT
DOCKED: BRANCH   6  30
DOCKED: ATOM     30  C   UNL d   1      -3.843   6.502 -16.640 -0.15 +0.01    +0.052 C 
DOCKED: BRANCH  30  31
DOCKED: ATOM     31  C   UNL d   1      -4.689   5.444 -15.941 -0.27 +0.05    +0.115 C 
DOCKED: BRANCH  31  32
DOCKED: ATOM     32  C   UNL d   1      -5.574   4.739 -16.932 -0.23 +0.14    +0.139 C 
DOCKED: ATOM     33  O   UNL d   1      -6.789   4.873 -16.888 -0.38 -0.70    -0.650 OA
DOCKED: BRANCH  32  34
DOCKED: ATOM     34  O   UNL d   1      -5.035   3.951 -17.877 -0.29 -1.54    -0.776 OA
DOCKED: ATOM     35  H   UNL d   1      -4.336   4.308 -18.443 +0.04 +0.20    +0.167 HD
DOCKED: ENDBRANCH  32  34
DOCKED: ENDBRANCH  31  32
DOCKED: ENDBRANCH  30  31
DOCKED: ENDBRANCH   6  30
DOCKED: BRANCH  22  36
DOCKED: ATOM     36  C   UNL d   1      -1.790   2.127 -19.204 -0.09 +0.05    +0.052 C 
DOCKED: BRANCH  36  37
DOCKED: ATOM     37  C   UNL d   1      -2.993   1.457 -18.558 -0.14 +0.19    +0.115 C 
DOCKED: BRANCH  37  38
DOCKED: ATOM     38  C   UNL d   1      -3.498   0.323 -19.405 -0.13 +0.25    +0.139 C 
DOCKED: ATOM     39  O   UNL d   1      -3.732   0.487 -20.593 -0.01 -0.73    -0.650 OA
DOCKED: BRANCH  38  40
DOCKED: ATOM     40  O   UNL d   1      -3.699  -0.888 -18.855 -0.42 -1.91    -0.776 OA
DOCKED: ATOM     41  H   UNL d   1      -4.263  -1.525 -19.315 +0.04 +0.26    +0.167 HD
DOCKED: ENDBRANCH  38  40
DOCKED: ENDBRANCH  37  38
DOCKED: ENDBRANCH  36  37
DOCKED: ENDBRANCH  22  36
DOCKED: BRANCH  12  42
DOCKED: ATOM     42  C   UNL d   1       4.808   8.037 -12.291 -0.05 +0.00    +0.004 C 
DOCKED: ATOM     43  C   UNL d   1       5.136   7.601 -11.067 -0.11 +0.00    +0.012 C 
DOCKED: ENDBRANCH  12  42
DOCKED: BRANCH  17  44
DOCKED: ATOM     44  C   UNL d   1       4.903   0.589 -15.157 -0.30 +0.00    +0.004 C 
DOCKED: ATOM     45  C   UNL d   1       4.371  -0.473 -14.543 -0.53 +0.00    +0.012 C 
DOCKED: ENDBRANCH  17  44
DOCKED: TORSDOF 10
DOCKED: TER
DOCKED: ENDMDL
________________________________________________________________________________


	BEGINNING GENETIC ALGORITHM DOCKING 28 of 100
Run: 28 Seed: 695460854 265769858 [ Run 28 of 100 GA/GALS ]
Beginning LAMARCKIAN GENETIC ALGORITHM (LGA), with a maximum of 25000000 energy evaluations.

Final-Value: -17.227


	FINAL GENETIC ALGORITHM DOCKED STATE
	_______________________________________________


Detailed state:  trans -9.022 1.211 1.501 quatxyzw -0.935723 -0.153391 0.249189 -0.196974 center -0.174 -0.001 -0.047 ntor 10 -129.8432 -55.9961 39.4837 -136.2023 -14.7119 174.6779 -66.3789 17.9620 -133.5187 162.7846
State:	 -9.022   1.211   1.501  -0.954 -0.156  0.254 -157.280   -129.84  -56.00   39.48 -136.20  -14.71  174.68  -66.38   17.96 -133.52  162.78

DOCKED: MODEL       28
DOCKED: USER    Run = 28
DOCKED: USER    DPF = D:/Protein_go_brrr/autodock/final/mut_D99N/heme_Fe/dock.dpf
DOCKED: USER  
DOCKED: USER    Estimated Free Energy of Binding    =  -12.58 kcal/mol  [=(1)+(2)+(3)-(4)]
DOCKED: USER    Estimated Inhibition Constant, Ki   =  603.69 pM (picomolar)  [Temperature = 298.15 K]
DOCKED: USER    
DOCKED: USER    (1) Final Intermolecular Energy     =  -15.56 kcal/mol
DOCKED: USER        vdW + Hbond + desolv Energy     =  -13.01 kcal/mol
DOCKED: USER        Electrostatic Energy            =   -2.55 kcal/mol
DOCKED: USER    (2) Final Total Internal Energy     =   -1.67 kcal/mol
DOCKED: USER    (3) Torsional Free Energy           =   +2.98 kcal/mol
DOCKED: USER    (4) Unbound System's Energy  [=(2)] =   -1.67 kcal/mol
DOCKED: USER    
DOCKED: USER    
DOCKED: USER    NEWDPF move heme_Fe_opt.pdbqt
DOCKED: USER    NEWDPF about -0.174000 -0.001000 -0.047000
DOCKED: USER    NEWDPF tran0 -9.022335 1.210792 1.501242
DOCKED: USER    NEWDPF quaternion0 -0.935723 -0.153391 0.249189 -0.196974
DOCKED: USER    NEWDPF axisangle0 -0.954421 -0.156456 0.254168 -157.279915
DOCKED: USER    NEWDPF quat0 -0.954421 -0.156456 0.254168 -157.279915
DOCKED: USER    NEWDPF dihe0 -129.84 -56.00 39.48 -136.20 -14.71 174.68 -66.38 17.96 -133.52 162.78 
DOCKED: USER  keepresnum = 1 
DOCKED: USER  
DOCKED: REMARK  10 active torsions:
DOCKED: REMARK  status: ('A' for Active; 'I' for Inactive)
DOCKED: REMARK    1  A    between atoms: C_6  and  C_10 
DOCKED: REMARK    2  A    between atoms: C_10  and  C_11 
DOCKED: REMARK    3  A    between atoms: C_11  and  C_12 
DOCKED: REMARK    4  A    between atoms: C_12  and  O_14 
DOCKED: REMARK    5  A    between atoms: C_17  and  C_20 
DOCKED: REMARK    6  A    between atoms: C_24  and  C_27 
DOCKED: REMARK    7  A    between atoms: C_31  and  C_34 
DOCKED: REMARK    8  A    between atoms: C_34  and  C_35 
DOCKED: REMARK    9  A    between atoms: C_35  and  C_36 
DOCKED: REMARK   10  A    between atoms: C_36  and  O_38 
DOCKED: USER                              x       y       z     vdW  Elec       q    Type
DOCKED: USER                           _______ _______ _______ _____ _____    ______ ____
DOCKED: ROOT
DOCKED: ATOM      1  C   UNL d   1     -10.955   0.655   1.907 -0.37 +0.03    +0.064 C 
DOCKED: ATOM      2  C   UNL d   1      -8.455   4.915   2.059 -0.42 +0.01    +0.064 A 
DOCKED: ATOM      3  C   UNL d   1      -4.968   2.882  -0.544 -0.40 +0.01    +0.064 C 
DOCKED: ATOM      4  C   UNL d   1      -7.323  -1.281  -0.614 -0.39 +0.01    +0.064 C 
DOCKED: ATOM      5  C   UNL d   1     -10.537   2.018   2.262 -0.17 +0.02    +0.066 A 
DOCKED: ATOM      6  C   UNL d   1     -11.241   2.869   3.098 -0.24 -0.01    -0.021 A 
DOCKED: ATOM      7  C   UNL d   1     -10.547   4.053   3.137 -0.35 -0.00    -0.025 A 
DOCKED: ATOM      8  C   UNL d   1      -9.445   3.879   2.322 -0.36 +0.01    +0.066 A 
DOCKED: ATOM      9  C   UNL d   1     -10.920   5.269   3.929 -0.42 +0.00    +0.051 C 
DOCKED: ATOM     10  C   UNL d   1      -7.353   4.756   1.324 -0.39 +0.01    +0.066 A 
DOCKED: ATOM     11  C   UNL d   1      -6.483   5.798   0.996 -0.47 -0.00    -0.021 A 
DOCKED: ATOM     12  C   UNL d   1      -5.477   5.241   0.231 -0.48 +0.00    +0.000 A 
DOCKED: ATOM     13  C   UNL d   1      -5.794   3.876   0.124 -0.38 +0.01    +0.070 A 
DOCKED: ATOM     14  C   UNL d   1      -6.638   7.267   1.336 -0.53 +0.01    +0.052 C 
DOCKED: ATOM     15  C   UNL d   1      -5.294   1.577  -0.694 -0.39 +0.01    +0.066 A 
DOCKED: ATOM     16  C   UNL d   1      -4.433   0.639  -1.250 -0.36 -0.00    -0.021 A 
DOCKED: ATOM     17  C   UNL d   1      -5.112  -0.562  -1.275 -0.42 +0.00    +0.000 A 
DOCKED: ATOM     18  C   UNL d   1      -6.374  -0.327  -0.735 -0.41 +0.01    +0.070 A 
DOCKED: ATOM     19  C   UNL d   1      -3.037   0.866  -1.764 -0.37 +0.00    +0.052 C 
DOCKED: ATOM     20  C   UNL d   1      -8.640  -1.086   0.004 -0.34 +0.01    +0.066 A 
DOCKED: ATOM     21  C   UNL d   1      -9.700  -2.002  -0.042 -0.05 -0.01    -0.025 A 
DOCKED: ATOM     22  C   UNL d   1     -10.721  -1.435   0.694 -0.14 -0.01    -0.021 A 
DOCKED: ATOM     23  C   UNL d   1     -10.247  -0.200   1.152 -0.35 +0.03    +0.066 A 
DOCKED: ATOM     24  C   UNL d   1      -9.761  -3.340  -0.742 -0.17 +0.01    +0.051 C 
DOCKED: ATOM     25  N   UNL d   1      -9.437   2.637   1.799 -0.17 -0.09    -0.248 N 
DOCKED: ATOM     26  N   UNL d   1      -6.942   3.581   0.783 -0.17 -0.06    -0.248 N 
DOCKED: ATOM     27  N   UNL d   1      -6.472   0.977  -0.338 -0.27 -0.03    -0.248 N 
DOCKED: ATOM     28  N   UNL d   1      -8.994   0.027   0.691 -0.26 -0.07    -0.248 N 
DOCKED: ATOM     29 FE   UNL d   1      -7.967   1.802   0.736 -0.09 +0.00    +0.000 Fe
DOCKED: ENDROOT
DOCKED: BRANCH   6  30
DOCKED: ATOM     30  C   UNL d   1     -12.497   2.567   3.841 -0.23 +0.02    +0.052 C 
DOCKED: BRANCH  30  31
DOCKED: ATOM     31  C   UNL d   1     -13.491   1.834   2.947 -0.21 +0.05    +0.115 C 
DOCKED: BRANCH  31  32
DOCKED: ATOM     32  C   UNL d   1     -13.709   0.431   3.443 -0.14 +0.14    +0.139 C 
DOCKED: ATOM     33  O   UNL d   1     -12.945  -0.068   4.256 -0.47 -1.11    -0.650 OA
DOCKED: BRANCH  32  34
DOCKED: ATOM     34  O   UNL d   1     -14.751  -0.288   2.993 +0.00 -0.84    -0.776 OA
DOCKED: ATOM     35  H   UNL d   1     -14.902  -0.352   2.040 +0.03 +0.14    +0.167 HD
DOCKED: ENDBRANCH  32  34
DOCKED: ENDBRANCH  31  32
DOCKED: ENDBRANCH  30  31
DOCKED: ENDBRANCH   6  30
DOCKED: BRANCH  22  36
DOCKED: ATOM     36  C   UNL d   1     -12.089  -2.028   0.901 +0.17 +0.06    +0.052 C 
DOCKED: BRANCH  36  37
DOCKED: ATOM     37  C   UNL d   1     -13.083  -1.369  -0.043 +0.02 +0.07    +0.115 C 
DOCKED: BRANCH  37  38
DOCKED: ATOM     38  C   UNL d   1     -14.496  -1.617   0.403 -0.09 +0.09    +0.139 C 
DOCKED: ATOM     39  O   UNL d   1     -15.435  -1.086  -0.172 +0.30 -0.24    -0.650 OA
DOCKED: BRANCH  38  40
DOCKED: ATOM     40  O   UNL d   1     -14.738  -2.428   1.448 -0.46 -1.08    -0.776 OA
DOCKED: ATOM     41  H   UNL d   1     -15.242  -2.088   2.200 +0.01 +0.24    +0.167 HD
DOCKED: ENDBRANCH  38  40
DOCKED: ENDBRANCH  37  38
DOCKED: ENDBRANCH  36  37
DOCKED: ENDBRANCH  22  36
DOCKED: BRANCH  12  42
DOCKED: ATOM     42  C   UNL d   1      -4.326   5.997  -0.352 -0.64 +0.00    +0.004 C 
DOCKED: ATOM     43  C   UNL d   1      -3.202   6.191   0.350 -0.58 +0.00    +0.012 C 
DOCKED: ENDBRANCH  12  42
DOCKED: BRANCH  17  44
DOCKED: ATOM     44  C   UNL d   1      -4.579  -1.854  -1.764 -0.66 -0.00    +0.004 C 
DOCKED: ATOM     45  C   UNL d   1      -4.584  -2.147  -3.068 -0.73 -0.00    +0.012 C 
DOCKED: ENDBRANCH  17  44
DOCKED: TORSDOF 10
DOCKED: TER
DOCKED: ENDMDL
________________________________________________________________________________


	BEGINNING GENETIC ALGORITHM DOCKING 29 of 100
Run: 29 Seed: 1325132765 315987068 [ Run 29 of 100 GA/GALS ]
Beginning LAMARCKIAN GENETIC ALGORITHM (LGA), with a maximum of 25000000 energy evaluations.

Final-Value: -16.619


	FINAL GENETIC ALGORITHM DOCKED STATE
	_______________________________________________


Detailed state:  trans -9.112 1.659 1.784 quatxyzw 0.937811 0.120756 -0.258582 0.197647 center -0.174 -0.001 -0.047 ntor 10 131.1470 14.7345 18.9961 -131.1381 129.7888 162.2972 76.9301 -13.0103 -22.8266 -154.0941
State:	 -9.112   1.659   1.784   0.957  0.123 -0.264 157.201    131.15   14.73   19.00 -131.14  129.79  162.30   76.93  -13.01  -22.83 -154.09

DOCKED: MODEL       29
DOCKED: USER    Run = 29
DOCKED: USER    DPF = D:/Protein_go_brrr/autodock/final/mut_D99N/heme_Fe/dock.dpf
DOCKED: USER  
DOCKED: USER    Estimated Free Energy of Binding    =  -13.19 kcal/mol  [=(1)+(2)+(3)-(4)]
DOCKED: USER    Estimated Inhibition Constant, Ki   =  212.89 pM (picomolar)  [Temperature = 298.15 K]
DOCKED: USER    
DOCKED: USER    (1) Final Intermolecular Energy     =  -16.18 kcal/mol
DOCKED: USER        vdW + Hbond + desolv Energy     =  -13.89 kcal/mol
DOCKED: USER        Electrostatic Energy            =   -2.29 kcal/mol
DOCKED: USER    (2) Final Total Internal Energy     =   -0.44 kcal/mol
DOCKED: USER    (3) Torsional Free Energy           =   +2.98 kcal/mol
DOCKED: USER    (4) Unbound System's Energy  [=(2)] =   -0.44 kcal/mol
DOCKED: USER    
DOCKED: USER    
DOCKED: USER    NEWDPF move heme_Fe_opt.pdbqt
DOCKED: USER    NEWDPF about -0.174000 -0.001000 -0.047000
DOCKED: USER    NEWDPF tran0 -9.112004 1.658933 1.784049
DOCKED: USER    NEWDPF quaternion0 0.937811 0.120756 -0.258582 0.197647
DOCKED: USER    NEWDPF axisangle0 0.956683 0.123186 -0.263786 157.201192
DOCKED: USER    NEWDPF quat0 0.956683 0.123186 -0.263786 157.201192
DOCKED: USER    NEWDPF dihe0 131.15 14.73 19.00 -131.14 129.79 162.30 76.93 -13.01 -22.83 -154.09 
DOCKED: USER  keepresnum = 1 
DOCKED: USER  
DOCKED: REMARK  10 active torsions:
DOCKED: REMARK  status: ('A' for Active; 'I' for Inactive)
DOCKED: REMARK    1  A    between atoms: C_6  and  C_10 
DOCKED: REMARK    2  A    between atoms: C_10  and  C_11 
DOCKED: REMARK    3  A    between atoms: C_11  and  C_12 
DOCKED: REMARK    4  A    between atoms: C_12  and  O_14 
DOCKED: REMARK    5  A    between atoms: C_17  and  C_20 
DOCKED: REMARK    6  A    between atoms: C_24  and  C_27 
DOCKED: REMARK    7  A    between atoms: C_31  and  C_34 
DOCKED: REMARK    8  A    between atoms: C_34  and  C_35 
DOCKED: REMARK    9  A    between atoms: C_35  and  C_36 
DOCKED: REMARK   10  A    between atoms: C_36  and  O_38 
DOCKED: USER                              x       y       z     vdW  Elec       q    Type
DOCKED: USER                           _______ _______ _______ _____ _____    ______ ____
DOCKED: ROOT
DOCKED: ATOM      1  C   UNL d   1     -11.061   1.224   2.257 -0.30 +0.03    +0.064 C 
DOCKED: ATOM      2  C   UNL d   1      -8.314   5.333   2.253 -0.44 +0.01    +0.064 A 
DOCKED: ATOM      3  C   UNL d   1      -5.031   3.053  -0.410 -0.43 +0.01    +0.064 C 
DOCKED: ATOM      4  C   UNL d   1      -7.625  -0.966  -0.330 -0.43 +0.01    +0.064 C 
DOCKED: ATOM      5  C   UNL d   1     -10.553   2.567   2.573 -0.12 +0.02    +0.066 A 
DOCKED: ATOM      6  C   UNL d   1     -11.181   3.472   3.412 -0.28 -0.00    -0.021 A 
DOCKED: ATOM      7  C   UNL d   1     -10.420   4.614   3.408 -0.39 -0.00    -0.025 A 
DOCKED: ATOM      8  C   UNL d   1      -9.355   4.362   2.565 -0.40 +0.01    +0.066 A 
DOCKED: ATOM      9  C   UNL d   1     -10.697   5.864   4.186 -0.46 -0.00    +0.051 C 
DOCKED: ATOM     10  C   UNL d   1      -7.246   5.096   1.489 -0.41 +0.01    +0.066 A 
DOCKED: ATOM     11  C   UNL d   1      -6.327   6.080   1.116 -0.47 -0.00    -0.021 A 
DOCKED: ATOM     12  C   UNL d   1      -5.379   5.451   0.333 -0.49 +0.00    +0.000 A 
DOCKED: ATOM     13  C   UNL d   1      -5.777   4.105   0.262 -0.38 +0.01    +0.070 A 
DOCKED: ATOM     14  C   UNL d   1      -6.386   7.561   1.431 -0.57 +0.01    +0.052 C 
DOCKED: ATOM     15  C   UNL d   1      -5.436   1.767  -0.525 -0.39 +0.01    +0.066 A 
DOCKED: ATOM     16  C   UNL d   1      -4.649   0.770  -1.088 -0.36 -0.00    -0.021 A 
DOCKED: ATOM     17  C   UNL d   1      -5.396  -0.389  -1.069 -0.41 +0.00    +0.000 A 
DOCKED: ATOM     18  C   UNL d   1      -6.626  -0.071  -0.498 -0.40 +0.01    +0.070 A 
DOCKED: ATOM     19  C   UNL d   1      -3.257   0.905  -1.646 -0.32 +0.00    +0.052 C 
DOCKED: ATOM     20  C   UNL d   1      -8.908  -0.683   0.322 -0.35 +0.02    +0.066 A 
DOCKED: ATOM     21  C   UNL d   1     -10.021  -1.536   0.324 -0.04 -0.01    -0.025 A 
DOCKED: ATOM     22  C   UNL d   1     -10.984  -0.897   1.078 -0.29 -0.01    -0.021 A 
DOCKED: ATOM     23  C   UNL d   1     -10.427   0.316   1.498 -0.35 +0.03    +0.066 A 
DOCKED: ATOM     24  C   UNL d   1     -10.181  -2.880  -0.347 -0.18 +0.02    +0.051 C 
DOCKED: ATOM     25  N   UNL d   1      -9.434   3.112   2.066 -0.19 -0.08    -0.248 N 
DOCKED: ATOM     26  N   UNL d   1      -6.920   3.890   0.959 -0.23 -0.06    -0.248 N 
DOCKED: ATOM     27  N   UNL d   1      -6.636   1.243  -0.123 -0.26 -0.03    -0.248 N 
DOCKED: ATOM     28  N   UNL d   1      -9.176   0.462   0.996 -0.26 -0.07    -0.248 N 
DOCKED: ATOM     29 FE   UNL d   1      -8.048   2.174   0.977 -0.09 +0.00    +0.000 Fe
DOCKED: ENDROOT
DOCKED: BRANCH   6  30
DOCKED: ATOM     30  C   UNL d   1     -12.430   3.258   4.197 -0.24 +0.01    +0.052 C 
DOCKED: BRANCH  30  31
DOCKED: ATOM     31  C   UNL d   1     -12.214   2.207   5.281 -0.16 +0.04    +0.115 C 
DOCKED: BRANCH  31  32
DOCKED: ATOM     32  C   UNL d   1     -12.824   0.896   4.871 -0.17 +0.11    +0.139 C 
DOCKED: ATOM     33  O   UNL d   1     -12.174  -0.139   4.931 -0.58 -0.95    -0.650 OA
DOCKED: BRANCH  32  34
DOCKED: ATOM     34  O   UNL d   1     -14.093   0.849   4.432 +0.02 -0.56    -0.776 OA
DOCKED: ATOM     35  H   UNL d   1     -14.784   1.291   4.946 +0.03 +0.08    +0.167 HD
DOCKED: ENDBRANCH  32  34
DOCKED: ENDBRANCH  31  32
DOCKED: ENDBRANCH  30  31
DOCKED: ENDBRANCH   6  30
DOCKED: BRANCH  22  36
DOCKED: ATOM     36  C   UNL d   1     -12.378  -1.405   1.337 +0.19 +0.07    +0.052 C 
DOCKED: BRANCH  36  37
DOCKED: ATOM     37  C   UNL d   1     -13.092  -1.644   0.014 -0.13 +0.07    +0.115 C 
DOCKED: BRANCH  37  38
DOCKED: ATOM     38  C   UNL d   1     -14.340  -2.455   0.214 -0.17 +0.10    +0.139 C 
DOCKED: ATOM     39  O   UNL d   1     -15.211  -2.484  -0.643 +0.01 -0.23    -0.650 OA
DOCKED: BRANCH  38  40
DOCKED: ATOM     40  O   UNL d   1     -14.510  -3.157   1.349 -0.50 -1.08    -0.776 OA
DOCKED: ATOM     41  H   UNL d   1     -15.201  -3.833   1.384 +0.01 +0.15    +0.167 HD
DOCKED: ENDBRANCH  38  40
DOCKED: ENDBRANCH  37  38
DOCKED: ENDBRANCH  36  37
DOCKED: ENDBRANCH  22  36
DOCKED: BRANCH  12  42
DOCKED: ATOM     42  C   UNL d   1      -4.204   6.128  -0.298 -0.65 +0.00    +0.004 C 
DOCKED: ATOM     43  C   UNL d   1      -3.215   6.633   0.451 -0.54 +0.00    +0.012 C 
DOCKED: ENDBRANCH  12  42
DOCKED: BRANCH  17  44
DOCKED: ATOM     44  C   UNL d   1      -4.955  -1.719  -1.548 -0.60 -0.00    +0.004 C 
DOCKED: ATOM     45  C   UNL d   1      -4.921  -1.999  -2.855 -0.70 -0.00    +0.012 C 
DOCKED: ENDBRANCH  17  44
DOCKED: TORSDOF 10
DOCKED: TER
DOCKED: ENDMDL
________________________________________________________________________________


	BEGINNING GENETIC ALGORITHM DOCKING 30 of 100
Run: 30 Seed: 237270048 569160512 [ Run 30 of 100 GA/GALS ]
Beginning LAMARCKIAN GENETIC ALGORITHM (LGA), with a maximum of 25000000 energy evaluations.

Final-Value: -10.775


	FINAL GENETIC ALGORITHM DOCKED STATE
	_______________________________________________


Detailed state:  trans -13.053 15.027 -4.222 quatxyzw 0.287336 -0.826156 -0.403437 0.268596 center -0.174 -0.001 -0.047 ntor 10 168.9238 -37.0735 44.4608 47.9050 110.4650 79.4025 -22.2224 -66.3833 -172.3159 6.6568
State:	-13.053  15.027  -4.222   0.298 -0.858 -0.419 148.839    168.92  -37.07   44.46   47.91  110.47   79.40  -22.22  -66.38 -172.32    6.66

DOCKED: MODEL       30
DOCKED: USER    Run = 30
DOCKED: USER    DPF = D:/Protein_go_brrr/autodock/final/mut_D99N/heme_Fe/dock.dpf
DOCKED: USER  
DOCKED: USER    Estimated Free Energy of Binding    =   -5.87 kcal/mol  [=(1)+(2)+(3)-(4)]
DOCKED: USER    Estimated Inhibition Constant, Ki   =   50.16 uM (micromolar)  [Temperature = 298.15 K]
DOCKED: USER    
DOCKED: USER    (1) Final Intermolecular Energy     =   -8.85 kcal/mol
DOCKED: USER        vdW + Hbond + desolv Energy     =   -6.93 kcal/mol
DOCKED: USER        Electrostatic Energy            =   -1.92 kcal/mol
DOCKED: USER    (2) Final Total Internal Energy     =   -1.93 kcal/mol
DOCKED: USER    (3) Torsional Free Energy           =   +2.98 kcal/mol
DOCKED: USER    (4) Unbound System's Energy  [=(2)] =   -1.93 kcal/mol
DOCKED: USER    
DOCKED: USER    
DOCKED: USER    NEWDPF move heme_Fe_opt.pdbqt
DOCKED: USER    NEWDPF about -0.174000 -0.001000 -0.047000
DOCKED: USER    NEWDPF tran0 -13.052826 15.027330 -4.222407
DOCKED: USER    NEWDPF quaternion0 0.287336 -0.826156 -0.403437 0.268596
DOCKED: USER    NEWDPF axisangle0 0.298297 -0.857673 -0.418827 148.838562
DOCKED: USER    NEWDPF quat0 0.298297 -0.857673 -0.418827 148.838562
DOCKED: USER    NEWDPF dihe0 168.92 -37.07 44.46 47.91 110.47 79.40 -22.22 -66.38 -172.32 6.66 
DOCKED: USER  keepresnum = 1 
DOCKED: USER  
DOCKED: REMARK  10 active torsions:
DOCKED: REMARK  status: ('A' for Active; 'I' for Inactive)
DOCKED: REMARK    1  A    between atoms: C_6  and  C_10 
DOCKED: REMARK    2  A    between atoms: C_10  and  C_11 
DOCKED: REMARK    3  A    between atoms: C_11  and  C_12 
DOCKED: REMARK    4  A    between atoms: C_12  and  O_14 
DOCKED: REMARK    5  A    between atoms: C_17  and  C_20 
DOCKED: REMARK    6  A    between atoms: C_24  and  C_27 
DOCKED: REMARK    7  A    between atoms: C_31  and  C_34 
DOCKED: REMARK    8  A    between atoms: C_34  and  C_35 
DOCKED: REMARK    9  A    between atoms: C_35  and  C_36 
DOCKED: REMARK   10  A    between atoms: C_36  and  O_38 
DOCKED: USER                              x       y       z     vdW  Elec       q    Type
DOCKED: USER                           _______ _______ _______ _____ _____    ______ ____
DOCKED: ROOT
DOCKED: ATOM      1  C   UNL d   1     -11.531  15.945  -3.196 -0.17 +0.00    +0.064 C 
DOCKED: ATOM      2  C   UNL d   1     -11.795  13.150  -7.264 -0.28 -0.01    +0.064 A 
DOCKED: ATOM      3  C   UNL d   1     -16.542  13.876  -7.371 -0.15 -0.01    +0.064 C 
DOCKED: ATOM      4  C   UNL d   1     -16.323  16.498  -3.376 -0.14 -0.00    +0.064 C 
DOCKED: ATOM      5  C   UNL d   1     -11.177  15.022  -4.283 -0.19 +0.00    +0.066 A 
DOCKED: ATOM      6  C   UNL d   1      -9.912  14.500  -4.496 -0.30 -0.00    -0.021 A 
DOCKED: ATOM      7  C   UNL d   1      -9.985  13.727  -5.628 -0.40 +0.00    -0.025 A 
DOCKED: ATOM      8  C   UNL d   1     -11.294  13.807  -6.063 -0.30 -0.00    +0.066 A 
DOCKED: ATOM      9  C   UNL d   1      -8.862  12.945  -6.238 -0.35 +0.00    +0.051 C 
DOCKED: ATOM     10  C   UNL d   1     -13.065  13.164  -7.674 -0.26 -0.01    +0.066 A 
DOCKED: ATOM     11  C   UNL d   1     -13.493  12.622  -8.888 -0.25 +0.01    -0.021 A 
DOCKED: ATOM     12  C   UNL d   1     -14.856  12.834  -8.951 -0.18 -0.00    +0.000 A 
DOCKED: ATOM     13  C   UNL d   1     -15.190  13.508  -7.764 -0.17 -0.02    +0.070 A 
DOCKED: ATOM     14  C   UNL d   1     -12.635  11.994  -9.968 -0.34 -0.02    +0.052 C 
DOCKED: ATOM     15  C   UNL d   1     -16.863  14.571  -6.255 -0.03 -0.01    +0.066 A 
DOCKED: ATOM     16  C   UNL d   1     -18.173  14.816  -5.864 -0.09 +0.00    -0.021 A 
DOCKED: ATOM     17  C   UNL d   1     -18.113  15.575  -4.714 -0.12 -0.00    +0.000 A 
DOCKED: ATOM     18  C   UNL d   1     -16.764  15.779  -4.431 -0.11 -0.01    +0.070 A 
DOCKED: ATOM     19  C   UNL d   1     -19.435  14.378  -6.558 -0.07 -0.01    +0.052 C 
DOCKED: ATOM     20  C   UNL d   1     -14.913  16.682  -3.012 -0.12 -0.00    +0.066 A 
DOCKED: ATOM     21  C   UNL d   1     -14.436  17.581  -2.048 -0.06 -0.00    -0.025 A 
DOCKED: ATOM     22  C   UNL d   1     -13.069  17.397  -2.004 -0.06 -0.00    -0.021 A 
DOCKED: ATOM     23  C   UNL d   1     -12.767  16.404  -2.943 -0.12 +0.00    +0.066 A 
DOCKED: ATOM     24  C   UNL d   1     -15.216  18.567  -1.210 -0.02 -0.00    +0.051 C 
DOCKED: ATOM     25  N   UNL d   1     -12.018  14.588  -5.238 -0.16 +0.00    -0.248 N 
DOCKED: ATOM     26  N   UNL d   1     -14.098  13.717  -6.989 -0.15 +0.03    -0.248 N 
DOCKED: ATOM     27  N   UNL d   1     -15.995  15.125  -5.353 -0.10 +0.04    -0.248 N 
DOCKED: ATOM     28  N   UNL d   1     -13.891  16.003  -3.586 -0.12 +0.01    -0.248 N 
DOCKED: ATOM     29 FE   UNL d   1     -13.996  14.861  -5.287 -0.05 -0.00    +0.000 Fe
DOCKED: ENDROOT
DOCKED: BRANCH   6  30
DOCKED: ATOM     30  C   UNL d   1      -8.698  14.706  -3.656 -0.37 +0.01    +0.052 C 
DOCKED: BRANCH  30  31
DOCKED: ATOM     31  C   UNL d   1      -8.008  16.017  -4.016 -0.20 +0.04    +0.115 C 
DOCKED: BRANCH  31  32
DOCKED: ATOM     32  C   UNL d   1      -7.152  16.492  -2.875 -0.12 +0.11    +0.139 C 
DOCKED: ATOM     33  O   UNL d   1      -5.932  16.479  -2.963 -0.73 -0.64    -0.650 OA
DOCKED: BRANCH  32  34
DOCKED: ATOM     34  O   UNL d   1      -7.723  16.936  -1.742 -0.04 -0.87    -0.776 OA
DOCKED: ATOM     35  H   UNL d   1      -8.677  17.099  -1.730 +0.03 +0.11    +0.167 HD
DOCKED: ENDBRANCH  32  34
DOCKED: ENDBRANCH  31  32
DOCKED: ENDBRANCH  30  31
DOCKED: ENDBRANCH   6  30
DOCKED: BRANCH  22  36
DOCKED: ATOM     36  C   UNL d   1     -12.105  18.170  -1.143 -0.03 +0.01    +0.052 C 
DOCKED: BRANCH  36  37
DOCKED: ATOM     37  C   UNL d   1     -11.674  17.315   0.040 -0.06 +0.02    +0.115 C 
DOCKED: BRANCH  37  38
DOCKED: ATOM     38  C   UNL d   1     -10.218  16.957  -0.057 -0.15 +0.07    +0.139 C 
DOCKED: ATOM     39  O   UNL d   1      -9.354  17.759   0.264 +0.02 -0.48    -0.650 OA
DOCKED: BRANCH  38  40
DOCKED: ATOM     40  O   UNL d   1      -9.854  15.741  -0.504 +0.03 -0.42    -0.776 OA
DOCKED: ATOM     41  H   UNL d   1      -9.067  15.662  -1.061 +0.05 +0.12    +0.167 HD
DOCKED: ENDBRANCH  38  40
DOCKED: ENDBRANCH  37  38
DOCKED: ENDBRANCH  36  37
DOCKED: ENDBRANCH  22  36
DOCKED: BRANCH  12  42
DOCKED: ATOM     42  C   UNL d   1     -15.734  12.423 -10.090 -0.15 -0.00    +0.004 C 
DOCKED: ATOM     43  C   UNL d   1     -16.357  11.237 -10.086 -0.21 -0.01    +0.012 C 
DOCKED: ENDBRANCH  12  42
DOCKED: BRANCH  17  44
DOCKED: ATOM     44  C   UNL d   1     -19.269  16.057  -3.926 -0.08 -0.00    +0.004 C 
DOCKED: ATOM     45  C   UNL d   1     -19.629  15.443  -2.793 -0.09 -0.00    +0.012 C 
DOCKED: ENDBRANCH  17  44
DOCKED: TORSDOF 10
DOCKED: TER
DOCKED: ENDMDL
________________________________________________________________________________


	BEGINNING GENETIC ALGORITHM DOCKING 31 of 100
Run: 31 Seed: 1658222901 1947755677 [ Run 31 of 100 GA/GALS ]
Beginning LAMARCKIAN GENETIC ALGORITHM (LGA), with a maximum of 25000000 energy evaluations.

Final-Value: -10.625


	FINAL GENETIC ALGORITHM DOCKED STATE
	_______________________________________________


Detailed state:  trans -1.356 17.637 7.817 quatxyzw -0.397304 -0.367023 -0.246308 -0.804224 center -0.174 -0.001 -0.047 ntor 10 -21.1253 -56.1295 62.7565 49.0768 84.2683 76.8882 -57.2223 -47.4322 -164.6981 1.9972
State:	 -1.356  17.637   7.817  -0.668 -0.618 -0.414 -72.929    -21.13  -56.13   62.76   49.08   84.27   76.89  -57.22  -47.43 -164.70    2.00

DOCKED: MODEL       31
DOCKED: USER    Run = 31
DOCKED: USER    DPF = D:/Protein_go_brrr/autodock/final/mut_D99N/heme_Fe/dock.dpf
DOCKED: USER  
DOCKED: USER    Estimated Free Energy of Binding    =   -5.19 kcal/mol  [=(1)+(2)+(3)-(4)]
DOCKED: USER    Estimated Inhibition Constant, Ki   =  156.78 uM (micromolar)  [Temperature = 298.15 K]
DOCKED: USER    
DOCKED: USER    (1) Final Intermolecular Energy     =   -8.17 kcal/mol
DOCKED: USER        vdW + Hbond + desolv Energy     =   -7.05 kcal/mol
DOCKED: USER        Electrostatic Energy            =   -1.12 kcal/mol
DOCKED: USER    (2) Final Total Internal Energy     =   -2.45 kcal/mol
DOCKED: USER    (3) Torsional Free Energy           =   +2.98 kcal/mol
DOCKED: USER    (4) Unbound System's Energy  [=(2)] =   -2.45 kcal/mol
DOCKED: USER    
DOCKED: USER    
DOCKED: USER    NEWDPF move heme_Fe_opt.pdbqt
DOCKED: USER    NEWDPF about -0.174000 -0.001000 -0.047000
DOCKED: USER    NEWDPF tran0 -1.355944 17.636645 7.816808
DOCKED: USER    NEWDPF quaternion0 -0.397304 -0.367023 -0.246308 -0.804224
DOCKED: USER    NEWDPF axisangle0 -0.668494 -0.617545 -0.414432 -72.929224
DOCKED: USER    NEWDPF quat0 -0.668494 -0.617545 -0.414432 -72.929224
DOCKED: USER    NEWDPF dihe0 -21.13 -56.13 62.76 49.08 84.27 76.89 -57.22 -47.43 -164.70 2.00 
DOCKED: USER  keepresnum = 1 
DOCKED: USER  
DOCKED: REMARK  10 active torsions:
DOCKED: REMARK  status: ('A' for Active; 'I' for Inactive)
DOCKED: REMARK    1  A    between atoms: C_6  and  C_10 
DOCKED: REMARK    2  A    between atoms: C_10  and  C_11 
DOCKED: REMARK    3  A    between atoms: C_11  and  C_12 
DOCKED: REMARK    4  A    between atoms: C_12  and  O_14 
DOCKED: REMARK    5  A    between atoms: C_17  and  C_20 
DOCKED: REMARK    6  A    between atoms: C_24  and  C_27 
DOCKED: REMARK    7  A    between atoms: C_31  and  C_34 
DOCKED: REMARK    8  A    between atoms: C_34  and  C_35 
DOCKED: REMARK    9  A    between atoms: C_35  and  C_36 
DOCKED: REMARK   10  A    between atoms: C_36  and  O_38 
DOCKED: USER                              x       y       z     vdW  Elec       q    Type
DOCKED: USER                           _______ _______ _______ _____ _____    ______ ____
DOCKED: ROOT
DOCKED: ATOM      1  C   UNL d   1      -2.813  18.247   6.507 -0.12 +0.01    +0.064 C 
DOCKED: ATOM      2  C   UNL d   1      -2.799  15.834  10.821 -0.26 -0.01    +0.064 A 
DOCKED: ATOM      3  C   UNL d   1       1.742  17.239  11.513 -0.11 -0.00    +0.064 C 
DOCKED: ATOM      4  C   UNL d   1       1.784  19.492   7.293 -0.13 +0.00    +0.064 C 
DOCKED: ATOM      5  C   UNL d   1      -3.203  17.368   7.619 -0.19 +0.01    +0.066 A 
DOCKED: ATOM      6  C   UNL d   1      -4.406  16.687   7.704 -0.35 -0.00    -0.021 A 
DOCKED: ATOM      7  C   UNL d   1      -4.403  16.020   8.904 -0.39 +0.00    -0.025 A 
DOCKED: ATOM      8  C   UNL d   1      -3.196  16.320   9.506 -0.27 -0.01    +0.066 A 
DOCKED: ATOM      9  C   UNL d   1      -5.492  15.133   9.424 -0.42 -0.00    +0.051 C 
DOCKED: ATOM     10  C   UNL d   1      -1.618  16.061  11.399 -0.23 -0.01    +0.066 A 
DOCKED: ATOM     11  C   UNL d   1      -1.310  15.679  12.707 -0.23 +0.00    -0.021 A 
DOCKED: ATOM     12  C   UNL d   1      -0.011  16.088  12.937 -0.18 -0.00    +0.000 A 
DOCKED: ATOM     13  C   UNL d   1       0.407  16.711  11.748 -0.12 -0.00    +0.070 A 
DOCKED: ATOM     14  C   UNL d   1      -2.230  15.019  13.713 -0.29 -0.02    +0.052 C 
DOCKED: ATOM     15  C   UNL d   1       2.133  17.886  10.390 -0.07 +0.00    +0.066 A 
DOCKED: ATOM     16  C   UNL d   1       3.443  18.286  10.163 -0.08 +0.00    -0.021 A 
DOCKED: ATOM     17  C   UNL d   1       3.457  18.940   8.947 -0.09 +0.00    +0.000 A 
DOCKED: ATOM     18  C   UNL d   1       2.151  18.926   8.463 -0.11 +0.00    +0.070 A 
DOCKED: ATOM     19  C   UNL d   1       4.634  18.087  11.062 -0.05 -0.00    +0.052 C 
DOCKED: ATOM     20  C   UNL d   1       0.432  19.444   6.722 -0.16 +0.01    +0.066 A 
DOCKED: ATOM     21  C   UNL d   1      -0.008  20.190   5.620 -0.12 -0.00    -0.025 A 
DOCKED: ATOM     22  C   UNL d   1      -1.317  19.810   5.406 -0.14 -0.00    -0.021 A 
DOCKED: ATOM     23  C   UNL d   1      -1.624  18.857   6.384 -0.19 +0.01    +0.066 A 
DOCKED: ATOM     24  C   UNL d   1       0.753  21.211   4.807 -0.06 +0.00    +0.051 C 
DOCKED: ATOM     25  N   UNL d   1      -2.464  17.132   8.717 -0.20 +0.00    -0.248 N 
DOCKED: ATOM     26  N   UNL d   1      -0.575  16.703  10.814 -0.10 +0.01    -0.248 N 
DOCKED: ATOM     27  N   UNL d   1       1.345  18.240   9.328 -0.07 -0.01    -0.248 N 
DOCKED: ATOM     28  N   UNL d   1      -0.567  18.671   7.212 -0.17 -0.03    -0.248 N 
DOCKED: ATOM     29 FE   UNL d   1      -0.570  17.688   9.012 -0.05 +0.00    +0.000 Fe
DOCKED: ENDROOT
DOCKED: BRANCH   6  30
DOCKED: ATOM     30  C   UNL d   1      -5.497  16.653   6.688 -0.33 +0.01    +0.052 C 
DOCKED: BRANCH  30  31
DOCKED: ATOM     31  C   UNL d   1      -6.284  17.958   6.697 -0.19 +0.02    +0.115 C 
DOCKED: BRANCH  31  32
DOCKED: ATOM     32  C   UNL d   1      -6.265  18.593   5.333 -0.17 +0.05    +0.139 C 
DOCKED: ATOM     33  O   UNL d   1      -7.068  18.252   4.476 -0.59 -0.46    -0.650 OA
DOCKED: BRANCH  32  34
DOCKED: ATOM     34  O   UNL d   1      -5.361  19.544   5.044 +0.05 -0.21    -0.776 OA
DOCKED: ATOM     35  H   UNL d   1      -5.147  19.722   4.118 +0.04 +0.06    +0.167 HD
DOCKED: ENDBRANCH  32  34
DOCKED: ENDBRANCH  31  32
DOCKED: ENDBRANCH  30  31
DOCKED: ENDBRANCH   6  30
DOCKED: BRANCH  22  36
DOCKED: ATOM     36  C   UNL d   1      -2.234  20.369   4.350 -0.10 +0.01    +0.052 C 
DOCKED: BRANCH  36  37
DOCKED: ATOM     37  C   UNL d   1      -2.277  19.427   3.156 -0.14 +0.03    +0.115 C 
DOCKED: BRANCH  37  38
DOCKED: ATOM     38  C   UNL d   1      -3.693  19.159   2.731 -0.17 +0.06    +0.139 C 
DOCKED: ATOM     39  O   UNL d   1      -4.323  19.992   2.095 +0.02 -0.25    -0.650 OA
DOCKED: BRANCH  38  40
DOCKED: ATOM     40  O   UNL d   1      -4.281  17.994   3.053 -0.01 -0.52    -0.776 OA
DOCKED: ATOM     41  H   UNL d   1      -5.112  18.008   3.548 +0.04 +0.14    +0.167 HD
DOCKED: ENDBRANCH  38  40
DOCKED: ENDBRANCH  37  38
DOCKED: ENDBRANCH  36  37
DOCKED: ENDBRANCH  22  36
DOCKED: BRANCH  12  42
DOCKED: ATOM     42  C   UNL d   1       0.733  15.895  14.220 -0.19 -0.00    +0.004 C 
DOCKED: ATOM     43  C   UNL d   1       1.761  15.039  14.298 -0.23 -0.00    +0.012 C 
DOCKED: ENDBRANCH  12  42
DOCKED: BRANCH  17  44
DOCKED: ATOM     44  C   UNL d   1       4.646  19.521   8.284 -0.05 +0.00    +0.004 C 
DOCKED: ATOM     45  C   UNL d   1       5.235  18.893   7.261 -0.07 +0.00    +0.012 C 
DOCKED: ENDBRANCH  17  44
DOCKED: TORSDOF 10
DOCKED: TER
DOCKED: ENDMDL
________________________________________________________________________________


	BEGINNING GENETIC ALGORITHM DOCKING 32 of 100
Run: 32 Seed: 689617122 1530097493 [ Run 32 of 100 GA/GALS ]
Beginning LAMARCKIAN GENETIC ALGORITHM (LGA), with a maximum of 25000000 energy evaluations.

Final-Value: -10.447


	FINAL GENETIC ALGORITHM DOCKED STATE
	_______________________________________________


Detailed state:  trans 1.669 2.675 -18.344 quatxyzw 0.208288 -0.434235 0.149452 -0.863551 center -0.174 -0.001 -0.047 ntor 10 -33.9767 -86.1714 74.1062 -148.9367 63.5028 90.9515 -94.7495 98.9336 179.3526 -162.8157
State:	  1.669   2.675 -18.344   0.413 -0.861  0.296 -60.565    -33.98  -86.17   74.11 -148.94   63.50   90.95  -94.75   98.93  179.35 -162.82

DOCKED: MODEL       32
DOCKED: USER    Run = 32
DOCKED: USER    DPF = D:/Protein_go_brrr/autodock/final/mut_D99N/heme_Fe/dock.dpf
DOCKED: USER  
DOCKED: USER    Estimated Free Energy of Binding    =   -4.77 kcal/mol  [=(1)+(2)+(3)-(4)]
DOCKED: USER    Estimated Inhibition Constant, Ki   =  316.32 uM (micromolar)  [Temperature = 298.15 K]
DOCKED: USER    
DOCKED: USER    (1) Final Intermolecular Energy     =   -7.76 kcal/mol
DOCKED: USER        vdW + Hbond + desolv Energy     =   -4.30 kcal/mol
DOCKED: USER        Electrostatic Energy            =   -3.46 kcal/mol
DOCKED: USER    (2) Final Total Internal Energy     =   -2.69 kcal/mol
DOCKED: USER    (3) Torsional Free Energy           =   +2.98 kcal/mol
DOCKED: USER    (4) Unbound System's Energy  [=(2)] =   -2.69 kcal/mol
DOCKED: USER    
DOCKED: USER    
DOCKED: USER    NEWDPF move heme_Fe_opt.pdbqt
DOCKED: USER    NEWDPF about -0.174000 -0.001000 -0.047000
DOCKED: USER    NEWDPF tran0 1.669415 2.674673 -18.343553
DOCKED: USER    NEWDPF quaternion0 0.208288 -0.434235 0.149452 -0.863551
DOCKED: USER    NEWDPF axisangle0 0.413055 -0.861131 0.296377 -60.564689
DOCKED: USER    NEWDPF quat0 0.413055 -0.861131 0.296377 -60.564689
DOCKED: USER    NEWDPF dihe0 -33.98 -86.17 74.11 -148.94 63.50 90.95 -94.75 98.93 179.35 -162.82 
DOCKED: USER  keepresnum = 1 
DOCKED: USER  
DOCKED: REMARK  10 active torsions:
DOCKED: REMARK  status: ('A' for Active; 'I' for Inactive)
DOCKED: REMARK    1  A    between atoms: C_6  and  C_10 
DOCKED: REMARK    2  A    between atoms: C_10  and  C_11 
DOCKED: REMARK    3  A    between atoms: C_11  and  C_12 
DOCKED: REMARK    4  A    between atoms: C_12  and  O_14 
DOCKED: REMARK    5  A    between atoms: C_17  and  C_20 
DOCKED: REMARK    6  A    between atoms: C_24  and  C_27 
DOCKED: REMARK    7  A    between atoms: C_31  and  C_34 
DOCKED: REMARK    8  A    between atoms: C_34  and  C_35 
DOCKED: REMARK    9  A    between atoms: C_35  and  C_36 
DOCKED: REMARK   10  A    between atoms: C_36  and  O_38 
DOCKED: USER                              x       y       z     vdW  Elec       q    Type
DOCKED: USER                           _______ _______ _______ _____ _____    ______ ____
DOCKED: ROOT
DOCKED: ATOM      1  C   UNL d   1       0.184   2.210 -19.681 -0.05 +0.04    +0.064 C 
DOCKED: ATOM      2  C   UNL d   1       3.889  -0.301 -17.583 -0.22 +0.02    +0.064 A 
DOCKED: ATOM      3  C   UNL d   1       4.381   3.240 -14.376 -0.15 +0.01    +0.064 C 
DOCKED: ATOM      4  C   UNL d   1       0.868   5.735 -16.455 -0.08 +0.01    +0.064 C 
DOCKED: ATOM      5  C   UNL d   1       1.236   1.213 -19.439 -0.10 +0.04    +0.066 A 
DOCKED: ATOM      6  C   UNL d   1       1.474   0.105 -20.235 -0.14 -0.01    -0.021 A 
DOCKED: ATOM      7  C   UNL d   1       2.500  -0.594 -19.650 -0.18 -0.01    -0.025 A 
DOCKED: ATOM      8  C   UNL d   1       2.851   0.116 -18.518 -0.06 +0.02    +0.066 A 
DOCKED: ATOM      9  C   UNL d   1       3.115  -1.858 -20.167 -0.29 +0.02    +0.051 C 
DOCKED: ATOM     10  C   UNL d   1       4.285   0.394 -16.515 -0.18 +0.02    +0.066 A 
DOCKED: ATOM     11  C   UNL d   1       5.201  -0.085 -15.576 -0.30 -0.01    -0.021 A 
DOCKED: ATOM     12  C   UNL d   1       5.348   0.911 -14.631 -0.27 +0.00    +0.000 A 
DOCKED: ATOM     13  C   UNL d   1       4.499   1.953 -15.043 -0.13 +0.02    +0.070 A 
DOCKED: ATOM     14  C   UNL d   1       5.853  -1.452 -15.542 -0.47 +0.02    +0.052 C 
DOCKED: ATOM     15  C   UNL d   1       3.528   4.227 -14.739 -0.11 +0.02    +0.066 A 
DOCKED: ATOM     16  C   UNL d   1       3.516   5.479 -14.138 -0.11 -0.00    -0.021 A 
DOCKED: ATOM     17  C   UNL d   1       2.501   6.199 -14.734 -0.08 +0.00    +0.000 A 
DOCKED: ATOM     18  C   UNL d   1       1.914   5.366 -15.683 +0.05 +0.02    +0.070 A 
DOCKED: ATOM     19  C   UNL d   1       4.406   5.974 -13.030 -0.10 +0.01    +0.052 C 
DOCKED: ATOM     20  C   UNL d   1       0.264   4.908 -17.506 -0.05 +0.02    +0.066 A 
DOCKED: ATOM     21  C   UNL d   1      -0.936   5.194 -18.173 -0.02 -0.01    -0.025 A 
DOCKED: ATOM     22  C   UNL d   1      -1.105   4.183 -19.096 -0.01 -0.01    -0.021 A 
DOCKED: ATOM     23  C   UNL d   1      -0.011   3.321 -18.953 -0.01 +0.03    +0.066 A 
DOCKED: ATOM     24  C   UNL d   1      -1.882   6.352 -17.956 -0.02 +0.01    +0.051 C 
DOCKED: ATOM     25  N   UNL d   1       2.086   1.220 -18.397 -0.07 -0.11    -0.248 N 
DOCKED: ATOM     26  N   UNL d   1       3.844   1.635 -16.187 -0.05 -0.07    -0.248 N 
DOCKED: ATOM     27  N   UNL d   1       2.572   4.168 -15.718 -0.06 -0.07    -0.248 N 
DOCKED: ATOM     28  N   UNL d   1       0.798   3.744 -17.952 -0.02 -0.09    -0.248 N 
DOCKED: ATOM     29 FE   UNL d   1       2.320   2.691 -17.069 -0.02 +0.00    +0.000 Fe
DOCKED: ENDROOT
DOCKED: BRANCH   6  30
DOCKED: ATOM     30  C   UNL d   1       0.777  -0.262 -21.500 -0.11 +0.02    +0.052 C 
DOCKED: BRANCH  30  31
DOCKED: ATOM     31  C   UNL d   1      -0.417  -1.167 -21.216 -0.12 +0.09    +0.115 C 
DOCKED: BRANCH  31  32
DOCKED: ATOM     32  C   UNL d   1      -1.631  -0.346 -20.879 -0.13 +0.14    +0.139 C 
DOCKED: ATOM     33  O   UNL d   1      -2.118   0.415 -21.703 +0.02 -0.43    -0.650 OA
DOCKED: BRANCH  32  34
DOCKED: ATOM     34  O   UNL d   1      -2.192  -0.441 -19.662 +0.07 -1.73    -0.776 OA
DOCKED: ATOM     35  H   UNL d   1      -2.594   0.346 -19.267 +0.02 +0.34    +0.167 HD
DOCKED: ENDBRANCH  32  34
DOCKED: ENDBRANCH  31  32
DOCKED: ENDBRANCH  30  31
DOCKED: ENDBRANCH   6  30
DOCKED: BRANCH  22  36
DOCKED: ATOM     36  C   UNL d   1      -2.278   4.030 -20.028 -0.01 +0.03    +0.052 C 
DOCKED: BRANCH  36  37
DOCKED: ATOM     37  C   UNL d   1      -3.539   3.752 -19.224 -0.06 +0.11    +0.115 C 
DOCKED: BRANCH  37  38
DOCKED: ATOM     38  C   UNL d   1      -3.635   2.298 -18.858 +0.00 +0.22    +0.139 C 
DOCKED: ATOM     39  O   UNL d   1      -3.164   1.885 -17.808 +0.01 -1.04    -0.650 OA
DOCKED: BRANCH  38  40
DOCKED: ATOM     40  O   UNL d   1      -4.242   1.435 -19.691 +0.06 -1.35    -0.776 OA
DOCKED: ATOM     41  H   UNL d   1      -3.708   0.948 -20.335 +0.03 +0.20    +0.167 HD
DOCKED: ENDBRANCH  38  40
DOCKED: ENDBRANCH  37  38
DOCKED: ENDBRANCH  36  37
DOCKED: ENDBRANCH  22  36
DOCKED: BRANCH  12  42
DOCKED: ATOM     42  C   UNL d   1       6.231   0.826 -13.427 -0.23 +0.00    +0.004 C 
DOCKED: ATOM     43  C   UNL d   1       7.202   1.724 -13.220 -0.32 +0.00    +0.012 C 
DOCKED: ENDBRANCH  12  42
DOCKED: BRANCH  17  44
DOCKED: ATOM     44  C   UNL d   1       2.131   7.600 -14.429 -0.09 +0.00    +0.004 C 
DOCKED: ATOM     45  C   UNL d   1       1.155   7.876 -13.558 -0.12 -0.00    +0.012 C 
DOCKED: ENDBRANCH  17  44
DOCKED: TORSDOF 10
DOCKED: TER
DOCKED: ENDMDL
________________________________________________________________________________


	BEGINNING GENETIC ALGORITHM DOCKING 33 of 100
Run: 33 Seed: 641417044 1847833705 [ Run 33 of 100 GA/GALS ]
Beginning LAMARCKIAN GENETIC ALGORITHM (LGA), with a maximum of 25000000 energy evaluations.

Final-Value: -17.245


	FINAL GENETIC ALGORITHM DOCKED STATE
	_______________________________________________


Detailed state:  trans -9.009 1.160 1.500 quatxyzw -0.934715 -0.157663 0.250630 -0.196558 center -0.174 -0.001 -0.047 ntor 10 28.3951 -79.2991 37.8753 -139.3850 -174.6422 -161.9133 67.2433 24.6891 -16.0324 162.5740
State:	 -9.009   1.160   1.500  -0.953 -0.161  0.256 -157.329     28.40  -79.30   37.88 -139.38 -174.64 -161.91   67.24   24.69  -16.03  162.57

DOCKED: MODEL       33
DOCKED: USER    Run = 33
DOCKED: USER    DPF = D:/Protein_go_brrr/autodock/final/mut_D99N/heme_Fe/dock.dpf
DOCKED: USER  
DOCKED: USER    Estimated Free Energy of Binding    =  -12.69 kcal/mol  [=(1)+(2)+(3)-(4)]
DOCKED: USER    Estimated Inhibition Constant, Ki   =  497.64 pM (picomolar)  [Temperature = 298.15 K]
DOCKED: USER    
DOCKED: USER    (1) Final Intermolecular Energy     =  -15.67 kcal/mol
DOCKED: USER        vdW + Hbond + desolv Energy     =  -12.89 kcal/mol
DOCKED: USER        Electrostatic Energy            =   -2.79 kcal/mol
DOCKED: USER    (2) Final Total Internal Energy     =   -1.57 kcal/mol
DOCKED: USER    (3) Torsional Free Energy           =   +2.98 kcal/mol
DOCKED: USER    (4) Unbound System's Energy  [=(2)] =   -1.57 kcal/mol
DOCKED: USER    
DOCKED: USER    
DOCKED: USER    NEWDPF move heme_Fe_opt.pdbqt
DOCKED: USER    NEWDPF about -0.174000 -0.001000 -0.047000
DOCKED: USER    NEWDPF tran0 -9.009063 1.159697 1.500008
DOCKED: USER    NEWDPF quaternion0 -0.934715 -0.157663 0.250630 -0.196558
DOCKED: USER    NEWDPF axisangle0 -0.953312 -0.160800 0.255617 -157.328507
DOCKED: USER    NEWDPF quat0 -0.953312 -0.160800 0.255617 -157.328507
DOCKED: USER    NEWDPF dihe0 28.40 -79.30 37.88 -139.38 -174.64 -161.91 67.24 24.69 -16.03 162.57 
DOCKED: USER  keepresnum = 1 
DOCKED: USER  
DOCKED: REMARK  10 active torsions:
DOCKED: REMARK  status: ('A' for Active; 'I' for Inactive)
DOCKED: REMARK    1  A    between atoms: C_6  and  C_10 
DOCKED: REMARK    2  A    between atoms: C_10  and  C_11 
DOCKED: REMARK    3  A    between atoms: C_11  and  C_12 
DOCKED: REMARK    4  A    between atoms: C_12  and  O_14 
DOCKED: REMARK    5  A    between atoms: C_17  and  C_20 
DOCKED: REMARK    6  A    between atoms: C_24  and  C_27 
DOCKED: REMARK    7  A    between atoms: C_31  and  C_34 
DOCKED: REMARK    8  A    between atoms: C_34  and  C_35 
DOCKED: REMARK    9  A    between atoms: C_35  and  C_36 
DOCKED: REMARK   10  A    between atoms: C_36  and  O_38 
DOCKED: USER                              x       y       z     vdW  Elec       q    Type
DOCKED: USER                           _______ _______ _______ _____ _____    ______ ____
DOCKED: ROOT
DOCKED: ATOM      1  C   UNL d   1     -10.937   0.586   1.908 -0.37 +0.03    +0.064 C 
DOCKED: ATOM      2  C   UNL d   1      -8.474   4.869   2.062 -0.42 +0.01    +0.064 A 
DOCKED: ATOM      3  C   UNL d   1      -4.973   2.870  -0.548 -0.41 +0.01    +0.064 C 
DOCKED: ATOM      4  C   UNL d   1      -7.290  -1.314  -0.621 -0.41 +0.01    +0.064 C 
DOCKED: ATOM      5  C   UNL d   1     -10.530   1.952   2.264 -0.15 +0.02    +0.066 A 
DOCKED: ATOM      6  C   UNL d   1     -11.240   2.795   3.102 -0.22 -0.01    -0.021 A 
DOCKED: ATOM      7  C   UNL d   1     -10.558   3.986   3.142 -0.35 -0.00    -0.025 A 
DOCKED: ATOM      8  C   UNL d   1      -9.455   3.823   2.325 -0.36 +0.02    +0.066 A 
DOCKED: ATOM      9  C   UNL d   1     -10.940   5.197   3.936 -0.42 +0.00    +0.051 C 
DOCKED: ATOM     10  C   UNL d   1      -7.372   4.720   1.325 -0.38 +0.01    +0.066 A 
DOCKED: ATOM     11  C   UNL d   1      -6.512   5.771   0.997 -0.47 -0.00    -0.021 A 
DOCKED: ATOM     12  C   UNL d   1      -5.503   5.224   0.230 -0.47 +0.00    +0.000 A 
DOCKED: ATOM     13  C   UNL d   1      -5.807   3.856   0.122 -0.38 +0.01    +0.070 A 
DOCKED: ATOM     14  C   UNL d   1      -6.680   7.237   1.340 -0.53 +0.01    +0.052 C 
DOCKED: ATOM     15  C   UNL d   1      -5.287   1.562  -0.700 -0.39 +0.01    +0.066 A 
DOCKED: ATOM     16  C   UNL d   1      -4.419   0.633  -1.259 -0.36 -0.00    -0.021 A 
DOCKED: ATOM     17  C   UNL d   1      -5.086  -0.574  -1.284 -0.42 +0.00    +0.000 A 
DOCKED: ATOM     18  C   UNL d   1      -6.350  -0.351  -0.742 -0.41 +0.01    +0.070 A 
DOCKED: ATOM     19  C   UNL d   1      -3.025   0.873  -1.774 -0.38 +0.00    +0.052 C 
DOCKED: ATOM     20  C   UNL d   1      -8.608  -1.132  -0.000 -0.34 +0.01    +0.066 A 
DOCKED: ATOM     21  C   UNL d   1      -9.660  -2.057  -0.046 -0.10 -0.01    -0.025 A 
DOCKED: ATOM     22  C   UNL d   1     -10.684  -1.501   0.691 -0.16 -0.01    -0.021 A 
DOCKED: ATOM     23  C   UNL d   1     -10.222  -0.262   1.151 -0.35 +0.03    +0.066 A 
DOCKED: ATOM     24  C   UNL d   1      -9.710  -3.394  -0.748 -0.15 +0.01    +0.051 C 
DOCKED: ATOM     25  N   UNL d   1      -9.436   2.581   1.800 -0.17 -0.09    -0.248 N 
DOCKED: ATOM     26  N   UNL d   1      -6.951   3.550   0.782 -0.16 -0.07    -0.248 N 
DOCKED: ATOM     27  N   UNL d   1      -6.459   0.951  -0.343 -0.27 -0.03    -0.248 N 
DOCKED: ATOM     28  N   UNL d   1      -8.971  -0.022   0.688 -0.26 -0.07    -0.248 N 
DOCKED: ATOM     29 FE   UNL d   1      -7.960   1.762   0.734 -0.09 +0.00    +0.000 Fe
DOCKED: ENDROOT
DOCKED: BRANCH   6  30
DOCKED: ATOM     30  C   UNL d   1     -12.493   2.481   3.846 -0.23 +0.02    +0.052 C 
DOCKED: BRANCH  30  31
DOCKED: ATOM     31  C   UNL d   1     -12.205   1.553   5.021 -0.09 +0.06    +0.115 C 
DOCKED: BRANCH  31  32
DOCKED: ATOM     32  C   UNL d   1     -12.830   0.205   4.792 +0.04 +0.17    +0.139 C 
DOCKED: ATOM     33  O   UNL d   1     -12.797  -0.654   5.662 -0.28 -0.98    -0.650 OA
DOCKED: BRANCH  32  34
DOCKED: ATOM     34  O   UNL d   1     -13.434  -0.069   3.623 -0.22 -1.25    -0.776 OA
DOCKED: ATOM     35  H   UNL d   1     -14.157  -0.711   3.608 +0.03 +0.34    +0.167 HD
DOCKED: ENDBRANCH  32  34
DOCKED: ENDBRANCH  31  32
DOCKED: ENDBRANCH  30  31
DOCKED: ENDBRANCH   6  30
DOCKED: BRANCH  22  36
DOCKED: ATOM     36  C   UNL d   1     -12.047  -2.106   0.900 +0.25 +0.06    +0.052 C 
DOCKED: BRANCH  36  37
DOCKED: ATOM     37  C   UNL d   1     -13.049  -1.451  -0.039 -0.00 +0.07    +0.115 C 
DOCKED: BRANCH  37  38
DOCKED: ATOM     38  C   UNL d   1     -14.448  -1.573   0.496 -0.10 +0.10    +0.139 C 
DOCKED: ATOM     39  O   UNL d   1     -15.414  -1.413  -0.236 +0.03 -0.25    -0.650 OA
DOCKED: BRANCH  38  40
DOCKED: ATOM     40  O   UNL d   1     -14.648  -1.858   1.795 -0.37 -1.26    -0.776 OA
DOCKED: ATOM     41  H   UNL d   1     -14.872  -1.141   2.405 +0.02 +0.23    +0.167 HD
DOCKED: ENDBRANCH  38  40
DOCKED: ENDBRANCH  37  38
DOCKED: ENDBRANCH  36  37
DOCKED: ENDBRANCH  22  36
DOCKED: BRANCH  12  42
DOCKED: ATOM     42  C   UNL d   1      -4.359   5.991  -0.353 -0.64 +0.00    +0.004 C 
DOCKED: ATOM     43  C   UNL d   1      -3.249   6.222   0.359 -0.60 +0.00    +0.012 C 
DOCKED: ENDBRANCH  12  42
DOCKED: BRANCH  17  44
DOCKED: ATOM     44  C   UNL d   1      -4.543  -1.860  -1.775 -0.66 -0.00    +0.004 C 
DOCKED: ATOM     45  C   UNL d   1      -4.604  -2.179  -3.072 -0.73 -0.00    +0.012 C 
DOCKED: ENDBRANCH  17  44
DOCKED: TORSDOF 10
DOCKED: TER
DOCKED: ENDMDL
________________________________________________________________________________


	BEGINNING GENETIC ALGORITHM DOCKING 34 of 100
Run: 34 Seed: 2085631801 1356190747 [ Run 34 of 100 GA/GALS ]
Beginning LAMARCKIAN GENETIC ALGORITHM (LGA), with a maximum of 25000000 energy evaluations.

Final-Value: -15.547


	FINAL GENETIC ALGORITHM DOCKED STATE
	_______________________________________________


Detailed state:  trans -9.377 1.968 1.962 quatxyzw 0.945507 0.078378 -0.253147 0.189182 center -0.174 -0.001 -0.047 ntor 10 -120.5359 -57.1304 19.3594 -111.7747 40.6849 -141.5699 -64.7898 -48.7773 31.2736 -140.7512
State:	 -9.377   1.968   1.962   0.963  0.080 -0.258 158.190   -120.54  -57.13   19.36 -111.77   40.68 -141.57  -64.79  -48.78   31.27 -140.75

DOCKED: MODEL       34
DOCKED: USER    Run = 34
DOCKED: USER    DPF = D:/Protein_go_brrr/autodock/final/mut_D99N/heme_Fe/dock.dpf
DOCKED: USER  
DOCKED: USER    Estimated Free Energy of Binding    =  -12.20 kcal/mol  [=(1)+(2)+(3)-(4)]
DOCKED: USER    Estimated Inhibition Constant, Ki   =    1.15 nM (nanomolar)  [Temperature = 298.15 K]
DOCKED: USER    
DOCKED: USER    (1) Final Intermolecular Energy     =  -15.18 kcal/mol
DOCKED: USER        vdW + Hbond + desolv Energy     =  -13.93 kcal/mol
DOCKED: USER        Electrostatic Energy            =   -1.25 kcal/mol
DOCKED: USER    (2) Final Total Internal Energy     =   -0.37 kcal/mol
DOCKED: USER    (3) Torsional Free Energy           =   +2.98 kcal/mol
DOCKED: USER    (4) Unbound System's Energy  [=(2)] =   -0.37 kcal/mol
DOCKED: USER    
DOCKED: USER    
DOCKED: USER    NEWDPF move heme_Fe_opt.pdbqt
DOCKED: USER    NEWDPF about -0.174000 -0.001000 -0.047000
DOCKED: USER    NEWDPF tran0 -9.376785 1.968418 1.962020
DOCKED: USER    NEWDPF quaternion0 0.945507 0.078378 -0.253147 0.189182
DOCKED: USER    NEWDPF axisangle0 0.962895 0.079820 -0.257803 158.189842
DOCKED: USER    NEWDPF quat0 0.962895 0.079820 -0.257803 158.189842
DOCKED: USER    NEWDPF dihe0 -120.54 -57.13 19.36 -111.77 40.68 -141.57 -64.79 -48.78 31.27 -140.75 
DOCKED: USER  keepresnum = 1 
DOCKED: USER  
DOCKED: REMARK  10 active torsions:
DOCKED: REMARK  status: ('A' for Active; 'I' for Inactive)
DOCKED: REMARK    1  A    between atoms: C_6  and  C_10 
DOCKED: REMARK    2  A    between atoms: C_10  and  C_11 
DOCKED: REMARK    3  A    between atoms: C_11  and  C_12 
DOCKED: REMARK    4  A    between atoms: C_12  and  O_14 
DOCKED: REMARK    5  A    between atoms: C_17  and  C_20 
DOCKED: REMARK    6  A    between atoms: C_24  and  C_27 
DOCKED: REMARK    7  A    between atoms: C_31  and  C_34 
DOCKED: REMARK    8  A    between atoms: C_34  and  C_35 
DOCKED: REMARK    9  A    between atoms: C_35  and  C_36 
DOCKED: REMARK   10  A    between atoms: C_36  and  O_38 
DOCKED: USER                              x       y       z     vdW  Elec       q    Type
DOCKED: USER                           _______ _______ _______ _____ _____    ______ ____
DOCKED: ROOT
DOCKED: ATOM      1  C   UNL d   1     -11.353   1.708   2.449 -0.30 +0.02    +0.064 C 
DOCKED: ATOM      2  C   UNL d   1      -8.290   5.584   2.286 -0.44 +0.01    +0.064 A 
DOCKED: ATOM      3  C   UNL d   1      -5.203   2.948  -0.281 -0.43 +0.01    +0.064 C 
DOCKED: ATOM      4  C   UNL d   1      -8.106  -0.847  -0.046 -0.44 +0.01    +0.064 C 
DOCKED: ATOM      5  C   UNL d   1     -10.740   3.018   2.713 -0.27 +0.01    +0.066 A 
DOCKED: ATOM      6  C   UNL d   1     -11.293   4.002   3.515 -0.29 -0.00    -0.021 A 
DOCKED: ATOM      7  C   UNL d   1     -10.443   5.080   3.466 -0.42 -0.00    -0.025 A 
DOCKED: ATOM      8  C   UNL d   1      -9.403   4.710   2.635 -0.42 +0.01    +0.066 A 
DOCKED: ATOM      9  C   UNL d   1     -10.619   6.377   4.195 -0.27 -0.01    +0.051 C 
DOCKED: ATOM     10  C   UNL d   1      -7.246   5.233   1.533 -0.41 +0.01    +0.066 A 
DOCKED: ATOM     11  C   UNL d   1      -6.252   6.126   1.122 -0.47 -0.00    -0.021 A 
DOCKED: ATOM     12  C   UNL d   1      -5.359   5.394   0.366 -0.49 +0.00    +0.000 A 
DOCKED: ATOM     13  C   UNL d   1      -5.862   4.081   0.348 -0.38 +0.01    +0.070 A 
DOCKED: ATOM     14  C   UNL d   1      -6.194   7.618   1.379 -0.58 +0.01    +0.052 C 
DOCKED: ATOM     15  C   UNL d   1      -5.709   1.694  -0.346 -0.39 +0.01    +0.066 A 
DOCKED: ATOM     16  C   UNL d   1      -5.004   0.617  -0.868 -0.35 -0.00    -0.021 A 
DOCKED: ATOM     17  C   UNL d   1      -5.840  -0.478  -0.804 -0.43 +0.00    +0.000 A 
DOCKED: ATOM     18  C   UNL d   1      -7.040  -0.042  -0.247 -0.39 +0.01    +0.070 A 
DOCKED: ATOM     19  C   UNL d   1      -3.607   0.620  -1.429 -0.36 +0.00    +0.052 C 
DOCKED: ATOM     20  C   UNL d   1      -9.362  -0.438   0.594 -0.34 +0.02    +0.066 A 
DOCKED: ATOM     21  C   UNL d   1     -10.539  -1.199   0.629 -0.11 -0.01    -0.025 A 
DOCKED: ATOM     22  C   UNL d   1     -11.447  -0.458   1.356 -0.33 -0.02    -0.021 A 
DOCKED: ATOM     23  C   UNL d   1     -10.794   0.724   1.728 -0.34 +0.03    +0.066 A 
DOCKED: ATOM     24  C   UNL d   1     -10.806  -2.552   0.011 -0.10 +0.02    +0.051 C 
DOCKED: ATOM     25  N   UNL d   1      -9.582   3.452   2.186 -0.24 -0.07    -0.248 N 
DOCKED: ATOM     26  N   UNL d   1      -7.017   3.985   1.052 -0.23 -0.06    -0.248 N 
DOCKED: ATOM     27  N   UNL d   1      -6.945   1.283   0.075 -0.26 -0.04    -0.248 N 
DOCKED: ATOM     28  N   UNL d   1      -9.537   0.750   1.222 -0.24 -0.08    -0.248 N 
DOCKED: ATOM     29 FE   UNL d   1      -8.277   2.366   1.136 -0.09 +0.00    +0.000 Fe
DOCKED: ENDROOT
DOCKED: BRANCH   6  30
DOCKED: ATOM     30  C   UNL d   1     -12.553   3.919   4.306 -0.24 +0.01    +0.052 C 
DOCKED: BRANCH  30  31
DOCKED: ATOM     31  C   UNL d   1     -12.275   4.136   5.790 -0.23 +0.01    +0.115 C 
DOCKED: BRANCH  31  32
DOCKED: ATOM     32  C   UNL d   1     -12.941   5.395   6.271 -0.20 +0.00    +0.139 C 
DOCKED: ATOM     33  O   UNL d   1     -14.067   5.688   5.894 +0.04 -0.04    -0.650 OA
DOCKED: BRANCH  32  34
DOCKED: ATOM     34  O   UNL d   1     -12.302   6.213   7.124 +0.05 +0.07    -0.776 OA
DOCKED: ATOM     35  H   UNL d   1     -11.456   6.600   6.858 -0.45 -0.06    +0.167 HD
DOCKED: ENDBRANCH  32  34
DOCKED: ENDBRANCH  31  32
DOCKED: ENDBRANCH  30  31
DOCKED: ENDBRANCH   6  30
DOCKED: BRANCH  22  36
DOCKED: ATOM     36  C   UNL d   1     -12.876  -0.843   1.633 +0.10 +0.07    +0.052 C 
DOCKED: BRANCH  36  37
DOCKED: ATOM     37  C   UNL d   1     -13.515  -1.393   0.366 -0.14 +0.08    +0.115 C 
DOCKED: BRANCH  37  38
DOCKED: ATOM     38  C   UNL d   1     -14.203  -2.701   0.633 -0.11 +0.13    +0.139 C 
DOCKED: ATOM     39  O   UNL d   1     -14.164  -3.607  -0.186 -0.01 -0.33    -0.650 OA
DOCKED: BRANCH  38  40
DOCKED: ATOM     40  O   UNL d   1     -14.875  -2.883   1.784 -0.55 -1.25    -0.776 OA
DOCKED: ATOM     41  H   UNL d   1     -15.813  -3.120   1.748 +0.01 +0.14    +0.167 HD
DOCKED: ENDBRANCH  38  40
DOCKED: ENDBRANCH  37  38
DOCKED: ENDBRANCH  36  37
DOCKED: ENDBRANCH  22  36
DOCKED: BRANCH  12  42
DOCKED: ATOM     42  C   UNL d   1      -4.135   5.950  -0.290 -0.65 +0.00    +0.004 C 
DOCKED: ATOM     43  C   UNL d   1      -3.105   6.397   0.440 -0.52 +0.00    +0.012 C 
DOCKED: ENDBRANCH  12  42
DOCKED: BRANCH  17  44
DOCKED: ATOM     44  C   UNL d   1      -5.506  -1.856  -1.230 -0.57 -0.00    +0.004 C 
DOCKED: ATOM     45  C   UNL d   1      -5.121  -2.111  -2.484 -0.68 -0.00    +0.012 C 
DOCKED: ENDBRANCH  17  44
DOCKED: TORSDOF 10
DOCKED: TER
DOCKED: ENDMDL
________________________________________________________________________________


	BEGINNING GENETIC ALGORITHM DOCKING 35 of 100
Run: 35 Seed: 1615215614 1725248160 [ Run 35 of 100 GA/GALS ]
Beginning LAMARCKIAN GENETIC ALGORITHM (LGA), with a maximum of 25000000 energy evaluations.

Final-Value: -11.429


	FINAL GENETIC ALGORITHM DOCKED STATE
	_______________________________________________


Detailed state:  trans 16.065 -8.884 7.709 quatxyzw 0.124558 -0.944860 -0.276767 -0.122981 center -0.174 -0.001 -0.047 ntor 10 145.9898 102.6135 -167.6264 -134.3357 -134.8140 68.8925 50.3756 -54.5223 35.2672 34.0543
State:	 16.065  -8.884   7.709   0.126 -0.952 -0.279 -165.872    145.99  102.61 -167.63 -134.34 -134.81   68.89   50.38  -54.52   35.27   34.05

DOCKED: MODEL       35
DOCKED: USER    Run = 35
DOCKED: USER    DPF = D:/Protein_go_brrr/autodock/final/mut_D99N/heme_Fe/dock.dpf
DOCKED: USER  
DOCKED: USER    Estimated Free Energy of Binding    =   -6.85 kcal/mol  [=(1)+(2)+(3)-(4)]
DOCKED: USER    Estimated Inhibition Constant, Ki   =    9.50 uM (micromolar)  [Temperature = 298.15 K]
DOCKED: USER    
DOCKED: USER    (1) Final Intermolecular Energy     =   -9.83 kcal/mol
DOCKED: USER        vdW + Hbond + desolv Energy     =   -8.45 kcal/mol
DOCKED: USER        Electrostatic Energy            =   -1.38 kcal/mol
DOCKED: USER    (2) Final Total Internal Energy     =   -1.59 kcal/mol
DOCKED: USER    (3) Torsional Free Energy           =   +2.98 kcal/mol
DOCKED: USER    (4) Unbound System's Energy  [=(2)] =   -1.59 kcal/mol
DOCKED: USER    
DOCKED: USER    
DOCKED: USER    NEWDPF move heme_Fe_opt.pdbqt
DOCKED: USER    NEWDPF about -0.174000 -0.001000 -0.047000
DOCKED: USER    NEWDPF tran0 16.064510 -8.884055 7.708831
DOCKED: USER    NEWDPF quaternion0 0.124558 -0.944860 -0.276767 -0.122981
DOCKED: USER    NEWDPF axisangle0 0.125511 -0.952087 -0.278884 -165.871659
DOCKED: USER    NEWDPF quat0 0.125511 -0.952087 -0.278884 -165.871659
DOCKED: USER    NEWDPF dihe0 145.99 102.61 -167.63 -134.34 -134.81 68.89 50.38 -54.52 35.27 34.05 
DOCKED: USER  keepresnum = 1 
DOCKED: USER  
DOCKED: REMARK  10 active torsions:
DOCKED: REMARK  status: ('A' for Active; 'I' for Inactive)
DOCKED: REMARK    1  A    between atoms: C_6  and  C_10 
DOCKED: REMARK    2  A    between atoms: C_10  and  C_11 
DOCKED: REMARK    3  A    between atoms: C_11  and  C_12 
DOCKED: REMARK    4  A    between atoms: C_12  and  O_14 
DOCKED: REMARK    5  A    between atoms: C_17  and  C_20 
DOCKED: REMARK    6  A    between atoms: C_24  and  C_27 
DOCKED: REMARK    7  A    between atoms: C_31  and  C_34 
DOCKED: REMARK    8  A    between atoms: C_34  and  C_35 
DOCKED: REMARK    9  A    between atoms: C_35  and  C_36 
DOCKED: REMARK   10  A    between atoms: C_36  and  O_38 
DOCKED: USER                              x       y       z     vdW  Elec       q    Type
DOCKED: USER                           _______ _______ _______ _____ _____    ______ ____
DOCKED: ROOT
DOCKED: ATOM      1  C   UNL d   1      17.774  -8.069   6.918 -0.25 +0.00    +0.064 C 
DOCKED: ATOM      2  C   UNL d   1      14.960 -11.985   5.832 -0.21 -0.05    +0.064 A 
DOCKED: ATOM      3  C   UNL d   1      11.496 -10.185   8.629 -0.23 -0.02    +0.064 C 
DOCKED: ATOM      4  C   UNL d   1      14.242  -6.439   9.776 -0.27 -0.02    +0.064 C 
DOCKED: ATOM      5  C   UNL d   1      17.335  -9.380   6.419 -0.27 -0.01    +0.066 A 
DOCKED: ATOM      6  C   UNL d   1      18.117 -10.243   5.669 -0.31 +0.00    -0.021 A 
DOCKED: ATOM      7  C   UNL d   1      17.334 -11.328   5.365 -0.28 +0.01    -0.025 A 
DOCKED: ATOM      8  C   UNL d   1      16.102 -11.086   5.942 -0.27 -0.03    +0.066 A 
DOCKED: ATOM      9  C   UNL d   1      17.759 -12.532   4.581 -0.19 -0.03    +0.051 C 
DOCKED: ATOM     10  C   UNL d   1      13.780 -11.803   6.427 -0.24 -0.03    +0.066 A 
DOCKED: ATOM     11  C   UNL d   1      12.669 -12.622   6.211 -0.24 +0.01    -0.021 A 
DOCKED: ATOM     12  C   UNL d   1      11.651 -12.114   6.993 -0.23 -0.00    +0.000 A 
DOCKED: ATOM     13  C   UNL d   1      12.197 -10.995   7.646 -0.18 -0.03    +0.070 A 
DOCKED: ATOM     14  C   UNL d   1      12.562 -13.791   5.253 -0.29 -0.02    +0.052 C 
DOCKED: ATOM     15  C   UNL d   1      11.999  -9.076   9.222 -0.17 -0.03    +0.066 A 
DOCKED: ATOM     16  C   UNL d   1      11.336  -8.387  10.229 -0.23 +0.01    -0.021 A 
DOCKED: ATOM     17  C   UNL d   1      12.124  -7.304  10.559 -0.25 -0.00    +0.000 A 
DOCKED: ATOM     18  C   UNL d   1      13.251  -7.356   9.741 -0.24 -0.03    +0.070 A 
DOCKED: ATOM     19  C   UNL d   1      10.001  -8.716  10.842 -0.21 -0.04    +0.052 C 
DOCKED: ATOM     20  C   UNL d   1      15.470  -6.495   8.974 -0.18 -0.02    +0.066 A 
DOCKED: ATOM     21  C   UNL d   1      16.406  -5.458   8.853 -0.18 +0.01    -0.025 A 
DOCKED: ATOM     22  C   UNL d   1      17.410  -5.949   8.044 -0.17 +0.00    -0.021 A 
DOCKED: ATOM     23  C   UNL d   1      17.046  -7.256   7.701 -0.22 -0.01    +0.066 A 
DOCKED: ATOM     24  C   UNL d   1      16.364  -4.074   9.458 -0.21 -0.01    +0.051 C 
DOCKED: ATOM     25  N   UNL d   1      16.109  -9.905   6.591 -0.20 +0.08    -0.248 N 
DOCKED: ATOM     26  N   UNL d   1      13.492 -10.800   7.295 -0.09 +0.12    -0.248 N 
DOCKED: ATOM     27  N   UNL d   1      13.196  -8.469   8.949 +0.05 +0.13    -0.248 N 
DOCKED: ATOM     28  N   UNL d   1      15.840  -7.568   8.235 -0.17 +0.07    -0.248 N 
DOCKED: ATOM     29 FE   UNL d   1      14.666  -9.183   7.766 -0.06 -0.00    +0.000 Fe
DOCKED: ENDROOT
DOCKED: BRANCH   6  30
DOCKED: ATOM     30  C   UNL d   1      19.543 -10.057   5.278 -0.24 +0.02    +0.052 C 
DOCKED: BRANCH  30  31
DOCKED: ATOM     31  C   UNL d   1      20.387 -11.244   5.732 -0.16 +0.04    +0.115 C 
DOCKED: BRANCH  31  32
DOCKED: ATOM     32  C   UNL d   1      21.602 -10.770   6.479 -0.09 +0.10    +0.139 C 
DOCKED: ATOM     33  O   UNL d   1      22.703 -11.251   6.248 -0.44 -0.83    -0.650 OA
DOCKED: BRANCH  32  34
DOCKED: ATOM     34  O   UNL d   1      21.489  -9.810   7.412 -0.01 -0.42    -0.776 OA
DOCKED: ATOM     35  H   UNL d   1      20.834  -9.109   7.287 +0.03 +0.07    +0.167 HD
DOCKED: ENDBRANCH  32  34
DOCKED: ENDBRANCH  31  32
DOCKED: ENDBRANCH  30  31
DOCKED: ENDBRANCH   6  30
DOCKED: BRANCH  22  36
DOCKED: ATOM     36  C   UNL d   1      18.625  -5.185   7.589 -0.13 +0.00    +0.052 C 
DOCKED: BRANCH  36  37
DOCKED: ATOM     37  C   UNL d   1      19.875  -6.018   7.828 -0.07 +0.01    +0.115 C 
DOCKED: BRANCH  37  38
DOCKED: ATOM     38  C   UNL d   1      20.662  -6.187   6.559 -0.16 +0.04    +0.139 C 
DOCKED: ATOM     39  O   UNL d   1      21.235  -5.237   6.048 -0.01 -0.17    -0.650 OA
DOCKED: BRANCH  38  40
DOCKED: ATOM     40  O   UNL d   1      20.736  -7.394   5.971 -0.06 -0.39    -0.776 OA
DOCKED: ATOM     41  H   UNL d   1      21.335  -8.060   6.339 +0.02 +0.11    +0.167 HD
DOCKED: ENDBRANCH  38  40
DOCKED: ENDBRANCH  37  38
DOCKED: ENDBRANCH  36  37
DOCKED: ENDBRANCH  22  36
DOCKED: BRANCH  12  42
DOCKED: ATOM     42  C   UNL d   1      10.267 -12.675   7.067 -0.26 -0.00    +0.004 C 
DOCKED: ATOM     43  C   UNL d   1       9.204 -11.936   6.725 -0.38 -0.00    +0.012 C 
DOCKED: ENDBRANCH  12  42
DOCKED: BRANCH  17  44
DOCKED: ATOM     44  C   UNL d   1      11.830  -6.297  11.603 -0.22 -0.00    +0.004 C 
DOCKED: ATOM     45  C   UNL d   1      10.985  -5.289  11.363 -0.32 -0.01    +0.012 C 
DOCKED: ENDBRANCH  17  44
DOCKED: TORSDOF 10
DOCKED: TER
DOCKED: ENDMDL
________________________________________________________________________________


	BEGINNING GENETIC ALGORITHM DOCKING 36 of 100
Run: 36 Seed: 1240207681 1046585375 [ Run 36 of 100 GA/GALS ]
Beginning LAMARCKIAN GENETIC ALGORITHM (LGA), with a maximum of 25000000 energy evaluations.

Final-Value: -16.755


	FINAL GENETIC ALGORITHM DOCKED STATE
	_______________________________________________


Detailed state:  trans -8.975 1.186 1.496 quatxyzw 0.934597 0.158148 -0.250414 0.197006 center -0.174 -0.001 -0.047 ntor 10 114.3151 -140.7525 20.3913 -134.6890 -180.0000 -138.2416 66.8264 36.1342 10.5463 152.2788
State:	 -8.975   1.186   1.496   0.953  0.161 -0.255 157.276    114.32 -140.75   20.39 -134.69 -180.00 -138.24   66.83   36.13   10.55  152.28

DOCKED: MODEL       36
DOCKED: USER    Run = 36
DOCKED: USER    DPF = D:/Protein_go_brrr/autodock/final/mut_D99N/heme_Fe/dock.dpf
DOCKED: USER  
DOCKED: USER    Estimated Free Energy of Binding    =  -12.36 kcal/mol  [=(1)+(2)+(3)-(4)]
DOCKED: USER    Estimated Inhibition Constant, Ki   =  870.99 pM (picomolar)  [Temperature = 298.15 K]
DOCKED: USER    
DOCKED: USER    (1) Final Intermolecular Energy     =  -15.34 kcal/mol
DOCKED: USER        vdW + Hbond + desolv Energy     =  -12.90 kcal/mol
DOCKED: USER        Electrostatic Energy            =   -2.45 kcal/mol
DOCKED: USER    (2) Final Total Internal Energy     =   -1.41 kcal/mol
DOCKED: USER    (3) Torsional Free Energy           =   +2.98 kcal/mol
DOCKED: USER    (4) Unbound System's Energy  [=(2)] =   -1.41 kcal/mol
DOCKED: USER    
DOCKED: USER    
DOCKED: USER    NEWDPF move heme_Fe_opt.pdbqt
DOCKED: USER    NEWDPF about -0.174000 -0.001000 -0.047000
DOCKED: USER    NEWDPF tran0 -8.975356 1.186279 1.496346
DOCKED: USER    NEWDPF quaternion0 0.934597 0.158148 -0.250414 0.197006
DOCKED: USER    NEWDPF axisangle0 0.953279 0.161309 -0.255419 157.276083
DOCKED: USER    NEWDPF quat0 0.953279 0.161309 -0.255419 157.276083
DOCKED: USER    NEWDPF dihe0 114.32 -140.75 20.39 -134.69 -180.00 -138.24 66.83 36.13 10.55 152.28 
DOCKED: USER  keepresnum = 1 
DOCKED: USER  
DOCKED: REMARK  10 active torsions:
DOCKED: REMARK  status: ('A' for Active; 'I' for Inactive)
DOCKED: REMARK    1  A    between atoms: C_6  and  C_10 
DOCKED: REMARK    2  A    between atoms: C_10  and  C_11 
DOCKED: REMARK    3  A    between atoms: C_11  and  C_12 
DOCKED: REMARK    4  A    between atoms: C_12  and  O_14 
DOCKED: REMARK    5  A    between atoms: C_17  and  C_20 
DOCKED: REMARK    6  A    between atoms: C_24  and  C_27 
DOCKED: REMARK    7  A    between atoms: C_31  and  C_34 
DOCKED: REMARK    8  A    between atoms: C_34  and  C_35 
DOCKED: REMARK    9  A    between atoms: C_35  and  C_36 
DOCKED: REMARK   10  A    between atoms: C_36  and  O_38 
DOCKED: USER                              x       y       z     vdW  Elec       q    Type
DOCKED: USER                           _______ _______ _______ _____ _____    ______ ____
DOCKED: ROOT
DOCKED: ATOM      1  C   UNL d   1     -10.903   0.610   1.903 -0.37 +0.03    +0.064 C 
DOCKED: ATOM      2  C   UNL d   1      -8.443   4.895   2.063 -0.42 +0.01    +0.064 A 
DOCKED: ATOM      3  C   UNL d   1      -4.940   2.902  -0.548 -0.40 +0.01    +0.064 C 
DOCKED: ATOM      4  C   UNL d   1      -7.254  -1.284  -0.627 -0.42 +0.01    +0.064 C 
DOCKED: ATOM      5  C   UNL d   1     -10.497   1.976   2.261 -0.15 +0.02    +0.066 A 
DOCKED: ATOM      6  C   UNL d   1     -11.208   2.818   3.100 -0.21 -0.01    -0.021 A 
DOCKED: ATOM      7  C   UNL d   1     -10.526   4.009   3.141 -0.36 -0.00    -0.025 A 
DOCKED: ATOM      8  C   UNL d   1      -9.423   3.848   2.325 -0.36 +0.02    +0.066 A 
DOCKED: ATOM      9  C   UNL d   1     -10.910   5.219   3.936 -0.42 +0.00    +0.051 C 
DOCKED: ATOM     10  C   UNL d   1      -7.341   4.748   1.326 -0.39 +0.01    +0.066 A 
DOCKED: ATOM     11  C   UNL d   1      -6.481   5.799   1.000 -0.47 -0.00    -0.021 A 
DOCKED: ATOM     12  C   UNL d   1      -5.471   5.254   0.233 -0.48 +0.00    +0.000 A 
DOCKED: ATOM     13  C   UNL d   1      -5.774   3.886   0.123 -0.38 +0.01    +0.070 A 
DOCKED: ATOM     14  C   UNL d   1      -6.650   7.265   1.344 -0.53 +0.01    +0.052 C 
DOCKED: ATOM     15  C   UNL d   1      -5.253   1.594  -0.701 -0.39 +0.01    +0.066 A 
DOCKED: ATOM     16  C   UNL d   1      -4.384   0.666  -1.261 -0.36 -0.00    -0.021 A 
DOCKED: ATOM     17  C   UNL d   1      -5.050  -0.541  -1.288 -0.42 +0.00    +0.000 A 
DOCKED: ATOM     18  C   UNL d   1      -6.315  -0.320  -0.747 -0.41 +0.01    +0.070 A 
DOCKED: ATOM     19  C   UNL d   1      -2.990   0.907  -1.775 -0.37 +0.00    +0.052 C 
DOCKED: ATOM     20  C   UNL d   1      -8.572  -1.103  -0.007 -0.34 +0.01    +0.066 A 
DOCKED: ATOM     21  C   UNL d   1      -9.623  -2.029  -0.054 -0.09 -0.01    -0.025 A 
DOCKED: ATOM     22  C   UNL d   1     -10.649  -1.474   0.684 -0.16 -0.01    -0.021 A 
DOCKED: ATOM     23  C   UNL d   1     -10.187  -0.235   1.145 -0.35 +0.03    +0.066 A 
DOCKED: ATOM     24  C   UNL d   1      -9.672  -3.366  -0.757 -0.14 +0.01    +0.051 C 
DOCKED: ATOM     25  N   UNL d   1      -9.403   2.607   1.798 -0.17 -0.09    -0.248 N 
DOCKED: ATOM     26  N   UNL d   1      -6.919   3.578   0.782 -0.18 -0.06    -0.248 N 
DOCKED: ATOM     27  N   UNL d   1      -6.425   0.982  -0.346 -0.27 -0.03    -0.248 N 
DOCKED: ATOM     28  N   UNL d   1      -8.936   0.005   0.683 -0.26 -0.06    -0.248 N 
DOCKED: ATOM     29 FE   UNL d   1      -7.927   1.790   0.731 -0.09 +0.00    +0.000 Fe
DOCKED: ENDROOT
DOCKED: BRANCH   6  30
DOCKED: ATOM     30  C   UNL d   1     -12.461   2.503   3.843 -0.23 +0.02    +0.052 C 
DOCKED: BRANCH  30  31
DOCKED: ATOM     31  C   UNL d   1     -12.155   2.165   5.298 -0.13 +0.04    +0.115 C 
DOCKED: BRANCH  31  32
DOCKED: ATOM     32  C   UNL d   1     -12.462   0.720   5.579 -0.15 +0.10    +0.139 C 
DOCKED: ATOM     33  O   UNL d   1     -12.283   0.250   6.693 -0.23 -0.44    -0.650 OA
DOCKED: BRANCH  32  34
DOCKED: ATOM     34  O   UNL d   1     -12.939  -0.070   4.602 -0.46 -1.24    -0.776 OA
DOCKED: ATOM     35  H   UNL d   1     -13.815   0.113   4.235 +0.03 +0.21    +0.167 HD
DOCKED: ENDBRANCH  32  34
DOCKED: ENDBRANCH  31  32
DOCKED: ENDBRANCH  30  31
DOCKED: ENDBRANCH   6  30
DOCKED: BRANCH  22  36
DOCKED: ATOM     36  C   UNL d   1     -12.011  -2.081   0.891 +0.22 +0.05    +0.052 C 
DOCKED: BRANCH  36  37
DOCKED: ATOM     37  C   UNL d   1     -13.056  -1.263   0.147 -0.02 +0.07    +0.115 C 
DOCKED: BRANCH  37  38
DOCKED: ATOM     38  C   UNL d   1     -14.350  -1.221   0.909 -0.02 +0.12    +0.139 C 
DOCKED: ATOM     39  O   UNL d   1     -15.421  -1.336   0.331 +0.03 -0.31    -0.650 OA
DOCKED: BRANCH  38  40
DOCKED: ATOM     40  O   UNL d   1     -14.338  -1.052   2.244 -0.02 -1.25    -0.776 OA
DOCKED: ATOM     41  H   UNL d   1     -13.700  -0.439   2.634 +0.03 +0.26    +0.167 HD
DOCKED: ENDBRANCH  38  40
DOCKED: ENDBRANCH  37  38
DOCKED: ENDBRANCH  36  37
DOCKED: ENDBRANCH  22  36
DOCKED: BRANCH  12  42
DOCKED: ATOM     42  C   UNL d   1      -4.328   6.023  -0.349 -0.64 +0.00    +0.004 C 
DOCKED: ATOM     43  C   UNL d   1      -3.382   6.553   0.437 -0.58 +0.00    +0.012 C 
DOCKED: ENDBRANCH  12  42
DOCKED: BRANCH  17  44
DOCKED: ATOM     44  C   UNL d   1      -4.506  -1.827  -1.780 -0.66 -0.00    +0.004 C 
DOCKED: ATOM     45  C   UNL d   1      -4.481  -2.104  -3.088 -0.73 -0.00    +0.012 C 
DOCKED: ENDBRANCH  17  44
DOCKED: TORSDOF 10
DOCKED: TER
DOCKED: ENDMDL
________________________________________________________________________________


	BEGINNING GENETIC ALGORITHM DOCKING 37 of 100
Run: 37 Seed: 949265575 1982120128 [ Run 37 of 100 GA/GALS ]
Beginning LAMARCKIAN GENETIC ALGORITHM (LGA), with a maximum of 25000000 energy evaluations.

Final-Value: -10.092


	FINAL GENETIC ALGORITHM DOCKED STATE
	_______________________________________________


Detailed state:  trans -18.245 11.886 1.220 quatxyzw 0.902600 -0.347142 0.244228 -0.071823 center -0.174 -0.001 -0.047 ntor 10 -92.8981 -173.8287 -161.9467 -161.7838 -99.6155 24.9451 -77.1746 -88.4560 -164.3436 174.7251
State:	-18.245  11.886   1.220   0.905 -0.348  0.245 -171.763    -92.90 -173.83 -161.95 -161.78  -99.62   24.95  -77.17  -88.46 -164.34  174.73

DOCKED: MODEL       37
DOCKED: USER    Run = 37
DOCKED: USER    DPF = D:/Protein_go_brrr/autodock/final/mut_D99N/heme_Fe/dock.dpf
DOCKED: USER  
DOCKED: USER    Estimated Free Energy of Binding    =   -6.42 kcal/mol  [=(1)+(2)+(3)-(4)]
DOCKED: USER    Estimated Inhibition Constant, Ki   =   19.75 uM (micromolar)  [Temperature = 298.15 K]
DOCKED: USER    
DOCKED: USER    (1) Final Intermolecular Energy     =   -9.40 kcal/mol
DOCKED: USER        vdW + Hbond + desolv Energy     =   -8.15 kcal/mol
DOCKED: USER        Electrostatic Energy            =   -1.25 kcal/mol
DOCKED: USER    (2) Final Total Internal Energy     =   -0.69 kcal/mol
DOCKED: USER    (3) Torsional Free Energy           =   +2.98 kcal/mol
DOCKED: USER    (4) Unbound System's Energy  [=(2)] =   -0.69 kcal/mol
DOCKED: USER    
DOCKED: USER    
DOCKED: USER    NEWDPF move heme_Fe_opt.pdbqt
DOCKED: USER    NEWDPF about -0.174000 -0.001000 -0.047000
DOCKED: USER    NEWDPF tran0 -18.245146 11.886195 1.220073
DOCKED: USER    NEWDPF quaternion0 0.902600 -0.347142 0.244228 -0.071823
DOCKED: USER    NEWDPF axisangle0 0.904937 -0.348041 0.244861 -171.762638
DOCKED: USER    NEWDPF quat0 0.904937 -0.348041 0.244861 -171.762638
DOCKED: USER    NEWDPF dihe0 -92.90 -173.83 -161.95 -161.78 -99.62 24.95 -77.17 -88.46 -164.34 174.73 
DOCKED: USER  keepresnum = 1 
DOCKED: USER  
DOCKED: REMARK  10 active torsions:
DOCKED: REMARK  status: ('A' for Active; 'I' for Inactive)
DOCKED: REMARK    1  A    between atoms: C_6  and  C_10 
DOCKED: REMARK    2  A    between atoms: C_10  and  C_11 
DOCKED: REMARK    3  A    between atoms: C_11  and  C_12 
DOCKED: REMARK    4  A    between atoms: C_12  and  O_14 
DOCKED: REMARK    5  A    between atoms: C_17  and  C_20 
DOCKED: REMARK    6  A    between atoms: C_24  and  C_27 
DOCKED: REMARK    7  A    between atoms: C_31  and  C_34 
DOCKED: REMARK    8  A    between atoms: C_34  and  C_35 
DOCKED: REMARK    9  A    between atoms: C_35  and  C_36 
DOCKED: REMARK   10  A    between atoms: C_36  and  O_38 
DOCKED: USER                              x       y       z     vdW  Elec       q    Type
DOCKED: USER                           _______ _______ _______ _____ _____    ______ ____
DOCKED: ROOT
DOCKED: ATOM      1  C   UNL d   1     -19.265  12.943  -0.213 -0.14 +0.00    +0.064 C 
DOCKED: ATOM      2  C   UNL d   1     -14.805  13.330   1.881 -0.19 -0.01    +0.064 A 
DOCKED: ATOM      3  C   UNL d   1     -15.300   8.872   3.597 -0.12 -0.00    +0.064 C 
DOCKED: ATOM      4  C   UNL d   1     -19.663   8.515   1.667 -0.21 +0.01    +0.064 C 
DOCKED: ATOM      5  C   UNL d   1     -17.999  13.496   0.288 -0.08 -0.00    +0.066 A 
DOCKED: ATOM      6  C   UNL d   1     -17.572  14.799   0.087 -0.10 +0.00    -0.021 A 
DOCKED: ATOM      7  C   UNL d   1     -16.331  14.904   0.666 -0.10 +0.00    -0.025 A 
DOCKED: ATOM      8  C   UNL d   1     -16.049  13.661   1.198 -0.13 -0.01    +0.066 A 
DOCKED: ATOM      9  C   UNL d   1     -15.482  16.138   0.716 -0.08 -0.00    +0.051 C 
DOCKED: ATOM     10  C   UNL d   1     -14.531  12.156   2.453 -0.23 -0.01    +0.066 A 
DOCKED: ATOM     11  C   UNL d   1     -13.287  11.832   3.000 -0.31 +0.00    -0.021 A 
DOCKED: ATOM     12  C   UNL d   1     -13.399  10.545   3.486 -0.36 -0.00    +0.000 A 
DOCKED: ATOM     13  C   UNL d   1     -14.716  10.144   3.201 -0.26 -0.01    +0.070 A 
DOCKED: ATOM     14  C   UNL d   1     -12.033  12.681   2.997 -0.34 -0.01    +0.052 C 
DOCKED: ATOM     15  C   UNL d   1     -16.550   8.460   3.280 -0.15 -0.00    +0.066 A 
DOCKED: ATOM     16  C   UNL d   1     -17.106   7.281   3.761 -0.14 -0.00    -0.021 A 
DOCKED: ATOM     17  C   UNL d   1     -18.363   7.175   3.203 -0.16 +0.00    +0.000 A 
DOCKED: ATOM     18  C   UNL d   1     -18.543   8.291   2.390 -0.19 +0.00    +0.070 A 
DOCKED: ATOM     19  C   UNL d   1     -16.472   6.279   4.688 -0.10 +0.00    +0.052 C 
DOCKED: ATOM     20  C   UNL d   1     -19.913   9.708   0.850 -0.19 +0.01    +0.066 A 
DOCKED: ATOM     21  C   UNL d   1     -20.972   9.862  -0.056 -0.19 -0.01    -0.025 A 
DOCKED: ATOM     22  C   UNL d   1     -20.847  11.136  -0.571 -0.15 -0.00    -0.021 A 
DOCKED: ATOM     23  C   UNL d   1     -19.718  11.704   0.033 -0.17 +0.00    +0.066 A 
DOCKED: ATOM     24  C   UNL d   1     -22.048   8.868  -0.427 -0.11 +0.05    +0.051 C 
DOCKED: ATOM     25  N   UNL d   1     -17.070  12.809   0.974 -0.14 +0.03    -0.248 N 
DOCKED: ATOM     26  N   UNL d   1     -15.404  11.122   2.564 -0.17 +0.05    -0.248 N 
DOCKED: ATOM     27  N   UNL d   1     -17.447   9.104   2.471 -0.10 +0.04    -0.248 N 
DOCKED: ATOM     28  N   UNL d   1     -19.127  10.812   0.865 -0.12 +0.02    -0.248 N 
DOCKED: ATOM     29 FE   UNL d   1     -17.267  10.966   1.714 -0.05 -0.00    +0.000 Fe
DOCKED: ENDROOT
DOCKED: BRANCH   6  30
DOCKED: ATOM     30  C   UNL d   1     -18.311  15.895  -0.600 -0.08 -0.00    +0.052 C 
DOCKED: BRANCH  30  31
DOCKED: ATOM     31  C   UNL d   1     -18.293  15.694  -2.112 -0.10 -0.01    +0.115 C 
DOCKED: BRANCH  31  32
DOCKED: ATOM     32  C   UNL d   1     -19.614  15.157  -2.587 -0.09 -0.00    +0.139 C 
DOCKED: ATOM     33  O   UNL d   1     -19.755  13.965  -2.818 -0.32 -0.05    -0.650 OA
DOCKED: BRANCH  32  34
DOCKED: ATOM     34  O   UNL d   1     -20.656  15.987  -2.763 +0.02 +0.00    -0.776 OA
DOCKED: ATOM     35  H   UNL d   1     -20.759  16.438  -3.613 +0.01 -0.00    +0.167 HD
DOCKED: ENDBRANCH  32  34
DOCKED: ENDBRANCH  31  32
DOCKED: ENDBRANCH  30  31
DOCKED: ENDBRANCH   6  30
DOCKED: BRANCH  22  36
DOCKED: ATOM     36  C   UNL d   1     -21.734  11.752  -1.620 -0.10 +0.01    +0.052 C 
DOCKED: BRANCH  36  37
DOCKED: ATOM     37  C   UNL d   1     -21.197  11.422  -3.005 -0.17 +0.03    +0.115 C 
DOCKED: BRANCH  37  38
DOCKED: ATOM     38  C   UNL d   1     -21.799  10.148  -3.527 -0.10 +0.11    +0.139 C 
DOCKED: ATOM     39  O   UNL d   1     -22.887   9.760  -3.126 -0.27 -0.87    -0.650 OA
DOCKED: BRANCH  38  40
DOCKED: ATOM     40  O   UNL d   1     -21.138   9.420  -4.445 -0.51 -0.61    -0.776 OA
DOCKED: ATOM     41  H   UNL d   1     -20.241   9.681  -4.695 -0.43 -0.01    +0.167 HD
DOCKED: ENDBRANCH  38  40
DOCKED: ENDBRANCH  37  38
DOCKED: ENDBRANCH  36  37
DOCKED: ENDBRANCH  22  36
DOCKED: BRANCH  12  42
DOCKED: ATOM     42  C   UNL d   1     -12.297   9.782   4.151 -0.46 -0.00    +0.004 C 
DOCKED: ATOM     43  C   UNL d   1     -11.776   8.687   3.583 -0.51 -0.00    +0.012 C 
DOCKED: ENDBRANCH  12  42
DOCKED: BRANCH  17  44
DOCKED: ATOM     44  C   UNL d   1     -19.336   6.086   3.448 -0.10 +0.00    +0.004 C 
DOCKED: ATOM     45  C   UNL d   1     -19.597   5.176   2.504 -0.15 +0.00    +0.012 C 
DOCKED: ENDBRANCH  17  44
DOCKED: TORSDOF 10
DOCKED: TER
DOCKED: ENDMDL
________________________________________________________________________________


	BEGINNING GENETIC ALGORITHM DOCKING 38 of 100
Run: 38 Seed: 405108187 1490390256 [ Run 38 of 100 GA/GALS ]
Beginning LAMARCKIAN GENETIC ALGORITHM (LGA), with a maximum of 25000000 energy evaluations.

Final-Value: -11.722


	FINAL GENETIC ALGORITHM DOCKED STATE
	_______________________________________________


Detailed state:  trans 5.573 0.119 -18.290 quatxyzw -0.509795 0.129021 0.076670 0.847104 center -0.174 -0.001 -0.047 ntor 10 174.3601 -145.4234 -135.8451 -157.0620 54.9972 -172.7931 -42.7018 12.5599 -142.0886 -169.7243
State:	  5.573   0.119 -18.290  -0.959  0.243  0.144 64.204    174.36 -145.42 -135.85 -157.06   55.00 -172.79  -42.70   12.56 -142.09 -169.72

DOCKED: MODEL       38
DOCKED: USER    Run = 38
DOCKED: USER    DPF = D:/Protein_go_brrr/autodock/final/mut_D99N/heme_Fe/dock.dpf
DOCKED: USER  
DOCKED: USER    Estimated Free Energy of Binding    =   -7.37 kcal/mol  [=(1)+(2)+(3)-(4)]
DOCKED: USER    Estimated Inhibition Constant, Ki   =    3.96 uM (micromolar)  [Temperature = 298.15 K]
DOCKED: USER    
DOCKED: USER    (1) Final Intermolecular Energy     =  -10.35 kcal/mol
DOCKED: USER        vdW + Hbond + desolv Energy     =   -7.17 kcal/mol
DOCKED: USER        Electrostatic Energy            =   -3.18 kcal/mol
DOCKED: USER    (2) Final Total Internal Energy     =   -1.37 kcal/mol
DOCKED: USER    (3) Torsional Free Energy           =   +2.98 kcal/mol
DOCKED: USER    (4) Unbound System's Energy  [=(2)] =   -1.37 kcal/mol
DOCKED: USER    
DOCKED: USER    
DOCKED: USER    NEWDPF move heme_Fe_opt.pdbqt
DOCKED: USER    NEWDPF about -0.174000 -0.001000 -0.047000
DOCKED: USER    NEWDPF tran0 5.572879 0.118941 -18.290345
DOCKED: USER    NEWDPF quaternion0 -0.509795 0.129021 0.076670 0.847104
DOCKED: USER    NEWDPF axisangle0 -0.959293 0.242782 0.144272 64.203953
DOCKED: USER    NEWDPF quat0 -0.959293 0.242782 0.144272 64.203953
DOCKED: USER    NEWDPF dihe0 174.36 -145.42 -135.85 -157.06 55.00 -172.79 -42.70 12.56 -142.09 -169.72 
DOCKED: USER  keepresnum = 1 
DOCKED: USER  
DOCKED: REMARK  10 active torsions:
DOCKED: REMARK  status: ('A' for Active; 'I' for Inactive)
DOCKED: REMARK    1  A    between atoms: C_6  and  C_10 
DOCKED: REMARK    2  A    between atoms: C_10  and  C_11 
DOCKED: REMARK    3  A    between atoms: C_11  and  C_12 
DOCKED: REMARK    4  A    between atoms: C_12  and  O_14 
DOCKED: REMARK    5  A    between atoms: C_17  and  C_20 
DOCKED: REMARK    6  A    between atoms: C_24  and  C_27 
DOCKED: REMARK    7  A    between atoms: C_31  and  C_34 
DOCKED: REMARK    8  A    between atoms: C_34  and  C_35 
DOCKED: REMARK    9  A    between atoms: C_35  and  C_36 
DOCKED: REMARK   10  A    between atoms: C_36  and  O_38 
DOCKED: USER                              x       y       z     vdW  Elec       q    Type
DOCKED: USER                           _______ _______ _______ _____ _____    ______ ____
DOCKED: ROOT
DOCKED: ATOM      1  C   UNL d   1       3.523   0.160 -18.383 -0.18 +0.02    +0.064 C 
DOCKED: ATOM      2  C   UNL d   1       7.074  -2.188 -20.894 -0.10 +0.01    +0.064 A 
DOCKED: ATOM      3  C   UNL d   1      10.193  -1.032 -17.430 -0.08 +0.04    +0.064 C 
DOCKED: ATOM      4  C   UNL d   1       6.796   1.336 -15.035 -0.18 +0.01    +0.064 C 
DOCKED: ATOM      5  C   UNL d   1       4.252  -0.536 -19.452 -0.15 +0.02    +0.066 A 
DOCKED: ATOM      6  C   UNL d   1       3.700  -0.926 -20.661 -0.14 -0.01    -0.021 A 
DOCKED: ATOM      7  C   UNL d   1       4.686  -1.582 -21.356 -0.13 -0.00    -0.025 A 
DOCKED: ATOM      8  C   UNL d   1       5.803  -1.567 -20.544 -0.07 +0.01    +0.066 A 
DOCKED: ATOM      9  C   UNL d   1       4.558  -2.167 -22.729 -0.12 +0.01    +0.051 C 
DOCKED: ATOM     10  C   UNL d   1       8.183  -2.139 -20.154 -0.16 +0.01    +0.066 A 
DOCKED: ATOM     11  C   UNL d   1       9.351  -2.841 -20.462 -0.16 -0.00    -0.021 A 
DOCKED: ATOM     12  C   UNL d   1      10.261  -2.537 -19.468 -0.14 +0.00    +0.000 A 
DOCKED: ATOM     13  C   UNL d   1       9.591  -1.664 -18.594 -0.14 +0.03    +0.070 A 
DOCKED: ATOM     14  C   UNL d   1       9.568  -3.807 -21.608 -0.12 +0.00    +0.052 C 
DOCKED: ATOM     15  C   UNL d   1       9.538  -0.233 -16.556 -0.01 +0.03    +0.066 A 
DOCKED: ATOM     16  C   UNL d   1      10.172   0.432 -15.514 -0.08 -0.01    -0.021 A 
DOCKED: ATOM     17  C   UNL d   1       9.193   1.113 -14.820 -0.15 +0.00    +0.000 A 
DOCKED: ATOM     18  C   UNL d   1       7.983   0.844 -15.453 -0.14 +0.02    +0.070 A 
DOCKED: ATOM     19  C   UNL d   1      11.636   0.409 -15.166 -0.12 +0.02    +0.052 C 
DOCKED: ATOM     20  C   UNL d   1       5.511   1.125 -15.712 -0.12 +0.02    +0.066 A 
DOCKED: ATOM     21  C   UNL d   1       4.254   1.456 -15.186 -0.18 -0.01    -0.025 A 
DOCKED: ATOM     22  C   UNL d   1       3.337   1.125 -16.162 -0.18 -0.01    -0.021 A 
DOCKED: ATOM     23  C   UNL d   1       4.066   0.600 -17.237 -0.14 +0.02    +0.066 A 
DOCKED: ATOM     24  C   UNL d   1       3.923   2.050 -13.837 -0.28 +0.01    +0.051 C 
DOCKED: ATOM     25  N   UNL d   1       5.539  -0.922 -19.390 -0.11 -0.06    -0.248 N 
DOCKED: ATOM     26  N   UNL d   1       8.322  -1.428 -19.006 -0.11 -0.07    -0.248 N 
DOCKED: ATOM     27  N   UNL d   1       8.199   0.053 -16.547 -0.10 -0.09    -0.248 N 
DOCKED: ATOM     28  N   UNL d   1       5.387   0.561 -16.938 -0.05 -0.06    -0.248 N 
DOCKED: ATOM     29 FE   UNL d   1       6.855  -0.433 -17.971 -0.03 +0.00    +0.000 Fe
DOCKED: ENDROOT
DOCKED: BRANCH   6  30
DOCKED: ATOM     30  C   UNL d   1       2.313  -0.671 -21.143 -0.13 +0.02    +0.052 C 
DOCKED: BRANCH  30  31
DOCKED: ATOM     31  C   UNL d   1       1.289  -1.139 -20.115 -0.18 +0.07    +0.115 C 
DOCKED: BRANCH  31  32
DOCKED: ATOM     32  C   UNL d   1       0.185  -0.128 -19.974 -0.07 +0.16    +0.139 C 
DOCKED: ATOM     33  O   UNL d   1      -0.448   0.244 -20.952 -0.05 -0.50    -0.650 OA
DOCKED: BRANCH  32  34
DOCKED: ATOM     34  O   UNL d   1      -0.116   0.378 -18.766 -0.43 -1.54    -0.776 OA
DOCKED: ATOM     35  H   UNL d   1       0.329   0.023 -17.984 -0.44 +0.33    +0.167 HD
DOCKED: ENDBRANCH  32  34
DOCKED: ENDBRANCH  31  32
DOCKED: ENDBRANCH  30  31
DOCKED: ENDBRANCH   6  30
DOCKED: BRANCH  22  36
DOCKED: ATOM     36  C   UNL d   1       1.842   1.259 -16.046 -0.26 +0.03    +0.052 C 
DOCKED: BRANCH  36  37
DOCKED: ATOM     37  C   UNL d   1       1.302   0.191 -15.106 -0.34 +0.08    +0.115 C 
DOCKED: BRANCH  37  38
DOCKED: ATOM     38  C   UNL d   1      -0.197   0.112 -15.186 -0.21 +0.19    +0.139 C 
DOCKED: ATOM     39  O   UNL d   1      -0.827  -0.595 -14.413 -0.49 -0.85    -0.650 OA
DOCKED: BRANCH  38  40
DOCKED: ATOM     40  O   UNL d   1      -0.858   0.820 -16.118 -0.10 -1.42    -0.776 OA
DOCKED: ATOM     41  H   UNL d   1      -0.447   0.957 -16.984 +0.03 +0.30    +0.167 HD
DOCKED: ENDBRANCH  38  40
DOCKED: ENDBRANCH  37  38
DOCKED: ENDBRANCH  36  37
DOCKED: ENDBRANCH  22  36
DOCKED: BRANCH  12  42
DOCKED: ATOM     42  C   UNL d   1      11.653  -3.079 -19.388 -0.11 +0.00    +0.004 C 
DOCKED: ATOM     43  C   UNL d   1      11.907  -4.237 -18.765 -0.18 +0.00    +0.012 C 
DOCKED: ENDBRANCH  12  42
DOCKED: BRANCH  17  44
DOCKED: ATOM     44  C   UNL d   1       9.406   1.981 -13.639 -0.19 +0.00    +0.004 C 
DOCKED: ATOM     45  C   UNL d   1       9.109   1.549 -12.409 -0.35 +0.00    +0.012 C 
DOCKED: ENDBRANCH  17  44
DOCKED: TORSDOF 10
DOCKED: TER
DOCKED: ENDMDL
________________________________________________________________________________


	BEGINNING GENETIC ALGORITHM DOCKING 39 of 100
Run: 39 Seed: 1783597213 1782013323 [ Run 39 of 100 GA/GALS ]
Beginning LAMARCKIAN GENETIC ALGORITHM (LGA), with a maximum of 25000000 energy evaluations.

Final-Value: -11.488


	FINAL GENETIC ALGORITHM DOCKED STATE
	_______________________________________________


Detailed state:  trans 5.377 -1.683 -18.965 quatxyzw -0.803773 0.096822 0.117519 -0.575121 center -0.174 -0.001 -0.047 ntor 10 -177.8512 -100.6883 53.5556 31.5534 77.9681 179.9219 -6.0018 55.0218 -157.7567 -180.0000
State:	  5.377  -1.683 -18.965  -0.983  0.118  0.144 -109.784   -177.85 -100.69   53.56   31.55   77.97  179.92   -6.00   55.02 -157.76 -180.00

DOCKED: MODEL       39
DOCKED: USER    Run = 39
DOCKED: USER    DPF = D:/Protein_go_brrr/autodock/final/mut_D99N/heme_Fe/dock.dpf
DOCKED: USER  
DOCKED: USER    Estimated Free Energy of Binding    =   -7.02 kcal/mol  [=(1)+(2)+(3)-(4)]
DOCKED: USER    Estimated Inhibition Constant, Ki   =    7.17 uM (micromolar)  [Temperature = 298.15 K]
DOCKED: USER    
DOCKED: USER    (1) Final Intermolecular Energy     =  -10.00 kcal/mol
DOCKED: USER        vdW + Hbond + desolv Energy     =   -7.21 kcal/mol
DOCKED: USER        Electrostatic Energy            =   -2.79 kcal/mol
DOCKED: USER    (2) Final Total Internal Energy     =   -1.49 kcal/mol
DOCKED: USER    (3) Torsional Free Energy           =   +2.98 kcal/mol
DOCKED: USER    (4) Unbound System's Energy  [=(2)] =   -1.49 kcal/mol
DOCKED: USER    
DOCKED: USER    
DOCKED: USER    NEWDPF move heme_Fe_opt.pdbqt
DOCKED: USER    NEWDPF about -0.174000 -0.001000 -0.047000
DOCKED: USER    NEWDPF tran0 5.377052 -1.683462 -18.965173
DOCKED: USER    NEWDPF quaternion0 -0.803773 0.096822 0.117519 -0.575121
DOCKED: USER    NEWDPF axisangle0 -0.982525 0.118355 0.143654 -109.783777
DOCKED: USER    NEWDPF quat0 -0.982525 0.118355 0.143654 -109.783777
DOCKED: USER    NEWDPF dihe0 -177.85 -100.69 53.56 31.55 77.97 179.92 -6.00 55.02 -157.76 -180.00 
DOCKED: USER  keepresnum = 1 
DOCKED: USER  
DOCKED: REMARK  10 active torsions:
DOCKED: REMARK  status: ('A' for Active; 'I' for Inactive)
DOCKED: REMARK    1  A    between atoms: C_6  and  C_10 
DOCKED: REMARK    2  A    between atoms: C_10  and  C_11 
DOCKED: REMARK    3  A    between atoms: C_11  and  C_12 
DOCKED: REMARK    4  A    between atoms: C_12  and  O_14 
DOCKED: REMARK    5  A    between atoms: C_17  and  C_20 
DOCKED: REMARK    6  A    between atoms: C_24  and  C_27 
DOCKED: REMARK    7  A    between atoms: C_31  and  C_34 
DOCKED: REMARK    8  A    between atoms: C_34  and  C_35 
DOCKED: REMARK    9  A    between atoms: C_35  and  C_36 
DOCKED: REMARK   10  A    between atoms: C_36  and  O_38 
DOCKED: USER                              x       y       z     vdW  Elec       q    Type
DOCKED: USER                           _______ _______ _______ _____ _____    ______ ____
DOCKED: ROOT
DOCKED: ATOM      1  C   UNL d   1       3.464  -1.120 -18.482 -0.14 +0.02    +0.064 C 
DOCKED: ATOM      2  C   UNL d   1       7.928  -0.316 -16.520 -0.17 +0.02    +0.064 A 
DOCKED: ATOM      3  C   UNL d   1       9.926  -1.865 -20.604 -0.07 +0.01    +0.064 C 
DOCKED: ATOM      4  C   UNL d   1       5.617  -2.750 -22.484 -0.13 +0.01    +0.064 C 
DOCKED: ATOM      5  C   UNL d   1       4.536  -0.829 -17.521 -0.26 +0.02    +0.066 A 
DOCKED: ATOM      6  C   UNL d   1       4.336  -0.462 -16.200 -0.33 -0.01    -0.021 A 
DOCKED: ATOM      7  C   UNL d   1       5.576  -0.235 -15.657 -0.30 -0.01    -0.025 A 
DOCKED: ATOM      8  C   UNL d   1       6.487  -0.473 -16.668 -0.23 +0.02    +0.066 A 
DOCKED: ATOM      9  C   UNL d   1       5.861   0.167 -14.242 -0.27 +0.01    +0.051 C 
DOCKED: ATOM     10  C   UNL d   1       8.832  -0.593 -17.462 -0.14 +0.03    +0.066 A 
DOCKED: ATOM     11  C   UNL d   1      10.196  -0.324 -17.330 -0.09 -0.01    -0.021 A 
DOCKED: ATOM     12  C   UNL d   1      10.793  -0.746 -18.501 -0.07 +0.00    +0.000 A 
DOCKED: ATOM     13  C   UNL d   1       9.750  -1.248 -19.299 -0.07 +0.02    +0.070 A 
DOCKED: ATOM     14  C   UNL d   1      10.889   0.365 -16.172 -0.10 +0.02    +0.052 C 
DOCKED: ATOM     15  C   UNL d   1       8.920  -2.302 -21.398 -0.11 +0.01    +0.066 A 
DOCKED: ATOM     16  C   UNL d   1       9.135  -2.976 -22.593 -0.10 -0.00    -0.021 A 
DOCKED: ATOM     17  C   UNL d   1       7.894  -3.229 -23.139 -0.13 +0.00    +0.000 A 
DOCKED: ATOM     18  C   UNL d   1       6.949  -2.699 -22.263 -0.13 +0.00    +0.070 A 
DOCKED: ATOM     19  C   UNL d   1      10.456  -3.346 -23.214 -0.04 +0.00    +0.052 C 
DOCKED: ATOM     20  C   UNL d   1       4.591  -2.258 -21.556 -0.13 +0.01    +0.066 A 
DOCKED: ATOM     21  C   UNL d   1       3.228  -2.121 -21.855 -0.15 -0.01    -0.025 A 
DOCKED: ATOM     22  C   UNL d   1       2.631  -1.668 -20.697 -0.23 -0.01    -0.021 A 
DOCKED: ATOM     23  C   UNL d   1       3.649  -1.540 -19.744 -0.20 +0.02    +0.066 A 
DOCKED: ATOM     24  C   UNL d   1       2.515  -2.397 -23.159 -0.09 +0.01    +0.051 C 
DOCKED: ATOM     25  N   UNL d   1       5.852  -0.843 -17.798 -0.15 -0.08    -0.248 N 
DOCKED: ATOM     26  N   UNL d   1       8.553  -1.147 -18.669 -0.09 -0.08    -0.248 N 
DOCKED: ATOM     27  N   UNL d   1       7.577  -2.168 -21.172 -0.12 -0.03    -0.248 N 
DOCKED: ATOM     28  N   UNL d   1       4.849  -1.859 -20.287 +0.00 -0.07    -0.248 N 
DOCKED: ATOM     29 FE   UNL d   1       6.700  -1.503 -19.480 -0.04 +0.00    +0.000 Fe
DOCKED: ENDROOT
DOCKED: BRANCH   6  30
DOCKED: ATOM     30  C   UNL d   1       3.035  -0.353 -15.482 -0.37 +0.02    +0.052 C 
DOCKED: BRANCH  30  31
DOCKED: ATOM     31  C   UNL d   1       2.215   0.814 -16.023 -0.25 +0.05    +0.115 C 
DOCKED: BRANCH  31  32
DOCKED: ATOM     32  C   UNL d   1       0.848   0.831 -15.397 -0.35 +0.11    +0.139 C 
DOCKED: ATOM     33  O   UNL d   1       0.687   1.258 -14.263 -0.48 -0.53    -0.650 OA
DOCKED: BRANCH  32  34
DOCKED: ATOM     34  O   UNL d   1      -0.213   0.375 -16.084 -0.01 -1.39    -0.776 OA
DOCKED: ATOM     35  H   UNL d   1      -0.078   0.009 -16.969 -0.21 +0.41    +0.167 HD
DOCKED: ENDBRANCH  32  34
DOCKED: ENDBRANCH  31  32
DOCKED: ENDBRANCH  30  31
DOCKED: ENDBRANCH   6  30
DOCKED: BRANCH  22  36
DOCKED: ATOM     36  C   UNL d   1       1.173  -1.330 -20.532 -0.22 +0.03    +0.052 C 
DOCKED: BRANCH  36  37
DOCKED: ATOM     37  C   UNL d   1       0.913   0.082 -21.035 -0.11 +0.06    +0.115 C 
DOCKED: BRANCH  37  38
DOCKED: ATOM     38  C   UNL d   1       0.239   0.914 -19.981 -0.11 +0.11    +0.139 C 
DOCKED: ATOM     39  O   UNL d   1      -0.050   2.082 -20.196 +0.02 -0.37    -0.650 OA
DOCKED: BRANCH  38  40
DOCKED: ATOM     40  O   UNL d   1      -0.049   0.375 -18.783 -0.45 -1.48    -0.776 OA
DOCKED: ATOM     41  H   UNL d   1       0.656   0.285 -18.126 -0.33 +0.22    +0.167 HD
DOCKED: ENDBRANCH  38  40
DOCKED: ENDBRANCH  37  38
DOCKED: ENDBRANCH  36  37
DOCKED: ENDBRANCH  22  36
DOCKED: BRANCH  12  42
DOCKED: ATOM     42  C   UNL d   1      12.254  -0.641 -18.804 -0.03 +0.00    +0.004 C 
DOCKED: ATOM     43  C   UNL d   1      13.058  -1.707 -18.696 -0.04 +0.00    +0.012 C 
DOCKED: ENDBRANCH  12  42
DOCKED: BRANCH  17  44
DOCKED: ATOM     44  C   UNL d   1       7.629  -3.949 -24.405 -0.10 +0.00    +0.004 C 
DOCKED: ATOM     45  C   UNL d   1       7.548  -5.284 -24.430 -0.10 +0.00    +0.012 C 
DOCKED: ENDBRANCH  17  44
DOCKED: TORSDOF 10
DOCKED: TER
DOCKED: ENDMDL
________________________________________________________________________________


	BEGINNING GENETIC ALGORITHM DOCKING 40 of 100
Run: 40 Seed: 1915405044 1454367751 [ Run 40 of 100 GA/GALS ]
Beginning LAMARCKIAN GENETIC ALGORITHM (LGA), with a maximum of 25000000 energy evaluations.

Final-Value: -11.024


	FINAL GENETIC ALGORITHM DOCKED STATE
	_______________________________________________


Detailed state:  trans -14.165 -5.283 0.822 quatxyzw -0.458901 0.213513 -0.101086 -0.856507 center -0.174 -0.001 -0.047 ntor 10 30.4212 -122.3689 47.9429 66.1647 -93.6039 73.2486 -111.0244 159.0126 159.7432 169.9786
State:	-14.165  -5.283   0.822  -0.889  0.414 -0.196 -62.147     30.42 -122.37   47.94   66.16  -93.60   73.25 -111.02  159.01  159.74  169.98

DOCKED: MODEL       40
DOCKED: USER    Run = 40
DOCKED: USER    DPF = D:/Protein_go_brrr/autodock/final/mut_D99N/heme_Fe/dock.dpf
DOCKED: USER  
DOCKED: USER    Estimated Free Energy of Binding    =   -6.37 kcal/mol  [=(1)+(2)+(3)-(4)]
DOCKED: USER    Estimated Inhibition Constant, Ki   =   21.30 uM (micromolar)  [Temperature = 298.15 K]
DOCKED: USER    
DOCKED: USER    (1) Final Intermolecular Energy     =   -9.36 kcal/mol
DOCKED: USER        vdW + Hbond + desolv Energy     =   -6.28 kcal/mol
DOCKED: USER        Electrostatic Energy            =   -3.08 kcal/mol
DOCKED: USER    (2) Final Total Internal Energy     =   -1.67 kcal/mol
DOCKED: USER    (3) Torsional Free Energy           =   +2.98 kcal/mol
DOCKED: USER    (4) Unbound System's Energy  [=(2)] =   -1.67 kcal/mol
DOCKED: USER    
DOCKED: USER    
DOCKED: USER    NEWDPF move heme_Fe_opt.pdbqt
DOCKED: USER    NEWDPF about -0.174000 -0.001000 -0.047000
DOCKED: USER    NEWDPF tran0 -14.164755 -5.282964 0.821672
DOCKED: USER    NEWDPF quaternion0 -0.458901 0.213513 -0.101086 -0.856507
DOCKED: USER    NEWDPF axisangle0 -0.889109 0.413676 -0.195852 -62.146797
DOCKED: USER    NEWDPF quat0 -0.889109 0.413676 -0.195852 -62.146797
DOCKED: USER    NEWDPF dihe0 30.42 -122.37 47.94 66.16 -93.60 73.25 -111.02 159.01 159.74 169.98 
DOCKED: USER  keepresnum = 1 
DOCKED: USER  
DOCKED: REMARK  10 active torsions:
DOCKED: REMARK  status: ('A' for Active; 'I' for Inactive)
DOCKED: REMARK    1  A    between atoms: C_6  and  C_10 
DOCKED: REMARK    2  A    between atoms: C_10  and  C_11 
DOCKED: REMARK    3  A    between atoms: C_11  and  C_12 
DOCKED: REMARK    4  A    between atoms: C_12  and  O_14 
DOCKED: REMARK    5  A    between atoms: C_17  and  C_20 
DOCKED: REMARK    6  A    between atoms: C_24  and  C_27 
DOCKED: REMARK    7  A    between atoms: C_31  and  C_34 
DOCKED: REMARK    8  A    between atoms: C_34  and  C_35 
DOCKED: REMARK    9  A    between atoms: C_35  and  C_36 
DOCKED: REMARK   10  A    between atoms: C_36  and  O_38 
DOCKED: USER                              x       y       z     vdW  Elec       q    Type
DOCKED: USER                           _______ _______ _______ _____ _____    ______ ____
DOCKED: ROOT
DOCKED: ATOM      1  C   UNL d   1     -15.679  -4.189   1.671 -0.07 +0.04    +0.064 C 
DOCKED: ATOM      2  C   UNL d   1     -12.448  -7.538   3.337 -0.09 +0.02    +0.064 A 
DOCKED: ATOM      3  C   UNL d   1      -9.882  -6.960  -0.682 -0.26 -0.02    +0.064 C 
DOCKED: ATOM      4  C   UNL d   1     -13.052  -3.794  -2.359 -0.25 +0.01    +0.064 C 
DOCKED: ATOM      5  C   UNL d   1     -15.052  -5.247   2.475 -0.07 +0.05    +0.066 A 
DOCKED: ATOM      6  C   UNL d   1     -15.574  -5.761   3.651 -0.06 -0.01    -0.021 A 
DOCKED: ATOM      7  C   UNL d   1     -14.674  -6.688   4.115 -0.06 -0.01    -0.025 A 
DOCKED: ATOM      8  C   UNL d   1     -13.637  -6.705   3.203 -0.08 +0.03    +0.066 A 
DOCKED: ATOM      9  C   UNL d   1     -14.822  -7.519   5.353 -0.02 +0.01    +0.051 C 
DOCKED: ATOM     10  C   UNL d   1     -11.460  -7.616   2.443 -0.11 +0.01    +0.066 A 
DOCKED: ATOM     11  C   UNL d   1     -10.281  -8.335   2.652 -0.14 -0.00    -0.021 A 
DOCKED: ATOM     12  C   UNL d   1      -9.517  -8.170   1.515 -0.24 -0.00    +0.000 A 
DOCKED: ATOM     13  C   UNL d   1     -10.273  -7.344   0.665 -0.19 -0.01    +0.070 A 
DOCKED: ATOM     14  C   UNL d   1      -9.873  -9.086   3.903 -0.12 +0.00    +0.052 C 
DOCKED: ATOM     15  C   UNL d   1     -10.582  -6.123  -1.483 -0.18 -0.01    +0.066 A 
DOCKED: ATOM     16  C   UNL d   1     -10.226  -5.859  -2.800 -0.27 +0.01    -0.021 A 
DOCKED: ATOM     17  C   UNL d   1     -11.137  -4.943  -3.285 -0.28 -0.00    +0.000 A 
DOCKED: ATOM     18  C   UNL d   1     -12.027  -4.666  -2.249 -0.18 +0.01    +0.070 A 
DOCKED: ATOM     19  C   UNL d   1      -9.061  -6.424  -3.567 -0.37 -0.03    +0.052 C 
DOCKED: ATOM     20  C   UNL d   1     -14.044  -3.524  -1.312 -0.15 +0.02    +0.066 A 
DOCKED: ATOM     21  C   UNL d   1     -14.986  -2.485  -1.337 -0.20 -0.01    -0.025 A 
DOCKED: ATOM     22  C   UNL d   1     -15.732  -2.624  -0.185 -0.12 -0.01    -0.021 A 
DOCKED: ATOM     23  C   UNL d   1     -15.215  -3.732   0.497 -0.09 +0.04    +0.066 A 
DOCKED: ATOM     24  C   UNL d   1     -15.178  -1.411  -2.382 -0.36 +0.01    +0.051 C 
DOCKED: ATOM     25  N   UNL d   1     -13.874  -5.834   2.202 -0.07 -0.17    -0.248 N 
DOCKED: ATOM     26  N   UNL d   1     -11.454  -6.998   1.234 -0.07 -0.04    -0.248 N 
DOCKED: ATOM     27  N   UNL d   1     -11.713  -5.423  -1.155 -0.07 -0.02    -0.248 N 
DOCKED: ATOM     28  N   UNL d   1     -14.157  -4.250  -0.173 -0.06 -0.11    -0.248 N 
DOCKED: ATOM     29 FE   UNL d   1     -12.805  -5.623   0.529 -0.02 +0.00    +0.000 Fe
DOCKED: ENDROOT
DOCKED: BRANCH   6  30
DOCKED: ATOM     30  C   UNL d   1     -16.872  -5.406   4.292 -0.02 +0.02    +0.052 C 
DOCKED: BRANCH  30  31
DOCKED: ATOM     31  C   UNL d   1     -16.642  -4.645   5.593 -0.02 +0.05    +0.115 C 
DOCKED: BRANCH  31  32
DOCKED: ATOM     32  C   UNL d   1     -16.081  -3.279   5.310 -0.05 +0.11    +0.139 C 
DOCKED: ATOM     33  O   UNL d   1     -14.873  -3.088   5.315 -0.22 -1.16    -0.650 OA
DOCKED: BRANCH  32  34
DOCKED: ATOM     34  O   UNL d   1     -16.906  -2.251   5.050 +0.01 -0.42    -0.776 OA
DOCKED: ATOM     35  H   UNL d   1     -16.603  -1.543   4.465 +0.01 +0.11    +0.167 HD
DOCKED: ENDBRANCH  32  34
DOCKED: ENDBRANCH  31  32
DOCKED: ENDBRANCH  30  31
DOCKED: ENDBRANCH   6  30
DOCKED: BRANCH  22  36
DOCKED: ATOM     36  C   UNL d   1     -16.846  -1.712   0.257 -0.11 +0.02    +0.052 C 
DOCKED: BRANCH  36  37
DOCKED: ATOM     37  C   UNL d   1     -16.292  -0.632   1.175 -0.08 +0.05    +0.115 C 
DOCKED: BRANCH  37  38
DOCKED: ATOM     38  C   UNL d   1     -14.990  -1.062   1.788 -0.12 +0.14    +0.139 C 
DOCKED: ATOM     39  O   UNL d   1     -13.967  -1.103   1.120 -0.11 -0.66    -0.650 OA
DOCKED: BRANCH  38  40
DOCKED: ATOM     40  O   UNL d   1     -14.942  -1.412   3.086 +0.11 -1.39    -0.776 OA
DOCKED: ATOM     41  H   UNL d   1     -15.511  -2.127   3.401 +0.01 +0.26    +0.167 HD
DOCKED: ENDBRANCH  38  40
DOCKED: ENDBRANCH  37  38
DOCKED: ENDBRANCH  36  37
DOCKED: ENDBRANCH  22  36
DOCKED: BRANCH  12  42
DOCKED: ATOM     42  C   UNL d   1      -8.159  -8.761   1.303 -0.26 -0.00    +0.004 C 
DOCKED: ATOM     43  C   UNL d   1      -8.006  -9.917   0.644 -0.26 -0.01    +0.012 C 
DOCKED: ENDBRANCH  12  42
DOCKED: BRANCH  17  44
DOCKED: ATOM     44  C   UNL d   1     -11.167  -4.386  -4.656 -0.42 -0.00    +0.004 C 
DOCKED: ATOM     45  C   UNL d   1     -12.235  -4.559  -5.442 -0.51 -0.00    +0.012 C 
DOCKED: ENDBRANCH  17  44
DOCKED: TORSDOF 10
DOCKED: TER
DOCKED: ENDMDL
________________________________________________________________________________


	BEGINNING GENETIC ALGORITHM DOCKING 41 of 100
Run: 41 Seed: 1877239862 986189670 [ Run 41 of 100 GA/GALS ]
Beginning LAMARCKIAN GENETIC ALGORITHM (LGA), with a maximum of 25000000 energy evaluations.

Final-Value: -10.804


	FINAL GENETIC ALGORITHM DOCKED STATE
	_______________________________________________


Detailed state:  trans 0.923 17.468 0.711 quatxyzw 0.869977 -0.060478 0.036192 0.488029 center -0.174 -0.001 -0.047 ntor 10 -27.2754 172.2555 68.9383 -156.1259 8.0227 84.2544 -58.7822 5.3586 -155.8914 20.7937
State:	  0.923  17.468   0.711   0.997 -0.069  0.041 121.578    -27.28  172.26   68.94 -156.13    8.02   84.25  -58.78    5.36 -155.89   20.79

DOCKED: MODEL       41
DOCKED: USER    Run = 41
DOCKED: USER    DPF = D:/Protein_go_brrr/autodock/final/mut_D99N/heme_Fe/dock.dpf
DOCKED: USER  
DOCKED: USER    Estimated Free Energy of Binding    =   -5.60 kcal/mol  [=(1)+(2)+(3)-(4)]
DOCKED: USER    Estimated Inhibition Constant, Ki   =   77.89 uM (micromolar)  [Temperature = 298.15 K]
DOCKED: USER    
DOCKED: USER    (1) Final Intermolecular Energy     =   -8.59 kcal/mol
DOCKED: USER        vdW + Hbond + desolv Energy     =   -6.96 kcal/mol
DOCKED: USER        Electrostatic Energy            =   -1.63 kcal/mol
DOCKED: USER    (2) Final Total Internal Energy     =   -2.22 kcal/mol
DOCKED: USER    (3) Torsional Free Energy           =   +2.98 kcal/mol
DOCKED: USER    (4) Unbound System's Energy  [=(2)] =   -2.22 kcal/mol
DOCKED: USER    
DOCKED: USER    
DOCKED: USER    NEWDPF move heme_Fe_opt.pdbqt
DOCKED: USER    NEWDPF about -0.174000 -0.001000 -0.047000
DOCKED: USER    NEWDPF tran0 0.922700 17.468231 0.710774
DOCKED: USER    NEWDPF quaternion0 0.869977 -0.060478 0.036192 0.488029
DOCKED: USER    NEWDPF axisangle0 0.996734 -0.069290 0.041465 121.577824
DOCKED: USER    NEWDPF quat0 0.996734 -0.069290 0.041465 121.577824
DOCKED: USER    NEWDPF dihe0 -27.28 172.26 68.94 -156.13 8.02 84.25 -58.78 5.36 -155.89 20.79 
DOCKED: USER  keepresnum = 1 
DOCKED: USER  
DOCKED: REMARK  10 active torsions:
DOCKED: REMARK  status: ('A' for Active; 'I' for Inactive)
DOCKED: REMARK    1  A    between atoms: C_6  and  C_10 
DOCKED: REMARK    2  A    between atoms: C_10  and  C_11 
DOCKED: REMARK    3  A    between atoms: C_11  and  C_12 
DOCKED: REMARK    4  A    between atoms: C_12  and  O_14 
DOCKED: REMARK    5  A    between atoms: C_17  and  C_20 
DOCKED: REMARK    6  A    between atoms: C_24  and  C_27 
DOCKED: REMARK    7  A    between atoms: C_31  and  C_34 
DOCKED: REMARK    8  A    between atoms: C_34  and  C_35 
DOCKED: REMARK    9  A    between atoms: C_35  and  C_36 
DOCKED: REMARK   10  A    between atoms: C_36  and  O_38 
DOCKED: USER                              x       y       z     vdW  Elec       q    Type
DOCKED: USER                           _______ _______ _______ _____ _____    ______ ____
DOCKED: ROOT
DOCKED: ATOM      1  C   UNL d   1      -0.970  18.227   0.476 -0.24 +0.01    +0.064 C 
DOCKED: ATOM      2  C   UNL d   1       2.855  19.266   3.430 -0.14 +0.00    +0.064 A 
DOCKED: ATOM      3  C   UNL d   1       5.692  16.666   0.556 -0.17 +0.00    +0.064 C 
DOCKED: ATOM      4  C   UNL d   1       1.984  15.561  -2.257 -0.25 -0.00    +0.064 C 
DOCKED: ATOM      5  C   UNL d   1      -0.173  18.691   1.620 -0.23 +0.01    +0.066 A 
DOCKED: ATOM      6  C   UNL d   1      -0.680  19.380   2.709 -0.20 -0.00    -0.021 A 
DOCKED: ATOM      7  C   UNL d   1       0.383  19.672   3.527 -0.19 -0.00    -0.025 A 
DOCKED: ATOM      8  C   UNL d   1       1.500  19.149   2.905 -0.18 +0.01    +0.066 A 
DOCKED: ATOM      9  C   UNL d   1       0.317  20.394   4.838 -0.12 +0.00    +0.051 C 
DOCKED: ATOM     10  C   UNL d   1       3.941  18.722   2.879 -0.11 +0.00    +0.066 A 
DOCKED: ATOM     11  C   UNL d   1       5.240  18.948   3.341 -0.10 -0.00    -0.021 A 
DOCKED: ATOM     12  C   UNL d   1       6.079  18.222   2.519 -0.10 +0.00    +0.000 A 
DOCKED: ATOM     13  C   UNL d   1       5.241  17.592   1.583 -0.13 +0.00    +0.070 A 
DOCKED: ATOM     14  C   UNL d   1       5.668  19.865   4.469 -0.04 +0.00    +0.052 C 
DOCKED: ATOM     15  C   UNL d   1       4.896  16.097  -0.380 -0.15 +0.00    +0.066 A 
DOCKED: ATOM     16  C   UNL d   1       5.347  15.141  -1.281 -0.18 -0.00    -0.021 A 
DOCKED: ATOM     17  C   UNL d   1       4.280  14.824  -2.096 -0.23 +0.00    +0.000 A 
DOCKED: ATOM     18  C   UNL d   1       3.202  15.598  -1.674 -0.19 -0.00    +0.070 A 
DOCKED: ATOM     19  C   UNL d   1       6.734  14.566  -1.391 -0.14 +0.00    +0.052 C 
DOCKED: ATOM     20  C   UNL d   1       0.809  16.315  -1.803 -0.21 +0.00    +0.066 A 
DOCKED: ATOM     21  C   UNL d   1      -0.395  16.442  -2.510 -0.17 -0.00    -0.025 A 
DOCKED: ATOM     22  C   UNL d   1      -1.227  17.194  -1.707 -0.15 -0.00    -0.021 A 
DOCKED: ATOM     23  C   UNL d   1      -0.499  17.501  -0.551 -0.21 +0.01    +0.066 A 
DOCKED: ATOM     24  C   UNL d   1      -0.753  15.891  -3.871 -0.21 +0.00    +0.051 C 
DOCKED: ATOM     25  N   UNL d   1       1.157  18.545   1.750 -0.18 -0.02    -0.248 N 
DOCKED: ATOM     26  N   UNL d   1       3.939  17.903   1.796 +0.01 -0.01    -0.248 N 
DOCKED: ATOM     27  N   UNL d   1       3.567  16.349  -0.592 -0.07 -0.01    -0.248 N 
DOCKED: ATOM     28  N   UNL d   1       0.758  17.000  -0.635 -0.18 -0.01    -0.248 N 
DOCKED: ATOM     29 FE   UNL d   1       2.348  17.451   0.579 -0.06 +0.00    +0.000 Fe
DOCKED: ENDROOT
DOCKED: BRANCH   6  30
DOCKED: ATOM     30  C   UNL d   1      -2.106  19.726   2.973 -0.15 +0.01    +0.052 C 
DOCKED: BRANCH  30  31
DOCKED: ATOM     31  C   UNL d   1      -2.617  20.729   1.945 -0.05 +0.02    +0.115 C 
DOCKED: BRANCH  31  32
DOCKED: ATOM     32  C   UNL d   1      -3.800  20.168   1.205 -0.06 +0.04    +0.139 C 
DOCKED: ATOM     33  O   UNL d   1      -4.312  19.115   1.557 -0.00 -0.38    -0.650 OA
DOCKED: BRANCH  32  34
DOCKED: ATOM     34  O   UNL d   1      -4.306  20.822   0.146 +0.04 -0.21    -0.776 OA
DOCKED: ATOM     35  H   UNL d   1      -4.763  20.319  -0.542 +0.02 +0.06    +0.167 HD
DOCKED: ENDBRANCH  32  34
DOCKED: ENDBRANCH  31  32
DOCKED: ENDBRANCH  30  31
DOCKED: ENDBRANCH   6  30
DOCKED: BRANCH  22  36
DOCKED: ATOM     36  C   UNL d   1      -2.624  17.634  -2.055 -0.12 +0.01    +0.052 C 
DOCKED: BRANCH  36  37
DOCKED: ATOM     37  C   UNL d   1      -3.612  17.035  -1.065 -0.22 +0.07    +0.115 C 
DOCKED: BRANCH  37  38
DOCKED: ATOM     38  C   UNL d   1      -5.027  17.365  -1.449 +0.03 +0.14    +0.139 C 
DOCKED: ATOM     39  O   UNL d   1      -5.627  16.684  -2.267 -0.93 -0.72    -0.650 OA
DOCKED: BRANCH  38  40
DOCKED: ATOM     40  O   UNL d   1      -5.645  18.422  -0.892 -0.41 -0.81    -0.776 OA
DOCKED: ATOM     41  H   UNL d   1      -5.212  18.889  -0.164 +0.02 +0.15    +0.167 HD
DOCKED: ENDBRANCH  38  40
DOCKED: ENDBRANCH  37  38
DOCKED: ENDBRANCH  36  37
DOCKED: ENDBRANCH  22  36
DOCKED: BRANCH  12  42
DOCKED: ATOM     42  C   UNL d   1       7.569  18.177   2.641 -0.04 +0.00    +0.004 C 
DOCKED: ATOM     43  C   UNL d   1       8.203  17.031   2.923 -0.06 +0.00    +0.012 C 
DOCKED: ENDBRANCH  12  42
DOCKED: BRANCH  17  44
DOCKED: ATOM     44  C   UNL d   1       4.287  13.829  -3.192 -0.31 -0.00    +0.004 C 
DOCKED: ATOM     45  C   UNL d   1       4.368  14.218  -4.469 -0.19 -0.00    +0.012 C 
DOCKED: ENDBRANCH  17  44
DOCKED: TORSDOF 10
DOCKED: TER
DOCKED: ENDMDL
________________________________________________________________________________


	BEGINNING GENETIC ALGORITHM DOCKING 42 of 100
Run: 42 Seed: 165767120 878029092 [ Run 42 of 100 GA/GALS ]
Beginning LAMARCKIAN GENETIC ALGORITHM (LGA), with a maximum of 25000000 energy evaluations.

Final-Value: -9.926


	FINAL GENETIC ALGORITHM DOCKED STATE
	_______________________________________________


Detailed state:  trans 0.235 17.226 0.593 quatxyzw 0.892323 0.021439 -0.010660 0.450762 center -0.174 -0.001 -0.047 ntor 10 -128.3399 -64.0306 66.4075 -149.4183 -58.0411 -180.0000 -60.3115 113.3498 -172.0142 26.3445
State:	  0.235  17.226   0.593   1.000  0.024 -0.012 126.415   -128.34  -64.03   66.41 -149.42  -58.04 -180.00  -60.31  113.35 -172.01   26.34

DOCKED: MODEL       42
DOCKED: USER    Run = 42
DOCKED: USER    DPF = D:/Protein_go_brrr/autodock/final/mut_D99N/heme_Fe/dock.dpf
DOCKED: USER  
DOCKED: USER    Estimated Free Energy of Binding    =   -6.24 kcal/mol  [=(1)+(2)+(3)-(4)]
DOCKED: USER    Estimated Inhibition Constant, Ki   =   26.56 uM (micromolar)  [Temperature = 298.15 K]
DOCKED: USER    
DOCKED: USER    (1) Final Intermolecular Energy     =   -9.23 kcal/mol
DOCKED: USER        vdW + Hbond + desolv Energy     =   -7.68 kcal/mol
DOCKED: USER        Electrostatic Energy            =   -1.55 kcal/mol
DOCKED: USER    (2) Final Total Internal Energy     =   -0.70 kcal/mol
DOCKED: USER    (3) Torsional Free Energy           =   +2.98 kcal/mol
DOCKED: USER    (4) Unbound System's Energy  [=(2)] =   -0.70 kcal/mol
DOCKED: USER    
DOCKED: USER    
DOCKED: USER    NEWDPF move heme_Fe_opt.pdbqt
DOCKED: USER    NEWDPF about -0.174000 -0.001000 -0.047000
DOCKED: USER    NEWDPF tran0 0.235369 17.225749 0.592543
DOCKED: USER    NEWDPF quaternion0 0.892323 0.021439 -0.010660 0.450762
DOCKED: USER    NEWDPF axisangle0 0.999640 0.024017 -0.011942 126.414804
DOCKED: USER    NEWDPF quat0 0.999640 0.024017 -0.011942 126.414804
DOCKED: USER    NEWDPF dihe0 -128.34 -64.03 66.41 -149.42 -58.04 -180.00 -60.31 113.35 -172.01 26.34 
DOCKED: USER  keepresnum = 1 
DOCKED: USER  
DOCKED: REMARK  10 active torsions:
DOCKED: REMARK  status: ('A' for Active; 'I' for Inactive)
DOCKED: REMARK    1  A    between atoms: C_6  and  C_10 
DOCKED: REMARK    2  A    between atoms: C_10  and  C_11 
DOCKED: REMARK    3  A    between atoms: C_11  and  C_12 
DOCKED: REMARK    4  A    between atoms: C_12  and  O_14 
DOCKED: REMARK    5  A    between atoms: C_17  and  C_20 
DOCKED: REMARK    6  A    between atoms: C_24  and  C_27 
DOCKED: REMARK    7  A    between atoms: C_31  and  C_34 
DOCKED: REMARK    8  A    between atoms: C_34  and  C_35 
DOCKED: REMARK    9  A    between atoms: C_35  and  C_36 
DOCKED: REMARK   10  A    between atoms: C_36  and  O_38 
DOCKED: USER                              x       y       z     vdW  Elec       q    Type
DOCKED: USER                           _______ _______ _______ _____ _____    ______ ____
DOCKED: ROOT
DOCKED: ATOM      1  C   UNL d   1      -1.765  17.594   0.324 -0.22 +0.01    +0.064 C 
DOCKED: ATOM      2  C   UNL d   1       1.795  19.583   3.116 -0.16 +0.00    +0.064 A 
DOCKED: ATOM      3  C   UNL d   1       5.071  17.319   0.431 -0.15 +0.00    +0.064 C 
DOCKED: ATOM      4  C   UNL d   1       1.637  15.299  -2.218 -0.29 -0.00    +0.064 C 
DOCKED: ATOM      5  C   UNL d   1      -1.071  18.297   1.411 -0.20 +0.01    +0.066 A 
DOCKED: ATOM      6  C   UNL d   1      -1.699  18.971   2.445 -0.16 -0.00    -0.021 A 
DOCKED: ATOM      7  C   UNL d   1      -0.710  19.526   3.218 -0.19 -0.00    -0.025 A 
DOCKED: ATOM      8  C   UNL d   1       0.486  19.170   2.625 -0.21 +0.01    +0.066 A 
DOCKED: ATOM      9  C   UNL d   1      -0.911  20.335   4.463 -0.12 +0.01    +0.051 C 
DOCKED: ATOM     10  C   UNL d   1       2.964  19.206   2.597 -0.14 +0.00    +0.066 A 
DOCKED: ATOM     11  C   UNL d   1       4.197  19.710   3.018 -0.09 -0.00    -0.021 A 
DOCKED: ATOM     12  C   UNL d   1       5.158  19.085   2.247 -0.09 +0.00    +0.000 A 
DOCKED: ATOM     13  C   UNL d   1       4.453  18.230   1.382 -0.13 +0.00    +0.070 A 
DOCKED: ATOM     14  C   UNL d   1       4.445  20.785   4.056 -0.04 +0.00    +0.052 C 
DOCKED: ATOM     15  C   UNL d   1       4.396  16.532  -0.439 -0.14 +0.00    +0.066 A 
DOCKED: ATOM     16  C   UNL d   1       5.019  15.602  -1.262 -0.17 -0.00    -0.021 A 
DOCKED: ATOM     17  C   UNL d   1       4.031  15.021  -2.030 -0.23 -0.00    +0.000 A 
DOCKED: ATOM     18  C   UNL d   1       2.826  15.614  -1.659 -0.19 -0.00    +0.070 A 
DOCKED: ATOM     19  C   UNL d   1       6.489  15.289  -1.344 -0.12 +0.00    +0.052 C 
DOCKED: ATOM     20  C   UNL d   1       0.342  15.857  -1.811 -0.24 +0.00    +0.066 A 
DOCKED: ATOM     21  C   UNL d   1      -0.865  15.694  -2.507 -0.26 -0.00    -0.025 A 
DOCKED: ATOM     22  C   UNL d   1      -1.823  16.345  -1.758 -0.23 -0.00    -0.021 A 
DOCKED: ATOM     23  C   UNL d   1      -1.166  16.883  -0.645 -0.21 +0.01    +0.066 A 
DOCKED: ATOM     24  C   UNL d   1      -1.112  14.970  -3.810 -0.17 +0.00    +0.051 C 
DOCKED: ATOM     25  N   UNL d   1       0.263  18.414   1.531 -0.20 -0.03    -0.248 N 
DOCKED: ATOM     26  N   UNL d   1       3.115  18.310   1.589 -0.10 -0.01    -0.248 N 
DOCKED: ATOM     27  N   UNL d   1       3.043  16.511  -0.651 -0.08 -0.01    -0.248 N 
DOCKED: ATOM     28  N   UNL d   1       0.162  16.620  -0.706 -0.17 -0.01    -0.248 N 
DOCKED: ATOM     29 FE   UNL d   1       1.639  17.464   0.440 -0.06 +0.00    +0.000 Fe
DOCKED: ENDROOT
DOCKED: BRANCH   6  30
DOCKED: ATOM     30  C   UNL d   1      -3.164  19.066   2.701 -0.19 +0.02    +0.052 C 
DOCKED: BRANCH  30  31
DOCKED: ATOM     31  C   UNL d   1      -3.791  20.166   1.851 -0.08 +0.04    +0.115 C 
DOCKED: BRANCH  31  32
DOCKED: ATOM     32  C   UNL d   1      -4.841  19.594   0.940 -0.05 +0.08    +0.139 C 
DOCKED: ATOM     33  O   UNL d   1      -4.558  18.716   0.137 -0.14 -0.49    -0.650 OA
DOCKED: BRANCH  32  34
DOCKED: ATOM     34  O   UNL d   1      -6.105  20.045   1.000 -0.15 -0.52    -0.776 OA
DOCKED: ATOM     35  H   UNL d   1      -6.267  20.997   0.948 +0.01 +0.06    +0.167 HD
DOCKED: ENDBRANCH  32  34
DOCKED: ENDBRANCH  31  32
DOCKED: ENDBRANCH  30  31
DOCKED: ENDBRANCH   6  30
DOCKED: BRANCH  22  36
DOCKED: ATOM     36  C   UNL d   1      -3.278  16.484  -2.121 -0.20 +0.02    +0.052 C 
DOCKED: BRANCH  36  37
DOCKED: ATOM     37  C   UNL d   1      -4.142  15.921  -1.001 -0.18 +0.10    +0.115 C 
DOCKED: BRANCH  37  38
DOCKED: ATOM     38  C   UNL d   1      -3.976  14.432  -0.889 -0.41 +0.10    +0.139 C 
DOCKED: ATOM     39  O   UNL d   1      -4.589  13.796  -0.044 -0.58 -0.74    -0.650 OA
DOCKED: BRANCH  38  40
DOCKED: ATOM     40  O   UNL d   1      -3.142  13.785  -1.723 +0.06 -0.19    -0.776 OA
DOCKED: ATOM     41  H   UNL d   1      -2.363  13.342  -1.358 -0.39 -0.03    +0.167 HD
DOCKED: ENDBRANCH  38  40
DOCKED: ENDBRANCH  37  38
DOCKED: ENDBRANCH  36  37
DOCKED: ENDBRANCH  22  36
DOCKED: BRANCH  12  42
DOCKED: ATOM     42  C   UNL d   1       6.629  19.330   2.349 -0.04 +0.00    +0.004 C 
DOCKED: ATOM     43  C   UNL d   1       7.461  18.366   2.766 -0.04 +0.00    +0.012 C 
DOCKED: ENDBRANCH  12  42
DOCKED: BRANCH  17  44
DOCKED: ATOM     44  C   UNL d   1       4.225  13.954  -3.037 -0.31 -0.00    +0.004 C 
DOCKED: ATOM     45  C   UNL d   1       4.365  14.252  -4.333 -0.21 -0.00    +0.012 C 
DOCKED: ENDBRANCH  17  44
DOCKED: TORSDOF 10
DOCKED: TER
DOCKED: ENDMDL
________________________________________________________________________________


	BEGINNING GENETIC ALGORITHM DOCKING 43 of 100
Run: 43 Seed: 1707377745 667061049 [ Run 43 of 100 GA/GALS ]
Beginning LAMARCKIAN GENETIC ALGORITHM (LGA), with a maximum of 25000000 energy evaluations.

Final-Value: -11.310


	FINAL GENETIC ALGORITHM DOCKED STATE
	_______________________________________________


Detailed state:  trans 15.089 -8.529 7.297 quatxyzw 0.180891 -0.318270 0.914768 0.170829 center -0.174 -0.001 -0.047 ntor 10 -119.2166 147.0339 103.1677 -143.9637 17.5950 63.1070 -95.1976 8.2212 -23.1043 -177.3952
State:	 15.089  -8.529   7.297   0.184 -0.323  0.928 160.328   -119.22  147.03  103.17 -143.96   17.60   63.11  -95.20    8.22  -23.10 -177.40

DOCKED: MODEL       43
DOCKED: USER    Run = 43
DOCKED: USER    DPF = D:/Protein_go_brrr/autodock/final/mut_D99N/heme_Fe/dock.dpf
DOCKED: USER  
DOCKED: USER    Estimated Free Energy of Binding    =   -7.71 kcal/mol  [=(1)+(2)+(3)-(4)]
DOCKED: USER    Estimated Inhibition Constant, Ki   =    2.24 uM (micromolar)  [Temperature = 298.15 K]
DOCKED: USER    
DOCKED: USER    (1) Final Intermolecular Energy     =  -10.69 kcal/mol
DOCKED: USER        vdW + Hbond + desolv Energy     =   -9.71 kcal/mol
DOCKED: USER        Electrostatic Energy            =   -0.98 kcal/mol
DOCKED: USER    (2) Final Total Internal Energy     =   -0.62 kcal/mol
DOCKED: USER    (3) Torsional Free Energy           =   +2.98 kcal/mol
DOCKED: USER    (4) Unbound System's Energy  [=(2)] =   -0.62 kcal/mol
DOCKED: USER    
DOCKED: USER    
DOCKED: USER    NEWDPF move heme_Fe_opt.pdbqt
DOCKED: USER    NEWDPF about -0.174000 -0.001000 -0.047000
DOCKED: USER    NEWDPF tran0 15.089397 -8.529242 7.296774
DOCKED: USER    NEWDPF quaternion0 0.180891 -0.318270 0.914768 0.170829
DOCKED: USER    NEWDPF axisangle0 0.183589 -0.323018 0.928415 160.327973
DOCKED: USER    NEWDPF quat0 0.183589 -0.323018 0.928415 160.327973
DOCKED: USER    NEWDPF dihe0 -119.22 147.03 103.17 -143.96 17.60 63.11 -95.20 8.22 -23.10 -177.40 
DOCKED: USER  keepresnum = 1 
DOCKED: USER  
DOCKED: REMARK  10 active torsions:
DOCKED: REMARK  status: ('A' for Active; 'I' for Inactive)
DOCKED: REMARK    1  A    between atoms: C_6  and  C_10 
DOCKED: REMARK    2  A    between atoms: C_10  and  C_11 
DOCKED: REMARK    3  A    between atoms: C_11  and  C_12 
DOCKED: REMARK    4  A    between atoms: C_12  and  O_14 
DOCKED: REMARK    5  A    between atoms: C_17  and  C_20 
DOCKED: REMARK    6  A    between atoms: C_24  and  C_27 
DOCKED: REMARK    7  A    between atoms: C_31  and  C_34 
DOCKED: REMARK    8  A    between atoms: C_34  and  C_35 
DOCKED: REMARK    9  A    between atoms: C_35  and  C_36 
DOCKED: REMARK   10  A    between atoms: C_36  and  O_38 
DOCKED: USER                              x       y       z     vdW  Elec       q    Type
DOCKED: USER                           _______ _______ _______ _____ _____    ______ ____
DOCKED: ROOT
DOCKED: ATOM      1  C   UNL d   1      17.047  -7.915   7.284 -0.28 -0.01    +0.064 C 
DOCKED: ATOM      2  C   UNL d   1      13.106  -6.919  10.095 -0.26 -0.02    +0.064 A 
DOCKED: ATOM      3  C   UNL d   1      10.889 -10.746   8.223 -0.25 -0.02    +0.064 C 
DOCKED: ATOM      4  C   UNL d   1      14.653 -11.667   5.417 -0.28 -0.05    +0.064 C 
DOCKED: ATOM      5  C   UNL d   1      16.112  -7.231   8.187 -0.24 -0.02    +0.066 A 
DOCKED: ATOM      6  C   UNL d   1      16.365  -6.028   8.825 -0.18 +0.01    -0.021 A 
DOCKED: ATOM      7  C   UNL d   1      15.272  -5.754   9.609 -0.18 +0.01    -0.025 A 
DOCKED: ATOM      8  C   UNL d   1      14.392  -6.802   9.418 -0.23 -0.03    +0.066 A 
DOCKED: ATOM      9  C   UNL d   1      15.085  -4.544  10.471 -0.16 -0.01    +0.051 C 
DOCKED: ATOM     10  C   UNL d   1      12.214  -7.889   9.887 -0.25 -0.03    +0.066 A 
DOCKED: ATOM     11  C   UNL d   1      11.042  -8.037  10.632 -0.22 +0.01    -0.021 A 
DOCKED: ATOM     12  C   UNL d   1      10.393  -9.144  10.123 -0.20 -0.00    +0.000 A 
DOCKED: ATOM     13  C   UNL d   1      11.215  -9.623   9.088 -0.21 -0.03    +0.070 A 
DOCKED: ATOM     14  C   UNL d   1      10.596  -7.206  11.818 -0.19 -0.04    +0.052 C 
DOCKED: ATOM     15  C   UNL d   1      11.700 -11.243   7.259 -0.24 -0.02    +0.066 A 
DOCKED: ATOM     16  C   UNL d   1      11.312 -12.253   6.388 -0.25 +0.01    -0.021 A 
DOCKED: ATOM     17  C   UNL d   1      12.397 -12.523   5.580 -0.27 -0.00    +0.000 A 
DOCKED: ATOM     18  C   UNL d   1      13.425 -11.672   5.981 -0.30 -0.04    +0.070 A 
DOCKED: ATOM     19  C   UNL d   1       9.983 -12.956   6.331 -0.31 -0.01    +0.052 C 
DOCKED: ATOM     20  C   UNL d   1      15.739 -10.746   5.771 -0.31 -0.03    +0.066 A 
DOCKED: ATOM     21  C   UNL d   1      17.068 -10.857   5.341 -0.33 +0.01    -0.025 A 
DOCKED: ATOM     22  C   UNL d   1      17.730  -9.771   5.874 -0.32 +0.00    -0.021 A 
DOCKED: ATOM     23  C   UNL d   1      16.785  -9.046   6.610 -0.27 -0.01    +0.066 A 
DOCKED: ATOM     24  C   UNL d   1      17.694 -11.928   4.477 -0.27 -0.02    +0.051 C 
DOCKED: ATOM     25  N   UNL d   1      14.901  -7.694   8.546 -0.15 +0.11    -0.248 N 
DOCKED: ATOM     26  N   UNL d   1      12.329  -8.864   8.949 -0.09 +0.12    -0.248 N 
DOCKED: ATOM     27  N   UNL d   1      12.984 -10.855   6.984 -0.09 +0.13    -0.248 N 
DOCKED: ATOM     28  N   UNL d   1      15.582  -9.670   6.580 -0.20 +0.10    -0.248 N 
DOCKED: ATOM     29 FE   UNL d   1      13.956  -9.268   7.763 -0.05 -0.00    +0.000 Fe
DOCKED: ENDROOT
DOCKED: BRANCH   6  30
DOCKED: ATOM     30  C   UNL d   1      17.575  -5.170   8.683 -0.13 -0.01    +0.052 C 
DOCKED: BRANCH  30  31
DOCKED: ATOM     31  C   UNL d   1      17.668  -4.595   7.273 -0.20 -0.01    +0.115 C 
DOCKED: BRANCH  31  32
DOCKED: ATOM     32  C   UNL d   1      16.848  -3.340   7.162 -0.27 -0.02    +0.139 C 
DOCKED: ATOM     33  O   UNL d   1      16.490  -2.738   8.165 -0.17 +0.05    -0.650 OA
DOCKED: BRANCH  32  34
DOCKED: ATOM     34  O   UNL d   1      16.499  -2.866   5.954 -0.03 +0.13    -0.776 OA
DOCKED: ATOM     35  H   UNL d   1      15.957  -3.417   5.372 -0.46 -0.08    +0.167 HD
DOCKED: ENDBRANCH  32  34
DOCKED: ENDBRANCH  31  32
DOCKED: ENDBRANCH  30  31
DOCKED: ENDBRANCH   6  30
DOCKED: BRANCH  22  36
DOCKED: ATOM     36  C   UNL d   1      19.199  -9.475   5.724 -0.28 +0.02    +0.052 C 
DOCKED: BRANCH  36  37
DOCKED: ATOM     37  C   UNL d   1      19.996 -10.315   6.711 -0.15 +0.03    +0.115 C 
DOCKED: BRANCH  37  38
DOCKED: ATOM     38  C   UNL d   1      21.444  -9.916   6.713 -0.10 +0.09    +0.139 C 
DOCKED: ATOM     39  O   UNL d   1      21.782  -8.792   7.057 -0.03 -0.46    -0.650 OA
DOCKED: BRANCH  38  40
DOCKED: ATOM     40  O   UNL d   1      22.384 -10.798   6.331 -0.20 -0.93    -0.776 OA
DOCKED: ATOM     41  H   UNL d   1      22.251 -11.738   6.517 +0.01 +0.12    +0.167 HD
DOCKED: ENDBRANCH  38  40
DOCKED: ENDBRANCH  37  38
DOCKED: ENDBRANCH  36  37
DOCKED: ENDBRANCH  22  36
DOCKED: BRANCH  12  42
DOCKED: ATOM     42  C   UNL d   1       9.093  -9.683  10.630 -0.22 -0.00    +0.004 C 
DOCKED: ATOM     43  C   UNL d   1       8.253 -10.336   9.816 -0.25 -0.01    +0.012 C 
DOCKED: ENDBRANCH  12  42
DOCKED: BRANCH  17  44
DOCKED: ATOM     44  C   UNL d   1      12.441 -13.515   4.482 -0.37 -0.00    +0.004 C 
DOCKED: ATOM     45  C   UNL d   1      12.817 -14.777   4.714 -0.28 -0.00    +0.012 C 
DOCKED: ENDBRANCH  17  44
DOCKED: TORSDOF 10
DOCKED: TER
DOCKED: ENDMDL
________________________________________________________________________________


	BEGINNING GENETIC ALGORITHM DOCKING 44 of 100
Run: 44 Seed: 1551617114 1503360562 [ Run 44 of 100 GA/GALS ]
Beginning LAMARCKIAN GENETIC ALGORITHM (LGA), with a maximum of 25000000 energy evaluations.

Final-Value: -12.432


	FINAL GENETIC ALGORITHM DOCKED STATE
	_______________________________________________


Detailed state:  trans -15.638 4.873 4.482 quatxyzw -0.575610 -0.774292 -0.146840 0.218134 center -0.174 -0.001 -0.047 ntor 10 73.4183 -78.0874 -99.9957 61.0311 169.5793 21.6430 -43.2644 -37.9940 -178.1258 13.8137
State:	-15.638   4.873   4.482  -0.590 -0.793 -0.150 154.801     73.42  -78.09 -100.00   61.03  169.58   21.64  -43.26  -37.99 -178.13   13.81

DOCKED: MODEL       44
DOCKED: USER    Run = 44
DOCKED: USER    DPF = D:/Protein_go_brrr/autodock/final/mut_D99N/heme_Fe/dock.dpf
DOCKED: USER  
DOCKED: USER    Estimated Free Energy of Binding    =   -7.56 kcal/mol  [=(1)+(2)+(3)-(4)]
DOCKED: USER    Estimated Inhibition Constant, Ki   =    2.85 uM (micromolar)  [Temperature = 298.15 K]
DOCKED: USER    
DOCKED: USER    (1) Final Intermolecular Energy     =  -10.55 kcal/mol
DOCKED: USER        vdW + Hbond + desolv Energy     =   -7.47 kcal/mol
DOCKED: USER        Electrostatic Energy            =   -3.08 kcal/mol
DOCKED: USER    (2) Final Total Internal Energy     =   -1.89 kcal/mol
DOCKED: USER    (3) Torsional Free Energy           =   +2.98 kcal/mol
DOCKED: USER    (4) Unbound System's Energy  [=(2)] =   -1.89 kcal/mol
DOCKED: USER    
DOCKED: USER    
DOCKED: USER    NEWDPF move heme_Fe_opt.pdbqt
DOCKED: USER    NEWDPF about -0.174000 -0.001000 -0.047000
DOCKED: USER    NEWDPF tran0 -15.637534 4.872607 4.482320
DOCKED: USER    NEWDPF quaternion0 -0.575610 -0.774292 -0.146840 0.218134
DOCKED: USER    NEWDPF axisangle0 -0.589814 -0.793398 -0.150463 154.801051
DOCKED: USER    NEWDPF quat0 -0.589814 -0.793398 -0.150463 154.801051
DOCKED: USER    NEWDPF dihe0 73.42 -78.09 -100.00 61.03 169.58 21.64 -43.26 -37.99 -178.13 13.81 
DOCKED: USER  keepresnum = 1 
DOCKED: USER  
DOCKED: REMARK  10 active torsions:
DOCKED: REMARK  status: ('A' for Active; 'I' for Inactive)
DOCKED: REMARK    1  A    between atoms: C_6  and  C_10 
DOCKED: REMARK    2  A    between atoms: C_10  and  C_11 
DOCKED: REMARK    3  A    between atoms: C_11  and  C_12 
DOCKED: REMARK    4  A    between atoms: C_12  and  O_14 
DOCKED: REMARK    5  A    between atoms: C_17  and  C_20 
DOCKED: REMARK    6  A    between atoms: C_24  and  C_27 
DOCKED: REMARK    7  A    between atoms: C_31  and  C_34 
DOCKED: REMARK    8  A    between atoms: C_34  and  C_35 
DOCKED: REMARK    9  A    between atoms: C_35  and  C_36 
DOCKED: REMARK   10  A    between atoms: C_36  and  O_38 
DOCKED: USER                              x       y       z     vdW  Elec       q    Type
DOCKED: USER                           _______ _______ _______ _____ _____    ______ ____
DOCKED: ROOT
DOCKED: ATOM      1  C   UNL d   1     -14.937   2.950   4.330 -0.12 +0.02    +0.064 C 
DOCKED: ATOM      2  C   UNL d   1     -18.671   5.465   2.290 -0.19 +0.01    +0.064 A 
DOCKED: ATOM      3  C   UNL d   1     -16.640   9.554   3.781 -0.16 -0.01    +0.064 C 
DOCKED: ATOM      4  C   UNL d   1     -13.072   7.133   5.854 -0.24 -0.01    +0.064 C 
DOCKED: ATOM      5  C   UNL d   1     -16.219   3.274   3.690 -0.12 +0.01    +0.066 A 
DOCKED: ATOM      6  C   UNL d   1     -17.134   2.339   3.233 -0.11 -0.00    -0.021 A 
DOCKED: ATOM      7  C   UNL d   1     -18.168   3.038   2.664 -0.12 -0.00    -0.025 A 
DOCKED: ATOM      8  C   UNL d   1     -17.846   4.375   2.795 -0.16 +0.01    +0.066 A 
DOCKED: ATOM      9  C   UNL d   1     -19.401   2.448   2.049 -0.10 +0.01    +0.051 C 
DOCKED: ATOM     10  C   UNL d   1     -18.411   6.764   2.453 -0.21 +0.01    +0.066 A 
DOCKED: ATOM     11  C   UNL d   1     -19.158   7.784   1.860 -0.22 -0.00    -0.021 A 
DOCKED: ATOM     12  C   UNL d   1     -18.583   8.973   2.261 -0.19 -0.00    +0.000 A 
DOCKED: ATOM     13  C   UNL d   1     -17.498   8.613   3.080 -0.18 -0.00    +0.070 A 
DOCKED: ATOM     14  C   UNL d   1     -20.323   7.633   0.902 -0.17 +0.02    +0.052 C 
DOCKED: ATOM     15  C   UNL d   1     -15.563   9.214   4.528 -0.12 -0.01    +0.066 A 
DOCKED: ATOM     16  C   UNL d   1     -14.828  10.135   5.264 -0.11 +0.00    -0.021 A 
DOCKED: ATOM     17  C   UNL d   1     -13.796   9.439   5.860 -0.23 -0.00    +0.000 A 
DOCKED: ATOM     18  C   UNL d   1     -13.924   8.108   5.470 -0.18 -0.01    +0.070 A 
DOCKED: ATOM     19  C   UNL d   1     -15.068  11.616   5.383 -0.09 -0.01    +0.052 C 
DOCKED: ATOM     20  C   UNL d   1     -13.210   5.712   5.514 -0.18 +0.00    +0.066 A 
DOCKED: ATOM     21  C   UNL d   1     -12.235   4.728   5.733 -0.25 -0.00    -0.025 A 
DOCKED: ATOM     22  C   UNL d   1     -12.793   3.542   5.303 -0.18 -0.00    -0.021 A 
DOCKED: ATOM     23  C   UNL d   1     -14.076   3.848   4.835 -0.11 +0.01    +0.066 A 
DOCKED: ATOM     24  C   UNL d   1     -10.848   4.887   6.312 -0.47 -0.00    +0.051 C 
DOCKED: ATOM     25  N   UNL d   1     -16.664   4.515   3.428 -0.10 -0.03    -0.248 N 
DOCKED: ATOM     26  N   UNL d   1     -17.388   7.266   3.190 -0.12 -0.01    -0.248 N 
DOCKED: ATOM     27  N   UNL d   1     -15.035   7.961   4.687 -0.06 +0.01    -0.248 N 
DOCKED: ATOM     28  N   UNL d   1     -14.308   5.180   4.924 -0.07 -0.02    -0.248 N 
DOCKED: ATOM     29 FE   UNL d   1     -15.846   6.224   4.058 -0.04 +0.00    +0.000 Fe
DOCKED: ENDROOT
DOCKED: BRANCH   6  30
DOCKED: ATOM     30  C   UNL d   1     -17.042   0.856   3.351 -0.08 +0.02    +0.052 C 
DOCKED: BRANCH  30  31
DOCKED: ATOM     31  C   UNL d   1     -16.303   0.264   2.155 -0.12 +0.05    +0.115 C 
DOCKED: BRANCH  31  32
DOCKED: ATOM     32  C   UNL d   1     -15.332  -0.792   2.606 -0.11 +0.14    +0.139 C 
DOCKED: ATOM     33  O   UNL d   1     -14.781  -1.520   1.793 -0.38 -0.86    -0.650 OA
DOCKED: BRANCH  32  34
DOCKED: ATOM     34  O   UNL d   1     -15.061  -0.945   3.914 +0.05 -1.06    -0.776 OA
DOCKED: ATOM     35  H   UNL d   1     -14.206  -0.647   4.254 +0.02 +0.30    +0.167 HD
DOCKED: ENDBRANCH  32  34
DOCKED: ENDBRANCH  31  32
DOCKED: ENDBRANCH  30  31
DOCKED: ENDBRANCH   6  30
DOCKED: BRANCH  22  36
DOCKED: ATOM     36  C   UNL d   1     -12.110   2.200   5.299 -0.13 +0.02    +0.052 C 
DOCKED: BRANCH  36  37
DOCKED: ATOM     37  C   UNL d   1     -12.753   1.293   6.337 -0.16 +0.05    +0.115 C 
DOCKED: BRANCH  37  38
DOCKED: ATOM     38  C   UNL d   1     -12.859  -0.117   5.830 -0.17 +0.14    +0.139 C 
DOCKED: ATOM     39  O   UNL d   1     -12.138  -0.512   4.924 -0.48 -1.23    -0.650 OA
DOCKED: BRANCH  38  40
DOCKED: ATOM     40  O   UNL d   1     -13.757  -0.960   6.371 -0.01 -0.81    -0.776 OA
DOCKED: ATOM     41  H   UNL d   1     -14.582  -1.135   5.897 +0.01 +0.18    +0.167 HD
DOCKED: ENDBRANCH  38  40
DOCKED: ENDBRANCH  37  38
DOCKED: ENDBRANCH  36  37
DOCKED: ENDBRANCH  22  36
DOCKED: BRANCH  12  42
DOCKED: ATOM     42  C   UNL d   1     -19.054  10.333   1.854 -0.17 -0.00    +0.004 C 
DOCKED: ATOM     43  C   UNL d   1     -19.234  10.642   0.563 -0.21 -0.00    +0.012 C 
DOCKED: ENDBRANCH  12  42
DOCKED: BRANCH  17  44
DOCKED: ATOM     44  C   UNL d   1     -12.768  10.008   6.760 -0.42 -0.00    +0.004 C 
DOCKED: ATOM     45  C   UNL d   1     -12.699   9.636   8.042 -0.50 -0.00    +0.012 C 
DOCKED: ENDBRANCH  17  44
DOCKED: TORSDOF 10
DOCKED: TER
DOCKED: ENDMDL
________________________________________________________________________________


	BEGINNING GENETIC ALGORITHM DOCKING 45 of 100
Run: 45 Seed: 1761127330 1254805247 [ Run 45 of 100 GA/GALS ]
Beginning LAMARCKIAN GENETIC ALGORITHM (LGA), with a maximum of 25000000 energy evaluations.

Final-Value: -16.781


	FINAL GENETIC ALGORITHM DOCKED STATE
	_______________________________________________


Detailed state:  trans -9.044 1.714 1.807 quatxyzw -0.927267 -0.150853 0.273988 -0.205790 center -0.174 -0.001 -0.047 ntor 10 -73.7730 -110.3896 45.5025 -166.3579 -7.3988 -148.2428 -72.3788 -7.3053 -140.9279 -180.0000
State:	 -9.044   1.714   1.807  -0.948 -0.154  0.280 -156.248    -73.77 -110.39   45.50 -166.36   -7.40 -148.24  -72.38   -7.31 -140.93 -180.00

DOCKED: MODEL       45
DOCKED: USER    Run = 45
DOCKED: USER    DPF = D:/Protein_go_brrr/autodock/final/mut_D99N/heme_Fe/dock.dpf
DOCKED: USER  
DOCKED: USER    Estimated Free Energy of Binding    =  -12.18 kcal/mol  [=(1)+(2)+(3)-(4)]
DOCKED: USER    Estimated Inhibition Constant, Ki   =    1.18 nM (nanomolar)  [Temperature = 298.15 K]
DOCKED: USER    
DOCKED: USER    (1) Final Intermolecular Energy     =  -15.16 kcal/mol
DOCKED: USER        vdW + Hbond + desolv Energy     =  -13.16 kcal/mol
DOCKED: USER        Electrostatic Energy            =   -2.00 kcal/mol
DOCKED: USER    (2) Final Total Internal Energy     =   -1.62 kcal/mol
DOCKED: USER    (3) Torsional Free Energy           =   +2.98 kcal/mol
DOCKED: USER    (4) Unbound System's Energy  [=(2)] =   -1.62 kcal/mol
DOCKED: USER    
DOCKED: USER    
DOCKED: USER    NEWDPF move heme_Fe_opt.pdbqt
DOCKED: USER    NEWDPF about -0.174000 -0.001000 -0.047000
DOCKED: USER    NEWDPF tran0 -9.044140 1.714464 1.807163
DOCKED: USER    NEWDPF quaternion0 -0.927267 -0.150853 0.273988 -0.205790
DOCKED: USER    NEWDPF axisangle0 -0.947548 -0.154153 0.279981 -156.248445
DOCKED: USER    NEWDPF quat0 -0.947548 -0.154153 0.279981 -156.248445
DOCKED: USER    NEWDPF dihe0 -73.77 -110.39 45.50 -166.36 -7.40 -148.24 -72.38 -7.31 -140.93 -180.00 
DOCKED: USER  keepresnum = 1 
DOCKED: USER  
DOCKED: REMARK  10 active torsions:
DOCKED: REMARK  status: ('A' for Active; 'I' for Inactive)
DOCKED: REMARK    1  A    between atoms: C_6  and  C_10 
DOCKED: REMARK    2  A    between atoms: C_10  and  C_11 
DOCKED: REMARK    3  A    between atoms: C_11  and  C_12 
DOCKED: REMARK    4  A    between atoms: C_12  and  O_14 
DOCKED: REMARK    5  A    between atoms: C_17  and  C_20 
DOCKED: REMARK    6  A    between atoms: C_24  and  C_27 
DOCKED: REMARK    7  A    between atoms: C_31  and  C_34 
DOCKED: REMARK    8  A    between atoms: C_34  and  C_35 
DOCKED: REMARK    9  A    between atoms: C_35  and  C_36 
DOCKED: REMARK   10  A    between atoms: C_36  and  O_38 
DOCKED: USER                              x       y       z     vdW  Elec       q    Type
DOCKED: USER                           _______ _______ _______ _____ _____    ______ ____
DOCKED: ROOT
DOCKED: ATOM      1  C   UNL d   1     -10.951   1.147   2.311 -0.22 +0.03    +0.064 C 
DOCKED: ATOM      2  C   UNL d   1      -8.458   5.415   2.374 -0.44 +0.01    +0.064 A 
DOCKED: ATOM      3  C   UNL d   1      -5.112   3.422  -0.436 -0.41 +0.01    +0.064 C 
DOCKED: ATOM      4  C   UNL d   1      -7.455  -0.749  -0.425 -0.45 +0.01    +0.064 C 
DOCKED: ATOM      5  C   UNL d   1     -10.517   2.508   2.658 -0.01 +0.02    +0.066 A 
DOCKED: ATOM      6  C   UNL d   1     -11.177   3.347   3.541 -0.25 -0.00    -0.021 A 
DOCKED: ATOM      7  C   UNL d   1     -10.486   4.533   3.555 -0.39 -0.00    -0.025 A 
DOCKED: ATOM      8  C   UNL d   1      -9.430   4.372   2.679 -0.40 +0.01    +0.066 A 
DOCKED: ATOM      9  C   UNL d   1     -10.819   5.739   4.379 -0.45 -0.00    +0.051 C 
DOCKED: ATOM     10  C   UNL d   1      -7.397   5.267   1.579 -0.42 +0.01    +0.066 A 
DOCKED: ATOM     11  C   UNL d   1      -6.549   6.316   1.215 -0.48 -0.00    -0.021 A 
DOCKED: ATOM     12  C   UNL d   1      -5.585   5.771   0.391 -0.50 +0.00    +0.000 A 
DOCKED: ATOM     13  C   UNL d   1      -5.903   4.405   0.287 -0.39 +0.01    +0.070 A 
DOCKED: ATOM     14  C   UNL d   1      -6.690   7.780   1.580 -0.49 +0.01    +0.052 C 
DOCKED: ATOM     15  C   UNL d   1      -5.441   2.117  -0.583 -0.40 +0.01    +0.066 A 
DOCKED: ATOM     16  C   UNL d   1      -4.610   1.189  -1.196 -0.41 -0.00    -0.021 A 
DOCKED: ATOM     17  C   UNL d   1      -5.285  -0.014  -1.197 -0.42 +0.00    +0.000 A 
DOCKED: ATOM     18  C   UNL d   1      -6.517   0.210  -0.587 -0.40 +0.01    +0.070 A 
DOCKED: ATOM     19  C   UNL d   1      -3.244   1.426  -1.781 -0.33 +0.00    +0.052 C 
DOCKED: ATOM     20  C   UNL d   1      -8.737  -0.565   0.267 -0.36 +0.02    +0.066 A 
DOCKED: ATOM     21  C   UNL d   1      -9.795  -1.484   0.268 -0.09 -0.01    -0.025 A 
DOCKED: ATOM     22  C   UNL d   1     -10.776  -0.929   1.064 -0.31 -0.01    -0.021 A 
DOCKED: ATOM     23  C   UNL d   1     -10.282   0.303   1.509 -0.35 +0.03    +0.066 A 
DOCKED: ATOM     24  C   UNL d   1      -9.891  -2.814  -0.442 -0.18 +0.01    +0.051 C 
DOCKED: ATOM     25  N   UNL d   1      -9.446   3.136   2.143 -0.21 -0.08    -0.248 N 
DOCKED: ATOM     26  N   UNL d   1      -7.013   4.100   1.003 -0.23 -0.06    -0.248 N 
DOCKED: ATOM     27  N   UNL d   1      -6.597   1.509  -0.170 -0.26 -0.03    -0.248 N 
DOCKED: ATOM     28  N   UNL d   1      -9.056   0.540   0.983 -0.26 -0.07    -0.248 N 
DOCKED: ATOM     29 FE   UNL d   1      -8.034   2.318   0.992 -0.09 +0.00    +0.000 Fe
DOCKED: ENDROOT
DOCKED: BRANCH   6  30
DOCKED: ATOM     30  C   UNL d   1     -12.391   3.033   4.347 -0.23 +0.01    +0.052 C 
DOCKED: BRANCH  30  31
DOCKED: ATOM     31  C   UNL d   1     -13.498   2.472   3.461 -0.19 +0.04    +0.115 C 
DOCKED: BRANCH  31  32
DOCKED: ATOM     32  C   UNL d   1     -13.673   1.000   3.707 -0.16 +0.10    +0.139 C 
DOCKED: ATOM     33  O   UNL d   1     -12.891   0.389   4.422 -0.50 -0.75    -0.650 OA
DOCKED: BRANCH  32  34
DOCKED: ATOM     34  O   UNL d   1     -14.696   0.338   3.140 +0.02 -0.62    -0.776 OA
DOCKED: ATOM     35  H   UNL d   1     -14.518  -0.256   2.398 +0.03 +0.17    +0.167 HD
DOCKED: ENDBRANCH  32  34
DOCKED: ENDBRANCH  31  32
DOCKED: ENDBRANCH  30  31
DOCKED: ENDBRANCH   6  30
DOCKED: BRANCH  22  36
DOCKED: ATOM     36  C   UNL d   1     -12.130  -1.529   1.339 +0.49 +0.07    +0.052 C 
DOCKED: BRANCH  36  37
DOCKED: ATOM     37  C   UNL d   1     -13.081  -1.193   0.200 -0.02 +0.07    +0.115 C 
DOCKED: BRANCH  37  38
DOCKED: ATOM     38  C   UNL d   1     -14.378  -1.937   0.344 -0.17 +0.10    +0.139 C 
DOCKED: ATOM     39  O   UNL d   1     -15.014  -2.283  -0.641 +0.00 -0.24    -0.650 OA
DOCKED: BRANCH  38  40
DOCKED: ATOM     40  O   UNL d   1     -14.853  -2.226   1.569 -0.51 -1.08    -0.776 OA
DOCKED: ATOM     41  H   UNL d   1     -15.176  -1.507   2.130 +0.02 +0.21    +0.167 HD
DOCKED: ENDBRANCH  38  40
DOCKED: ENDBRANCH  37  38
DOCKED: ENDBRANCH  36  37
DOCKED: ENDBRANCH  22  36
DOCKED: BRANCH  12  42
DOCKED: ATOM     42  C   UNL d   1      -4.470   6.537  -0.245 -0.60 +0.00    +0.004 C 
DOCKED: ATOM     43  C   UNL d   1      -3.270   6.627   0.345 -0.44 +0.00    +0.012 C 
DOCKED: ENDBRANCH  12  42
DOCKED: BRANCH  17  44
DOCKED: ATOM     44  C   UNL d   1      -4.776  -1.299  -1.728 -0.61 +0.00    +0.004 C 
DOCKED: ATOM     45  C   UNL d   1      -5.327  -1.859  -2.809 -0.68 +0.00    +0.012 C 
DOCKED: ENDBRANCH  17  44
DOCKED: TORSDOF 10
DOCKED: TER
DOCKED: ENDMDL
________________________________________________________________________________


	BEGINNING GENETIC ALGORITHM DOCKING 46 of 100
Run: 46 Seed: 37472308 416108639 [ Run 46 of 100 GA/GALS ]
Beginning LAMARCKIAN GENETIC ALGORITHM (LGA), with a maximum of 25000000 energy evaluations.

Final-Value: -9.788


	FINAL GENETIC ALGORITHM DOCKED STATE
	_______________________________________________


Detailed state:  trans -1.762 17.211 8.661 quatxyzw -0.086898 0.527727 0.844617 0.023988 center -0.174 -0.001 -0.047 ntor 10 164.4979 -45.7322 177.4778 6.2651 -95.7913 -12.4305 2.2438 -58.2285 -11.6215 13.0047
State:	 -1.762  17.211   8.661  -0.087  0.528  0.845 177.251    164.50  -45.73  177.48    6.27  -95.79  -12.43    2.24  -58.23  -11.62   13.00

DOCKED: MODEL       46
DOCKED: USER    Run = 46
DOCKED: USER    DPF = D:/Protein_go_brrr/autodock/final/mut_D99N/heme_Fe/dock.dpf
DOCKED: USER  
DOCKED: USER    Estimated Free Energy of Binding    =   -4.62 kcal/mol  [=(1)+(2)+(3)-(4)]
DOCKED: USER    Estimated Inhibition Constant, Ki   =  408.99 uM (micromolar)  [Temperature = 298.15 K]
DOCKED: USER    
DOCKED: USER    (1) Final Intermolecular Energy     =   -7.61 kcal/mol
DOCKED: USER        vdW + Hbond + desolv Energy     =   -7.60 kcal/mol
DOCKED: USER        Electrostatic Energy            =   -0.00 kcal/mol
DOCKED: USER    (2) Final Total Internal Energy     =   -2.18 kcal/mol
DOCKED: USER    (3) Torsional Free Energy           =   +2.98 kcal/mol
DOCKED: USER    (4) Unbound System's Energy  [=(2)] =   -2.18 kcal/mol
DOCKED: USER    
DOCKED: USER    
DOCKED: USER    NEWDPF move heme_Fe_opt.pdbqt
DOCKED: USER    NEWDPF about -0.174000 -0.001000 -0.047000
DOCKED: USER    NEWDPF tran0 -1.761539 17.211214 8.661228
DOCKED: USER    NEWDPF quaternion0 -0.086898 0.527727 0.844617 0.023988
DOCKED: USER    NEWDPF axisangle0 -0.086923 0.527878 0.844860 177.250924
DOCKED: USER    NEWDPF quat0 -0.086923 0.527878 0.844860 177.250924
DOCKED: USER    NEWDPF dihe0 164.50 -45.73 177.48 6.27 -95.79 -12.43 2.24 -58.23 -11.62 13.00 
DOCKED: USER  keepresnum = 1 
DOCKED: USER  
DOCKED: REMARK  10 active torsions:
DOCKED: REMARK  status: ('A' for Active; 'I' for Inactive)
DOCKED: REMARK    1  A    between atoms: C_6  and  C_10 
DOCKED: REMARK    2  A    between atoms: C_10  and  C_11 
DOCKED: REMARK    3  A    between atoms: C_11  and  C_12 
DOCKED: REMARK    4  A    between atoms: C_12  and  O_14 
DOCKED: REMARK    5  A    between atoms: C_17  and  C_20 
DOCKED: REMARK    6  A    between atoms: C_24  and  C_27 
DOCKED: REMARK    7  A    between atoms: C_31  and  C_34 
DOCKED: REMARK    8  A    between atoms: C_34  and  C_35 
DOCKED: REMARK    9  A    between atoms: C_35  and  C_36 
DOCKED: REMARK   10  A    between atoms: C_36  and  O_38 
DOCKED: USER                              x       y       z     vdW  Elec       q    Type
DOCKED: USER                           _______ _______ _______ _____ _____    ______ ____
DOCKED: ROOT
DOCKED: ATOM      1  C   UNL d   1       0.099  17.971   9.077 -0.15 +0.00    +0.064 C 
DOCKED: ATOM      2  C   UNL d   1      -3.290  18.785   5.572 -0.11 +0.02    +0.064 A 
DOCKED: ATOM      3  C   UNL d   1      -6.525  16.465   8.258 -0.20 -0.00    +0.064 C 
DOCKED: ATOM      4  C   UNL d   1      -3.235  15.574  11.615 -0.21 -0.02    +0.064 C 
DOCKED: ATOM      5  C   UNL d   1      -0.534  18.343   7.804 -0.25 +0.01    +0.066 A 
DOCKED: ATOM      6  C   UNL d   1       0.124  18.931   6.736 -0.24 -0.00    -0.021 A 
DOCKED: ATOM      7  C   UNL d   1      -0.819  19.161   5.765 -0.22 -0.00    -0.025 A 
DOCKED: ATOM      8  C   UNL d   1      -2.017  18.702   6.277 -0.17 +0.01    +0.066 A 
DOCKED: ATOM      9  C   UNL d   1      -0.570  19.767   4.418 -0.19 +0.01    +0.051 C 
DOCKED: ATOM     10  C   UNL d   1      -4.449  18.300   6.020 -0.21 +0.02    +0.066 A 
DOCKED: ATOM     11  C   UNL d   1      -5.673  18.495   5.374 -0.22 -0.01    -0.021 A 
DOCKED: ATOM     12  C   UNL d   1      -6.625  17.850   6.138 -0.20 +0.00    +0.000 A 
DOCKED: ATOM     13  C   UNL d   1      -5.927  17.295   7.225 -0.23 +0.01    +0.070 A 
DOCKED: ATOM     14  C   UNL d   1      -5.933  19.316   4.127 -0.15 +0.03    +0.052 C 
DOCKED: ATOM     15  C   UNL d   1      -5.868  15.972   9.335 -0.27 -0.01    +0.066 A 
DOCKED: ATOM     16  C   UNL d   1      -6.451  15.100  10.246 -0.30 +0.00    -0.021 A 
DOCKED: ATOM     17  C   UNL d   1      -5.505  14.845  11.217 -0.28 -0.00    +0.000 A 
DOCKED: ATOM     18  C   UNL d   1      -4.366  15.571  10.876 -0.23 -0.01    +0.070 A 
DOCKED: ATOM     19  C   UNL d   1      -7.851  14.547  10.221 -0.37 -0.02    +0.052 C 
DOCKED: ATOM     20  C   UNL d   1      -1.997  16.277  11.256 -0.22 -0.01    +0.066 A 
DOCKED: ATOM     21  C   UNL d   1      -0.892  16.454  12.101 -0.17 +0.00    -0.025 A 
DOCKED: ATOM     22  C   UNL d   1       0.051  17.128  11.353 -0.13 +0.00    -0.021 A 
DOCKED: ATOM     23  C   UNL d   1      -0.515  17.341  10.090 -0.12 +0.00    +0.066 A 
DOCKED: ATOM     24  C   UNL d   1      -0.724  16.018  13.538 -0.20 -0.01    +0.051 C 
DOCKED: ATOM     25  N   UNL d   1      -1.839  18.197   7.514 -0.18 -0.02    -0.248 N 
DOCKED: ATOM     26  N   UNL d   1      -4.602  17.577   7.158 -0.17 -0.03    -0.248 N 
DOCKED: ATOM     27  N   UNL d   1      -4.573  16.230   9.697 -0.16 +0.02    -0.248 N 
DOCKED: ATOM     28  N   UNL d   1      -1.781  16.859  10.052 -0.17 +0.01    -0.248 N 
DOCKED: ATOM     29 FE   UNL d   1      -3.192  17.217   8.607 -0.05 -0.00    +0.000 Fe
DOCKED: ENDROOT
DOCKED: BRANCH   6  30
DOCKED: ATOM     30  C   UNL d   1       1.578  19.242   6.633 -0.19 +0.00    +0.052 C 
DOCKED: BRANCH  30  31
DOCKED: ATOM     31  C   UNL d   1       2.379  17.982   6.324 -0.23 +0.01    +0.115 C 
DOCKED: BRANCH  31  32
DOCKED: ATOM     32  C   UNL d   1       3.849  18.291   6.276 -0.18 +0.01    +0.139 C 
DOCKED: ATOM     33  O   UNL d   1       4.404  18.519   5.210 +0.00 -0.02    -0.650 OA
DOCKED: BRANCH  32  34
DOCKED: ATOM     34  O   UNL d   1       4.570  18.320   7.410 +0.04 -0.01    -0.776 OA
DOCKED: ATOM     35  H   UNL d   1       4.107  18.367   8.259 +0.03 +0.00    +0.167 HD
DOCKED: ENDBRANCH  32  34
DOCKED: ENDBRANCH  31  32
DOCKED: ENDBRANCH  30  31
DOCKED: ENDBRANCH   6  30
DOCKED: BRANCH  22  36
DOCKED: ATOM     36  C   UNL d   1       1.400  17.584  11.843 -0.10 -0.00    +0.052 C 
DOCKED: BRANCH  36  37
DOCKED: ATOM     37  C   UNL d   1       2.493  16.757  11.182 -0.09 -0.00    +0.115 C 
DOCKED: BRANCH  37  38
DOCKED: ATOM     38  C   UNL d   1       3.438  17.632  10.409 -0.08 -0.00    +0.139 C 
DOCKED: ATOM     39  O   UNL d   1       3.161  18.800  10.177 -0.00 +0.00    -0.650 OA
DOCKED: BRANCH  38  40
DOCKED: ATOM     40  O   UNL d   1       4.603  17.131   9.961 +0.02 +0.01    -0.776 OA
DOCKED: ATOM     41  H   UNL d   1       4.873  17.312   9.050 +0.03 -0.00    +0.167 HD
DOCKED: ENDBRANCH  38  40
DOCKED: ENDBRANCH  37  38
DOCKED: ENDBRANCH  36  37
DOCKED: ENDBRANCH  22  36
DOCKED: BRANCH  12  42
DOCKED: ATOM     42  C   UNL d   1      -8.087  17.807   5.827 -0.13 +0.00    +0.004 C 
DOCKED: ATOM     43  C   UNL d   1      -9.001  18.025   6.780 -0.15 -0.00    +0.012 C 
DOCKED: ENDBRANCH  12  42
DOCKED: BRANCH  17  44
DOCKED: ATOM     44  C   UNL d   1      -5.673  13.948  12.382 -0.33 -0.00    +0.004 C 
DOCKED: ATOM     45  C   UNL d   1      -5.939  12.648  12.214 -0.47 -0.00    +0.012 C 
DOCKED: ENDBRANCH  17  44
DOCKED: TORSDOF 10
DOCKED: TER
DOCKED: ENDMDL
________________________________________________________________________________


	BEGINNING GENETIC ALGORITHM DOCKING 47 of 100
Run: 47 Seed: 1199955189 1927743822 [ Run 47 of 100 GA/GALS ]
Beginning LAMARCKIAN GENETIC ALGORITHM (LGA), with a maximum of 25000000 energy evaluations.

Final-Value: -10.420


	FINAL GENETIC ALGORITHM DOCKED STATE
	_______________________________________________


Detailed state:  trans 16.342 -1.421 2.862 quatxyzw -0.328102 -0.561046 -0.654066 0.387007 center -0.174 -0.001 -0.047 ntor 10 12.8159 -177.6489 -173.5339 -154.8231 -98.3519 -63.5663 -86.9785 3.3996 -180.0000 159.8535
State:	 16.342  -1.421   2.862  -0.356 -0.608 -0.709 134.463     12.82 -177.65 -173.53 -154.82  -98.35  -63.57  -86.98    3.40 -180.00  159.85

DOCKED: MODEL       47
DOCKED: USER    Run = 47
DOCKED: USER    DPF = D:/Protein_go_brrr/autodock/final/mut_D99N/heme_Fe/dock.dpf
DOCKED: USER  
DOCKED: USER    Estimated Free Energy of Binding    =   -5.15 kcal/mol  [=(1)+(2)+(3)-(4)]
DOCKED: USER    Estimated Inhibition Constant, Ki   =  168.48 uM (micromolar)  [Temperature = 298.15 K]
DOCKED: USER    
DOCKED: USER    (1) Final Intermolecular Energy     =   -8.13 kcal/mol
DOCKED: USER        vdW + Hbond + desolv Energy     =   -7.73 kcal/mol
DOCKED: USER        Electrostatic Energy            =   -0.40 kcal/mol
DOCKED: USER    (2) Final Total Internal Energy     =   -2.29 kcal/mol
DOCKED: USER    (3) Torsional Free Energy           =   +2.98 kcal/mol
DOCKED: USER    (4) Unbound System's Energy  [=(2)] =   -2.29 kcal/mol
DOCKED: USER    
DOCKED: USER    
DOCKED: USER    NEWDPF move heme_Fe_opt.pdbqt
DOCKED: USER    NEWDPF about -0.174000 -0.001000 -0.047000
DOCKED: USER    NEWDPF tran0 16.341960 -1.420681 2.862333
DOCKED: USER    NEWDPF quaternion0 -0.328102 -0.561046 -0.654066 0.387007
DOCKED: USER    NEWDPF axisangle0 -0.355829 -0.608459 -0.709340 134.463182
DOCKED: USER    NEWDPF quat0 -0.355829 -0.608459 -0.709340 134.463182
DOCKED: USER    NEWDPF dihe0 12.82 -177.65 -173.53 -154.82 -98.35 -63.57 -86.98 3.40 -180.00 159.85 
DOCKED: USER  keepresnum = 1 
DOCKED: USER  
DOCKED: REMARK  10 active torsions:
DOCKED: REMARK  status: ('A' for Active; 'I' for Inactive)
DOCKED: REMARK    1  A    between atoms: C_6  and  C_10 
DOCKED: REMARK    2  A    between atoms: C_10  and  C_11 
DOCKED: REMARK    3  A    between atoms: C_11  and  C_12 
DOCKED: REMARK    4  A    between atoms: C_12  and  O_14 
DOCKED: REMARK    5  A    between atoms: C_17  and  C_20 
DOCKED: REMARK    6  A    between atoms: C_24  and  C_27 
DOCKED: REMARK    7  A    between atoms: C_31  and  C_34 
DOCKED: REMARK    8  A    between atoms: C_34  and  C_35 
DOCKED: REMARK    9  A    between atoms: C_35  and  C_36 
DOCKED: REMARK   10  A    between atoms: C_36  and  O_38 
DOCKED: USER                              x       y       z     vdW  Elec       q    Type
DOCKED: USER                           _______ _______ _______ _____ _____    ______ ____
DOCKED: ROOT
DOCKED: ATOM      1  C   UNL d   1      17.771  -2.893   2.897 -0.30 -0.01    +0.064 C 
DOCKED: ATOM      2  C   UNL d   1      16.290   0.443  -0.437 -0.20 -0.01    +0.064 A 
DOCKED: ATOM      3  C   UNL d   1      13.954   2.784   3.046 -0.20 +0.00    +0.064 C 
DOCKED: ATOM      4  C   UNL d   1      15.288  -0.491   6.268 -0.15 +0.01    +0.064 C 
DOCKED: ATOM      5  C   UNL d   1      17.501  -2.217   1.620 -0.27 -0.01    +0.066 A 
DOCKED: ATOM      6  C   UNL d   1      17.921  -2.672   0.381 -0.32 +0.00    -0.021 A 
DOCKED: ATOM      7  C   UNL d   1      17.513  -1.743  -0.544 -0.29 +0.00    -0.025 A 
DOCKED: ATOM      8  C   UNL d   1      16.859  -0.756   0.167 -0.21 -0.01    +0.066 A 
DOCKED: ATOM      9  C   UNL d   1      17.727  -1.818  -2.025 -0.41 -0.01    +0.051 C 
DOCKED: ATOM     10  C   UNL d   1      15.605   1.381   0.218 -0.17 -0.00    +0.066 A 
DOCKED: ATOM     11  C   UNL d   1      15.172   2.574  -0.366 -0.16 -0.00    -0.021 A 
DOCKED: ATOM     12  C   UNL d   1      14.510   3.275   0.622 -0.14 +0.00    +0.000 A 
DOCKED: ATOM     13  C   UNL d   1      14.581   2.469   1.772 -0.16 +0.00    +0.070 A 
DOCKED: ATOM     14  C   UNL d   1      15.436   3.054  -1.779 -0.03 +0.00    +0.052 C 
DOCKED: ATOM     15  C   UNL d   1      14.064   2.037   4.170 -0.21 +0.00    +0.066 A 
DOCKED: ATOM     16  C   UNL d   1      13.369   2.319   5.339 -0.23 -0.00    -0.021 A 
DOCKED: ATOM     17  C   UNL d   1      13.755   1.378   6.271 -0.27 +0.00    +0.000 A 
DOCKED: ATOM     18  C   UNL d   1      14.681   0.544   5.648 -0.25 +0.00    +0.070 A 
DOCKED: ATOM     19  C   UNL d   1      12.399   3.444   5.582 -0.23 +0.01    +0.052 C 
DOCKED: ATOM     20  C   UNL d   1      16.221  -1.426   5.628 -0.24 -0.00    +0.066 A 
DOCKED: ATOM     21  C   UNL d   1      17.007  -2.373   6.299 -0.27 +0.00    -0.025 A 
DOCKED: ATOM     22  C   UNL d   1      17.696  -3.055   5.318 -0.24 +0.00    -0.021 A 
DOCKED: ATOM     23  C   UNL d   1      17.311  -2.496   4.094 -0.23 -0.01    +0.066 A 
DOCKED: ATOM     24  C   UNL d   1      17.113  -2.628   7.785 -0.22 -0.00    +0.051 C 
DOCKED: ATOM     25  N   UNL d   1      16.845  -1.052   1.482 -0.11 +0.01    -0.248 N 
DOCKED: ATOM     26  N   UNL d   1      15.256   1.319   1.528 -0.10 -0.00    -0.248 N 
DOCKED: ATOM     27  N   UNL d   1      14.839   0.922   4.344 -0.17 -0.00    -0.248 N 
DOCKED: ATOM     28  N   UNL d   1      16.445  -1.473   4.292 -0.18 +0.03    -0.248 N 
DOCKED: ATOM     29 FE   UNL d   1      15.850  -0.077   2.912 -0.05 -0.00    +0.000 Fe
DOCKED: ENDROOT
DOCKED: BRANCH   6  30
DOCKED: ATOM     30  C   UNL d   1      18.655  -3.936   0.085 -0.35 -0.02    +0.052 C 
DOCKED: BRANCH  30  31
DOCKED: ATOM     31  C   UNL d   1      20.162  -3.708   0.129 -0.23 -0.01    +0.115 C 
DOCKED: BRANCH  31  32
DOCKED: ATOM     32  C   UNL d   1      20.701  -4.019   1.498 -0.19 +0.00    +0.139 C 
DOCKED: ATOM     33  O   UNL d   1      20.909  -3.123   2.304 +0.03 -0.03    -0.650 OA
DOCKED: BRANCH  32  34
DOCKED: ATOM     34  O   UNL d   1      20.959  -5.290   1.849 -0.02 -0.10    -0.776 OA
DOCKED: ATOM     35  H   UNL d   1      21.124  -5.496   2.779 +0.03 +0.04    +0.167 HD
DOCKED: ENDBRANCH  32  34
DOCKED: ENDBRANCH  31  32
DOCKED: ENDBRANCH  30  31
DOCKED: ENDBRANCH   6  30
DOCKED: BRANCH  22  36
DOCKED: ATOM     36  C   UNL d   1      18.705  -4.149   5.551 -0.10 +0.00    +0.052 C 
DOCKED: BRANCH  36  37
DOCKED: ATOM     37  C   UNL d   1      20.112  -3.598   5.368 -0.10 +0.01    +0.115 C 
DOCKED: BRANCH  37  38
DOCKED: ATOM     38  C   UNL d   1      21.140  -4.681   5.532 -0.12 +0.03    +0.139 C 
DOCKED: ATOM     39  O   UNL d   1      21.276  -5.257   6.602 +0.01 -0.16    -0.650 OA
DOCKED: BRANCH  38  40
DOCKED: ATOM     40  O   UNL d   1      21.926  -5.023   4.496 -0.01 -0.24    -0.776 OA
DOCKED: ATOM     41  H   UNL d   1      21.838  -4.543   3.661 +0.03 +0.04    +0.167 HD
DOCKED: ENDBRANCH  38  40
DOCKED: ENDBRANCH  37  38
DOCKED: ENDBRANCH  36  37
DOCKED: ENDBRANCH  22  36
DOCKED: BRANCH  12  42
DOCKED: ATOM     42  C   UNL d   1      13.885   4.622   0.444 -0.09 +0.00    +0.004 C 
DOCKED: ATOM     43  C   UNL d   1      14.204   5.641   1.253 -0.07 +0.00    +0.012 C 
DOCKED: ENDBRANCH  12  42
DOCKED: BRANCH  17  44
DOCKED: ATOM     44  C   UNL d   1      13.254   1.271   7.660 -0.30 +0.00    +0.004 C 
DOCKED: ATOM     45  C   UNL d   1      13.978   1.731   8.686 -0.23 +0.00    +0.012 C 
DOCKED: ENDBRANCH  17  44
DOCKED: TORSDOF 10
DOCKED: TER
DOCKED: ENDMDL
________________________________________________________________________________


	BEGINNING GENETIC ALGORITHM DOCKING 48 of 100
Run: 48 Seed: 1891377875 86933604 [ Run 48 of 100 GA/GALS ]
Beginning LAMARCKIAN GENETIC ALGORITHM (LGA), with a maximum of 25000000 energy evaluations.

Final-Value: -16.591


	FINAL GENETIC ALGORITHM DOCKED STATE
	_______________________________________________


Detailed state:  trans -8.988 1.148 1.502 quatxyzw 0.934209 0.158900 -0.251294 0.197117 center -0.174 -0.001 -0.047 ntor 10 47.2073 -104.6336 37.2680 -142.2988 103.9877 -119.0045 -32.8951 5.2557 -140.1779 146.1959
State:	 -8.988   1.148   1.502   0.953  0.162 -0.256 157.263     47.21 -104.63   37.27 -142.30  103.99 -119.00  -32.90    5.26 -140.18  146.20

DOCKED: MODEL       48
DOCKED: USER    Run = 48
DOCKED: USER    DPF = D:/Protein_go_brrr/autodock/final/mut_D99N/heme_Fe/dock.dpf
DOCKED: USER  
DOCKED: USER    Estimated Free Energy of Binding    =  -11.99 kcal/mol  [=(1)+(2)+(3)-(4)]
DOCKED: USER    Estimated Inhibition Constant, Ki   =    1.63 nM (nanomolar)  [Temperature = 298.15 K]
DOCKED: USER    
DOCKED: USER    (1) Final Intermolecular Energy     =  -14.97 kcal/mol
DOCKED: USER        vdW + Hbond + desolv Energy     =  -12.79 kcal/mol
DOCKED: USER        Electrostatic Energy            =   -2.18 kcal/mol
DOCKED: USER    (2) Final Total Internal Energy     =   -1.62 kcal/mol
DOCKED: USER    (3) Torsional Free Energy           =   +2.98 kcal/mol
DOCKED: USER    (4) Unbound System's Energy  [=(2)] =   -1.62 kcal/mol
DOCKED: USER    
DOCKED: USER    
DOCKED: USER    NEWDPF move heme_Fe_opt.pdbqt
DOCKED: USER    NEWDPF about -0.174000 -0.001000 -0.047000
DOCKED: USER    NEWDPF tran0 -8.987785 1.147820 1.502389
DOCKED: USER    NEWDPF quaternion0 0.934209 0.158900 -0.251294 0.197117
DOCKED: USER    NEWDPF axisangle0 0.952905 0.162080 -0.256323 157.263126
DOCKED: USER    NEWDPF quat0 0.952905 0.162080 -0.256323 157.263126
DOCKED: USER    NEWDPF dihe0 47.21 -104.63 37.27 -142.30 103.99 -119.00 -32.90 5.26 -140.18 146.20 
DOCKED: USER  keepresnum = 1 
DOCKED: USER  
DOCKED: REMARK  10 active torsions:
DOCKED: REMARK  status: ('A' for Active; 'I' for Inactive)
DOCKED: REMARK    1  A    between atoms: C_6  and  C_10 
DOCKED: REMARK    2  A    between atoms: C_10  and  C_11 
DOCKED: REMARK    3  A    between atoms: C_11  and  C_12 
DOCKED: REMARK    4  A    between atoms: C_12  and  O_14 
DOCKED: REMARK    5  A    between atoms: C_17  and  C_20 
DOCKED: REMARK    6  A    between atoms: C_24  and  C_27 
DOCKED: REMARK    7  A    between atoms: C_31  and  C_34 
DOCKED: REMARK    8  A    between atoms: C_34  and  C_35 
DOCKED: REMARK    9  A    between atoms: C_35  and  C_36 
DOCKED: REMARK   10  A    between atoms: C_36  and  O_38 
DOCKED: USER                              x       y       z     vdW  Elec       q    Type
DOCKED: USER                           _______ _______ _______ _____ _____    ______ ____
DOCKED: ROOT
DOCKED: ATOM      1  C   UNL d   1     -10.913   0.568   1.911 -0.37 +0.03    +0.064 C 
DOCKED: ATOM      2  C   UNL d   1      -8.462   4.857   2.070 -0.42 +0.01    +0.064 A 
DOCKED: ATOM      3  C   UNL d   1      -4.958   2.872  -0.548 -0.40 +0.01    +0.064 C 
DOCKED: ATOM      4  C   UNL d   1      -7.265  -1.318  -0.625 -0.42 +0.01    +0.064 C 
DOCKED: ATOM      5  C   UNL d   1     -10.509   1.935   2.270 -0.13 +0.02    +0.066 A 
DOCKED: ATOM      6  C   UNL d   1     -11.221   2.775   3.110 -0.21 -0.01    -0.021 A 
DOCKED: ATOM      7  C   UNL d   1     -10.541   3.967   3.151 -0.35 -0.00    -0.025 A 
DOCKED: ATOM      8  C   UNL d   1      -9.439   3.809   2.333 -0.35 +0.02    +0.066 A 
DOCKED: ATOM      9  C   UNL d   1     -10.926   5.176   3.947 -0.42 +0.00    +0.051 C 
DOCKED: ATOM     10  C   UNL d   1      -7.360   4.712   1.331 -0.38 +0.01    +0.066 A 
DOCKED: ATOM     11  C   UNL d   1      -6.503   5.766   1.004 -0.47 -0.00    -0.021 A 
DOCKED: ATOM     12  C   UNL d   1      -5.493   5.222   0.235 -0.47 +0.00    +0.000 A 
DOCKED: ATOM     13  C   UNL d   1      -5.794   3.854   0.125 -0.38 +0.01    +0.070 A 
DOCKED: ATOM     14  C   UNL d   1      -6.674   7.231   1.349 -0.54 +0.01    +0.052 C 
DOCKED: ATOM     15  C   UNL d   1      -5.269   1.563  -0.701 -0.39 +0.01    +0.066 A 
DOCKED: ATOM     16  C   UNL d   1      -4.399   0.637  -1.263 -0.36 -0.00    -0.021 A 
DOCKED: ATOM     17  C   UNL d   1      -5.064  -0.571  -1.289 -0.42 +0.00    +0.000 A 
DOCKED: ATOM     18  C   UNL d   1      -6.328  -0.353  -0.746 -0.41 +0.01    +0.070 A 
DOCKED: ATOM     19  C   UNL d   1      -3.007   0.881  -1.779 -0.38 +0.00    +0.052 C 
DOCKED: ATOM     20  C   UNL d   1      -8.582  -1.140  -0.002 -0.34 +0.01    +0.066 A 
DOCKED: ATOM     21  C   UNL d   1      -9.632  -2.068  -0.048 -0.12 -0.01    -0.025 A 
DOCKED: ATOM     22  C   UNL d   1     -10.657  -1.515   0.691 -0.16 -0.01    -0.021 A 
DOCKED: ATOM     23  C   UNL d   1     -10.197  -0.276   1.152 -0.35 +0.03    +0.066 A 
DOCKED: ATOM     24  C   UNL d   1      -9.680  -3.404  -0.752 -0.14 +0.01    +0.051 C 
DOCKED: ATOM     25  N   UNL d   1      -9.418   2.568   1.806 -0.17 -0.09    -0.248 N 
DOCKED: ATOM     26  N   UNL d   1      -6.937   3.544   0.786 -0.17 -0.06    -0.248 N 
DOCKED: ATOM     27  N   UNL d   1      -6.440   0.949  -0.344 -0.27 -0.03    -0.248 N 
DOCKED: ATOM     28  N   UNL d   1      -8.947  -0.033   0.688 -0.26 -0.07    -0.248 N 
DOCKED: ATOM     29 FE   UNL d   1      -7.942   1.754   0.736 -0.09 +0.00    +0.000 Fe
DOCKED: ENDROOT
DOCKED: BRANCH   6  30
DOCKED: ATOM     30  C   UNL d   1     -12.472   2.457   3.855 -0.23 +0.02    +0.052 C 
DOCKED: BRANCH  30  31
DOCKED: ATOM     31  C   UNL d   1     -13.521   1.863   2.921 -0.21 +0.05    +0.115 C 
DOCKED: BRANCH  31  32
DOCKED: ATOM     32  C   UNL d   1     -14.370   0.862   3.653 -0.13 +0.10    +0.139 C 
DOCKED: ATOM     33  O   UNL d   1     -15.507   1.147   4.005 +0.02 -0.29    -0.650 OA
DOCKED: BRANCH  32  34
DOCKED: ATOM     34  O   UNL d   1     -13.886  -0.361   3.928 +0.06 -1.39    -0.776 OA
DOCKED: ATOM     35  H   UNL d   1     -14.433  -1.136   3.738 +0.03 +0.37    +0.167 HD
DOCKED: ENDBRANCH  32  34
DOCKED: ENDBRANCH  31  32
DOCKED: ENDBRANCH  30  31
DOCKED: ENDBRANCH   6  30
DOCKED: BRANCH  22  36
DOCKED: ATOM     36  C   UNL d   1     -12.019  -2.125   0.901 +0.28 +0.06    +0.052 C 
DOCKED: BRANCH  36  37
DOCKED: ATOM     37  C   UNL d   1     -13.083  -1.227   0.286 -0.08 +0.08    +0.115 C 
DOCKED: BRANCH  37  38
DOCKED: ATOM     38  C   UNL d   1     -14.461  -1.753   0.572 -0.14 +0.11    +0.139 C 
DOCKED: ATOM     39  O   UNL d   1     -15.209  -2.075  -0.340 +0.00 -0.26    -0.650 OA
DOCKED: BRANCH  38  40
DOCKED: ATOM     40  O   UNL d   1     -14.885  -1.869   1.843 -0.43 -1.13    -0.776 OA
DOCKED: ATOM     41  H   UNL d   1     -15.139  -1.072   2.329 +0.02 +0.19    +0.167 HD
DOCKED: ENDBRANCH  38  40
DOCKED: ENDBRANCH  37  38
DOCKED: ENDBRANCH  36  37
DOCKED: ENDBRANCH  22  36
DOCKED: BRANCH  12  42
DOCKED: ATOM     42  C   UNL d   1      -4.352   5.994  -0.348 -0.64 +0.00    +0.004 C 
DOCKED: ATOM     43  C   UNL d   1      -3.246   6.236   0.367 -0.60 +0.00    +0.012 C 
DOCKED: ENDBRANCH  12  42
DOCKED: BRANCH  17  44
DOCKED: ATOM     44  C   UNL d   1      -4.518  -1.856  -1.783 -0.66 -0.00    +0.004 C 
DOCKED: ATOM     45  C   UNL d   1      -4.631  -2.198  -3.070 -0.73 -0.00    +0.012 C 
DOCKED: ENDBRANCH  17  44
DOCKED: TORSDOF 10
DOCKED: TER
DOCKED: ENDMDL
________________________________________________________________________________


	BEGINNING GENETIC ALGORITHM DOCKING 49 of 100
Run: 49 Seed: 218023585 291825459 [ Run 49 of 100 GA/GALS ]
Beginning LAMARCKIAN GENETIC ALGORITHM (LGA), with a maximum of 25000000 energy evaluations.

Final-Value: -16.361


	FINAL GENETIC ALGORITHM DOCKED STATE
	_______________________________________________


Detailed state:  trans -9.184 0.799 1.453 quatxyzw 0.928192 0.184792 -0.240636 0.215421 center -0.174 -0.001 -0.047 ntor 10 -137.7378 86.9737 64.2149 -139.7292 -5.4929 118.2225 86.0089 58.0993 25.1989 138.4380
State:	 -9.184   0.799   1.453   0.951  0.189 -0.246 155.120   -137.74   86.97   64.21 -139.73   -5.49  118.22   86.01   58.10   25.20  138.44

DOCKED: MODEL       49
DOCKED: USER    Run = 49
DOCKED: USER    DPF = D:/Protein_go_brrr/autodock/final/mut_D99N/heme_Fe/dock.dpf
DOCKED: USER  
DOCKED: USER    Estimated Free Energy of Binding    =  -12.91 kcal/mol  [=(1)+(2)+(3)-(4)]
DOCKED: USER    Estimated Inhibition Constant, Ki   =  343.88 pM (picomolar)  [Temperature = 298.15 K]
DOCKED: USER    
DOCKED: USER    (1) Final Intermolecular Energy     =  -15.89 kcal/mol
DOCKED: USER        vdW + Hbond + desolv Energy     =  -12.90 kcal/mol
DOCKED: USER        Electrostatic Energy            =   -2.99 kcal/mol
DOCKED: USER    (2) Final Total Internal Energy     =   -0.47 kcal/mol
DOCKED: USER    (3) Torsional Free Energy           =   +2.98 kcal/mol
DOCKED: USER    (4) Unbound System's Energy  [=(2)] =   -0.47 kcal/mol
DOCKED: USER    
DOCKED: USER    
DOCKED: USER    NEWDPF move heme_Fe_opt.pdbqt
DOCKED: USER    NEWDPF about -0.174000 -0.001000 -0.047000
DOCKED: USER    NEWDPF tran0 -9.183736 0.799494 1.452516
DOCKED: USER    NEWDPF quaternion0 0.928192 0.184792 -0.240636 0.215421
DOCKED: USER    NEWDPF axisangle0 0.950509 0.189235 -0.246422 155.119601
DOCKED: USER    NEWDPF quat0 0.950509 0.189235 -0.246422 155.119601
DOCKED: USER    NEWDPF dihe0 -137.74 86.97 64.21 -139.73 -5.49 118.22 86.01 58.10 25.20 138.44 
DOCKED: USER  keepresnum = 1 
DOCKED: USER  
DOCKED: REMARK  10 active torsions:
DOCKED: REMARK  status: ('A' for Active; 'I' for Inactive)
DOCKED: REMARK    1  A    between atoms: C_6  and  C_10 
DOCKED: REMARK    2  A    between atoms: C_10  and  C_11 
DOCKED: REMARK    3  A    between atoms: C_11  and  C_12 
DOCKED: REMARK    4  A    between atoms: C_12  and  O_14 
DOCKED: REMARK    5  A    between atoms: C_17  and  C_20 
DOCKED: REMARK    6  A    between atoms: C_24  and  C_27 
DOCKED: REMARK    7  A    between atoms: C_31  and  C_34 
DOCKED: REMARK    8  A    between atoms: C_34  and  C_35 
DOCKED: REMARK    9  A    between atoms: C_35  and  C_36 
DOCKED: REMARK   10  A    between atoms: C_36  and  O_38 
DOCKED: USER                              x       y       z     vdW  Elec       q    Type
DOCKED: USER                           _______ _______ _______ _____ _____    ______ ____
DOCKED: ROOT
DOCKED: ATOM      1  C   UNL d   1     -11.094   0.129   1.788 -0.37 +0.04    +0.064 C 
DOCKED: ATOM      2  C   UNL d   1      -8.808   4.490   2.226 -0.40 +0.01    +0.064 A 
DOCKED: ATOM      3  C   UNL d   1      -5.181   2.776  -0.414 -0.44 +0.01    +0.064 C 
DOCKED: ATOM      4  C   UNL d   1      -7.327  -1.486  -0.762 -0.31 +0.01    +0.064 C 
DOCKED: ATOM      5  C   UNL d   1     -10.749   1.489   2.226 -0.20 +0.03    +0.066 A 
DOCKED: ATOM      6  C   UNL d   1     -11.508   2.257   3.093 -0.17 -0.01    -0.021 A 
DOCKED: ATOM      7  C   UNL d   1     -10.875   3.469   3.212 -0.30 -0.00    -0.025 A 
DOCKED: ATOM      8  C   UNL d   1      -9.751   3.394   2.411 -0.29 +0.02    +0.066 A 
DOCKED: ATOM      9  C   UNL d   1     -11.320   4.619   4.062 -0.36 +0.00    +0.051 C 
DOCKED: ATOM     10  C   UNL d   1      -7.687   4.425   1.505 -0.32 +0.02    +0.066 A 
DOCKED: ATOM     11  C   UNL d   1      -6.864   5.525   1.253 -0.46 -0.00    -0.021 A 
DOCKED: ATOM     12  C   UNL d   1      -5.819   5.060   0.479 -0.47 +0.00    +0.000 A 
DOCKED: ATOM     13  C   UNL d   1      -6.066   3.689   0.291 -0.38 +0.01    +0.070 A 
DOCKED: ATOM     14  C   UNL d   1      -7.096   6.962   1.671 -0.54 +0.01    +0.052 C 
DOCKED: ATOM     15  C   UNL d   1      -5.440   1.466  -0.643 -0.39 +0.01    +0.066 A 
DOCKED: ATOM     16  C   UNL d   1      -4.524   0.604  -1.233 -0.36 -0.00    -0.021 A 
DOCKED: ATOM     17  C   UNL d   1      -5.143  -0.625  -1.337 -0.46 +0.00    +0.000 A 
DOCKED: ATOM     18  C   UNL d   1      -6.425  -0.482  -0.811 -0.42 +0.01    +0.070 A 
DOCKED: ATOM     19  C   UNL d   1      -3.132   0.926  -1.704 -0.31 +0.00    +0.052 C 
DOCKED: ATOM     20  C   UNL d   1      -8.663  -1.389  -0.161 -0.17 +0.01    +0.066 A 
DOCKED: ATOM     21  C   UNL d   1      -9.676  -2.350  -0.279 +0.00 -0.01    -0.025 A 
DOCKED: ATOM     22  C   UNL d   1     -10.736  -1.876   0.466 -0.15 -0.01    -0.021 A 
DOCKED: ATOM     23  C   UNL d   1     -10.332  -0.647   1.001 -0.32 +0.03    +0.066 A 
DOCKED: ATOM     24  C   UNL d   1      -9.659  -3.648  -1.053 +0.02 +0.01    +0.051 C 
DOCKED: ATOM     25  N   UNL d   1      -9.673   2.185   1.820 -0.21 -0.08    -0.248 N 
DOCKED: ATOM     26  N   UNL d   1      -7.209   3.303   0.909 -0.10 -0.08    -0.248 N 
DOCKED: ATOM     27  N   UNL d   1      -6.593   0.792  -0.344 -0.27 -0.03    -0.248 N 
DOCKED: ATOM     28  N   UNL d   1      -9.083  -0.334   0.579 -0.26 -0.07    -0.248 N 
DOCKED: ATOM     29 FE   UNL d   1      -8.146   1.483   0.743 -0.09 +0.00    +0.000 Fe
DOCKED: ENDROOT
DOCKED: BRANCH   6  30
DOCKED: ATOM     30  C   UNL d   1     -12.761   1.854   3.793 -0.22 +0.02    +0.052 C 
DOCKED: BRANCH  30  31
DOCKED: ATOM     31  C   UNL d   1     -12.545   1.800   5.301 -0.16 +0.05    +0.115 C 
DOCKED: BRANCH  31  32
DOCKED: ATOM     32  C   UNL d   1     -12.186   0.405   5.731 -0.13 +0.11    +0.139 C 
DOCKED: ATOM     33  O   UNL d   1     -12.202  -0.518   4.929 -0.47 -1.26    -0.650 OA
DOCKED: BRANCH  32  34
DOCKED: ATOM     34  O   UNL d   1     -11.844   0.159   7.007 -0.32 -0.52    -0.776 OA
DOCKED: ATOM     35  H   UNL d   1     -12.350   0.578   7.718 +0.06 +0.07    +0.167 HD
DOCKED: ENDBRANCH  32  34
DOCKED: ENDBRANCH  31  32
DOCKED: ENDBRANCH  30  31
DOCKED: ENDBRANCH   6  30
DOCKED: BRANCH  22  36
DOCKED: ATOM     36  C   UNL d   1     -12.077  -2.544   0.612 +0.25 +0.05    +0.052 C 
DOCKED: BRANCH  36  37
DOCKED: ATOM     37  C   UNL d   1     -13.179  -1.579   0.201 -0.16 +0.08    +0.115 C 
DOCKED: BRANCH  37  38
DOCKED: ATOM     38  C   UNL d   1     -14.163  -1.377   1.318 -0.03 +0.17    +0.139 C 
DOCKED: ATOM     39  O   UNL d   1     -14.329  -0.272   1.813 -0.01 -0.58    -0.650 OA
DOCKED: BRANCH  38  40
DOCKED: ATOM     40  O   UNL d   1     -14.871  -2.420   1.786 -0.53 -1.25    -0.776 OA
DOCKED: ATOM     41  H   UNL d   1     -15.748  -2.597   1.418 +0.02 +0.13    +0.167 HD
DOCKED: ENDBRANCH  38  40
DOCKED: ENDBRANCH  37  38
DOCKED: ENDBRANCH  36  37
DOCKED: ENDBRANCH  22  36
DOCKED: BRANCH  12  42
DOCKED: ATOM     42  C   UNL d   1      -4.696   5.902  -0.038 -0.63 +0.00    +0.004 C 
DOCKED: ATOM     43  C   UNL d   1      -3.446   5.737   0.414 -0.66 +0.00    +0.012 C 
DOCKED: ENDBRANCH  12  42
DOCKED: BRANCH  17  44
DOCKED: ATOM     44  C   UNL d   1      -4.539  -1.860  -1.886 -0.67 -0.00    +0.004 C 
DOCKED: ATOM     45  C   UNL d   1      -4.568  -2.113  -3.198 -0.71 -0.00    +0.012 C 
DOCKED: ENDBRANCH  17  44
DOCKED: TORSDOF 10
DOCKED: TER
DOCKED: ENDMDL
________________________________________________________________________________


	BEGINNING GENETIC ALGORITHM DOCKING 50 of 100
Run: 50 Seed: 255923051 302370779 [ Run 50 of 100 GA/GALS ]
Beginning LAMARCKIAN GENETIC ALGORITHM (LGA), with a maximum of 25000000 energy evaluations.

Final-Value: -10.811


	FINAL GENETIC ALGORITHM DOCKED STATE
	_______________________________________________


Detailed state:  trans 15.246 -8.917 8.005 quatxyzw -0.207692 0.909723 0.351053 0.077655 center -0.174 -0.001 -0.047 ntor 10 -127.7966 65.8321 18.8180 -176.3516 -46.8127 1.2789 -52.9063 -68.0169 -2.1228 180.0000
State:	 15.246  -8.917   8.005  -0.208  0.912  0.352 171.092   -127.80   65.83   18.82 -176.35  -46.81    1.28  -52.91  -68.02   -2.12  180.00

DOCKED: MODEL       50
DOCKED: USER    Run = 50
DOCKED: USER    DPF = D:/Protein_go_brrr/autodock/final/mut_D99N/heme_Fe/dock.dpf
DOCKED: USER  
DOCKED: USER    Estimated Free Energy of Binding    =   -7.13 kcal/mol  [=(1)+(2)+(3)-(4)]
DOCKED: USER    Estimated Inhibition Constant, Ki   =    5.94 uM (micromolar)  [Temperature = 298.15 K]
DOCKED: USER    
DOCKED: USER    (1) Final Intermolecular Energy     =  -10.11 kcal/mol
DOCKED: USER        vdW + Hbond + desolv Energy     =   -9.16 kcal/mol
DOCKED: USER        Electrostatic Energy            =   -0.95 kcal/mol
DOCKED: USER    (2) Final Total Internal Energy     =   -0.70 kcal/mol
DOCKED: USER    (3) Torsional Free Energy           =   +2.98 kcal/mol
DOCKED: USER    (4) Unbound System's Energy  [=(2)] =   -0.70 kcal/mol
DOCKED: USER    
DOCKED: USER    
DOCKED: USER    NEWDPF move heme_Fe_opt.pdbqt
DOCKED: USER    NEWDPF about -0.174000 -0.001000 -0.047000
DOCKED: USER    NEWDPF tran0 15.245826 -8.916567 8.004801
DOCKED: USER    NEWDPF quaternion0 -0.207692 0.909723 0.351053 0.077655
DOCKED: USER    NEWDPF axisangle0 -0.208321 0.912478 0.352117 171.092406
DOCKED: USER    NEWDPF quat0 -0.208321 0.912478 0.352117 171.092406
DOCKED: USER    NEWDPF dihe0 -127.80 65.83 18.82 -176.35 -46.81 1.28 -52.91 -68.02 -2.12 180.00 
DOCKED: USER  keepresnum = 1 
DOCKED: USER  
DOCKED: REMARK  10 active torsions:
DOCKED: REMARK  status: ('A' for Active; 'I' for Inactive)
DOCKED: REMARK    1  A    between atoms: C_6  and  C_10 
DOCKED: REMARK    2  A    between atoms: C_10  and  C_11 
DOCKED: REMARK    3  A    between atoms: C_11  and  C_12 
DOCKED: REMARK    4  A    between atoms: C_12  and  O_14 
DOCKED: REMARK    5  A    between atoms: C_17  and  C_20 
DOCKED: REMARK    6  A    between atoms: C_24  and  C_27 
DOCKED: REMARK    7  A    between atoms: C_31  and  C_34 
DOCKED: REMARK    8  A    between atoms: C_34  and  C_35 
DOCKED: REMARK    9  A    between atoms: C_35  and  C_36 
DOCKED: REMARK   10  A    between atoms: C_36  and  O_38 
DOCKED: USER                              x       y       z     vdW  Elec       q    Type
DOCKED: USER                           _______ _______ _______ _____ _____    ______ ____
DOCKED: ROOT
DOCKED: ATOM      1  C   UNL d   1      16.898  -7.777   7.580 -0.27 -0.01    +0.064 C 
DOCKED: ATOM      2  C   UNL d   1      14.736 -11.692   5.476 -0.23 -0.05    +0.064 A 
DOCKED: ATOM      3  C   UNL d   1      10.823 -10.874   8.137 -0.25 -0.02    +0.064 C 
DOCKED: ATOM      4  C   UNL d   1      12.935  -7.144  10.262 -0.26 -0.02    +0.064 C 
DOCKED: ATOM      5  C   UNL d   1      16.684  -9.005   6.802 -0.27 -0.01    +0.066 A 
DOCKED: ATOM      6  C   UNL d   1      17.638  -9.610   6.001 -0.31 +0.00    -0.021 A 
DOCKED: ATOM      7  C   UNL d   1      17.036 -10.695   5.414 -0.33 +0.01    -0.025 A 
DOCKED: ATOM      8  C   UNL d   1      15.735 -10.710   5.880 -0.31 -0.03    +0.066 A 
DOCKED: ATOM      9  C   UNL d   1      17.686 -11.667   4.477 -0.33 -0.02    +0.051 C 
DOCKED: ATOM     10  C   UNL d   1      13.493 -11.763   5.953 -0.30 -0.04    +0.066 A 
DOCKED: ATOM     11  C   UNL d   1      12.524 -12.643   5.464 -0.28 +0.01    -0.021 A 
DOCKED: ATOM     12  C   UNL d   1      11.381 -12.415   6.203 -0.24 -0.00    +0.000 A 
DOCKED: ATOM     13  C   UNL d   1      11.712 -11.392   7.109 -0.24 -0.02    +0.070 A 
DOCKED: ATOM     14  C   UNL d   1      12.660 -13.605   4.301 -0.18 -0.03    +0.052 C 
DOCKED: ATOM     15  C   UNL d   1      11.119  -9.854   8.977 -0.21 -0.02    +0.066 A 
DOCKED: ATOM     16  C   UNL d   1      10.281  -9.455  10.010 -0.20 +0.01    -0.021 A 
DOCKED: ATOM     17  C   UNL d   1      10.887  -8.377  10.622 -0.21 -0.00    +0.000 A 
DOCKED: ATOM     18  C   UNL d   1      12.081  -8.141   9.944 -0.23 -0.03    +0.070 A 
DOCKED: ATOM     19  C   UNL d   1       8.951 -10.044  10.394 -0.21 -0.05    +0.052 C 
DOCKED: ATOM     20  C   UNL d   1      14.228  -6.904   9.610 -0.22 -0.02    +0.066 A 
DOCKED: ATOM     21  C   UNL d   1      15.027  -5.766   9.790 -0.21 +0.01    -0.025 A 
DOCKED: ATOM     22  C   UNL d   1      16.157  -5.973   9.027 -0.18 +0.01    -0.021 A 
DOCKED: ATOM     23  C   UNL d   1      16.002  -7.220   8.409 -0.22 -0.02    +0.066 A 
DOCKED: ATOM     24  C   UNL d   1      14.748  -4.541  10.630 -0.06 -0.01    +0.051 C 
DOCKED: ATOM     25  N   UNL d   1      15.527  -9.686   6.731 -0.20 +0.10    -0.248 N 
DOCKED: ATOM     26  N   UNL d   1      12.996 -10.989   6.952 -0.12 +0.12    -0.248 N 
DOCKED: ATOM     27  N   UNL d   1      12.245  -9.076   8.961 -0.12 +0.11    -0.248 N 
DOCKED: ATOM     28  N   UNL d   1      14.803  -7.763   8.734 -0.14 +0.10    -0.248 N 
DOCKED: ATOM     29 FE   UNL d   1      13.899  -9.375   7.844 -0.05 -0.00    +0.000 Fe
DOCKED: ENDROOT
DOCKED: BRANCH   6  30
DOCKED: ATOM     30  C   UNL d   1      19.057  -9.194   5.818 -0.29 +0.02    +0.052 C 
DOCKED: BRANCH  30  31
DOCKED: ATOM     31  C   UNL d   1      19.947  -9.820   6.886 -0.15 +0.03    +0.115 C 
DOCKED: BRANCH  31  32
DOCKED: ATOM     32  C   UNL d   1      21.106 -10.537   6.252 -0.11 +0.08    +0.139 C 
DOCKED: ATOM     33  O   UNL d   1      20.930 -11.293   5.306 -0.03 -0.32    -0.650 OA
DOCKED: BRANCH  32  34
DOCKED: ATOM     34  O   UNL d   1      22.352 -10.354   6.722 -0.13 -0.86    -0.776 OA
DOCKED: ATOM     35  H   UNL d   1      22.519 -10.473   7.667 +0.01 +0.13    +0.167 HD
DOCKED: ENDBRANCH  32  34
DOCKED: ENDBRANCH  31  32
DOCKED: ENDBRANCH  30  31
DOCKED: ENDBRANCH   6  30
DOCKED: BRANCH  22  36
DOCKED: ATOM     36  C   UNL d   1      17.298  -5.004   8.863 -0.14 -0.01    +0.052 C 
DOCKED: BRANCH  36  37
DOCKED: ATOM     37  C   UNL d   1      16.951  -3.979   7.792 -0.23 -0.02    +0.115 C 
DOCKED: BRANCH  37  38
DOCKED: ATOM     38  C   UNL d   1      16.750  -2.618   8.395 -0.18 -0.01    +0.139 C 
DOCKED: ATOM     39  O   UNL d   1      16.889  -2.438   9.596 -0.04 +0.03    -0.650 OA
DOCKED: BRANCH  38  40
DOCKED: ATOM     40  O   UNL d   1      16.408  -1.580   7.610 -0.51 -0.07    -0.776 OA
DOCKED: ATOM     41  H   UNL d   1      17.030  -0.847   7.502 +0.04 +0.01    +0.167 HD
DOCKED: ENDBRANCH  38  40
DOCKED: ENDBRANCH  37  38
DOCKED: ENDBRANCH  36  37
DOCKED: ENDBRANCH  22  36
DOCKED: BRANCH  12  42
DOCKED: ATOM     42  C   UNL d   1      10.081 -13.130   6.013 -0.32 -0.00    +0.004 C 
DOCKED: ATOM     43  C   UNL d   1       9.968 -14.438   6.282 -0.26 -0.00    +0.012 C 
DOCKED: ENDBRANCH  12  42
DOCKED: BRANCH  17  44
DOCKED: ATOM     44  C   UNL d   1      10.367  -7.634  11.793 -0.20 -0.00    +0.004 C 
DOCKED: ATOM     45  C   UNL d   1      10.148  -6.317  11.725 -0.25 -0.01    +0.012 C 
DOCKED: ENDBRANCH  17  44
DOCKED: TORSDOF 10
DOCKED: TER
DOCKED: ENDMDL
________________________________________________________________________________


	BEGINNING GENETIC ALGORITHM DOCKING 51 of 100
Run: 51 Seed: 28961193 1476915877 [ Run 51 of 100 GA/GALS ]
Beginning LAMARCKIAN GENETIC ALGORITHM (LGA), with a maximum of 25000000 energy evaluations.

Final-Value: -16.129


	FINAL GENETIC ALGORITHM DOCKED STATE
	_______________________________________________


Detailed state:  trans -9.128 1.676 1.766 quatxyzw 0.930426 0.152356 -0.268099 0.198034 center -0.174 -0.001 -0.047 ntor 10 26.2860 -127.2883 73.4517 -155.2985 -82.6225 -164.6714 58.2298 4.9627 -47.6269 -176.9197
State:	 -9.128   1.676   1.766   0.949  0.155 -0.274 157.156     26.29 -127.29   73.45 -155.30  -82.62 -164.67   58.23    4.96  -47.63 -176.92

DOCKED: MODEL       51
DOCKED: USER    Run = 51
DOCKED: USER    DPF = D:/Protein_go_brrr/autodock/final/mut_D99N/heme_Fe/dock.dpf
DOCKED: USER  
DOCKED: USER    Estimated Free Energy of Binding    =  -11.77 kcal/mol  [=(1)+(2)+(3)-(4)]
DOCKED: USER    Estimated Inhibition Constant, Ki   =    2.37 nM (nanomolar)  [Temperature = 298.15 K]
DOCKED: USER    
DOCKED: USER    (1) Final Intermolecular Energy     =  -14.75 kcal/mol
DOCKED: USER        vdW + Hbond + desolv Energy     =  -12.70 kcal/mol
DOCKED: USER        Electrostatic Energy            =   -2.05 kcal/mol
DOCKED: USER    (2) Final Total Internal Energy     =   -1.38 kcal/mol
DOCKED: USER    (3) Torsional Free Energy           =   +2.98 kcal/mol
DOCKED: USER    (4) Unbound System's Energy  [=(2)] =   -1.38 kcal/mol
DOCKED: USER    
DOCKED: USER    
DOCKED: USER    NEWDPF move heme_Fe_opt.pdbqt
DOCKED: USER    NEWDPF about -0.174000 -0.001000 -0.047000
DOCKED: USER    NEWDPF tran0 -9.127519 1.676260 1.765716
DOCKED: USER    NEWDPF quaternion0 0.930426 0.152356 -0.268099 0.198034
DOCKED: USER    NEWDPF axisangle0 0.949226 0.155435 -0.273516 157.156012
DOCKED: USER    NEWDPF quat0 0.949226 0.155435 -0.273516 157.156012
DOCKED: USER    NEWDPF dihe0 26.29 -127.29 73.45 -155.30 -82.62 -164.67 58.23 4.96 -47.63 -176.92 
DOCKED: USER  keepresnum = 1 
DOCKED: USER  
DOCKED: REMARK  10 active torsions:
DOCKED: REMARK  status: ('A' for Active; 'I' for Inactive)
DOCKED: REMARK    1  A    between atoms: C_6  and  C_10 
DOCKED: REMARK    2  A    between atoms: C_10  and  C_11 
DOCKED: REMARK    3  A    between atoms: C_11  and  C_12 
DOCKED: REMARK    4  A    between atoms: C_12  and  O_14 
DOCKED: REMARK    5  A    between atoms: C_17  and  C_20 
DOCKED: REMARK    6  A    between atoms: C_24  and  C_27 
DOCKED: REMARK    7  A    between atoms: C_31  and  C_34 
DOCKED: REMARK    8  A    between atoms: C_34  and  C_35 
DOCKED: REMARK    9  A    between atoms: C_35  and  C_36 
DOCKED: REMARK   10  A    between atoms: C_36  and  O_38 
DOCKED: USER                              x       y       z     vdW  Elec       q    Type
DOCKED: USER                           _______ _______ _______ _____ _____    ______ ____
DOCKED: ROOT
DOCKED: ATOM      1  C   UNL d   1     -11.040   1.108   2.247 -0.30 +0.03    +0.064 C 
DOCKED: ATOM      2  C   UNL d   1      -8.563   5.386   2.293 -0.45 +0.01    +0.064 A 
DOCKED: ATOM      3  C   UNL d   1      -5.167   3.369  -0.438 -0.42 +0.01    +0.064 C 
DOCKED: ATOM      4  C   UNL d   1      -7.495  -0.810  -0.409 -0.44 +0.01    +0.064 C 
DOCKED: ATOM      5  C   UNL d   1     -10.616   2.475   2.583 -0.09 +0.02    +0.066 A 
DOCKED: ATOM      6  C   UNL d   1     -11.293   3.323   3.444 -0.27 -0.00    -0.021 A 
DOCKED: ATOM      7  C   UNL d   1     -10.607   4.512   3.453 -0.37 -0.00    -0.025 A 
DOCKED: ATOM      8  C   UNL d   1      -9.536   4.344   2.597 -0.40 +0.01    +0.066 A 
DOCKED: ATOM      9  C   UNL d   1     -10.956   5.727   4.257 -0.45 -0.00    +0.051 C 
DOCKED: ATOM     10  C   UNL d   1      -7.490   5.232   1.516 -0.42 +0.01    +0.066 A 
DOCKED: ATOM     11  C   UNL d   1      -6.640   6.279   1.153 -0.48 -0.00    -0.021 A 
DOCKED: ATOM     12  C   UNL d   1      -5.661   5.727   0.351 -0.49 +0.00    +0.000 A 
DOCKED: ATOM     13  C   UNL d   1      -5.973   4.359   0.259 -0.38 +0.01    +0.070 A 
DOCKED: ATOM     14  C   UNL d   1      -6.792   7.747   1.496 -0.46 +0.01    +0.052 C 
DOCKED: ATOM     15  C   UNL d   1      -5.489   2.061  -0.573 -0.40 +0.01    +0.066 A 
DOCKED: ATOM     16  C   UNL d   1      -4.645   1.128  -1.161 -0.40 -0.00    -0.021 A 
DOCKED: ATOM     17  C   UNL d   1      -5.316  -0.077  -1.156 -0.42 +0.00    +0.000 A 
DOCKED: ATOM     18  C   UNL d   1      -6.558   0.150  -0.569 -0.40 +0.01    +0.070 A 
DOCKED: ATOM     19  C   UNL d   1      -3.271   1.363  -1.728 -0.27 +0.00    +0.052 C 
DOCKED: ATOM     20  C   UNL d   1      -8.788  -0.622   0.260 -0.35 +0.02    +0.066 A 
DOCKED: ATOM     21  C   UNL d   1      -9.843  -1.545   0.257 -0.08 -0.01    -0.025 A 
DOCKED: ATOM     22  C   UNL d   1     -10.838  -0.983   1.030 -0.30 -0.01    -0.021 A 
DOCKED: ATOM     23  C   UNL d   1     -10.356   0.257   1.467 -0.35 +0.03    +0.066 A 
DOCKED: ATOM     24  C   UNL d   1      -9.923  -2.884  -0.437 -0.21 +0.01    +0.051 C 
DOCKED: ATOM     25  N   UNL d   1      -9.539   3.100   2.076 -0.20 -0.08    -0.248 N 
DOCKED: ATOM     26  N   UNL d   1      -7.092   4.058   0.962 -0.21 -0.06    -0.248 N 
DOCKED: ATOM     27  N   UNL d   1      -6.649   1.455  -0.170 -0.26 -0.03    -0.248 N 
DOCKED: ATOM     28  N   UNL d   1      -9.122   0.491   0.957 -0.26 -0.07    -0.248 N 
DOCKED: ATOM     29 FE   UNL d   1      -8.107   2.273   0.959 -0.09 +0.00    +0.000 Fe
DOCKED: ENDROOT
DOCKED: BRANCH   6  30
DOCKED: ATOM     30  C   UNL d   1     -12.518   3.015   4.236 -0.23 +0.01    +0.052 C 
DOCKED: BRANCH  30  31
DOCKED: ATOM     31  C   UNL d   1     -12.434   1.617   4.838 -0.14 +0.06    +0.115 C 
DOCKED: BRANCH  31  32
DOCKED: ATOM     32  C   UNL d   1     -13.591   0.775   4.376 -0.14 +0.12    +0.139 C 
DOCKED: ATOM     33  O   UNL d   1     -14.677   0.849   4.933 +0.02 -0.38    -0.650 OA
DOCKED: BRANCH  32  34
DOCKED: ATOM     34  O   UNL d   1     -13.440  -0.070   3.342 -0.18 -1.20    -0.776 OA
DOCKED: ATOM     35  H   UNL d   1     -14.214  -0.308   2.814 +0.03 +0.22    +0.167 HD
DOCKED: ENDBRANCH  32  34
DOCKED: ENDBRANCH  31  32
DOCKED: ENDBRANCH  30  31
DOCKED: ENDBRANCH   6  30
DOCKED: BRANCH  22  36
DOCKED: ATOM     36  C   UNL d   1     -12.194  -1.584   1.292 +0.56 +0.07    +0.052 C 
DOCKED: BRANCH  36  37
DOCKED: ATOM     37  C   UNL d   1     -13.106  -1.332   0.101 -0.05 +0.07    +0.115 C 
DOCKED: BRANCH  37  38
DOCKED: ATOM     38  C   UNL d   1     -14.497  -1.832   0.371 -0.16 +0.10    +0.139 C 
DOCKED: ATOM     39  O   UNL d   1     -15.297  -1.978  -0.540 +0.00 -0.23    -0.650 OA
DOCKED: BRANCH  38  40
DOCKED: ATOM     40  O   UNL d   1     -14.872  -2.122   1.630 -0.50 -1.08    -0.776 OA
DOCKED: ATOM     41  H   UNL d   1     -14.747  -1.458   2.322 +0.02 +0.28    +0.167 HD
DOCKED: ENDBRANCH  38  40
DOCKED: ENDBRANCH  37  38
DOCKED: ENDBRANCH  36  37
DOCKED: ENDBRANCH  22  36
DOCKED: BRANCH  12  42
DOCKED: ATOM     42  C   UNL d   1      -4.539   6.489  -0.278 -0.61 +0.00    +0.004 C 
DOCKED: ATOM     43  C   UNL d   1      -3.263   6.172  -0.024 -0.43 +0.00    +0.012 C 
DOCKED: ENDBRANCH  12  42
DOCKED: BRANCH  17  44
DOCKED: ATOM     44  C   UNL d   1      -4.794  -1.367  -1.662 -0.60 +0.00    +0.004 C 
DOCKED: ATOM     45  C   UNL d   1      -5.169  -1.836  -2.857 -0.69 +0.00    +0.012 C 
DOCKED: ENDBRANCH  17  44
DOCKED: TORSDOF 10
DOCKED: TER
DOCKED: ENDMDL
________________________________________________________________________________


	BEGINNING GENETIC ALGORITHM DOCKING 52 of 100
Run: 52 Seed: 2136760953 1779922128 [ Run 52 of 100 GA/GALS ]
Beginning LAMARCKIAN GENETIC ALGORITHM (LGA), with a maximum of 25000000 energy evaluations.

Final-Value: -13.288


	FINAL GENETIC ALGORITHM DOCKED STATE
	_______________________________________________


Detailed state:  trans -11.677 2.127 2.950 quatxyzw -0.956150 0.004259 0.199396 -0.214476 center -0.174 -0.001 -0.047 ntor 10 6.5189 180.0000 -122.7457 67.3237 -58.7834 -57.5581 80.3107 120.7210 -9.4369 17.5177
State:	-11.677   2.127   2.950  -0.979  0.004  0.204 -155.230      6.52  180.00 -122.75   67.32  -58.78  -57.56   80.31  120.72   -9.44   17.52

DOCKED: MODEL       52
DOCKED: USER    Run = 52
DOCKED: USER    DPF = D:/Protein_go_brrr/autodock/final/mut_D99N/heme_Fe/dock.dpf
DOCKED: USER  
DOCKED: USER    Estimated Free Energy of Binding    =   -8.41 kcal/mol  [=(1)+(2)+(3)-(4)]
DOCKED: USER    Estimated Inhibition Constant, Ki   =  681.55 nM (nanomolar)  [Temperature = 298.15 K]
DOCKED: USER    
DOCKED: USER    (1) Final Intermolecular Energy     =  -11.40 kcal/mol
DOCKED: USER        vdW + Hbond + desolv Energy     =   -9.30 kcal/mol
DOCKED: USER        Electrostatic Energy            =   -2.09 kcal/mol
DOCKED: USER    (2) Final Total Internal Energy     =   -1.89 kcal/mol
DOCKED: USER    (3) Torsional Free Energy           =   +2.98 kcal/mol
DOCKED: USER    (4) Unbound System's Energy  [=(2)] =   -1.89 kcal/mol
DOCKED: USER    
DOCKED: USER    
DOCKED: USER    NEWDPF move heme_Fe_opt.pdbqt
DOCKED: USER    NEWDPF about -0.174000 -0.001000 -0.047000
DOCKED: USER    NEWDPF tran0 -11.677036 2.127125 2.950106
DOCKED: USER    NEWDPF quaternion0 -0.956150 0.004259 0.199396 -0.214476
DOCKED: USER    NEWDPF axisangle0 -0.978931 0.004361 0.204146 -155.230468
DOCKED: USER    NEWDPF quat0 -0.978931 0.004361 0.204146 -155.230468
DOCKED: USER    NEWDPF dihe0 6.52 180.00 -122.75 67.32 -58.78 -57.56 80.31 120.72 -9.44 17.52 
DOCKED: USER  keepresnum = 1 
DOCKED: USER  
DOCKED: REMARK  10 active torsions:
DOCKED: REMARK  status: ('A' for Active; 'I' for Inactive)
DOCKED: REMARK    1  A    between atoms: C_6  and  C_10 
DOCKED: REMARK    2  A    between atoms: C_10  and  C_11 
DOCKED: REMARK    3  A    between atoms: C_11  and  C_12 
DOCKED: REMARK    4  A    between atoms: C_12  and  O_14 
DOCKED: REMARK    5  A    between atoms: C_17  and  C_20 
DOCKED: REMARK    6  A    between atoms: C_24  and  C_27 
DOCKED: REMARK    7  A    between atoms: C_31  and  C_34 
DOCKED: REMARK    8  A    between atoms: C_34  and  C_35 
DOCKED: REMARK    9  A    between atoms: C_35  and  C_36 
DOCKED: REMARK   10  A    between atoms: C_36  and  O_38 
DOCKED: USER                              x       y       z     vdW  Elec       q    Type
DOCKED: USER                           _______ _______ _______ _____ _____    ______ ____
DOCKED: ROOT
DOCKED: ATOM      1  C   UNL d   1     -13.697   2.246   3.292 -0.21 +0.02    +0.064 C 
DOCKED: ATOM      2  C   UNL d   1      -9.950   5.468   3.412 -0.44 +0.00    +0.064 A 
DOCKED: ATOM      3  C   UNL d   1      -7.242   2.302   1.023 -0.29 +0.02    +0.064 C 
DOCKED: ATOM      4  C   UNL d   1     -10.821  -0.872   0.989 -0.32 +0.04    +0.064 C 
DOCKED: ATOM      5  C   UNL d   1     -12.867   3.414   3.621 -0.18 +0.01    +0.066 A 
DOCKED: ATOM      6  C   UNL d   1     -13.280   4.483   4.399 -0.16 -0.00    -0.021 A 
DOCKED: ATOM      7  C   UNL d   1     -12.240   5.379   4.429 -0.26 -0.00    -0.025 A 
DOCKED: ATOM      8  C   UNL d   1     -11.232   4.822   3.667 -0.28 +0.00    +0.066 A 
DOCKED: ATOM      9  C   UNL d   1     -12.219   6.683   5.165 -0.11 -0.01    +0.051 C 
DOCKED: ATOM     10  C   UNL d   1      -8.940   4.928   2.729 -0.43 +0.01    +0.066 A 
DOCKED: ATOM     11  C   UNL d   1      -7.768   5.616   2.404 -0.36 -0.00    -0.021 A 
DOCKED: ATOM     12  C   UNL d   1      -6.977   4.730   1.700 -0.45 +0.00    +0.000 A 
DOCKED: ATOM     13  C   UNL d   1      -7.718   3.538   1.624 -0.05 +0.03    +0.070 A 
DOCKED: ATOM     14  C   UNL d   1      -7.446   7.069   2.690 -0.34 +0.01    +0.052 C 
DOCKED: ATOM     15  C   UNL d   1      -7.971   1.167   0.902 -0.33 +0.02    +0.066 A 
DOCKED: ATOM     16  C   UNL d   1      -7.447  -0.022   0.412 -0.38 -0.00    -0.021 A 
DOCKED: ATOM     17  C   UNL d   1      -8.478  -0.938   0.398 -0.45 +0.00    +0.000 A 
DOCKED: ATOM     18  C   UNL d   1      -9.611  -0.283   0.877 -0.36 +0.02    +0.070 A 
DOCKED: ATOM     19  C   UNL d   1      -6.038  -0.284  -0.049 -0.10 +0.01    +0.052 C 
DOCKED: ATOM     20  C   UNL d   1     -12.020  -0.233   1.545 -0.27 +0.06    +0.066 A 
DOCKED: ATOM     21  C   UNL d   1     -13.319  -0.757   1.484 -0.04 -0.03    -0.025 A 
DOCKED: ATOM     22  C   UNL d   1     -14.120   0.142   2.158 -0.10 -0.02    -0.021 A 
DOCKED: ATOM     23  C   UNL d   1     -13.284   1.176   2.595 -0.21 +0.04    +0.066 A 
DOCKED: ATOM     24  C   UNL d   1     -13.792  -2.032   0.826 -0.11 +0.06    +0.051 C 
DOCKED: ATOM     25  N   UNL d   1     -11.613   3.622   3.185 -0.15 -0.04    -0.248 N 
DOCKED: ATOM     26  N   UNL d   1      -8.918   3.660   2.243 -0.27 -0.07    -0.248 N 
DOCKED: ATOM     27  N   UNL d   1      -9.290   0.998   1.228 -0.23 -0.08    -0.248 N 
DOCKED: ATOM     28  N   UNL d   1     -12.012   0.964   2.180 -0.20 -0.14    -0.248 N 
DOCKED: ATOM     29 FE   UNL d   1     -10.465   2.310   2.211 -0.08 +0.00    +0.000 Fe
DOCKED: ENDROOT
DOCKED: BRANCH   6  30
DOCKED: ATOM     30  C   UNL d   1     -14.587   4.639   5.098 -0.12 +0.01    +0.052 C 
DOCKED: BRANCH  30  31
DOCKED: ATOM     31  C   UNL d   1     -14.600   3.847   6.401 -0.06 +0.02    +0.115 C 
DOCKED: BRANCH  31  32
DOCKED: ATOM     32  C   UNL d   1     -15.319   2.540   6.215 -0.02 +0.03    +0.139 C 
DOCKED: ATOM     33  O   UNL d   1     -16.486   2.516   5.848 +0.02 -0.13    -0.650 OA
DOCKED: BRANCH  32  34
DOCKED: ATOM     34  O   UNL d   1     -14.683   1.380   6.453 +0.06 -0.29    -0.776 OA
DOCKED: ATOM     35  H   UNL d   1     -15.128   0.548   6.238 +0.02 +0.08    +0.167 HD
DOCKED: ENDBRANCH  32  34
DOCKED: ENDBRANCH  31  32
DOCKED: ENDBRANCH  30  31
DOCKED: ENDBRANCH   6  30
DOCKED: BRANCH  22  36
DOCKED: ATOM     36  C   UNL d   1     -15.613   0.035   2.327 -0.15 +0.03    +0.052 C 
DOCKED: BRANCH  36  37
DOCKED: ATOM     37  C   UNL d   1     -15.950  -0.162   3.798 -0.08 +0.07    +0.115 C 
DOCKED: BRANCH  37  38
DOCKED: ATOM     38  C   UNL d   1     -15.319  -1.416   4.332 +0.07 +0.19    +0.139 C 
DOCKED: ATOM     39  O   UNL d   1     -15.555  -2.502   3.822 +0.03 -1.00    -0.650 OA
DOCKED: BRANCH  38  40
DOCKED: ATOM     40  O   UNL d   1     -14.486  -1.352   5.386 +0.01 -1.21    -0.776 OA
DOCKED: ATOM     41  H   UNL d   1     -14.300  -0.492   5.787 +0.02 +0.16    +0.167 HD
DOCKED: ENDBRANCH  38  40
DOCKED: ENDBRANCH  37  38
DOCKED: ENDBRANCH  36  37
DOCKED: ENDBRANCH  22  36
DOCKED: BRANCH  12  42
DOCKED: ATOM     42  C   UNL d   1      -5.626   5.046   1.142 -0.51 +0.00    +0.004 C 
DOCKED: ATOM     43  C   UNL d   1      -5.494   5.803   0.045 -0.57 +0.00    +0.012 C 
DOCKED: ENDBRANCH  12  42
DOCKED: BRANCH  17  44
DOCKED: ATOM     44  C   UNL d   1      -8.381  -2.353  -0.026 -0.46 +0.00    +0.004 C 
DOCKED: ATOM     45  C   UNL d   1      -8.694  -3.344   0.816 -0.41 +0.00    +0.012 C 
DOCKED: ENDBRANCH  17  44
DOCKED: TORSDOF 10
DOCKED: TER
DOCKED: ENDMDL
________________________________________________________________________________


	BEGINNING GENETIC ALGORITHM DOCKING 53 of 100
Run: 53 Seed: 142584846 424937869 [ Run 53 of 100 GA/GALS ]
Beginning LAMARCKIAN GENETIC ALGORITHM (LGA), with a maximum of 25000000 energy evaluations.

Final-Value: -13.694


	FINAL GENETIC ALGORITHM DOCKED STATE
	_______________________________________________


Detailed state:  trans -7.178 3.004 0.152 quatxyzw 0.266151 -0.134549 0.951236 0.078803 center -0.174 -0.001 -0.047 ntor 10 -33.5312 -78.8432 -137.0484 -168.5292 96.0440 103.7609 120.3763 -8.6093 173.7613 -38.0154
State:	 -7.178   3.004   0.152   0.267 -0.135  0.954 170.960    -33.53  -78.84 -137.05 -168.53   96.04  103.76  120.38   -8.61  173.76  -38.02

DOCKED: MODEL       53
DOCKED: USER    Run = 53
DOCKED: USER    DPF = D:/Protein_go_brrr/autodock/final/mut_D99N/heme_Fe/dock.dpf
DOCKED: USER  
DOCKED: USER    Estimated Free Energy of Binding    =  -10.31 kcal/mol  [=(1)+(2)+(3)-(4)]
DOCKED: USER    Estimated Inhibition Constant, Ki   =   27.63 nM (nanomolar)  [Temperature = 298.15 K]
DOCKED: USER    
DOCKED: USER    (1) Final Intermolecular Energy     =  -13.29 kcal/mol
DOCKED: USER        vdW + Hbond + desolv Energy     =  -13.02 kcal/mol
DOCKED: USER        Electrostatic Energy            =   -0.27 kcal/mol
DOCKED: USER    (2) Final Total Internal Energy     =   -0.40 kcal/mol
DOCKED: USER    (3) Torsional Free Energy           =   +2.98 kcal/mol
DOCKED: USER    (4) Unbound System's Energy  [=(2)] =   -0.40 kcal/mol
DOCKED: USER    
DOCKED: USER    
DOCKED: USER    NEWDPF move heme_Fe_opt.pdbqt
DOCKED: USER    NEWDPF about -0.174000 -0.001000 -0.047000
DOCKED: USER    NEWDPF tran0 -7.178401 3.004192 0.151697
DOCKED: USER    NEWDPF quaternion0 0.266151 -0.134549 0.951236 0.078803
DOCKED: USER    NEWDPF axisangle0 0.266982 -0.134969 0.954203 170.960495
DOCKED: USER    NEWDPF quat0 0.266982 -0.134969 0.954203 170.960495
DOCKED: USER    NEWDPF dihe0 -33.53 -78.84 -137.05 -168.53 96.04 103.76 120.38 -8.61 173.76 -38.02 
DOCKED: USER  keepresnum = 1 
DOCKED: USER  
DOCKED: REMARK  10 active torsions:
DOCKED: REMARK  status: ('A' for Active; 'I' for Inactive)
DOCKED: REMARK    1  A    between atoms: C_6  and  C_10 
DOCKED: REMARK    2  A    between atoms: C_10  and  C_11 
DOCKED: REMARK    3  A    between atoms: C_11  and  C_12 
DOCKED: REMARK    4  A    between atoms: C_12  and  O_14 
DOCKED: REMARK    5  A    between atoms: C_17  and  C_20 
DOCKED: REMARK    6  A    between atoms: C_24  and  C_27 
DOCKED: REMARK    7  A    between atoms: C_31  and  C_34 
DOCKED: REMARK    8  A    between atoms: C_34  and  C_35 
DOCKED: REMARK    9  A    between atoms: C_35  and  C_36 
DOCKED: REMARK   10  A    between atoms: C_36  and  O_38 
DOCKED: USER                              x       y       z     vdW  Elec       q    Type
DOCKED: USER                           _______ _______ _______ _____ _____    ______ ____
DOCKED: ROOT
DOCKED: ATOM      1  C   UNL d   1      -5.227   3.385  -0.354 -0.42 +0.01    +0.064 C 
DOCKED: ATOM      2  C   UNL d   1      -8.679   5.781   2.248 -0.46 +0.01    +0.064 A 
DOCKED: ATOM      3  C   UNL d   1     -11.259   1.734   2.421 -0.29 +0.02    +0.064 C 
DOCKED: ATOM      4  C   UNL d   1      -7.980  -0.576  -0.187 -0.42 +0.01    +0.064 C 
DOCKED: ATOM      5  C   UNL d   1      -5.998   4.457   0.291 -0.39 +0.01    +0.066 A 
DOCKED: ATOM      6  C   UNL d   1      -5.618   5.788   0.335 -0.48 -0.00    -0.021 A 
DOCKED: ATOM      7  C   UNL d   1      -6.575   6.452   1.061 -0.46 -0.00    -0.025 A 
DOCKED: ATOM      8  C   UNL d   1      -7.504   5.499   1.432 -0.42 +0.01    +0.066 A 
DOCKED: ATOM      9  C   UNL d   1      -6.597   7.920   1.359 -0.46 +0.01    +0.051 C 
DOCKED: ATOM     10  C   UNL d   1      -9.620   4.893   2.572 -0.42 +0.01    +0.066 A 
DOCKED: ATOM     11  C   UNL d   1     -10.672   5.164   3.450 -0.38 -0.00    -0.021 A 
DOCKED: ATOM     12  C   UNL d   1     -11.422   4.007   3.530 -0.28 +0.00    +0.000 A 
DOCKED: ATOM     13  C   UNL d   1     -10.776   3.078   2.695 -0.28 +0.01    +0.070 A 
DOCKED: ATOM     14  C   UNL d   1     -10.914   6.441   4.228 -0.24 -0.01    +0.052 C 
DOCKED: ATOM     15  C   UNL d   1     -10.614   0.819   1.660 -0.33 +0.03    +0.066 A 
DOCKED: ATOM     16  C   UNL d   1     -11.156  -0.420   1.341 -0.34 -0.01    -0.021 A 
DOCKED: ATOM     17  C   UNL d   1     -10.210  -1.089   0.591 -0.19 +0.00    +0.000 A 
DOCKED: ATOM     18  C   UNL d   1      -9.110  -0.243   0.474 -0.35 +0.02    +0.070 A 
DOCKED: ATOM     19  C   UNL d   1     -12.499  -0.966   1.744 +0.30 +0.07    +0.052 C 
DOCKED: ATOM     20  C   UNL d   1      -6.827   0.311  -0.383 -0.41 +0.01    +0.066 A 
DOCKED: ATOM     21  C   UNL d   1      -5.579  -0.082  -0.887 -0.40 -0.00    -0.025 A 
DOCKED: ATOM     22  C   UNL d   1      -4.814   1.065  -0.938 -0.39 -0.00    -0.021 A 
DOCKED: ATOM     23  C   UNL d   1      -5.619   2.106  -0.460 -0.40 +0.01    +0.066 A 
DOCKED: ATOM     24  C   UNL d   1      -5.120  -1.462  -1.298 -0.51 +0.00    +0.051 C 
DOCKED: ATOM     25  N   UNL d   1      -7.155   4.288   0.954 -0.23 -0.06    -0.248 N 
DOCKED: ATOM     26  N   UNL d   1      -9.673   3.615   2.118 -0.23 -0.06    -0.248 N 
DOCKED: ATOM     27  N   UNL d   1      -9.374   0.947   1.093 -0.22 -0.07    -0.248 N 
DOCKED: ATOM     28  N   UNL d   1      -6.831   1.632  -0.081 -0.26 -0.04    -0.248 N 
DOCKED: ATOM     29 FE   UNL d   1      -8.252   2.621   1.018 -0.09 +0.00    +0.000 Fe
DOCKED: ENDROOT
DOCKED: BRANCH   6  30
DOCKED: ATOM     30  C   UNL d   1      -4.417   6.405  -0.298 -0.56 +0.01    +0.052 C 
DOCKED: BRANCH  30  31
DOCKED: ATOM     31  C   UNL d   1      -3.280   6.531   0.710 -0.50 +0.02    +0.115 C 
DOCKED: BRANCH  31  32
DOCKED: ATOM     32  C   UNL d   1      -3.701   7.384   1.874 -0.46 +0.03    +0.139 C 
DOCKED: ATOM     33  O   UNL d   1      -4.125   6.873   2.901 +0.02 -0.08    -0.650 OA
DOCKED: BRANCH  32  34
DOCKED: ATOM     34  O   UNL d   1      -3.615   8.723   1.795 +0.11 -0.24    -0.776 OA
DOCKED: ATOM     35  H   UNL d   1      -4.275   9.264   2.252 +0.13 +0.05    +0.167 HD
DOCKED: ENDBRANCH  32  34
DOCKED: ENDBRANCH  31  32
DOCKED: ENDBRANCH  30  31
DOCKED: ENDBRANCH   6  30
DOCKED: BRANCH  22  36
DOCKED: ATOM     36  C   UNL d   1      -3.376   1.144  -1.376 -0.01 +0.00    +0.052 C 
DOCKED: BRANCH  36  37
DOCKED: ATOM     37  C   UNL d   1      -3.245   0.637  -2.805 -0.31 +0.01    +0.115 C 
DOCKED: BRANCH  37  38
DOCKED: ATOM     38  C   UNL d   1      -1.873   0.913  -3.352 -0.54 +0.01    +0.139 C 
DOCKED: ATOM     39  O   UNL d   1      -1.046   0.018  -3.445 +0.01 -0.03    -0.650 OA
DOCKED: BRANCH  38  40
DOCKED: ATOM     40  O   UNL d   1      -1.544   2.157  -3.742 +0.04 -0.01    -0.776 OA
DOCKED: ATOM     41  H   UNL d   1      -1.011   2.709  -3.152 -0.43 -0.02    +0.167 HD
DOCKED: ENDBRANCH  38  40
DOCKED: ENDBRANCH  37  38
DOCKED: ENDBRANCH  36  37
DOCKED: ENDBRANCH  22  36
DOCKED: BRANCH  12  42
DOCKED: ATOM     42  C   UNL d   1     -12.648   3.838   4.370 -0.25 +0.00    +0.004 C 
DOCKED: ATOM     43  C   UNL d   1     -12.561   3.415   5.638 -0.23 +0.00    +0.012 C 
DOCKED: ENDBRANCH  12  42
DOCKED: BRANCH  17  44
DOCKED: ATOM     44  C   UNL d   1     -10.359  -2.442   0.008 -0.19 +0.00    +0.004 C 
DOCKED: ATOM     45  C   UNL d   1      -9.591  -3.455   0.424 -0.43 +0.00    +0.012 C 
DOCKED: ENDBRANCH  17  44
DOCKED: TORSDOF 10
DOCKED: TER
DOCKED: ENDMDL
________________________________________________________________________________


	BEGINNING GENETIC ALGORITHM DOCKING 54 of 100
Run: 54 Seed: 894228751 615121014 [ Run 54 of 100 GA/GALS ]
Beginning LAMARCKIAN GENETIC ALGORITHM (LGA), with a maximum of 25000000 energy evaluations.

Final-Value: -12.367


	FINAL GENETIC ALGORITHM DOCKED STATE
	_______________________________________________


Detailed state:  trans 5.909 -0.152 -17.637 quatxyzw 0.565078 -0.039553 0.019789 -0.823851 center -0.174 -0.001 -0.047 ntor 10 -80.2997 -146.4096 -164.2529 -158.7276 123.4406 91.3757 73.0392 -31.8254 -5.5387 -16.1277
State:	  5.909  -0.152 -17.637   0.997 -0.070  0.035 -69.056    -80.30 -146.41 -164.25 -158.73  123.44   91.38   73.04  -31.83   -5.54  -16.13

DOCKED: MODEL       54
DOCKED: USER    Run = 54
DOCKED: USER    DPF = D:/Protein_go_brrr/autodock/final/mut_D99N/heme_Fe/dock.dpf
DOCKED: USER  
DOCKED: USER    Estimated Free Energy of Binding    =   -7.53 kcal/mol  [=(1)+(2)+(3)-(4)]
DOCKED: USER    Estimated Inhibition Constant, Ki   =    3.01 uM (micromolar)  [Temperature = 298.15 K]
DOCKED: USER    
DOCKED: USER    (1) Final Intermolecular Energy     =  -10.51 kcal/mol
DOCKED: USER        vdW + Hbond + desolv Energy     =   -7.76 kcal/mol
DOCKED: USER        Electrostatic Energy            =   -2.75 kcal/mol
DOCKED: USER    (2) Final Total Internal Energy     =   -1.85 kcal/mol
DOCKED: USER    (3) Torsional Free Energy           =   +2.98 kcal/mol
DOCKED: USER    (4) Unbound System's Energy  [=(2)] =   -1.85 kcal/mol
DOCKED: USER    
DOCKED: USER    
DOCKED: USER    NEWDPF move heme_Fe_opt.pdbqt
DOCKED: USER    NEWDPF about -0.174000 -0.001000 -0.047000
DOCKED: USER    NEWDPF tran0 5.909411 -0.151633 -17.636600
DOCKED: USER    NEWDPF quaternion0 0.565078 -0.039553 0.019789 -0.823851
DOCKED: USER    NEWDPF axisangle0 0.996951 -0.069782 0.034912 -69.055586
DOCKED: USER    NEWDPF quat0 0.996951 -0.069782 0.034912 -69.055586
DOCKED: USER    NEWDPF dihe0 -80.30 -146.41 -164.25 -158.73 123.44 91.38 73.04 -31.83 -5.54 -16.13 
DOCKED: USER  keepresnum = 1 
DOCKED: USER  
DOCKED: REMARK  10 active torsions:
DOCKED: REMARK  status: ('A' for Active; 'I' for Inactive)
DOCKED: REMARK    1  A    between atoms: C_6  and  C_10 
DOCKED: REMARK    2  A    between atoms: C_10  and  C_11 
DOCKED: REMARK    3  A    between atoms: C_11  and  C_12 
DOCKED: REMARK    4  A    between atoms: C_12  and  O_14 
DOCKED: REMARK    5  A    between atoms: C_17  and  C_20 
DOCKED: REMARK    6  A    between atoms: C_24  and  C_27 
DOCKED: REMARK    7  A    between atoms: C_31  and  C_34 
DOCKED: REMARK    8  A    between atoms: C_34  and  C_35 
DOCKED: REMARK    9  A    between atoms: C_35  and  C_36 
DOCKED: REMARK   10  A    between atoms: C_36  and  O_38 
DOCKED: USER                              x       y       z     vdW  Elec       q    Type
DOCKED: USER                           _______ _______ _______ _____ _____    ______ ____
DOCKED: ROOT
DOCKED: ATOM      1  C   UNL d   1       3.918  -0.645 -17.674 -0.28 +0.02    +0.064 C 
DOCKED: ATOM      2  C   UNL d   1       7.821  -1.707 -20.515 -0.13 +0.01    +0.064 A 
DOCKED: ATOM      3  C   UNL d   1      10.709  -0.119 -17.021 -0.09 +0.03    +0.064 C 
DOCKED: ATOM      4  C   UNL d   1       6.942   1.014 -14.298 -0.23 +0.02    +0.064 C 
DOCKED: ATOM      5  C   UNL d   1       4.746  -1.014 -18.831 -0.18 +0.02    +0.066 A 
DOCKED: ATOM      6  C   UNL d   1       4.252  -1.413 -20.062 -0.18 -0.01    -0.021 A 
DOCKED: ATOM      7  C   UNL d   1       5.337  -1.711 -20.849 -0.09 -0.01    -0.025 A 
DOCKED: ATOM      8  C   UNL d   1       6.452  -1.482 -20.067 -0.10 +0.01    +0.066 A 
DOCKED: ATOM      9  C   UNL d   1       5.294  -2.170 -22.274 -0.14 +0.01    +0.051 C 
DOCKED: ATOM     10  C   UNL d   1       8.916  -1.441 -19.801 -0.10 +0.01    +0.066 A 
DOCKED: ATOM     11  C   UNL d   1      10.209  -1.774 -20.212 -0.06 -0.00    -0.021 A 
DOCKED: ATOM     12  C   UNL d   1      11.059  -1.341 -19.214 -0.05 +0.00    +0.000 A 
DOCKED: ATOM     13  C   UNL d   1      10.232  -0.769 -18.232 -0.08 +0.03    +0.070 A 
DOCKED: ATOM     14  C   UNL d   1      10.610  -2.529 -21.463 -0.05 +0.01    +0.052 C 
DOCKED: ATOM     15  C   UNL d   1       9.915   0.387 -16.048 -0.09 +0.03    +0.066 A 
DOCKED: ATOM     16  C   UNL d   1      10.407   1.088 -14.955 -0.12 -0.01    -0.021 A 
DOCKED: ATOM     17  C   UNL d   1       9.323   1.413 -14.166 -0.17 +0.00    +0.000 A 
DOCKED: ATOM     18  C   UNL d   1       8.192   0.898 -14.796 -0.12 +0.02    +0.070 A 
DOCKED: ATOM     19  C   UNL d   1      11.843   1.419 -14.648 -0.09 +0.01    +0.052 C 
DOCKED: ATOM     20  C   UNL d   1       5.723   0.539 -14.963 -0.23 +0.02    +0.066 A 
DOCKED: ATOM     21  C   UNL d   1       4.453   0.472 -14.373 -0.37 -0.01    -0.025 A 
DOCKED: ATOM     22  C   UNL d   1       3.604   0.009 -15.357 -0.36 -0.01    -0.021 A 
DOCKED: ATOM     23  C   UNL d   1       4.386  -0.194 -16.500 -0.25 +0.02    +0.066 A 
DOCKED: ATOM     24  C   UNL d   1       4.049   0.819 -12.959 +0.02 +0.01    +0.051 C 
DOCKED: ATOM     25  N   UNL d   1       6.090  -1.049 -18.843 -0.12 -0.07    -0.248 N 
DOCKED: ATOM     26  N   UNL d   1       8.925  -0.837 -18.585 -0.06 -0.08    -0.248 N 
DOCKED: ATOM     27  N   UNL d   1       8.550   0.305 -15.975 -0.10 -0.09    -0.248 N 
DOCKED: ATOM     28  N   UNL d   1       5.686   0.088 -16.240 -0.11 -0.07    -0.248 N 
DOCKED: ATOM     29 FE   UNL d   1       7.305  -0.373 -17.411 -0.04 +0.00    +0.000 Fe
DOCKED: ENDROOT
DOCKED: BRANCH   6  30
DOCKED: ATOM     30  C   UNL d   1       2.823  -1.487 -20.479 -0.24 +0.02    +0.052 C 
DOCKED: BRANCH  30  31
DOCKED: ATOM     31  C   UNL d   1       2.325  -0.124 -20.948 -0.09 +0.04    +0.115 C 
DOCKED: BRANCH  31  32
DOCKED: ATOM     32  C   UNL d   1       1.402   0.479 -19.926 -0.12 +0.08    +0.139 C 
DOCKED: ATOM     33  O   UNL d   1       1.636   1.580 -19.447 +0.02 -0.30    -0.650 OA
DOCKED: BRANCH  32  34
DOCKED: ATOM     34  O   UNL d   1       0.306  -0.190 -19.529 -0.53 -1.04    -0.776 OA
DOCKED: ATOM     35  H   UNL d   1       0.330  -0.676 -18.693 -0.53 +0.35    +0.167 HD
DOCKED: ENDBRANCH  32  34
DOCKED: ENDBRANCH  31  32
DOCKED: ENDBRANCH  30  31
DOCKED: ENDBRANCH   6  30
DOCKED: BRANCH  22  36
DOCKED: ATOM     36  C   UNL d   1       2.133  -0.270 -15.191 -0.28 +0.02    +0.052 C 
DOCKED: BRANCH  36  37
DOCKED: ATOM     37  C   UNL d   1       1.350   1.031 -15.294 -0.33 +0.07    +0.115 C 
DOCKED: BRANCH  37  38
DOCKED: ATOM     38  C   UNL d   1      -0.001   0.798 -15.911 -0.23 +0.18    +0.139 C 
DOCKED: ATOM     39  O   UNL d   1      -0.974   0.556 -15.212 -0.54 -1.01    -0.650 OA
DOCKED: BRANCH  38  40
DOCKED: ATOM     40  O   UNL d   1      -0.147   0.853 -17.247 +0.02 -1.31    -0.776 OA
DOCKED: ATOM     41  H   UNL d   1       0.582   0.559 -17.811 -0.22 +0.21    +0.167 HD
DOCKED: ENDBRANCH  38  40
DOCKED: ENDBRANCH  37  38
DOCKED: ENDBRANCH  36  37
DOCKED: ENDBRANCH  22  36
DOCKED: BRANCH  12  42
DOCKED: ATOM     42  C   UNL d   1      12.546  -1.500 -19.227 -0.03 +0.00    +0.004 C 
DOCKED: ATOM     43  C   UNL d   1      13.168  -2.250 -18.307 -0.06 +0.00    +0.012 C 
DOCKED: ENDBRANCH  12  42
DOCKED: BRANCH  17  44
DOCKED: ATOM     44  C   UNL d   1       9.364   2.184 -12.903 -0.23 +0.00    +0.004 C 
DOCKED: ATOM     45  C   UNL d   1       9.222   1.572 -11.723 -0.39 +0.00    +0.012 C 
DOCKED: ENDBRANCH  17  44
DOCKED: TORSDOF 10
DOCKED: TER
DOCKED: ENDMDL
________________________________________________________________________________


	BEGINNING GENETIC ALGORITHM DOCKING 55 of 100
Run: 55 Seed: 988687495 228965114 [ Run 55 of 100 GA/GALS ]
Beginning LAMARCKIAN GENETIC ALGORITHM (LGA), with a maximum of 25000000 energy evaluations.

Final-Value: -11.582


	FINAL GENETIC ALGORITHM DOCKED STATE
	_______________________________________________


Detailed state:  trans 5.950 -1.112 -17.894 quatxyzw 0.822090 0.037587 -0.113770 0.556607 center -0.174 -0.001 -0.047 ntor 10 167.1434 136.2005 -179.7457 81.1360 117.1071 -101.7006 -35.7364 22.6022 167.1824 -180.0000
State:	  5.950  -1.112 -17.894   0.990  0.045 -0.137 112.357    167.14  136.20 -179.75   81.14  117.11 -101.70  -35.74   22.60  167.18 -180.00

DOCKED: MODEL       55
DOCKED: USER    Run = 55
DOCKED: USER    DPF = D:/Protein_go_brrr/autodock/final/mut_D99N/heme_Fe/dock.dpf
DOCKED: USER  
DOCKED: USER    Estimated Free Energy of Binding    =   -7.35 kcal/mol  [=(1)+(2)+(3)-(4)]
DOCKED: USER    Estimated Inhibition Constant, Ki   =    4.12 uM (micromolar)  [Temperature = 298.15 K]
DOCKED: USER    
DOCKED: USER    (1) Final Intermolecular Energy     =  -10.33 kcal/mol
DOCKED: USER        vdW + Hbond + desolv Energy     =   -7.56 kcal/mol
DOCKED: USER        Electrostatic Energy            =   -2.77 kcal/mol
DOCKED: USER    (2) Final Total Internal Energy     =   -1.25 kcal/mol
DOCKED: USER    (3) Torsional Free Energy           =   +2.98 kcal/mol
DOCKED: USER    (4) Unbound System's Energy  [=(2)] =   -1.25 kcal/mol
DOCKED: USER    
DOCKED: USER    
DOCKED: USER    NEWDPF move heme_Fe_opt.pdbqt
DOCKED: USER    NEWDPF about -0.174000 -0.001000 -0.047000
DOCKED: USER    NEWDPF tran0 5.949611 -1.111708 -17.894091
DOCKED: USER    NEWDPF quaternion0 0.822090 0.037587 -0.113770 0.556607
DOCKED: USER    NEWDPF axisangle0 0.989545 0.045244 -0.136944 112.357009
DOCKED: USER    NEWDPF quat0 0.989545 0.045244 -0.136944 112.357009
DOCKED: USER    NEWDPF dihe0 167.14 136.20 -179.75 81.14 117.11 -101.70 -35.74 22.60 167.18 -180.00 
DOCKED: USER  keepresnum = 1 
DOCKED: USER  
DOCKED: REMARK  10 active torsions:
DOCKED: REMARK  status: ('A' for Active; 'I' for Inactive)
DOCKED: REMARK    1  A    between atoms: C_6  and  C_10 
DOCKED: REMARK    2  A    between atoms: C_10  and  C_11 
DOCKED: REMARK    3  A    between atoms: C_11  and  C_12 
DOCKED: REMARK    4  A    between atoms: C_12  and  O_14 
DOCKED: REMARK    5  A    between atoms: C_17  and  C_20 
DOCKED: REMARK    6  A    between atoms: C_24  and  C_27 
DOCKED: REMARK    7  A    between atoms: C_31  and  C_34 
DOCKED: REMARK    8  A    between atoms: C_34  and  C_35 
DOCKED: REMARK    9  A    between atoms: C_35  and  C_36 
DOCKED: REMARK   10  A    between atoms: C_36  and  O_38 
DOCKED: USER                              x       y       z     vdW  Elec       q    Type
DOCKED: USER                           _______ _______ _______ _____ _____    ______ ____
DOCKED: ROOT
DOCKED: ATOM      1  C   UNL d   1       3.908  -0.980 -17.741 -0.27 +0.02    +0.064 C 
DOCKED: ATOM      2  C   UNL d   1       7.715   0.787 -15.131 -0.15 +0.02    +0.064 A 
DOCKED: ATOM      3  C   UNL d   1      10.634  -0.295 -18.787 -0.05 +0.02    +0.064 C 
DOCKED: ATOM      4  C   UNL d   1       6.981  -2.107 -21.288 -0.15 +0.01    +0.064 C 
DOCKED: ATOM      5  C   UNL d   1       4.721  -0.459 -16.634 -0.28 +0.02    +0.066 A 
DOCKED: ATOM      6  C   UNL d   1       4.236  -0.143 -15.376 -0.36 -0.01    -0.021 A 
DOCKED: ATOM      7  C   UNL d   1       5.293   0.352 -14.653 -0.31 -0.01    -0.025 A 
DOCKED: ATOM      8  C   UNL d   1       6.385   0.318 -15.498 -0.20 +0.02    +0.066 A 
DOCKED: ATOM      9  C   UNL d   1       5.250   0.809 -13.227 -0.27 +0.01    +0.051 C 
DOCKED: ATOM     10  C   UNL d   1       8.797   0.713 -15.907 -0.12 +0.02    +0.066 A 
DOCKED: ATOM     11  C   UNL d   1      10.031   1.275 -15.572 -0.10 -0.01    -0.021 A 
DOCKED: ATOM     12  C   UNL d   1      10.886   0.991 -16.618 -0.06 +0.00    +0.000 A 
DOCKED: ATOM     13  C   UNL d   1      10.120   0.271 -17.550 -0.06 +0.02    +0.070 A 
DOCKED: ATOM     14  C   UNL d   1      10.362   2.101 -14.346 -0.10 +0.01    +0.052 C 
DOCKED: ATOM     15  C   UNL d   1       9.889  -0.944 -19.713 -0.04 +0.01    +0.066 A 
DOCKED: ATOM     16  C   UNL d   1      10.435  -1.556 -20.833 -0.03 -0.00    -0.021 A 
DOCKED: ATOM     17  C   UNL d   1       9.383  -2.077 -21.558 -0.08 +0.00    +0.000 A 
DOCKED: ATOM     18  C   UNL d   1       8.217  -1.765 -20.863 -0.12 +0.01    +0.070 A 
DOCKED: ATOM     19  C   UNL d   1      11.887  -1.629 -21.224 -0.01 +0.01    +0.052 C 
DOCKED: ATOM     20  C   UNL d   1       5.736  -1.850 -20.553 +0.02 +0.01    +0.066 A 
DOCKED: ATOM     21  C   UNL d   1       4.443  -2.016 -21.068 -0.11 -0.01    -0.025 A 
DOCKED: ATOM     22  C   UNL d   1       3.583  -1.702 -20.036 -0.22 -0.01    -0.021 A 
DOCKED: ATOM     23  C   UNL d   1       4.381  -1.352 -18.940 -0.13 +0.02    +0.066 A 
DOCKED: ATOM     24  C   UNL d   1       4.028  -2.443 -22.457 -0.14 +0.01    +0.051 C 
DOCKED: ATOM     25  N   UNL d   1       6.036  -0.185 -16.699 -0.12 -0.07    -0.248 N 
DOCKED: ATOM     26  N   UNL d   1       8.844   0.109 -17.122 -0.07 -0.09    -0.248 N 
DOCKED: ATOM     27  N   UNL d   1       8.530  -1.107 -19.706 -0.05 -0.05    -0.248 N 
DOCKED: ATOM     28  N   UNL d   1       5.693  -1.401 -19.276 -0.07 -0.07    -0.248 N 
DOCKED: ATOM     29 FE   UNL d   1       7.268  -0.647 -18.200 -0.03 +0.00    +0.000 Fe
DOCKED: ENDROOT
DOCKED: BRANCH   6  30
DOCKED: ATOM     30  C   UNL d   1       2.842  -0.320 -14.876 -0.46 +0.02    +0.052 C 
DOCKED: BRANCH  30  31
DOCKED: ATOM     31  C   UNL d   1       2.107   1.015 -14.842 -0.36 +0.05    +0.115 C 
DOCKED: BRANCH  31  32
DOCKED: ATOM     32  C   UNL d   1       0.658   0.827 -15.200 -0.37 +0.12    +0.139 C 
DOCKED: ATOM     33  O   UNL d   1      -0.222   1.081 -14.390 -0.56 -0.64    -0.650 OA
DOCKED: BRANCH  32  34
DOCKED: ATOM     34  O   UNL d   1       0.318   0.375 -16.418 +0.11 -1.09    -0.776 OA
DOCKED: ATOM     35  H   UNL d   1       0.988   0.352 -17.115 -0.36 +0.15    +0.167 HD
DOCKED: ENDBRANCH  32  34
DOCKED: ENDBRANCH  31  32
DOCKED: ENDBRANCH  30  31
DOCKED: ENDBRANCH   6  30
DOCKED: BRANCH  22  36
DOCKED: ATOM     36  C   UNL d   1       2.079  -1.692 -20.117 -0.29 +0.02    +0.052 C 
DOCKED: BRANCH  36  37
DOCKED: ATOM     37  C   UNL d   1       1.606  -0.372 -20.707 -0.14 +0.05    +0.115 C 
DOCKED: BRANCH  37  38
DOCKED: ATOM     38  C   UNL d   1       0.177  -0.095 -20.331 -0.14 +0.13    +0.139 C 
DOCKED: ATOM     39  O   UNL d   1      -0.728  -0.288 -21.129 -0.05 -0.52    -0.650 OA
DOCKED: BRANCH  38  40
DOCKED: ATOM     40  O   UNL d   1      -0.115   0.374 -19.105 -0.55 -1.33    -0.776 OA
DOCKED: ATOM     41  H   UNL d   1       0.318  -0.021 -18.335 -0.46 +0.33    +0.167 HD
DOCKED: ENDBRANCH  38  40
DOCKED: ENDBRANCH  37  38
DOCKED: ENDBRANCH  36  37
DOCKED: ENDBRANCH  22  36
DOCKED: BRANCH  12  42
DOCKED: ATOM     42  C   UNL d   1      12.320   1.413 -16.690 -0.03 +0.00    +0.004 C 
DOCKED: ATOM     43  C   UNL d   1      12.813   1.990 -17.794 -0.01 +0.00    +0.012 C 
DOCKED: ENDBRANCH  12  42
DOCKED: BRANCH  17  44
DOCKED: ATOM     44  C   UNL d   1       9.488  -2.840 -22.822 -0.08 +0.00    +0.004 C 
DOCKED: ATOM     45  C   UNL d   1       8.781  -3.960 -23.007 -0.13 +0.00    +0.012 C 
DOCKED: ENDBRANCH  17  44
DOCKED: TORSDOF 10
DOCKED: TER
DOCKED: ENDMDL
________________________________________________________________________________


	BEGINNING GENETIC ALGORITHM DOCKING 56 of 100
Run: 56 Seed: 406189680 278295815 [ Run 56 of 100 GA/GALS ]
Beginning LAMARCKIAN GENETIC ALGORITHM (LGA), with a maximum of 25000000 energy evaluations.

Final-Value: -9.780


	FINAL GENETIC ALGORITHM DOCKED STATE
	_______________________________________________


Detailed state:  trans 9.357 11.288 8.697 quatxyzw -0.286612 -0.733151 0.559954 -0.258447 center -0.174 -0.001 -0.047 ntor 10 160.7111 -29.4743 -110.5753 -152.0293 118.8118 128.6245 -25.2042 75.3391 155.8405 163.8224
State:	  9.357  11.288   8.697  -0.297 -0.759  0.580 -150.044    160.71  -29.47 -110.58 -152.03  118.81  128.62  -25.20   75.34  155.84  163.82

DOCKED: MODEL       56
DOCKED: USER    Run = 56
DOCKED: USER    DPF = D:/Protein_go_brrr/autodock/final/mut_D99N/heme_Fe/dock.dpf
DOCKED: USER  
DOCKED: USER    Estimated Free Energy of Binding    =   -4.67 kcal/mol  [=(1)+(2)+(3)-(4)]
DOCKED: USER    Estimated Inhibition Constant, Ki   =  375.43 uM (micromolar)  [Temperature = 298.15 K]
DOCKED: USER    
DOCKED: USER    (1) Final Intermolecular Energy     =   -7.66 kcal/mol
DOCKED: USER        vdW + Hbond + desolv Energy     =   -6.51 kcal/mol
DOCKED: USER        Electrostatic Energy            =   -1.15 kcal/mol
DOCKED: USER    (2) Final Total Internal Energy     =   -2.12 kcal/mol
DOCKED: USER    (3) Torsional Free Energy           =   +2.98 kcal/mol
DOCKED: USER    (4) Unbound System's Energy  [=(2)] =   -2.12 kcal/mol
DOCKED: USER    
DOCKED: USER    
DOCKED: USER    NEWDPF move heme_Fe_opt.pdbqt
DOCKED: USER    NEWDPF about -0.174000 -0.001000 -0.047000
DOCKED: USER    NEWDPF tran0 9.357441 11.287621 8.696634
DOCKED: USER    NEWDPF quaternion0 -0.286612 -0.733151 0.559954 -0.258447
DOCKED: USER    NEWDPF axisangle0 -0.296693 -0.758936 0.579647 -150.044099
DOCKED: USER    NEWDPF quat0 -0.296693 -0.758936 0.579647 -150.044099
DOCKED: USER    NEWDPF dihe0 160.71 -29.47 -110.58 -152.03 118.81 128.62 -25.20 75.34 155.84 163.82 
DOCKED: USER  keepresnum = 1 
DOCKED: USER  
DOCKED: REMARK  10 active torsions:
DOCKED: REMARK  status: ('A' for Active; 'I' for Inactive)
DOCKED: REMARK    1  A    between atoms: C_6  and  C_10 
DOCKED: REMARK    2  A    between atoms: C_10  and  C_11 
DOCKED: REMARK    3  A    between atoms: C_11  and  C_12 
DOCKED: REMARK    4  A    between atoms: C_12  and  O_14 
DOCKED: REMARK    5  A    between atoms: C_17  and  C_20 
DOCKED: REMARK    6  A    between atoms: C_24  and  C_27 
DOCKED: REMARK    7  A    between atoms: C_31  and  C_34 
DOCKED: REMARK    8  A    between atoms: C_34  and  C_35 
DOCKED: REMARK    9  A    between atoms: C_35  and  C_36 
DOCKED: REMARK   10  A    between atoms: C_36  and  O_38 
DOCKED: USER                              x       y       z     vdW  Elec       q    Type
DOCKED: USER                           _______ _______ _______ _____ _____    ______ ____
DOCKED: ROOT
DOCKED: ATOM      1  C   UNL d   1      10.368   9.511   8.512 -0.11 +0.01    +0.064 C 
DOCKED: ATOM      2  C   UNL d   1       7.505  11.540  11.992 -0.04 -0.00    +0.064 A 
DOCKED: ATOM      3  C   UNL d   1       6.002  14.773   8.774 -0.29 -0.01    +0.064 C 
DOCKED: ATOM      4  C   UNL d   1       8.845  12.890   5.419 -0.18 -0.00    +0.064 C 
DOCKED: ATOM      5  C   UNL d   1       9.765   9.834   9.812 -0.11 +0.00    +0.066 A 
DOCKED: ATOM      6  C   UNL d   1      10.053   9.183  11.001 -0.09 -0.00    -0.021 A 
DOCKED: ATOM      7  C   UNL d   1       9.254   9.745  11.966 -0.12 -0.00    -0.025 A 
DOCKED: ATOM      8  C   UNL d   1       8.509  10.718  11.329 -0.12 +0.00    +0.066 A 
DOCKED: ATOM      9  C   UNL d   1       9.230   9.374  13.417 -0.13 +0.00    +0.051 C 
DOCKED: ATOM     10  C   UNL d   1       6.814  12.524  11.414 -0.19 -0.01    +0.066 A 
DOCKED: ATOM     11  C   UNL d   1       5.778  13.217  12.045 -0.24 +0.00    -0.021 A 
DOCKED: ATOM     12  C   UNL d   1       5.316  14.144  11.132 -0.23 -0.00    +0.000 A 
DOCKED: ATOM     13  C   UNL d   1       6.097  13.961   9.977 -0.19 -0.01    +0.070 A 
DOCKED: ATOM     14  C   UNL d   1       5.209  12.963  13.426 -0.25 -0.00    +0.052 C 
DOCKED: ATOM     15  C   UNL d   1       6.715  14.568   7.642 -0.24 -0.01    +0.066 A 
DOCKED: ATOM     16  C   UNL d   1       6.668  15.425   6.550 -0.21 +0.00    -0.021 A 
DOCKED: ATOM     17  C   UNL d   1       7.485  14.882   5.579 -0.21 -0.00    +0.000 A 
DOCKED: ATOM     18  C   UNL d   1       8.008  13.702   6.102 -0.20 -0.01    +0.070 A 
DOCKED: ATOM     19  C   UNL d   1       5.868  16.692   6.411 -0.21 -0.00    +0.052 C 
DOCKED: ATOM     20  C   UNL d   1       9.464  11.673   5.958 +0.03 +0.00    +0.066 A 
DOCKED: ATOM     21  C   UNL d   1      10.167  10.721   5.206 -0.11 -0.00    -0.025 A 
DOCKED: ATOM     22  C   UNL d   1      10.603   9.774   6.109 -0.12 -0.00    -0.021 A 
DOCKED: ATOM     23  C   UNL d   1      10.146  10.179   7.369 -0.12 +0.00    +0.066 A 
DOCKED: ATOM     24  C   UNL d   1      10.418  10.693   3.716 -0.13 +0.00    +0.051 C 
DOCKED: ATOM     25  N   UNL d   1       8.829  10.776  10.021 -0.12 -0.00    -0.248 N 
DOCKED: ATOM     26  N   UNL d   1       7.004  12.968  10.146 -0.17 +0.04    -0.248 N 
DOCKED: ATOM     27  N   UNL d   1       7.570  13.530   7.385 -0.19 +0.04    -0.248 N 
DOCKED: ATOM     28  N   UNL d   1       9.413  11.315   7.263 -0.12 -0.01    -0.248 N 
DOCKED: ATOM     29 FE   UNL d   1       8.209  12.142   8.703 -0.05 -0.00    +0.000 Fe
DOCKED: ENDROOT
DOCKED: BRANCH   6  30
DOCKED: ATOM     30  C   UNL d   1      11.051   8.097  11.215 -0.05 +0.01    +0.052 C 
DOCKED: BRANCH  30  31
DOCKED: ATOM     31  C   UNL d   1      10.358   6.798  11.610 -0.08 +0.02    +0.115 C 
DOCKED: BRANCH  31  32
DOCKED: ATOM     32  C   UNL d   1      11.209   5.614  11.240 -0.07 +0.06    +0.139 C 
DOCKED: ATOM     33  O   UNL d   1      11.617   4.847  12.101 -0.01 -0.21    -0.650 OA
DOCKED: BRANCH  32  34
DOCKED: ATOM     34  O   UNL d   1      11.530   5.390   9.955 -0.21 -0.61    -0.776 OA
DOCKED: ATOM     35  H   UNL d   1      11.000   5.804   9.260 +0.02 +0.13    +0.167 HD
DOCKED: ENDBRANCH  32  34
DOCKED: ENDBRANCH  31  32
DOCKED: ENDBRANCH  30  31
DOCKED: ENDBRANCH   6  30
DOCKED: BRANCH  22  36
DOCKED: ATOM     36  C   UNL d   1      11.374   8.525   5.771 -0.08 +0.01    +0.052 C 
DOCKED: BRANCH  36  37
DOCKED: ATOM     37  C   UNL d   1      10.426   7.336   5.717 -0.14 +0.02    +0.115 C 
DOCKED: BRANCH  37  38
DOCKED: ATOM     38  C   UNL d   1      10.587   6.463   6.929 -0.15 +0.05    +0.139 C 
DOCKED: ATOM     39  O   UNL d   1       9.618   6.136   7.598 -0.35 -0.44    -0.650 OA
DOCKED: BRANCH  38  40
DOCKED: ATOM     40  O   UNL d   1      11.810   6.035   7.290 +0.04 -0.29    -0.776 OA
DOCKED: ATOM     41  H   UNL d   1      11.993   5.869   8.226 +0.02 +0.08    +0.167 HD
DOCKED: ENDBRANCH  38  40
DOCKED: ENDBRANCH  37  38
DOCKED: ENDBRANCH  36  37
DOCKED: ENDBRANCH  22  36
DOCKED: BRANCH  12  42
DOCKED: ATOM     42  C   UNL d   1       4.195  15.103  11.378 -0.22 -0.00    +0.004 C 
DOCKED: ATOM     43  C   UNL d   1       2.952  14.665  11.617 -0.28 -0.00    +0.012 C 
DOCKED: ENDBRANCH  12  42
DOCKED: BRANCH  17  44
DOCKED: ATOM     44  C   UNL d   1       7.762  15.465   4.247 -0.19 -0.00    +0.004 C 
DOCKED: ATOM     45  C   UNL d   1       7.101  15.044   3.164 -0.29 -0.00    +0.012 C 
DOCKED: ENDBRANCH  17  44
DOCKED: TORSDOF 10
DOCKED: TER
DOCKED: ENDMDL
________________________________________________________________________________


	BEGINNING GENETIC ALGORITHM DOCKING 57 of 100
Run: 57 Seed: 2047688476 760286719 [ Run 57 of 100 GA/GALS ]
Beginning LAMARCKIAN GENETIC ALGORITHM (LGA), with a maximum of 25000000 energy evaluations.

Final-Value: -14.314


	FINAL GENETIC ALGORITHM DOCKED STATE
	_______________________________________________


Detailed state:  trans -8.766 2.858 1.932 quatxyzw 0.909541 -0.265722 -0.294143 0.124929 center -0.174 -0.001 -0.047 ntor 10 113.2134 159.1482 107.3269 78.1992 -74.0801 94.2762 -48.6895 116.8492 -154.9585 -13.7054
State:	 -8.766   2.858   1.932   0.917 -0.268 -0.296 165.647    113.21  159.15  107.33   78.20  -74.08   94.28  -48.69  116.85 -154.96  -13.71

DOCKED: MODEL       57
DOCKED: USER    Run = 57
DOCKED: USER    DPF = D:/Protein_go_brrr/autodock/final/mut_D99N/heme_Fe/dock.dpf
DOCKED: USER  
DOCKED: USER    Estimated Free Energy of Binding    =  -10.88 kcal/mol  [=(1)+(2)+(3)-(4)]
DOCKED: USER    Estimated Inhibition Constant, Ki   =   10.60 nM (nanomolar)  [Temperature = 298.15 K]
DOCKED: USER    
DOCKED: USER    (1) Final Intermolecular Energy     =  -13.86 kcal/mol
DOCKED: USER        vdW + Hbond + desolv Energy     =  -12.48 kcal/mol
DOCKED: USER        Electrostatic Energy            =   -1.38 kcal/mol
DOCKED: USER    (2) Final Total Internal Energy     =   -0.45 kcal/mol
DOCKED: USER    (3) Torsional Free Energy           =   +2.98 kcal/mol
DOCKED: USER    (4) Unbound System's Energy  [=(2)] =   -0.45 kcal/mol
DOCKED: USER    
DOCKED: USER    
DOCKED: USER    NEWDPF move heme_Fe_opt.pdbqt
DOCKED: USER    NEWDPF about -0.174000 -0.001000 -0.047000
DOCKED: USER    NEWDPF tran0 -8.765826 2.857632 1.931943
DOCKED: USER    NEWDPF quaternion0 0.909541 -0.265722 -0.294143 0.124929
DOCKED: USER    NEWDPF axisangle0 0.916723 -0.267820 -0.296466 165.646732
DOCKED: USER    NEWDPF quat0 0.916723 -0.267820 -0.296466 165.646732
DOCKED: USER    NEWDPF dihe0 113.21 159.15 107.33 78.20 -74.08 94.28 -48.69 116.85 -154.96 -13.71 
DOCKED: USER  keepresnum = 1 
DOCKED: USER  
DOCKED: REMARK  10 active torsions:
DOCKED: REMARK  status: ('A' for Active; 'I' for Inactive)
DOCKED: REMARK    1  A    between atoms: C_6  and  C_10 
DOCKED: REMARK    2  A    between atoms: C_10  and  C_11 
DOCKED: REMARK    3  A    between atoms: C_11  and  C_12 
DOCKED: REMARK    4  A    between atoms: C_12  and  O_14 
DOCKED: REMARK    5  A    between atoms: C_17  and  C_20 
DOCKED: REMARK    6  A    between atoms: C_24  and  C_27 
DOCKED: REMARK    7  A    between atoms: C_31  and  C_34 
DOCKED: REMARK    8  A    between atoms: C_34  and  C_35 
DOCKED: REMARK    9  A    between atoms: C_35  and  C_36 
DOCKED: REMARK   10  A    between atoms: C_36  and  O_38 
DOCKED: USER                              x       y       z     vdW  Elec       q    Type
DOCKED: USER                           _______ _______ _______ _____ _____    ______ ____
DOCKED: ROOT
DOCKED: ATOM      1  C   UNL d   1     -10.341   3.922   2.704 -0.38 +0.01    +0.064 C 
DOCKED: ATOM      2  C   UNL d   1      -5.894   5.103   0.898 -0.41 +0.01    +0.064 A 
DOCKED: ATOM      3  C   UNL d   1      -5.563   0.694  -0.979 -0.46 +0.01    +0.064 C 
DOCKED: ATOM      4  C   UNL d   1      -9.818  -0.503   0.850 -0.39 +0.02    +0.064 C 
DOCKED: ATOM      5  C   UNL d   1      -9.084   4.636   2.441 -0.41 +0.01    +0.066 A 
DOCKED: ATOM      6  C   UNL d   1      -8.773   5.896   2.926 -0.47 -0.00    -0.021 A 
DOCKED: ATOM      7  C   UNL d   1      -7.540   6.225   2.421 -0.33 -0.00    -0.025 A 
DOCKED: ATOM      8  C   UNL d   1      -7.144   5.151   1.646 -0.41 +0.01    +0.066 A 
DOCKED: ATOM      9  C   UNL d   1      -6.785   7.491   2.688 -0.29 +0.01    +0.051 C 
DOCKED: ATOM     10  C   UNL d   1      -5.462   4.058   0.190 -0.39 +0.01    +0.066 A 
DOCKED: ATOM     11  C   UNL d   1      -4.317   4.082  -0.608 -0.13 -0.00    -0.021 A 
DOCKED: ATOM     12  C   UNL d   1      -4.208   2.828  -1.174 -0.15 +0.00    +0.000 A 
DOCKED: ATOM     13  C   UNL d   1      -5.309   2.098  -0.693 -0.39 +0.01    +0.070 A 
DOCKED: ATOM     14  C   UNL d   1      -3.407   5.265  -0.874 -0.31 +0.00    +0.052 C 
DOCKED: ATOM     15  C   UNL d   1      -6.648   0.002  -0.560 -0.41 +0.01    +0.066 A 
DOCKED: ATOM     16  C   UNL d   1      -6.804  -1.363  -0.770 -0.46 -0.00    -0.021 A 
DOCKED: ATOM     17  C   UNL d   1      -8.033  -1.710  -0.247 -0.36 +0.00    +0.000 A 
DOCKED: ATOM     18  C   UNL d   1      -8.600  -0.546   0.268 -0.37 +0.02    +0.070 A 
DOCKED: ATOM     19  C   UNL d   1      -5.850  -2.301  -1.458 -0.11 -0.00    +0.052 C 
DOCKED: ATOM     20  C   UNL d   1     -10.420   0.690   1.457 -0.34 +0.03    +0.066 A 
DOCKED: ATOM     21  C   UNL d   1     -11.752   0.798   1.881 -0.34 -0.01    -0.025 A 
DOCKED: ATOM     22  C   UNL d   1     -11.876   2.063   2.418 -0.30 -0.01    -0.021 A 
DOCKED: ATOM     23  C   UNL d   1     -10.623   2.676   2.295 -0.28 +0.02    +0.066 A 
DOCKED: ATOM     24  C   UNL d   1     -12.858  -0.227   1.787 -0.22 +0.05    +0.051 C 
DOCKED: ATOM     25  N   UNL d   1      -8.081   4.182   1.668 -0.18 -0.07    -0.248 N 
DOCKED: ATOM     26  N   UNL d   1      -6.079   2.849   0.132 -0.26 -0.03    -0.248 N 
DOCKED: ATOM     27  N   UNL d   1      -7.731   0.498   0.115 -0.27 -0.04    -0.248 N 
DOCKED: ATOM     28  N   UNL d   1      -9.751   1.849   1.667 -0.19 -0.08    -0.248 N 
DOCKED: ATOM     29 FE   UNL d   1      -7.916   2.348   0.899 -0.09 +0.00    +0.000 Fe
DOCKED: ENDROOT
DOCKED: BRANCH   6  30
DOCKED: ATOM     30  C   UNL d   1      -9.595   6.738   3.840 -0.22 -0.00    +0.052 C 
DOCKED: BRANCH  30  31
DOCKED: ATOM     31  C   UNL d   1     -10.892   7.166   3.161 -0.47 -0.00    +0.115 C 
DOCKED: BRANCH  31  32
DOCKED: ATOM     32  C   UNL d   1     -12.067   6.909   4.062 -0.24 -0.01    +0.139 C 
DOCKED: ATOM     33  O   UNL d   1     -12.478   5.772   4.243 +0.03 -0.01    -0.650 OA
DOCKED: BRANCH  32  34
DOCKED: ATOM     34  O   UNL d   1     -12.680   7.933   4.680 +0.06 +0.13    -0.776 OA
DOCKED: ATOM     35  H   UNL d   1     -12.200   8.427   5.359 -0.35 -0.06    +0.167 HD
DOCKED: ENDBRANCH  32  34
DOCKED: ENDBRANCH  31  32
DOCKED: ENDBRANCH  30  31
DOCKED: ENDBRANCH   6  30
DOCKED: BRANCH  22  36
DOCKED: ATOM     36  C   UNL d   1     -13.140   2.663   2.972 -0.24 +0.02    +0.052 C 
DOCKED: BRANCH  36  37
DOCKED: ATOM     37  C   UNL d   1     -13.332   2.216   4.414 -0.15 +0.04    +0.115 C 
DOCKED: BRANCH  37  38
DOCKED: ATOM     38  C   UNL d   1     -13.530   0.729   4.495 -0.14 +0.12    +0.139 C 
DOCKED: ATOM     39  O   UNL d   1     -12.584  -0.017   4.701 -0.56 -0.98    -0.650 OA
DOCKED: BRANCH  38  40
DOCKED: ATOM     40  O   UNL d   1     -14.758   0.205   4.335 +0.01 -0.66    -0.776 OA
DOCKED: ATOM     41  H   UNL d   1     -15.531   0.769   4.476 +0.02 +0.08    +0.167 HD
DOCKED: ENDBRANCH  38  40
DOCKED: ENDBRANCH  37  38
DOCKED: ENDBRANCH  36  37
DOCKED: ENDBRANCH  22  36
DOCKED: BRANCH  12  42
DOCKED: ATOM     42  C   UNL d   1      -3.126   2.404  -2.116 -0.39 +0.00    +0.004 C 
DOCKED: ATOM     43  C   UNL d   1      -2.786   1.114  -2.240 -0.54 +0.00    +0.012 C 
DOCKED: ENDBRANCH  12  42
DOCKED: BRANCH  17  44
DOCKED: ATOM     44  C   UNL d   1      -8.617  -3.070  -0.221 +0.20 +0.00    +0.004 C 
DOCKED: ATOM     45  C   UNL d   1      -9.148  -3.566   0.900 -0.39 +0.00    +0.012 C 
DOCKED: ENDBRANCH  17  44
DOCKED: TORSDOF 10
DOCKED: TER
DOCKED: ENDMDL
________________________________________________________________________________


	BEGINNING GENETIC ALGORITHM DOCKING 58 of 100
Run: 58 Seed: 1069674963 1771702474 [ Run 58 of 100 GA/GALS ]
Beginning LAMARCKIAN GENETIC ALGORITHM (LGA), with a maximum of 25000000 energy evaluations.

Final-Value: -17.072


	FINAL GENETIC ALGORITHM DOCKED STATE
	_______________________________________________


Detailed state:  trans -9.002 1.113 1.500 quatxyzw 0.933887 0.161152 -0.251656 0.196351 center -0.174 -0.001 -0.047 ntor 10 38.0764 -90.1049 39.9591 -140.9255 164.1222 -134.4352 -63.7834 11.6311 -165.9878 155.8507
State:	 -9.002   1.113   1.500   0.952  0.164 -0.257 157.353     38.08  -90.10   39.96 -140.93  164.12 -134.44  -63.78   11.63 -165.99  155.85

DOCKED: MODEL       58
DOCKED: USER    Run = 58
DOCKED: USER    DPF = D:/Protein_go_brrr/autodock/final/mut_D99N/heme_Fe/dock.dpf
DOCKED: USER  
DOCKED: USER    Estimated Free Energy of Binding    =  -11.96 kcal/mol  [=(1)+(2)+(3)-(4)]
DOCKED: USER    Estimated Inhibition Constant, Ki   =    1.70 nM (nanomolar)  [Temperature = 298.15 K]
DOCKED: USER    
DOCKED: USER    (1) Final Intermolecular Energy     =  -14.95 kcal/mol
DOCKED: USER        vdW + Hbond + desolv Energy     =  -12.98 kcal/mol
DOCKED: USER        Electrostatic Energy            =   -1.96 kcal/mol
DOCKED: USER    (2) Final Total Internal Energy     =   -2.12 kcal/mol
DOCKED: USER    (3) Torsional Free Energy           =   +2.98 kcal/mol
DOCKED: USER    (4) Unbound System's Energy  [=(2)] =   -2.12 kcal/mol
DOCKED: USER    
DOCKED: USER    
DOCKED: USER    NEWDPF move heme_Fe_opt.pdbqt
DOCKED: USER    NEWDPF about -0.174000 -0.001000 -0.047000
DOCKED: USER    NEWDPF tran0 -9.001559 1.113216 1.500044
DOCKED: USER    NEWDPF quaternion0 0.933887 0.161152 -0.251656 0.196351
DOCKED: USER    NEWDPF axisangle0 0.952428 0.164351 -0.256652 157.352742
DOCKED: USER    NEWDPF quat0 0.952428 0.164351 -0.256652 157.352742
DOCKED: USER    NEWDPF dihe0 38.08 -90.10 39.96 -140.93 164.12 -134.44 -63.78 11.63 -165.99 155.85 
DOCKED: USER  keepresnum = 1 
DOCKED: USER  
DOCKED: REMARK  10 active torsions:
DOCKED: REMARK  status: ('A' for Active; 'I' for Inactive)
DOCKED: REMARK    1  A    between atoms: C_6  and  C_10 
DOCKED: REMARK    2  A    between atoms: C_10  and  C_11 
DOCKED: REMARK    3  A    between atoms: C_11  and  C_12 
DOCKED: REMARK    4  A    between atoms: C_12  and  O_14 
DOCKED: REMARK    5  A    between atoms: C_17  and  C_20 
DOCKED: REMARK    6  A    between atoms: C_24  and  C_27 
DOCKED: REMARK    7  A    between atoms: C_31  and  C_34 
DOCKED: REMARK    8  A    between atoms: C_34  and  C_35 
DOCKED: REMARK    9  A    between atoms: C_35  and  C_36 
DOCKED: REMARK   10  A    between atoms: C_36  and  O_38 
DOCKED: USER                              x       y       z     vdW  Elec       q    Type
DOCKED: USER                           _______ _______ _______ _____ _____    ______ ____
DOCKED: ROOT
DOCKED: ATOM      1  C   UNL d   1     -10.924   0.525   1.909 -0.37 +0.03    +0.064 C 
DOCKED: ATOM      2  C   UNL d   1      -8.493   4.825   2.067 -0.42 +0.01    +0.064 A 
DOCKED: ATOM      3  C   UNL d   1      -4.980   2.856  -0.550 -0.41 +0.01    +0.064 C 
DOCKED: ATOM      4  C   UNL d   1      -7.266  -1.345  -0.626 -0.42 +0.01    +0.064 C 
DOCKED: ATOM      5  C   UNL d   1     -10.527   1.893   2.267 -0.13 +0.02    +0.066 A 
DOCKED: ATOM      6  C   UNL d   1     -11.243   2.730   3.107 -0.21 -0.01    -0.021 A 
DOCKED: ATOM      7  C   UNL d   1     -10.569   3.926   3.147 -0.35 -0.00    -0.025 A 
DOCKED: ATOM      8  C   UNL d   1      -9.466   3.772   2.329 -0.35 +0.02    +0.066 A 
DOCKED: ATOM      9  C   UNL d   1     -10.960   5.133   3.943 -0.41 +0.00    +0.051 C 
DOCKED: ATOM     10  C   UNL d   1      -7.391   4.686   1.329 -0.38 +0.01    +0.066 A 
DOCKED: ATOM     11  C   UNL d   1      -6.539   5.743   1.001 -0.47 -0.00    -0.021 A 
DOCKED: ATOM     12  C   UNL d   1      -5.526   5.204   0.233 -0.47 +0.00    +0.000 A 
DOCKED: ATOM     13  C   UNL d   1      -5.820   3.834   0.123 -0.38 +0.01    +0.070 A 
DOCKED: ATOM     14  C   UNL d   1      -6.717   7.208   1.346 -0.53 +0.01    +0.052 C 
DOCKED: ATOM     15  C   UNL d   1      -5.285   1.546  -0.703 -0.39 +0.01    +0.066 A 
DOCKED: ATOM     16  C   UNL d   1      -4.410   0.624  -1.264 -0.36 -0.00    -0.021 A 
DOCKED: ATOM     17  C   UNL d   1      -5.069  -0.588  -1.290 -0.42 +0.00    +0.000 A 
DOCKED: ATOM     18  C   UNL d   1      -6.334  -0.375  -0.747 -0.41 +0.01    +0.070 A 
DOCKED: ATOM     19  C   UNL d   1      -3.018   0.875  -1.779 -0.39 +0.00    +0.052 C 
DOCKED: ATOM     20  C   UNL d   1      -8.585  -1.173  -0.004 -0.34 +0.01    +0.066 A 
DOCKED: ATOM     21  C   UNL d   1      -9.630  -2.106  -0.050 -0.13 -0.01    -0.025 A 
DOCKED: ATOM     22  C   UNL d   1     -10.658  -1.558   0.689 -0.17 -0.01    -0.021 A 
DOCKED: ATOM     23  C   UNL d   1     -10.204  -0.317   1.150 -0.35 +0.03    +0.066 A 
DOCKED: ATOM     24  C   UNL d   1      -9.671  -3.443  -0.753 -0.14 +0.01    +0.051 C 
DOCKED: ATOM     25  N   UNL d   1      -9.438   2.531   1.803 -0.18 -0.09    -0.248 N 
DOCKED: ATOM     26  N   UNL d   1      -6.962   3.519   0.783 -0.15 -0.07    -0.248 N 
DOCKED: ATOM     27  N   UNL d   1      -6.452   0.926  -0.345 -0.27 -0.03    -0.248 N 
DOCKED: ATOM     28  N   UNL d   1      -8.955  -0.067   0.686 -0.27 -0.07    -0.248 N 
DOCKED: ATOM     29 FE   UNL d   1      -7.958   1.724   0.734 -0.09 +0.00    +0.000 Fe
DOCKED: ENDROOT
DOCKED: BRANCH   6  30
DOCKED: ATOM     30  C   UNL d   1     -12.493   2.406   3.851 -0.23 +0.02    +0.052 C 
DOCKED: BRANCH  30  31
DOCKED: ATOM     31  C   UNL d   1     -13.698   2.424   2.918 -0.21 +0.04    +0.115 C 
DOCKED: BRANCH  31  32
DOCKED: ATOM     32  C   UNL d   1     -14.314   1.055   2.828 -0.17 +0.08    +0.139 C 
DOCKED: ATOM     33  O   UNL d   1     -15.441   0.907   2.376 -0.01 -0.29    -0.650 OA
DOCKED: BRANCH  32  34
DOCKED: ATOM     34  O   UNL d   1     -13.628  -0.022   3.246 -0.14 -1.10    -0.776 OA
DOCKED: ATOM     35  H   UNL d   1     -13.702  -0.848   2.748 +0.04 +0.37    +0.167 HD
DOCKED: ENDBRANCH  32  34
DOCKED: ENDBRANCH  31  32
DOCKED: ENDBRANCH  30  31
DOCKED: ENDBRANCH   6  30
DOCKED: BRANCH  22  36
DOCKED: ATOM     36  C   UNL d   1     -12.016  -2.174   0.898 +0.33 +0.06    +0.052 C 
DOCKED: BRANCH  36  37
DOCKED: ATOM     37  C   UNL d   1     -13.055  -1.415   0.085 -0.09 +0.07    +0.115 C 
DOCKED: BRANCH  37  38
DOCKED: ATOM     38  C   UNL d   1     -14.447  -1.830   0.468 -0.16 +0.10    +0.139 C 
DOCKED: ATOM     39  O   UNL d   1     -15.286  -2.068  -0.388 +0.00 -0.25    -0.650 OA
DOCKED: BRANCH  38  40
DOCKED: ATOM     40  O   UNL d   1     -14.782  -1.939   1.766 -0.41 -1.18    -0.776 OA
DOCKED: ATOM     41  H   UNL d   1     -15.134  -1.165   2.227 +0.02 +0.19    +0.167 HD
DOCKED: ENDBRANCH  38  40
DOCKED: ENDBRANCH  37  38
DOCKED: ENDBRANCH  36  37
DOCKED: ENDBRANCH  22  36
DOCKED: BRANCH  12  42
DOCKED: ATOM     42  C   UNL d   1      -4.389   5.981  -0.351 -0.63 +0.00    +0.004 C 
DOCKED: ATOM     43  C   UNL d   1      -3.263   6.183   0.346 -0.61 +0.00    +0.012 C 
DOCKED: ENDBRANCH  12  42
DOCKED: BRANCH  17  44
DOCKED: ATOM     44  C   UNL d   1      -4.516  -1.870  -1.783 -0.66 -0.00    +0.004 C 
DOCKED: ATOM     45  C   UNL d   1      -4.603  -2.201  -3.075 -0.73 -0.00    +0.012 C 
DOCKED: ENDBRANCH  17  44
DOCKED: TORSDOF 10
DOCKED: TER
DOCKED: ENDMDL
________________________________________________________________________________


	BEGINNING GENETIC ALGORITHM DOCKING 59 of 100
Run: 59 Seed: 495116820 2096023785 [ Run 59 of 100 GA/GALS ]
Beginning LAMARCKIAN GENETIC ALGORITHM (LGA), with a maximum of 25000000 energy evaluations.

Final-Value: -11.431


	FINAL GENETIC ALGORITHM DOCKED STATE
	_______________________________________________


Detailed state:  trans 3.391 -0.650 -19.045 quatxyzw 0.766565 -0.270183 -0.064385 0.578994 center -0.174 -0.001 -0.047 ntor 10 -12.2076 134.1587 54.6482 43.5209 -178.5511 -173.7159 58.5399 -46.5901 -5.9306 -41.8819
State:	  3.391  -0.650 -19.045   0.940 -0.331 -0.079 109.240    -12.21  134.16   54.65   43.52 -178.55 -173.72   58.54  -46.59   -5.93  -41.88

DOCKED: MODEL       59
DOCKED: USER    Run = 59
DOCKED: USER    DPF = D:/Protein_go_brrr/autodock/final/mut_D99N/heme_Fe/dock.dpf
DOCKED: USER  
DOCKED: USER    Estimated Free Energy of Binding    =   -6.97 kcal/mol  [=(1)+(2)+(3)-(4)]
DOCKED: USER    Estimated Inhibition Constant, Ki   =    7.84 uM (micromolar)  [Temperature = 298.15 K]
DOCKED: USER    
DOCKED: USER    (1) Final Intermolecular Energy     =   -9.95 kcal/mol
DOCKED: USER        vdW + Hbond + desolv Energy     =   -6.49 kcal/mol
DOCKED: USER        Electrostatic Energy            =   -3.46 kcal/mol
DOCKED: USER    (2) Final Total Internal Energy     =   -1.48 kcal/mol
DOCKED: USER    (3) Torsional Free Energy           =   +2.98 kcal/mol
DOCKED: USER    (4) Unbound System's Energy  [=(2)] =   -1.48 kcal/mol
DOCKED: USER    
DOCKED: USER    
DOCKED: USER    NEWDPF move heme_Fe_opt.pdbqt
DOCKED: USER    NEWDPF about -0.174000 -0.001000 -0.047000
DOCKED: USER    NEWDPF tran0 3.390501 -0.649532 -19.044724
DOCKED: USER    NEWDPF quaternion0 0.766565 -0.270183 -0.064385 0.578994
DOCKED: USER    NEWDPF axisangle0 0.940188 -0.331378 -0.078968 109.240368
DOCKED: USER    NEWDPF quat0 0.940188 -0.331378 -0.078968 109.240368
DOCKED: USER    NEWDPF dihe0 -12.21 134.16 54.65 43.52 -178.55 -173.72 58.54 -46.59 -5.93 -41.88 
DOCKED: USER  keepresnum = 1 
DOCKED: USER  
DOCKED: REMARK  10 active torsions:
DOCKED: REMARK  status: ('A' for Active; 'I' for Inactive)
DOCKED: REMARK    1  A    between atoms: C_6  and  C_10 
DOCKED: REMARK    2  A    between atoms: C_10  and  C_11 
DOCKED: REMARK    3  A    between atoms: C_11  and  C_12 
DOCKED: REMARK    4  A    between atoms: C_12  and  O_14 
DOCKED: REMARK    5  A    between atoms: C_17  and  C_20 
DOCKED: REMARK    6  A    between atoms: C_24  and  C_27 
DOCKED: REMARK    7  A    between atoms: C_31  and  C_34 
DOCKED: REMARK    8  A    between atoms: C_34  and  C_35 
DOCKED: REMARK    9  A    between atoms: C_35  and  C_36 
DOCKED: REMARK   10  A    between atoms: C_36  and  O_38 
DOCKED: USER                              x       y       z     vdW  Elec       q    Type
DOCKED: USER                           _______ _______ _______ _____ _____    ______ ____
DOCKED: ROOT
DOCKED: ATOM      1  C   UNL d   1       1.858   0.525 -18.350 +0.07 +0.03    +0.064 C 
DOCKED: ATOM      2  C   UNL d   1       6.530  -0.284 -16.955 -0.19 +0.02    +0.064 A 
DOCKED: ATOM      3  C   UNL d   1       7.371  -2.344 -21.211 -0.15 +0.01    +0.064 C 
DOCKED: ATOM      4  C   UNL d   1       2.826  -1.666 -22.541 -0.09 +0.01    +0.064 C 
DOCKED: ATOM      5  C   UNL d   1       3.073   0.413 -17.531 -0.13 +0.02    +0.066 A 
DOCKED: ATOM      6  C   UNL d   1       3.170   0.801 -16.204 -0.21 -0.01    -0.021 A 
DOCKED: ATOM      7  C   UNL d   1       4.469   0.579 -15.819 -0.21 -0.01    -0.025 A 
DOCKED: ATOM      8  C   UNL d   1       5.115   0.064 -16.926 -0.18 +0.02    +0.066 A 
DOCKED: ATOM      9  C   UNL d   1       5.041   0.832 -14.458 -0.32 +0.01    +0.051 C 
DOCKED: ATOM     10  C   UNL d   1       7.164  -0.836 -17.991 -0.19 +0.02    +0.066 A 
DOCKED: ATOM     11  C   UNL d   1       8.544  -1.052 -18.029 -0.18 -0.01    -0.021 A 
DOCKED: ATOM     12  C   UNL d   1       8.814  -1.630 -19.254 -0.17 +0.00    +0.000 A 
DOCKED: ATOM     13  C   UNL d   1       7.575  -1.730 -19.909 -0.16 +0.01    +0.070 A 
DOCKED: ATOM     14  C   UNL d   1       9.564  -0.664 -16.979 -0.04 +0.03    +0.052 C 
DOCKED: ATOM     15  C   UNL d   1       6.189  -2.396 -21.868 -0.11 +0.01    +0.066 A 
DOCKED: ATOM     16  C   UNL d   1       6.015  -3.080 -23.065 -0.11 -0.00    -0.021 A 
DOCKED: ATOM     17  C   UNL d   1       4.706  -2.882 -23.452 -0.11 +0.00    +0.000 A 
DOCKED: ATOM     18  C   UNL d   1       4.111  -2.078 -22.483 -0.10 +0.01    +0.070 A 
DOCKED: ATOM     19  C   UNL d   1       7.045  -3.867 -23.830 -0.12 +0.00    +0.052 C 
DOCKED: ATOM     20  C   UNL d   1       2.150  -0.871 -21.509 -0.10 +0.02    +0.066 A 
DOCKED: ATOM     21  C   UNL d   1       0.890  -0.270 -21.646 -0.09 -0.01    -0.025 A 
DOCKED: ATOM     22  C   UNL d   1       0.628   0.338 -20.435 -0.13 -0.01    -0.021 A 
DOCKED: ATOM     23  C   UNL d   1       1.735   0.091 -19.614 -0.13 +0.03    +0.066 A 
DOCKED: ATOM     24  C   UNL d   1      -0.025  -0.260 -22.849 -0.04 +0.02    +0.051 C 
DOCKED: ATOM     25  N   UNL d   1       4.261  -0.044 -17.963 -0.11 -0.07    -0.248 N 
DOCKED: ATOM     26  N   UNL d   1       6.570  -1.238 -19.143 -0.11 -0.06    -0.248 N 
DOCKED: ATOM     27  N   UNL d   1       5.009  -1.815 -21.486 -0.10 -0.04    -0.248 N 
DOCKED: ATOM     28  N   UNL d   1       2.679  -0.608 -20.290 -0.10 -0.08    -0.248 N 
DOCKED: ATOM     29 FE   UNL d   1       4.624  -0.923 -19.718 -0.04 +0.00    +0.000 Fe
DOCKED: ENDROOT
DOCKED: BRANCH   6  30
DOCKED: ATOM     30  C   UNL d   1       2.081   1.334 -15.338 -0.31 +0.02    +0.052 C 
DOCKED: BRANCH  30  31
DOCKED: ATOM     31  C   UNL d   1       1.257   0.197 -14.743 -0.41 +0.08    +0.115 C 
DOCKED: BRANCH  31  32
DOCKED: ATOM     32  C   UNL d   1      -0.187   0.330 -15.140 -0.35 +0.18    +0.139 C 
DOCKED: ATOM     33  O   UNL d   1      -1.019  -0.473 -14.742 -0.65 -1.06    -0.650 OA
DOCKED: BRANCH  32  34
DOCKED: ATOM     34  O   UNL d   1      -0.577   1.338 -15.939 -0.23 -1.00    -0.776 OA
DOCKED: ATOM     35  H   UNL d   1      -1.463   1.312 -16.328 +0.06 +0.27    +0.167 HD
DOCKED: ENDBRANCH  32  34
DOCKED: ENDBRANCH  31  32
DOCKED: ENDBRANCH  30  31
DOCKED: ENDBRANCH   6  30
DOCKED: BRANCH  22  36
DOCKED: ATOM     36  C   UNL d   1      -0.596   1.151 -20.106 -0.11 +0.05    +0.052 C 
DOCKED: BRANCH  36  37
DOCKED: ATOM     37  C   UNL d   1      -1.847   0.328 -20.375 -0.11 +0.14    +0.115 C 
DOCKED: BRANCH  37  38
DOCKED: ATOM     38  C   UNL d   1      -2.804   0.409 -19.221 +0.04 +0.27    +0.139 C 
DOCKED: ATOM     39  O   UNL d   1      -3.817  -0.274 -19.199 -0.42 -1.28    -0.650 OA
DOCKED: BRANCH  38  40
DOCKED: ATOM     40  O   UNL d   1      -2.552   1.245 -18.197 +0.04 -1.42    -0.776 OA
DOCKED: ATOM     41  H   UNL d   1      -1.663   1.267 -17.817 +0.04 +0.31    +0.167 HD
DOCKED: ENDBRANCH  38  40
DOCKED: ENDBRANCH  37  38
DOCKED: ENDBRANCH  36  37
DOCKED: ENDBRANCH  22  36
DOCKED: BRANCH  12  42
DOCKED: ATOM     42  C   UNL d   1      10.175  -2.026 -19.731 -0.11 +0.00    +0.004 C 
DOCKED: ATOM     43  C   UNL d   1      10.566  -3.307 -19.715 -0.18 +0.00    +0.012 C 
DOCKED: ENDBRANCH  12  42
DOCKED: BRANCH  17  44
DOCKED: ATOM     44  C   UNL d   1       4.060  -3.444 -24.661 -0.07 +0.00    +0.004 C 
DOCKED: ATOM     45  C   UNL d   1       3.322  -4.556 -24.588 -0.08 +0.00    +0.012 C 
DOCKED: ENDBRANCH  17  44
DOCKED: TORSDOF 10
DOCKED: TER
DOCKED: ENDMDL
________________________________________________________________________________


	BEGINNING GENETIC ALGORITHM DOCKING 60 of 100
Run: 60 Seed: 984691522 1765950024 [ Run 60 of 100 GA/GALS ]
Beginning LAMARCKIAN GENETIC ALGORITHM (LGA), with a maximum of 25000000 energy evaluations.

Final-Value: -11.068


	FINAL GENETIC ALGORITHM DOCKED STATE
	_______________________________________________


Detailed state:  trans 15.649 -8.815 7.022 quatxyzw -0.229175 0.226329 -0.944478 -0.064917 center -0.174 -0.001 -0.047 ntor 10 -151.3055 -44.5939 -176.2954 72.4299 -7.9728 78.2222 -55.1885 67.7453 -139.6575 179.8566
State:	 15.649  -8.815   7.022  -0.230  0.227 -0.946 -172.556   -151.31  -44.59 -176.30   72.43   -7.97   78.22  -55.19   67.75 -139.66  179.86

DOCKED: MODEL       60
DOCKED: USER    Run = 60
DOCKED: USER    DPF = D:/Protein_go_brrr/autodock/final/mut_D99N/heme_Fe/dock.dpf
DOCKED: USER  
DOCKED: USER    Estimated Free Energy of Binding    =   -5.95 kcal/mol  [=(1)+(2)+(3)-(4)]
DOCKED: USER    Estimated Inhibition Constant, Ki   =   43.33 uM (micromolar)  [Temperature = 298.15 K]
DOCKED: USER    
DOCKED: USER    (1) Final Intermolecular Energy     =   -8.94 kcal/mol
DOCKED: USER        vdW + Hbond + desolv Energy     =   -7.72 kcal/mol
DOCKED: USER        Electrostatic Energy            =   -1.22 kcal/mol
DOCKED: USER    (2) Final Total Internal Energy     =   -2.13 kcal/mol
DOCKED: USER    (3) Torsional Free Energy           =   +2.98 kcal/mol
DOCKED: USER    (4) Unbound System's Energy  [=(2)] =   -2.13 kcal/mol
DOCKED: USER    
DOCKED: USER    
DOCKED: USER    NEWDPF move heme_Fe_opt.pdbqt
DOCKED: USER    NEWDPF about -0.174000 -0.001000 -0.047000
DOCKED: USER    NEWDPF tran0 15.648601 -8.814600 7.022099
DOCKED: USER    NEWDPF quaternion0 -0.229175 0.226329 -0.944478 -0.064917
DOCKED: USER    NEWDPF axisangle0 -0.229660 0.226807 -0.946475 -172.555803
DOCKED: USER    NEWDPF quat0 -0.229660 0.226807 -0.946475 -172.555803
DOCKED: USER    NEWDPF dihe0 -151.31 -44.59 -176.30 72.43 -7.97 78.22 -55.19 67.75 -139.66 179.86 
DOCKED: USER  keepresnum = 1 
DOCKED: USER  
DOCKED: REMARK  10 active torsions:
DOCKED: REMARK  status: ('A' for Active; 'I' for Inactive)
DOCKED: REMARK    1  A    between atoms: C_6  and  C_10 
DOCKED: REMARK    2  A    between atoms: C_10  and  C_11 
DOCKED: REMARK    3  A    between atoms: C_11  and  C_12 
DOCKED: REMARK    4  A    between atoms: C_12  and  O_14 
DOCKED: REMARK    5  A    between atoms: C_17  and  C_20 
DOCKED: REMARK    6  A    between atoms: C_24  and  C_27 
DOCKED: REMARK    7  A    between atoms: C_31  and  C_34 
DOCKED: REMARK    8  A    between atoms: C_34  and  C_35 
DOCKED: REMARK    9  A    between atoms: C_35  and  C_36 
DOCKED: REMARK   10  A    between atoms: C_36  and  O_38 
DOCKED: USER                              x       y       z     vdW  Elec       q    Type
DOCKED: USER                           _______ _______ _______ _____ _____    ______ ____
DOCKED: ROOT
DOCKED: ATOM      1  C   UNL d   1      17.650  -8.525   6.671 -0.29 -0.00    +0.064 C 
DOCKED: ATOM      2  C   UNL d   1      14.260  -6.319   9.512 -0.21 -0.03    +0.064 A 
DOCKED: ATOM      3  C   UNL d   1      11.360 -10.092   8.863 -0.23 -0.02    +0.064 C 
DOCKED: ATOM      4  C   UNL d   1      14.585 -12.198   6.026 -0.23 -0.04    +0.064 C 
DOCKED: ATOM      5  C   UNL d   1      16.931  -7.517   7.463 -0.24 -0.01    +0.066 A 
DOCKED: ATOM      6  C   UNL d   1      17.413  -6.252   7.756 -0.20 +0.00    -0.021 A 
DOCKED: ATOM      7  C   UNL d   1      16.473  -5.641   8.548 -0.19 +0.01    -0.025 A 
DOCKED: ATOM      8  C   UNL d   1      15.452  -6.558   8.708 -0.11 -0.03    +0.066 A 
DOCKED: ATOM      9  C   UNL d   1      16.551  -4.250   9.099 -0.21 -0.01    +0.051 C 
DOCKED: ATOM     10  C   UNL d   1      13.234  -7.163   9.635 -0.25 -0.03    +0.066 A 
DOCKED: ATOM     11  C   UNL d   1      12.159  -6.955  10.503 -0.27 +0.01    -0.021 A 
DOCKED: ATOM     12  C   UNL d   1      11.317  -8.038  10.347 -0.24 -0.00    +0.000 A 
DOCKED: ATOM     13  C   UNL d   1      11.932  -8.863   9.389 -0.22 -0.03    +0.070 A 
DOCKED: ATOM     14  C   UNL d   1      11.977  -5.814  11.483 -0.24 -0.02    +0.052 C 
DOCKED: ATOM     15  C   UNL d   1      11.971 -10.916   7.980 -0.18 -0.02    +0.066 A 
DOCKED: ATOM     16  C   UNL d   1      11.352 -12.029   7.426 -0.19 +0.01    -0.021 A 
DOCKED: ATOM     17  C   UNL d   1      12.281 -12.640   6.610 -0.21 -0.00    +0.000 A 
DOCKED: ATOM     18  C   UNL d   1      13.450 -11.886   6.689 -0.21 -0.03    +0.070 A 
DOCKED: ATOM     19  C   UNL d   1       9.949 -12.516   7.672 -0.19 -0.01    +0.052 C 
DOCKED: ATOM     20  C   UNL d   1      15.814 -11.396   6.036 -0.24 -0.03    +0.066 A 
DOCKED: ATOM     21  C   UNL d   1      17.053 -11.805   5.522 -0.22 +0.01    -0.025 A 
DOCKED: ATOM     22  C   UNL d   1      17.908 -10.738   5.705 -0.27 +0.00    -0.021 A 
DOCKED: ATOM     23  C   UNL d   1      17.163  -9.728   6.326 -0.27 -0.01    +0.066 A 
DOCKED: ATOM     24  C   UNL d   1      17.423 -13.128   4.894 -0.06 -0.03    +0.051 C 
DOCKED: ATOM     25  N   UNL d   1      15.729  -7.695   8.038 -0.19 +0.08    -0.248 N 
DOCKED: ATOM     26  N   UNL d   1      13.105  -8.334   8.962 +0.03 +0.12    -0.248 N 
DOCKED: ATOM     27  N   UNL d   1      13.247 -10.802   7.496 -0.09 +0.12    -0.248 N 
DOCKED: ATOM     28  N   UNL d   1      15.899 -10.152   6.566 -0.19 +0.09    -0.248 N 
DOCKED: ATOM     29 FE   UNL d   1      14.502  -9.245   7.763 -0.06 -0.00    +0.000 Fe
DOCKED: ENDROOT
DOCKED: BRANCH   6  30
DOCKED: ATOM     30  C   UNL d   1      18.692  -5.644   7.291 -0.15 +0.00    +0.052 C 
DOCKED: BRANCH  30  31
DOCKED: ATOM     31  C   UNL d   1      19.863  -6.584   7.552 -0.10 +0.02    +0.115 C 
DOCKED: BRANCH  31  32
DOCKED: ATOM     32  C   UNL d   1      20.621  -6.847   6.280 -0.20 +0.05    +0.139 C 
DOCKED: ATOM     33  O   UNL d   1      20.189  -6.454   5.206 -0.09 -0.26    -0.650 OA
DOCKED: BRANCH  32  34
DOCKED: ATOM     34  O   UNL d   1      21.784  -7.519   6.314 +0.06 -0.55    -0.776 OA
DOCKED: ATOM     35  H   UNL d   1      21.930  -8.169   7.015 +0.01 +0.12    +0.167 HD
DOCKED: ENDBRANCH  32  34
DOCKED: ENDBRANCH  31  32
DOCKED: ENDBRANCH  30  31
DOCKED: ENDBRANCH   6  30
DOCKED: BRANCH  22  36
DOCKED: ATOM     36  C   UNL d   1      19.371 -10.712   5.347 -0.28 +0.01    +0.052 C 
DOCKED: BRANCH  36  37
DOCKED: ATOM     37  C   UNL d   1      20.184 -11.352   6.463 -0.12 +0.03    +0.115 C 
DOCKED: BRANCH  37  38
DOCKED: ATOM     38  C   UNL d   1      21.053 -10.335   7.147 -0.12 +0.06    +0.139 C 
DOCKED: ATOM     39  O   UNL d   1      20.582  -9.559   7.966 +0.02 -0.18    -0.650 OA
DOCKED: BRANCH  38  40
DOCKED: ATOM     40  O   UNL d   1      22.365 -10.269   6.857 -0.10 -0.83    -0.776 OA
DOCKED: ATOM     41  H   UNL d   1      22.771  -9.404   6.710 +0.01 +0.25    +0.167 HD
DOCKED: ENDBRANCH  38  40
DOCKED: ENDBRANCH  37  38
DOCKED: ENDBRANCH  36  37
DOCKED: ENDBRANCH  22  36
DOCKED: BRANCH  12  42
DOCKED: ATOM     42  C   UNL d   1      10.037  -8.241  11.093 -0.22 -0.00    +0.004 C 
DOCKED: ATOM     43  C   UNL d   1       9.788  -9.389  11.737 -0.16 -0.01    +0.012 C 
DOCKED: ENDBRANCH  12  42
DOCKED: BRANCH  17  44
DOCKED: ATOM     44  C   UNL d   1      12.059 -13.854   5.792 -0.27 -0.00    +0.004 C 
DOCKED: ATOM     45  C   UNL d   1      12.320 -13.853   4.481 -0.36 -0.00    +0.012 C 
DOCKED: ENDBRANCH  17  44
DOCKED: TORSDOF 10
DOCKED: TER
DOCKED: ENDMDL
________________________________________________________________________________


	BEGINNING GENETIC ALGORITHM DOCKING 61 of 100
Run: 61 Seed: 813139991 988054437 [ Run 61 of 100 GA/GALS ]
Beginning LAMARCKIAN GENETIC ALGORITHM (LGA), with a maximum of 25000000 energy evaluations.

Final-Value: -16.630


	FINAL GENETIC ALGORITHM DOCKED STATE
	_______________________________________________


Detailed state:  trans -9.090 1.665 1.769 quatxyzw -0.935855 -0.124757 0.260810 -0.201468 center -0.174 -0.001 -0.047 ntor 10 138.9382 -23.1900 23.1440 -132.6759 140.4995 -174.7501 81.5832 -15.2379 -25.1251 -160.9950
State:	 -9.090   1.665   1.769  -0.955 -0.127  0.266 -156.754    138.94  -23.19   23.14 -132.68  140.50 -174.75   81.58  -15.24  -25.13 -161.00

DOCKED: MODEL       61
DOCKED: USER    Run = 61
DOCKED: USER    DPF = D:/Protein_go_brrr/autodock/final/mut_D99N/heme_Fe/dock.dpf
DOCKED: USER  
DOCKED: USER    Estimated Free Energy of Binding    =  -13.23 kcal/mol  [=(1)+(2)+(3)-(4)]
DOCKED: USER    Estimated Inhibition Constant, Ki   =  200.66 pM (picomolar)  [Temperature = 298.15 K]
DOCKED: USER    
DOCKED: USER    (1) Final Intermolecular Energy     =  -16.21 kcal/mol
DOCKED: USER        vdW + Hbond + desolv Energy     =  -13.86 kcal/mol
DOCKED: USER        Electrostatic Energy            =   -2.35 kcal/mol
DOCKED: USER    (2) Final Total Internal Energy     =   -0.42 kcal/mol
DOCKED: USER    (3) Torsional Free Energy           =   +2.98 kcal/mol
DOCKED: USER    (4) Unbound System's Energy  [=(2)] =   -0.42 kcal/mol
DOCKED: USER    
DOCKED: USER    
DOCKED: USER    NEWDPF move heme_Fe_opt.pdbqt
DOCKED: USER    NEWDPF about -0.174000 -0.001000 -0.047000
DOCKED: USER    NEWDPF tran0 -9.089929 1.665290 1.769328
DOCKED: USER    NEWDPF quaternion0 -0.935855 -0.124757 0.260810 -0.201468
DOCKED: USER    NEWDPF axisangle0 -0.955446 -0.127368 0.266270 -156.754343
DOCKED: USER    NEWDPF quat0 -0.955446 -0.127368 0.266270 -156.754343
DOCKED: USER    NEWDPF dihe0 138.94 -23.19 23.14 -132.68 140.50 -174.75 81.58 -15.24 -25.13 -161.00 
DOCKED: USER  keepresnum = 1 
DOCKED: USER  
DOCKED: REMARK  10 active torsions:
DOCKED: REMARK  status: ('A' for Active; 'I' for Inactive)
DOCKED: REMARK    1  A    between atoms: C_6  and  C_10 
DOCKED: REMARK    2  A    between atoms: C_10  and  C_11 
DOCKED: REMARK    3  A    between atoms: C_11  and  C_12 
DOCKED: REMARK    4  A    between atoms: C_12  and  O_14 
DOCKED: REMARK    5  A    between atoms: C_17  and  C_20 
DOCKED: REMARK    6  A    between atoms: C_24  and  C_27 
DOCKED: REMARK    7  A    between atoms: C_31  and  C_34 
DOCKED: REMARK    8  A    between atoms: C_34  and  C_35 
DOCKED: REMARK    9  A    between atoms: C_35  and  C_36 
DOCKED: REMARK   10  A    between atoms: C_36  and  O_38 
DOCKED: USER                              x       y       z     vdW  Elec       q    Type
DOCKED: USER                           _______ _______ _______ _____ _____    ______ ____
DOCKED: ROOT
DOCKED: ATOM      1  C   UNL d   1     -11.034   1.213   2.246 -0.30 +0.03    +0.064 C 
DOCKED: ATOM      2  C   UNL d   1      -8.315   5.341   2.269 -0.44 +0.01    +0.064 A 
DOCKED: ATOM      3  C   UNL d   1      -5.029   3.108  -0.430 -0.43 +0.01    +0.064 C 
DOCKED: ATOM      4  C   UNL d   1      -7.594  -0.929  -0.377 -0.43 +0.01    +0.064 C 
DOCKED: ATOM      5  C   UNL d   1     -10.534   2.555   2.573 -0.11 +0.02    +0.066 A 
DOCKED: ATOM      6  C   UNL d   1     -11.164   3.449   3.424 -0.28 -0.00    -0.021 A 
DOCKED: ATOM      7  C   UNL d   1     -10.410   4.596   3.427 -0.40 -0.00    -0.025 A 
DOCKED: ATOM      8  C   UNL d   1      -9.347   4.359   2.577 -0.40 +0.01    +0.066 A 
DOCKED: ATOM      9  C   UNL d   1     -10.693   5.836   4.219 -0.46 -0.00    +0.051 C 
DOCKED: ATOM     10  C   UNL d   1      -7.249   5.118   1.499 -0.41 +0.01    +0.066 A 
DOCKED: ATOM     11  C   UNL d   1      -6.338   6.112   1.130 -0.47 -0.00    -0.021 A 
DOCKED: ATOM     12  C   UNL d   1      -5.390   5.497   0.338 -0.49 +0.00    +0.000 A 
DOCKED: ATOM     13  C   UNL d   1      -5.779   4.149   0.256 -0.38 +0.01    +0.070 A 
DOCKED: ATOM     14  C   UNL d   1      -6.406   7.589   1.460 -0.56 +0.01    +0.052 C 
DOCKED: ATOM     15  C   UNL d   1      -5.426   1.820  -0.555 -0.39 +0.01    +0.066 A 
DOCKED: ATOM     16  C   UNL d   1      -4.634   0.835  -1.131 -0.38 -0.00    -0.021 A 
DOCKED: ATOM     17  C   UNL d   1      -5.373  -0.330  -1.120 -0.41 +0.00    +0.000 A 
DOCKED: ATOM     18  C   UNL d   1      -6.603  -0.026  -0.540 -0.40 +0.01    +0.070 A 
DOCKED: ATOM     19  C   UNL d   1      -3.246   0.985  -1.694 -0.33 +0.00    +0.052 C 
DOCKED: ATOM     20  C   UNL d   1      -8.877  -0.661   0.284 -0.34 +0.02    +0.066 A 
DOCKED: ATOM     21  C   UNL d   1      -9.984  -1.521   0.284 -0.01 -0.01    -0.025 A 
DOCKED: ATOM     22  C   UNL d   1     -10.948  -0.897   1.048 -0.29 -0.01    -0.021 A 
DOCKED: ATOM     23  C   UNL d   1     -10.397   0.316   1.477 -0.35 +0.03    +0.066 A 
DOCKED: ATOM     24  C   UNL d   1     -10.138  -2.860  -0.400 -0.16 +0.02    +0.051 C 
DOCKED: ATOM     25  N   UNL d   1      -9.420   3.113   2.066 -0.18 -0.08    -0.248 N 
DOCKED: ATOM     26  N   UNL d   1      -6.917   3.919   0.956 -0.23 -0.06    -0.248 N 
DOCKED: ATOM     27  N   UNL d   1      -6.620   1.285  -0.153 -0.26 -0.03    -0.248 N 
DOCKED: ATOM     28  N   UNL d   1      -9.150   0.475   0.971 -0.26 -0.07    -0.248 N 
DOCKED: ATOM     29 FE   UNL d   1      -8.033   2.195   0.962 -0.09 +0.00    +0.000 Fe
DOCKED: ENDROOT
DOCKED: BRANCH   6  30
DOCKED: ATOM     30  C   UNL d   1     -12.408   3.219   4.212 -0.24 +0.01    +0.052 C 
DOCKED: BRANCH  30  31
DOCKED: ATOM     31  C   UNL d   1     -12.196   2.119   5.247 -0.15 +0.04    +0.115 C 
DOCKED: BRANCH  31  32
DOCKED: ATOM     32  C   UNL d   1     -12.729   0.808   4.739 -0.18 +0.11    +0.139 C 
DOCKED: ATOM     33  O   UNL d   1     -12.124  -0.234   4.949 -0.54 -1.00    -0.650 OA
DOCKED: BRANCH  32  34
DOCKED: ATOM     34  O   UNL d   1     -13.880   0.771   4.047 -0.02 -0.63    -0.776 OA
DOCKED: ATOM     35  H   UNL d   1     -14.620   1.321   4.337 +0.04 +0.08    +0.167 HD
DOCKED: ENDBRANCH  32  34
DOCKED: ENDBRANCH  31  32
DOCKED: ENDBRANCH  30  31
DOCKED: ENDBRANCH   6  30
DOCKED: BRANCH  22  36
DOCKED: ATOM     36  C   UNL d   1     -12.337  -1.417   1.308 +0.18 +0.07    +0.052 C 
DOCKED: BRANCH  36  37
DOCKED: ATOM     37  C   UNL d   1     -13.113  -1.486   0.001 -0.09 +0.07    +0.115 C 
DOCKED: BRANCH  37  38
DOCKED: ATOM     38  C   UNL d   1     -14.336  -2.346   0.145 -0.18 +0.09    +0.139 C 
DOCKED: ATOM     39  O   UNL d   1     -15.039  -2.601  -0.822 +0.01 -0.22    -0.650 OA
DOCKED: BRANCH  38  40
DOCKED: ATOM     40  O   UNL d   1     -14.670  -2.841   1.350 -0.54 -1.05    -0.776 OA
DOCKED: ATOM     41  H   UNL d   1     -15.590  -3.088   1.518 +0.02 +0.15    +0.167 HD
DOCKED: ENDBRANCH  38  40
DOCKED: ENDBRANCH  37  38
DOCKED: ENDBRANCH  36  37
DOCKED: ENDBRANCH  22  36
DOCKED: BRANCH  12  42
DOCKED: ATOM     42  C   UNL d   1      -4.222   6.188  -0.292 -0.65 +0.00    +0.004 C 
DOCKED: ATOM     43  C   UNL d   1      -3.194   6.619   0.450 -0.53 +0.00    +0.012 C 
DOCKED: ENDBRANCH  12  42
DOCKED: BRANCH  17  44
DOCKED: ATOM     44  C   UNL d   1      -4.925  -1.652  -1.613 -0.61 -0.00    +0.004 C 
DOCKED: ATOM     45  C   UNL d   1      -4.924  -1.930  -2.921 -0.70 +0.00    +0.012 C 
DOCKED: ENDBRANCH  17  44
DOCKED: TORSDOF 10
DOCKED: TER
DOCKED: ENDMDL
________________________________________________________________________________


	BEGINNING GENETIC ALGORITHM DOCKING 62 of 100
Run: 62 Seed: 329175191 1731403581 [ Run 62 of 100 GA/GALS ]
Beginning LAMARCKIAN GENETIC ALGORITHM (LGA), with a maximum of 25000000 energy evaluations.

Final-Value: -16.630


	FINAL GENETIC ALGORITHM DOCKED STATE
	_______________________________________________


Detailed state:  trans -9.147 1.640 1.802 quatxyzw -0.940544 -0.118613 0.252675 -0.193557 center -0.174 -0.001 -0.047 ntor 10 149.2488 -23.6192 34.8333 -131.1852 113.1516 -164.4678 77.4195 -29.6597 -24.2622 -153.2884
State:	 -9.147   1.640   1.802  -0.959 -0.121  0.258 -157.679    149.25  -23.62   34.83 -131.19  113.15 -164.47   77.42  -29.66  -24.26 -153.29

DOCKED: MODEL       62
DOCKED: USER    Run = 62
DOCKED: USER    DPF = D:/Protein_go_brrr/autodock/final/mut_D99N/heme_Fe/dock.dpf
DOCKED: USER  
DOCKED: USER    Estimated Free Energy of Binding    =  -13.23 kcal/mol  [=(1)+(2)+(3)-(4)]
DOCKED: USER    Estimated Inhibition Constant, Ki   =  202.17 pM (picomolar)  [Temperature = 298.15 K]
DOCKED: USER    
DOCKED: USER    (1) Final Intermolecular Energy     =  -16.21 kcal/mol
DOCKED: USER        vdW + Hbond + desolv Energy     =  -13.90 kcal/mol
DOCKED: USER        Electrostatic Energy            =   -2.31 kcal/mol
DOCKED: USER    (2) Final Total Internal Energy     =   -0.42 kcal/mol
DOCKED: USER    (3) Torsional Free Energy           =   +2.98 kcal/mol
DOCKED: USER    (4) Unbound System's Energy  [=(2)] =   -0.42 kcal/mol
DOCKED: USER    
DOCKED: USER    
DOCKED: USER    NEWDPF move heme_Fe_opt.pdbqt
DOCKED: USER    NEWDPF about -0.174000 -0.001000 -0.047000
DOCKED: USER    NEWDPF tran0 -9.146918 1.640048 1.801979
DOCKED: USER    NEWDPF quaternion0 -0.940544 -0.118613 0.252675 -0.193557
DOCKED: USER    NEWDPF axisangle0 -0.958673 -0.120899 0.257545 -157.679173
DOCKED: USER    NEWDPF quat0 -0.958673 -0.120899 0.257545 -157.679173
DOCKED: USER    NEWDPF dihe0 149.25 -23.62 34.83 -131.19 113.15 -164.47 77.42 -29.66 -24.26 -153.29 
DOCKED: USER  keepresnum = 1 
DOCKED: USER  
DOCKED: REMARK  10 active torsions:
DOCKED: REMARK  status: ('A' for Active; 'I' for Inactive)
DOCKED: REMARK    1  A    between atoms: C_6  and  C_10 
DOCKED: REMARK    2  A    between atoms: C_10  and  C_11 
DOCKED: REMARK    3  A    between atoms: C_11  and  C_12 
DOCKED: REMARK    4  A    between atoms: C_12  and  O_14 
DOCKED: REMARK    5  A    between atoms: C_17  and  C_20 
DOCKED: REMARK    6  A    between atoms: C_24  and  C_27 
DOCKED: REMARK    7  A    between atoms: C_31  and  C_34 
DOCKED: REMARK    8  A    between atoms: C_34  and  C_35 
DOCKED: REMARK    9  A    between atoms: C_35  and  C_36 
DOCKED: REMARK   10  A    between atoms: C_36  and  O_38 
DOCKED: USER                              x       y       z     vdW  Elec       q    Type
DOCKED: USER                           _______ _______ _______ _____ _____    ______ ____
DOCKED: ROOT
DOCKED: ATOM      1  C   UNL d   1     -11.104   1.219   2.253 -0.31 +0.03    +0.064 C 
DOCKED: ATOM      2  C   UNL d   1      -8.337   5.314   2.250 -0.44 +0.01    +0.064 A 
DOCKED: ATOM      3  C   UNL d   1      -5.032   2.996  -0.352 -0.43 +0.01    +0.064 C 
DOCKED: ATOM      4  C   UNL d   1      -7.646  -1.010  -0.271 -0.44 +0.01    +0.064 C 
DOCKED: ATOM      5  C   UNL d   1     -10.593   2.561   2.565 -0.14 +0.02    +0.066 A 
DOCKED: ATOM      6  C   UNL d   1     -11.227   3.477   3.389 -0.28 -0.00    -0.021 A 
DOCKED: ATOM      7  C   UNL d   1     -10.460   4.615   3.384 -0.39 -0.00    -0.025 A 
DOCKED: ATOM      8  C   UNL d   1      -9.386   4.350   2.557 -0.40 +0.01    +0.066 A 
DOCKED: ATOM      9  C   UNL d   1     -10.741   5.872   4.149 -0.46 -0.00    +0.051 C 
DOCKED: ATOM     10  C   UNL d   1      -7.260   5.066   1.502 -0.41 +0.01    +0.066 A 
DOCKED: ATOM     11  C   UNL d   1      -6.332   6.042   1.132 -0.47 -0.00    -0.021 A 
DOCKED: ATOM     12  C   UNL d   1      -5.377   5.402   0.366 -0.49 +0.00    +0.000 A 
DOCKED: ATOM     13  C   UNL d   1      -5.781   4.057   0.302 -0.38 +0.01    +0.070 A 
DOCKED: ATOM     14  C   UNL d   1      -6.388   7.525   1.434 -0.57 +0.01    +0.052 C 
DOCKED: ATOM     15  C   UNL d   1      -5.442   1.710  -0.461 -0.39 +0.01    +0.066 A 
DOCKED: ATOM     16  C   UNL d   1      -4.652   0.706  -1.006 -0.33 -0.00    -0.021 A 
DOCKED: ATOM     17  C   UNL d   1      -5.406  -0.450  -0.987 -0.39 +0.00    +0.000 A 
DOCKED: ATOM     18  C   UNL d   1      -6.641  -0.121  -0.434 -0.40 +0.01    +0.070 A 
DOCKED: ATOM     19  C   UNL d   1      -3.253   0.829  -1.547 -0.29 +0.00    +0.052 C 
DOCKED: ATOM     20  C   UNL d   1      -8.937  -0.715   0.362 -0.36 +0.02    +0.066 A 
DOCKED: ATOM     21  C   UNL d   1     -10.054  -1.562   0.358 -0.08 -0.01    -0.025 A 
DOCKED: ATOM     22  C   UNL d   1     -11.023  -0.913   1.094 -0.29 -0.01    -0.021 A 
DOCKED: ATOM     23  C   UNL d   1     -10.465   0.301   1.511 -0.35 +0.03    +0.066 A 
DOCKED: ATOM     24  C   UNL d   1     -10.211  -2.911  -0.304 -0.21 +0.02    +0.051 C 
DOCKED: ATOM     25  N   UNL d   1      -9.465   3.097   2.068 -0.19 -0.08    -0.248 N 
DOCKED: ATOM     26  N   UNL d   1      -6.934   3.853   0.986 -0.23 -0.06    -0.248 N 
DOCKED: ATOM     27  N   UNL d   1      -6.649   1.196  -0.070 -0.26 -0.03    -0.248 N 
DOCKED: ATOM     28  N   UNL d   1      -9.207   0.436   1.024 -0.26 -0.07    -0.248 N 
DOCKED: ATOM     29 FE   UNL d   1      -8.070   2.143   1.004 -0.09 +0.00    +0.000 Fe
DOCKED: ENDROOT
DOCKED: BRANCH   6  30
DOCKED: ATOM     30  C   UNL d   1     -12.487   3.276   4.159 -0.23 +0.01    +0.052 C 
DOCKED: BRANCH  30  31
DOCKED: ATOM     31  C   UNL d   1     -12.300   2.208   5.231 -0.16 +0.04    +0.115 C 
DOCKED: BRANCH  31  32
DOCKED: ATOM     32  C   UNL d   1     -12.919   0.909   4.794 -0.17 +0.11    +0.139 C 
DOCKED: ATOM     33  O   UNL d   1     -12.220  -0.067   4.559 -0.61 -1.01    -0.650 OA
DOCKED: BRANCH  32  34
DOCKED: ATOM     34  O   UNL d   1     -14.252   0.809   4.656 +0.03 -0.54    -0.776 OA
DOCKED: ATOM     35  H   UNL d   1     -14.824   1.346   5.223 +0.03 +0.07    +0.167 HD
DOCKED: ENDBRANCH  32  34
DOCKED: ENDBRANCH  31  32
DOCKED: ENDBRANCH  30  31
DOCKED: ENDBRANCH   6  30
DOCKED: BRANCH  22  36
DOCKED: ATOM     36  C   UNL d   1     -12.423  -1.412   1.339 +0.21 +0.07    +0.052 C 
DOCKED: BRANCH  36  37
DOCKED: ATOM     37  C   UNL d   1     -13.114  -1.677   0.010 -0.14 +0.07    +0.115 C 
DOCKED: BRANCH  37  38
DOCKED: ATOM     38  C   UNL d   1     -14.114  -2.791   0.136 -0.17 +0.10    +0.139 C 
DOCKED: ATOM     39  O   UNL d   1     -14.566  -3.341  -0.858 +0.02 -0.22    -0.650 OA
DOCKED: BRANCH  38  40
DOCKED: ATOM     40  O   UNL d   1     -14.526  -3.189   1.353 -0.50 -1.07    -0.776 OA
DOCKED: ATOM     41  H   UNL d   1     -15.383  -3.630   1.438 +0.01 +0.14    +0.167 HD
DOCKED: ENDBRANCH  38  40
DOCKED: ENDBRANCH  37  38
DOCKED: ENDBRANCH  36  37
DOCKED: ENDBRANCH  22  36
DOCKED: BRANCH  12  42
DOCKED: ATOM     42  C   UNL d   1      -4.191   6.068  -0.255 -0.65 +0.00    +0.004 C 
DOCKED: ATOM     43  C   UNL d   1      -3.076   6.291   0.453 -0.56 +0.00    +0.012 C 
DOCKED: ENDBRANCH  12  42
DOCKED: BRANCH  17  44
DOCKED: ATOM     44  C   UNL d   1      -4.964  -1.786  -1.449 -0.58 -0.00    +0.004 C 
DOCKED: ATOM     45  C   UNL d   1      -4.916  -2.078  -2.752 -0.71 -0.00    +0.012 C 
DOCKED: ENDBRANCH  17  44
DOCKED: TORSDOF 10
DOCKED: TER
DOCKED: ENDMDL
________________________________________________________________________________


	BEGINNING GENETIC ALGORITHM DOCKING 63 of 100
Run: 63 Seed: 1785597909 307603403 [ Run 63 of 100 GA/GALS ]
Beginning LAMARCKIAN GENETIC ALGORITHM (LGA), with a maximum of 25000000 energy evaluations.

Final-Value: -10.863


	FINAL GENETIC ALGORITHM DOCKED STATE
	_______________________________________________


Detailed state:  trans -7.809 -0.278 -20.630 quatxyzw -0.137402 -0.221308 -0.899906 0.349731 center -0.174 -0.001 -0.047 ntor 10 151.7031 -76.2917 -157.3169 -156.7934 -86.3645 -179.9380 -165.9026 80.8568 -179.1515 -152.4633
State:	 -7.809  -0.278 -20.630  -0.147 -0.236 -0.961 139.058    151.70  -76.29 -157.32 -156.79  -86.36 -179.94 -165.90   80.86 -179.15 -152.46

DOCKED: MODEL       63
DOCKED: USER    Run = 63
DOCKED: USER    DPF = D:/Protein_go_brrr/autodock/final/mut_D99N/heme_Fe/dock.dpf
DOCKED: USER  
DOCKED: USER    Estimated Free Energy of Binding    =   -6.52 kcal/mol  [=(1)+(2)+(3)-(4)]
DOCKED: USER    Estimated Inhibition Constant, Ki   =   16.54 uM (micromolar)  [Temperature = 298.15 K]
DOCKED: USER    
DOCKED: USER    (1) Final Intermolecular Energy     =   -9.51 kcal/mol
DOCKED: USER        vdW + Hbond + desolv Energy     =   -5.64 kcal/mol
DOCKED: USER        Electrostatic Energy            =   -3.87 kcal/mol
DOCKED: USER    (2) Final Total Internal Energy     =   -1.36 kcal/mol
DOCKED: USER    (3) Torsional Free Energy           =   +2.98 kcal/mol
DOCKED: USER    (4) Unbound System's Energy  [=(2)] =   -1.36 kcal/mol
DOCKED: USER    
DOCKED: USER    
DOCKED: USER    NEWDPF move heme_Fe_opt.pdbqt
DOCKED: USER    NEWDPF about -0.174000 -0.001000 -0.047000
DOCKED: USER    NEWDPF tran0 -7.809309 -0.277637 -20.629969
DOCKED: USER    NEWDPF quaternion0 -0.137402 -0.221308 -0.899906 0.349731
DOCKED: USER    NEWDPF axisangle0 -0.146664 -0.236226 -0.960566 139.058316
DOCKED: USER    NEWDPF quat0 -0.146664 -0.236226 -0.960566 139.058316
DOCKED: USER    NEWDPF dihe0 151.70 -76.29 -157.32 -156.79 -86.36 -179.94 -165.90 80.86 -179.15 -152.46 
DOCKED: USER  keepresnum = 1 
DOCKED: USER  
DOCKED: REMARK  10 active torsions:
DOCKED: REMARK  status: ('A' for Active; 'I' for Inactive)
DOCKED: REMARK    1  A    between atoms: C_6  and  C_10 
DOCKED: REMARK    2  A    between atoms: C_10  and  C_11 
DOCKED: REMARK    3  A    between atoms: C_11  and  C_12 
DOCKED: REMARK    4  A    between atoms: C_12  and  O_14 
DOCKED: REMARK    5  A    between atoms: C_17  and  C_20 
DOCKED: REMARK    6  A    between atoms: C_24  and  C_27 
DOCKED: REMARK    7  A    between atoms: C_31  and  C_34 
DOCKED: REMARK    8  A    between atoms: C_34  and  C_35 
DOCKED: REMARK    9  A    between atoms: C_35  and  C_36 
DOCKED: REMARK   10  A    between atoms: C_36  and  O_38 
DOCKED: USER                              x       y       z     vdW  Elec       q    Type
DOCKED: USER                           _______ _______ _______ _____ _____    ______ ____
DOCKED: ROOT
DOCKED: ATOM      1  C   UNL d   1      -6.140  -1.445 -20.383 -0.14 +0.06    +0.064 C 
DOCKED: ATOM      2  C   UNL d   1      -6.948   3.203 -21.856 -0.04 +0.04    +0.064 A 
DOCKED: ATOM      3  C   UNL d   1     -11.405   2.915 -20.090 -0.09 +0.02    +0.064 C 
DOCKED: ATOM      4  C   UNL d   1     -10.679  -1.620 -18.750 -0.16 +0.02    +0.064 C 
DOCKED: ATOM      5  C   UNL d   1      -5.982  -0.139 -21.036 -0.08 +0.07    +0.066 A 
DOCKED: ATOM      6  C   UNL d   1      -4.864   0.258 -21.750 -0.06 -0.02    -0.021 A 
DOCKED: ATOM      7  C   UNL d   1      -5.087   1.550 -22.156 -0.03 -0.02    -0.025 A 
DOCKED: ATOM      8  C   UNL d   1      -6.335   1.893 -21.673 -0.05 +0.06    +0.066 A 
DOCKED: ATOM      9  C   UNL d   1      -4.158   2.391 -22.976 -0.00 +0.02    +0.051 C 
DOCKED: ATOM     10  C   UNL d   1      -8.173   3.541 -21.451 -0.06 +0.04    +0.066 A 
DOCKED: ATOM     11  C   UNL d   1      -8.689   4.836 -21.539 -0.03 -0.01    -0.021 A 
DOCKED: ATOM     12  C   UNL d   1      -9.968   4.783 -21.021 -0.05 +0.00    +0.000 A 
DOCKED: ATOM     13  C   UNL d   1     -10.165   3.447 -20.632 -0.08 +0.03    +0.070 A 
DOCKED: ATOM     14  C   UNL d   1      -7.974   6.078 -22.030 -0.01 +0.01    +0.052 C 
DOCKED: ATOM     15  C   UNL d   1     -11.583   1.641 -19.667 -0.07 +0.03    +0.066 A 
DOCKED: ATOM     16  C   UNL d   1     -12.812   1.145 -19.249 -0.08 -0.01    -0.021 A 
DOCKED: ATOM     17  C   UNL d   1     -12.604  -0.161 -18.859 -0.09 +0.00    +0.000 A 
DOCKED: ATOM     18  C   UNL d   1     -11.250  -0.431 -19.044 -0.11 +0.03    +0.070 A 
DOCKED: ATOM     19  C   UNL d   1     -14.126   1.876 -19.194 -0.05 +0.01    +0.052 C 
DOCKED: ATOM     20  C   UNL d   1      -9.272  -1.960 -18.989 -0.15 +0.03    +0.066 A 
DOCKED: ATOM     21  C   UNL d   1      -8.623  -3.107 -18.510 -0.20 -0.01    -0.025 A 
DOCKED: ATOM     22  C   UNL d   1      -7.334  -3.043 -18.998 -0.18 -0.01    -0.021 A 
DOCKED: ATOM     23  C   UNL d   1      -7.246  -1.863 -19.745 -0.13 +0.05    +0.066 A 
DOCKED: ATOM     24  C   UNL d   1      -9.177  -4.208 -17.636 -0.26 +0.01    +0.051 C 
DOCKED: ATOM     25  N   UNL d   1      -6.881   0.860 -21.000 -0.04 -0.35    -0.248 N 
DOCKED: ATOM     26  N   UNL d   1      -9.068   2.691 -20.886 -0.08 -0.18    -0.248 N 
DOCKED: ATOM     27  N   UNL d   1     -10.630   0.662 -19.581 -0.10 -0.14    -0.248 N 
DOCKED: ATOM     28  N   UNL d   1      -8.418  -1.184 -19.699 -0.11 -0.20    -0.248 N 
DOCKED: ATOM     29 FE   UNL d   1      -8.744   0.752 -20.291 -0.03 +0.00    +0.000 Fe
DOCKED: ENDROOT
DOCKED: BRANCH   6  30
DOCKED: ATOM     30  C   UNL d   1      -3.651  -0.555 -22.052 -0.07 +0.03    +0.052 C 
DOCKED: BRANCH  30  31
DOCKED: ATOM     31  C   UNL d   1      -2.605  -0.392 -20.955 -0.13 +0.12    +0.115 C 
DOCKED: BRANCH  31  32
DOCKED: ATOM     32  C   UNL d   1      -3.213   0.249 -19.739 -0.14 +0.22    +0.139 C 
DOCKED: ATOM     33  O   UNL d   1      -3.275   1.467 -19.642 -0.01 -0.88    -0.650 OA
DOCKED: BRANCH  32  34
DOCKED: ATOM     34  O   UNL d   1      -3.695  -0.514 -18.743 -0.42 -1.91    -0.776 OA
DOCKED: ATOM     35  H   UNL d   1      -4.030  -1.397 -18.949 +0.04 +0.34    +0.167 HD
DOCKED: ENDBRANCH  32  34
DOCKED: ENDBRANCH  31  32
DOCKED: ENDBRANCH  30  31
DOCKED: ENDBRANCH   6  30
DOCKED: BRANCH  22  36
DOCKED: ATOM     36  C   UNL d   1      -6.238  -4.037 -18.718 -0.29 +0.02    +0.052 C 
DOCKED: BRANCH  36  37
DOCKED: ATOM     37  C   UNL d   1      -6.050  -4.185 -17.216 -0.48 +0.06    +0.115 C 
DOCKED: BRANCH  37  38
DOCKED: ATOM     38  C   UNL d   1      -4.876  -3.378 -16.738 -0.50 +0.14    +0.139 C 
DOCKED: ATOM     39  O   UNL d   1      -4.564  -3.368 -15.556 -0.59 -0.68    -0.650 OA
DOCKED: BRANCH  38  40
DOCKED: ATOM     40  O   UNL d   1      -4.159  -2.652 -17.614 -0.17 -1.28    -0.776 OA
DOCKED: ATOM     41  H   UNL d   1      -4.286  -1.694 -17.647 +0.06 +0.35    +0.167 HD
DOCKED: ENDBRANCH  38  40
DOCKED: ENDBRANCH  37  38
DOCKED: ENDBRANCH  36  37
DOCKED: ENDBRANCH  22  36
DOCKED: BRANCH  12  42
DOCKED: ATOM     42  C   UNL d   1     -10.894   5.952 -20.906 -0.05 -0.00    +0.004 C 
DOCKED: ATOM     43  C   UNL d   1     -11.196   6.478 -19.711 -0.14 -0.00    +0.012 C 
DOCKED: ENDBRANCH  12  42
DOCKED: BRANCH  17  44
DOCKED: ATOM     44  C   UNL d   1     -13.638  -1.097 -18.361 -0.06 +0.00    +0.004 C 
DOCKED: ATOM     45  C   UNL d   1     -13.743  -1.370 -17.056 -0.11 +0.00    +0.012 C 
DOCKED: ENDBRANCH  17  44
DOCKED: TORSDOF 10
DOCKED: TER
DOCKED: ENDMDL
________________________________________________________________________________


	BEGINNING GENETIC ALGORITHM DOCKING 64 of 100
Run: 64 Seed: 282154606 55586734 [ Run 64 of 100 GA/GALS ]
Beginning LAMARCKIAN GENETIC ALGORITHM (LGA), with a maximum of 25000000 energy evaluations.

Final-Value: -17.460


	FINAL GENETIC ALGORITHM DOCKED STATE
	_______________________________________________


Detailed state:  trans -9.125 2.259 1.121 quatxyzw 0.194472 0.189757 0.042497 -0.961440 center -0.174 -0.001 -0.047 ntor 10 -24.2397 -88.7286 77.3443 -126.4301 179.4429 141.1936 77.1268 50.8080 -53.5284 -180.0000
State:	 -9.125   2.259   1.121   0.707  0.690  0.155 -31.926    -24.24  -88.73   77.34 -126.43  179.44  141.19   77.13   50.81  -53.53 -180.00

DOCKED: MODEL       64
DOCKED: USER    Run = 64
DOCKED: USER    DPF = D:/Protein_go_brrr/autodock/final/mut_D99N/heme_Fe/dock.dpf
DOCKED: USER  
DOCKED: USER    Estimated Free Energy of Binding    =  -12.36 kcal/mol  [=(1)+(2)+(3)-(4)]
DOCKED: USER    Estimated Inhibition Constant, Ki   =  874.64 pM (picomolar)  [Temperature = 298.15 K]
DOCKED: USER    
DOCKED: USER    (1) Final Intermolecular Energy     =  -15.34 kcal/mol
DOCKED: USER        vdW + Hbond + desolv Energy     =  -13.52 kcal/mol
DOCKED: USER        Electrostatic Energy            =   -1.82 kcal/mol
DOCKED: USER    (2) Final Total Internal Energy     =   -2.12 kcal/mol
DOCKED: USER    (3) Torsional Free Energy           =   +2.98 kcal/mol
DOCKED: USER    (4) Unbound System's Energy  [=(2)] =   -2.12 kcal/mol
DOCKED: USER    
DOCKED: USER    
DOCKED: USER    NEWDPF move heme_Fe_opt.pdbqt
DOCKED: USER    NEWDPF about -0.174000 -0.001000 -0.047000
DOCKED: USER    NEWDPF tran0 -9.124911 2.258922 1.121215
DOCKED: USER    NEWDPF quaternion0 0.194472 0.189757 0.042497 -0.961440
DOCKED: USER    NEWDPF axisangle0 0.707133 0.689989 0.154525 -31.925781
DOCKED: USER    NEWDPF quat0 0.707133 0.689989 0.154525 -31.925781
DOCKED: USER    NEWDPF dihe0 -24.24 -88.73 77.34 -126.43 179.44 141.19 77.13 50.81 -53.53 -180.00 
DOCKED: USER  keepresnum = 1 
DOCKED: USER  
DOCKED: REMARK  10 active torsions:
DOCKED: REMARK  status: ('A' for Active; 'I' for Inactive)
DOCKED: REMARK    1  A    between atoms: C_6  and  C_10 
DOCKED: REMARK    2  A    between atoms: C_10  and  C_11 
DOCKED: REMARK    3  A    between atoms: C_11  and  C_12 
DOCKED: REMARK    4  A    between atoms: C_12  and  O_14 
DOCKED: REMARK    5  A    between atoms: C_17  and  C_20 
DOCKED: REMARK    6  A    between atoms: C_24  and  C_27 
DOCKED: REMARK    7  A    between atoms: C_31  and  C_34 
DOCKED: REMARK    8  A    between atoms: C_34  and  C_35 
DOCKED: REMARK    9  A    between atoms: C_35  and  C_36 
DOCKED: REMARK   10  A    between atoms: C_36  and  O_38 
DOCKED: USER                              x       y       z     vdW  Elec       q    Type
DOCKED: USER                           _______ _______ _______ _____ _____    ______ ____
DOCKED: ROOT
DOCKED: ATOM      1  C   UNL d   1     -10.753   1.706   2.242 -0.26 +0.02    +0.064 C 
DOCKED: ATOM      2  C   UNL d   1      -7.425  -0.718  -0.493 -0.37 +0.01    +0.064 A 
DOCKED: ATOM      3  C   UNL d   1      -4.664   3.212  -0.492 -0.35 +0.01    +0.064 C 
DOCKED: ATOM      4  C   UNL d   1      -7.919   5.610   2.065 -0.49 +0.01    +0.064 C 
DOCKED: ATOM      5  C   UNL d   1     -10.110   0.686   1.402 -0.34 +0.02    +0.066 A 
DOCKED: ATOM      6  C   UNL d   1     -10.669  -0.540   1.080 -0.33 -0.01    -0.021 A 
DOCKED: ATOM      7  C   UNL d   1      -9.742  -1.214   0.324 -0.11 -0.01    -0.025 A 
DOCKED: ATOM      8  C   UNL d   1      -8.653  -0.372   0.212 -0.36 +0.01    +0.066 A 
DOCKED: ATOM      9  C   UNL d   1      -9.911  -2.580  -0.269 -0.10 +0.02    +0.051 C 
DOCKED: ATOM     10  C   UNL d   1      -6.382   0.097  -0.664 -0.41 +0.01    +0.066 A 
DOCKED: ATOM     11  C   UNL d   1      -5.175  -0.301  -1.244 -0.40 -0.00    -0.021 A 
DOCKED: ATOM     12  C   UNL d   1      -4.356   0.810  -1.241 -0.39 +0.00    +0.000 A 
DOCKED: ATOM     13  C   UNL d   1      -5.110   1.836  -0.645 -0.38 +0.01    +0.070 A 
DOCKED: ATOM     14  C   UNL d   1      -4.796  -1.690  -1.717 -0.59 -0.00    +0.052 C 
DOCKED: ATOM     15  C   UNL d   1      -5.365   4.191   0.127 -0.39 +0.01    +0.066 A 
DOCKED: ATOM     16  C   UNL d   1      -4.949   5.515   0.164 -0.50 -0.00    -0.021 A 
DOCKED: ATOM     17  C   UNL d   1      -5.885   6.208   0.904 -0.50 +0.00    +0.000 A 
DOCKED: ATOM     18  C   UNL d   1      -6.850   5.287   1.305 -0.41 +0.01    +0.070 A 
DOCKED: ATOM     19  C   UNL d   1      -3.707   6.105  -0.449 -0.47 +0.01    +0.052 C 
DOCKED: ATOM     20  C   UNL d   1      -8.987   4.681   2.454 -0.42 +0.01    +0.066 A 
DOCKED: ATOM     21  C   UNL d   1      -9.988   4.948   3.399 -0.44 -0.00    -0.025 A 
DOCKED: ATOM     22  C   UNL d   1     -10.792   3.827   3.424 -0.32 -0.00    -0.021 A 
DOCKED: ATOM     23  C   UNL d   1     -10.249   2.922   2.503 -0.20 +0.02    +0.066 A 
DOCKED: ATOM     24  C   UNL d   1     -10.184   6.187   4.241 -0.42 -0.00    +0.051 C 
DOCKED: ATOM     25  N   UNL d   1      -8.883   0.787   0.861 -0.24 -0.07    -0.248 N 
DOCKED: ATOM     26  N   UNL d   1      -6.342   1.400  -0.285 -0.27 -0.03    -0.248 N 
DOCKED: ATOM     27  N   UNL d   1      -6.555   4.055   0.791 -0.25 -0.05    -0.248 N 
DOCKED: ATOM     28  N   UNL d   1      -9.122   3.431   1.948 -0.13 -0.09    -0.248 N 
DOCKED: ATOM     29 FE   UNL d   1      -7.732   2.417   0.832 -0.09 +0.00    +0.000 Fe
DOCKED: ENDROOT
DOCKED: BRANCH   6  30
DOCKED: ATOM     30  C   UNL d   1     -12.022  -1.040   1.454 -0.01 +0.06    +0.052 C 
DOCKED: BRANCH  30  31
DOCKED: ATOM     31  C   UNL d   1     -13.038   0.096   1.449 -0.01 +0.09    +0.115 C 
DOCKED: BRANCH  31  32
DOCKED: ATOM     32  C   UNL d   1     -13.341   0.538   2.854 -0.19 +0.13    +0.139 C 
DOCKED: ATOM     33  O   UNL d   1     -14.127   1.451   3.064 -0.00 -0.33    -0.650 OA
DOCKED: BRANCH  32  34
DOCKED: ATOM     34  O   UNL d   1     -12.747  -0.070   3.895 -0.42 -1.38    -0.776 OA
DOCKED: ATOM     35  H   UNL d   1     -12.656   0.411   4.729 +0.04 +0.18    +0.167 HD
DOCKED: ENDBRANCH  32  34
DOCKED: ENDBRANCH  31  32
DOCKED: ENDBRANCH  30  31
DOCKED: ENDBRANCH   6  30
DOCKED: BRANCH  22  36
DOCKED: ATOM     36  C   UNL d   1     -11.985   3.620   4.319 -0.27 +0.01    +0.052 C 
DOCKED: BRANCH  36  37
DOCKED: ATOM     37  C   UNL d   1     -11.524   3.130   5.684 -0.21 +0.02    +0.115 C 
DOCKED: BRANCH  37  38
DOCKED: ATOM     38  C   UNL d   1     -12.295   1.912   6.108 -0.17 +0.05    +0.139 C 
DOCKED: ATOM     39  O   UNL d   1     -11.741   0.992   6.691 -0.13 -0.33    -0.650 OA
DOCKED: BRANCH  38  40
DOCKED: ATOM     40  O   UNL d   1     -13.611   1.825   5.843 +0.07 -0.30    -0.776 OA
DOCKED: ATOM     41  H   UNL d   1     -13.898   1.413   5.016 +0.04 +0.09    +0.167 HD
DOCKED: ENDBRANCH  38  40
DOCKED: ENDBRANCH  37  38
DOCKED: ENDBRANCH  36  37
DOCKED: ENDBRANCH  22  36
DOCKED: BRANCH  12  42
DOCKED: ATOM     42  C   UNL d   1      -2.954   0.842  -1.761 -0.40 +0.00    +0.004 C 
DOCKED: ATOM     43  C   UNL d   1      -2.582   1.736  -2.687 -0.62 +0.00    +0.012 C 
DOCKED: ENDBRANCH  12  42
DOCKED: BRANCH  17  44
DOCKED: ATOM     44  C   UNL d   1      -5.867   7.660   1.192 -0.58 +0.00    +0.004 C 
DOCKED: ATOM     45  C   UNL d   1      -4.987   8.177   2.056 -0.71 +0.00    +0.012 C 
DOCKED: ENDBRANCH  17  44
DOCKED: TORSDOF 10
DOCKED: TER
DOCKED: ENDMDL
________________________________________________________________________________


	BEGINNING GENETIC ALGORITHM DOCKING 65 of 100
Run: 65 Seed: 1937707391 1494358655 [ Run 65 of 100 GA/GALS ]
Beginning LAMARCKIAN GENETIC ALGORITHM (LGA), with a maximum of 25000000 energy evaluations.

Final-Value: -9.651


	FINAL GENETIC ALGORITHM DOCKED STATE
	_______________________________________________


Detailed state:  trans 14.673 0.919 2.814 quatxyzw -0.572972 0.255138 -0.340085 -0.700678 center -0.174 -0.001 -0.047 ntor 10 -144.7243 -117.1547 -179.9678 -117.8450 -104.0767 -131.6013 -152.5389 53.1817 165.9436 157.2115
State:	 14.673   0.919   2.814  -0.803  0.358 -0.477 -91.037   -144.72 -117.15 -179.97 -117.85 -104.08 -131.60 -152.54   53.18  165.94  157.21

DOCKED: MODEL       65
DOCKED: USER    Run = 65
DOCKED: USER    DPF = D:/Protein_go_brrr/autodock/final/mut_D99N/heme_Fe/dock.dpf
DOCKED: USER  
DOCKED: USER    Estimated Free Energy of Binding    =   -4.79 kcal/mol  [=(1)+(2)+(3)-(4)]
DOCKED: USER    Estimated Inhibition Constant, Ki   =  307.74 uM (micromolar)  [Temperature = 298.15 K]
DOCKED: USER    
DOCKED: USER    (1) Final Intermolecular Energy     =   -7.77 kcal/mol
DOCKED: USER        vdW + Hbond + desolv Energy     =   -7.69 kcal/mol
DOCKED: USER        Electrostatic Energy            =   -0.08 kcal/mol
DOCKED: USER    (2) Final Total Internal Energy     =   -1.88 kcal/mol
DOCKED: USER    (3) Torsional Free Energy           =   +2.98 kcal/mol
DOCKED: USER    (4) Unbound System's Energy  [=(2)] =   -1.88 kcal/mol
DOCKED: USER    
DOCKED: USER    
DOCKED: USER    NEWDPF move heme_Fe_opt.pdbqt
DOCKED: USER    NEWDPF about -0.174000 -0.001000 -0.047000
DOCKED: USER    NEWDPF tran0 14.672913 0.918687 2.813516
DOCKED: USER    NEWDPF quaternion0 -0.572972 0.255138 -0.340085 -0.700678
DOCKED: USER    NEWDPF axisangle0 -0.803069 0.357598 -0.476658 -91.037126
DOCKED: USER    NEWDPF quat0 -0.803069 0.357598 -0.476658 -91.037126
DOCKED: USER    NEWDPF dihe0 -144.72 -117.15 -179.97 -117.85 -104.08 -131.60 -152.54 53.18 165.94 157.21 
DOCKED: USER  keepresnum = 1 
DOCKED: USER  
DOCKED: REMARK  10 active torsions:
DOCKED: REMARK  status: ('A' for Active; 'I' for Inactive)
DOCKED: REMARK    1  A    between atoms: C_6  and  C_10 
DOCKED: REMARK    2  A    between atoms: C_10  and  C_11 
DOCKED: REMARK    3  A    between atoms: C_11  and  C_12 
DOCKED: REMARK    4  A    between atoms: C_12  and  O_14 
DOCKED: REMARK    5  A    between atoms: C_17  and  C_20 
DOCKED: REMARK    6  A    between atoms: C_24  and  C_27 
DOCKED: REMARK    7  A    between atoms: C_31  and  C_34 
DOCKED: REMARK    8  A    between atoms: C_34  and  C_35 
DOCKED: REMARK    9  A    between atoms: C_35  and  C_36 
DOCKED: REMARK   10  A    between atoms: C_36  and  O_38 
DOCKED: USER                              x       y       z     vdW  Elec       q    Type
DOCKED: USER                           _______ _______ _______ _____ _____    ______ ____
DOCKED: ROOT
DOCKED: ATOM      1  C   UNL d   1      13.795   2.770   2.921 -0.21 +0.00    +0.064 C 
DOCKED: ATOM      2  C   UNL d   1      15.369  -0.533   6.244 -0.13 +0.01    +0.064 A 
DOCKED: ATOM      3  C   UNL d   1      17.787  -2.784   2.758 -0.30 -0.01    +0.064 C 
DOCKED: ATOM      4  C   UNL d   1      16.190   0.341  -0.494 -0.25 -0.01    +0.064 C 
DOCKED: ATOM      5  C   UNL d   1      13.946   2.001   4.164 -0.22 +0.00    +0.066 A 
DOCKED: ATOM      6  C   UNL d   1      13.300   2.288   5.355 -0.24 -0.00    -0.021 A 
DOCKED: ATOM      7  C   UNL d   1      13.741   1.373   6.278 -0.26 -0.00    -0.025 A 
DOCKED: ATOM      8  C   UNL d   1      14.640   0.561   5.614 -0.25 +0.00    +0.066 A 
DOCKED: ATOM      9  C   UNL d   1      13.303   1.280   7.708 -0.27 +0.01    +0.051 C 
DOCKED: ATOM     10  C   UNL d   1      16.198  -1.367   5.613 -0.24 -0.00    +0.066 A 
DOCKED: ATOM     11  C   UNL d   1      16.970  -2.332   6.264 -0.28 +0.00    -0.021 A 
DOCKED: ATOM     12  C   UNL d   1      17.689  -2.984   5.283 -0.25 -0.00    +0.000 A 
DOCKED: ATOM     13  C   UNL d   1      17.321  -2.371   4.072 -0.23 -0.01    +0.070 A 
DOCKED: ATOM     14  C   UNL d   1      17.069  -2.576   7.756 -0.23 -0.00    +0.052 C 
DOCKED: ATOM     15  C   UNL d   1      17.477  -2.164   1.595 -0.26 -0.01    +0.066 A 
DOCKED: ATOM     16  C   UNL d   1      17.861  -2.649   0.351 -0.33 +0.00    -0.021 A 
DOCKED: ATOM     17  C   UNL d   1      17.405  -1.748  -0.588 -0.32 -0.00    +0.000 A 
DOCKED: ATOM     18  C   UNL d   1      16.755  -0.730   0.107 -0.21 -0.01    +0.070 A 
DOCKED: ATOM     19  C   UNL d   1      18.649  -3.897   0.055 -0.35 -0.02    +0.052 C 
DOCKED: ATOM     20  C   UNL d   1      15.445   1.399   0.199 -0.18 -0.00    +0.066 A 
DOCKED: ATOM     21  C   UNL d   1      15.031   2.608  -0.377 -0.17 -0.00    -0.025 A 
DOCKED: ATOM     22  C   UNL d   1      14.339   3.279   0.610 -0.15 -0.00    -0.021 A 
DOCKED: ATOM     23  C   UNL d   1      14.364   2.460   1.745 -0.18 +0.00    +0.066 A 
DOCKED: ATOM     24  C   UNL d   1      15.271   3.115  -1.780 -0.01 +0.01    +0.051 C 
DOCKED: ATOM     25  N   UNL d   1      14.755   0.940   4.326 -0.17 -0.00    -0.248 N 
DOCKED: ATOM     26  N   UNL d   1      16.419  -1.379   4.274 -0.19 +0.02    -0.248 N 
DOCKED: ATOM     27  N   UNL d   1      16.761  -1.007   1.445 -0.10 +0.01    -0.248 N 
DOCKED: ATOM     28  N   UNL d   1      15.079   1.335   1.502 -0.11 -0.00    -0.248 N 
DOCKED: ATOM     29 FE   UNL d   1      15.750  -0.022   2.886 -0.06 -0.00    +0.000 Fe
DOCKED: ENDROOT
DOCKED: BRANCH   6  30
DOCKED: ATOM     30  C   UNL d   1      12.298   3.364   5.601 -0.25 +0.01    +0.052 C 
DOCKED: BRANCH  30  31
DOCKED: ATOM     31  C   UNL d   1      12.923   4.516   6.380 -0.09 +0.03    +0.115 C 
DOCKED: BRANCH  31  32
DOCKED: ATOM     32  C   UNL d   1      14.400   4.593   6.112 -0.02 +0.02    +0.139 C 
DOCKED: ATOM     33  O   UNL d   1      15.206   4.201   6.944 +0.04 -0.07    -0.650 OA
DOCKED: BRANCH  32  34
DOCKED: ATOM     34  O   UNL d   1      14.850   5.096   4.950 +0.03 -0.05    -0.776 OA
DOCKED: ATOM     35  H   UNL d   1      14.369   5.827   4.537 +0.01 +0.01    +0.167 HD
DOCKED: ENDBRANCH  32  34
DOCKED: ENDBRANCH  31  32
DOCKED: ENDBRANCH  30  31
DOCKED: ENDBRANCH   6  30
DOCKED: BRANCH  22  36
DOCKED: ATOM     36  C   UNL d   1      13.731   4.651   0.481 -0.07 -0.00    +0.052 C 
DOCKED: BRANCH  36  37
DOCKED: ATOM     37  C   UNL d   1      14.577   5.660   1.243 -0.05 +0.00    +0.115 C 
DOCKED: BRANCH  37  38
DOCKED: ATOM     38  C   UNL d   1      13.733   6.461   2.194 -0.04 +0.00    +0.139 C 
DOCKED: ATOM     39  O   UNL d   1      13.819   7.679   2.233 +0.00 -0.02    -0.650 OA
DOCKED: BRANCH  38  40
DOCKED: ATOM     40  O   UNL d   1      12.873   5.836   3.017 +0.02 -0.04    -0.776 OA
DOCKED: ATOM     41  H   UNL d   1      13.219   5.221   3.679 +0.02 +0.01    +0.167 HD
DOCKED: ENDBRANCH  38  40
DOCKED: ENDBRANCH  37  38
DOCKED: ENDBRANCH  36  37
DOCKED: ENDBRANCH  22  36
DOCKED: BRANCH  12  42
DOCKED: ATOM     42  C   UNL d   1      18.661  -4.094   5.528 -0.15 +0.00    +0.004 C 
DOCKED: ATOM     43  C   UNL d   1      19.878  -4.081   4.969 -0.18 +0.00    +0.012 C 
DOCKED: ENDBRANCH  12  42
DOCKED: BRANCH  17  44
DOCKED: ATOM     44  C   UNL d   1      17.562  -1.863  -2.056 -0.45 -0.00    +0.004 C 
DOCKED: ATOM     45  C   UNL d   1      18.775  -1.839  -2.618 -0.39 -0.00    +0.012 C 
DOCKED: ENDBRANCH  17  44
DOCKED: TORSDOF 10
DOCKED: TER
DOCKED: ENDMDL
________________________________________________________________________________


	BEGINNING GENETIC ALGORITHM DOCKING 66 of 100
Run: 66 Seed: 1596990286 326587958 [ Run 66 of 100 GA/GALS ]
Beginning LAMARCKIAN GENETIC ALGORITHM (LGA), with a maximum of 25000000 energy evaluations.

Final-Value: -16.827


	FINAL GENETIC ALGORITHM DOCKED STATE
	_______________________________________________


Detailed state:  trans -9.026 1.292 1.503 quatxyzw 0.933784 0.161490 -0.252022 0.196096 center -0.174 -0.001 -0.047 ntor 10 151.9172 19.6631 37.2979 -137.9741 149.8399 -164.5739 79.4869 3.6040 -9.6370 160.6036
State:	 -9.026   1.292   1.503   0.952  0.165 -0.257 157.382    151.92   19.66   37.30 -137.97  149.84 -164.57   79.49    3.60   -9.64  160.60

DOCKED: MODEL       66
DOCKED: USER    Run = 66
DOCKED: USER    DPF = D:/Protein_go_brrr/autodock/final/mut_D99N/heme_Fe/dock.dpf
DOCKED: USER  
DOCKED: USER    Estimated Free Energy of Binding    =  -13.38 kcal/mol  [=(1)+(2)+(3)-(4)]
DOCKED: USER    Estimated Inhibition Constant, Ki   =  156.11 pM (picomolar)  [Temperature = 298.15 K]
DOCKED: USER    
DOCKED: USER    (1) Final Intermolecular Energy     =  -16.36 kcal/mol
DOCKED: USER        vdW + Hbond + desolv Energy     =  -13.60 kcal/mol
DOCKED: USER        Electrostatic Energy            =   -2.76 kcal/mol
DOCKED: USER    (2) Final Total Internal Energy     =   -0.47 kcal/mol
DOCKED: USER    (3) Torsional Free Energy           =   +2.98 kcal/mol
DOCKED: USER    (4) Unbound System's Energy  [=(2)] =   -0.47 kcal/mol
DOCKED: USER    
DOCKED: USER    
DOCKED: USER    NEWDPF move heme_Fe_opt.pdbqt
DOCKED: USER    NEWDPF about -0.174000 -0.001000 -0.047000
DOCKED: USER    NEWDPF tran0 -9.026313 1.291801 1.502592
DOCKED: USER    NEWDPF quaternion0 0.933784 0.161490 -0.252022 0.196096
DOCKED: USER    NEWDPF axisangle0 0.952273 0.164687 -0.257012 157.382433
DOCKED: USER    NEWDPF quat0 0.952273 0.164687 -0.257012 157.382433
DOCKED: USER    NEWDPF dihe0 151.92 19.66 37.30 -137.97 149.84 -164.57 79.49 3.60 -9.64 160.60 
DOCKED: USER  keepresnum = 1 
DOCKED: USER  
DOCKED: REMARK  10 active torsions:
DOCKED: REMARK  status: ('A' for Active; 'I' for Inactive)
DOCKED: REMARK    1  A    between atoms: C_6  and  C_10 
DOCKED: REMARK    2  A    between atoms: C_10  and  C_11 
DOCKED: REMARK    3  A    between atoms: C_11  and  C_12 
DOCKED: REMARK    4  A    between atoms: C_12  and  O_14 
DOCKED: REMARK    5  A    between atoms: C_17  and  C_20 
DOCKED: REMARK    6  A    between atoms: C_24  and  C_27 
DOCKED: REMARK    7  A    between atoms: C_31  and  C_34 
DOCKED: REMARK    8  A    between atoms: C_34  and  C_35 
DOCKED: REMARK    9  A    between atoms: C_35  and  C_36 
DOCKED: REMARK   10  A    between atoms: C_36  and  O_38 
DOCKED: USER                              x       y       z     vdW  Elec       q    Type
DOCKED: USER                           _______ _______ _______ _____ _____    ______ ____
DOCKED: ROOT
DOCKED: ATOM      1  C   UNL d   1     -10.948   0.701   1.912 -0.36 +0.03    +0.064 C 
DOCKED: ATOM      2  C   UNL d   1      -8.521   5.004   2.068 -0.43 +0.01    +0.064 A 
DOCKED: ATOM      3  C   UNL d   1      -5.007   3.038  -0.550 -0.41 +0.01    +0.064 C 
DOCKED: ATOM      4  C   UNL d   1      -7.290  -1.166  -0.623 -0.41 +0.01    +0.064 C 
DOCKED: ATOM      5  C   UNL d   1     -10.552   2.071   2.270 -0.18 +0.02    +0.066 A 
DOCKED: ATOM      6  C   UNL d   1     -11.268   2.907   3.110 -0.25 -0.00    -0.021 A 
DOCKED: ATOM      7  C   UNL d   1     -10.596   4.103   3.149 -0.35 -0.00    -0.025 A 
DOCKED: ATOM      8  C   UNL d   1      -9.493   3.950   2.331 -0.37 +0.01    +0.066 A 
DOCKED: ATOM      9  C   UNL d   1     -10.987   5.311   3.945 -0.42 +0.00    +0.051 C 
DOCKED: ATOM     10  C   UNL d   1      -7.419   4.866   1.329 -0.39 +0.01    +0.066 A 
DOCKED: ATOM     11  C   UNL d   1      -6.568   5.924   1.001 -0.47 -0.00    -0.021 A 
DOCKED: ATOM     12  C   UNL d   1      -5.555   5.386   0.232 -0.48 +0.00    +0.000 A 
DOCKED: ATOM     13  C   UNL d   1      -5.848   4.015   0.123 -0.38 +0.01    +0.070 A 
DOCKED: ATOM     14  C   UNL d   1      -6.747   7.388   1.345 -0.51 +0.01    +0.052 C 
DOCKED: ATOM     15  C   UNL d   1      -5.311   1.727  -0.702 -0.39 +0.01    +0.066 A 
DOCKED: ATOM     16  C   UNL d   1      -4.436   0.806  -1.263 -0.39 -0.00    -0.021 A 
DOCKED: ATOM     17  C   UNL d   1      -5.093  -0.407  -1.289 -0.43 +0.00    +0.000 A 
DOCKED: ATOM     18  C   UNL d   1      -6.358  -0.195  -0.745 -0.41 +0.01    +0.070 A 
DOCKED: ATOM     19  C   UNL d   1      -3.045   1.058  -1.780 -0.34 +0.00    +0.052 C 
DOCKED: ATOM     20  C   UNL d   1      -8.608  -0.995  -0.001 -0.34 +0.01    +0.066 A 
DOCKED: ATOM     21  C   UNL d   1      -9.653  -1.929  -0.046 -0.04 -0.01    -0.025 A 
DOCKED: ATOM     22  C   UNL d   1     -10.681  -1.382   0.694 -0.15 -0.01    -0.021 A 
DOCKED: ATOM     23  C   UNL d   1     -10.228  -0.139   1.153 -0.35 +0.03    +0.066 A 
DOCKED: ATOM     24  C   UNL d   1      -9.693  -3.266  -0.749 -0.14 +0.01    +0.051 C 
DOCKED: ATOM     25  N   UNL d   1      -9.464   2.710   1.805 -0.16 -0.09    -0.248 N 
DOCKED: ATOM     26  N   UNL d   1      -6.989   3.699   0.784 -0.15 -0.06    -0.248 N 
DOCKED: ATOM     27  N   UNL d   1      -6.477   1.106  -0.344 -0.27 -0.03    -0.248 N 
DOCKED: ATOM     28  N   UNL d   1      -8.979   0.111   0.689 -0.26 -0.07    -0.248 N 
DOCKED: ATOM     29 FE   UNL d   1      -7.984   1.903   0.736 -0.09 +0.00    +0.000 Fe
DOCKED: ENDROOT
DOCKED: BRANCH   6  30
DOCKED: ATOM     30  C   UNL d   1     -12.517   2.582   3.855 -0.23 +0.02    +0.052 C 
DOCKED: BRANCH  30  31
DOCKED: ATOM     31  C   UNL d   1     -12.202   1.786   5.117 -0.11 +0.05    +0.115 C 
DOCKED: BRANCH  31  32
DOCKED: ATOM     32  C   UNL d   1     -12.462   0.323   4.894 -0.10 +0.15    +0.139 C 
DOCKED: ATOM     33  O   UNL d   1     -11.811  -0.524   5.490 -0.51 -0.89    -0.650 OA
DOCKED: BRANCH  32  34
DOCKED: ATOM     34  O   UNL d   1     -13.417  -0.070   4.034 -0.29 -1.27    -0.776 OA
DOCKED: ATOM     35  H   UNL d   1     -14.177   0.509   3.880 +0.03 +0.15    +0.167 HD
DOCKED: ENDBRANCH  32  34
DOCKED: ENDBRANCH  31  32
DOCKED: ENDBRANCH  30  31
DOCKED: ENDBRANCH   6  30
DOCKED: BRANCH  22  36
DOCKED: ATOM     36  C   UNL d   1     -12.038  -1.999   0.904 +0.15 +0.05    +0.052 C 
DOCKED: BRANCH  36  37
DOCKED: ATOM     37  C   UNL d   1     -13.057  -1.317   0.002 +0.01 +0.07    +0.115 C 
DOCKED: BRANCH  37  38
DOCKED: ATOM     38  C   UNL d   1     -14.436  -1.865   0.237 -0.17 +0.09    +0.139 C 
DOCKED: ATOM     39  O   UNL d   1     -15.336  -1.659  -0.564 +0.02 -0.22    -0.650 OA
DOCKED: BRANCH  38  40
DOCKED: ATOM     40  O   UNL d   1     -14.692  -2.589   1.341 -0.54 -1.03    -0.776 OA
DOCKED: ATOM     41  H   UNL d   1     -15.469  -3.165   1.356 +0.02 +0.14    +0.167 HD
DOCKED: ENDBRANCH  38  40
DOCKED: ENDBRANCH  37  38
DOCKED: ENDBRANCH  36  37
DOCKED: ENDBRANCH  22  36
DOCKED: BRANCH  12  42
DOCKED: ATOM     42  C   UNL d   1      -4.419   6.163  -0.353 -0.65 +0.00    +0.004 C 
DOCKED: ATOM     43  C   UNL d   1      -3.314   6.412   0.362 -0.55 +0.00    +0.012 C 
DOCKED: ENDBRANCH  12  42
DOCKED: BRANCH  17  44
DOCKED: ATOM     44  C   UNL d   1      -4.540  -1.688  -1.782 -0.65 -0.00    +0.004 C 
DOCKED: ATOM     45  C   UNL d   1      -4.575  -1.994  -3.083 -0.72 -0.00    +0.012 C 
DOCKED: ENDBRANCH  17  44
DOCKED: TORSDOF 10
DOCKED: TER
DOCKED: ENDMDL
________________________________________________________________________________


	BEGINNING GENETIC ALGORITHM DOCKING 67 of 100
Run: 67 Seed: 166890673 84836272 [ Run 67 of 100 GA/GALS ]
Beginning LAMARCKIAN GENETIC ALGORITHM (LGA), with a maximum of 25000000 energy evaluations.

Final-Value: -10.385


	FINAL GENETIC ALGORITHM DOCKED STATE
	_______________________________________________


Detailed state:  trans 16.949 -0.963 2.876 quatxyzw -0.308979 -0.699359 0.579679 -0.281781 center -0.174 -0.001 -0.047 ntor 10 -0.0050 -131.5524 -109.4863 60.7042 131.5787 104.3012 80.4907 -44.9251 -8.8137 -36.7542
State:	 16.949  -0.963   2.876  -0.322 -0.729  0.604 -147.267     -0.00 -131.55 -109.49   60.70  131.58  104.30   80.49  -44.93   -8.81  -36.75

DOCKED: MODEL       67
DOCKED: USER    Run = 67
DOCKED: USER    DPF = D:/Protein_go_brrr/autodock/final/mut_D99N/heme_Fe/dock.dpf
DOCKED: USER  
DOCKED: USER    Estimated Free Energy of Binding    =   -5.36 kcal/mol  [=(1)+(2)+(3)-(4)]
DOCKED: USER    Estimated Inhibition Constant, Ki   =  117.32 uM (micromolar)  [Temperature = 298.15 K]
DOCKED: USER    
DOCKED: USER    (1) Final Intermolecular Energy     =   -8.35 kcal/mol
DOCKED: USER        vdW + Hbond + desolv Energy     =   -8.10 kcal/mol
DOCKED: USER        Electrostatic Energy            =   -0.24 kcal/mol
DOCKED: USER    (2) Final Total Internal Energy     =   -2.04 kcal/mol
DOCKED: USER    (3) Torsional Free Energy           =   +2.98 kcal/mol
DOCKED: USER    (4) Unbound System's Energy  [=(2)] =   -2.04 kcal/mol
DOCKED: USER    
DOCKED: USER    
DOCKED: USER    NEWDPF move heme_Fe_opt.pdbqt
DOCKED: USER    NEWDPF about -0.174000 -0.001000 -0.047000
DOCKED: USER    NEWDPF tran0 16.949389 -0.962726 2.876004
DOCKED: USER    NEWDPF quaternion0 -0.308979 -0.699359 0.579679 -0.281781
DOCKED: USER    NEWDPF axisangle0 -0.322028 -0.728895 0.604160 -147.266902
DOCKED: USER    NEWDPF quat0 -0.322028 -0.728895 0.604160 -147.266902
DOCKED: USER    NEWDPF dihe0 -0.00 -131.55 -109.49 60.70 131.58 104.30 80.49 -44.93 -8.81 -36.75 
DOCKED: USER  keepresnum = 1 
DOCKED: USER  
DOCKED: REMARK  10 active torsions:
DOCKED: REMARK  status: ('A' for Active; 'I' for Inactive)
DOCKED: REMARK    1  A    between atoms: C_6  and  C_10 
DOCKED: REMARK    2  A    between atoms: C_10  and  C_11 
DOCKED: REMARK    3  A    between atoms: C_11  and  C_12 
DOCKED: REMARK    4  A    between atoms: C_12  and  O_14 
DOCKED: REMARK    5  A    between atoms: C_17  and  C_20 
DOCKED: REMARK    6  A    between atoms: C_24  and  C_27 
DOCKED: REMARK    7  A    between atoms: C_31  and  C_34 
DOCKED: REMARK    8  A    between atoms: C_34  and  C_35 
DOCKED: REMARK    9  A    between atoms: C_35  and  C_36 
DOCKED: REMARK   10  A    between atoms: C_36  and  O_38 
DOCKED: USER                              x       y       z     vdW  Elec       q    Type
DOCKED: USER                           _______ _______ _______ _____ _____    ______ ____
DOCKED: ROOT
DOCKED: ATOM      1  C   UNL d   1      17.831  -2.813   2.773 -0.30 -0.01    +0.064 C 
DOCKED: ATOM      2  C   UNL d   1      15.252  -0.374   6.212 -0.13 +0.01    +0.064 A 
DOCKED: ATOM      3  C   UNL d   1      13.840   2.744   2.842 -0.21 +0.00    +0.064 C 
DOCKED: ATOM      4  C   UNL d   1      16.414   0.460  -0.480 -0.22 -0.01    +0.064 C 
DOCKED: ATOM      5  C   UNL d   1      17.303  -2.367   4.070 -0.23 -0.01    +0.066 A 
DOCKED: ATOM      6  C   UNL d   1      17.594  -2.959   5.288 -0.25 +0.00    -0.021 A 
DOCKED: ATOM      7  C   UNL d   1      16.875  -2.284   6.242 -0.28 +0.00    -0.025 A 
DOCKED: ATOM      8  C   UNL d   1      16.171  -1.304   5.569 -0.24 -0.00    +0.066 A 
DOCKED: ATOM      9  C   UNL d   1      16.884  -2.559   7.714 -0.25 -0.00    +0.051 C 
DOCKED: ATOM     10  C   UNL d   1      14.605   0.617   5.595 -0.25 +0.00    +0.066 A 
DOCKED: ATOM     11  C   UNL d   1      13.644   1.419   6.215 -0.27 -0.00    -0.021 A 
DOCKED: ATOM     12  C   UNL d   1      13.209   2.316   5.259 -0.25 +0.00    +0.000 A 
DOCKED: ATOM     13  C   UNL d   1      13.928   2.006   4.092 -0.22 +0.00    +0.070 A 
DOCKED: ATOM     14  C   UNL d   1      13.115   1.293   7.629 -0.28 +0.01    +0.052 C 
DOCKED: ATOM     15  C   UNL d   1      14.492   2.419   1.701 -0.17 +0.00    +0.066 A 
DOCKED: ATOM     16  C   UNL d   1      14.458   3.206   0.557 -0.14 -0.00    -0.021 A 
DOCKED: ATOM     17  C   UNL d   1      15.197   2.547  -0.403 -0.17 +0.00    +0.000 A 
DOCKED: ATOM     18  C   UNL d   1      15.661   1.369   0.177 -0.17 -0.00    +0.070 A 
DOCKED: ATOM     19  C   UNL d   1      13.740   4.515   0.364 -0.08 -0.00    +0.052 C 
DOCKED: ATOM     20  C   UNL d   1      16.971  -0.761   0.115 -0.20 -0.01    +0.066 A 
DOCKED: ATOM     21  C   UNL d   1      17.579  -1.805  -0.596 -0.30 +0.00    -0.025 A 
DOCKED: ATOM     22  C   UNL d   1      17.986  -2.721   0.352 -0.32 +0.00    -0.021 A 
DOCKED: ATOM     23  C   UNL d   1      17.608  -2.205   1.597 -0.26 -0.01    +0.066 A 
DOCKED: ATOM     24  C   UNL d   1      17.767  -1.945  -2.089 -0.42 -0.02    +0.051 C 
DOCKED: ATOM     25  N   UNL d   1      16.442  -1.351   4.249 -0.18 +0.02    -0.248 N 
DOCKED: ATOM     26  N   UNL d   1      14.773   0.965   4.294 -0.17 -0.00    -0.248 N 
DOCKED: ATOM     27  N   UNL d   1      15.265   1.310   1.484 -0.10 +0.00    -0.248 N 
DOCKED: ATOM     28  N   UNL d   1      16.949  -1.031   1.443 -0.11 +0.01    -0.248 N 
DOCKED: ATOM     29 FE   UNL d   1      15.861  -0.033   2.867 -0.05 -0.00    +0.000 Fe
DOCKED: ENDROOT
DOCKED: BRANCH   6  30
DOCKED: ATOM     30  C   UNL d   1      18.525  -4.096   5.538 -0.09 +0.00    +0.052 C 
DOCKED: BRANCH  30  31
DOCKED: ATOM     31  C   UNL d   1      19.970  -3.611   5.585 -0.10 +0.01    +0.115 C 
DOCKED: BRANCH  31  32
DOCKED: ATOM     32  C   UNL d   1      20.654  -3.868   4.271 -0.14 +0.02    +0.139 C 
DOCKED: ATOM     33  O   UNL d   1      21.295  -2.985   3.718 +0.03 -0.06    -0.650 OA
DOCKED: BRANCH  32  34
DOCKED: ATOM     34  O   UNL d   1      20.567  -5.077   3.690 -0.03 -0.16    -0.776 OA
DOCKED: ATOM     35  H   UNL d   1      21.013  -5.225   2.844 +0.03 +0.03    +0.167 HD
DOCKED: ENDBRANCH  32  34
DOCKED: ENDBRANCH  31  32
DOCKED: ENDBRANCH  30  31
DOCKED: ENDBRANCH   6  30
DOCKED: BRANCH  22  36
DOCKED: ATOM     36  C   UNL d   1      18.658  -4.039   0.069 -0.34 -0.02    +0.052 C 
DOCKED: BRANCH  36  37
DOCKED: ATOM     37  C   UNL d   1      19.970  -3.800  -0.663 -0.28 -0.01    +0.115 C 
DOCKED: BRANCH  37  38
DOCKED: ATOM     38  C   UNL d   1      21.076  -4.624  -0.068 -0.22 +0.00    +0.139 C 
DOCKED: ATOM     39  O   UNL d   1      21.482  -5.629  -0.634 -0.02 -0.04    -0.650 OA
DOCKED: BRANCH  38  40
DOCKED: ATOM     40  O   UNL d   1      21.629  -4.260   1.103 +0.05 -0.06    -0.776 OA
DOCKED: ATOM     41  H   UNL d   1      21.051  -4.037   1.846 +0.05 +0.01    +0.167 HD
DOCKED: ENDBRANCH  38  40
DOCKED: ENDBRANCH  37  38
DOCKED: ENDBRANCH  36  37
DOCKED: ENDBRANCH  22  36
DOCKED: BRANCH  12  42
DOCKED: ATOM     42  C   UNL d   1      12.165   3.364   5.481 -0.28 +0.00    +0.004 C 
DOCKED: ATOM     43  C   UNL d   1      10.912   3.029   5.815 -0.41 +0.01    +0.012 C 
DOCKED: ENDBRANCH  12  42
DOCKED: BRANCH  17  44
DOCKED: ATOM     44  C   UNL d   1      15.460   3.024  -1.780 -0.02 +0.00    +0.004 C 
DOCKED: ATOM     45  C   UNL d   1      16.699   3.336  -2.172 -0.10 +0.00    +0.012 C 
DOCKED: ENDBRANCH  17  44
DOCKED: TORSDOF 10
DOCKED: TER
DOCKED: ENDMDL
________________________________________________________________________________


	BEGINNING GENETIC ALGORITHM DOCKING 68 of 100
Run: 68 Seed: 1971728414 1115753654 [ Run 68 of 100 GA/GALS ]
Beginning LAMARCKIAN GENETIC ALGORITHM (LGA), with a maximum of 25000000 energy evaluations.

Final-Value: -14.683


	FINAL GENETIC ALGORITHM DOCKED STATE
	_______________________________________________


Detailed state:  trans -9.049 2.808 1.997 quatxyzw -0.920017 0.249913 0.279614 -0.113706 center -0.174 -0.001 -0.047 ntor 10 -99.5352 -155.2062 124.8684 173.2003 162.5786 -100.0303 -23.8852 111.6282 172.5419 -3.8293
State:	 -9.049   2.808   1.997  -0.926  0.252  0.281 -166.942    -99.54 -155.21  124.87  173.20  162.58 -100.03  -23.89  111.63  172.54   -3.83

DOCKED: MODEL       68
DOCKED: USER    Run = 68
DOCKED: USER    DPF = D:/Protein_go_brrr/autodock/final/mut_D99N/heme_Fe/dock.dpf
DOCKED: USER  
DOCKED: USER    Estimated Free Energy of Binding    =  -11.24 kcal/mol  [=(1)+(2)+(3)-(4)]
DOCKED: USER    Estimated Inhibition Constant, Ki   =    5.72 nM (nanomolar)  [Temperature = 298.15 K]
DOCKED: USER    
DOCKED: USER    (1) Final Intermolecular Energy     =  -14.23 kcal/mol
DOCKED: USER        vdW + Hbond + desolv Energy     =  -12.99 kcal/mol
DOCKED: USER        Electrostatic Energy            =   -1.24 kcal/mol
DOCKED: USER    (2) Final Total Internal Energy     =   -0.46 kcal/mol
DOCKED: USER    (3) Torsional Free Energy           =   +2.98 kcal/mol
DOCKED: USER    (4) Unbound System's Energy  [=(2)] =   -0.46 kcal/mol
DOCKED: USER    
DOCKED: USER    
DOCKED: USER    NEWDPF move heme_Fe_opt.pdbqt
DOCKED: USER    NEWDPF about -0.174000 -0.001000 -0.047000
DOCKED: USER    NEWDPF tran0 -9.049266 2.808087 1.997026
DOCKED: USER    NEWDPF quaternion0 -0.920017 0.249913 0.279614 -0.113706
DOCKED: USER    NEWDPF axisangle0 -0.926022 0.251544 0.281439 -166.941989
DOCKED: USER    NEWDPF quat0 -0.926022 0.251544 0.281439 -166.941989
DOCKED: USER    NEWDPF dihe0 -99.54 -155.21 124.87 173.20 162.58 -100.03 -23.89 111.63 172.54 -3.83 
DOCKED: USER  keepresnum = 1 
DOCKED: USER  
DOCKED: REMARK  10 active torsions:
DOCKED: REMARK  status: ('A' for Active; 'I' for Inactive)
DOCKED: REMARK    1  A    between atoms: C_6  and  C_10 
DOCKED: REMARK    2  A    between atoms: C_10  and  C_11 
DOCKED: REMARK    3  A    between atoms: C_11  and  C_12 
DOCKED: REMARK    4  A    between atoms: C_12  and  O_14 
DOCKED: REMARK    5  A    between atoms: C_17  and  C_20 
DOCKED: REMARK    6  A    between atoms: C_24  and  C_27 
DOCKED: REMARK    7  A    between atoms: C_31  and  C_34 
DOCKED: REMARK    8  A    between atoms: C_34  and  C_35 
DOCKED: REMARK    9  A    between atoms: C_35  and  C_36 
DOCKED: REMARK   10  A    between atoms: C_36  and  O_38 
DOCKED: USER                              x       y       z     vdW  Elec       q    Type
DOCKED: USER                           _______ _______ _______ _____ _____    ______ ____
DOCKED: ROOT
DOCKED: ATOM      1  C   UNL d   1     -10.686   3.829   2.698 -0.29 +0.01    +0.064 C 
DOCKED: ATOM      2  C   UNL d   1      -6.232   5.138   1.001 -0.41 +0.01    +0.064 A 
DOCKED: ATOM      3  C   UNL d   1      -5.680   0.706  -0.767 -0.45 +0.01    +0.064 C 
DOCKED: ATOM      4  C   UNL d   1      -9.942  -0.612   0.958 -0.40 +0.03    +0.064 C 
DOCKED: ATOM      5  C   UNL d   1      -9.448   4.584   2.457 -0.41 +0.01    +0.066 A 
DOCKED: ATOM      6  C   UNL d   1      -9.199   5.864   2.923 -0.51 -0.00    -0.021 A 
DOCKED: ATOM      7  C   UNL d   1      -7.964   6.228   2.448 -0.44 -0.00    -0.025 A 
DOCKED: ATOM      8  C   UNL d   1      -7.505   5.155   1.710 -0.41 +0.01    +0.066 A 
DOCKED: ATOM      9  C   UNL d   1      -7.265   7.527   2.710 +0.03 +0.01    +0.051 C 
DOCKED: ATOM     10  C   UNL d   1      -5.740   4.095   0.330 -0.39 +0.01    +0.066 A 
DOCKED: ATOM     11  C   UNL d   1      -4.572   4.146  -0.434 -0.35 -0.00    -0.021 A 
DOCKED: ATOM     12  C   UNL d   1      -4.399   2.885  -0.969 -0.20 +0.00    +0.000 A 
DOCKED: ATOM     13  C   UNL d   1      -5.487   2.124  -0.505 -0.40 +0.01    +0.070 A 
DOCKED: ATOM     14  C   UNL d   1      -3.699   5.356  -0.699 -0.44 +0.00    +0.052 C 
DOCKED: ATOM     15  C   UNL d   1      -6.751  -0.018  -0.367 -0.39 +0.01    +0.066 A 
DOCKED: ATOM     16  C   UNL d   1      -6.850  -1.391  -0.551 -0.47 -0.00    -0.021 A 
DOCKED: ATOM     17  C   UNL d   1      -8.081  -1.773  -0.057 -0.44 +0.00    +0.000 A 
DOCKED: ATOM     18  C   UNL d   1      -8.706  -0.621   0.414 -0.38 +0.02    +0.070 A 
DOCKED: ATOM     19  C   UNL d   1      -5.841  -2.307  -1.189 -0.07 -0.00    +0.052 C 
DOCKED: ATOM     20  C   UNL d   1     -10.607   0.570   1.520 -0.34 +0.03    +0.066 A 
DOCKED: ATOM     21  C   UNL d   1     -11.954   0.637   1.901 -0.32 -0.02    -0.025 A 
DOCKED: ATOM     22  C   UNL d   1     -12.141   1.907   2.406 -0.30 -0.01    -0.021 A 
DOCKED: ATOM     23  C   UNL d   1     -10.909   2.564   2.307 -0.29 +0.02    +0.066 A 
DOCKED: ATOM     24  C   UNL d   1     -13.018  -0.431   1.797 -0.17 +0.06    +0.051 C 
DOCKED: ATOM     25  N   UNL d   1      -8.406   4.152   1.725 -0.14 -0.08    -0.248 N 
DOCKED: ATOM     26  N   UNL d   1      -6.309   2.863   0.279 -0.26 -0.04    -0.248 N 
DOCKED: ATOM     27  N   UNL d   1      -7.872   0.452   0.264 -0.26 -0.05    -0.248 N 
DOCKED: ATOM     28  N   UNL d   1      -9.988   1.758   1.725 -0.22 -0.08    -0.248 N 
DOCKED: ATOM     29 FE   UNL d   1      -8.150   2.309   1.002 -0.09 +0.00    +0.000 Fe
DOCKED: ENDROOT
DOCKED: BRANCH   6  30
DOCKED: ATOM     30  C   UNL d   1     -10.080   6.694   3.793 -0.39 -0.00    +0.052 C 
DOCKED: BRANCH  30  31
DOCKED: ATOM     31  C   UNL d   1     -10.886   7.684   2.959 -0.44 +0.00    +0.115 C 
DOCKED: BRANCH  31  32
DOCKED: ATOM     32  C   UNL d   1     -12.137   8.090   3.688 -0.34 -0.01    +0.139 C 
DOCKED: ATOM     33  O   UNL d   1     -12.753   9.093   3.357 -0.10 +0.05    -0.650 OA
DOCKED: BRANCH  32  34
DOCKED: ATOM     34  O   UNL d   1     -12.589   7.352   4.716 +0.06 +0.11    -0.776 OA
DOCKED: ATOM     35  H   UNL d   1     -12.183   7.461   5.587 -0.41 -0.06    +0.167 HD
DOCKED: ENDBRANCH  32  34
DOCKED: ENDBRANCH  31  32
DOCKED: ENDBRANCH  30  31
DOCKED: ENDBRANCH   6  30
DOCKED: BRANCH  22  36
DOCKED: ATOM     36  C   UNL d   1     -13.444   2.471   2.909 -0.24 +0.02    +0.052 C 
DOCKED: BRANCH  36  37
DOCKED: ATOM     37  C   UNL d   1     -13.550   2.258   4.412 -0.14 +0.04    +0.115 C 
DOCKED: BRANCH  37  38
DOCKED: ATOM     38  C   UNL d   1     -13.722   0.802   4.738 -0.13 +0.11    +0.139 C 
DOCKED: ATOM     39  O   UNL d   1     -14.826   0.345   4.997 +0.01 -0.46    -0.650 OA
DOCKED: BRANCH  38  40
DOCKED: ATOM     40  O   UNL d   1     -12.653  -0.014   4.752 -0.50 -1.16    -0.776 OA
DOCKED: ATOM     41  H   UNL d   1     -11.776   0.362   4.908 +0.04 +0.16    +0.167 HD
DOCKED: ENDBRANCH  38  40
DOCKED: ENDBRANCH  37  38
DOCKED: ENDBRANCH  36  37
DOCKED: ENDBRANCH  22  36
DOCKED: BRANCH  12  42
DOCKED: ATOM     42  C   UNL d   1      -3.274   2.483  -1.868 -0.28 +0.00    +0.004 C 
DOCKED: ATOM     43  C   UNL d   1      -3.102   1.204  -2.226 -0.53 +0.00    +0.012 C 
DOCKED: ENDBRANCH  12  42
DOCKED: BRANCH  17  44
DOCKED: ATOM     44  C   UNL d   1      -8.614  -3.153  -0.020 -0.07 +0.00    +0.004 C 
DOCKED: ATOM     45  C   UNL d   1      -9.859  -3.417  -0.430 -0.35 +0.00    +0.012 C 
DOCKED: ENDBRANCH  17  44
DOCKED: TORSDOF 10
DOCKED: TER
DOCKED: ENDMDL
________________________________________________________________________________


	BEGINNING GENETIC ALGORITHM DOCKING 69 of 100
Run: 69 Seed: 2049588659 468775812 [ Run 69 of 100 GA/GALS ]
Beginning LAMARCKIAN GENETIC ALGORITHM (LGA), with a maximum of 25000000 energy evaluations.

Final-Value: -11.179


	FINAL GENETIC ALGORITHM DOCKED STATE
	_______________________________________________


Detailed state:  trans 15.538 -8.826 7.920 quatxyzw 0.158240 -0.930229 -0.315725 -0.099758 center -0.174 -0.001 -0.047 ntor 10 -118.7740 -155.4308 171.6463 -162.0398 -46.7318 71.5579 -46.3008 -79.9336 1.3527 -180.0000
State:	 15.538  -8.826   7.920   0.159 -0.935 -0.317 -168.549   -118.77 -155.43  171.65 -162.04  -46.73   71.56  -46.30  -79.93    1.35 -180.00

DOCKED: MODEL       69
DOCKED: USER    Run = 69
DOCKED: USER    DPF = D:/Protein_go_brrr/autodock/final/mut_D99N/heme_Fe/dock.dpf
DOCKED: USER  
DOCKED: USER    Estimated Free Energy of Binding    =   -7.48 kcal/mol  [=(1)+(2)+(3)-(4)]
DOCKED: USER    Estimated Inhibition Constant, Ki   =    3.29 uM (micromolar)  [Temperature = 298.15 K]
DOCKED: USER    
DOCKED: USER    (1) Final Intermolecular Energy     =  -10.46 kcal/mol
DOCKED: USER        vdW + Hbond + desolv Energy     =   -9.45 kcal/mol
DOCKED: USER        Electrostatic Energy            =   -1.02 kcal/mol
DOCKED: USER    (2) Final Total Internal Energy     =   -0.72 kcal/mol
DOCKED: USER    (3) Torsional Free Energy           =   +2.98 kcal/mol
DOCKED: USER    (4) Unbound System's Energy  [=(2)] =   -0.72 kcal/mol
DOCKED: USER    
DOCKED: USER    
DOCKED: USER    NEWDPF move heme_Fe_opt.pdbqt
DOCKED: USER    NEWDPF about -0.174000 -0.001000 -0.047000
DOCKED: USER    NEWDPF tran0 15.538186 -8.825535 7.920441
DOCKED: USER    NEWDPF quaternion0 0.158240 -0.930229 -0.315725 -0.099758
DOCKED: USER    NEWDPF axisangle0 0.159034 -0.934893 -0.317308 -168.549497
DOCKED: USER    NEWDPF quat0 0.159034 -0.934893 -0.317308 -168.549497
DOCKED: USER    NEWDPF dihe0 -118.77 -155.43 171.65 -162.04 -46.73 71.56 -46.30 -79.93 1.35 -180.00 
DOCKED: USER  keepresnum = 1 
DOCKED: USER  
DOCKED: REMARK  10 active torsions:
DOCKED: REMARK  status: ('A' for Active; 'I' for Inactive)
DOCKED: REMARK    1  A    between atoms: C_6  and  C_10 
DOCKED: REMARK    2  A    between atoms: C_10  and  C_11 
DOCKED: REMARK    3  A    between atoms: C_11  and  C_12 
DOCKED: REMARK    4  A    between atoms: C_12  and  O_14 
DOCKED: REMARK    5  A    between atoms: C_17  and  C_20 
DOCKED: REMARK    6  A    between atoms: C_24  and  C_27 
DOCKED: REMARK    7  A    between atoms: C_31  and  C_34 
DOCKED: REMARK    8  A    between atoms: C_34  and  C_35 
DOCKED: REMARK    9  A    between atoms: C_35  and  C_36 
DOCKED: REMARK   10  A    between atoms: C_36  and  O_38 
DOCKED: USER                              x       y       z     vdW  Elec       q    Type
DOCKED: USER                           _______ _______ _______ _____ _____    ______ ____
DOCKED: ROOT
DOCKED: ATOM      1  C   UNL d   1      17.242  -7.866   7.299 -0.26 -0.01    +0.064 C 
DOCKED: ATOM      2  C   UNL d   1      14.671 -11.775   5.705 -0.24 -0.05    +0.064 A 
DOCKED: ATOM      3  C   UNL d   1      10.997 -10.402   8.478 -0.25 -0.02    +0.064 C 
DOCKED: ATOM      4  C   UNL d   1      13.507  -6.672  10.113 -0.28 -0.02    +0.064 C 
DOCKED: ATOM      5  C   UNL d   1      16.890  -9.140   6.657 -0.27 -0.01    +0.066 A 
DOCKED: ATOM      6  C   UNL d   1      17.746  -9.892   5.869 -0.31 +0.00    -0.021 A 
DOCKED: ATOM      7  C   UNL d   1      17.030 -10.975   5.424 -0.32 +0.01    -0.025 A 
DOCKED: ATOM      8  C   UNL d   1      15.763 -10.843   5.958 -0.30 -0.03    +0.066 A 
DOCKED: ATOM      9  C   UNL d   1      17.548 -12.079   4.553 -0.20 -0.03    +0.051 C 
DOCKED: ATOM     10  C   UNL d   1      13.456 -11.701   6.253 -0.27 -0.03    +0.066 A 
DOCKED: ATOM     11  C   UNL d   1      12.397 -12.542   5.903 -0.27 +0.01    -0.021 A 
DOCKED: ATOM     12  C   UNL d   1      11.321 -12.156   6.677 -0.26 -0.00    +0.000 A 
DOCKED: ATOM     13  C   UNL d   1      11.782 -11.083   7.460 -0.22 -0.03    +0.070 A 
DOCKED: ATOM     14  C   UNL d   1      12.390 -13.616   4.835 -0.35 -0.02    +0.052 C 
DOCKED: ATOM     15  C   UNL d   1      11.420  -9.336   9.198 -0.22 -0.03    +0.066 A 
DOCKED: ATOM     16  C   UNL d   1      10.678  -8.775  10.230 -0.21 +0.01    -0.021 A 
DOCKED: ATOM     17  C   UNL d   1      11.398  -7.697  10.701 -0.23 -0.00    +0.000 A 
DOCKED: ATOM     18  C   UNL d   1      12.563  -7.622   9.941 -0.24 -0.03    +0.070 A 
DOCKED: ATOM     19  C   UNL d   1       9.333  -9.219  10.740 -0.21 -0.05    +0.052 C 
DOCKED: ATOM     20  C   UNL d   1      14.773  -6.598   9.374 -0.20 -0.03    +0.066 A 
DOCKED: ATOM     21  C   UNL d   1      15.663  -5.515   9.399 -0.18 +0.01    -0.025 A 
DOCKED: ATOM     22  C   UNL d   1      16.727  -5.882   8.600 -0.18 +0.00    -0.021 A 
DOCKED: ATOM     23  C   UNL d   1      16.442  -7.165   8.117 -0.22 -0.01    +0.066 A 
DOCKED: ATOM     24  C   UNL d   1      15.528  -4.199  10.129 -0.13 -0.01    +0.051 C 
DOCKED: ATOM     25  N   UNL d   1      15.683  -9.730   6.715 -0.20 +0.09    -0.248 N 
DOCKED: ATOM     26  N   UNL d   1      13.081 -10.800   7.196 -0.08 +0.13    -0.248 N 
DOCKED: ATOM     27  N   UNL d   1      12.598  -8.655   9.046 -0.05 +0.12    -0.248 N 
DOCKED: ATOM     28  N   UNL d   1      15.228  -7.577   8.556 -0.17 +0.09    -0.248 N 
DOCKED: ATOM     29 FE   UNL d   1      14.154  -9.187   7.877 -0.06 -0.00    +0.000 Fe
DOCKED: ENDROOT
DOCKED: BRANCH   6  30
DOCKED: ATOM     30  C   UNL d   1      19.179  -9.609   5.571 -0.27 +0.02    +0.052 C 
DOCKED: BRANCH  30  31
DOCKED: ATOM     31  C   UNL d   1      20.087 -10.275   6.600 -0.16 +0.03    +0.115 C 
DOCKED: BRANCH  31  32
DOCKED: ATOM     32  C   UNL d   1      21.225 -10.981   5.918 -0.06 +0.08    +0.139 C 
DOCKED: ATOM     33  O   UNL d   1      21.022 -11.705   4.953 -0.03 -0.29    -0.650 OA
DOCKED: BRANCH  32  34
DOCKED: ATOM     34  O   UNL d   1      22.482 -10.823   6.365 -0.23 -0.97    -0.776 OA
DOCKED: ATOM     35  H   UNL d   1      22.698 -11.099   7.267 +0.01 +0.15    +0.167 HD
DOCKED: ENDBRANCH  32  34
DOCKED: ENDBRANCH  31  32
DOCKED: ENDBRANCH  30  31
DOCKED: ENDBRANCH   6  30
DOCKED: BRANCH  22  36
DOCKED: ATOM     36  C   UNL d   1      17.924  -5.026   8.282 -0.13 -0.00    +0.052 C 
DOCKED: BRANCH  36  37
DOCKED: ATOM     37  C   UNL d   1      17.591  -4.082   7.137 -0.21 -0.01    +0.115 C 
DOCKED: BRANCH  37  38
DOCKED: ATOM     38  C   UNL d   1      17.245  -2.713   7.651 -0.19 -0.01    +0.139 C 
DOCKED: ATOM     39  O   UNL d   1      18.108  -1.984   8.117 +0.03 +0.00    -0.650 OA
DOCKED: BRANCH  38  40
DOCKED: ATOM     40  O   UNL d   1      15.972  -2.280   7.604 -0.28 -0.02    -0.776 OA
DOCKED: ATOM     41  H   UNL d   1      15.255  -2.930   7.585 -0.37 -0.04    +0.167 HD
DOCKED: ENDBRANCH  38  40
DOCKED: ENDBRANCH  37  38
DOCKED: ENDBRANCH  36  37
DOCKED: ENDBRANCH  22  36
DOCKED: BRANCH  12  42
DOCKED: ATOM     42  C   UNL d   1       9.962 -12.780   6.627 -0.31 -0.00    +0.004 C 
DOCKED: ATOM     43  C   UNL d   1       8.856 -12.030   6.714 -0.33 -0.00    +0.012 C 
DOCKED: ENDBRANCH  12  42
DOCKED: BRANCH  17  44
DOCKED: ATOM     44  C   UNL d   1      11.008  -6.809  11.820 -0.21 -0.00    +0.004 C 
DOCKED: ATOM     45  C   UNL d   1      10.608  -5.554  11.590 -0.31 -0.01    +0.012 C 
DOCKED: ENDBRANCH  17  44
DOCKED: TORSDOF 10
DOCKED: TER
DOCKED: ENDMDL
________________________________________________________________________________


	BEGINNING GENETIC ALGORITHM DOCKING 70 of 100
Run: 70 Seed: 251132727 633413417 [ Run 70 of 100 GA/GALS ]
Beginning LAMARCKIAN GENETIC ALGORITHM (LGA), with a maximum of 25000000 energy evaluations.

Final-Value: -11.012


	FINAL GENETIC ALGORITHM DOCKED STATE
	_______________________________________________


Detailed state:  trans -13.208 1.311 2.985 quatxyzw -0.954103 -0.054150 0.155075 -0.250412 center -0.174 -0.001 -0.047 ntor 10 178.3645 143.6311 -131.1096 40.3443 119.0435 87.9563 131.4993 -177.6906 -155.8131 -16.4895
State:	-13.208   1.311   2.985  -0.986 -0.056  0.160 -150.996    178.36  143.63 -131.11   40.34  119.04   87.96  131.50 -177.69 -155.81  -16.49

DOCKED: MODEL       70
DOCKED: USER    Run = 70
DOCKED: USER    DPF = D:/Protein_go_brrr/autodock/final/mut_D99N/heme_Fe/dock.dpf
DOCKED: USER  
DOCKED: USER    Estimated Free Energy of Binding    =   -7.36 kcal/mol  [=(1)+(2)+(3)-(4)]
DOCKED: USER    Estimated Inhibition Constant, Ki   =    4.03 uM (micromolar)  [Temperature = 298.15 K]
DOCKED: USER    
DOCKED: USER    (1) Final Intermolecular Energy     =  -10.34 kcal/mol
DOCKED: USER        vdW + Hbond + desolv Energy     =   -8.49 kcal/mol
DOCKED: USER        Electrostatic Energy            =   -1.85 kcal/mol
DOCKED: USER    (2) Final Total Internal Energy     =   -0.67 kcal/mol
DOCKED: USER    (3) Torsional Free Energy           =   +2.98 kcal/mol
DOCKED: USER    (4) Unbound System's Energy  [=(2)] =   -0.67 kcal/mol
DOCKED: USER    
DOCKED: USER    
DOCKED: USER    NEWDPF move heme_Fe_opt.pdbqt
DOCKED: USER    NEWDPF about -0.174000 -0.001000 -0.047000
DOCKED: USER    NEWDPF tran0 -13.207734 1.310990 2.985297
DOCKED: USER    NEWDPF quaternion0 -0.954103 -0.054150 0.155075 -0.250412
DOCKED: USER    NEWDPF axisangle0 -0.985502 -0.055932 0.160179 -150.996228
DOCKED: USER    NEWDPF quat0 -0.985502 -0.055932 0.160179 -150.996228
DOCKED: USER    NEWDPF dihe0 178.36 143.63 -131.11 40.34 119.04 87.96 131.50 -177.69 -155.81 -16.49 
DOCKED: USER  keepresnum = 1 
DOCKED: USER  
DOCKED: REMARK  10 active torsions:
DOCKED: REMARK  status: ('A' for Active; 'I' for Inactive)
DOCKED: REMARK    1  A    between atoms: C_6  and  C_10 
DOCKED: REMARK    2  A    between atoms: C_10  and  C_11 
DOCKED: REMARK    3  A    between atoms: C_11  and  C_12 
DOCKED: REMARK    4  A    between atoms: C_12  and  O_14 
DOCKED: REMARK    5  A    between atoms: C_17  and  C_20 
DOCKED: REMARK    6  A    between atoms: C_24  and  C_27 
DOCKED: REMARK    7  A    between atoms: C_31  and  C_34 
DOCKED: REMARK    8  A    between atoms: C_34  and  C_35 
DOCKED: REMARK    9  A    between atoms: C_35  and  C_36 
DOCKED: REMARK   10  A    between atoms: C_36  and  O_38 
DOCKED: USER                              x       y       z     vdW  Elec       q    Type
DOCKED: USER                           _______ _______ _______ _____ _____    ______ ____
DOCKED: ROOT
DOCKED: ATOM      1  C   UNL d   1     -15.255   1.249   3.107 -0.15 +0.03    +0.064 C 
DOCKED: ATOM      2  C   UNL d   1     -11.823   4.709   3.931 -0.23 +0.01    +0.064 A 
DOCKED: ATOM      3  C   UNL d   1      -8.624   1.994   1.593 +0.21 +0.03    +0.064 C 
DOCKED: ATOM      4  C   UNL d   1     -11.904  -1.414   0.877 -0.20 +0.06    +0.064 C 
DOCKED: ATOM      5  C   UNL d   1     -14.565   2.437   3.628 -0.14 +0.02    +0.066 A 
DOCKED: ATOM      6  C   UNL d   1     -15.144   3.393   4.446 -0.10 -0.00    -0.021 A 
DOCKED: ATOM      7  C   UNL d   1     -14.192   4.355   4.671 -0.13 -0.00    -0.025 A 
DOCKED: ATOM      8  C   UNL d   1     -13.066   3.949   3.982 -0.16 +0.01    +0.066 A 
DOCKED: ATOM      9  C   UNL d   1     -14.357   5.581   5.517 -0.14 +0.00    +0.051 C 
DOCKED: ATOM     10  C   UNL d   1     -10.705   4.312   3.321 -0.31 +0.01    +0.066 A 
DOCKED: ATOM     11  C   UNL d   1      -9.567   5.112   3.192 -0.46 -0.00    -0.021 A 
DOCKED: ATOM     12  C   UNL d   1      -8.635   4.358   2.506 -0.44 +0.00    +0.000 A 
DOCKED: ATOM     13  C   UNL d   1      -9.262   3.128   2.243 -0.18 +0.02    +0.070 A 
DOCKED: ATOM     14  C   UNL d   1      -9.399   6.550   3.639 -0.46 +0.00    +0.052 C 
DOCKED: ATOM     15  C   UNL d   1      -9.239   0.826   1.291 -0.34 +0.02    +0.066 A 
DOCKED: ATOM     16  C   UNL d   1      -8.569  -0.269   0.761 -0.43 -0.01    -0.021 A 
DOCKED: ATOM     17  C   UNL d   1      -9.514  -1.252   0.550 -0.38 +0.00    +0.000 A 
DOCKED: ATOM     18  C   UNL d   1     -10.741  -0.731   0.954 -0.28 +0.04    +0.070 A 
DOCKED: ATOM     19  C   UNL d   1      -7.103  -0.381   0.439 -0.27 +0.01    +0.052 C 
DOCKED: ATOM     20  C   UNL d   1     -13.203  -0.921   1.349 -0.11 +0.08    +0.066 A 
DOCKED: ATOM     21  C   UNL d   1     -14.441  -1.530   1.096 -0.10 -0.03    -0.025 A 
DOCKED: ATOM     22  C   UNL d   1     -15.380  -0.762   1.752 -0.12 -0.02    -0.021 A 
DOCKED: ATOM     23  C   UNL d   1     -14.684   0.284   2.370 -0.12 +0.05    +0.066 A 
DOCKED: ATOM     24  C   UNL d   1     -14.735  -2.767   0.279 -0.17 +0.03    +0.051 C 
DOCKED: ATOM     25  N   UNL d   1     -13.293   2.777   3.356 -0.12 -0.07    -0.248 N 
DOCKED: ATOM     26  N   UNL d   1     -10.527   3.103   2.731 -0.21 -0.05    -0.248 N 
DOCKED: ATOM     27  N   UNL d   1     -10.567   0.531   1.450 -0.24 -0.11    -0.248 N 
DOCKED: ATOM     28  N   UNL d   1     -13.362   0.206   2.083 -0.14 -0.22    -0.248 N 
DOCKED: ATOM     29 FE   UNL d   1     -11.944   1.653   2.406 -0.06 +0.00    +0.000 Fe
DOCKED: ENDROOT
DOCKED: BRANCH   6  30
DOCKED: ATOM     30  C   UNL d   1     -16.526   3.384   5.005 -0.05 +0.01    +0.052 C 
DOCKED: BRANCH  30  31
DOCKED: ATOM     31  C   UNL d   1     -17.559   3.530   3.892 -0.08 +0.02    +0.115 C 
DOCKED: BRANCH  31  32
DOCKED: ATOM     32  C   UNL d   1     -17.194   4.668   2.981 -0.17 +0.02    +0.139 C 
DOCKED: ATOM     33  O   UNL d   1     -16.971   4.470   1.795 -0.07 -0.10    -0.650 OA
DOCKED: BRANCH  32  34
DOCKED: ATOM     34  O   UNL d   1     -17.108   5.919   3.464 +0.03 -0.06    -0.776 OA
DOCKED: ATOM     35  H   UNL d   1     -17.308   6.076   4.398 +0.03 +0.01    +0.167 HD
DOCKED: ENDBRANCH  32  34
DOCKED: ENDBRANCH  31  32
DOCKED: ENDBRANCH  30  31
DOCKED: ENDBRANCH   6  30
DOCKED: BRANCH  22  36
DOCKED: ATOM     36  C   UNL d   1     -16.868  -0.993   1.742 -0.10 +0.02    +0.052 C 
DOCKED: BRANCH  36  37
DOCKED: ATOM     37  C   UNL d   1     -17.225  -2.082   2.743 -0.04 +0.05    +0.115 C 
DOCKED: BRANCH  37  38
DOCKED: ATOM     38  C   UNL d   1     -16.001  -2.573   3.463 -0.00 +0.15    +0.139 C 
DOCKED: ATOM     39  O   UNL d   1     -15.615  -2.024   4.484 +0.01 -0.82    -0.650 OA
DOCKED: BRANCH  38  40
DOCKED: ATOM     40  O   UNL d   1     -15.317  -3.627   2.983 -0.18 -1.19    -0.776 OA
DOCKED: ATOM     41  H   UNL d   1     -15.803  -4.356   2.574 +0.01 +0.13    +0.167 HD
DOCKED: ENDBRANCH  38  40
DOCKED: ENDBRANCH  37  38
DOCKED: ENDBRANCH  36  37
DOCKED: ENDBRANCH  22  36
DOCKED: BRANCH  12  42
DOCKED: ATOM     42  C   UNL d   1      -7.264   4.824   2.133 -0.48 +0.00    +0.004 C 
DOCKED: ATOM     43  C   UNL d   1      -7.061   5.558   1.031 -0.53 +0.00    +0.012 C 
DOCKED: ENDBRANCH  12  42
DOCKED: BRANCH  17  44
DOCKED: ATOM     44  C   UNL d   1      -9.256  -2.609   0.017 -0.44 +0.00    +0.004 C 
DOCKED: ATOM     45  C   UNL d   1      -9.052  -3.641   0.841 -0.40 +0.00    +0.012 C 
DOCKED: ENDBRANCH  17  44
DOCKED: TORSDOF 10
DOCKED: TER
DOCKED: ENDMDL
________________________________________________________________________________


	BEGINNING GENETIC ALGORITHM DOCKING 71 of 100
Run: 71 Seed: 1500047743 781446459 [ Run 71 of 100 GA/GALS ]
Beginning LAMARCKIAN GENETIC ALGORITHM (LGA), with a maximum of 25000000 energy evaluations.

Final-Value: -15.212


	FINAL GENETIC ALGORITHM DOCKED STATE
	_______________________________________________


Detailed state:  trans -9.659 2.727 1.343 quatxyzw 0.158622 0.176229 -0.044740 -0.970454 center -0.174 -0.001 -0.047 ntor 10 -97.8870 -94.1067 86.1806 -150.3242 -92.3743 91.0865 71.5937 134.6948 -117.3881 -173.5493
State:	 -9.659   2.727   1.343   0.657  0.730 -0.185 -27.925    -97.89  -94.11   86.18 -150.32  -92.37   91.09   71.59  134.69 -117.39 -173.55

DOCKED: MODEL       71
DOCKED: USER    Run = 71
DOCKED: USER    DPF = D:/Protein_go_brrr/autodock/final/mut_D99N/heme_Fe/dock.dpf
DOCKED: USER  
DOCKED: USER    Estimated Free Energy of Binding    =  -10.88 kcal/mol  [=(1)+(2)+(3)-(4)]
DOCKED: USER    Estimated Inhibition Constant, Ki   =   10.68 nM (nanomolar)  [Temperature = 298.15 K]
DOCKED: USER    
DOCKED: USER    (1) Final Intermolecular Energy     =  -13.86 kcal/mol
DOCKED: USER        vdW + Hbond + desolv Energy     =  -12.12 kcal/mol
DOCKED: USER        Electrostatic Energy            =   -1.73 kcal/mol
DOCKED: USER    (2) Final Total Internal Energy     =   -1.35 kcal/mol
DOCKED: USER    (3) Torsional Free Energy           =   +2.98 kcal/mol
DOCKED: USER    (4) Unbound System's Energy  [=(2)] =   -1.35 kcal/mol
DOCKED: USER    
DOCKED: USER    
DOCKED: USER    NEWDPF move heme_Fe_opt.pdbqt
DOCKED: USER    NEWDPF about -0.174000 -0.001000 -0.047000
DOCKED: USER    NEWDPF tran0 -9.658895 2.727432 1.342504
DOCKED: USER    NEWDPF quaternion0 0.158622 0.176229 -0.044740 -0.970454
DOCKED: USER    NEWDPF axisangle0 0.657401 0.730371 -0.185423 -27.924991
DOCKED: USER    NEWDPF quat0 0.657401 0.730371 -0.185423 -27.924991
DOCKED: USER    NEWDPF dihe0 -97.89 -94.11 86.18 -150.32 -92.37 91.09 71.59 134.69 -117.39 -173.55 
DOCKED: USER  keepresnum = 1 
DOCKED: USER  
DOCKED: REMARK  10 active torsions:
DOCKED: REMARK  status: ('A' for Active; 'I' for Inactive)
DOCKED: REMARK    1  A    between atoms: C_6  and  C_10 
DOCKED: REMARK    2  A    between atoms: C_10  and  C_11 
DOCKED: REMARK    3  A    between atoms: C_11  and  C_12 
DOCKED: REMARK    4  A    between atoms: C_12  and  O_14 
DOCKED: REMARK    5  A    between atoms: C_17  and  C_20 
DOCKED: REMARK    6  A    between atoms: C_24  and  C_27 
DOCKED: REMARK    7  A    between atoms: C_31  and  C_34 
DOCKED: REMARK    8  A    between atoms: C_34  and  C_35 
DOCKED: REMARK    9  A    between atoms: C_35  and  C_36 
DOCKED: REMARK   10  A    between atoms: C_36  and  O_38 
DOCKED: USER                              x       y       z     vdW  Elec       q    Type
DOCKED: USER                           _______ _______ _______ _____ _____    ______ ____
DOCKED: ROOT
DOCKED: ATOM      1  C   UNL d   1     -11.343   2.561   2.503 -0.32 +0.02    +0.064 C 
DOCKED: ATOM      2  C   UNL d   1      -8.471  -0.634   0.059 -0.37 +0.01    +0.064 A 
DOCKED: ATOM      3  C   UNL d   1      -5.119   2.784  -0.331 -0.43 +0.01    +0.064 C 
DOCKED: ATOM      4  C   UNL d   1      -7.925   5.923   1.941 -0.51 +0.01    +0.064 C 
DOCKED: ATOM      5  C   UNL d   1     -10.879   1.370   1.778 -0.33 +0.02    +0.066 A 
DOCKED: ATOM      6  C   UNL d   1     -11.629   0.221   1.582 -0.34 -0.01    -0.021 A 
DOCKED: ATOM      7  C   UNL d   1     -10.829  -0.667   0.907 -0.30 -0.01    -0.025 A 
DOCKED: ATOM      8  C   UNL d   1      -9.621  -0.025   0.716 -0.32 +0.02    +0.066 A 
DOCKED: ATOM      9  C   UNL d   1     -11.220  -2.042   0.458 -0.14 +0.03    +0.051 C 
DOCKED: ATOM     10  C   UNL d   1      -7.313  -0.018  -0.189 -0.40 +0.01    +0.066 A 
DOCKED: ATOM     11  C   UNL d   1      -6.191  -0.661  -0.717 -0.44 -0.00    -0.021 A 
DOCKED: ATOM     12  C   UNL d   1      -5.205   0.299  -0.823 -0.33 +0.00    +0.000 A 
DOCKED: ATOM     13  C   UNL d   1      -5.780   1.489  -0.343 -0.39 +0.01    +0.070 A 
DOCKED: ATOM     14  C   UNL d   1      -6.043  -2.134  -1.039 -0.17 +0.00    +0.052 C 
DOCKED: ATOM     15  C   UNL d   1      -5.650   3.921   0.178 -0.38 +0.01    +0.066 A 
DOCKED: ATOM     16  C   UNL d   1      -5.027   5.159   0.081 -0.47 -0.00    -0.021 A 
DOCKED: ATOM     17  C   UNL d   1      -5.833   6.065   0.738 -0.50 +0.00    +0.000 A 
DOCKED: ATOM     18  C   UNL d   1      -6.929   5.357   1.226 -0.41 +0.01    +0.070 A 
DOCKED: ATOM     19  C   UNL d   1      -3.713   5.476  -0.582 -0.50 +0.01    +0.052 C 
DOCKED: ATOM     20  C   UNL d   1      -9.124   5.222   2.417 -0.44 +0.01    +0.066 A 
DOCKED: ATOM     21  C   UNL d   1     -10.060   5.741   3.322 -0.48 -0.00    -0.025 A 
DOCKED: ATOM     22  C   UNL d   1     -11.032   4.772   3.458 -0.28 -0.00    -0.021 A 
DOCKED: ATOM     23  C   UNL d   1     -10.649   3.702   2.640 -0.24 +0.01    +0.066 A 
DOCKED: ATOM     24  C   UNL d   1     -10.048   7.076   4.030 +0.34 -0.01    +0.051 C 
DOCKED: ATOM     25  N   UNL d   1      -9.658   1.217   1.238 -0.20 -0.08    -0.248 N 
DOCKED: ATOM     26  N   UNL d   1      -7.062   1.294   0.052 -0.26 -0.04    -0.248 N 
DOCKED: ATOM     27  N   UNL d   1      -6.839   4.047   0.845 -0.24 -0.05    -0.248 N 
DOCKED: ATOM     28  N   UNL d   1      -9.461   3.964   2.043 -0.24 -0.06    -0.248 N 
DOCKED: ATOM     29 FE   UNL d   1      -8.261   2.631   1.048 -0.09 +0.00    +0.000 Fe
DOCKED: ENDROOT
DOCKED: BRANCH   6  30
DOCKED: ATOM     30  C   UNL d   1     -13.041  -0.015   1.997 -0.22 +0.05    +0.052 C 
DOCKED: BRANCH  30  31
DOCKED: ATOM     31  C   UNL d   1     -13.390   0.816   3.227 -0.20 +0.09    +0.115 C 
DOCKED: BRANCH  31  32
DOCKED: ATOM     32  C   UNL d   1     -13.522  -0.066   4.437 +0.26 +0.21    +0.139 C 
DOCKED: ATOM     33  O   UNL d   1     -14.610  -0.522   4.760 -0.04 -0.80    -0.650 OA
DOCKED: BRANCH  32  34
DOCKED: ATOM     34  O   UNL d   1     -12.441  -0.361   5.178 -0.41 -1.25    -0.776 OA
DOCKED: ATOM     35  H   UNL d   1     -12.139   0.274   5.842 +0.04 +0.14    +0.167 HD
DOCKED: ENDBRANCH  32  34
DOCKED: ENDBRANCH  31  32
DOCKED: ENDBRANCH  30  31
DOCKED: ENDBRANCH   6  30
DOCKED: BRANCH  22  36
DOCKED: ATOM     36  C   UNL d   1     -12.234   4.852   4.362 -0.27 +0.00    +0.052 C 
DOCKED: BRANCH  36  37
DOCKED: ATOM     37  C   UNL d   1     -11.812   4.594   5.801 -0.30 +0.01    +0.115 C 
DOCKED: BRANCH  37  38
DOCKED: ATOM     38  C   UNL d   1     -10.905   3.400   5.891 -0.19 +0.01    +0.139 C 
DOCKED: ATOM     39  O   UNL d   1      -9.692   3.529   5.814 +0.21 +0.00    -0.650 OA
DOCKED: BRANCH  38  40
DOCKED: ATOM     40  O   UNL d   1     -11.428   2.171   6.055 +0.21 -0.20    -0.776 OA
DOCKED: ATOM     41  H   UNL d   1     -11.710   1.673   5.275 +0.06 +0.07    +0.167 HD
DOCKED: ENDBRANCH  38  40
DOCKED: ENDBRANCH  37  38
DOCKED: ENDBRANCH  36  37
DOCKED: ENDBRANCH  22  36
DOCKED: BRANCH  12  42
DOCKED: ATOM     42  C   UNL d   1      -3.821   0.053  -1.334 -0.33 +0.00    +0.004 C 
DOCKED: ATOM     43  C   UNL d   1      -3.256   0.882  -2.221 -0.52 +0.00    +0.012 C 
DOCKED: ENDBRANCH  12  42
DOCKED: BRANCH  17  44
DOCKED: ATOM     44  C   UNL d   1      -5.581   7.518   0.873 -0.54 +0.00    +0.004 C 
DOCKED: ATOM     45  C   UNL d   1      -5.000   8.013   1.971 -0.71 +0.00    +0.012 C 
DOCKED: ENDBRANCH  17  44
DOCKED: TORSDOF 10
DOCKED: TER
DOCKED: ENDMDL
________________________________________________________________________________


	BEGINNING GENETIC ALGORITHM DOCKING 72 of 100
Run: 72 Seed: 1552319536 1597364557 [ Run 72 of 100 GA/GALS ]
Beginning LAMARCKIAN GENETIC ALGORITHM (LGA), with a maximum of 25000000 energy evaluations.

Final-Value: -16.523


	FINAL GENETIC ALGORITHM DOCKED STATE
	_______________________________________________


Detailed state:  trans -9.075 1.664 1.760 quatxyzw 0.935739 0.124834 -0.260152 0.202803 center -0.174 -0.001 -0.047 ntor 10 22.6416 -179.8847 22.6904 -121.1459 -60.9489 -45.2550 46.0965 1.6308 -25.3363 102.7140
State:	 -9.075   1.664   1.760   0.956  0.127 -0.266 156.598     22.64 -179.88   22.69 -121.15  -60.95  -45.25   46.10    1.63  -25.34  102.71

DOCKED: MODEL       72
DOCKED: USER    Run = 72
DOCKED: USER    DPF = D:/Protein_go_brrr/autodock/final/mut_D99N/heme_Fe/dock.dpf
DOCKED: USER  
DOCKED: USER    Estimated Free Energy of Binding    =  -12.00 kcal/mol  [=(1)+(2)+(3)-(4)]
DOCKED: USER    Estimated Inhibition Constant, Ki   =    1.60 nM (nanomolar)  [Temperature = 298.15 K]
DOCKED: USER    
DOCKED: USER    (1) Final Intermolecular Energy     =  -14.98 kcal/mol
DOCKED: USER        vdW + Hbond + desolv Energy     =  -13.13 kcal/mol
DOCKED: USER        Electrostatic Energy            =   -1.85 kcal/mol
DOCKED: USER    (2) Final Total Internal Energy     =   -1.54 kcal/mol
DOCKED: USER    (3) Torsional Free Energy           =   +2.98 kcal/mol
DOCKED: USER    (4) Unbound System's Energy  [=(2)] =   -1.54 kcal/mol
DOCKED: USER    
DOCKED: USER    
DOCKED: USER    NEWDPF move heme_Fe_opt.pdbqt
DOCKED: USER    NEWDPF about -0.174000 -0.001000 -0.047000
DOCKED: USER    NEWDPF tran0 -9.075319 1.664108 1.759685
DOCKED: USER    NEWDPF quaternion0 0.935739 0.124834 -0.260152 0.202803
DOCKED: USER    NEWDPF axisangle0 0.955597 0.127484 -0.265673 156.598128
DOCKED: USER    NEWDPF quat0 0.955597 0.127484 -0.265673 156.598128
DOCKED: USER    NEWDPF dihe0 22.64 -179.88 22.69 -121.15 -60.95 -45.25 46.10 1.63 -25.34 102.71 
DOCKED: USER  keepresnum = 1 
DOCKED: USER  
DOCKED: REMARK  10 active torsions:
DOCKED: REMARK  status: ('A' for Active; 'I' for Inactive)
DOCKED: REMARK    1  A    between atoms: C_6  and  C_10 
DOCKED: REMARK    2  A    between atoms: C_10  and  C_11 
DOCKED: REMARK    3  A    between atoms: C_11  and  C_12 
DOCKED: REMARK    4  A    between atoms: C_12  and  O_14 
DOCKED: REMARK    5  A    between atoms: C_17  and  C_20 
DOCKED: REMARK    6  A    between atoms: C_24  and  C_27 
DOCKED: REMARK    7  A    between atoms: C_31  and  C_34 
DOCKED: REMARK    8  A    between atoms: C_34  and  C_35 
DOCKED: REMARK    9  A    between atoms: C_35  and  C_36 
DOCKED: REMARK   10  A    between atoms: C_36  and  O_38 
DOCKED: USER                              x       y       z     vdW  Elec       q    Type
DOCKED: USER                           _______ _______ _______ _____ _____    ______ ____
DOCKED: ROOT
DOCKED: ATOM      1  C   UNL d   1     -11.020   1.212   2.234 -0.30 +0.03    +0.064 C 
DOCKED: ATOM      2  C   UNL d   1      -8.298   5.337   2.270 -0.44 +0.01    +0.064 A 
DOCKED: ATOM      3  C   UNL d   1      -5.011   3.110  -0.432 -0.43 +0.01    +0.064 C 
DOCKED: ATOM      4  C   UNL d   1      -7.580  -0.926  -0.392 -0.43 +0.01    +0.064 C 
DOCKED: ATOM      5  C   UNL d   1     -10.519   2.553   2.565 -0.11 +0.02    +0.066 A 
DOCKED: ATOM      6  C   UNL d   1     -11.149   3.445   3.417 -0.28 -0.00    -0.021 A 
DOCKED: ATOM      7  C   UNL d   1     -10.395   4.591   3.424 -0.40 -0.00    -0.025 A 
DOCKED: ATOM      8  C   UNL d   1      -9.331   4.355   2.574 -0.40 +0.01    +0.066 A 
DOCKED: ATOM      9  C   UNL d   1     -10.677   5.829   4.219 -0.46 -0.00    +0.051 C 
DOCKED: ATOM     10  C   UNL d   1      -7.231   5.116   1.500 -0.41 +0.01    +0.066 A 
DOCKED: ATOM     11  C   UNL d   1      -6.320   6.110   1.135 -0.47 -0.00    -0.021 A 
DOCKED: ATOM     12  C   UNL d   1      -5.371   5.497   0.342 -0.49 +0.00    +0.000 A 
DOCKED: ATOM     13  C   UNL d   1      -5.761   4.149   0.256 -0.38 +0.01    +0.070 A 
DOCKED: ATOM     14  C   UNL d   1      -6.387   7.586   1.469 -0.57 +0.01    +0.052 C 
DOCKED: ATOM     15  C   UNL d   1      -5.409   1.822  -0.561 -0.39 +0.01    +0.066 A 
DOCKED: ATOM     16  C   UNL d   1      -4.617   0.838  -1.139 -0.38 -0.00    -0.021 A 
DOCKED: ATOM     17  C   UNL d   1      -5.358  -0.326  -1.132 -0.41 +0.00    +0.000 A 
DOCKED: ATOM     18  C   UNL d   1      -6.588  -0.023  -0.552 -0.40 +0.01    +0.070 A 
DOCKED: ATOM     19  C   UNL d   1      -3.229   0.988  -1.700 -0.32 +0.00    +0.052 C 
DOCKED: ATOM     20  C   UNL d   1      -8.863  -0.658   0.268 -0.34 +0.02    +0.066 A 
DOCKED: ATOM     21  C   UNL d   1      -9.971  -1.518   0.264 +0.01 -0.01    -0.025 A 
DOCKED: ATOM     22  C   UNL d   1     -10.935  -0.895   1.029 -0.29 -0.01    -0.021 A 
DOCKED: ATOM     23  C   UNL d   1     -10.383   0.317   1.462 -0.35 +0.03    +0.066 A 
DOCKED: ATOM     24  C   UNL d   1     -10.125  -2.855  -0.423 -0.16 +0.02    +0.051 C 
DOCKED: ATOM     25  N   UNL d   1      -9.405   3.111   2.061 -0.18 -0.08    -0.248 N 
DOCKED: ATOM     26  N   UNL d   1      -6.900   3.918   0.954 -0.23 -0.06    -0.248 N 
DOCKED: ATOM     27  N   UNL d   1      -6.604   1.287  -0.161 -0.26 -0.03    -0.248 N 
DOCKED: ATOM     28  N   UNL d   1      -9.135   0.476   0.958 -0.26 -0.07    -0.248 N 
DOCKED: ATOM     29 FE   UNL d   1      -8.017   2.196   0.955 -0.09 +0.00    +0.000 Fe
DOCKED: ENDROOT
DOCKED: BRANCH   6  30
DOCKED: ATOM     30  C   UNL d   1     -12.394   3.213   4.204 -0.24 +0.01    +0.052 C 
DOCKED: BRANCH  30  31
DOCKED: ATOM     31  C   UNL d   1     -12.186   2.107   5.233 -0.15 +0.04    +0.115 C 
DOCKED: BRANCH  31  32
DOCKED: ATOM     32  C   UNL d   1     -13.338   1.142   5.208 -0.13 +0.09    +0.139 C 
DOCKED: ATOM     33  O   UNL d   1     -14.473   1.520   5.460 +0.04 -0.28    -0.650 OA
DOCKED: BRANCH  32  34
DOCKED: ATOM     34  O   UNL d   1     -13.128  -0.151   4.907 -0.37 -1.19    -0.776 OA
DOCKED: ATOM     35  H   UNL d   1     -13.866  -0.681   4.574 +0.03 +0.34    +0.167 HD
DOCKED: ENDBRANCH  32  34
DOCKED: ENDBRANCH  31  32
DOCKED: ENDBRANCH  30  31
DOCKED: ENDBRANCH   6  30
DOCKED: BRANCH  22  36
DOCKED: ATOM     36  C   UNL d   1     -12.325  -1.414   1.287 +0.15 +0.06    +0.052 C 
DOCKED: BRANCH  36  37
DOCKED: ATOM     37  C   UNL d   1     -13.225  -0.272   1.734 -0.13 +0.12    +0.115 C 
DOCKED: BRANCH  37  38
DOCKED: ATOM     38  C   UNL d   1     -14.617  -0.762   2.018 -0.05 +0.16    +0.139 C 
DOCKED: ATOM     39  O   UNL d   1     -15.181  -1.525   1.247 -0.17 -0.54    -0.650 OA
DOCKED: BRANCH  38  40
DOCKED: ATOM     40  O   UNL d   1     -15.256  -0.359   3.130 +0.01 -0.71    -0.776 OA
DOCKED: ATOM     41  H   UNL d   1     -14.807   0.245   3.738 +0.03 +0.14    +0.167 HD
DOCKED: ENDBRANCH  38  40
DOCKED: ENDBRANCH  37  38
DOCKED: ENDBRANCH  36  37
DOCKED: ENDBRANCH  22  36
DOCKED: BRANCH  12  42
DOCKED: ATOM     42  C   UNL d   1      -4.202   6.189  -0.285 -0.65 +0.00    +0.004 C 
DOCKED: ATOM     43  C   UNL d   1      -3.179   6.625   0.460 -0.52 +0.00    +0.012 C 
DOCKED: ENDBRANCH  12  42
DOCKED: BRANCH  17  44
DOCKED: ATOM     44  C   UNL d   1      -4.910  -1.647  -1.628 -0.61 -0.00    +0.004 C 
DOCKED: ATOM     45  C   UNL d   1      -4.689  -1.850  -2.931 -0.71 +0.00    +0.012 C 
DOCKED: ENDBRANCH  17  44
DOCKED: TORSDOF 10
DOCKED: TER
DOCKED: ENDMDL
________________________________________________________________________________


	BEGINNING GENETIC ALGORITHM DOCKING 73 of 100
Run: 73 Seed: 1398548830 795437687 [ Run 73 of 100 GA/GALS ]
Beginning LAMARCKIAN GENETIC ALGORITHM (LGA), with a maximum of 25000000 energy evaluations.

Final-Value: -9.336


	FINAL GENETIC ALGORITHM DOCKED STATE
	_______________________________________________


Detailed state:  trans 7.514 13.664 5.988 quatxyzw -0.456865 -0.460663 -0.758018 0.066877 center -0.174 -0.001 -0.047 ntor 10 -135.2683 -17.3116 27.2589 -165.0336 -85.0348 37.1982 -6.9164 -64.2652 -41.9180 1.3419
State:	  7.514  13.664   5.988  -0.458 -0.462 -0.760 172.331   -135.27  -17.31   27.26 -165.03  -85.03   37.20   -6.92  -64.27  -41.92    1.34

DOCKED: MODEL       73
DOCKED: USER    Run = 73
DOCKED: USER    DPF = D:/Protein_go_brrr/autodock/final/mut_D99N/heme_Fe/dock.dpf
DOCKED: USER  
DOCKED: USER    Estimated Free Energy of Binding    =   -4.25 kcal/mol  [=(1)+(2)+(3)-(4)]
DOCKED: USER    Estimated Inhibition Constant, Ki   =  772.68 uM (micromolar)  [Temperature = 298.15 K]
DOCKED: USER    
DOCKED: USER    (1) Final Intermolecular Energy     =   -7.23 kcal/mol
DOCKED: USER        vdW + Hbond + desolv Energy     =   -6.97 kcal/mol
DOCKED: USER        Electrostatic Energy            =   -0.26 kcal/mol
DOCKED: USER    (2) Final Total Internal Energy     =   -2.11 kcal/mol
DOCKED: USER    (3) Torsional Free Energy           =   +2.98 kcal/mol
DOCKED: USER    (4) Unbound System's Energy  [=(2)] =   -2.11 kcal/mol
DOCKED: USER    
DOCKED: USER    
DOCKED: USER    NEWDPF move heme_Fe_opt.pdbqt
DOCKED: USER    NEWDPF about -0.174000 -0.001000 -0.047000
DOCKED: USER    NEWDPF tran0 7.514409 13.664037 5.988486
DOCKED: USER    NEWDPF quaternion0 -0.456865 -0.460663 -0.758018 0.066877
DOCKED: USER    NEWDPF axisangle0 -0.457890 -0.461697 -0.759719 172.330741
DOCKED: USER    NEWDPF quat0 -0.457890 -0.461697 -0.759719 172.330741
DOCKED: USER    NEWDPF dihe0 -135.27 -17.31 27.26 -165.03 -85.03 37.20 -6.92 -64.27 -41.92 1.34 
DOCKED: USER  keepresnum = 1 
DOCKED: USER  
DOCKED: REMARK  10 active torsions:
DOCKED: REMARK  status: ('A' for Active; 'I' for Inactive)
DOCKED: REMARK    1  A    between atoms: C_6  and  C_10 
DOCKED: REMARK    2  A    between atoms: C_10  and  C_11 
DOCKED: REMARK    3  A    between atoms: C_11  and  C_12 
DOCKED: REMARK    4  A    between atoms: C_12  and  O_14 
DOCKED: REMARK    5  A    between atoms: C_17  and  C_20 
DOCKED: REMARK    6  A    between atoms: C_24  and  C_27 
DOCKED: REMARK    7  A    between atoms: C_31  and  C_34 
DOCKED: REMARK    8  A    between atoms: C_34  and  C_35 
DOCKED: REMARK    9  A    between atoms: C_35  and  C_36 
DOCKED: REMARK   10  A    between atoms: C_36  and  O_38 
DOCKED: USER                              x       y       z     vdW  Elec       q    Type
DOCKED: USER                           _______ _______ _______ _____ _____    ______ ____
DOCKED: ROOT
DOCKED: ATOM      1  C   UNL d   1       9.033  13.002   4.778 -0.18 -0.00    +0.064 C 
DOCKED: ATOM      2  C   UNL d   1       5.730  16.670   4.526 -0.21 -0.00    +0.064 A 
DOCKED: ATOM      3  C   UNL d   1       4.798  16.059   9.198 -0.13 -0.00    +0.064 C 
DOCKED: ATOM      4  C   UNL d   1       7.914  12.437   9.439 -0.28 -0.00    +0.064 C 
DOCKED: ATOM      5  C   UNL d   1       8.129  14.035   4.254 -0.22 -0.00    +0.066 A 
DOCKED: ATOM      6  C   UNL d   1       8.035  14.402   2.922 -0.20 +0.00    -0.021 A 
DOCKED: ATOM      7  C   UNL d   1       7.120  15.423   2.853 -0.21 +0.00    -0.025 A 
DOCKED: ATOM      8  C   UNL d   1       6.690  15.641   4.148 -0.23 -0.00    +0.066 A 
DOCKED: ATOM      9  C   UNL d   1       6.677  16.130   1.609 -0.18 +0.00    +0.051 C 
DOCKED: ATOM     10  C   UNL d   1       5.255  16.862   5.758 -0.23 -0.00    +0.066 A 
DOCKED: ATOM     11  C   UNL d   1       4.424  17.928   6.111 -0.19 -0.00    -0.021 A 
DOCKED: ATOM     12  C   UNL d   1       4.155  17.784   7.457 -0.15 +0.00    +0.000 A 
DOCKED: ATOM     13  C   UNL d   1       4.849  16.631   7.862 -0.12 -0.00    +0.070 A 
DOCKED: ATOM     14  C   UNL d   1       3.964  19.068   5.224 -0.15 +0.00    +0.052 C 
DOCKED: ATOM     15  C   UNL d   1       5.506  14.979   9.607 -0.22 -0.01    +0.066 A 
DOCKED: ATOM     16  C   UNL d   1       5.354  14.403  10.861 -0.21 +0.00    -0.021 A 
DOCKED: ATOM     17  C   UNL d   1       6.254  13.360  10.934 -0.22 -0.00    +0.000 A 
DOCKED: ATOM     18  C   UNL d   1       6.938  13.327   9.721 -0.23 -0.01    +0.070 A 
DOCKED: ATOM     19  C   UNL d   1       4.418  14.830  11.961 -0.19 -0.01    +0.052 C 
DOCKED: ATOM     20  C   UNL d   1       8.613  12.332   8.152 -0.22 -0.00    +0.066 A 
DOCKED: ATOM     21  C   UNL d   1       9.755  11.555   7.911 -0.15 -0.00    -0.025 A 
DOCKED: ATOM     22  C   UNL d   1      10.049  11.721   6.574 -0.14 -0.00    -0.021 A 
DOCKED: ATOM     23  C   UNL d   1       9.084  12.593   6.056 -0.14 -0.00    +0.066 A 
DOCKED: ATOM     24  C   UNL d   1      10.537  10.702   8.882 -0.09 +0.00    +0.051 C 
DOCKED: ATOM     25  N   UNL d   1       7.299  14.788   4.997 -0.15 +0.04    -0.248 N 
DOCKED: ATOM     26  N   UNL d   1       5.527  16.074   6.829 -0.17 +0.02    -0.248 N 
DOCKED: ATOM     27  N   UNL d   1       6.449  14.294   8.888 -0.19 +0.04    -0.248 N 
DOCKED: ATOM     28  N   UNL d   1       8.237  12.998   7.034 -0.18 +0.02    -0.248 N 
DOCKED: ATOM     29 FE   UNL d   1       6.883  14.535   6.933 -0.06 -0.00    +0.000 Fe
DOCKED: ENDROOT
DOCKED: BRANCH   6  30
DOCKED: ATOM     30  C   UNL d   1       8.760  13.800   1.767 -0.16 +0.00    +0.052 C 
DOCKED: BRANCH  30  31
DOCKED: ATOM     31  C   UNL d   1       8.682  12.278   1.814 -0.14 +0.01    +0.115 C 
DOCKED: BRANCH  31  32
DOCKED: ATOM     32  C   UNL d   1       9.269  11.683   0.565 -0.07 +0.03    +0.139 C 
DOCKED: ATOM     33  O   UNL d   1       8.587  11.552  -0.442 -0.46 -0.30    -0.650 OA
DOCKED: BRANCH  32  34
DOCKED: ATOM     34  O   UNL d   1      10.553  11.287   0.544 +0.02 -0.07    -0.776 OA
DOCKED: ATOM     35  H   UNL d   1      10.900  10.779   1.291 +0.02 +0.01    +0.167 HD
DOCKED: ENDBRANCH  32  34
DOCKED: ENDBRANCH  31  32
DOCKED: ENDBRANCH  30  31
DOCKED: ENDBRANCH   6  30
DOCKED: BRANCH  22  36
DOCKED: ATOM     36  C   UNL d   1      11.220  11.114   5.849 -0.08 +0.00    +0.052 C 
DOCKED: BRANCH  36  37
DOCKED: ATOM     37  C   UNL d   1      10.773   9.862   5.108 -0.11 +0.01    +0.115 C 
DOCKED: BRANCH  37  38
DOCKED: ATOM     38  C   UNL d   1      10.895  10.043   3.621 -0.09 +0.01    +0.139 C 
DOCKED: ATOM     39  O   UNL d   1      11.829  10.671   3.143 +0.01 -0.02    -0.650 OA
DOCKED: BRANCH  38  40
DOCKED: ATOM     40  O   UNL d   1       9.969   9.515   2.802 +0.02 -0.02    -0.776 OA
DOCKED: ATOM     41  H   UNL d   1       9.904   9.840   1.894 +0.03 +0.01    +0.167 HD
DOCKED: ENDBRANCH  38  40
DOCKED: ENDBRANCH  37  38
DOCKED: ENDBRANCH  36  37
DOCKED: ENDBRANCH  22  36
DOCKED: BRANCH  12  42
DOCKED: ATOM     42  C   UNL d   1       3.306  18.714   8.264 -0.13 +0.00    +0.004 C 
DOCKED: ATOM     43  C   UNL d   1       1.971  18.702   8.153 -0.16 +0.00    +0.012 C 
DOCKED: ENDBRANCH  12  42
DOCKED: BRANCH  17  44
DOCKED: ATOM     44  C   UNL d   1       6.434  12.442  12.082 -0.25 -0.00    +0.004 C 
DOCKED: ATOM     45  C   UNL d   1       7.548  12.478  12.820 -0.18 -0.00    +0.012 C 
DOCKED: ENDBRANCH  17  44
DOCKED: TORSDOF 10
DOCKED: TER
DOCKED: ENDMDL
________________________________________________________________________________


	BEGINNING GENETIC ALGORITHM DOCKING 74 of 100
Run: 74 Seed: 1957605396 1091217285 [ Run 74 of 100 GA/GALS ]
Beginning LAMARCKIAN GENETIC ALGORITHM (LGA), with a maximum of 25000000 energy evaluations.

Final-Value: -15.674


	FINAL GENETIC ALGORITHM DOCKED STATE
	_______________________________________________


Detailed state:  trans -9.305 2.498 1.160 quatxyzw -0.175784 -0.168403 0.004729 0.969906 center -0.174 -0.001 -0.047 ntor 10 -170.0390 -54.7479 68.9539 -150.8655 5.6578 138.1180 4.7199 71.0701 -116.1551 -169.6892
State:	 -9.305   2.498   1.160  -0.722 -0.692  0.019 28.184   -170.04  -54.75   68.95 -150.87    5.66  138.12    4.72   71.07 -116.16 -169.69

DOCKED: MODEL       74
DOCKED: USER    Run = 74
DOCKED: USER    DPF = D:/Protein_go_brrr/autodock/final/mut_D99N/heme_Fe/dock.dpf
DOCKED: USER  
DOCKED: USER    Estimated Free Energy of Binding    =  -11.44 kcal/mol  [=(1)+(2)+(3)-(4)]
DOCKED: USER    Estimated Inhibition Constant, Ki   =    4.09 nM (nanomolar)  [Temperature = 298.15 K]
DOCKED: USER    
DOCKED: USER    (1) Final Intermolecular Energy     =  -14.43 kcal/mol
DOCKED: USER        vdW + Hbond + desolv Energy     =  -12.99 kcal/mol
DOCKED: USER        Electrostatic Energy            =   -1.44 kcal/mol
DOCKED: USER    (2) Final Total Internal Energy     =   -1.25 kcal/mol
DOCKED: USER    (3) Torsional Free Energy           =   +2.98 kcal/mol
DOCKED: USER    (4) Unbound System's Energy  [=(2)] =   -1.25 kcal/mol
DOCKED: USER    
DOCKED: USER    
DOCKED: USER    NEWDPF move heme_Fe_opt.pdbqt
DOCKED: USER    NEWDPF about -0.174000 -0.001000 -0.047000
DOCKED: USER    NEWDPF tran0 -9.304959 2.498130 1.159949
DOCKED: USER    NEWDPF quaternion0 -0.175784 -0.168403 0.004729 0.969906
DOCKED: USER    NEWDPF axisangle0 -0.721968 -0.691654 0.019423 28.183925
DOCKED: USER    NEWDPF quat0 -0.721968 -0.691654 0.019423 28.183925
DOCKED: USER    NEWDPF dihe0 -170.04 -54.75 68.95 -150.87 5.66 138.12 4.72 71.07 -116.16 -169.69 
DOCKED: USER  keepresnum = 1 
DOCKED: USER  
DOCKED: REMARK  10 active torsions:
DOCKED: REMARK  status: ('A' for Active; 'I' for Inactive)
DOCKED: REMARK    1  A    between atoms: C_6  and  C_10 
DOCKED: REMARK    2  A    between atoms: C_10  and  C_11 
DOCKED: REMARK    3  A    between atoms: C_11  and  C_12 
DOCKED: REMARK    4  A    between atoms: C_12  and  O_14 
DOCKED: REMARK    5  A    between atoms: C_17  and  C_20 
DOCKED: REMARK    6  A    between atoms: C_24  and  C_27 
DOCKED: REMARK    7  A    between atoms: C_31  and  C_34 
DOCKED: REMARK    8  A    between atoms: C_34  and  C_35 
DOCKED: REMARK    9  A    between atoms: C_35  and  C_36 
DOCKED: REMARK   10  A    between atoms: C_36  and  O_38 
DOCKED: USER                              x       y       z     vdW  Elec       q    Type
DOCKED: USER                           _______ _______ _______ _____ _____    ______ ____
DOCKED: ROOT
DOCKED: ATOM      1  C   UNL d   1     -11.005   2.161   2.259 -0.33 +0.02    +0.064 C 
DOCKED: ATOM      2  C   UNL d   1      -7.850  -0.709  -0.239 -0.36 +0.01    +0.064 A 
DOCKED: ATOM      3  C   UNL d   1      -4.736   2.945  -0.368 -0.33 +0.01    +0.064 C 
DOCKED: ATOM      4  C   UNL d   1      -7.816   5.772   1.957 -0.50 +0.01    +0.064 C 
DOCKED: ATOM      5  C   UNL d   1     -10.439   1.041   1.495 -0.32 +0.02    +0.066 A 
DOCKED: ATOM      6  C   UNL d   1     -11.102  -0.145   1.224 -0.34 -0.01    -0.021 A 
DOCKED: ATOM      7  C   UNL d   1     -10.224  -0.943   0.533 -0.11 -0.01    -0.025 A 
DOCKED: ATOM      8  C   UNL d   1      -9.058  -0.213   0.409 -0.34 +0.02    +0.066 A 
DOCKED: ATOM      9  C   UNL d   1     -10.504  -2.319   0.010 -0.06 +0.02    +0.051 C 
DOCKED: ATOM     10  C   UNL d   1      -6.732  -0.004  -0.423 -0.40 +0.01    +0.066 A 
DOCKED: ATOM     11  C   UNL d   1      -5.554  -0.543  -0.945 -0.40 -0.00    -0.021 A 
DOCKED: ATOM     12  C   UNL d   1      -4.635   0.486  -0.976 -0.28 +0.00    +0.000 A 
DOCKED: ATOM     13  C   UNL d   1      -5.304   1.609  -0.460 -0.37 +0.01    +0.070 A 
DOCKED: ATOM     14  C   UNL d   1      -5.294  -1.985  -1.330 -0.46 -0.00    +0.052 C 
DOCKED: ATOM     15  C   UNL d   1      -5.358   4.017   0.176 -0.39 +0.01    +0.066 A 
DOCKED: ATOM     16  C   UNL d   1      -4.821   5.298   0.154 -0.50 -0.00    -0.021 A 
DOCKED: ATOM     17  C   UNL d   1      -5.706   6.114   0.828 -0.50 +0.00    +0.000 A 
DOCKED: ATOM     18  C   UNL d   1      -6.762   5.310   1.248 -0.41 +0.01    +0.070 A 
DOCKED: ATOM     19  C   UNL d   1      -3.514   5.735  -0.452 -0.48 +0.00    +0.052 C 
DOCKED: ATOM     20  C   UNL d   1      -8.975   4.969   2.364 -0.43 +0.01    +0.066 A 
DOCKED: ATOM     21  C   UNL d   1      -9.970   5.379   3.262 -0.47 -0.00    -0.025 A 
DOCKED: ATOM     22  C   UNL d   1     -10.875   4.340   3.324 -0.31 -0.00    -0.021 A 
DOCKED: ATOM     23  C   UNL d   1     -10.396   3.339   2.470 -0.31 +0.01    +0.066 A 
DOCKED: ATOM     24  C   UNL d   1     -10.070   6.677   4.030 -0.30 -0.00    +0.051 C 
DOCKED: ATOM     25  N   UNL d   1      -9.196   0.998   0.987 -0.20 -0.07    -0.248 N 
DOCKED: ATOM     26  N   UNL d   1      -6.580   1.309  -0.114 -0.26 -0.03    -0.248 N 
DOCKED: ATOM     27  N   UNL d   1      -6.571   4.029   0.811 -0.25 -0.05    -0.248 N 
DOCKED: ATOM     28  N   UNL d   1      -9.213   3.710   1.922 -0.16 -0.08    -0.248 N 
DOCKED: ATOM     29 FE   UNL d   1      -7.897   2.511   0.904 -0.09 +0.00    +0.000 Fe
DOCKED: ENDROOT
DOCKED: BRANCH   6  30
DOCKED: ATOM     30  C   UNL d   1     -12.505  -0.497   1.583 -0.23 +0.05    +0.052 C 
DOCKED: BRANCH  30  31
DOCKED: ATOM     31  C   UNL d   1     -12.955   0.271   2.821 -0.12 +0.13    +0.115 C 
DOCKED: BRANCH  31  32
DOCKED: ATOM     32  C   UNL d   1     -14.327  -0.172   3.246 +0.02 +0.17    +0.139 C 
DOCKED: ATOM     33  O   UNL d   1     -14.881  -1.107   2.685 -0.12 -0.96    -0.650 OA
DOCKED: BRANCH  32  34
DOCKED: ATOM     34  O   UNL d   1     -14.958   0.457   4.251 +0.03 -0.55    -0.776 OA
DOCKED: ATOM     35  H   UNL d   1     -14.587   1.282   4.596 +0.03 +0.08    +0.167 HD
DOCKED: ENDBRANCH  32  34
DOCKED: ENDBRANCH  31  32
DOCKED: ENDBRANCH  30  31
DOCKED: ENDBRANCH   6  30
DOCKED: BRANCH  22  36
DOCKED: ATOM     36  C   UNL d   1     -12.104   4.294   4.192 -0.27 +0.01    +0.052 C 
DOCKED: BRANCH  36  37
DOCKED: ATOM     37  C   UNL d   1     -11.699   4.093   5.645 -0.29 +0.01    +0.115 C 
DOCKED: BRANCH  37  38
DOCKED: ATOM     38  C   UNL d   1     -12.078   2.721   6.125 -0.21 +0.03    +0.139 C 
DOCKED: ATOM     39  O   UNL d   1     -11.313   2.068   6.820 -0.00 -0.16    -0.650 OA
DOCKED: BRANCH  38  40
DOCKED: ATOM     40  O   UNL d   1     -13.270   2.197   5.787 +0.07 -0.26    -0.776 OA
DOCKED: ATOM     41  H   UNL d   1     -13.297   1.335   5.350 +0.04 +0.09    +0.167 HD
DOCKED: ENDBRANCH  38  40
DOCKED: ENDBRANCH  37  38
DOCKED: ENDBRANCH  36  37
DOCKED: ENDBRANCH  22  36
DOCKED: BRANCH  12  42
DOCKED: ATOM     42  C   UNL d   1      -3.223   0.360  -1.455 -0.38 +0.00    +0.004 C 
DOCKED: ATOM     43  C   UNL d   1      -2.794   1.042  -2.525 -0.56 +0.00    +0.012 C 
DOCKED: ENDBRANCH  12  42
DOCKED: BRANCH  17  44
DOCKED: ATOM     44  C   UNL d   1      -5.560   7.573   1.037 -0.60 +0.00    +0.004 C 
DOCKED: ATOM     45  C   UNL d   1      -5.055   8.054   2.177 -0.71 +0.00    +0.012 C 
DOCKED: ENDBRANCH  17  44
DOCKED: TORSDOF 10
DOCKED: TER
DOCKED: ENDMDL
________________________________________________________________________________


	BEGINNING GENETIC ALGORITHM DOCKING 75 of 100
Run: 75 Seed: 1031718586 1879867464 [ Run 75 of 100 GA/GALS ]
Beginning LAMARCKIAN GENETIC ALGORITHM (LGA), with a maximum of 25000000 energy evaluations.

Final-Value: -12.074


	FINAL GENETIC ALGORITHM DOCKED STATE
	_______________________________________________


Detailed state:  trans 5.479 -1.108 -17.971 quatxyzw -0.823130 -0.030589 0.030519 -0.566207 center -0.174 -0.001 -0.047 ntor 10 -132.8958 -52.1012 55.6867 20.4938 32.3166 180.0000 -19.0592 67.6124 -173.1212 162.5902
State:	  5.479  -1.108 -17.971  -0.999 -0.037  0.037 -111.028   -132.90  -52.10   55.69   20.49   32.32  180.00  -19.06   67.61 -173.12  162.59

DOCKED: MODEL       75
DOCKED: USER    Run = 75
DOCKED: USER    DPF = D:/Protein_go_brrr/autodock/final/mut_D99N/heme_Fe/dock.dpf
DOCKED: USER  
DOCKED: USER    Estimated Free Energy of Binding    =   -6.99 kcal/mol  [=(1)+(2)+(3)-(4)]
DOCKED: USER    Estimated Inhibition Constant, Ki   =    7.53 uM (micromolar)  [Temperature = 298.15 K]
DOCKED: USER    
DOCKED: USER    (1) Final Intermolecular Energy     =   -9.97 kcal/mol
DOCKED: USER        vdW + Hbond + desolv Energy     =   -7.03 kcal/mol
DOCKED: USER        Electrostatic Energy            =   -2.95 kcal/mol
DOCKED: USER    (2) Final Total Internal Energy     =   -2.10 kcal/mol
DOCKED: USER    (3) Torsional Free Energy           =   +2.98 kcal/mol
DOCKED: USER    (4) Unbound System's Energy  [=(2)] =   -2.10 kcal/mol
DOCKED: USER    
DOCKED: USER    
DOCKED: USER    NEWDPF move heme_Fe_opt.pdbqt
DOCKED: USER    NEWDPF about -0.174000 -0.001000 -0.047000
DOCKED: USER    NEWDPF tran0 5.479144 -1.108217 -17.970795
DOCKED: USER    NEWDPF quaternion0 -0.823130 -0.030589 0.030519 -0.566207
DOCKED: USER    NEWDPF axisangle0 -0.998625 -0.037110 0.037025 -111.027762
DOCKED: USER    NEWDPF quat0 -0.998625 -0.037110 0.037025 -111.027762
DOCKED: USER    NEWDPF dihe0 -132.90 -52.10 55.69 20.49 32.32 180.00 -19.06 67.61 -173.12 162.59 
DOCKED: USER  keepresnum = 1 
DOCKED: USER  
DOCKED: REMARK  10 active torsions:
DOCKED: REMARK  status: ('A' for Active; 'I' for Inactive)
DOCKED: REMARK    1  A    between atoms: C_6  and  C_10 
DOCKED: REMARK    2  A    between atoms: C_10  and  C_11 
DOCKED: REMARK    3  A    between atoms: C_11  and  C_12 
DOCKED: REMARK    4  A    between atoms: C_12  and  O_14 
DOCKED: REMARK    5  A    between atoms: C_17  and  C_20 
DOCKED: REMARK    6  A    between atoms: C_24  and  C_27 
DOCKED: REMARK    7  A    between atoms: C_31  and  C_34 
DOCKED: REMARK    8  A    between atoms: C_34  and  C_35 
DOCKED: REMARK    9  A    between atoms: C_35  and  C_36 
DOCKED: REMARK   10  A    between atoms: C_36  and  O_38 
DOCKED: USER                              x       y       z     vdW  Elec       q    Type
DOCKED: USER                           _______ _______ _______ _____ _____    ______ ____
DOCKED: ROOT
DOCKED: ATOM      1  C   UNL d   1       3.459  -0.760 -18.075 -0.09 +0.02    +0.064 C 
DOCKED: ATOM      2  C   UNL d   1       7.062   0.556 -14.957 -0.15 +0.02    +0.064 A 
DOCKED: ATOM      3  C   UNL d   1      10.300  -0.788 -18.240 -0.10 +0.03    +0.064 C 
DOCKED: ATOM      4  C   UNL d   1       6.830  -2.166 -21.231 -0.13 +0.01    +0.064 C 
DOCKED: ATOM      5  C   UNL d   1       4.174  -0.343 -16.860 -0.26 +0.02    +0.066 A 
DOCKED: ATOM      6  C   UNL d   1       3.565   0.008 -15.666 -0.33 -0.01    -0.021 A 
DOCKED: ATOM      7  C   UNL d   1       4.566   0.377 -14.802 -0.33 -0.01    -0.025 A 
DOCKED: ATOM      8  C   UNL d   1       5.748   0.236 -15.503 -0.22 +0.02    +0.066 A 
DOCKED: ATOM      9  C   UNL d   1       4.388   0.819 -13.382 -0.39 +0.01    +0.051 C 
DOCKED: ATOM     10  C   UNL d   1       8.222   0.376 -15.591 -0.13 +0.02    +0.066 A 
DOCKED: ATOM     11  C   UNL d   1       9.454   0.798 -15.087 -0.13 -0.01    -0.021 A 
DOCKED: ATOM     12  C   UNL d   1      10.403   0.437 -16.023 -0.10 +0.00    +0.000 A 
DOCKED: ATOM     13  C   UNL d   1       9.692  -0.186 -17.064 -0.09 +0.03    +0.070 A 
DOCKED: ATOM     14  C   UNL d   1       9.709   1.569 -13.808 -0.18 +0.01    +0.052 C 
DOCKED: ATOM     15  C   UNL d   1       9.616  -1.342 -19.269 -0.09 +0.02    +0.066 A 
DOCKED: ATOM     16  C   UNL d   1      10.235  -1.995 -20.327 -0.06 -0.00    -0.021 A 
DOCKED: ATOM     17  C   UNL d   1       9.237  -2.391 -21.192 -0.12 +0.00    +0.000 A 
DOCKED: ATOM     18  C   UNL d   1       8.030  -1.964 -20.643 -0.14 +0.01    +0.070 A 
DOCKED: ATOM     19  C   UNL d   1      11.710  -2.219 -20.531 -0.03 +0.01    +0.052 C 
DOCKED: ATOM     20  C   UNL d   1       5.535  -1.787 -20.654 -0.02 +0.01    +0.066 A 
DOCKED: ATOM     21  C   UNL d   1       4.309  -1.806 -21.333 -0.14 -0.01    -0.025 A 
DOCKED: ATOM     22  C   UNL d   1       3.360  -1.414 -20.411 -0.21 -0.01    -0.021 A 
DOCKED: ATOM     23  C   UNL d   1       4.042  -1.166 -19.214 -0.20 +0.02    +0.066 A 
DOCKED: ATOM     24  C   UNL d   1       4.034  -2.169 -22.774 -0.12 +0.01    +0.051 C 
DOCKED: ATOM     25  N   UNL d   1       5.507  -0.211 -16.751 -0.13 -0.07    -0.248 N 
DOCKED: ATOM     26  N   UNL d   1       8.361  -0.215 -16.805 -0.10 -0.10    -0.248 N 
DOCKED: ATOM     27  N   UNL d   1       8.258  -1.358 -19.440 -0.09 -0.06    -0.248 N 
DOCKED: ATOM     28  N   UNL d   1       5.374  -1.351 -19.381 -0.08 -0.07    -0.248 N 
DOCKED: ATOM     29 FE   UNL d   1       6.868  -0.784 -18.095 -0.04 +0.00    +0.000 Fe
DOCKED: ENDROOT
DOCKED: BRANCH   6  30
DOCKED: ATOM     30  C   UNL d   1       2.108  -0.025 -15.353 -0.28 +0.02    +0.052 C 
DOCKED: BRANCH  30  31
DOCKED: ATOM     31  C   UNL d   1       1.423   1.248 -15.837 -0.27 +0.07    +0.115 C 
DOCKED: BRANCH  31  32
DOCKED: ATOM     32  C   UNL d   1      -0.062   1.035 -15.950 -0.26 +0.17    +0.139 C 
DOCKED: ATOM     33  O   UNL d   1      -0.642   0.275 -15.188 -0.55 -1.02    -0.650 OA
DOCKED: BRANCH  32  34
DOCKED: ATOM     34  O   UNL d   1      -0.766   1.682 -16.893 +0.02 -0.98    -0.776 OA
DOCKED: ATOM     35  H   UNL d   1      -0.433   1.695 -17.802 +0.04 +0.20    +0.167 HD
DOCKED: ENDBRANCH  32  34
DOCKED: ENDBRANCH  31  32
DOCKED: ENDBRANCH  30  31
DOCKED: ENDBRANCH   6  30
DOCKED: BRANCH  22  36
DOCKED: ATOM     36  C   UNL d   1       1.889  -1.242 -20.682 -0.22 +0.02    +0.052 C 
DOCKED: BRANCH  36  37
DOCKED: ATOM     37  C   UNL d   1       1.572   0.233 -20.877 -0.09 +0.05    +0.115 C 
DOCKED: BRANCH  37  38
DOCKED: ATOM     38  C   UNL d   1       0.709   0.752 -19.762 -0.12 +0.11    +0.139 C 
DOCKED: ATOM     39  O   UNL d   1       0.349   1.919 -19.741 +0.01 -0.40    -0.650 OA
DOCKED: BRANCH  38  40
DOCKED: ATOM     40  O   UNL d   1       0.328  -0.073 -18.770 -0.31 -1.39    -0.776 OA
DOCKED: ATOM     41  H   UNL d   1       0.485   0.191 -17.852 -0.38 +0.27    +0.167 HD
DOCKED: ENDBRANCH  38  40
DOCKED: ENDBRANCH  37  38
DOCKED: ENDBRANCH  36  37
DOCKED: ENDBRANCH  22  36
DOCKED: BRANCH  12  42
DOCKED: ATOM     42  C   UNL d   1      11.869   0.703 -15.902 -0.08 +0.00    +0.004 C 
DOCKED: ATOM     43  C   UNL d   1      12.722  -0.275 -15.568 -0.10 +0.00    +0.012 C 
DOCKED: ENDBRANCH  12  42
DOCKED: BRANCH  17  44
DOCKED: ATOM     44  C   UNL d   1       9.424  -3.145 -22.452 -0.11 +0.00    +0.004 C 
DOCKED: ATOM     45  C   UNL d   1       9.714  -4.450 -22.432 -0.12 +0.00    +0.012 C 
DOCKED: ENDBRANCH  17  44
DOCKED: TORSDOF 10
DOCKED: TER
DOCKED: ENDMDL
________________________________________________________________________________


	BEGINNING GENETIC ALGORITHM DOCKING 76 of 100
Run: 76 Seed: 248216304 37142142 [ Run 76 of 100 GA/GALS ]
Beginning LAMARCKIAN GENETIC ALGORITHM (LGA), with a maximum of 25000000 energy evaluations.

Final-Value: -15.856


	FINAL GENETIC ALGORITHM DOCKED STATE
	_______________________________________________


Detailed state:  trans -9.292 2.242 1.264 quatxyzw -0.191418 -0.195568 -0.025526 0.961489 center -0.174 -0.001 -0.047 ntor 10 -93.9369 -129.8944 76.5390 -127.2441 -116.5294 -171.8955 -41.1522 -77.8388 30.6513 33.8932
State:	 -9.292   2.242   1.264  -0.696 -0.712 -0.093 31.905    -93.94 -129.89   76.54 -127.24 -116.53 -171.90  -41.15  -77.84   30.65   33.89

DOCKED: MODEL       76
DOCKED: USER    Run = 76
DOCKED: USER    DPF = D:/Protein_go_brrr/autodock/final/mut_D99N/heme_Fe/dock.dpf
DOCKED: USER  
DOCKED: USER    Estimated Free Energy of Binding    =  -12.56 kcal/mol  [=(1)+(2)+(3)-(4)]
DOCKED: USER    Estimated Inhibition Constant, Ki   =  624.88 pM (picomolar)  [Temperature = 298.15 K]
DOCKED: USER    
DOCKED: USER    (1) Final Intermolecular Energy     =  -15.54 kcal/mol
DOCKED: USER        vdW + Hbond + desolv Energy     =  -13.62 kcal/mol
DOCKED: USER        Electrostatic Energy            =   -1.92 kcal/mol
DOCKED: USER    (2) Final Total Internal Energy     =   -0.32 kcal/mol
DOCKED: USER    (3) Torsional Free Energy           =   +2.98 kcal/mol
DOCKED: USER    (4) Unbound System's Energy  [=(2)] =   -0.32 kcal/mol
DOCKED: USER    
DOCKED: USER    
DOCKED: USER    NEWDPF move heme_Fe_opt.pdbqt
DOCKED: USER    NEWDPF about -0.174000 -0.001000 -0.047000
DOCKED: USER    NEWDPF tran0 -9.292131 2.241794 1.264147
DOCKED: USER    NEWDPF quaternion0 -0.191418 -0.195568 -0.025526 0.961489
DOCKED: USER    NEWDPF axisangle0 -0.696461 -0.711559 -0.092873 31.905397
DOCKED: USER    NEWDPF quat0 -0.696461 -0.711559 -0.092873 31.905397
DOCKED: USER    NEWDPF dihe0 -93.94 -129.89 76.54 -127.24 -116.53 -171.90 -41.15 -77.84 30.65 33.89 
DOCKED: USER  keepresnum = 1 
DOCKED: USER  
DOCKED: REMARK  10 active torsions:
DOCKED: REMARK  status: ('A' for Active; 'I' for Inactive)
DOCKED: REMARK    1  A    between atoms: C_6  and  C_10 
DOCKED: REMARK    2  A    between atoms: C_10  and  C_11 
DOCKED: REMARK    3  A    between atoms: C_11  and  C_12 
DOCKED: REMARK    4  A    between atoms: C_12  and  O_14 
DOCKED: REMARK    5  A    between atoms: C_17  and  C_20 
DOCKED: REMARK    6  A    between atoms: C_24  and  C_27 
DOCKED: REMARK    7  A    between atoms: C_31  and  C_34 
DOCKED: REMARK    8  A    between atoms: C_34  and  C_35 
DOCKED: REMARK    9  A    between atoms: C_35  and  C_36 
DOCKED: REMARK   10  A    between atoms: C_36  and  O_38 
DOCKED: USER                              x       y       z     vdW  Elec       q    Type
DOCKED: USER                           _______ _______ _______ _____ _____    ______ ____
DOCKED: ROOT
DOCKED: ATOM      1  C   UNL d   1     -10.915   1.751   2.420 -0.16 +0.02    +0.064 C 
DOCKED: ATOM      2  C   UNL d   1      -7.708  -0.804  -0.340 -0.37 +0.01    +0.064 A 
DOCKED: ATOM      3  C   UNL d   1      -4.834   3.043  -0.439 -0.38 +0.01    +0.064 C 
DOCKED: ATOM      4  C   UNL d   1      -7.973   5.568   2.143 -0.49 +0.01    +0.064 C 
DOCKED: ATOM      5  C   UNL d   1     -10.318   0.702   1.582 -0.33 +0.03    +0.066 A 
DOCKED: ATOM      6  C   UNL d   1     -10.917  -0.511   1.287 -0.34 -0.01    -0.021 A 
DOCKED: ATOM      7  C   UNL d   1     -10.024  -1.222   0.523 -0.22 -0.01    -0.025 A 
DOCKED: ATOM      8  C   UNL d   1      -8.913  -0.413   0.382 -0.36 +0.02    +0.066 A 
DOCKED: ATOM      9  C   UNL d   1     -10.243  -2.589  -0.048 -0.19 +0.02    +0.051 C 
DOCKED: ATOM     10  C   UNL d   1      -6.645  -0.022  -0.540 -0.41 +0.01    +0.066 A 
DOCKED: ATOM     11  C   UNL d   1      -5.461  -0.462  -1.136 -0.42 -0.00    -0.021 A 
DOCKED: ATOM     12  C   UNL d   1      -4.610   0.624  -1.161 -0.37 +0.00    +0.000 A 
DOCKED: ATOM     13  C   UNL d   1      -5.323   1.679  -0.566 -0.38 +0.01    +0.070 A 
DOCKED: ATOM     14  C   UNL d   1      -5.131  -1.867  -1.596 -0.58 -0.00    +0.052 C 
DOCKED: ATOM     15  C   UNL d   1      -5.496   4.050   0.180 -0.39 +0.01    +0.066 A 
DOCKED: ATOM     16  C   UNL d   1      -5.041   5.362   0.193 -0.48 -0.00    -0.021 A 
DOCKED: ATOM     17  C   UNL d   1      -5.943   6.091   0.940 -0.50 +0.00    +0.000 A 
DOCKED: ATOM     18  C   UNL d   1      -6.927   5.204   1.369 -0.41 +0.01    +0.070 A 
DOCKED: ATOM     19  C   UNL d   1      -3.793   5.907  -0.450 -0.54 +0.01    +0.052 C 
DOCKED: ATOM     20  C   UNL d   1      -9.060   4.675   2.563 -0.42 +0.01    +0.066 A 
DOCKED: ATOM     21  C   UNL d   1     -10.036   4.983   3.521 -0.44 -0.00    -0.025 A 
DOCKED: ATOM     22  C   UNL d   1     -10.872   3.887   3.575 -0.33 -0.00    -0.021 A 
DOCKED: ATOM     23  C   UNL d   1     -10.371   2.955   2.657 -0.21 +0.02    +0.066 A 
DOCKED: ATOM     24  C   UNL d   1     -10.181   6.238   4.350 -0.30 -0.01    +0.051 C 
DOCKED: ATOM     25  N   UNL d   1      -9.098   0.760   1.019 -0.25 -0.07    -0.248 N 
DOCKED: ATOM     26  N   UNL d   1      -6.561   1.284  -0.179 -0.26 -0.03    -0.248 N 
DOCKED: ATOM     27  N   UNL d   1      -6.677   3.958   0.866 -0.25 -0.05    -0.248 N 
DOCKED: ATOM     28  N   UNL d   1      -9.241   3.424   2.075 -0.19 -0.08    -0.248 N 
DOCKED: ATOM     29 FE   UNL d   1      -7.901   2.356   0.949 -0.09 +0.00    +0.000 Fe
DOCKED: ENDROOT
DOCKED: BRANCH   6  30
DOCKED: ATOM     30  C   UNL d   1     -12.278  -0.967   1.690 +0.16 +0.07    +0.052 C 
DOCKED: BRANCH  30  31
DOCKED: ATOM     31  C   UNL d   1     -13.134  -1.263   0.464 -0.16 +0.09    +0.115 C 
DOCKED: BRANCH  31  32
DOCKED: ATOM     32  C   UNL d   1     -13.944  -2.512   0.677 -0.08 +0.14    +0.139 C 
DOCKED: ATOM     33  O   UNL d   1     -13.769  -3.497  -0.027 -0.03 -0.39    -0.650 OA
DOCKED: BRANCH  32  34
DOCKED: ATOM     34  O   UNL d   1     -14.872  -2.556   1.648 -0.55 -1.16    -0.776 OA
DOCKED: ATOM     35  H   UNL d   1     -15.764  -2.233   1.460 +0.02 +0.13    +0.167 HD
DOCKED: ENDBRANCH  32  34
DOCKED: ENDBRANCH  31  32
DOCKED: ENDBRANCH  30  31
DOCKED: ENDBRANCH   6  30
DOCKED: BRANCH  22  36
DOCKED: ATOM     36  C   UNL d   1     -12.054   3.726   4.493 -0.27 +0.01    +0.052 C 
DOCKED: BRANCH  36  37
DOCKED: ATOM     37  C   UNL d   1     -13.267   3.272   3.694 -0.18 +0.03    +0.115 C 
DOCKED: BRANCH  37  38
DOCKED: ATOM     38  C   UNL d   1     -13.500   1.797   3.859 -0.16 +0.07    +0.139 C 
DOCKED: ATOM     39  O   UNL d   1     -14.337   1.217   3.183 +0.00 -0.36    -0.650 OA
DOCKED: BRANCH  38  40
DOCKED: ATOM     40  O   UNL d   1     -12.786   1.102   4.762 -0.02 -0.54    -0.776 OA
DOCKED: ATOM     41  H   UNL d   1     -12.721   1.436   5.668 +0.05 +0.08    +0.167 HD
DOCKED: ENDBRANCH  38  40
DOCKED: ENDBRANCH  37  38
DOCKED: ENDBRANCH  36  37
DOCKED: ENDBRANCH  22  36
DOCKED: BRANCH  12  42
DOCKED: ATOM     42  C   UNL d   1      -3.217   0.608  -1.706 -0.44 +0.00    +0.004 C 
DOCKED: ATOM     43  C   UNL d   1      -2.840   1.469  -2.661 -0.58 +0.00    +0.012 C 
DOCKED: ENDBRANCH  12  42
DOCKED: BRANCH  17  44
DOCKED: ATOM     44  C   UNL d   1      -5.878   7.546   1.208 -0.60 +0.00    +0.004 C 
DOCKED: ATOM     45  C   UNL d   1      -4.979   8.045   2.062 -0.71 +0.00    +0.012 C 
DOCKED: ENDBRANCH  17  44
DOCKED: TORSDOF 10
DOCKED: TER
DOCKED: ENDMDL
________________________________________________________________________________


	BEGINNING GENETIC ALGORITHM DOCKING 77 of 100
Run: 77 Seed: 1545331341 516658421 [ Run 77 of 100 GA/GALS ]
Beginning LAMARCKIAN GENETIC ALGORITHM (LGA), with a maximum of 25000000 energy evaluations.

Final-Value: -12.078


	FINAL GENETIC ALGORITHM DOCKED STATE
	_______________________________________________


Detailed state:  trans -15.189 5.160 3.504 quatxyzw -0.112081 -0.305103 0.730152 -0.601022 center -0.174 -0.001 -0.047 ntor 10 133.3754 0.4977 15.4193 -4.9965 158.8398 -48.1441 -30.9662 69.8439 151.8564 154.4819
State:	-15.189   5.160   3.504  -0.140 -0.382  0.914 -106.114    133.38    0.50   15.42   -5.00  158.84  -48.14  -30.97   69.84  151.86  154.48

DOCKED: MODEL       77
DOCKED: USER    Run = 77
DOCKED: USER    DPF = D:/Protein_go_brrr/autodock/final/mut_D99N/heme_Fe/dock.dpf
DOCKED: USER  
DOCKED: USER    Estimated Free Energy of Binding    =   -7.08 kcal/mol  [=(1)+(2)+(3)-(4)]
DOCKED: USER    Estimated Inhibition Constant, Ki   =    6.51 uM (micromolar)  [Temperature = 298.15 K]
DOCKED: USER    
DOCKED: USER    (1) Final Intermolecular Energy     =  -10.06 kcal/mol
DOCKED: USER        vdW + Hbond + desolv Energy     =   -7.44 kcal/mol
DOCKED: USER        Electrostatic Energy            =   -2.62 kcal/mol
DOCKED: USER    (2) Final Total Internal Energy     =   -2.02 kcal/mol
DOCKED: USER    (3) Torsional Free Energy           =   +2.98 kcal/mol
DOCKED: USER    (4) Unbound System's Energy  [=(2)] =   -2.02 kcal/mol
DOCKED: USER    
DOCKED: USER    
DOCKED: USER    NEWDPF move heme_Fe_opt.pdbqt
DOCKED: USER    NEWDPF about -0.174000 -0.001000 -0.047000
DOCKED: USER    NEWDPF tran0 -15.189106 5.160400 3.503669
DOCKED: USER    NEWDPF quaternion0 -0.112081 -0.305103 0.730152 -0.601022
DOCKED: USER    NEWDPF axisangle0 -0.140236 -0.381745 0.913567 -106.113699
DOCKED: USER    NEWDPF quat0 -0.140236 -0.381745 0.913567 -106.113699
DOCKED: USER    NEWDPF dihe0 133.38 0.50 15.42 -5.00 158.84 -48.14 -30.97 69.84 151.86 154.48 
DOCKED: USER  keepresnum = 1 
DOCKED: USER  
DOCKED: REMARK  10 active torsions:
DOCKED: REMARK  status: ('A' for Active; 'I' for Inactive)
DOCKED: REMARK    1  A    between atoms: C_6  and  C_10 
DOCKED: REMARK    2  A    between atoms: C_10  and  C_11 
DOCKED: REMARK    3  A    between atoms: C_11  and  C_12 
DOCKED: REMARK    4  A    between atoms: C_12  and  O_14 
DOCKED: REMARK    5  A    between atoms: C_17  and  C_20 
DOCKED: REMARK    6  A    between atoms: C_24  and  C_27 
DOCKED: REMARK    7  A    between atoms: C_31  and  C_34 
DOCKED: REMARK    8  A    between atoms: C_34  and  C_35 
DOCKED: REMARK    9  A    between atoms: C_35  and  C_36 
DOCKED: REMARK   10  A    between atoms: C_36  and  O_38 
DOCKED: USER                              x       y       z     vdW  Elec       q    Type
DOCKED: USER                           _______ _______ _______ _____ _____    ______ ____
DOCKED: ROOT
DOCKED: ATOM      1  C   UNL d   1     -14.923   3.126   3.555 -0.18 +0.01    +0.064 C 
DOCKED: ATOM      2  C   UNL d   1     -13.052   6.945   6.073 -0.20 -0.01    +0.064 A 
DOCKED: ATOM      3  C   UNL d   1     -16.574   9.719   4.350 -0.10 -0.01    +0.064 C 
DOCKED: ATOM      4  C   UNL d   1     -18.341   6.062   1.822 -0.28 +0.01    +0.064 C 
DOCKED: ATOM      5  C   UNL d   1     -14.022   3.964   4.358 -0.13 +0.01    +0.066 A 
DOCKED: ATOM      6  C   UNL d   1     -12.834   3.530   4.924 -0.18 -0.00    -0.021 A 
DOCKED: ATOM      7  C   UNL d   1     -12.317   4.591   5.626 -0.24 -0.00    -0.025 A 
DOCKED: ATOM      8  C   UNL d   1     -13.209   5.632   5.461 -0.18 +0.00    +0.066 A 
DOCKED: ATOM      9  C   UNL d   1     -11.030   4.598   6.393 -0.45 +0.00    +0.051 C 
DOCKED: ATOM     10  C   UNL d   1     -13.867   7.984   5.884 -0.18 -0.01    +0.066 A 
DOCKED: ATOM     11  C   UNL d   1     -13.754   9.194   6.573 -0.24 +0.00    -0.021 A 
DOCKED: ATOM     12  C   UNL d   1     -14.769  10.005   6.106 -0.12 -0.00    +0.000 A 
DOCKED: ATOM     13  C   UNL d   1     -15.460   9.238   5.153 -0.09 -0.01    +0.070 A 
DOCKED: ATOM     14  C   UNL d   1     -12.770   9.536   7.673 -0.47 -0.01    +0.052 C 
DOCKED: ATOM     15  C   UNL d   1     -17.275   8.968   3.468 -0.15 -0.00    +0.066 A 
DOCKED: ATOM     16  C   UNL d   1     -18.267   9.491   2.648 -0.16 +0.00    -0.021 A 
DOCKED: ATOM     17  C   UNL d   1     -18.781   8.437   1.920 -0.22 +0.00    +0.000 A 
DOCKED: ATOM     18  C   UNL d   1     -18.091   7.294   2.318 -0.24 +0.00    +0.070 A 
DOCKED: ATOM     19  C   UNL d   1     -18.734  10.919   2.567 -0.11 -0.00    +0.052 C 
DOCKED: ATOM     20  C   UNL d   1     -17.595   4.847   2.171 -0.24 +0.01    +0.066 A 
DOCKED: ATOM     21  C   UNL d   1     -17.966   3.541   1.822 -0.17 -0.00    -0.025 A 
DOCKED: ATOM     22  C   UNL d   1     -16.971   2.721   2.315 -0.16 -0.00    -0.021 A 
DOCKED: ATOM     23  C   UNL d   1     -16.041   3.555   2.947 -0.18 +0.01    +0.066 A 
DOCKED: ATOM     24  C   UNL d   1     -19.191   3.077   1.069 -0.17 +0.01    +0.051 C 
DOCKED: ATOM     25  N   UNL d   1     -14.240   5.251   4.681 -0.04 -0.02    -0.248 N 
DOCKED: ATOM     26  N   UNL d   1     -14.916   8.003   5.023 -0.07 +0.01    -0.248 N 
DOCKED: ATOM     27  N   UNL d   1     -17.136   7.626   3.237 -0.13 -0.00    -0.248 N 
DOCKED: ATOM     28  N   UNL d   1     -16.449   4.846   2.895 -0.02 -0.03    -0.248 N 
DOCKED: ATOM     29 FE   UNL d   1     -15.685   6.424   3.958 -0.04 +0.00    +0.000 Fe
DOCKED: ENDROOT
DOCKED: BRANCH   6  30
DOCKED: ATOM     30  C   UNL d   1     -12.210   2.184   4.789 -0.18 +0.02    +0.052 C 
DOCKED: BRANCH  30  31
DOCKED: ATOM     31  C   UNL d   1     -12.084   1.508   6.150 -0.08 +0.05    +0.115 C 
DOCKED: BRANCH  31  32
DOCKED: ATOM     32  C   UNL d   1     -12.193   0.015   6.008 -0.16 +0.13    +0.139 C 
DOCKED: ATOM     33  O   UNL d   1     -11.747  -0.727   6.872 -0.55 -0.56    -0.650 OA
DOCKED: BRANCH  32  34
DOCKED: ATOM     34  O   UNL d   1     -12.783  -0.519   4.925 -0.26 -1.60    -0.776 OA
DOCKED: ATOM     35  H   UNL d   1     -13.631  -0.160   4.628 +0.03 +0.25    +0.167 HD
DOCKED: ENDBRANCH  32  34
DOCKED: ENDBRANCH  31  32
DOCKED: ENDBRANCH  30  31
DOCKED: ENDBRANCH   6  30
DOCKED: BRANCH  22  36
DOCKED: ATOM     36  C   UNL d   1     -16.945   1.218   2.225 -0.14 +0.01    +0.052 C 
DOCKED: BRANCH  36  37
DOCKED: ATOM     37  C   UNL d   1     -17.198   0.617   3.600 -0.05 +0.04    +0.115 C 
DOCKED: BRANCH  37  38
DOCKED: ATOM     38  C   UNL d   1     -15.961  -0.049   4.133 -0.06 +0.08    +0.139 C 
DOCKED: ATOM     39  O   UNL d   1     -15.319  -0.822   3.438 -0.02 -0.72    -0.650 OA
DOCKED: BRANCH  38  40
DOCKED: ATOM     40  O   UNL d   1     -15.553   0.202   5.389 +0.03 -0.43    -0.776 OA
DOCKED: ATOM     41  H   UNL d   1     -14.753  -0.231   5.719 +0.02 +0.13    +0.167 HD
DOCKED: ENDBRANCH  38  40
DOCKED: ENDBRANCH  37  38
DOCKED: ENDBRANCH  36  37
DOCKED: ENDBRANCH  22  36
DOCKED: BRANCH  12  42
DOCKED: ATOM     42  C   UNL d   1     -15.036  11.399   6.578 -0.14 -0.00    +0.004 C 
DOCKED: ATOM     43  C   UNL d   1     -14.134  12.373   6.395 -0.22 -0.01    +0.012 C 
DOCKED: ENDBRANCH  12  42
DOCKED: BRANCH  17  44
DOCKED: ATOM     44  C   UNL d   1     -19.847   8.522   0.897 -0.26 +0.00    +0.004 C 
DOCKED: ATOM     45  C   UNL d   1     -19.792   9.439  -0.074 -0.27 +0.00    +0.012 C 
DOCKED: ENDBRANCH  17  44
DOCKED: TORSDOF 10
DOCKED: TER
DOCKED: ENDMDL
________________________________________________________________________________


	BEGINNING GENETIC ALGORITHM DOCKING 78 of 100
Run: 78 Seed: 558154507 1743559450 [ Run 78 of 100 GA/GALS ]
Beginning LAMARCKIAN GENETIC ALGORITHM (LGA), with a maximum of 25000000 energy evaluations.

Final-Value: -16.510


	FINAL GENETIC ALGORITHM DOCKED STATE
	_______________________________________________


Detailed state:  trans -9.059 1.313 1.554 quatxyzw -0.935651 -0.142630 0.252318 -0.201367 center -0.174 -0.001 -0.047 ntor 10 -129.0417 3.4501 27.9497 -133.1345 -23.1772 -168.4284 83.5904 -0.5004 -12.9655 -180.0000
State:	 -9.059   1.313   1.554  -0.955 -0.146  0.258 -156.766   -129.04    3.45   27.95 -133.13  -23.18 -168.43   83.59   -0.50  -12.97 -180.00

DOCKED: MODEL       78
DOCKED: USER    Run = 78
DOCKED: USER    DPF = D:/Protein_go_brrr/autodock/final/mut_D99N/heme_Fe/dock.dpf
DOCKED: USER  
DOCKED: USER    Estimated Free Energy of Binding    =  -13.06 kcal/mol  [=(1)+(2)+(3)-(4)]
DOCKED: USER    Estimated Inhibition Constant, Ki   =  267.50 pM (picomolar)  [Temperature = 298.15 K]
DOCKED: USER    
DOCKED: USER    (1) Final Intermolecular Energy     =  -16.04 kcal/mol
DOCKED: USER        vdW + Hbond + desolv Energy     =  -13.56 kcal/mol
DOCKED: USER        Electrostatic Energy            =   -2.48 kcal/mol
DOCKED: USER    (2) Final Total Internal Energy     =   -0.47 kcal/mol
DOCKED: USER    (3) Torsional Free Energy           =   +2.98 kcal/mol
DOCKED: USER    (4) Unbound System's Energy  [=(2)] =   -0.47 kcal/mol
DOCKED: USER    
DOCKED: USER    
DOCKED: USER    NEWDPF move heme_Fe_opt.pdbqt
DOCKED: USER    NEWDPF about -0.174000 -0.001000 -0.047000
DOCKED: USER    NEWDPF tran0 -9.059003 1.312516 1.553589
DOCKED: USER    NEWDPF quaternion0 -0.935651 -0.142630 0.252318 -0.201367
DOCKED: USER    NEWDPF axisangle0 -0.955218 -0.145613 0.257595 -156.766129
DOCKED: USER    NEWDPF quat0 -0.955218 -0.145613 0.257595 -156.766129
DOCKED: USER    NEWDPF dihe0 -129.04 3.45 27.95 -133.13 -23.18 -168.43 83.59 -0.50 -12.97 -180.00 
DOCKED: USER  keepresnum = 1 
DOCKED: USER  
DOCKED: REMARK  10 active torsions:
DOCKED: REMARK  status: ('A' for Active; 'I' for Inactive)
DOCKED: REMARK    1  A    between atoms: C_6  and  C_10 
DOCKED: REMARK    2  A    between atoms: C_10  and  C_11 
DOCKED: REMARK    3  A    between atoms: C_11  and  C_12 
DOCKED: REMARK    4  A    between atoms: C_12  and  O_14 
DOCKED: REMARK    5  A    between atoms: C_17  and  C_20 
DOCKED: REMARK    6  A    between atoms: C_24  and  C_27 
DOCKED: REMARK    7  A    between atoms: C_31  and  C_34 
DOCKED: REMARK    8  A    between atoms: C_34  and  C_35 
DOCKED: REMARK    9  A    between atoms: C_35  and  C_36 
DOCKED: REMARK   10  A    between atoms: C_36  and  O_38 
DOCKED: USER                              x       y       z     vdW  Elec       q    Type
DOCKED: USER                           _______ _______ _______ _____ _____    ______ ____
DOCKED: ROOT
DOCKED: ATOM      1  C   UNL d   1     -10.999   0.796   1.981 -0.35 +0.03    +0.064 C 
DOCKED: ATOM      2  C   UNL d   1      -8.407   5.003   2.112 -0.43 +0.01    +0.064 A 
DOCKED: ATOM      3  C   UNL d   1      -4.994   2.902  -0.535 -0.41 +0.01    +0.064 C 
DOCKED: ATOM      4  C   UNL d   1      -7.437  -1.211  -0.586 -0.36 +0.01    +0.064 C 
DOCKED: ATOM      5  C   UNL d   1     -10.547   2.150   2.333 -0.12 +0.02    +0.066 A 
DOCKED: ATOM      6  C   UNL d   1     -11.223   3.013   3.179 -0.25 -0.00    -0.021 A 
DOCKED: ATOM      7  C   UNL d   1     -10.505   4.183   3.212 -0.36 -0.00    -0.025 A 
DOCKED: ATOM      8  C   UNL d   1      -9.416   3.987   2.384 -0.38 +0.01    +0.066 A 
DOCKED: ATOM      9  C   UNL d   1     -10.843   5.404   4.011 -0.45 +0.00    +0.051 C 
DOCKED: ATOM     10  C   UNL d   1      -7.318   4.822   1.364 -0.40 +0.01    +0.066 A 
DOCKED: ATOM     11  C   UNL d   1      -6.429   5.847   1.027 -0.47 -0.00    -0.021 A 
DOCKED: ATOM     12  C   UNL d   1      -5.445   5.270   0.250 -0.48 +0.00    +0.000 A 
DOCKED: ATOM     13  C   UNL d   1      -5.791   3.912   0.145 -0.38 +0.01    +0.070 A 
DOCKED: ATOM     14  C   UNL d   1      -6.549   7.317   1.372 -0.55 +0.01    +0.052 C 
DOCKED: ATOM     15  C   UNL d   1      -5.349   1.604  -0.684 -0.39 +0.01    +0.066 A 
DOCKED: ATOM     16  C   UNL d   1      -4.515   0.650  -1.252 -0.37 -0.00    -0.021 A 
DOCKED: ATOM     17  C   UNL d   1      -5.219  -0.536  -1.271 -0.43 +0.00    +0.000 A 
DOCKED: ATOM     18  C   UNL d   1      -6.470  -0.276  -0.716 -0.41 +0.01    +0.070 A 
DOCKED: ATOM     19  C   UNL d   1      -3.120   0.848  -1.780 -0.41 +0.00    +0.052 C 
DOCKED: ATOM     20  C   UNL d   1      -8.742  -0.989   0.048 -0.32 +0.01    +0.066 A 
DOCKED: ATOM     21  C   UNL d   1      -9.822  -1.882   0.013 -0.06 -0.01    -0.025 A 
DOCKED: ATOM     22  C   UNL d   1     -10.822  -1.296   0.761 -0.16 -0.01    -0.021 A 
DOCKED: ATOM     23  C   UNL d   1     -10.318  -0.071   1.216 -0.35 +0.03    +0.066 A 
DOCKED: ATOM     24  C   UNL d   1      -9.919  -3.217  -0.689 -0.20 +0.01    +0.051 C 
DOCKED: ATOM     25  N   UNL d   1      -9.440   2.746   1.859 -0.15 -0.09    -0.248 N 
DOCKED: ATOM     26  N   UNL d   1      -6.937   3.640   0.816 -0.18 -0.06    -0.248 N 
DOCKED: ATOM     27  N   UNL d   1      -6.535   1.029  -0.315 -0.27 -0.03    -0.248 N 
DOCKED: ATOM     28  N   UNL d   1      -9.064   0.130   0.741 -0.26 -0.07    -0.248 N 
DOCKED: ATOM     29 FE   UNL d   1      -8.001   1.883   0.777 -0.09 +0.00    +0.000 Fe
DOCKED: ENDROOT
DOCKED: BRANCH   6  30
DOCKED: ATOM     30  C   UNL d   1     -12.477   2.737   3.936 -0.23 +0.01    +0.052 C 
DOCKED: BRANCH  30  31
DOCKED: ATOM     31  C   UNL d   1     -12.193   1.861   5.151 -0.12 +0.05    +0.115 C 
DOCKED: BRANCH  31  32
DOCKED: ATOM     32  C   UNL d   1     -12.462   0.416   4.832 -0.14 +0.15    +0.139 C 
DOCKED: ATOM     33  O   UNL d   1     -13.224   0.109   3.926 -0.38 -0.97    -0.650 OA
DOCKED: BRANCH  32  34
DOCKED: ATOM     34  O   UNL d   1     -11.864  -0.554   5.544 -0.44 -1.06    -0.776 OA
DOCKED: ATOM     35  H   UNL d   1     -11.911  -0.524   6.510 +0.04 +0.16    +0.167 HD
DOCKED: ENDBRANCH  32  34
DOCKED: ENDBRANCH  31  32
DOCKED: ENDBRANCH  30  31
DOCKED: ENDBRANCH   6  30
DOCKED: BRANCH  22  36
DOCKED: ATOM     36  C   UNL d   1     -12.200  -1.860   0.983 +0.24 +0.06    +0.052 C 
DOCKED: BRANCH  36  37
DOCKED: ATOM     37  C   UNL d   1     -13.094  -1.513  -0.198 +0.10 +0.06    +0.115 C 
DOCKED: BRANCH  37  38
DOCKED: ATOM     38  C   UNL d   1     -14.470  -2.090  -0.021 -0.17 +0.08    +0.139 C 
DOCKED: ATOM     39  O   UNL d   1     -15.267  -2.102  -0.948 +0.00 -0.19    -0.650 OA
DOCKED: BRANCH  38  40
DOCKED: ATOM     40  O   UNL d   1     -14.836  -2.598   1.169 -0.47 -0.86    -0.776 OA
DOCKED: ATOM     41  H   UNL d   1     -15.708  -3.009   1.256 +0.02 +0.12    +0.167 HD
DOCKED: ENDBRANCH  38  40
DOCKED: ENDBRANCH  37  38
DOCKED: ENDBRANCH  36  37
DOCKED: ENDBRANCH  22  36
DOCKED: BRANCH  12  42
DOCKED: ATOM     42  C   UNL d   1      -4.285   6.003  -0.345 -0.64 +0.00    +0.004 C 
DOCKED: ATOM     43  C   UNL d   1      -3.242   6.372   0.411 -0.58 +0.00    +0.012 C 
DOCKED: ENDBRANCH  12  42
DOCKED: BRANCH  17  44
DOCKED: ATOM     44  C   UNL d   1      -4.719  -1.838  -1.768 -0.66 -0.00    +0.004 C 
DOCKED: ATOM     45  C   UNL d   1      -4.688  -2.105  -3.077 -0.72 -0.00    +0.012 C 
DOCKED: ENDBRANCH  17  44
DOCKED: TORSDOF 10
DOCKED: TER
DOCKED: ENDMDL
________________________________________________________________________________


	BEGINNING GENETIC ALGORITHM DOCKING 79 of 100
Run: 79 Seed: 665301169 604744933 [ Run 79 of 100 GA/GALS ]
Beginning LAMARCKIAN GENETIC ALGORITHM (LGA), with a maximum of 25000000 energy evaluations.

Final-Value: -11.343


	FINAL GENETIC ALGORITHM DOCKED STATE
	_______________________________________________


Detailed state:  trans 2.328 0.182 -19.994 quatxyzw -0.517445 -0.058084 0.443151 0.729722 center -0.174 -0.001 -0.047 ntor 10 -46.0637 -63.5590 -173.5557 -148.1424 26.8845 157.0709 -58.4814 56.3073 -180.0000 179.1024
State:	  2.328   0.182 -19.994  -0.757 -0.085  0.648 86.274    -46.06  -63.56 -173.56 -148.14   26.88  157.07  -58.48   56.31 -180.00  179.10

DOCKED: MODEL       79
DOCKED: USER    Run = 79
DOCKED: USER    DPF = D:/Protein_go_brrr/autodock/final/mut_D99N/heme_Fe/dock.dpf
DOCKED: USER  
DOCKED: USER    Estimated Free Energy of Binding    =   -5.79 kcal/mol  [=(1)+(2)+(3)-(4)]
DOCKED: USER    Estimated Inhibition Constant, Ki   =   56.70 uM (micromolar)  [Temperature = 298.15 K]
DOCKED: USER    
DOCKED: USER    (1) Final Intermolecular Energy     =   -8.78 kcal/mol
DOCKED: USER        vdW + Hbond + desolv Energy     =   -5.53 kcal/mol
DOCKED: USER        Electrostatic Energy            =   -3.24 kcal/mol
DOCKED: USER    (2) Final Total Internal Energy     =   -2.57 kcal/mol
DOCKED: USER    (3) Torsional Free Energy           =   +2.98 kcal/mol
DOCKED: USER    (4) Unbound System's Energy  [=(2)] =   -2.57 kcal/mol
DOCKED: USER    
DOCKED: USER    
DOCKED: USER    NEWDPF move heme_Fe_opt.pdbqt
DOCKED: USER    NEWDPF about -0.174000 -0.001000 -0.047000
DOCKED: USER    NEWDPF tran0 2.328223 0.181803 -19.994293
DOCKED: USER    NEWDPF quaternion0 -0.517445 -0.058084 0.443151 0.729722
DOCKED: USER    NEWDPF axisangle0 -0.756782 -0.084951 0.648124 86.273810
DOCKED: USER    NEWDPF quat0 -0.756782 -0.084951 0.648124 86.273810
DOCKED: USER    NEWDPF dihe0 -46.06 -63.56 -173.56 -148.14 26.88 157.07 -58.48 56.31 -180.00 179.10 
DOCKED: USER  keepresnum = 1 
DOCKED: USER  
DOCKED: REMARK  10 active torsions:
DOCKED: REMARK  status: ('A' for Active; 'I' for Inactive)
DOCKED: REMARK    1  A    between atoms: C_6  and  C_10 
DOCKED: REMARK    2  A    between atoms: C_10  and  C_11 
DOCKED: REMARK    3  A    between atoms: C_11  and  C_12 
DOCKED: REMARK    4  A    between atoms: C_12  and  O_14 
DOCKED: REMARK    5  A    between atoms: C_17  and  C_20 
DOCKED: REMARK    6  A    between atoms: C_24  and  C_27 
DOCKED: REMARK    7  A    between atoms: C_31  and  C_34 
DOCKED: REMARK    8  A    between atoms: C_34  and  C_35 
DOCKED: REMARK    9  A    between atoms: C_35  and  C_36 
DOCKED: REMARK   10  A    between atoms: C_36  and  O_38 
DOCKED: USER                              x       y       z     vdW  Elec       q    Type
DOCKED: USER                           _______ _______ _______ _____ _____    ______ ____
DOCKED: ROOT
DOCKED: ATOM      1  C   UNL d   1       0.898   0.911 -18.716 -0.14 +0.05    +0.064 C 
DOCKED: ATOM      2  C   UNL d   1       0.813  -1.314 -23.129 -0.05 +0.02    +0.064 A 
DOCKED: ATOM      3  C   UNL d   1       5.387  -2.627 -22.478 -0.13 +0.01    +0.064 C 
DOCKED: ATOM      4  C   UNL d   1       5.523  -0.390 -18.251 -0.19 +0.02    +0.064 C 
DOCKED: ATOM      5  C   UNL d   1       0.476   0.478 -20.055 -0.13 +0.05    +0.066 A 
DOCKED: ATOM      6  C   UNL d   1      -0.747   0.776 -20.633 -0.10 -0.02    -0.021 A 
DOCKED: ATOM      7  C   UNL d   1      -0.771   0.155 -21.857 -0.07 -0.01    -0.025 A 
DOCKED: ATOM      8  C   UNL d   1       0.439  -0.499 -21.979 -0.08 +0.03    +0.066 A 
DOCKED: ATOM      9  C   UNL d   1      -1.890   0.208 -22.853 -0.03 +0.02    +0.051 C 
DOCKED: ATOM     10  C   UNL d   1       1.996  -1.908 -23.297 -0.05 +0.01    +0.066 A 
DOCKED: ATOM     11  C   UNL d   1       2.284  -2.775 -24.354 -0.04 -0.00    -0.021 A 
DOCKED: ATOM     12  C   UNL d   1       3.592  -3.181 -24.180 -0.07 +0.00    +0.000 A 
DOCKED: ATOM     13  C   UNL d   1       4.036  -2.540 -23.010 -0.10 +0.01    +0.070 A 
DOCKED: ATOM     14  C   UNL d   1       1.338  -3.248 -25.438 -0.03 +0.00    +0.052 C 
DOCKED: ATOM     15  C   UNL d   1       5.805  -2.054 -21.324 -0.08 +0.01    +0.066 A 
DOCKED: ATOM     16  C   UNL d   1       7.128  -2.076 -20.902 -0.13 -0.00    -0.021 A 
DOCKED: ATOM     17  C   UNL d   1       7.169  -1.435 -19.681 -0.17 +0.00    +0.000 A 
DOCKED: ATOM     18  C   UNL d   1       5.866  -1.039 -19.385 -0.12 +0.02    +0.070 A 
DOCKED: ATOM     19  C   UNL d   1       8.305  -2.698 -21.603 -0.16 +0.00    +0.052 C 
DOCKED: ATOM     20  C   UNL d   1       4.175   0.096 -17.934 -0.16 +0.02    +0.066 A 
DOCKED: ATOM     21  C   UNL d   1       3.764   0.587 -16.687 -0.18 -0.01    -0.025 A 
DOCKED: ATOM     22  C   UNL d   1       2.446   0.964 -16.846 -0.17 -0.01    -0.021 A 
DOCKED: ATOM     23  C   UNL d   1       2.105   0.683 -18.174 -0.02 +0.03    +0.066 A 
DOCKED: ATOM     24  C   UNL d   1       4.559   0.697 -15.407 -0.25 +0.01    +0.051 C 
DOCKED: ATOM     25  N   UNL d   1       1.200  -0.293 -20.885 -0.09 -0.13    -0.248 N 
DOCKED: ATOM     26  N   UNL d   1       3.061  -1.771 -22.466 -0.04 -0.05    -0.248 N 
DOCKED: ATOM     27  N   UNL d   1       5.034  -1.380 -20.415 -0.10 -0.06    -0.248 N 
DOCKED: ATOM     28  N   UNL d   1       3.150   0.112 -18.821 -0.09 -0.08    -0.248 N 
DOCKED: ATOM     29 FE   UNL d   1       3.107  -0.829 -20.642 -0.03 +0.00    +0.000 Fe
DOCKED: ENDROOT
DOCKED: BRANCH   6  30
DOCKED: ATOM     30  C   UNL d   1      -1.831   1.625 -20.063 -0.09 +0.05    +0.052 C 
DOCKED: BRANCH  30  31
DOCKED: ATOM     31  C   UNL d   1      -2.808   0.782 -19.252 -0.12 +0.20    +0.115 C 
DOCKED: BRANCH  31  32
DOCKED: ATOM     32  C   UNL d   1      -2.879   1.276 -17.834 -0.10 +0.26    +0.139 C 
DOCKED: ATOM     33  O   UNL d   1      -2.635   2.445 -17.568 +0.02 -0.79    -0.650 OA
DOCKED: BRANCH  32  34
DOCKED: ATOM     34  O   UNL d   1      -3.212   0.434 -16.841 +0.22 -1.82    -0.776 OA
DOCKED: ATOM     35  H   UNL d   1      -2.688   0.436 -16.028 +0.08 +0.36    +0.167 HD
DOCKED: ENDBRANCH  32  34
DOCKED: ENDBRANCH  31  32
DOCKED: ENDBRANCH  30  31
DOCKED: ENDBRANCH   6  30
DOCKED: BRANCH  22  36
DOCKED: ATOM     36  C   UNL d   1       1.553   1.517 -15.767 -0.26 +0.03    +0.052 C 
DOCKED: BRANCH  36  37
DOCKED: ATOM     37  C   UNL d   1       0.949   0.374 -14.965 -0.40 +0.09    +0.115 C 
DOCKED: BRANCH  37  38
DOCKED: ATOM     38  C   UNL d   1      -0.551   0.459 -14.952 -0.36 +0.18    +0.139 C 
DOCKED: ATOM     39  O   UNL d   1      -1.232  -0.535 -14.743 -0.65 -1.11    -0.650 OA
DOCKED: BRANCH  38  40
DOCKED: ATOM     40  O   UNL d   1      -1.159   1.638 -15.175 -0.26 -0.88    -0.776 OA
DOCKED: ATOM     41  H   UNL d   1      -1.718   1.737 -15.957 +0.07 +0.21    +0.167 HD
DOCKED: ENDBRANCH  38  40
DOCKED: ENDBRANCH  37  38
DOCKED: ENDBRANCH  36  37
DOCKED: ENDBRANCH  22  36
DOCKED: BRANCH  12  42
DOCKED: ATOM     42  C   UNL d   1       4.322  -4.128 -25.079 -0.06 +0.00    +0.004 C 
DOCKED: ATOM     43  C   UNL d   1       4.912  -5.226 -24.589 -0.11 +0.00    +0.012 C 
DOCKED: ENDBRANCH  12  42
DOCKED: BRANCH  17  44
DOCKED: ATOM     44  C   UNL d   1       8.378  -1.198 -18.861 -0.19 +0.00    +0.004 C 
DOCKED: ATOM     45  C   UNL d   1       8.725  -2.049 -17.890 -0.31 +0.01    +0.012 C 
DOCKED: ENDBRANCH  17  44
DOCKED: TORSDOF 10
DOCKED: TER
DOCKED: ENDMDL
________________________________________________________________________________


	BEGINNING GENETIC ALGORITHM DOCKING 80 of 100
Run: 80 Seed: 764569751 1367664197 [ Run 80 of 100 GA/GALS ]
Beginning LAMARCKIAN GENETIC ALGORITHM (LGA), with a maximum of 25000000 energy evaluations.

Final-Value: -11.198


	FINAL GENETIC ALGORITHM DOCKED STATE
	_______________________________________________


Detailed state:  trans -13.974 -4.462 0.773 quatxyzw -0.817674 0.088188 0.352842 0.446245 center -0.174 -0.001 -0.047 ntor 10 99.3310 147.7324 54.4961 27.1763 73.2882 -97.0750 -112.1286 -150.2840 -60.7877 -27.4160
State:	-13.974  -4.462   0.773  -0.914  0.099  0.394 126.994     99.33  147.73   54.50   27.18   73.29  -97.08 -112.13 -150.28  -60.79  -27.42

DOCKED: MODEL       80
DOCKED: USER    Run = 80
DOCKED: USER    DPF = D:/Protein_go_brrr/autodock/final/mut_D99N/heme_Fe/dock.dpf
DOCKED: USER  
DOCKED: USER    Estimated Free Energy of Binding    =   -6.92 kcal/mol  [=(1)+(2)+(3)-(4)]
DOCKED: USER    Estimated Inhibition Constant, Ki   =    8.49 uM (micromolar)  [Temperature = 298.15 K]
DOCKED: USER    
DOCKED: USER    (1) Final Intermolecular Energy     =   -9.90 kcal/mol
DOCKED: USER        vdW + Hbond + desolv Energy     =   -7.03 kcal/mol
DOCKED: USER        Electrostatic Energy            =   -2.87 kcal/mol
DOCKED: USER    (2) Final Total Internal Energy     =   -1.30 kcal/mol
DOCKED: USER    (3) Torsional Free Energy           =   +2.98 kcal/mol
DOCKED: USER    (4) Unbound System's Energy  [=(2)] =   -1.30 kcal/mol
DOCKED: USER    
DOCKED: USER    
DOCKED: USER    NEWDPF move heme_Fe_opt.pdbqt
DOCKED: USER    NEWDPF about -0.174000 -0.001000 -0.047000
DOCKED: USER    NEWDPF tran0 -13.974127 -4.461591 0.772510
DOCKED: USER    NEWDPF quaternion0 -0.817674 0.088188 0.352842 0.446245
DOCKED: USER    NEWDPF axisangle0 -0.913693 0.098544 0.394276 126.993923
DOCKED: USER    NEWDPF quat0 -0.913693 0.098544 0.394276 126.993923
DOCKED: USER    NEWDPF dihe0 99.33 147.73 54.50 27.18 73.29 -97.08 -112.13 -150.28 -60.79 -27.42 
DOCKED: USER  keepresnum = 1 
DOCKED: USER  
DOCKED: REMARK  10 active torsions:
DOCKED: REMARK  status: ('A' for Active; 'I' for Inactive)
DOCKED: REMARK    1  A    between atoms: C_6  and  C_10 
DOCKED: REMARK    2  A    between atoms: C_10  and  C_11 
DOCKED: REMARK    3  A    between atoms: C_11  and  C_12 
DOCKED: REMARK    4  A    between atoms: C_12  and  O_14 
DOCKED: REMARK    5  A    between atoms: C_17  and  C_20 
DOCKED: REMARK    6  A    between atoms: C_24  and  C_27 
DOCKED: REMARK    7  A    between atoms: C_31  and  C_34 
DOCKED: REMARK    8  A    between atoms: C_34  and  C_35 
DOCKED: REMARK    9  A    between atoms: C_35  and  C_36 
DOCKED: REMARK   10  A    between atoms: C_36  and  O_38 
DOCKED: USER                              x       y       z     vdW  Elec       q    Type
DOCKED: USER                           _______ _______ _______ _____ _____    ______ ____
DOCKED: ROOT
DOCKED: ATOM      1  C   UNL d   1     -15.790  -3.873   1.525 -0.08 +0.04    +0.064 C 
DOCKED: ATOM      2  C   UNL d   1     -13.544  -3.471  -2.860 -0.27 +0.01    +0.064 A 
DOCKED: ATOM      3  C   UNL d   1     -10.373  -6.796  -1.462 -0.22 -0.02    +0.064 C 
DOCKED: ATOM      4  C   UNL d   1     -12.468  -7.124   2.826 -0.11 +0.02    +0.064 C 
DOCKED: ATOM      5  C   UNL d   1     -15.402  -3.390   0.192 -0.09 +0.03    +0.066 A 
DOCKED: ATOM      6  C   UNL d   1     -16.022  -2.353  -0.484 -0.13 -0.01    -0.021 A 
DOCKED: ATOM      7  C   UNL d   1     -15.400  -2.244  -1.703 -0.23 -0.01    -0.025 A 
DOCKED: ATOM      8  C   UNL d   1     -14.423  -3.221  -1.724 -0.18 +0.02    +0.066 A 
DOCKED: ATOM      9  C   UNL d   1     -15.720  -1.244  -2.772 -0.37 +0.00    +0.051 C 
DOCKED: ATOM     10  C   UNL d   1     -12.557  -4.368  -2.884 -0.21 +0.01    +0.066 A 
DOCKED: ATOM     11  C   UNL d   1     -11.807  -4.664  -4.025 -0.31 +0.00    -0.021 A 
DOCKED: ATOM     12  C   UNL d   1     -10.896  -5.632  -3.652 -0.27 -0.00    +0.000 A 
DOCKED: ATOM     13  C   UNL d   1     -11.146  -5.885  -2.292 -0.16 -0.01    +0.070 A 
DOCKED: ATOM     14  C   UNL d   1     -11.994  -4.101  -5.419 -0.48 +0.00    +0.052 C 
DOCKED: ATOM     15  C   UNL d   1     -10.641  -7.082  -0.167 -0.16 -0.01    +0.066 A 
DOCKED: ATOM     16  C   UNL d   1      -9.821  -7.880   0.620 -0.22 +0.01    -0.021 A 
DOCKED: ATOM     17  C   UNL d   1     -10.425  -7.979   1.857 -0.15 +0.00    +0.000 A 
DOCKED: ATOM     18  C   UNL d   1     -11.604  -7.241   1.793 -0.11 +0.01    +0.070 A 
DOCKED: ATOM     19  C   UNL d   1      -8.531  -8.546   0.221 -0.23 -0.03    +0.052 C 
DOCKED: ATOM     20  C   UNL d   1     -13.687  -6.306   2.816 -0.08 +0.04    +0.066 A 
DOCKED: ATOM     21  C   UNL d   1     -14.688  -6.333   3.798 -0.07 -0.01    -0.025 A 
DOCKED: ATOM     22  C   UNL d   1     -15.618  -5.390   3.413 -0.06 -0.01    -0.021 A 
DOCKED: ATOM     23  C   UNL d   1     -15.154  -4.832   2.216 -0.06 +0.05    +0.066 A 
DOCKED: ATOM     24  C   UNL d   1     -14.775  -7.199   5.033 -0.03 +0.02    +0.051 C 
DOCKED: ATOM     25  N   UNL d   1     -14.421  -3.910  -0.565 -0.06 -0.09    -0.248 N 
DOCKED: ATOM     26  N   UNL d   1     -12.164  -5.121  -1.826 -0.07 -0.02    -0.248 N 
DOCKED: ATOM     27  N   UNL d   1     -11.717  -6.653   0.564 -0.06 -0.04    -0.248 N 
DOCKED: ATOM     28  N   UNL d   1     -13.998  -5.427   1.833 -0.07 -0.19    -0.248 N 
DOCKED: ATOM     29 FE   UNL d   1     -13.081  -5.275   0.005 -0.02 +0.00    +0.000 Fe
DOCKED: ENDROOT
DOCKED: BRANCH   6  30
DOCKED: ATOM     30  C   UNL d   1     -17.134  -1.492   0.009 -0.12 +0.01    +0.052 C 
DOCKED: BRANCH  30  31
DOCKED: ATOM     31  C   UNL d   1     -17.093  -1.373   1.528 -0.08 +0.04    +0.115 C 
DOCKED: BRANCH  31  32
DOCKED: ATOM     32  C   UNL d   1     -15.883  -0.592   1.962 -0.12 +0.08    +0.139 C 
DOCKED: ATOM     33  O   UNL d   1     -15.831   0.618   1.799 +0.03 -0.26    -0.650 OA
DOCKED: BRANCH  32  34
DOCKED: ATOM     34  O   UNL d   1     -14.844  -1.222   2.536 -0.11 -1.19    -0.776 OA
DOCKED: ATOM     35  H   UNL d   1     -14.891  -1.446   3.476 +0.01 +0.32    +0.167 HD
DOCKED: ENDBRANCH  32  34
DOCKED: ENDBRANCH  31  32
DOCKED: ENDBRANCH  30  31
DOCKED: ENDBRANCH   6  30
DOCKED: BRANCH  22  36
DOCKED: ATOM     36  C   UNL d   1     -16.904  -5.079   4.133 -0.02 +0.02    +0.052 C 
DOCKED: BRANCH  36  37
DOCKED: ATOM     37  C   UNL d   1     -16.599  -4.389   5.454 -0.03 +0.06    +0.115 C 
DOCKED: BRANCH  37  38
DOCKED: ATOM     38  C   UNL d   1     -15.316  -3.612   5.373 -0.01 +0.16    +0.139 C 
DOCKED: ATOM     39  O   UNL d   1     -14.268  -4.091   5.780 -0.50 -0.96    -0.650 OA
DOCKED: BRANCH  38  40
DOCKED: ATOM     40  O   UNL d   1     -15.314  -2.373   4.851 -0.04 -1.16    -0.776 OA
DOCKED: ATOM     41  H   UNL d   1     -15.936  -2.160   4.141 +0.01 +0.18    +0.167 HD
DOCKED: ENDBRANCH  38  40
DOCKED: ENDBRANCH  37  38
DOCKED: ENDBRANCH  36  37
DOCKED: ENDBRANCH  22  36
DOCKED: BRANCH  12  42
DOCKED: ATOM     42  C   UNL d   1      -9.890  -6.258  -4.566 -0.45 -0.00    +0.004 C 
DOCKED: ATOM     43  C   UNL d   1      -8.604  -5.885  -4.533 -0.57 -0.00    +0.012 C 
DOCKED: ENDBRANCH  12  42
DOCKED: BRANCH  17  44
DOCKED: ATOM     44  C   UNL d   1      -9.897  -8.714   3.028 -0.17 +0.00    +0.004 C 
DOCKED: ATOM     45  C   UNL d   1      -8.963  -8.170   3.815 -0.31 +0.00    +0.012 C 
DOCKED: ENDBRANCH  17  44
DOCKED: TORSDOF 10
DOCKED: TER
DOCKED: ENDMDL
________________________________________________________________________________


	BEGINNING GENETIC ALGORITHM DOCKING 81 of 100
Run: 81 Seed: 888887506 332237630 [ Run 81 of 100 GA/GALS ]
Beginning LAMARCKIAN GENETIC ALGORITHM (LGA), with a maximum of 25000000 energy evaluations.

Final-Value: -17.705


	FINAL GENETIC ALGORITHM DOCKED STATE
	_______________________________________________


Detailed state:  trans -8.999 1.258 1.506 quatxyzw -0.935379 -0.155176 0.249182 -0.197217 center -0.174 -0.001 -0.047 ntor 10 81.6384 -120.2928 31.6676 -139.0822 -179.9677 -111.7952 76.2691 8.5510 -11.6909 138.5059
State:	 -8.999   1.258   1.506  -0.954 -0.158  0.254 -157.251     81.64 -120.29   31.67 -139.08 -179.97 -111.80   76.27    8.55  -11.69  138.51

DOCKED: MODEL       81
DOCKED: USER    Run = 81
DOCKED: USER    DPF = D:/Protein_go_brrr/autodock/final/mut_D99N/heme_Fe/dock.dpf
DOCKED: USER  
DOCKED: USER    Estimated Free Energy of Binding    =  -13.22 kcal/mol  [=(1)+(2)+(3)-(4)]
DOCKED: USER    Estimated Inhibition Constant, Ki   =  202.44 pM (picomolar)  [Temperature = 298.15 K]
DOCKED: USER    
DOCKED: USER    (1) Final Intermolecular Energy     =  -16.21 kcal/mol
DOCKED: USER        vdW + Hbond + desolv Energy     =  -13.38 kcal/mol
DOCKED: USER        Electrostatic Energy            =   -2.82 kcal/mol
DOCKED: USER    (2) Final Total Internal Energy     =   -1.50 kcal/mol
DOCKED: USER    (3) Torsional Free Energy           =   +2.98 kcal/mol
DOCKED: USER    (4) Unbound System's Energy  [=(2)] =   -1.50 kcal/mol
DOCKED: USER    
DOCKED: USER    
DOCKED: USER    NEWDPF move heme_Fe_opt.pdbqt
DOCKED: USER    NEWDPF about -0.174000 -0.001000 -0.047000
DOCKED: USER    NEWDPF tran0 -8.999493 1.257747 1.506369
DOCKED: USER    NEWDPF quaternion0 -0.935379 -0.155176 0.249182 -0.197217
DOCKED: USER    NEWDPF axisangle0 -0.954118 -0.158285 0.254174 -157.251464
DOCKED: USER    NEWDPF quat0 -0.954118 -0.158285 0.254174 -157.251464
DOCKED: USER    NEWDPF dihe0 81.64 -120.29 31.67 -139.08 -179.97 -111.80 76.27 8.55 -11.69 138.51 
DOCKED: USER  keepresnum = 1 
DOCKED: USER  
DOCKED: REMARK  10 active torsions:
DOCKED: REMARK  status: ('A' for Active; 'I' for Inactive)
DOCKED: REMARK    1  A    between atoms: C_6  and  C_10 
DOCKED: REMARK    2  A    between atoms: C_10  and  C_11 
DOCKED: REMARK    3  A    between atoms: C_11  and  C_12 
DOCKED: REMARK    4  A    between atoms: C_12  and  O_14 
DOCKED: REMARK    5  A    between atoms: C_17  and  C_20 
DOCKED: REMARK    6  A    between atoms: C_24  and  C_27 
DOCKED: REMARK    7  A    between atoms: C_31  and  C_34 
DOCKED: REMARK    8  A    between atoms: C_34  and  C_35 
DOCKED: REMARK    9  A    between atoms: C_35  and  C_36 
DOCKED: REMARK   10  A    between atoms: C_36  and  O_38 
DOCKED: USER                              x       y       z     vdW  Elec       q    Type
DOCKED: USER                           _______ _______ _______ _____ _____    ______ ____
DOCKED: ROOT
DOCKED: ATOM      1  C   UNL d   1     -10.931   0.695   1.910 -0.36 +0.03    +0.064 C 
DOCKED: ATOM      2  C   UNL d   1      -8.444   4.963   2.070 -0.42 +0.01    +0.064 A 
DOCKED: ATOM      3  C   UNL d   1      -4.950   2.946  -0.534 -0.40 +0.01    +0.064 C 
DOCKED: ATOM      4  C   UNL d   1      -7.291  -1.226  -0.612 -0.41 +0.01    +0.064 C 
DOCKED: ATOM      5  C   UNL d   1     -10.517   2.058   2.268 -0.17 +0.02    +0.066 A 
DOCKED: ATOM      6  C   UNL d   1     -11.224   2.906   3.105 -0.24 -0.00    -0.021 A 
DOCKED: ATOM      7  C   UNL d   1     -10.535   4.092   3.146 -0.36 -0.00    -0.025 A 
DOCKED: ATOM      8  C   UNL d   1      -9.432   3.923   2.331 -0.37 +0.01    +0.066 A 
DOCKED: ATOM      9  C   UNL d   1     -10.912   5.306   3.940 -0.43 +0.00    +0.051 C 
DOCKED: ATOM     10  C   UNL d   1      -7.342   4.809   1.335 -0.39 +0.01    +0.066 A 
DOCKED: ATOM     11  C   UNL d   1      -6.475   5.854   1.009 -0.47 -0.00    -0.021 A 
DOCKED: ATOM     12  C   UNL d   1      -5.467   5.302   0.244 -0.48 +0.00    +0.000 A 
DOCKED: ATOM     13  C   UNL d   1      -5.779   3.935   0.135 -0.38 +0.01    +0.070 A 
DOCKED: ATOM     14  C   UNL d   1      -6.635   7.322   1.351 -0.54 +0.01    +0.052 C 
DOCKED: ATOM     15  C   UNL d   1      -5.271   1.639  -0.686 -0.39 +0.01    +0.066 A 
DOCKED: ATOM     16  C   UNL d   1      -4.407   0.705  -1.244 -0.36 -0.00    -0.021 A 
DOCKED: ATOM     17  C   UNL d   1      -5.082  -0.498  -1.271 -0.41 +0.00    +0.000 A 
DOCKED: ATOM     18  C   UNL d   1      -6.345  -0.268  -0.731 -0.41 +0.01    +0.070 A 
DOCKED: ATOM     19  C   UNL d   1      -3.011   0.937  -1.756 -0.34 +0.00    +0.052 C 
DOCKED: ATOM     20  C   UNL d   1      -8.608  -1.036   0.006 -0.35 +0.01    +0.066 A 
DOCKED: ATOM     21  C   UNL d   1      -9.666  -1.955  -0.042 -0.05 -0.01    -0.025 A 
DOCKED: ATOM     22  C   UNL d   1     -10.689  -1.393   0.694 -0.15 -0.01    -0.021 A 
DOCKED: ATOM     23  C   UNL d   1     -10.220  -0.157   1.154 -0.35 +0.03    +0.066 A 
DOCKED: ATOM     24  C   UNL d   1      -9.722  -3.292  -0.744 -0.15 +0.01    +0.051 C 
DOCKED: ATOM     25  N   UNL d   1      -9.419   2.682   1.806 -0.16 -0.09    -0.248 N 
DOCKED: ATOM     26  N   UNL d   1      -6.926   3.636   0.792 -0.18 -0.06    -0.248 N 
DOCKED: ATOM     27  N   UNL d   1      -6.447   1.035  -0.332 -0.27 -0.03    -0.248 N 
DOCKED: ATOM     28  N   UNL d   1      -8.966   0.076   0.694 -0.26 -0.07    -0.248 N 
DOCKED: ATOM     29 FE   UNL d   1      -7.946   1.854   0.742 -0.09 +0.00    +0.000 Fe
DOCKED: ENDROOT
DOCKED: BRANCH   6  30
DOCKED: ATOM     30  C   UNL d   1     -12.480   2.599   3.847 -0.23 +0.02    +0.052 C 
DOCKED: BRANCH  30  31
DOCKED: ATOM     31  C   UNL d   1     -12.185   1.757   5.083 -0.10 +0.05    +0.115 C 
DOCKED: BRANCH  31  32
DOCKED: ATOM     32  C   UNL d   1     -12.566   0.322   4.845 -0.10 +0.16    +0.139 C 
DOCKED: ATOM     33  O   UNL d   1     -12.407  -0.519   5.719 -0.40 -0.87    -0.650 OA
DOCKED: BRANCH  32  34
DOCKED: ATOM     34  O   UNL d   1     -13.088  -0.051   3.664 -0.30 -1.33    -0.776 OA
DOCKED: ATOM     35  H   UNL d   1     -14.048  -0.141   3.582 +0.03 +0.24    +0.167 HD
DOCKED: ENDBRANCH  32  34
DOCKED: ENDBRANCH  31  32
DOCKED: ENDBRANCH  30  31
DOCKED: ENDBRANCH   6  30
DOCKED: BRANCH  22  36
DOCKED: ATOM     36  C   UNL d   1     -12.055  -1.991   0.900 +0.13 +0.05    +0.052 C 
DOCKED: BRANCH  36  37
DOCKED: ATOM     37  C   UNL d   1     -13.121  -1.001   0.454 -0.08 +0.08    +0.115 C 
DOCKED: BRANCH  37  38
DOCKED: ATOM     38  C   UNL d   1     -14.495  -1.488   0.818 -0.12 +0.12    +0.139 C 
DOCKED: ATOM     39  O   UNL d   1     -15.288  -1.827  -0.048 -0.00 -0.29    -0.650 OA
DOCKED: BRANCH  38  40
DOCKED: ATOM     40  O   UNL d   1     -14.864  -1.551   2.110 -0.29 -1.17    -0.776 OA
DOCKED: ATOM     41  H   UNL d   1     -14.860  -0.742   2.640 +0.02 +0.20    +0.167 HD
DOCKED: ENDBRANCH  38  40
DOCKED: ENDBRANCH  37  38
DOCKED: ENDBRANCH  36  37
DOCKED: ENDBRANCH  22  36
DOCKED: BRANCH  12  42
DOCKED: ATOM     42  C   UNL d   1      -4.319   6.063  -0.337 -0.64 +0.00    +0.004 C 
DOCKED: ATOM     43  C   UNL d   1      -3.260   6.394   0.414 -0.58 +0.00    +0.012 C 
DOCKED: ENDBRANCH  12  42
DOCKED: BRANCH  17  44
DOCKED: ATOM     44  C   UNL d   1      -4.545  -1.787  -1.761 -0.65 -0.00    +0.004 C 
DOCKED: ATOM     45  C   UNL d   1      -4.600  -2.103  -3.059 -0.73 -0.00    +0.012 C 
DOCKED: ENDBRANCH  17  44
DOCKED: TORSDOF 10
DOCKED: TER
DOCKED: ENDMDL
________________________________________________________________________________


	BEGINNING GENETIC ALGORITHM DOCKING 82 of 100
Run: 82 Seed: 1344651763 2042693222 [ Run 82 of 100 GA/GALS ]
Beginning LAMARCKIAN GENETIC ALGORITHM (LGA), with a maximum of 25000000 energy evaluations.

Final-Value: -12.384


	FINAL GENETIC ALGORITHM DOCKED STATE
	_______________________________________________


Detailed state:  trans 5.407 0.086 -17.961 quatxyzw -0.540845 -0.002405 0.202892 0.816282 center -0.174 -0.001 -0.047 ntor 10 -83.8858 -75.2478 -152.6199 -146.6180 172.4647 -167.9535 41.9360 43.4477 -24.9626 133.8476
State:	  5.407   0.086 -17.961  -0.936 -0.004  0.351 70.571    -83.89  -75.25 -152.62 -146.62  172.46 -167.95   41.94   43.45  -24.96  133.85

DOCKED: MODEL       82
DOCKED: USER    Run = 82
DOCKED: USER    DPF = D:/Protein_go_brrr/autodock/final/mut_D99N/heme_Fe/dock.dpf
DOCKED: USER  
DOCKED: USER    Estimated Free Energy of Binding    =   -6.87 kcal/mol  [=(1)+(2)+(3)-(4)]
DOCKED: USER    Estimated Inhibition Constant, Ki   =    9.14 uM (micromolar)  [Temperature = 298.15 K]
DOCKED: USER    
DOCKED: USER    (1) Final Intermolecular Energy     =   -9.86 kcal/mol
DOCKED: USER        vdW + Hbond + desolv Energy     =   -6.77 kcal/mol
DOCKED: USER        Electrostatic Energy            =   -3.09 kcal/mol
DOCKED: USER    (2) Final Total Internal Energy     =   -2.53 kcal/mol
DOCKED: USER    (3) Torsional Free Energy           =   +2.98 kcal/mol
DOCKED: USER    (4) Unbound System's Energy  [=(2)] =   -2.53 kcal/mol
DOCKED: USER    
DOCKED: USER    
DOCKED: USER    NEWDPF move heme_Fe_opt.pdbqt
DOCKED: USER    NEWDPF about -0.174000 -0.001000 -0.047000
DOCKED: USER    NEWDPF tran0 5.407126 0.085886 -17.961328
DOCKED: USER    NEWDPF quaternion0 -0.540845 -0.002405 0.202892 0.816282
DOCKED: USER    NEWDPF axisangle0 -0.936278 -0.004164 0.351235 70.571392
DOCKED: USER    NEWDPF quat0 -0.936278 -0.004164 0.351235 70.571392
DOCKED: USER    NEWDPF dihe0 -83.89 -75.25 -152.62 -146.62 172.46 -167.95 41.94 43.45 -24.96 133.85 
DOCKED: USER  keepresnum = 1 
DOCKED: USER  
DOCKED: REMARK  10 active torsions:
DOCKED: REMARK  status: ('A' for Active; 'I' for Inactive)
DOCKED: REMARK    1  A    between atoms: C_6  and  C_10 
DOCKED: REMARK    2  A    between atoms: C_10  and  C_11 
DOCKED: REMARK    3  A    between atoms: C_11  and  C_12 
DOCKED: REMARK    4  A    between atoms: C_12  and  O_14 
DOCKED: REMARK    5  A    between atoms: C_17  and  C_20 
DOCKED: REMARK    6  A    between atoms: C_24  and  C_27 
DOCKED: REMARK    7  A    between atoms: C_31  and  C_34 
DOCKED: REMARK    8  A    between atoms: C_34  and  C_35 
DOCKED: REMARK    9  A    between atoms: C_35  and  C_36 
DOCKED: REMARK   10  A    between atoms: C_36  and  O_38 
DOCKED: USER                              x       y       z     vdW  Elec       q    Type
DOCKED: USER                           _______ _______ _______ _____ _____    ______ ____
DOCKED: ROOT
DOCKED: ATOM      1  C   UNL d   1       3.455   0.247 -17.350 -0.20 +0.02    +0.064 C 
DOCKED: ATOM      2  C   UNL d   1       5.738  -1.888 -21.179 -0.11 +0.01    +0.064 A 
DOCKED: ATOM      3  C   UNL d   1       9.917  -1.419 -18.860 -0.12 +0.02    +0.064 C 
DOCKED: ATOM      4  C   UNL d   1       7.742   0.745 -15.189 -0.18 +0.02    +0.064 C 
DOCKED: ATOM      5  C   UNL d   1       3.721  -0.322 -18.679 -0.18 +0.02    +0.066 A 
DOCKED: ATOM      6  C   UNL d   1       2.768  -0.499 -19.668 -0.18 -0.01    -0.021 A 
DOCKED: ATOM      7  C   UNL d   1       3.402  -1.096 -20.730 -0.15 -0.01    -0.025 A 
DOCKED: ATOM      8  C   UNL d   1       4.720  -1.259 -20.347 -0.13 +0.02    +0.066 A 
DOCKED: ATOM      9  C   UNL d   1       2.775  -1.466 -22.039 -0.11 +0.01    +0.051 C 
DOCKED: ATOM     10  C   UNL d   1       7.027  -2.006 -20.857 -0.12 +0.01    +0.066 A 
DOCKED: ATOM     11  C   UNL d   1       7.956  -2.714 -21.624 -0.15 -0.00    -0.021 A 
DOCKED: ATOM     12  C   UNL d   1       9.166  -2.608 -20.968 -0.14 +0.00    +0.000 A 
DOCKED: ATOM     13  C   UNL d   1       8.909  -1.840 -19.819 -0.13 +0.02    +0.070 A 
DOCKED: ATOM     14  C   UNL d   1       7.689  -3.511 -22.884 -0.14 +0.00    +0.052 C 
DOCKED: ATOM     15  C   UNL d   1       9.667  -0.723 -17.725 -0.10 +0.03    +0.066 A 
DOCKED: ATOM     16  C   UNL d   1      10.669  -0.254 -16.886 -0.06 -0.01    -0.021 A 
DOCKED: ATOM     17  C   UNL d   1      10.044   0.368 -15.825 -0.09 +0.00    +0.000 A 
DOCKED: ATOM     18  C   UNL d   1       8.672   0.259 -16.040 -0.12 +0.03    +0.070 A 
DOCKED: ATOM     19  C   UNL d   1      12.157  -0.403 -17.059 -0.07 +0.02    +0.052 C 
DOCKED: ATOM     20  C   UNL d   1       6.292   0.703 -15.412 -0.18 +0.02    +0.066 A 
DOCKED: ATOM     21  C   UNL d   1       5.316   1.018 -14.456 -0.27 -0.01    -0.025 A 
DOCKED: ATOM     22  C   UNL d   1       4.102   0.882 -15.097 -0.25 -0.01    -0.021 A 
DOCKED: ATOM     23  C   UNL d   1       4.383   0.485 -16.410 -0.17 +0.02    +0.066 A 
DOCKED: ATOM     24  C   UNL d   1       5.505   1.423 -13.013 -0.18 +0.01    +0.051 C 
DOCKED: ATOM     25  N   UNL d   1       4.912  -0.778 -19.102 -0.12 -0.07    -0.248 N 
DOCKED: ATOM     26  N   UNL d   1       7.604  -1.480 -19.746 -0.10 -0.05    -0.248 N 
DOCKED: ATOM     27  N   UNL d   1       8.439  -0.373 -17.229 -0.10 -0.09    -0.248 N 
DOCKED: ATOM     28  N   UNL d   1       5.719   0.333 -16.583 -0.07 -0.07    -0.248 N 
DOCKED: ATOM     29 FE   UNL d   1       6.662  -0.573 -18.163 -0.04 +0.00    +0.000 Fe
DOCKED: ENDROOT
DOCKED: BRANCH   6  30
DOCKED: ATOM     30  C   UNL d   1       1.332  -0.104 -19.618 -0.14 +0.04    +0.052 C 
DOCKED: BRANCH  30  31
DOCKED: ATOM     31  C   UNL d   1       1.191   1.411 -19.522 -0.09 +0.06    +0.115 C 
DOCKED: BRANCH  31  32
DOCKED: ATOM     32  C   UNL d   1       0.117   1.778 -18.536 -0.11 +0.12    +0.139 C 
DOCKED: ATOM     33  O   UNL d   1      -0.058   2.944 -18.211 +0.04 -0.39    -0.650 OA
DOCKED: BRANCH  32  34
DOCKED: ATOM     34  O   UNL d   1      -0.663   0.824 -18.002 +0.07 -1.69    -0.776 OA
DOCKED: ATOM     35  H   UNL d   1      -0.433   0.459 -17.137 -0.00 +0.42    +0.167 HD
DOCKED: ENDBRANCH  32  34
DOCKED: ENDBRANCH  31  32
DOCKED: ENDBRANCH  30  31
DOCKED: ENDBRANCH   6  30
DOCKED: BRANCH  22  36
DOCKED: ATOM     36  C   UNL d   1       2.748   1.076 -14.468 -0.40 +0.02    +0.052 C 
DOCKED: BRANCH  36  37
DOCKED: ATOM     37  C   UNL d   1       1.867  -0.130 -14.763 -0.41 +0.06    +0.115 C 
DOCKED: BRANCH  37  38
DOCKED: ATOM     38  C   UNL d   1       0.475   0.298 -15.130 -0.37 +0.14    +0.139 C 
DOCKED: ATOM     39  O   UNL d   1      -0.434  -0.517 -15.191 -0.35 -1.20    -0.650 OA
DOCKED: BRANCH  38  40
DOCKED: ATOM     40  O   UNL d   1       0.219   1.590 -15.402 -0.48 -0.77    -0.776 OA
DOCKED: ATOM     41  H   UNL d   1       0.094   1.862 -16.322 +0.05 +0.15    +0.167 HD
DOCKED: ENDBRANCH  38  40
DOCKED: ENDBRANCH  37  38
DOCKED: ENDBRANCH  36  37
DOCKED: ENDBRANCH  22  36
DOCKED: BRANCH  12  42
DOCKED: ATOM     42  C   UNL d   1      10.447  -3.228 -21.429 -0.10 +0.00    +0.004 C 
DOCKED: ATOM     43  C   UNL d   1      10.940  -4.319 -20.828 -0.13 +0.00    +0.012 C 
DOCKED: ENDBRANCH  12  42
DOCKED: BRANCH  17  44
DOCKED: ATOM     44  C   UNL d   1      10.716   1.040 -14.690 -0.15 +0.00    +0.004 C 
DOCKED: ATOM     45  C   UNL d   1      10.981   0.375 -13.561 -0.24 +0.00    +0.012 C 
DOCKED: ENDBRANCH  17  44
DOCKED: TORSDOF 10
DOCKED: TER
DOCKED: ENDMDL
________________________________________________________________________________


	BEGINNING GENETIC ALGORITHM DOCKING 83 of 100
Run: 83 Seed: 1894598799 1801331742 [ Run 83 of 100 GA/GALS ]
Beginning LAMARCKIAN GENETIC ALGORITHM (LGA), with a maximum of 25000000 energy evaluations.

Final-Value: -16.742


	FINAL GENETIC ALGORITHM DOCKED STATE
	_______________________________________________


Detailed state:  trans -8.863 1.340 1.506 quatxyzw 0.934196 0.157239 -0.251266 0.198540 center -0.174 -0.001 -0.047 ntor 10 -76.0597 126.0596 23.5084 -145.5481 -57.8242 7.8017 -40.4397 -2.1447 -130.9964 110.6046
State:	 -8.863   1.340   1.506   0.953  0.160 -0.256 157.097    -76.06  126.06   23.51 -145.55  -57.82    7.80  -40.44   -2.14 -131.00  110.60

DOCKED: MODEL       83
DOCKED: USER    Run = 83
DOCKED: USER    DPF = D:/Protein_go_brrr/autodock/final/mut_D99N/heme_Fe/dock.dpf
DOCKED: USER  
DOCKED: USER    Estimated Free Energy of Binding    =  -12.77 kcal/mol  [=(1)+(2)+(3)-(4)]
DOCKED: USER    Estimated Inhibition Constant, Ki   =  439.56 pM (picomolar)  [Temperature = 298.15 K]
DOCKED: USER    
DOCKED: USER    (1) Final Intermolecular Energy     =  -15.75 kcal/mol
DOCKED: USER        vdW + Hbond + desolv Energy     =  -13.47 kcal/mol
DOCKED: USER        Electrostatic Energy            =   -2.28 kcal/mol
DOCKED: USER    (2) Final Total Internal Energy     =   -0.99 kcal/mol
DOCKED: USER    (3) Torsional Free Energy           =   +2.98 kcal/mol
DOCKED: USER    (4) Unbound System's Energy  [=(2)] =   -0.99 kcal/mol
DOCKED: USER    
DOCKED: USER    
DOCKED: USER    NEWDPF move heme_Fe_opt.pdbqt
DOCKED: USER    NEWDPF about -0.174000 -0.001000 -0.047000
DOCKED: USER    NEWDPF tran0 -8.862812 1.340070 1.506326
DOCKED: USER    NEWDPF quaternion0 0.934196 0.157239 -0.251266 0.198540
DOCKED: USER    NEWDPF axisangle0 0.953171 0.160433 -0.256370 157.096773
DOCKED: USER    NEWDPF quat0 0.953171 0.160433 -0.256370 157.096773
DOCKED: USER    NEWDPF dihe0 -76.06 126.06 23.51 -145.55 -57.82 7.80 -40.44 -2.14 -131.00 110.60 
DOCKED: USER  keepresnum = 1 
DOCKED: USER  
DOCKED: REMARK  10 active torsions:
DOCKED: REMARK  status: ('A' for Active; 'I' for Inactive)
DOCKED: REMARK    1  A    between atoms: C_6  and  C_10 
DOCKED: REMARK    2  A    between atoms: C_10  and  C_11 
DOCKED: REMARK    3  A    between atoms: C_11  and  C_12 
DOCKED: REMARK    4  A    between atoms: C_12  and  O_14 
DOCKED: REMARK    5  A    between atoms: C_17  and  C_20 
DOCKED: REMARK    6  A    between atoms: C_24  and  C_27 
DOCKED: REMARK    7  A    between atoms: C_31  and  C_34 
DOCKED: REMARK    8  A    between atoms: C_34  and  C_35 
DOCKED: REMARK    9  A    between atoms: C_35  and  C_36 
DOCKED: REMARK   10  A    between atoms: C_36  and  O_38 
DOCKED: USER                              x       y       z     vdW  Elec       q    Type
DOCKED: USER                           _______ _______ _______ _____ _____    ______ ____
DOCKED: ROOT
DOCKED: ATOM      1  C   UNL d   1     -10.790   0.767   1.916 -0.35 +0.03    +0.064 C 
DOCKED: ATOM      2  C   UNL d   1      -8.322   5.046   2.080 -0.43 +0.01    +0.064 A 
DOCKED: ATOM      3  C   UNL d   1      -4.829   3.052  -0.545 -0.37 +0.01    +0.064 C 
DOCKED: ATOM      4  C   UNL d   1      -7.152  -1.129  -0.627 -0.44 +0.01    +0.064 C 
DOCKED: ATOM      5  C   UNL d   1     -10.380   2.132   2.277 -0.13 +0.02    +0.066 A 
DOCKED: ATOM      6  C   UNL d   1     -11.088   2.973   3.119 -0.22 -0.00    -0.021 A 
DOCKED: ATOM      7  C   UNL d   1     -10.404   4.162   3.161 -0.38 -0.00    -0.025 A 
DOCKED: ATOM      8  C   UNL d   1      -9.303   4.001   2.342 -0.38 +0.01    +0.066 A 
DOCKED: ATOM      9  C   UNL d   1     -10.783   5.371   3.961 -0.45 +0.00    +0.051 C 
DOCKED: ATOM     10  C   UNL d   1      -7.222   4.899   1.340 -0.40 +0.01    +0.066 A 
DOCKED: ATOM     11  C   UNL d   1      -6.361   5.949   1.014 -0.47 -0.00    -0.021 A 
DOCKED: ATOM     12  C   UNL d   1      -5.354   5.404   0.243 -0.49 +0.00    +0.000 A 
DOCKED: ATOM     13  C   UNL d   1      -5.660   4.036   0.131 -0.38 +0.01    +0.070 A 
DOCKED: ATOM     14  C   UNL d   1      -6.526   7.415   1.362 -0.55 +0.01    +0.052 C 
DOCKED: ATOM     15  C   UNL d   1      -5.145   1.745  -0.700 -0.38 +0.01    +0.066 A 
DOCKED: ATOM     16  C   UNL d   1      -4.279   0.817  -1.265 -0.37 -0.00    -0.021 A 
DOCKED: ATOM     17  C   UNL d   1      -4.949  -0.389  -1.292 -0.40 +0.00    +0.000 A 
DOCKED: ATOM     18  C   UNL d   1      -6.211  -0.167  -0.747 -0.40 +0.01    +0.070 A 
DOCKED: ATOM     19  C   UNL d   1      -2.886   1.057  -1.782 -0.30 +0.00    +0.052 C 
DOCKED: ATOM     20  C   UNL d   1      -8.468  -0.947  -0.003 -0.35 +0.01    +0.066 A 
DOCKED: ATOM     21  C   UNL d   1      -9.521  -1.870  -0.050 -0.11 -0.01    -0.025 A 
DOCKED: ATOM     22  C   UNL d   1     -10.544  -1.315   0.692 -0.17 -0.01    -0.021 A 
DOCKED: ATOM     23  C   UNL d   1     -10.078  -0.078   1.155 -0.36 +0.03    +0.066 A 
DOCKED: ATOM     24  C   UNL d   1      -9.575  -3.205  -0.756 -0.10 +0.01    +0.051 C 
DOCKED: ATOM     25  N   UNL d   1      -9.287   2.761   1.813 -0.13 -0.09    -0.248 N 
DOCKED: ATOM     26  N   UNL d   1      -6.803   3.730   0.792 -0.24 -0.06    -0.248 N 
DOCKED: ATOM     27  N   UNL d   1      -6.317   1.135  -0.343 -0.27 -0.03    -0.248 N 
DOCKED: ATOM     28  N   UNL d   1      -8.828   0.161   0.690 -0.26 -0.06    -0.248 N 
DOCKED: ATOM     29 FE   UNL d   1      -7.815   1.944   0.740 -0.09 +0.00    +0.000 Fe
DOCKED: ENDROOT
DOCKED: BRANCH   6  30
DOCKED: ATOM     30  C   UNL d   1     -12.339   2.658   3.865 -0.24 +0.02    +0.052 C 
DOCKED: BRANCH  30  31
DOCKED: ATOM     31  C   UNL d   1     -13.305   1.867   2.990 -0.22 +0.05    +0.115 C 
DOCKED: BRANCH  31  32
DOCKED: ATOM     32  C   UNL d   1     -13.973   0.783   3.790 -0.14 +0.11    +0.139 C 
DOCKED: ATOM     33  O   UNL d   1     -13.307  -0.071   4.359 -0.39 -1.04    -0.650 OA
DOCKED: BRANCH  32  34
DOCKED: ATOM     34  O   UNL d   1     -15.312   0.743   3.886 +0.04 -0.43    -0.776 OA
DOCKED: ATOM     35  H   UNL d   1     -15.801   0.089   3.366 +0.02 +0.10    +0.167 HD
DOCKED: ENDBRANCH  32  34
DOCKED: ENDBRANCH  31  32
DOCKED: ENDBRANCH  30  31
DOCKED: ENDBRANCH   6  30
DOCKED: BRANCH  22  36
DOCKED: ATOM     36  C   UNL d   1     -11.907  -1.920   0.902 +0.06 +0.05    +0.052 C 
DOCKED: BRANCH  36  37
DOCKED: ATOM     37  C   UNL d   1     -12.926  -0.816   1.142 -0.16 +0.11    +0.115 C 
DOCKED: BRANCH  37  38
DOCKED: ATOM     38  C   UNL d   1     -14.311  -1.383   1.283 -0.07 +0.16    +0.139 C 
DOCKED: ATOM     39  O   UNL d   1     -14.489  -2.590   1.343 -0.54 -0.95    -0.650 OA
DOCKED: BRANCH  38  40
DOCKED: ATOM     40  O   UNL d   1     -15.371  -0.557   1.341 +0.05 -0.47    -0.776 OA
DOCKED: ATOM     41  H   UNL d   1     -15.382   0.148   2.003 +0.03 +0.09    +0.167 HD
DOCKED: ENDBRANCH  38  40
DOCKED: ENDBRANCH  37  38
DOCKED: ENDBRANCH  36  37
DOCKED: ENDBRANCH  22  36
DOCKED: BRANCH  12  42
DOCKED: ATOM     42  C   UNL d   1      -4.211   6.172  -0.341 -0.65 +0.00    +0.004 C 
DOCKED: ATOM     43  C   UNL d   1      -3.229   6.645   0.438 -0.52 +0.00    +0.012 C 
DOCKED: ENDBRANCH  12  42
DOCKED: BRANCH  17  44
DOCKED: ATOM     44  C   UNL d   1      -4.408  -1.674  -1.789 -0.65 -0.00    +0.004 C 
DOCKED: ATOM     45  C   UNL d   1      -4.580  -2.043  -3.063 -0.72 -0.00    +0.012 C 
DOCKED: ENDBRANCH  17  44
DOCKED: TORSDOF 10
DOCKED: TER
DOCKED: ENDMDL
________________________________________________________________________________


	BEGINNING GENETIC ALGORITHM DOCKING 84 of 100
Run: 84 Seed: 1754526331 2075238382 [ Run 84 of 100 GA/GALS ]
Beginning LAMARCKIAN GENETIC ALGORITHM (LGA), with a maximum of 25000000 energy evaluations.

Final-Value: -17.421


	FINAL GENETIC ALGORITHM DOCKED STATE
	_______________________________________________


Detailed state:  trans -9.010 1.252 1.500 quatxyzw 0.935917 0.152048 -0.249149 0.197144 center -0.174 -0.001 -0.047 ntor 10 66.7536 -122.7877 30.5183 -137.1489 165.7662 -143.6034 85.0771 20.8148 -11.6792 160.8270
State:	 -9.010   1.252   1.500   0.955  0.155 -0.254 157.260     66.75 -122.79   30.52 -137.15  165.77 -143.60   85.08   20.81  -11.68  160.83

DOCKED: MODEL       84
DOCKED: USER    Run = 84
DOCKED: USER    DPF = D:/Protein_go_brrr/autodock/final/mut_D99N/heme_Fe/dock.dpf
DOCKED: USER  
DOCKED: USER    Estimated Free Energy of Binding    =  -12.96 kcal/mol  [=(1)+(2)+(3)-(4)]
DOCKED: USER    Estimated Inhibition Constant, Ki   =  315.91 pM (picomolar)  [Temperature = 298.15 K]
DOCKED: USER    
DOCKED: USER    (1) Final Intermolecular Energy     =  -15.94 kcal/mol
DOCKED: USER        vdW + Hbond + desolv Energy     =  -13.31 kcal/mol
DOCKED: USER        Electrostatic Energy            =   -2.63 kcal/mol
DOCKED: USER    (2) Final Total Internal Energy     =   -1.48 kcal/mol
DOCKED: USER    (3) Torsional Free Energy           =   +2.98 kcal/mol
DOCKED: USER    (4) Unbound System's Energy  [=(2)] =   -1.48 kcal/mol
DOCKED: USER    
DOCKED: USER    
DOCKED: USER    NEWDPF move heme_Fe_opt.pdbqt
DOCKED: USER    NEWDPF about -0.174000 -0.001000 -0.047000
DOCKED: USER    NEWDPF tran0 -9.010325 1.251817 1.500236
DOCKED: USER    NEWDPF quaternion0 0.935917 0.152048 -0.249149 0.197144
DOCKED: USER    NEWDPF axisangle0 0.954652 0.155091 -0.254137 157.259976
DOCKED: USER    NEWDPF quat0 0.954652 0.155091 -0.254137 157.259976
DOCKED: USER    NEWDPF dihe0 66.75 -122.79 30.52 -137.15 165.77 -143.60 85.08 20.81 -11.68 160.83 
DOCKED: USER  keepresnum = 1 
DOCKED: USER  
DOCKED: REMARK  10 active torsions:
DOCKED: REMARK  status: ('A' for Active; 'I' for Inactive)
DOCKED: REMARK    1  A    between atoms: C_6  and  C_10 
DOCKED: REMARK    2  A    between atoms: C_10  and  C_11 
DOCKED: REMARK    3  A    between atoms: C_11  and  C_12 
DOCKED: REMARK    4  A    between atoms: C_12  and  O_14 
DOCKED: REMARK    5  A    between atoms: C_17  and  C_20 
DOCKED: REMARK    6  A    between atoms: C_24  and  C_27 
DOCKED: REMARK    7  A    between atoms: C_31  and  C_34 
DOCKED: REMARK    8  A    between atoms: C_34  and  C_35 
DOCKED: REMARK    9  A    between atoms: C_35  and  C_36 
DOCKED: REMARK   10  A    between atoms: C_36  and  O_38 
DOCKED: USER                              x       y       z     vdW  Elec       q    Type
DOCKED: USER                           _______ _______ _______ _____ _____    ______ ____
DOCKED: ROOT
DOCKED: ATOM      1  C   UNL d   1     -10.945   0.701   1.907 -0.37 +0.03    +0.064 C 
DOCKED: ATOM      2  C   UNL d   1      -8.433   4.955   2.057 -0.42 +0.01    +0.064 A 
DOCKED: ATOM      3  C   UNL d   1      -4.952   2.911  -0.547 -0.40 +0.01    +0.064 C 
DOCKED: ATOM      4  C   UNL d   1      -7.318  -1.246  -0.615 -0.40 +0.01    +0.064 C 
DOCKED: ATOM      5  C   UNL d   1     -10.522   2.063   2.261 -0.18 +0.02    +0.066 A 
DOCKED: ATOM      6  C   UNL d   1     -11.223   2.916   3.098 -0.24 -0.00    -0.021 A 
DOCKED: ATOM      7  C   UNL d   1     -10.527   4.099   3.136 -0.36 -0.00    -0.025 A 
DOCKED: ATOM      8  C   UNL d   1      -9.426   3.922   2.320 -0.37 +0.01    +0.066 A 
DOCKED: ATOM      9  C   UNL d   1     -10.896   5.316   3.927 -0.43 +0.00    +0.051 C 
DOCKED: ATOM     10  C   UNL d   1      -7.332   4.792   1.321 -0.39 +0.01    +0.066 A 
DOCKED: ATOM     11  C   UNL d   1      -6.459   5.832   0.992 -0.47 -0.00    -0.021 A 
DOCKED: ATOM     12  C   UNL d   1      -5.455   5.272   0.227 -0.48 +0.00    +0.000 A 
DOCKED: ATOM     13  C   UNL d   1      -5.775   3.907   0.121 -0.38 +0.01    +0.070 A 
DOCKED: ATOM     14  C   UNL d   1      -6.610   7.301   1.332 -0.53 +0.01    +0.052 C 
DOCKED: ATOM     15  C   UNL d   1      -5.282   1.607  -0.697 -0.39 +0.01    +0.066 A 
DOCKED: ATOM     16  C   UNL d   1      -4.424   0.667  -1.253 -0.37 -0.00    -0.021 A 
DOCKED: ATOM     17  C   UNL d   1      -5.106  -0.532  -1.277 -0.42 +0.00    +0.000 A 
DOCKED: ATOM     18  C   UNL d   1      -6.367  -0.294  -0.737 -0.41 +0.01    +0.070 A 
DOCKED: ATOM     19  C   UNL d   1      -3.027   0.889  -1.767 -0.37 +0.00    +0.052 C 
DOCKED: ATOM     20  C   UNL d   1      -8.634  -1.047   0.004 -0.34 +0.01    +0.066 A 
DOCKED: ATOM     21  C   UNL d   1      -9.697  -1.960  -0.041 -0.04 -0.01    -0.025 A 
DOCKED: ATOM     22  C   UNL d   1     -10.716  -1.390   0.694 -0.14 -0.01    -0.021 A 
DOCKED: ATOM     23  C   UNL d   1     -10.239  -0.156   1.152 -0.35 +0.03    +0.066 A 
DOCKED: ATOM     24  C   UNL d   1      -9.762  -3.298  -0.740 -0.16 +0.01    +0.051 C 
DOCKED: ATOM     25  N   UNL d   1      -9.421   2.679   1.798 -0.16 -0.09    -0.248 N 
DOCKED: ATOM     26  N   UNL d   1      -6.924   3.616   0.780 -0.18 -0.06    -0.248 N 
DOCKED: ATOM     27  N   UNL d   1      -6.461   1.010  -0.340 -0.27 -0.03    -0.248 N 
DOCKED: ATOM     28  N   UNL d   1      -8.985   0.068   0.690 -0.26 -0.07    -0.248 N 
DOCKED: ATOM     29 FE   UNL d   1      -7.954   1.840   0.734 -0.09 +0.00    +0.000 Fe
DOCKED: ENDROOT
DOCKED: BRANCH   6  30
DOCKED: ATOM     30  C   UNL d   1     -12.480   2.618   3.841 -0.23 +0.02    +0.052 C 
DOCKED: BRANCH  30  31
DOCKED: ATOM     31  C   UNL d   1     -12.190   1.777   5.079 -0.11 +0.05    +0.115 C 
DOCKED: BRANCH  31  32
DOCKED: ATOM     32  C   UNL d   1     -12.376   0.316   4.777 -0.06 +0.16    +0.139 C 
DOCKED: ATOM     33  O   UNL d   1     -11.948  -0.538   5.542 -0.48 -0.90    -0.650 OA
DOCKED: BRANCH  32  34
DOCKED: ATOM     34  O   UNL d   1     -13.016  -0.066   3.660 -0.31 -1.35    -0.776 OA
DOCKED: ATOM     35  H   UNL d   1     -13.871  -0.514   3.738 +0.02 +0.33    +0.167 HD
DOCKED: ENDBRANCH  32  34
DOCKED: ENDBRANCH  31  32
DOCKED: ENDBRANCH  30  31
DOCKED: ENDBRANCH   6  30
DOCKED: BRANCH  22  36
DOCKED: ATOM     36  C   UNL d   1     -12.086  -1.979   0.903 +0.12 +0.06    +0.052 C 
DOCKED: BRANCH  36  37
DOCKED: ATOM     37  C   UNL d   1     -13.088  -1.284  -0.007 +0.04 +0.07    +0.115 C 
DOCKED: BRANCH  37  38
DOCKED: ATOM     38  C   UNL d   1     -14.492  -1.478   0.490 -0.07 +0.10    +0.139 C 
DOCKED: ATOM     39  O   UNL d   1     -15.419  -1.620  -0.294 +0.02 -0.24    -0.650 OA
DOCKED: BRANCH  38  40
DOCKED: ATOM     40  O   UNL d   1     -14.740  -1.492   1.812 -0.33 -1.05    -0.776 OA
DOCKED: ATOM     41  H   UNL d   1     -14.480  -0.730   2.347 +0.02 +0.22    +0.167 HD
DOCKED: ENDBRANCH  38  40
DOCKED: ENDBRANCH  37  38
DOCKED: ENDBRANCH  36  37
DOCKED: ENDBRANCH  22  36
DOCKED: BRANCH  12  42
DOCKED: ATOM     42  C   UNL d   1      -4.302   6.025  -0.357 -0.64 +0.00    +0.004 C 
DOCKED: ATOM     43  C   UNL d   1      -3.251   6.371   0.398 -0.57 +0.00    +0.012 C 
DOCKED: ENDBRANCH  12  42
DOCKED: BRANCH  17  44
DOCKED: ATOM     44  C   UNL d   1      -4.577  -1.826  -1.765 -0.65 -0.00    +0.004 C 
DOCKED: ATOM     45  C   UNL d   1      -4.600  -2.128  -3.067 -0.73 -0.00    +0.012 C 
DOCKED: ENDBRANCH  17  44
DOCKED: TORSDOF 10
DOCKED: TER
DOCKED: ENDMDL
________________________________________________________________________________


	BEGINNING GENETIC ALGORITHM DOCKING 85 of 100
Run: 85 Seed: 625431031 1831014033 [ Run 85 of 100 GA/GALS ]
Beginning LAMARCKIAN GENETIC ALGORITHM (LGA), with a maximum of 25000000 energy evaluations.

Final-Value: -12.412


	FINAL GENETIC ALGORITHM DOCKED STATE
	_______________________________________________


Detailed state:  trans -15.577 4.973 4.306 quatxyzw 0.578676 0.775024 0.154256 -0.201687 center -0.174 -0.001 -0.047 ntor 10 -58.5091 116.6984 -175.0833 53.6589 107.0274 -169.9400 -48.3208 -27.4805 -173.3317 15.5622
State:	-15.577   4.973   4.306   0.591  0.791  0.157 -156.729    -58.51  116.70 -175.08   53.66  107.03 -169.94  -48.32  -27.48 -173.33   15.56

DOCKED: MODEL       85
DOCKED: USER    Run = 85
DOCKED: USER    DPF = D:/Protein_go_brrr/autodock/final/mut_D99N/heme_Fe/dock.dpf
DOCKED: USER  
DOCKED: USER    Estimated Free Energy of Binding    =   -7.68 kcal/mol  [=(1)+(2)+(3)-(4)]
DOCKED: USER    Estimated Inhibition Constant, Ki   =    2.35 uM (micromolar)  [Temperature = 298.15 K]
DOCKED: USER    
DOCKED: USER    (1) Final Intermolecular Energy     =  -10.66 kcal/mol
DOCKED: USER        vdW + Hbond + desolv Energy     =   -7.53 kcal/mol
DOCKED: USER        Electrostatic Energy            =   -3.13 kcal/mol
DOCKED: USER    (2) Final Total Internal Energy     =   -1.75 kcal/mol
DOCKED: USER    (3) Torsional Free Energy           =   +2.98 kcal/mol
DOCKED: USER    (4) Unbound System's Energy  [=(2)] =   -1.75 kcal/mol
DOCKED: USER    
DOCKED: USER    
DOCKED: USER    NEWDPF move heme_Fe_opt.pdbqt
DOCKED: USER    NEWDPF about -0.174000 -0.001000 -0.047000
DOCKED: USER    NEWDPF tran0 -15.577166 4.973184 4.306061
DOCKED: USER    NEWDPF quaternion0 0.578676 0.775024 0.154256 -0.201687
DOCKED: USER    NEWDPF axisangle0 0.590817 0.791285 0.157492 -156.728753
DOCKED: USER    NEWDPF quat0 0.590817 0.791285 0.157492 -156.728753
DOCKED: USER    NEWDPF dihe0 -58.51 116.70 -175.08 53.66 107.03 -169.94 -48.32 -27.48 -173.33 15.56 
DOCKED: USER  keepresnum = 1 
DOCKED: USER  
DOCKED: REMARK  10 active torsions:
DOCKED: REMARK  status: ('A' for Active; 'I' for Inactive)
DOCKED: REMARK    1  A    between atoms: C_6  and  C_10 
DOCKED: REMARK    2  A    between atoms: C_10  and  C_11 
DOCKED: REMARK    3  A    between atoms: C_11  and  C_12 
DOCKED: REMARK    4  A    between atoms: C_12  and  O_14 
DOCKED: REMARK    5  A    between atoms: C_17  and  C_20 
DOCKED: REMARK    6  A    between atoms: C_24  and  C_27 
DOCKED: REMARK    7  A    between atoms: C_31  and  C_34 
DOCKED: REMARK    8  A    between atoms: C_34  and  C_35 
DOCKED: REMARK    9  A    between atoms: C_35  and  C_36 
DOCKED: REMARK   10  A    between atoms: C_36  and  O_38 
DOCKED: USER                              x       y       z     vdW  Elec       q    Type
DOCKED: USER                           _______ _______ _______ _____ _____    ______ ____
DOCKED: ROOT
DOCKED: ATOM      1  C   UNL d   1     -14.872   3.059   4.080 -0.14 +0.01    +0.064 C 
DOCKED: ATOM      2  C   UNL d   1     -18.652   5.621   2.189 -0.20 +0.01    +0.064 A 
DOCKED: ATOM      3  C   UNL d   1     -16.610   9.670   3.772 -0.16 -0.01    +0.064 C 
DOCKED: ATOM      4  C   UNL d   1     -12.996   7.201   5.702 -0.21 -0.01    +0.064 C 
DOCKED: ATOM      5  C   UNL d   1     -16.167   3.397   3.474 -0.14 +0.01    +0.066 A 
DOCKED: ATOM      6  C   UNL d   1     -17.086   2.473   3.005 -0.13 -0.00    -0.021 A 
DOCKED: ATOM      7  C   UNL d   1     -18.134   3.186   2.476 -0.14 -0.00    -0.025 A 
DOCKED: ATOM      8  C   UNL d   1     -17.814   4.519   2.644 -0.18 +0.01    +0.066 A 
DOCKED: ATOM      9  C   UNL d   1     -19.374   2.609   1.866 -0.11 +0.01    +0.051 C 
DOCKED: ATOM     10  C   UNL d   1     -18.394   6.915   2.388 -0.22 +0.01    +0.066 A 
DOCKED: ATOM     11  C   UNL d   1     -19.156   7.950   1.841 -0.22 -0.00    -0.021 A 
DOCKED: ATOM     12  C   UNL d   1     -18.578   9.129   2.269 -0.18 -0.00    +0.000 A 
DOCKED: ATOM     13  C   UNL d   1     -17.477   8.748   3.056 -0.17 -0.00    +0.070 A 
DOCKED: ATOM     14  C   UNL d   1     -20.337   7.824   0.900 -0.19 +0.02    +0.052 C 
DOCKED: ATOM     15  C   UNL d   1     -15.519   9.311   4.488 -0.12 -0.01    +0.066 A 
DOCKED: ATOM     16  C   UNL d   1     -14.774  10.212   5.239 -0.12 +0.00    -0.021 A 
DOCKED: ATOM     17  C   UNL d   1     -13.729   9.502   5.793 -0.24 -0.00    +0.000 A 
DOCKED: ATOM     18  C   UNL d   1     -13.859   8.184   5.364 -0.19 -0.01    +0.070 A 
DOCKED: ATOM     19  C   UNL d   1     -15.018  11.687   5.409 -0.10 -0.01    +0.052 C 
DOCKED: ATOM     20  C   UNL d   1     -13.134   5.790   5.319 -0.19 +0.00    +0.066 A 
DOCKED: ATOM     21  C   UNL d   1     -12.152   4.805   5.490 -0.27 -0.00    -0.025 A 
DOCKED: ATOM     22  C   UNL d   1     -12.713   3.630   5.033 -0.19 -0.00    -0.021 A 
DOCKED: ATOM     23  C   UNL d   1     -14.006   3.945   4.598 -0.12 +0.01    +0.066 A 
DOCKED: ATOM     24  C   UNL d   1     -10.756   4.951   6.049 -0.43 -0.00    +0.051 C 
DOCKED: ATOM     25  N   UNL d   1     -16.621   4.645   3.259 -0.10 -0.03    -0.248 N 
DOCKED: ATOM     26  N   UNL d   1     -17.360   7.399   3.122 -0.13 -0.01    -0.248 N 
DOCKED: ATOM     27  N   UNL d   1     -14.983   8.056   4.597 -0.06 +0.01    -0.248 N 
DOCKED: ATOM     28  N   UNL d   1     -14.241   5.272   4.733 -0.04 -0.02    -0.248 N 
DOCKED: ATOM     29 FE   UNL d   1     -15.799   6.336   3.928 -0.04 +0.00    +0.000 Fe
DOCKED: ENDROOT
DOCKED: BRANCH   6  30
DOCKED: ATOM     30  C   UNL d   1     -16.986   0.988   3.074 -0.10 +0.02    +0.052 C 
DOCKED: BRANCH  30  31
DOCKED: ATOM     31  C   UNL d   1     -16.165   0.447   1.908 -0.07 +0.04    +0.115 C 
DOCKED: BRANCH  31  32
DOCKED: ATOM     32  C   UNL d   1     -15.131  -0.527   2.400 -0.13 +0.13    +0.139 C 
DOCKED: ATOM     33  O   UNL d   1     -15.261  -1.727   2.204 -0.38 -0.85    -0.650 OA
DOCKED: BRANCH  32  34
DOCKED: ATOM     34  O   UNL d   1     -14.049  -0.085   3.064 -0.05 -0.98    -0.776 OA
DOCKED: ATOM     35  H   UNL d   1     -13.883  -0.409   3.960 +0.02 +0.31    +0.167 HD
DOCKED: ENDBRANCH  32  34
DOCKED: ENDBRANCH  31  32
DOCKED: ENDBRANCH  30  31
DOCKED: ENDBRANCH   6  30
DOCKED: BRANCH  22  36
DOCKED: ATOM     36  C   UNL d   1     -12.025   2.292   4.974 -0.07 +0.02    +0.052 C 
DOCKED: BRANCH  36  37
DOCKED: ATOM     37  C   UNL d   1     -12.674   1.336   5.964 -0.17 +0.06    +0.115 C 
DOCKED: BRANCH  37  38
DOCKED: ATOM     38  C   UNL d   1     -12.542  -0.088   5.504 -0.13 +0.16    +0.139 C 
DOCKED: ATOM     39  O   UNL d   1     -13.152  -0.986   6.066 -0.13 -0.89    -0.650 OA
DOCKED: BRANCH  38  40
DOCKED: ATOM     40  O   UNL d   1     -11.741  -0.387   4.466 -0.41 -1.38    -0.776 OA
DOCKED: ATOM     41  H   UNL d   1     -11.951  -0.027   3.592 +0.04 +0.25    +0.167 HD
DOCKED: ENDBRANCH  38  40
DOCKED: ENDBRANCH  37  38
DOCKED: ENDBRANCH  36  37
DOCKED: ENDBRANCH  22  36
DOCKED: BRANCH  12  42
DOCKED: ATOM     42  C   UNL d   1     -19.062  10.498   1.913 -0.16 -0.00    +0.004 C 
DOCKED: ATOM     43  C   UNL d   1     -18.231  11.409   1.391 -0.17 -0.00    +0.012 C 
DOCKED: ENDBRANCH  12  42
DOCKED: BRANCH  17  44
DOCKED: ATOM     44  C   UNL d   1     -12.686  10.047   6.692 -0.42 -0.00    +0.004 C 
DOCKED: ATOM     45  C   UNL d   1     -12.682   9.748   7.996 -0.50 -0.00    +0.012 C 
DOCKED: ENDBRANCH  17  44
DOCKED: TORSDOF 10
DOCKED: TER
DOCKED: ENDMDL
________________________________________________________________________________


	BEGINNING GENETIC ALGORITHM DOCKING 86 of 100
Run: 86 Seed: 325231382 1231308609 [ Run 86 of 100 GA/GALS ]
Beginning LAMARCKIAN GENETIC ALGORITHM (LGA), with a maximum of 25000000 energy evaluations.

Final-Value: -10.972


	FINAL GENETIC ALGORITHM DOCKED STATE
	_______________________________________________


Detailed state:  trans 15.680 -8.819 7.823 quatxyzw 0.158872 -0.931196 -0.312032 -0.101343 center -0.174 -0.001 -0.047 ntor 10 141.0119 -156.7624 168.5504 -157.0281 111.5465 80.6136 -62.5933 -83.4488 -13.9766 177.0358
State:	 15.680  -8.819   7.823   0.160 -0.936 -0.314 -168.367    141.01 -156.76  168.55 -157.03  111.55   80.61  -62.59  -83.45  -13.98  177.04

DOCKED: MODEL       86
DOCKED: USER    Run = 86
DOCKED: USER    DPF = D:/Protein_go_brrr/autodock/final/mut_D99N/heme_Fe/dock.dpf
DOCKED: USER  
DOCKED: USER    Estimated Free Energy of Binding    =   -7.27 kcal/mol  [=(1)+(2)+(3)-(4)]
DOCKED: USER    Estimated Inhibition Constant, Ki   =    4.71 uM (micromolar)  [Temperature = 298.15 K]
DOCKED: USER    
DOCKED: USER    (1) Final Intermolecular Energy     =  -10.25 kcal/mol
DOCKED: USER        vdW + Hbond + desolv Energy     =   -9.40 kcal/mol
DOCKED: USER        Electrostatic Energy            =   -0.85 kcal/mol
DOCKED: USER    (2) Final Total Internal Energy     =   -0.72 kcal/mol
DOCKED: USER    (3) Torsional Free Energy           =   +2.98 kcal/mol
DOCKED: USER    (4) Unbound System's Energy  [=(2)] =   -0.72 kcal/mol
DOCKED: USER    
DOCKED: USER    
DOCKED: USER    NEWDPF move heme_Fe_opt.pdbqt
DOCKED: USER    NEWDPF about -0.174000 -0.001000 -0.047000
DOCKED: USER    NEWDPF tran0 15.679725 -8.818604 7.823219
DOCKED: USER    NEWDPF quaternion0 0.158872 -0.931196 -0.312032 -0.101343
DOCKED: USER    NEWDPF axisangle0 0.159694 -0.936015 -0.313646 -168.366949
DOCKED: USER    NEWDPF quat0 0.159694 -0.936015 -0.313646 -168.366949
DOCKED: USER    NEWDPF dihe0 141.01 -156.76 168.55 -157.03 111.55 80.61 -62.59 -83.45 -13.98 177.04 
DOCKED: USER  keepresnum = 1 
DOCKED: USER  
DOCKED: REMARK  10 active torsions:
DOCKED: REMARK  status: ('A' for Active; 'I' for Inactive)
DOCKED: REMARK    1  A    between atoms: C_6  and  C_10 
DOCKED: REMARK    2  A    between atoms: C_10  and  C_11 
DOCKED: REMARK    3  A    between atoms: C_11  and  C_12 
DOCKED: REMARK    4  A    between atoms: C_12  and  O_14 
DOCKED: REMARK    5  A    between atoms: C_17  and  C_20 
DOCKED: REMARK    6  A    between atoms: C_24  and  C_27 
DOCKED: REMARK    7  A    between atoms: C_31  and  C_34 
DOCKED: REMARK    8  A    between atoms: C_34  and  C_35 
DOCKED: REMARK    9  A    between atoms: C_35  and  C_36 
DOCKED: REMARK   10  A    between atoms: C_36  and  O_38 
DOCKED: USER                              x       y       z     vdW  Elec       q    Type
DOCKED: USER                           _______ _______ _______ _____ _____    ______ ____
DOCKED: ROOT
DOCKED: ATOM      1  C   UNL d   1      17.381  -7.860   7.192 -0.26 -0.00    +0.064 C 
DOCKED: ATOM      2  C   UNL d   1      14.817 -11.787   5.632 -0.20 -0.05    +0.064 A 
DOCKED: ATOM      3  C   UNL d   1      11.144 -10.402   8.399 -0.25 -0.02    +0.064 C 
DOCKED: ATOM      4  C   UNL d   1      13.646  -6.653  10.002 -0.28 -0.02    +0.064 C 
DOCKED: ATOM      5  C   UNL d   1      17.031  -9.139   6.560 -0.27 -0.01    +0.066 A 
DOCKED: ATOM      6  C   UNL d   1      17.888  -9.896   5.778 -0.32 +0.00    -0.021 A 
DOCKED: ATOM      7  C   UNL d   1      17.174 -10.984   5.342 -0.32 +0.01    -0.025 A 
DOCKED: ATOM      8  C   UNL d   1      15.907 -10.851   5.876 -0.30 -0.03    +0.066 A 
DOCKED: ATOM      9  C   UNL d   1      17.694 -12.093   4.479 -0.24 -0.02    +0.051 C 
DOCKED: ATOM     10  C   UNL d   1      13.604 -11.713   6.181 -0.28 -0.03    +0.066 A 
DOCKED: ATOM     11  C   UNL d   1      12.546 -12.559   5.839 -0.28 +0.01    -0.021 A 
DOCKED: ATOM     12  C   UNL d   1      11.469 -12.169   6.611 -0.26 -0.00    +0.000 A 
DOCKED: ATOM     13  C   UNL d   1      11.929 -11.090   7.385 -0.21 -0.03    +0.070 A 
DOCKED: ATOM     14  C   UNL d   1      12.540 -13.642   4.779 -0.32 -0.03    +0.052 C 
DOCKED: ATOM     15  C   UNL d   1      11.564  -9.329   9.110 -0.21 -0.03    +0.066 A 
DOCKED: ATOM     16  C   UNL d   1      10.822  -8.763  10.139 -0.21 +0.01    -0.021 A 
DOCKED: ATOM     17  C   UNL d   1      11.540  -7.679  10.600 -0.24 -0.00    +0.000 A 
DOCKED: ATOM     18  C   UNL d   1      12.704  -7.607   9.837 -0.25 -0.03    +0.070 A 
DOCKED: ATOM     19  C   UNL d   1       9.479  -9.206  10.653 -0.21 -0.05    +0.052 C 
DOCKED: ATOM     20  C   UNL d   1      14.910  -6.581   9.260 -0.18 -0.03    +0.066 A 
DOCKED: ATOM     21  C   UNL d   1      15.798  -5.496   9.276 -0.14 +0.01    -0.025 A 
DOCKED: ATOM     22  C   UNL d   1      16.861  -5.867   8.478 -0.18 +0.00    -0.021 A 
DOCKED: ATOM     23  C   UNL d   1      16.579  -7.154   8.005 -0.23 -0.01    +0.066 A 
DOCKED: ATOM     24  C   UNL d   1      15.660  -4.175   9.996 -0.15 -0.01    +0.051 C 
DOCKED: ATOM     25  N   UNL d   1      15.826  -9.732   6.624 -0.20 +0.09    -0.248 N 
DOCKED: ATOM     26  N   UNL d   1      13.227 -10.805   7.117 -0.08 +0.13    -0.248 N 
DOCKED: ATOM     27  N   UNL d   1      12.740  -8.647   8.951 +0.00 +0.12    -0.248 N 
DOCKED: ATOM     28  N   UNL d   1      15.367  -7.566   8.449 -0.17 +0.09    -0.248 N 
DOCKED: ATOM     29 FE   UNL d   1      14.296  -9.184   7.784 -0.06 -0.00    +0.000 Fe
DOCKED: ENDROOT
DOCKED: BRANCH   6  30
DOCKED: ATOM     30  C   UNL d   1      19.320  -9.611   5.476 -0.25 +0.02    +0.052 C 
DOCKED: BRANCH  30  31
DOCKED: ATOM     31  C   UNL d   1      20.199  -9.929   6.680 -0.16 +0.04    +0.115 C 
DOCKED: BRANCH  31  32
DOCKED: ATOM     32  C   UNL d   1      21.173 -11.025   6.347 -0.13 +0.07    +0.139 C 
DOCKED: ATOM     33  O   UNL d   1      22.371 -10.792   6.266 -0.22 -0.79    -0.650 OA
DOCKED: BRANCH  32  34
DOCKED: ATOM     34  O   UNL d   1      20.732 -12.276   6.133 +0.04 -0.21    -0.776 OA
DOCKED: ATOM     35  H   UNL d   1      20.017 -12.623   6.685 +0.03 +0.02    +0.167 HD
DOCKED: ENDBRANCH  32  34
DOCKED: ENDBRANCH  31  32
DOCKED: ENDBRANCH  30  31
DOCKED: ENDBRANCH   6  30
DOCKED: BRANCH  22  36
DOCKED: ATOM     36  C   UNL d   1      18.056  -5.011   8.152 -0.13 -0.00    +0.052 C 
DOCKED: BRANCH  36  37
DOCKED: ATOM     37  C   UNL d   1      17.743  -4.128   6.953 -0.21 -0.01    +0.115 C 
DOCKED: BRANCH  37  38
DOCKED: ATOM     38  C   UNL d   1      17.283  -2.766   7.392 -0.20 -0.01    +0.139 C 
DOCKED: ATOM     39  O   UNL d   1      18.090  -1.913   7.730 +0.03 +0.00    -0.650 OA
DOCKED: BRANCH  38  40
DOCKED: ATOM     40  O   UNL d   1      15.970  -2.478   7.419 -0.24 +0.03    -0.776 OA
DOCKED: ATOM     41  H   UNL d   1      15.331  -3.202   7.487 -0.50 -0.06    +0.167 HD
DOCKED: ENDBRANCH  38  40
DOCKED: ENDBRANCH  37  38
DOCKED: ENDBRANCH  36  37
DOCKED: ENDBRANCH  22  36
DOCKED: BRANCH  12  42
DOCKED: ATOM     42  C   UNL d   1      10.113 -12.797   6.568 -0.31 -0.00    +0.004 C 
DOCKED: ATOM     43  C   UNL d   1       9.006 -12.057   6.711 -0.34 -0.00    +0.012 C 
DOCKED: ENDBRANCH  12  42
DOCKED: BRANCH  17  44
DOCKED: ATOM     44  C   UNL d   1      11.149  -6.784  11.712 -0.21 -0.00    +0.004 C 
DOCKED: ATOM     45  C   UNL d   1      10.651  -5.567  11.468 -0.31 -0.01    +0.012 C 
DOCKED: ENDBRANCH  17  44
DOCKED: TORSDOF 10
DOCKED: TER
DOCKED: ENDMDL
________________________________________________________________________________


	BEGINNING GENETIC ALGORITHM DOCKING 87 of 100
Run: 87 Seed: 1720458483 374142541 [ Run 87 of 100 GA/GALS ]
Beginning LAMARCKIAN GENETIC ALGORITHM (LGA), with a maximum of 25000000 energy evaluations.

Final-Value: -9.595


	FINAL GENETIC ALGORITHM DOCKED STATE
	_______________________________________________


Detailed state:  trans 17.234 -2.109 2.421 quatxyzw -0.239379 -0.561318 -0.643093 0.462657 center -0.174 -0.001 -0.047 ntor 10 -154.6602 -149.2689 80.5899 179.8015 -90.4765 -94.9945 -176.4866 48.2127 -179.0101 147.7741
State:	 17.234  -2.109   2.421  -0.270 -0.633 -0.725 124.883   -154.66 -149.27   80.59  179.80  -90.48  -94.99 -176.49   48.21 -179.01  147.77

DOCKED: MODEL       87
DOCKED: USER    Run = 87
DOCKED: USER    DPF = D:/Protein_go_brrr/autodock/final/mut_D99N/heme_Fe/dock.dpf
DOCKED: USER  
DOCKED: USER    Estimated Free Energy of Binding    =   -4.80 kcal/mol  [=(1)+(2)+(3)-(4)]
DOCKED: USER    Estimated Inhibition Constant, Ki   =  300.86 uM (micromolar)  [Temperature = 298.15 K]
DOCKED: USER    
DOCKED: USER    (1) Final Intermolecular Energy     =   -7.79 kcal/mol
DOCKED: USER        vdW + Hbond + desolv Energy     =   -7.34 kcal/mol
DOCKED: USER        Electrostatic Energy            =   -0.45 kcal/mol
DOCKED: USER    (2) Final Total Internal Energy     =   -1.81 kcal/mol
DOCKED: USER    (3) Torsional Free Energy           =   +2.98 kcal/mol
DOCKED: USER    (4) Unbound System's Energy  [=(2)] =   -1.81 kcal/mol
DOCKED: USER    
DOCKED: USER    
DOCKED: USER    NEWDPF move heme_Fe_opt.pdbqt
DOCKED: USER    NEWDPF about -0.174000 -0.001000 -0.047000
DOCKED: USER    NEWDPF tran0 17.234357 -2.108687 2.421435
DOCKED: USER    NEWDPF quaternion0 -0.239379 -0.561318 -0.643093 0.462657
DOCKED: USER    NEWDPF axisangle0 -0.270015 -0.633158 -0.725398 124.882590
DOCKED: USER    NEWDPF quat0 -0.270015 -0.633158 -0.725398 124.882590
DOCKED: USER    NEWDPF dihe0 -154.66 -149.27 80.59 179.80 -90.48 -94.99 -176.49 48.21 -179.01 147.77 
DOCKED: USER  keepresnum = 1 
DOCKED: USER  
DOCKED: REMARK  10 active torsions:
DOCKED: REMARK  status: ('A' for Active; 'I' for Inactive)
DOCKED: REMARK    1  A    between atoms: C_6  and  C_10 
DOCKED: REMARK    2  A    between atoms: C_10  and  C_11 
DOCKED: REMARK    3  A    between atoms: C_11  and  C_12 
DOCKED: REMARK    4  A    between atoms: C_12  and  O_14 
DOCKED: REMARK    5  A    between atoms: C_17  and  C_20 
DOCKED: REMARK    6  A    between atoms: C_24  and  C_27 
DOCKED: REMARK    7  A    between atoms: C_31  and  C_34 
DOCKED: REMARK    8  A    between atoms: C_34  and  C_35 
DOCKED: REMARK    9  A    between atoms: C_35  and  C_36 
DOCKED: REMARK   10  A    between atoms: C_36  and  O_38 
DOCKED: USER                              x       y       z     vdW  Elec       q    Type
DOCKED: USER                           _______ _______ _______ _____ _____    ______ ____
DOCKED: ROOT
DOCKED: ATOM      1  C   UNL d   1      18.600  -3.557   2.921 -0.19 -0.00    +0.064 C 
DOCKED: ATOM      2  C   UNL d   1      17.854  -0.693  -1.038 -0.18 -0.01    +0.064 A 
DOCKED: ATOM      3  C   UNL d   1      14.942   2.072   1.596 -0.18 +0.00    +0.064 C 
DOCKED: ATOM      4  C   UNL d   1      15.567  -0.747   5.411 -0.24 -0.00    +0.064 C 
DOCKED: ATOM      5  C   UNL d   1      18.594  -3.055   1.539 -0.24 -0.01    +0.066 A 
DOCKED: ATOM      6  C   UNL d   1      19.234  -3.666   0.474 -0.29 +0.00    -0.021 A 
DOCKED: ATOM      7  C   UNL d   1      19.030  -2.868  -0.625 -0.26 +0.00    -0.025 A 
DOCKED: ATOM      8  C   UNL d   1      18.272  -1.800  -0.187 -0.19 -0.01    +0.066 A 
DOCKED: ATOM      9  C   UNL d   1      19.522  -3.135  -2.014 -0.35 -0.00    +0.051 C 
DOCKED: ATOM     10  C   UNL d   1      17.075   0.319  -0.655 -0.16 -0.01    +0.066 A 
DOCKED: ATOM     11  C   UNL d   1      16.786   1.423  -1.461 -0.13 +0.00    -0.021 A 
DOCKED: ATOM     12  C   UNL d   1      15.961   2.244  -0.718 -0.14 -0.00    +0.000 A 
DOCKED: ATOM     13  C   UNL d   1      15.794   1.596   0.518 -0.13 -0.00    +0.070 A 
DOCKED: ATOM     14  C   UNL d   1      17.326   1.716  -2.846 -0.05 -0.01    +0.052 C 
DOCKED: ATOM     15  C   UNL d   1      14.818   1.479   2.807 -0.20 +0.00    +0.066 A 
DOCKED: ATOM     16  C   UNL d   1      13.918   1.908   3.774 -0.26 -0.00    -0.021 A 
DOCKED: ATOM     17  C   UNL d   1      14.099   1.099   4.876 -0.31 +0.00    +0.000 A 
DOCKED: ATOM     18  C   UNL d   1      15.110   0.195   4.557 -0.27 -0.00    +0.070 A 
DOCKED: ATOM     19  C   UNL d   1      12.943   3.050   3.677 -0.04 +0.01    +0.052 C 
DOCKED: ATOM     20  C   UNL d   1      16.585  -1.753   5.089 -0.24 -0.01    +0.066 A 
DOCKED: ATOM     21  C   UNL d   1      17.208  -2.600   6.016 -0.26 +0.00    -0.025 A 
DOCKED: ATOM     22  C   UNL d   1      18.059  -3.401   5.283 -0.19 +0.00    -0.021 A 
DOCKED: ATOM     23  C   UNL d   1      17.928  -3.009   3.945 -0.21 -0.00    +0.066 A 
DOCKED: ATOM     24  C   UNL d   1      17.023  -2.658   7.514 -0.25 -0.00    +0.051 C 
DOCKED: ATOM     25  N   UNL d   1      18.000  -1.922   1.128 -0.11 +0.02    -0.248 N 
DOCKED: ATOM     26  N   UNL d   1      16.480   0.427   0.560 -0.08 +0.01    -0.248 N 
DOCKED: ATOM     27  N   UNL d   1      15.523   0.400   3.270 -0.14 +0.00    -0.248 N 
DOCKED: ATOM     28  N   UNL d   1      17.061  -1.973   3.839 -0.17 +0.03    -0.248 N 
DOCKED: ATOM     29 FE   UNL d   1      16.770  -0.773   2.202 -0.05 -0.00    +0.000 Fe
DOCKED: ENDROOT
DOCKED: BRANCH   6  30
DOCKED: ATOM     30  C   UNL d   1      19.985  -4.954   0.491 -0.36 -0.01    +0.052 C 
DOCKED: BRANCH  30  31
DOCKED: ATOM     31  C   UNL d   1      21.455  -4.718   0.819 -0.21 +0.01    +0.115 C 
DOCKED: BRANCH  31  32
DOCKED: ATOM     32  C   UNL d   1      21.702  -3.264   1.115 -0.07 +0.01    +0.139 C 
DOCKED: ATOM     33  O   UNL d   1      22.013  -2.490   0.221 +0.04 -0.03    -0.650 OA
DOCKED: BRANCH  32  34
DOCKED: ATOM     34  O   UNL d   1      21.581  -2.802   2.371 +0.05 -0.05    -0.776 OA
DOCKED: ATOM     35  H   UNL d   1      21.704  -3.413   3.110 +0.03 +0.02    +0.167 HD
DOCKED: ENDBRANCH  32  34
DOCKED: ENDBRANCH  31  32
DOCKED: ENDBRANCH  30  31
DOCKED: ENDBRANCH   6  30
DOCKED: BRANCH  22  36
DOCKED: ATOM     36  C   UNL d   1      18.982  -4.450   5.845 -0.14 +0.01    +0.052 C 
DOCKED: BRANCH  36  37
DOCKED: ATOM     37  C   UNL d   1      20.429  -4.049   5.595 -0.10 +0.02    +0.115 C 
DOCKED: BRANCH  37  38
DOCKED: ATOM     38  C   UNL d   1      21.218  -5.199   5.035 -0.18 +0.04    +0.139 C 
DOCKED: ATOM     39  O   UNL d   1      21.873  -5.923   5.770 -0.04 -0.29    -0.650 OA
DOCKED: BRANCH  38  40
DOCKED: ATOM     40  O   UNL d   1      21.210  -5.437   3.712 -0.03 -0.22    -0.776 OA
DOCKED: ATOM     41  H   UNL d   1      21.104  -4.694   3.101 +0.04 +0.03    +0.167 HD
DOCKED: ENDBRANCH  38  40
DOCKED: ENDBRANCH  37  38
DOCKED: ENDBRANCH  36  37
DOCKED: ENDBRANCH  22  36
DOCKED: BRANCH  12  42
DOCKED: ATOM     42  C   UNL d   1      15.410   3.553  -1.186 -0.12 +0.00    +0.004 C 
DOCKED: ATOM     43  C   UNL d   1      14.099   3.816  -1.110 -0.17 +0.00    +0.012 C 
DOCKED: ENDBRANCH  12  42
DOCKED: BRANCH  17  44
DOCKED: ATOM     44  C   UNL d   1      13.340   1.172   6.145 -0.32 +0.00    +0.004 C 
DOCKED: ATOM     45  C   UNL d   1      13.973   1.283   7.317 -0.27 +0.00    +0.012 C 
DOCKED: ENDBRANCH  17  44
DOCKED: TORSDOF 10
DOCKED: TER
DOCKED: ENDMDL
________________________________________________________________________________


	BEGINNING GENETIC ALGORITHM DOCKING 88 of 100
Run: 88 Seed: 346487331 366952079 [ Run 88 of 100 GA/GALS ]
Beginning LAMARCKIAN GENETIC ALGORITHM (LGA), with a maximum of 25000000 energy evaluations.

Final-Value: -16.627


	FINAL GENETIC ALGORITHM DOCKED STATE
	_______________________________________________


Detailed state:  trans -9.040 1.230 1.505 quatxyzw -0.935733 -0.152179 0.248994 -0.198109 center -0.174 -0.001 -0.047 ntor 10 -131.3019 -5.5817 38.6067 -134.8407 -13.1576 -174.0960 82.5288 12.1200 -4.8374 169.2463
State:	 -9.040   1.230   1.505  -0.955 -0.155  0.254 -157.147   -131.30   -5.58   38.61 -134.84  -13.16 -174.10   82.53   12.12   -4.84  169.25

DOCKED: MODEL       88
DOCKED: USER    Run = 88
DOCKED: USER    DPF = D:/Protein_go_brrr/autodock/final/mut_D99N/heme_Fe/dock.dpf
DOCKED: USER  
DOCKED: USER    Estimated Free Energy of Binding    =  -13.18 kcal/mol  [=(1)+(2)+(3)-(4)]
DOCKED: USER    Estimated Inhibition Constant, Ki   =  218.65 pM (picomolar)  [Temperature = 298.15 K]
DOCKED: USER    
DOCKED: USER    (1) Final Intermolecular Energy     =  -16.16 kcal/mol
DOCKED: USER        vdW + Hbond + desolv Energy     =  -13.55 kcal/mol
DOCKED: USER        Electrostatic Energy            =   -2.61 kcal/mol
DOCKED: USER    (2) Final Total Internal Energy     =   -0.47 kcal/mol
DOCKED: USER    (3) Torsional Free Energy           =   +2.98 kcal/mol
DOCKED: USER    (4) Unbound System's Energy  [=(2)] =   -0.47 kcal/mol
DOCKED: USER    
DOCKED: USER    
DOCKED: USER    NEWDPF move heme_Fe_opt.pdbqt
DOCKED: USER    NEWDPF about -0.174000 -0.001000 -0.047000
DOCKED: USER    NEWDPF tran0 -9.039827 1.229952 1.504786
DOCKED: USER    NEWDPF quaternion0 -0.935733 -0.152179 0.248994 -0.198109
DOCKED: USER    NEWDPF axisangle0 -0.954654 -0.155256 0.254029 -157.147221
DOCKED: USER    NEWDPF quat0 -0.954654 -0.155256 0.254029 -157.147221
DOCKED: USER    NEWDPF dihe0 -131.30 -5.58 38.61 -134.84 -13.16 -174.10 82.53 12.12 -4.84 169.25 
DOCKED: USER  keepresnum = 1 
DOCKED: USER  
DOCKED: REMARK  10 active torsions:
DOCKED: REMARK  status: ('A' for Active; 'I' for Inactive)
DOCKED: REMARK    1  A    between atoms: C_6  and  C_10 
DOCKED: REMARK    2  A    between atoms: C_10  and  C_11 
DOCKED: REMARK    3  A    between atoms: C_11  and  C_12 
DOCKED: REMARK    4  A    between atoms: C_12  and  O_14 
DOCKED: REMARK    5  A    between atoms: C_17  and  C_20 
DOCKED: REMARK    6  A    between atoms: C_24  and  C_27 
DOCKED: REMARK    7  A    between atoms: C_31  and  C_34 
DOCKED: REMARK    8  A    between atoms: C_34  and  C_35 
DOCKED: REMARK    9  A    between atoms: C_35  and  C_36 
DOCKED: REMARK   10  A    between atoms: C_36  and  O_38 
DOCKED: USER                              x       y       z     vdW  Elec       q    Type
DOCKED: USER                           _______ _______ _______ _____ _____    ______ ____
DOCKED: ROOT
DOCKED: ATOM      1  C   UNL d   1     -10.974   0.679   1.911 -0.37 +0.03    +0.064 C 
DOCKED: ATOM      2  C   UNL d   1      -8.461   4.932   2.068 -0.42 +0.01    +0.064 A 
DOCKED: ATOM      3  C   UNL d   1      -4.982   2.893  -0.539 -0.41 +0.01    +0.064 C 
DOCKED: ATOM      4  C   UNL d   1      -7.349  -1.264  -0.615 -0.38 +0.01    +0.064 C 
DOCKED: ATOM      5  C   UNL d   1     -10.551   2.040   2.268 -0.17 +0.02    +0.066 A 
DOCKED: ATOM      6  C   UNL d   1     -11.252   2.892   3.106 -0.24 -0.01    -0.021 A 
DOCKED: ATOM      7  C   UNL d   1     -10.556   4.074   3.146 -0.35 -0.00    -0.025 A 
DOCKED: ATOM      8  C   UNL d   1      -9.455   3.898   2.330 -0.37 +0.01    +0.066 A 
DOCKED: ATOM      9  C   UNL d   1     -10.924   5.289   3.940 -0.43 +0.00    +0.051 C 
DOCKED: ATOM     10  C   UNL d   1      -7.360   4.770   1.332 -0.39 +0.01    +0.066 A 
DOCKED: ATOM     11  C   UNL d   1      -6.487   5.811   1.005 -0.47 -0.00    -0.021 A 
DOCKED: ATOM     12  C   UNL d   1      -5.484   5.252   0.239 -0.48 +0.00    +0.000 A 
DOCKED: ATOM     13  C   UNL d   1      -5.804   3.888   0.131 -0.38 +0.01    +0.070 A 
DOCKED: ATOM     14  C   UNL d   1      -6.638   7.279   1.348 -0.54 +0.01    +0.052 C 
DOCKED: ATOM     15  C   UNL d   1      -5.311   1.588  -0.691 -0.39 +0.01    +0.066 A 
DOCKED: ATOM     16  C   UNL d   1      -4.454   0.649  -1.250 -0.37 -0.00    -0.021 A 
DOCKED: ATOM     17  C   UNL d   1      -5.136  -0.550  -1.276 -0.43 +0.00    +0.000 A 
DOCKED: ATOM     18  C   UNL d   1      -6.397  -0.312  -0.735 -0.41 +0.01    +0.070 A 
DOCKED: ATOM     19  C   UNL d   1      -3.057   0.872  -1.763 -0.38 +0.00    +0.052 C 
DOCKED: ATOM     20  C   UNL d   1      -8.664  -1.066   0.004 -0.33 +0.01    +0.066 A 
DOCKED: ATOM     21  C   UNL d   1      -9.728  -1.978  -0.043 -0.02 -0.01    -0.025 A 
DOCKED: ATOM     22  C   UNL d   1     -10.746  -1.410   0.694 -0.14 -0.01    -0.021 A 
DOCKED: ATOM     23  C   UNL d   1     -10.269  -0.177   1.154 -0.35 +0.03    +0.066 A 
DOCKED: ATOM     24  C   UNL d   1      -9.793  -3.315  -0.745 -0.17 +0.01    +0.051 C 
DOCKED: ATOM     25  N   UNL d   1      -9.450   2.657   1.805 -0.17 -0.09    -0.248 N 
DOCKED: ATOM     26  N   UNL d   1      -6.953   3.595   0.789 -0.16 -0.06    -0.248 N 
DOCKED: ATOM     27  N   UNL d   1      -6.491   0.991  -0.336 -0.27 -0.03    -0.248 N 
DOCKED: ATOM     28  N   UNL d   1      -9.015   0.048   0.692 -0.26 -0.07    -0.248 N 
DOCKED: ATOM     29 FE   UNL d   1      -7.983   1.820   0.740 -0.09 +0.00    +0.000 Fe
DOCKED: ENDROOT
DOCKED: BRANCH   6  30
DOCKED: ATOM     30  C   UNL d   1     -12.510   2.593   3.848 -0.23 +0.02    +0.052 C 
DOCKED: BRANCH  30  31
DOCKED: ATOM     31  C   UNL d   1     -12.204   1.895   5.169 -0.13 +0.05    +0.115 C 
DOCKED: BRANCH  31  32
DOCKED: ATOM     32  C   UNL d   1     -12.357   0.407   5.026 -0.13 +0.14    +0.139 C 
DOCKED: ATOM     33  O   UNL d   1     -12.911  -0.072   4.046 -0.45 -1.15    -0.650 OA
DOCKED: BRANCH  32  34
DOCKED: ATOM     34  O   UNL d   1     -11.885  -0.415   5.979 -0.35 -0.85    -0.776 OA
DOCKED: ATOM     35  H   UNL d   1     -12.098  -0.232   6.905 +0.05 +0.13    +0.167 HD
DOCKED: ENDBRANCH  32  34
DOCKED: ENDBRANCH  31  32
DOCKED: ENDBRANCH  30  31
DOCKED: ENDBRANCH   6  30
DOCKED: BRANCH  22  36
DOCKED: ATOM     36  C   UNL d   1     -12.116  -1.999   0.901 +0.13 +0.06    +0.052 C 
DOCKED: BRANCH  36  37
DOCKED: ATOM     37  C   UNL d   1     -13.074  -1.453  -0.147 +0.10 +0.06    +0.115 C 
DOCKED: BRANCH  37  38
DOCKED: ATOM     38  C   UNL d   1     -14.497  -1.800   0.190 -0.14 +0.09    +0.139 C 
DOCKED: ATOM     39  O   UNL d   1     -15.404  -1.540  -0.587 +0.03 -0.21    -0.650 OA
DOCKED: BRANCH  38  40
DOCKED: ATOM     40  O   UNL d   1     -14.782  -2.400   1.359 -0.54 -0.98    -0.776 OA
DOCKED: ATOM     41  H   UNL d   1     -15.708  -2.540   1.601 +0.02 +0.15    +0.167 HD
DOCKED: ENDBRANCH  38  40
DOCKED: ENDBRANCH  37  38
DOCKED: ENDBRANCH  36  37
DOCKED: ENDBRANCH  22  36
DOCKED: BRANCH  12  42
DOCKED: ATOM     42  C   UNL d   1      -4.331   6.006  -0.343 -0.64 +0.00    +0.004 C 
DOCKED: ATOM     43  C   UNL d   1      -3.213   6.210   0.365 -0.58 +0.00    +0.012 C 
DOCKED: ENDBRANCH  12  42
DOCKED: BRANCH  17  44
DOCKED: ATOM     44  C   UNL d   1      -4.607  -1.842  -1.767 -0.66 -0.00    +0.004 C 
DOCKED: ATOM     45  C   UNL d   1      -4.588  -2.123  -3.074 -0.73 -0.00    +0.012 C 
DOCKED: ENDBRANCH  17  44
DOCKED: TORSDOF 10
DOCKED: TER
DOCKED: ENDMDL
________________________________________________________________________________


	BEGINNING GENETIC ALGORITHM DOCKING 89 of 100
Run: 89 Seed: 1199166137 455975282 [ Run 89 of 100 GA/GALS ]
Beginning LAMARCKIAN GENETIC ALGORITHM (LGA), with a maximum of 25000000 energy evaluations.

Final-Value: -10.958


	FINAL GENETIC ALGORITHM DOCKED STATE
	_______________________________________________


Detailed state:  trans 0.242 -0.432 -20.064 quatxyzw 0.873344 -0.260173 -0.074275 0.405046 center -0.174 -0.001 -0.047 ntor 10 -77.0346 -147.1284 26.7981 32.1258 51.0396 -120.6367 -58.4383 -131.4436 -146.2772 -9.7300
State:	  0.242  -0.432 -20.064   0.955 -0.285 -0.081 132.212    -77.03 -147.13   26.80   32.13   51.04 -120.64  -58.44 -131.44 -146.28   -9.73

DOCKED: MODEL       89
DOCKED: USER    Run = 89
DOCKED: USER    DPF = D:/Protein_go_brrr/autodock/final/mut_D99N/heme_Fe/dock.dpf
DOCKED: USER  
DOCKED: USER    Estimated Free Energy of Binding    =   -5.91 kcal/mol  [=(1)+(2)+(3)-(4)]
DOCKED: USER    Estimated Inhibition Constant, Ki   =   46.27 uM (micromolar)  [Temperature = 298.15 K]
DOCKED: USER    
DOCKED: USER    (1) Final Intermolecular Energy     =   -8.90 kcal/mol
DOCKED: USER        vdW + Hbond + desolv Energy     =   -5.09 kcal/mol
DOCKED: USER        Electrostatic Energy            =   -3.81 kcal/mol
DOCKED: USER    (2) Final Total Internal Energy     =   -2.06 kcal/mol
DOCKED: USER    (3) Torsional Free Energy           =   +2.98 kcal/mol
DOCKED: USER    (4) Unbound System's Energy  [=(2)] =   -2.06 kcal/mol
DOCKED: USER    
DOCKED: USER    
DOCKED: USER    NEWDPF move heme_Fe_opt.pdbqt
DOCKED: USER    NEWDPF about -0.174000 -0.001000 -0.047000
DOCKED: USER    NEWDPF tran0 0.242471 -0.432271 -20.064125
DOCKED: USER    NEWDPF quaternion0 0.873344 -0.260173 -0.074275 0.405046
DOCKED: USER    NEWDPF axisangle0 0.955210 -0.284561 -0.081237 132.211951
DOCKED: USER    NEWDPF quat0 0.955210 -0.284561 -0.081237 132.211951
DOCKED: USER    NEWDPF dihe0 -77.03 -147.13 26.80 32.13 51.04 -120.64 -58.44 -131.44 -146.28 -9.73 
DOCKED: USER  keepresnum = 1 
DOCKED: USER  
DOCKED: REMARK  10 active torsions:
DOCKED: REMARK  status: ('A' for Active; 'I' for Inactive)
DOCKED: REMARK    1  A    between atoms: C_6  and  C_10 
DOCKED: REMARK    2  A    between atoms: C_10  and  C_11 
DOCKED: REMARK    3  A    between atoms: C_11  and  C_12 
DOCKED: REMARK    4  A    between atoms: C_12  and  O_14 
DOCKED: REMARK    5  A    between atoms: C_17  and  C_20 
DOCKED: REMARK    6  A    between atoms: C_24  and  C_27 
DOCKED: REMARK    7  A    between atoms: C_31  and  C_34 
DOCKED: REMARK    8  A    between atoms: C_34  and  C_35 
DOCKED: REMARK    9  A    between atoms: C_35  and  C_36 
DOCKED: REMARK   10  A    between atoms: C_36  and  O_38 
DOCKED: USER                              x       y       z     vdW  Elec       q    Type
DOCKED: USER                           _______ _______ _______ _____ _____    ______ ____
DOCKED: ROOT
DOCKED: ATOM      1  C   UNL d   1      -1.375   0.777 -19.702 -0.06 +0.09    +0.064 C 
DOCKED: ATOM      2  C   UNL d   1       3.438   0.977 -18.593 -0.08 +0.02    +0.064 A 
DOCKED: ATOM      3  C   UNL d   1       4.258  -2.464 -21.843 -0.15 +0.01    +0.064 C 
DOCKED: ATOM      4  C   UNL d   1      -0.409  -2.747 -22.856 -0.13 +0.02    +0.064 C 
DOCKED: ATOM      5  C   UNL d   1      -0.108   1.094 -19.029 -0.05 +0.08    +0.066 A 
DOCKED: ATOM      6  C   UNL d   1       0.024   1.963 -17.958 -0.13 -0.02    -0.021 A 
DOCKED: ATOM      7  C   UNL d   1       1.361   2.021 -17.654 -0.12 -0.01    -0.025 A 
DOCKED: ATOM      8  C   UNL d   1       1.995   1.183 -18.551 -0.10 +0.03    +0.066 A 
DOCKED: ATOM      9  C   UNL d   1       1.982   2.822 -16.550 -0.12 +0.02    +0.051 C 
DOCKED: ATOM     10  C   UNL d   1       4.069   0.131 -19.410 -0.10 +0.02    +0.066 A 
DOCKED: ATOM     11  C   UNL d   1       5.459   0.040 -19.506 -0.09 -0.00    -0.021 A 
DOCKED: ATOM     12  C   UNL d   1       5.722  -0.934 -20.449 -0.13 +0.00    +0.000 A 
DOCKED: ATOM     13  C   UNL d   1       4.465  -1.385 -20.890 -0.13 +0.02    +0.070 A 
DOCKED: ATOM     14  C   UNL d   1       6.488   0.886 -18.785 -0.05 +0.01    +0.052 C 
DOCKED: ATOM     15  C   UNL d   1       3.052  -2.866 -22.309 -0.14 +0.01    +0.066 A 
DOCKED: ATOM     16  C   UNL d   1       2.889  -3.965 -23.142 -0.13 -0.00    -0.021 A 
DOCKED: ATOM     17  C   UNL d   1       1.544  -4.047 -23.438 -0.11 +0.00    +0.000 A 
DOCKED: ATOM     18  C   UNL d   1       0.918  -2.991 -22.781 -0.12 +0.01    +0.070 A 
DOCKED: ATOM     19  C   UNL d   1       3.957  -4.890 -23.661 -0.08 +0.00    +0.052 C 
DOCKED: ATOM     20  C   UNL d   1      -1.112  -1.683 -22.129 -0.13 +0.03    +0.066 A 
DOCKED: ATOM     21  C   UNL d   1      -2.441  -1.293 -22.349 -0.10 -0.01    -0.025 A 
DOCKED: ATOM     22  C   UNL d   1      -2.699  -0.297 -21.431 -0.10 -0.02    -0.021 A 
DOCKED: ATOM     23  C   UNL d   1      -1.522  -0.113 -20.695 -0.12 +0.07    +0.066 A 
DOCKED: ATOM     24  C   UNL d   1      -3.422  -1.822 -23.369 -0.06 +0.02    +0.051 C 
DOCKED: ATOM     25  N   UNL d   1       1.098   0.613 -19.380 -0.11 -0.18    -0.248 N 
DOCKED: ATOM     26  N   UNL d   1       3.457  -0.730 -20.263 -0.09 -0.07    -0.248 N 
DOCKED: ATOM     27  N   UNL d   1       1.837  -2.290 -22.051 -0.09 -0.07    -0.248 N 
DOCKED: ATOM     28  N   UNL d   1      -0.544  -0.930 -21.156 -0.12 -0.20    -0.248 N 
DOCKED: ATOM     29 FE   UNL d   1       1.456  -0.831 -20.711 -0.03 +0.00    +0.000 Fe
DOCKED: ENDROOT
DOCKED: BRANCH   6  30
DOCKED: ATOM     30  C   UNL d   1      -1.067   2.687 -17.246 -0.16 +0.04    +0.052 C 
DOCKED: BRANCH  30  31
DOCKED: ATOM     31  C   UNL d   1      -1.872   3.543 -18.217 -0.05 +0.08    +0.115 C 
DOCKED: BRANCH  31  32
DOCKED: ATOM     32  C   UNL d   1      -3.321   3.142 -18.195 -0.08 +0.17    +0.139 C 
DOCKED: ATOM     33  O   UNL d   1      -3.927   3.056 -17.136 -0.07 -0.95    -0.650 OA
DOCKED: BRANCH  32  34
DOCKED: ATOM     34  O   UNL d   1      -3.965   2.874 -19.343 -0.21 -1.16    -0.776 OA
DOCKED: ATOM     35  H   UNL d   1      -4.129   1.952 -19.585 +0.02 +0.28    +0.167 HD
DOCKED: ENDBRANCH  32  34
DOCKED: ENDBRANCH  31  32
DOCKED: ENDBRANCH  30  31
DOCKED: ENDBRANCH   6  30
DOCKED: BRANCH  22  36
DOCKED: ATOM     36  C   UNL d   1      -3.990   0.469 -21.303 -0.08 +0.05    +0.052 C 
DOCKED: BRANCH  36  37
DOCKED: ATOM     37  C   UNL d   1      -4.942  -0.281 -20.384 -0.13 +0.15    +0.115 C 
DOCKED: BRANCH  37  38
DOCKED: ATOM     38  C   UNL d   1      -4.248  -0.711 -19.122 -0.11 +0.26    +0.139 C 
DOCKED: ATOM     39  O   UNL d   1      -4.180  -1.892 -18.817 -0.55 -1.15    -0.650 OA
DOCKED: BRANCH  38  40
DOCKED: ATOM     40  O   UNL d   1      -3.695   0.211 -18.314 -0.20 -1.83    -0.776 OA
DOCKED: ATOM     41  H   UNL d   1      -4.105   1.084 -18.246 +0.05 +0.37    +0.167 HD
DOCKED: ENDBRANCH  38  40
DOCKED: ENDBRANCH  37  38
DOCKED: ENDBRANCH  36  37
DOCKED: ENDBRANCH  22  36
DOCKED: BRANCH  12  42
DOCKED: ATOM     42  C   UNL d   1       7.088  -1.359 -20.883 -0.14 +0.00    +0.004 C 
DOCKED: ATOM     43  C   UNL d   1       7.855  -2.123 -20.094 -0.20 +0.00    +0.012 C 
DOCKED: ENDBRANCH  12  42
DOCKED: BRANCH  17  44
DOCKED: ATOM     44  C   UNL d   1       0.898  -5.080 -24.278 -0.09 +0.00    +0.004 C 
DOCKED: ATOM     45  C   UNL d   1       0.507  -6.245 -23.752 -0.10 +0.00    +0.012 C 
DOCKED: ENDBRANCH  17  44
DOCKED: TORSDOF 10
DOCKED: TER
DOCKED: ENDMDL
________________________________________________________________________________


	BEGINNING GENETIC ALGORITHM DOCKING 90 of 100
Run: 90 Seed: 610112728 849233204 [ Run 90 of 100 GA/GALS ]
Beginning LAMARCKIAN GENETIC ALGORITHM (LGA), with a maximum of 25000000 energy evaluations.

Final-Value: -11.701


	FINAL GENETIC ALGORITHM DOCKED STATE
	_______________________________________________


Detailed state:  trans 5.662 0.335 -18.224 quatxyzw -0.495572 0.133275 0.087984 0.853759 center -0.174 -0.001 -0.047 ntor 10 161.8286 -125.7166 -131.6236 -157.2172 71.5862 -171.3404 -38.1018 18.4479 -153.9959 180.0000
State:	  5.662   0.335 -18.224  -0.952  0.256  0.169 62.754    161.83 -125.72 -131.62 -157.22   71.59 -171.34  -38.10   18.45 -154.00  180.00

DOCKED: MODEL       90
DOCKED: USER    Run = 90
DOCKED: USER    DPF = D:/Protein_go_brrr/autodock/final/mut_D99N/heme_Fe/dock.dpf
DOCKED: USER  
DOCKED: USER    Estimated Free Energy of Binding    =   -7.23 kcal/mol  [=(1)+(2)+(3)-(4)]
DOCKED: USER    Estimated Inhibition Constant, Ki   =    5.06 uM (micromolar)  [Temperature = 298.15 K]
DOCKED: USER    
DOCKED: USER    (1) Final Intermolecular Energy     =  -10.21 kcal/mol
DOCKED: USER        vdW + Hbond + desolv Energy     =   -6.98 kcal/mol
DOCKED: USER        Electrostatic Energy            =   -3.23 kcal/mol
DOCKED: USER    (2) Final Total Internal Energy     =   -1.49 kcal/mol
DOCKED: USER    (3) Torsional Free Energy           =   +2.98 kcal/mol
DOCKED: USER    (4) Unbound System's Energy  [=(2)] =   -1.49 kcal/mol
DOCKED: USER    
DOCKED: USER    
DOCKED: USER    NEWDPF move heme_Fe_opt.pdbqt
DOCKED: USER    NEWDPF about -0.174000 -0.001000 -0.047000
DOCKED: USER    NEWDPF tran0 5.661762 0.335044 -18.223917
DOCKED: USER    NEWDPF quaternion0 -0.495572 0.133275 0.087984 0.853759
DOCKED: USER    NEWDPF axisangle0 -0.951801 0.255969 0.168982 62.754092
DOCKED: USER    NEWDPF quat0 -0.951801 0.255969 0.168982 62.754092
DOCKED: USER    NEWDPF dihe0 161.83 -125.72 -131.62 -157.22 71.59 -171.34 -38.10 18.45 -154.00 180.00 
DOCKED: USER  keepresnum = 1 
DOCKED: USER  
DOCKED: REMARK  10 active torsions:
DOCKED: REMARK  status: ('A' for Active; 'I' for Inactive)
DOCKED: REMARK    1  A    between atoms: C_6  and  C_10 
DOCKED: REMARK    2  A    between atoms: C_10  and  C_11 
DOCKED: REMARK    3  A    between atoms: C_11  and  C_12 
DOCKED: REMARK    4  A    between atoms: C_12  and  O_14 
DOCKED: REMARK    5  A    between atoms: C_17  and  C_20 
DOCKED: REMARK    6  A    between atoms: C_24  and  C_27 
DOCKED: REMARK    7  A    between atoms: C_31  and  C_34 
DOCKED: REMARK    8  A    between atoms: C_34  and  C_35 
DOCKED: REMARK    9  A    between atoms: C_35  and  C_36 
DOCKED: REMARK   10  A    between atoms: C_36  and  O_38 
DOCKED: USER                              x       y       z     vdW  Elec       q    Type
DOCKED: USER                           _______ _______ _______ _____ _____    ______ ____
DOCKED: ROOT
DOCKED: ATOM      1  C   UNL d   1       3.613   0.428 -18.301 -0.15 +0.02    +0.064 C 
DOCKED: ATOM      2  C   UNL d   1       7.080  -2.084 -20.772 -0.10 +0.01    +0.064 A 
DOCKED: ATOM      3  C   UNL d   1      10.258  -0.912 -17.367 -0.07 +0.04    +0.064 C 
DOCKED: ATOM      4  C   UNL d   1       6.944   1.612 -15.015 -0.16 +0.01    +0.064 C 
DOCKED: ATOM      5  C   UNL d   1       4.314  -0.318 -19.356 -0.14 +0.02    +0.066 A 
DOCKED: ATOM      6  C   UNL d   1       3.742  -0.728 -20.549 -0.13 -0.01    -0.021 A 
DOCKED: ATOM      7  C   UNL d   1       4.704  -1.428 -21.233 -0.13 -0.00    -0.025 A 
DOCKED: ATOM      8  C   UNL d   1       5.829  -1.420 -20.430 -0.12 +0.01    +0.066 A 
DOCKED: ATOM      9  C   UNL d   1       4.549  -2.049 -22.587 -0.12 +0.01    +0.051 C 
DOCKED: ATOM     10  C   UNL d   1       8.196  -2.043 -20.043 -0.16 +0.01    +0.066 A 
DOCKED: ATOM     11  C   UNL d   1       9.343  -2.783 -20.339 -0.16 -0.00    -0.021 A 
DOCKED: ATOM     12  C   UNL d   1      10.269  -2.476 -19.362 -0.15 +0.00    +0.000 A 
DOCKED: ATOM     13  C   UNL d   1       9.630  -1.561 -18.507 -0.14 +0.03    +0.070 A 
DOCKED: ATOM     14  C   UNL d   1       9.525  -3.788 -21.459 -0.12 +0.00    +0.052 C 
DOCKED: ATOM     15  C   UNL d   1       9.631  -0.071 -16.511 -0.07 +0.03    +0.066 A 
DOCKED: ATOM     16  C   UNL d   1      10.291   0.606 -15.494 -0.10 -0.01    -0.021 A 
DOCKED: ATOM     17  C   UNL d   1       9.337   1.332 -14.812 -0.14 +0.00    +0.000 A 
DOCKED: ATOM     18  C   UNL d   1       8.114   1.077 -15.428 -0.13 +0.02    +0.070 A 
DOCKED: ATOM     19  C   UNL d   1      11.757   0.555 -15.157 -0.11 +0.02    +0.052 C 
DOCKED: ATOM     20  C   UNL d   1       5.648   1.415 -15.675 -0.10 +0.01    +0.066 A 
DOCKED: ATOM     21  C   UNL d   1       4.405   1.794 -15.149 -0.15 -0.01    -0.025 A 
DOCKED: ATOM     22  C   UNL d   1       3.471   1.459 -16.108 -0.15 -0.01    -0.021 A 
DOCKED: ATOM     23  C   UNL d   1       4.177   0.886 -17.173 -0.11 +0.02    +0.066 A 
DOCKED: ATOM     24  C   UNL d   1       4.101   2.435 -13.815 -0.21 +0.01    +0.051 C 
DOCKED: ATOM     25  N   UNL d   1       5.591  -0.735 -19.293 -0.09 -0.06    -0.248 N 
DOCKED: ATOM     26  N   UNL d   1       8.363  -1.304 -18.917 -0.10 -0.07    -0.248 N 
DOCKED: ATOM     27  N   UNL d   1       8.300   0.249 -16.500 -0.09 -0.08    -0.248 N 
DOCKED: ATOM     28  N   UNL d   1       5.499   0.820 -16.884 -0.04 -0.06    -0.248 N 
DOCKED: ATOM     29 FE   UNL d   1       6.931  -0.241 -17.899 -0.03 +0.00    +0.000 Fe
DOCKED: ENDROOT
DOCKED: BRANCH   6  30
DOCKED: ATOM     30  C   UNL d   1       2.358  -0.450 -21.027 -0.12 +0.02    +0.052 C 
DOCKED: BRANCH  30  31
DOCKED: ATOM     31  C   UNL d   1       1.329  -1.119 -20.122 -0.19 +0.07    +0.115 C 
DOCKED: BRANCH  31  32
DOCKED: ATOM     32  C   UNL d   1       0.129  -0.232 -19.945 +0.00 +0.17    +0.139 C 
DOCKED: ATOM     33  O   UNL d   1      -0.657  -0.055 -20.865 -0.10 -0.58    -0.650 OA
DOCKED: BRANCH  32  34
DOCKED: ATOM     34  O   UNL d   1      -0.093   0.376 -18.767 -0.44 -1.52    -0.776 OA
DOCKED: ATOM     35  H   UNL d   1       0.354   0.043 -17.976 -0.43 +0.32    +0.167 HD
DOCKED: ENDBRANCH  32  34
DOCKED: ENDBRANCH  31  32
DOCKED: ENDBRANCH  30  31
DOCKED: ENDBRANCH   6  30
DOCKED: BRANCH  22  36
DOCKED: ATOM     36  C   UNL d   1       1.981   1.636 -15.984 -0.23 +0.03    +0.052 C 
DOCKED: BRANCH  36  37
DOCKED: ATOM     37  C   UNL d   1       1.387   0.464 -15.218 -0.38 +0.07    +0.115 C 
DOCKED: BRANCH  37  38
DOCKED: ATOM     38  C   UNL d   1      -0.097   0.375 -15.436 -0.25 +0.19    +0.139 C 
DOCKED: ATOM     39  O   UNL d   1      -0.779  -0.403 -14.784 -0.58 -1.02    -0.650 OA
DOCKED: BRANCH  38  40
DOCKED: ATOM     40  O   UNL d   1      -0.688   1.154 -16.359 -0.06 -1.20    -0.776 OA
DOCKED: ATOM     41  H   UNL d   1      -0.356   1.140 -17.267 +0.03 +0.26    +0.167 HD
DOCKED: ENDBRANCH  38  40
DOCKED: ENDBRANCH  37  38
DOCKED: ENDBRANCH  36  37
DOCKED: ENDBRANCH  22  36
DOCKED: BRANCH  12  42
DOCKED: ATOM     42  C   UNL d   1      11.647  -3.052 -19.277 -0.11 +0.00    +0.004 C 
DOCKED: ATOM     43  C   UNL d   1      11.863  -4.239 -18.696 -0.18 +0.01    +0.012 C 
DOCKED: ENDBRANCH  12  42
DOCKED: BRANCH  17  44
DOCKED: ATOM     44  C   UNL d   1       9.582   2.227 -13.658 -0.16 +0.00    +0.004 C 
DOCKED: ATOM     45  C   UNL d   1       9.282   1.840 -12.415 -0.32 +0.00    +0.012 C 
DOCKED: ENDBRANCH  17  44
DOCKED: TORSDOF 10
DOCKED: TER
DOCKED: ENDMDL
________________________________________________________________________________


	BEGINNING GENETIC ALGORITHM DOCKING 91 of 100
Run: 91 Seed: 484834235 739818784 [ Run 91 of 100 GA/GALS ]
Beginning LAMARCKIAN GENETIC ALGORITHM (LGA), with a maximum of 25000000 energy evaluations.

Final-Value: -11.247


	FINAL GENETIC ALGORITHM DOCKED STATE
	_______________________________________________


Detailed state:  trans 15.152 -8.531 7.314 quatxyzw 0.177763 -0.318924 0.914900 0.172182 center -0.174 -0.001 -0.047 ntor 10 -145.2426 -127.1878 100.4020 -138.8126 79.7321 -56.6866 -76.5435 -42.4669 -14.6623 -180.0000
State:	 15.152  -8.531   7.314   0.180 -0.324  0.929 160.171   -145.24 -127.19  100.40 -138.81   79.73  -56.69  -76.54  -42.47  -14.66 -180.00

DOCKED: MODEL       91
DOCKED: USER    Run = 91
DOCKED: USER    DPF = D:/Protein_go_brrr/autodock/final/mut_D99N/heme_Fe/dock.dpf
DOCKED: USER  
DOCKED: USER    Estimated Free Energy of Binding    =   -7.57 kcal/mol  [=(1)+(2)+(3)-(4)]
DOCKED: USER    Estimated Inhibition Constant, Ki   =    2.81 uM (micromolar)  [Temperature = 298.15 K]
DOCKED: USER    
DOCKED: USER    (1) Final Intermolecular Energy     =  -10.56 kcal/mol
DOCKED: USER        vdW + Hbond + desolv Energy     =   -9.62 kcal/mol
DOCKED: USER        Electrostatic Energy            =   -0.93 kcal/mol
DOCKED: USER    (2) Final Total Internal Energy     =   -0.69 kcal/mol
DOCKED: USER    (3) Torsional Free Energy           =   +2.98 kcal/mol
DOCKED: USER    (4) Unbound System's Energy  [=(2)] =   -0.69 kcal/mol
DOCKED: USER    
DOCKED: USER    
DOCKED: USER    NEWDPF move heme_Fe_opt.pdbqt
DOCKED: USER    NEWDPF about -0.174000 -0.001000 -0.047000
DOCKED: USER    NEWDPF tran0 15.151704 -8.530724 7.313957
DOCKED: USER    NEWDPF quaternion0 0.177763 -0.318924 0.914900 0.172182
DOCKED: USER    NEWDPF axisangle0 0.180458 -0.323759 0.928771 160.170599
DOCKED: USER    NEWDPF quat0 0.180458 -0.323759 0.928771 160.170599
DOCKED: USER    NEWDPF dihe0 -145.24 -127.19 100.40 -138.81 79.73 -56.69 -76.54 -42.47 -14.66 -180.00 
DOCKED: USER  keepresnum = 1 
DOCKED: USER  
DOCKED: REMARK  10 active torsions:
DOCKED: REMARK  status: ('A' for Active; 'I' for Inactive)
DOCKED: REMARK    1  A    between atoms: C_6  and  C_10 
DOCKED: REMARK    2  A    between atoms: C_10  and  C_11 
DOCKED: REMARK    3  A    between atoms: C_11  and  C_12 
DOCKED: REMARK    4  A    between atoms: C_12  and  O_14 
DOCKED: REMARK    5  A    between atoms: C_17  and  C_20 
DOCKED: REMARK    6  A    between atoms: C_24  and  C_27 
DOCKED: REMARK    7  A    between atoms: C_31  and  C_34 
DOCKED: REMARK    8  A    between atoms: C_34  and  C_35 
DOCKED: REMARK    9  A    between atoms: C_35  and  C_36 
DOCKED: REMARK   10  A    between atoms: C_36  and  O_38 
DOCKED: USER                              x       y       z     vdW  Elec       q    Type
DOCKED: USER                           _______ _______ _______ _____ _____    ______ ____
DOCKED: ROOT
DOCKED: ATOM      1  C   UNL d   1      17.110  -7.916   7.315 -0.27 -0.01    +0.064 C 
DOCKED: ATOM      2  C   UNL d   1      13.150  -6.928  10.104 -0.25 -0.02    +0.064 A 
DOCKED: ATOM      3  C   UNL d   1      10.946 -10.751   8.207 -0.25 -0.02    +0.064 C 
DOCKED: ATOM      4  C   UNL d   1      14.728 -11.664   5.423 -0.28 -0.05    +0.064 C 
DOCKED: ATOM      5  C   UNL d   1      16.168  -7.235   8.215 -0.23 -0.02    +0.066 A 
DOCKED: ATOM      6  C   UNL d   1      16.417  -6.033   8.857 -0.18 +0.00    -0.021 A 
DOCKED: ATOM      7  C   UNL d   1      15.319  -5.762   9.634 -0.19 +0.01    -0.025 A 
DOCKED: ATOM      8  C   UNL d   1      14.440  -6.809   9.436 -0.23 -0.03    +0.066 A 
DOCKED: ATOM      9  C   UNL d   1      15.126  -4.554  10.499 -0.16 -0.01    +0.051 C 
DOCKED: ATOM     10  C   UNL d   1      12.260  -7.898   9.887 -0.24 -0.03    +0.066 A 
DOCKED: ATOM     11  C   UNL d   1      11.083  -8.048  10.625 -0.22 +0.01    -0.021 A 
DOCKED: ATOM     12  C   UNL d   1      10.437  -9.154  10.109 -0.20 -0.00    +0.000 A 
DOCKED: ATOM     13  C   UNL d   1      11.266  -9.630   9.077 -0.21 -0.03    +0.070 A 
DOCKED: ATOM     14  C   UNL d   1      10.629  -7.221  11.810 -0.19 -0.04    +0.052 C 
DOCKED: ATOM     15  C   UNL d   1      11.763 -11.245   7.247 -0.24 -0.02    +0.066 A 
DOCKED: ATOM     16  C   UNL d   1      11.381 -12.253   6.371 -0.25 +0.01    -0.021 A 
DOCKED: ATOM     17  C   UNL d   1      12.472 -12.520   5.569 -0.27 -0.00    +0.000 A 
DOCKED: ATOM     18  C   UNL d   1      13.497 -11.671   5.979 -0.30 -0.04    +0.070 A 
DOCKED: ATOM     19  C   UNL d   1      10.052 -12.956   6.304 -0.31 -0.01    +0.052 C 
DOCKED: ATOM     20  C   UNL d   1      15.811 -10.743   5.786 -0.31 -0.03    +0.066 A 
DOCKED: ATOM     21  C   UNL d   1      17.144 -10.853   5.364 -0.33 +0.01    -0.025 A 
DOCKED: ATOM     22  C   UNL d   1      17.802  -9.768   5.905 -0.31 +0.00    -0.021 A 
DOCKED: ATOM     23  C   UNL d   1      16.852  -9.046   6.637 -0.27 -0.01    +0.066 A 
DOCKED: ATOM     24  C   UNL d   1      17.775 -11.921   4.502 -0.29 -0.02    +0.051 C 
DOCKED: ATOM     25  N   UNL d   1      14.956  -7.699   8.564 -0.15 +0.10    -0.248 N 
DOCKED: ATOM     26  N   UNL d   1      12.381  -8.870   8.948 -0.08 +0.12    -0.248 N 
DOCKED: ATOM     27  N   UNL d   1      13.049 -10.856   6.981 -0.09 +0.13    -0.248 N 
DOCKED: ATOM     28  N   UNL d   1      15.649  -9.670   6.598 -0.21 +0.10    -0.248 N 
DOCKED: ATOM     29 FE   UNL d   1      14.015  -9.271   7.771 -0.05 -0.00    +0.000 Fe
DOCKED: ENDROOT
DOCKED: BRANCH   6  30
DOCKED: ATOM     30  C   UNL d   1      17.628  -5.174   8.725 -0.12 -0.00    +0.052 C 
DOCKED: BRANCH  30  31
DOCKED: ATOM     31  C   UNL d   1      17.621  -4.432   7.393 -0.20 -0.01    +0.115 C 
DOCKED: BRANCH  31  32
DOCKED: ATOM     32  C   UNL d   1      17.231  -2.994   7.593 -0.20 -0.01    +0.139 C 
DOCKED: ATOM     33  O   UNL d   1      18.046  -2.178   7.997 +0.03 +0.01    -0.650 OA
DOCKED: BRANCH  32  34
DOCKED: ATOM     34  O   UNL d   1      15.976  -2.593   7.329 -0.21 +0.06    -0.776 OA
DOCKED: ATOM     35  H   UNL d   1      15.242  -3.199   7.505 -0.49 -0.06    +0.167 HD
DOCKED: ENDBRANCH  32  34
DOCKED: ENDBRANCH  31  32
DOCKED: ENDBRANCH  30  31
DOCKED: ENDBRANCH   6  30
DOCKED: BRANCH  22  36
DOCKED: ATOM     36  C   UNL d   1      19.272  -9.471   5.765 -0.29 +0.02    +0.052 C 
DOCKED: BRANCH  36  37
DOCKED: ATOM     37  C   UNL d   1      20.056 -10.266   6.799 -0.14 +0.03    +0.115 C 
DOCKED: BRANCH  37  38
DOCKED: ATOM     38  C   UNL d   1      21.291 -10.869   6.191 -0.10 +0.08    +0.139 C 
DOCKED: ATOM     39  O   UNL d   1      21.213 -11.608   5.221 -0.03 -0.34    -0.650 OA
DOCKED: BRANCH  38  40
DOCKED: ATOM     40  O   UNL d   1      22.499 -10.599   6.718 -0.21 -0.90    -0.776 OA
DOCKED: ATOM     41  H   UNL d   1      22.640 -10.738   7.665 +0.01 +0.13    +0.167 HD
DOCKED: ENDBRANCH  38  40
DOCKED: ENDBRANCH  37  38
DOCKED: ENDBRANCH  36  37
DOCKED: ENDBRANCH  22  36
DOCKED: BRANCH  12  42
DOCKED: ATOM     42  C   UNL d   1       9.134  -9.695  10.606 -0.22 -0.00    +0.004 C 
DOCKED: ATOM     43  C   UNL d   1       8.275 -10.297   9.773 -0.26 -0.01    +0.012 C 
DOCKED: ENDBRANCH  12  42
DOCKED: BRANCH  17  44
DOCKED: ATOM     44  C   UNL d   1      12.523 -13.509   4.469 -0.34 -0.00    +0.004 C 
DOCKED: ATOM     45  C   UNL d   1      12.797 -14.794   4.715 -0.28 -0.00    +0.012 C 
DOCKED: ENDBRANCH  17  44
DOCKED: TORSDOF 10
DOCKED: TER
DOCKED: ENDMDL
________________________________________________________________________________


	BEGINNING GENETIC ALGORITHM DOCKING 92 of 100
Run: 92 Seed: 908529466 932252095 [ Run 92 of 100 GA/GALS ]
Beginning LAMARCKIAN GENETIC ALGORITHM (LGA), with a maximum of 25000000 energy evaluations.

Final-Value: -10.958


	FINAL GENETIC ALGORITHM DOCKED STATE
	_______________________________________________


Detailed state:  trans -18.613 10.349 0.884 quatxyzw 0.180661 0.216684 -0.144557 0.948427 center -0.174 -0.001 -0.047 ntor 10 -78.5917 -109.6995 -136.9530 27.6119 24.6147 -139.5276 -45.2736 -107.6356 -144.9051 -12.0281
State:	-18.613  10.349   0.884   0.570  0.684 -0.456 36.963    -78.59 -109.70 -136.95   27.61   24.61 -139.53  -45.27 -107.64 -144.91  -12.03

DOCKED: MODEL       92
DOCKED: USER    Run = 92
DOCKED: USER    DPF = D:/Protein_go_brrr/autodock/final/mut_D99N/heme_Fe/dock.dpf
DOCKED: USER  
DOCKED: USER    Estimated Free Energy of Binding    =   -6.28 kcal/mol  [=(1)+(2)+(3)-(4)]
DOCKED: USER    Estimated Inhibition Constant, Ki   =   24.84 uM (micromolar)  [Temperature = 298.15 K]
DOCKED: USER    
DOCKED: USER    (1) Final Intermolecular Energy     =   -9.27 kcal/mol
DOCKED: USER        vdW + Hbond + desolv Energy     =   -6.76 kcal/mol
DOCKED: USER        Electrostatic Energy            =   -2.50 kcal/mol
DOCKED: USER    (2) Final Total Internal Energy     =   -1.69 kcal/mol
DOCKED: USER    (3) Torsional Free Energy           =   +2.98 kcal/mol
DOCKED: USER    (4) Unbound System's Energy  [=(2)] =   -1.69 kcal/mol
DOCKED: USER    
DOCKED: USER    
DOCKED: USER    NEWDPF move heme_Fe_opt.pdbqt
DOCKED: USER    NEWDPF about -0.174000 -0.001000 -0.047000
DOCKED: USER    NEWDPF tran0 -18.612531 10.348741 0.884167
DOCKED: USER    NEWDPF quaternion0 0.180661 0.216684 -0.144557 0.948427
DOCKED: USER    NEWDPF axisangle0 0.569913 0.683553 -0.456020 36.962832
DOCKED: USER    NEWDPF quat0 0.569913 0.683553 -0.456020 36.962832
DOCKED: USER    NEWDPF dihe0 -78.59 -109.70 -136.95 27.61 24.61 -139.53 -45.27 -107.64 -144.91 -12.03 
DOCKED: USER  keepresnum = 1 
DOCKED: USER  
DOCKED: REMARK  10 active torsions:
DOCKED: REMARK  status: ('A' for Active; 'I' for Inactive)
DOCKED: REMARK    1  A    between atoms: C_6  and  C_10 
DOCKED: REMARK    2  A    between atoms: C_10  and  C_11 
DOCKED: REMARK    3  A    between atoms: C_11  and  C_12 
DOCKED: REMARK    4  A    between atoms: C_12  and  O_14 
DOCKED: REMARK    5  A    between atoms: C_17  and  C_20 
DOCKED: REMARK    6  A    between atoms: C_24  and  C_27 
DOCKED: REMARK    7  A    between atoms: C_31  and  C_34 
DOCKED: REMARK    8  A    between atoms: C_34  and  C_35 
DOCKED: REMARK    9  A    between atoms: C_35  and  C_36 
DOCKED: REMARK   10  A    between atoms: C_36  and  O_38 
DOCKED: USER                              x       y       z     vdW  Elec       q    Type
DOCKED: USER                           _______ _______ _______ _____ _____    ______ ____
DOCKED: ROOT
DOCKED: ATOM      1  C   UNL d   1     -20.560   9.747   0.645 -0.19 +0.01    +0.064 C 
DOCKED: ATOM      2  C   UNL d   1     -16.662   8.011   3.140 -0.08 -0.00    +0.064 A 
DOCKED: ATOM      3  C   UNL d   1     -14.469  12.239   2.520 -0.26 -0.01    +0.064 C 
DOCKED: ATOM      4  C   UNL d   1     -18.188  13.903   0.012 -0.10 -0.00    +0.064 C 
DOCKED: ATOM      5  C   UNL d   1     -19.632   8.838   1.332 -0.19 +0.01    +0.066 A 
DOCKED: ATOM      6  C   UNL d   1     -19.879   7.499   1.585 -0.20 -0.01    -0.021 A 
DOCKED: ATOM      7  C   UNL d   1     -18.798   7.018   2.281 -0.22 -0.00    -0.025 A 
DOCKED: ATOM      8  C   UNL d   1     -17.931   8.084   2.427 -0.21 -0.00    +0.066 A 
DOCKED: ATOM      9  C   UNL d   1     -18.609   5.611   2.758 -0.18 +0.01    +0.051 C 
DOCKED: ATOM     10  C   UNL d   1     -15.782   9.008   3.245 -0.14 -0.01    +0.066 A 
DOCKED: ATOM     11  C   UNL d   1     -14.628   8.943   4.030 -0.17 +0.00    -0.021 A 
DOCKED: ATOM     12  C   UNL d   1     -13.987  10.157   3.882 -0.28 -0.00    +0.000 A 
DOCKED: ATOM     13  C   UNL d   1     -14.794  10.909   3.012 -0.24 -0.01    +0.070 A 
DOCKED: ATOM     14  C   UNL d   1     -14.193   7.806   4.933 -0.18 -0.00    +0.052 C 
DOCKED: ATOM     15  C   UNL d   1     -15.268  12.988   1.723 -0.21 -0.01    +0.066 A 
DOCKED: ATOM     16  C   UNL d   1     -14.878  14.211   1.194 -0.17 +0.00    -0.021 A 
DOCKED: ATOM     17  C   UNL d   1     -15.951  14.695   0.473 -0.09 -0.00    +0.000 A 
DOCKED: ATOM     18  C   UNL d   1     -16.973  13.755   0.583 +0.03 -0.01    +0.070 A 
DOCKED: ATOM     19  C   UNL d   1     -13.560  14.913   1.377 -0.17 -0.00    +0.052 C 
DOCKED: ATOM     20  C   UNL d   1     -19.266  12.908   0.055 -0.13 +0.00    +0.066 A 
DOCKED: ATOM     21  C   UNL d   1     -20.588  13.127  -0.357 -0.07 -0.00    -0.025 A 
DOCKED: ATOM     22  C   UNL d   1     -21.243  11.926  -0.179 -0.06 -0.00    -0.021 A 
DOCKED: ATOM     23  C   UNL d   1     -20.301  11.028   0.336 -0.14 +0.01    +0.066 A 
DOCKED: ATOM     24  C   UNL d   1     -21.212  14.397  -0.886 -0.03 +0.00    +0.051 C 
DOCKED: ATOM     25  N   UNL d   1     -18.437   9.187   1.840 -0.11 +0.03    -0.248 N 
DOCKED: ATOM     26  N   UNL d   1     -15.893  10.213   2.630 -0.18 +0.05    -0.248 N 
DOCKED: ATOM     27  N   UNL d   1     -16.539  12.685   1.315 -0.14 +0.04    -0.248 N 
DOCKED: ATOM     28  N   UNL d   1     -19.109  11.644   0.519 -0.13 +0.01    -0.248 N 
DOCKED: ATOM     29 FE   UNL d   1     -17.501  10.930   1.574 -0.05 -0.00    +0.000 Fe
DOCKED: ENDROOT
DOCKED: BRANCH   6  30
DOCKED: ATOM     30  C   UNL d   1     -21.072   6.707   1.169 -0.15 +0.02    +0.052 C 
DOCKED: BRANCH  30  31
DOCKED: ATOM     31  C   UNL d   1     -22.355   7.362   1.668 -0.08 +0.04    +0.115 C 
DOCKED: BRANCH  31  32
DOCKED: ATOM     32  C   UNL d   1     -23.388   7.395   0.575 -0.09 +0.10    +0.139 C 
DOCKED: ATOM     33  O   UNL d   1     -23.350   6.588  -0.342 -0.33 -0.86    -0.650 OA
DOCKED: BRANCH  32  34
DOCKED: ATOM     34  O   UNL d   1     -24.366   8.316   0.599 -0.01 -0.38    -0.776 OA
DOCKED: ATOM     35  H   UNL d   1     -24.292   9.094   0.029 +0.01 +0.09    +0.167 HD
DOCKED: ENDBRANCH  32  34
DOCKED: ENDBRANCH  31  32
DOCKED: ENDBRANCH  30  31
DOCKED: ENDBRANCH   6  30
DOCKED: BRANCH  22  36
DOCKED: ATOM     36  C   UNL d   1     -22.703  11.673  -0.445 -0.03 +0.01    +0.052 C 
DOCKED: BRANCH  36  37
DOCKED: ATOM     37  C   UNL d   1     -22.907  11.336  -1.915 -0.06 +0.04    +0.115 C 
DOCKED: BRANCH  37  38
DOCKED: ATOM     38  C   UNL d   1     -22.368   9.969  -2.233 -0.06 +0.15    +0.139 C 
DOCKED: ATOM     39  O   UNL d   1     -21.762   9.763  -3.275 -0.48 -0.78    -0.650 OA
DOCKED: BRANCH  38  40
DOCKED: ATOM     40  O   UNL d   1     -22.554   8.956  -1.369 -0.09 -1.34    -0.776 OA
DOCKED: ATOM     41  H   UNL d   1     -23.444   8.596  -1.252 +0.01 +0.31    +0.167 HD
DOCKED: ENDBRANCH  38  40
DOCKED: ENDBRANCH  37  38
DOCKED: ENDBRANCH  36  37
DOCKED: ENDBRANCH  22  36
DOCKED: BRANCH  12  42
DOCKED: ATOM     42  C   UNL d   1     -12.707  10.536   4.556 -0.44 -0.00    +0.004 C 
DOCKED: ATOM     43  C   UNL d   1     -12.709  11.117   5.763 -0.41 -0.00    +0.012 C 
DOCKED: ENDBRANCH  12  42
DOCKED: BRANCH  17  44
DOCKED: ATOM     44  C   UNL d   1     -15.988  15.964  -0.289 -0.13 -0.00    +0.004 C 
DOCKED: ATOM     45  C   UNL d   1     -15.467  16.040  -1.518 -0.14 -0.00    +0.012 C 
DOCKED: ENDBRANCH  17  44
DOCKED: TORSDOF 10
DOCKED: TER
DOCKED: ENDMDL
________________________________________________________________________________


	BEGINNING GENETIC ALGORITHM DOCKING 93 of 100
Run: 93 Seed: 1106802433 692203037 [ Run 93 of 100 GA/GALS ]
Beginning LAMARCKIAN GENETIC ALGORITHM (LGA), with a maximum of 25000000 energy evaluations.

Final-Value: -13.512


	FINAL GENETIC ALGORITHM DOCKED STATE
	_______________________________________________


Detailed state:  trans -7.682 2.068 0.342 quatxyzw -0.317834 -0.044917 -0.705855 0.631452 center -0.174 -0.001 -0.047 ntor 10 -27.8449 -37.7702 -126.2345 -136.1399 56.8488 -145.2390 -43.3969 65.5891 123.1411 13.3804
State:	 -7.682   2.068   0.342  -0.410 -0.058 -0.910 101.685    -27.84  -37.77 -126.23 -136.14   56.85 -145.24  -43.40   65.59  123.14   13.38

DOCKED: MODEL       93
DOCKED: USER    Run = 93
DOCKED: USER    DPF = D:/Protein_go_brrr/autodock/final/mut_D99N/heme_Fe/dock.dpf
DOCKED: USER  
DOCKED: USER    Estimated Free Energy of Binding    =  -10.28 kcal/mol  [=(1)+(2)+(3)-(4)]
DOCKED: USER    Estimated Inhibition Constant, Ki   =   29.19 nM (nanomolar)  [Temperature = 298.15 K]
DOCKED: USER    
DOCKED: USER    (1) Final Intermolecular Energy     =  -13.26 kcal/mol
DOCKED: USER        vdW + Hbond + desolv Energy     =  -12.79 kcal/mol
DOCKED: USER        Electrostatic Energy            =   -0.47 kcal/mol
DOCKED: USER    (2) Final Total Internal Energy     =   -0.25 kcal/mol
DOCKED: USER    (3) Torsional Free Energy           =   +2.98 kcal/mol
DOCKED: USER    (4) Unbound System's Energy  [=(2)] =   -0.25 kcal/mol
DOCKED: USER    
DOCKED: USER    
DOCKED: USER    NEWDPF move heme_Fe_opt.pdbqt
DOCKED: USER    NEWDPF about -0.174000 -0.001000 -0.047000
DOCKED: USER    NEWDPF tran0 -7.681670 2.067530 0.342433
DOCKED: USER    NEWDPF quaternion0 -0.317834 -0.044917 -0.705855 0.631452
DOCKED: USER    NEWDPF axisangle0 -0.409889 -0.057926 -0.910294 101.685269
DOCKED: USER    NEWDPF quat0 -0.409889 -0.057926 -0.910294 101.685269
DOCKED: USER    NEWDPF dihe0 -27.84 -37.77 -126.23 -136.14 56.85 -145.24 -43.40 65.59 123.14 13.38 
DOCKED: USER  keepresnum = 1 
DOCKED: USER  
DOCKED: REMARK  10 active torsions:
DOCKED: REMARK  status: ('A' for Active; 'I' for Inactive)
DOCKED: REMARK    1  A    between atoms: C_6  and  C_10 
DOCKED: REMARK    2  A    between atoms: C_10  and  C_11 
DOCKED: REMARK    3  A    between atoms: C_11  and  C_12 
DOCKED: REMARK    4  A    between atoms: C_12  and  O_14 
DOCKED: REMARK    5  A    between atoms: C_17  and  C_20 
DOCKED: REMARK    6  A    between atoms: C_24  and  C_27 
DOCKED: REMARK    7  A    between atoms: C_31  and  C_34 
DOCKED: REMARK    8  A    between atoms: C_34  and  C_35 
DOCKED: REMARK    9  A    between atoms: C_35  and  C_36 
DOCKED: REMARK   10  A    between atoms: C_36  and  O_38 
DOCKED: USER                              x       y       z     vdW  Elec       q    Type
DOCKED: USER                           _______ _______ _______ _____ _____    ______ ____
DOCKED: ROOT
DOCKED: ATOM      1  C   UNL d   1      -7.361   0.077  -0.039 -0.46 +0.01    +0.064 C 
DOCKED: ATOM      2  C   UNL d   1      -4.592   4.162  -0.307 -0.34 +0.01    +0.064 A 
DOCKED: ATOM      3  C   UNL d   1      -7.875   6.478   2.324 -0.52 +0.01    +0.064 C 
DOCKED: ATOM      4  C   UNL d   1     -10.621   2.564   2.507 -0.23 +0.02    +0.064 C 
DOCKED: ATOM      5  C   UNL d   1      -6.317   1.035  -0.429 -0.40 +0.01    +0.066 A 
DOCKED: ATOM      6  C   UNL d   1      -5.263   0.752  -1.281 -0.43 -0.00    -0.021 A 
DOCKED: ATOM      7  C   UNL d   1      -4.492   1.886  -1.352 -0.40 -0.00    -0.025 A 
DOCKED: ATOM      8  C   UNL d   1      -5.107   2.819  -0.540 -0.37 +0.01    +0.066 A 
DOCKED: ATOM      9  C   UNL d   1      -3.250   2.059  -2.171 -0.47 +0.00    +0.051 C 
DOCKED: ATOM     10  C   UNL d   1      -5.195   5.100   0.426 -0.42 +0.01    +0.066 A 
DOCKED: ATOM     11  C   UNL d   1      -4.622   6.338   0.724 -0.53 -0.00    -0.021 A 
DOCKED: ATOM     12  C   UNL d   1      -5.542   7.019   1.496 -0.55 +0.00    +0.000 A 
DOCKED: ATOM     13  C   UNL d   1      -6.637   6.148   1.637 -0.43 +0.01    +0.070 A 
DOCKED: ATOM     14  C   UNL d   1      -3.236   6.824   0.349 -0.08 +0.01    +0.052 C 
DOCKED: ATOM     15  C   UNL d   1      -8.911   5.625   2.507 -0.46 +0.01    +0.066 A 
DOCKED: ATOM     16  C   UNL d   1     -10.117   6.008   3.081 -0.49 -0.00    -0.021 A 
DOCKED: ATOM     17  C   UNL d   1     -10.909   4.880   3.138 -0.24 +0.00    +0.000 A 
DOCKED: ATOM     18  C   UNL d   1     -10.165   3.832   2.600 -0.33 +0.01    +0.070 A 
DOCKED: ATOM     19  C   UNL d   1     -10.503   7.374   3.581 -0.18 -0.00    +0.052 C 
DOCKED: ATOM     20  C   UNL d   1      -9.891   1.450   1.892 -0.12 +0.02    +0.066 A 
DOCKED: ATOM     21  C   UNL d   1     -10.261   0.100   1.966 -0.30 -0.01    -0.025 A 
DOCKED: ATOM     22  C   UNL d   1      -9.326  -0.590   1.222 -0.43 -0.01    -0.021 A 
DOCKED: ATOM     23  C   UNL d   1      -8.422   0.361   0.732 -0.37 +0.02    +0.066 A 
DOCKED: ATOM     24  C   UNL d   1     -11.429  -0.519   2.698 +0.11 +0.07    +0.051 C 
DOCKED: ATOM     25  N   UNL d   1      -6.222   2.301   0.013 -0.26 -0.03    -0.248 N 
DOCKED: ATOM     26  N   UNL d   1      -6.422   4.975   0.992 -0.26 -0.04    -0.248 N 
DOCKED: ATOM     27  N   UNL d   1      -8.953   4.298   2.172 -0.28 -0.06    -0.248 N 
DOCKED: ATOM     28  N   UNL d   1      -8.747   1.598   1.181 -0.08 -0.09    -0.248 N 
DOCKED: ATOM     29 FE   UNL d   1      -7.586   3.286   1.088 -0.09 +0.00    +0.000 Fe
DOCKED: ENDROOT
DOCKED: BRANCH   6  30
DOCKED: ATOM     30  C   UNL d   1      -5.009  -0.524  -2.010 -0.52 +0.00    +0.052 C 
DOCKED: BRANCH  30  31
DOCKED: ATOM     31  C   UNL d   1      -3.512  -0.768  -2.166 -0.49 +0.00    +0.115 C 
DOCKED: BRANCH  31  32
DOCKED: ATOM     32  C   UNL d   1      -3.181  -2.205  -1.875 -0.49 -0.01    +0.139 C 
DOCKED: ATOM     33  O   UNL d   1      -3.722  -3.108  -2.498 +0.06 +0.05    -0.650 OA
DOCKED: BRANCH  32  34
DOCKED: ATOM     34  O   UNL d   1      -2.283  -2.511  -0.923 +0.16 +0.05    -0.776 OA
DOCKED: ATOM     35  H   UNL d   1      -2.358  -3.358  -0.462 -0.15 -0.03    +0.167 HD
DOCKED: ENDBRANCH  32  34
DOCKED: ENDBRANCH  31  32
DOCKED: ENDBRANCH  30  31
DOCKED: ENDBRANCH   6  30
DOCKED: BRANCH  22  36
DOCKED: ATOM     36  C   UNL d   1      -9.277  -2.084   1.037 -0.47 +0.02    +0.052 C 
DOCKED: BRANCH  36  37
DOCKED: ATOM     37  C   UNL d   1      -9.632  -2.434  -0.401 +0.04 +0.03    +0.115 C 
DOCKED: BRANCH  37  38
DOCKED: ATOM     38  C   UNL d   1     -10.912  -3.219  -0.463 -0.18 +0.05    +0.139 C 
DOCKED: ATOM     39  O   UNL d   1     -11.068  -4.094  -1.302 -0.00 -0.11    -0.650 OA
DOCKED: BRANCH  38  40
DOCKED: ATOM     40  O   UNL d   1     -11.902  -2.958   0.408 +0.06 -0.61    -0.776 OA
DOCKED: ATOM     41  H   UNL d   1     -12.819  -2.992   0.102 +0.05 +0.12    +0.167 HD
DOCKED: ENDBRANCH  38  40
DOCKED: ENDBRANCH  37  38
DOCKED: ENDBRANCH  36  37
DOCKED: ENDBRANCH  22  36
DOCKED: BRANCH  12  42
DOCKED: ATOM     42  C   UNL d   1      -5.343   8.392   2.054 -0.62 +0.00    +0.004 C 
DOCKED: ATOM     43  C   UNL d   1      -4.589   8.590   3.144 -0.53 +0.00    +0.012 C 
DOCKED: ENDBRANCH  12  42
DOCKED: BRANCH  17  44
DOCKED: ATOM     44  C   UNL d   1     -12.295   4.814   3.655 -0.04 +0.00    +0.004 C 
DOCKED: ATOM     45  C   UNL d   1     -12.532   4.705   4.966 -0.27 +0.00    +0.012 C 
DOCKED: ENDBRANCH  17  44
DOCKED: TORSDOF 10
DOCKED: TER
DOCKED: ENDMDL
________________________________________________________________________________


	BEGINNING GENETIC ALGORITHM DOCKING 94 of 100
Run: 94 Seed: 1531105110 1725268504 [ Run 94 of 100 GA/GALS ]
Beginning LAMARCKIAN GENETIC ALGORITHM (LGA), with a maximum of 25000000 energy evaluations.

Final-Value: -10.575


	FINAL GENETIC ALGORITHM DOCKED STATE
	_______________________________________________


Detailed state:  trans 9.545 11.298 6.708 quatxyzw -0.429472 -0.616934 0.622070 -0.219031 center -0.174 -0.001 -0.047 ntor 10 -32.9555 -53.7568 172.5232 -154.1124 79.6884 -180.0000 -68.4092 54.4647 164.9202 174.3455
State:	  9.545  11.298   6.708  -0.440 -0.632  0.638 -154.696    -32.96  -53.76  172.52 -154.11   79.69 -180.00  -68.41   54.46  164.92  174.35

DOCKED: MODEL       94
DOCKED: USER    Run = 94
DOCKED: USER    DPF = D:/Protein_go_brrr/autodock/final/mut_D99N/heme_Fe/dock.dpf
DOCKED: USER  
DOCKED: USER    Estimated Free Energy of Binding    =   -5.06 kcal/mol  [=(1)+(2)+(3)-(4)]
DOCKED: USER    Estimated Inhibition Constant, Ki   =  195.60 uM (micromolar)  [Temperature = 298.15 K]
DOCKED: USER    
DOCKED: USER    (1) Final Intermolecular Energy     =   -8.04 kcal/mol
DOCKED: USER        vdW + Hbond + desolv Energy     =   -6.69 kcal/mol
DOCKED: USER        Electrostatic Energy            =   -1.35 kcal/mol
DOCKED: USER    (2) Final Total Internal Energy     =   -2.53 kcal/mol
DOCKED: USER    (3) Torsional Free Energy           =   +2.98 kcal/mol
DOCKED: USER    (4) Unbound System's Energy  [=(2)] =   -2.53 kcal/mol
DOCKED: USER    
DOCKED: USER    
DOCKED: USER    NEWDPF move heme_Fe_opt.pdbqt
DOCKED: USER    NEWDPF about -0.174000 -0.001000 -0.047000
DOCKED: USER    NEWDPF tran0 9.544587 11.297668 6.708206
DOCKED: USER    NEWDPF quaternion0 -0.429472 -0.616934 0.622070 -0.219031
DOCKED: USER    NEWDPF axisangle0 -0.440161 -0.632287 0.637551 -154.695705
DOCKED: USER    NEWDPF quat0 -0.440161 -0.632287 0.637551 -154.695705
DOCKED: USER    NEWDPF dihe0 -32.96 -53.76 172.52 -154.11 79.69 -180.00 -68.41 54.46 164.92 174.35 
DOCKED: USER  keepresnum = 1 
DOCKED: USER  
DOCKED: REMARK  10 active torsions:
DOCKED: REMARK  status: ('A' for Active; 'I' for Inactive)
DOCKED: REMARK    1  A    between atoms: C_6  and  C_10 
DOCKED: REMARK    2  A    between atoms: C_10  and  C_11 
DOCKED: REMARK    3  A    between atoms: C_11  and  C_12 
DOCKED: REMARK    4  A    between atoms: C_12  and  O_14 
DOCKED: REMARK    5  A    between atoms: C_17  and  C_20 
DOCKED: REMARK    6  A    between atoms: C_24  and  C_27 
DOCKED: REMARK    7  A    between atoms: C_31  and  C_34 
DOCKED: REMARK    8  A    between atoms: C_34  and  C_35 
DOCKED: REMARK    9  A    between atoms: C_35  and  C_36 
DOCKED: REMARK   10  A    between atoms: C_36  and  O_38 
DOCKED: USER                              x       y       z     vdW  Elec       q    Type
DOCKED: USER                           _______ _______ _______ _____ _____    ______ ____
DOCKED: ROOT
DOCKED: ATOM      1  C   UNL d   1      10.162   9.408   7.218 -0.10 +0.01    +0.064 C 
DOCKED: ATOM      2  C   UNL d   1       7.507  12.926   9.457 -0.25 -0.01    +0.064 A 
DOCKED: ATOM      3  C   UNL d   1       7.025  15.155   5.230 -0.24 -0.01    +0.064 C 
DOCKED: ATOM      4  C   UNL d   1       9.679  11.817   3.063 -0.18 +0.00    +0.064 C 
DOCKED: ATOM      5  C   UNL d   1       9.530  10.236   8.256 -0.09 +0.00    +0.066 A 
DOCKED: ATOM      6  C   UNL d   1       9.565   9.964   9.614 -0.14 -0.00    -0.021 A 
DOCKED: ATOM      7  C   UNL d   1       8.825  10.940  10.234 -0.18 -0.00    -0.025 A 
DOCKED: ATOM      8  C   UNL d   1       8.365  11.770   9.230 -0.24 -0.00    +0.066 A 
DOCKED: ATOM      9  C   UNL d   1       8.594  11.069  11.709 -0.15 -0.00    +0.051 C 
DOCKED: ATOM     10  C   UNL d   1       7.098  13.776   8.513 -0.26 -0.01    +0.066 A 
DOCKED: ATOM     11  C   UNL d   1       6.184  14.807   8.743 -0.26 +0.00    -0.021 A 
DOCKED: ATOM     12  C   UNL d   1       6.015  15.454   7.536 -0.26 -0.00    +0.000 A 
DOCKED: ATOM     13  C   UNL d   1       6.836  14.773   6.621 -0.07 -0.02    +0.070 A 
DOCKED: ATOM     14  C   UNL d   1       5.454  15.118  10.034 -0.22 -0.01    +0.052 C 
DOCKED: ATOM     15  C   UNL d   1       7.773  14.472   4.333 -0.22 -0.01    +0.066 A 
DOCKED: ATOM     16  C   UNL d   1       8.009  14.924   3.040 -0.17 +0.00    -0.021 A 
DOCKED: ATOM     17  C   UNL d   1       8.771  13.961   2.412 -0.16 +0.00    +0.000 A 
DOCKED: ATOM     18  C   UNL d   1       8.980  12.940   3.337 -0.18 +0.00    +0.070 A 
DOCKED: ATOM     19  C   UNL d   1       7.516  16.198   2.410 -0.13 +0.00    +0.052 C 
DOCKED: ATOM     20  C   UNL d   1       9.972  10.751   4.029 -0.05 +0.00    +0.066 A 
DOCKED: ATOM     21  C   UNL d   1      10.517   9.498   3.712 -0.12 -0.00    -0.025 A 
DOCKED: ATOM     22  C   UNL d   1      10.658   8.833   4.912 -0.12 -0.00    -0.021 A 
DOCKED: ATOM     23  C   UNL d   1      10.189   9.698   5.908 -0.10 +0.00    +0.066 A 
DOCKED: ATOM     24  C   UNL d   1      10.886   8.946   2.354 -0.11 +0.00    +0.051 C 
DOCKED: ATOM     25  N   UNL d   1       8.804  11.344   8.028 -0.16 -0.00    -0.248 N 
DOCKED: ATOM     26  N   UNL d   1       7.490  13.744   7.214 -0.18 +0.04    -0.248 N 
DOCKED: ATOM     27  N   UNL d   1       8.405  13.273   4.531 -0.16 +0.01    -0.248 N 
DOCKED: ATOM     28  N   UNL d   1       9.730  10.849   5.358 -0.01 -0.01    -0.248 N 
DOCKED: ATOM     29 FE   UNL d   1       8.611  12.296   6.284 -0.05 -0.00    +0.000 Fe
DOCKED: ENDROOT
DOCKED: BRANCH   6  30
DOCKED: ATOM     30  C   UNL d   1      10.283   8.848  10.292 -0.10 +0.01    +0.052 C 
DOCKED: BRANCH  30  31
DOCKED: ATOM     31  C   UNL d   1       9.302   7.776  10.754 -0.15 +0.02    +0.115 C 
DOCKED: BRANCH  31  32
DOCKED: ATOM     32  C   UNL d   1       9.488   6.515   9.957 -0.16 +0.06    +0.139 C 
DOCKED: ATOM     33  O   UNL d   1      10.396   5.739  10.221 +0.04 -0.43    -0.650 OA
DOCKED: BRANCH  32  34
DOCKED: ATOM     34  O   UNL d   1       8.653   6.227   8.944 -0.14 -0.47    -0.776 OA
DOCKED: ATOM     35  H   UNL d   1       8.995   5.751   8.174 +0.05 +0.17    +0.167 HD
DOCKED: ENDBRANCH  32  34
DOCKED: ENDBRANCH  31  32
DOCKED: ENDBRANCH  30  31
DOCKED: ENDBRANCH   6  30
DOCKED: BRANCH  22  36
DOCKED: ATOM     36  C   UNL d   1      11.168   7.427   5.084 -0.11 +0.01    +0.052 C 
DOCKED: BRANCH  36  37
DOCKED: ATOM     37  C   UNL d   1      10.010   6.445   4.985 -0.20 +0.02    +0.115 C 
DOCKED: BRANCH  37  38
DOCKED: ATOM     38  C   UNL d   1       9.965   5.542   6.185 -0.23 +0.07    +0.139 C 
DOCKED: ATOM     39  O   UNL d   1       9.101   4.684   6.289 -0.35 -0.49    -0.650 OA
DOCKED: BRANCH  38  40
DOCKED: ATOM     40  O   UNL d   1      10.880   5.677   7.161 -0.00 -0.45    -0.776 OA
DOCKED: ATOM     41  H   UNL d   1      10.580   5.798   8.073 +0.03 +0.13    +0.167 HD
DOCKED: ENDBRANCH  38  40
DOCKED: ENDBRANCH  37  38
DOCKED: ENDBRANCH  36  37
DOCKED: ENDBRANCH  22  36
DOCKED: BRANCH  12  42
DOCKED: ATOM     42  C   UNL d   1       5.110  16.624   7.311 -0.24 -0.00    +0.004 C 
DOCKED: ATOM     43  C   UNL d   1       4.375  16.722   6.195 -0.30 +0.00    +0.012 C 
DOCKED: ENDBRANCH  12  42
DOCKED: BRANCH  17  44
DOCKED: ATOM     44  C   UNL d   1       9.284  14.023   1.025 -0.10 +0.00    +0.004 C 
DOCKED: ATOM     45  C   UNL d   1       8.669  13.364   0.038 -0.15 +0.00    +0.012 C 
DOCKED: ENDBRANCH  17  44
DOCKED: TORSDOF 10
DOCKED: TER
DOCKED: ENDMDL
________________________________________________________________________________


	BEGINNING GENETIC ALGORITHM DOCKING 95 of 100
Run: 95 Seed: 1505878890 1977252758 [ Run 95 of 100 GA/GALS ]
Beginning LAMARCKIAN GENETIC ALGORITHM (LGA), with a maximum of 25000000 energy evaluations.

Final-Value: -11.444


	FINAL GENETIC ALGORITHM DOCKED STATE
	_______________________________________________


Detailed state:  trans -13.161 5.559 5.785 quatxyzw 0.328086 0.292954 0.793112 -0.421320 center -0.174 -0.001 -0.047 ntor 10 48.1587 84.0390 -101.3049 -157.0745 104.8510 -24.1973 35.5191 29.7199 154.3471 3.1854
State:	-13.161   5.559   5.785   0.362  0.323  0.875 -130.164     48.16   84.04 -101.30 -157.07  104.85  -24.20   35.52   29.72  154.35    3.19

DOCKED: MODEL       95
DOCKED: USER    Run = 95
DOCKED: USER    DPF = D:/Protein_go_brrr/autodock/final/mut_D99N/heme_Fe/dock.dpf
DOCKED: USER  
DOCKED: USER    Estimated Free Energy of Binding    =   -7.94 kcal/mol  [=(1)+(2)+(3)-(4)]
DOCKED: USER    Estimated Inhibition Constant, Ki   =    1.52 uM (micromolar)  [Temperature = 298.15 K]
DOCKED: USER    
DOCKED: USER    (1) Final Intermolecular Energy     =  -10.92 kcal/mol
DOCKED: USER        vdW + Hbond + desolv Energy     =   -9.25 kcal/mol
DOCKED: USER        Electrostatic Energy            =   -1.67 kcal/mol
DOCKED: USER    (2) Final Total Internal Energy     =   -0.52 kcal/mol
DOCKED: USER    (3) Torsional Free Energy           =   +2.98 kcal/mol
DOCKED: USER    (4) Unbound System's Energy  [=(2)] =   -0.52 kcal/mol
DOCKED: USER    
DOCKED: USER    
DOCKED: USER    NEWDPF move heme_Fe_opt.pdbqt
DOCKED: USER    NEWDPF about -0.174000 -0.001000 -0.047000
DOCKED: USER    NEWDPF tran0 -13.161411 5.559314 5.785009
DOCKED: USER    NEWDPF quaternion0 0.328086 0.292954 0.793112 -0.421320
DOCKED: USER    NEWDPF axisangle0 0.361762 0.323024 0.874519 -130.164144
DOCKED: USER    NEWDPF quat0 0.361762 0.323024 0.874519 -130.164144
DOCKED: USER    NEWDPF dihe0 48.16 84.04 -101.30 -157.07 104.85 -24.20 35.52 29.72 154.35 3.19 
DOCKED: USER  keepresnum = 1 
DOCKED: USER  
DOCKED: REMARK  10 active torsions:
DOCKED: REMARK  status: ('A' for Active; 'I' for Inactive)
DOCKED: REMARK    1  A    between atoms: C_6  and  C_10 
DOCKED: REMARK    2  A    between atoms: C_10  and  C_11 
DOCKED: REMARK    3  A    between atoms: C_11  and  C_12 
DOCKED: REMARK    4  A    between atoms: C_12  and  O_14 
DOCKED: REMARK    5  A    between atoms: C_17  and  C_20 
DOCKED: REMARK    6  A    between atoms: C_24  and  C_27 
DOCKED: REMARK    7  A    between atoms: C_31  and  C_34 
DOCKED: REMARK    8  A    between atoms: C_34  and  C_35 
DOCKED: REMARK    9  A    between atoms: C_35  and  C_36 
DOCKED: REMARK   10  A    between atoms: C_36  and  O_38 
DOCKED: USER                              x       y       z     vdW  Elec       q    Type
DOCKED: USER                           _______ _______ _______ _____ _____    ______ ____
DOCKED: ROOT
DOCKED: ATOM      1  C   UNL d   1     -11.874   3.983   5.526 -0.29 +0.01    +0.064 C 
DOCKED: ATOM      2  C   UNL d   1     -12.009   8.663   3.941 -0.30 -0.01    +0.064 A 
DOCKED: ATOM      3  C   UNL d   1     -15.351   9.616   7.256 -0.10 -0.01    +0.064 C 
DOCKED: ATOM      4  C   UNL d   1     -15.313   5.066   8.735 -0.07 +0.02    +0.064 C 
DOCKED: ATOM      5  C   UNL d   1     -11.662   5.191   4.717 -0.30 +0.00    +0.066 A 
DOCKED: ATOM      6  C   UNL d   1     -10.849   5.262   3.598 -0.39 -0.00    -0.021 A 
DOCKED: ATOM      7  C   UNL d   1     -10.884   6.563   3.161 -0.44 -0.00    -0.025 A 
DOCKED: ATOM      8  C   UNL d   1     -11.719   7.237   4.031 -0.26 -0.01    +0.066 A 
DOCKED: ATOM      9  C   UNL d   1     -10.168   7.112   1.965 -0.16 +0.00    +0.051 C 
DOCKED: ATOM     10  C   UNL d   1     -12.855   9.325   4.732 -0.30 -0.01    +0.066 A 
DOCKED: ATOM     11  C   UNL d   1     -13.025  10.711   4.695 -0.33 +0.00    -0.021 A 
DOCKED: ATOM     12  C   UNL d   1     -13.972  11.014   5.654 -0.20 -0.00    +0.000 A 
DOCKED: ATOM     13  C   UNL d   1     -14.328   9.785   6.237 -0.14 -0.01    +0.070 A 
DOCKED: ATOM     14  C   UNL d   1     -12.273  11.708   3.837 -0.41 -0.01    +0.052 C 
DOCKED: ATOM     15  C   UNL d   1     -15.661   8.442   7.857 -0.08 -0.00    +0.066 A 
DOCKED: ATOM     16  C   UNL d   1     -16.713   8.304   8.754 -0.06 -0.00    -0.021 A 
DOCKED: ATOM     17  C   UNL d   1     -16.701   6.993   9.184 -0.08 +0.00    +0.000 A 
DOCKED: ATOM     18  C   UNL d   1     -15.638   6.363   8.542 -0.08 +0.01    +0.070 A 
DOCKED: ATOM     19  C   UNL d   1     -17.677   9.366   9.210 -0.03 -0.00    +0.052 C 
DOCKED: ATOM     20  C   UNL d   1     -14.240   4.353   8.031 -0.12 +0.02    +0.066 A 
DOCKED: ATOM     21  C   UNL d   1     -13.764   3.077   8.361 -0.14 -0.01    -0.025 A 
DOCKED: ATOM     22  C   UNL d   1     -12.793   2.783   7.426 -0.19 -0.00    -0.021 A 
DOCKED: ATOM     23  C   UNL d   1     -12.711   3.888   6.570 -0.18 +0.01    +0.066 A 
DOCKED: ATOM     24  C   UNL d   1     -14.189   2.175   9.497 -0.12 +0.01    +0.051 C 
DOCKED: ATOM     25  N   UNL d   1     -12.199   6.398   4.970 -0.18 +0.03    -0.248 N 
DOCKED: ATOM     26  N   UNL d   1     -13.641   8.757   5.681 -0.13 +0.04    -0.248 N 
DOCKED: ATOM     27  N   UNL d   1     -15.025   7.241   7.693 -0.07 -0.01    -0.248 N 
DOCKED: ATOM     28  N   UNL d   1     -13.565   4.861   6.971 -0.08 -0.03    -0.248 N 
DOCKED: ATOM     29 FE   UNL d   1     -13.604   6.808   6.328 -0.05 -0.00    +0.000 Fe
DOCKED: ENDROOT
DOCKED: BRANCH   6  30
DOCKED: ATOM     30  C   UNL d   1     -10.091   4.147   2.962 -0.42 +0.01    +0.052 C 
DOCKED: BRANCH  30  31
DOCKED: ATOM     31  C   UNL d   1      -8.590   4.400   3.040 -0.37 +0.02    +0.115 C 
DOCKED: BRANCH  31  32
DOCKED: ATOM     32  C   UNL d   1      -7.906   3.889   1.802 -0.30 +0.04    +0.139 C 
DOCKED: ATOM     33  O   UNL d   1      -7.515   4.664   0.941 -0.18 -0.15    -0.650 OA
DOCKED: BRANCH  32  34
DOCKED: ATOM     34  O   UNL d   1      -7.717   2.570   1.632 -0.95 -0.34    -0.776 OA
DOCKED: ATOM     35  H   UNL d   1      -6.842   2.251   1.367 +0.09 +0.05    +0.167 HD
DOCKED: ENDBRANCH  32  34
DOCKED: ENDBRANCH  31  32
DOCKED: ENDBRANCH  30  31
DOCKED: ENDBRANCH   6  30
DOCKED: BRANCH  22  36
DOCKED: ATOM     36  C   UNL d   1     -11.958   1.530   7.389 -0.25 +0.02    +0.052 C 
DOCKED: BRANCH  36  37
DOCKED: ATOM     37  C   UNL d   1     -12.523   0.567   6.354 -0.18 +0.07    +0.115 C 
DOCKED: BRANCH  37  38
DOCKED: ATOM     38  C   UNL d   1     -12.232  -0.858   6.730 -0.21 +0.13    +0.139 C 
DOCKED: ATOM     39  O   UNL d   1     -11.288  -1.134   7.456 -0.60 -0.47    -0.650 OA
DOCKED: BRANCH  38  40
DOCKED: ATOM     40  O   UNL d   1     -13.013  -1.848   6.263 -0.11 -1.26    -0.776 OA
DOCKED: ATOM     41  H   UNL d   1     -13.733  -2.180   6.817 +0.02 +0.18    +0.167 HD
DOCKED: ENDBRANCH  38  40
DOCKED: ENDBRANCH  37  38
DOCKED: ENDBRANCH  36  37
DOCKED: ENDBRANCH  22  36
DOCKED: BRANCH  12  42
DOCKED: ATOM     42  C   UNL d   1     -14.460  12.391   5.971 -0.17 -0.00    +0.004 C 
DOCKED: ATOM     43  C   UNL d   1     -13.600  13.375   6.270 -0.23 -0.01    +0.012 C 
DOCKED: ENDBRANCH  12  42
DOCKED: BRANCH  17  44
DOCKED: ATOM     44  C   UNL d   1     -17.658   6.379  10.133 -0.05 +0.00    +0.004 C 
DOCKED: ATOM     45  C   UNL d   1     -17.311   6.151  11.404 -0.07 +0.00    +0.012 C 
DOCKED: ENDBRANCH  17  44
DOCKED: TORSDOF 10
DOCKED: TER
DOCKED: ENDMDL
________________________________________________________________________________


	BEGINNING GENETIC ALGORITHM DOCKING 96 of 100
Run: 96 Seed: 22998159 777443020 [ Run 96 of 100 GA/GALS ]
Beginning LAMARCKIAN GENETIC ALGORITHM (LGA), with a maximum of 25000000 energy evaluations.

Final-Value: -10.642


	FINAL GENETIC ALGORITHM DOCKED STATE
	_______________________________________________


Detailed state:  trans -18.300 10.164 1.955 quatxyzw 0.940516 0.165938 0.185953 -0.230902 center -0.174 -0.001 -0.047 ntor 10 84.9927 -127.4946 -167.7153 -138.4128 -17.1936 -116.2925 69.7855 -33.9094 -144.4508 35.0419
State:	-18.300  10.164   1.955   0.967  0.171  0.191 -153.300     84.99 -127.49 -167.72 -138.41  -17.19 -116.29   69.79  -33.91 -144.45   35.04

DOCKED: MODEL       96
DOCKED: USER    Run = 96
DOCKED: USER    DPF = D:/Protein_go_brrr/autodock/final/mut_D99N/heme_Fe/dock.dpf
DOCKED: USER  
DOCKED: USER    Estimated Free Energy of Binding    =   -7.23 kcal/mol  [=(1)+(2)+(3)-(4)]
DOCKED: USER    Estimated Inhibition Constant, Ki   =    5.03 uM (micromolar)  [Temperature = 298.15 K]
DOCKED: USER    
DOCKED: USER    (1) Final Intermolecular Energy     =  -10.21 kcal/mol
DOCKED: USER        vdW + Hbond + desolv Energy     =   -7.81 kcal/mol
DOCKED: USER        Electrostatic Energy            =   -2.40 kcal/mol
DOCKED: USER    (2) Final Total Internal Energy     =   -0.43 kcal/mol
DOCKED: USER    (3) Torsional Free Energy           =   +2.98 kcal/mol
DOCKED: USER    (4) Unbound System's Energy  [=(2)] =   -0.43 kcal/mol
DOCKED: USER    
DOCKED: USER    
DOCKED: USER    NEWDPF move heme_Fe_opt.pdbqt
DOCKED: USER    NEWDPF about -0.174000 -0.001000 -0.047000
DOCKED: USER    NEWDPF tran0 -18.300488 10.164270 1.954906
DOCKED: USER    NEWDPF quaternion0 0.940516 0.165938 0.185953 -0.230902
DOCKED: USER    NEWDPF axisangle0 0.966637 0.170547 0.191118 -153.299607
DOCKED: USER    NEWDPF quat0 0.966637 0.170547 0.191118 -153.299607
DOCKED: USER    NEWDPF dihe0 84.99 -127.49 -167.72 -138.41 -17.19 -116.29 69.79 -33.91 -144.45 35.04 
DOCKED: USER  keepresnum = 1 
DOCKED: USER  
DOCKED: REMARK  10 active torsions:
DOCKED: REMARK  status: ('A' for Active; 'I' for Inactive)
DOCKED: REMARK    1  A    between atoms: C_6  and  C_10 
DOCKED: REMARK    2  A    between atoms: C_10  and  C_11 
DOCKED: REMARK    3  A    between atoms: C_11  and  C_12 
DOCKED: REMARK    4  A    between atoms: C_12  and  O_14 
DOCKED: REMARK    5  A    between atoms: C_17  and  C_20 
DOCKED: REMARK    6  A    between atoms: C_24  and  C_27 
DOCKED: REMARK    7  A    between atoms: C_31  and  C_34 
DOCKED: REMARK    8  A    between atoms: C_34  and  C_35 
DOCKED: REMARK    9  A    between atoms: C_35  and  C_36 
DOCKED: REMARK   10  A    between atoms: C_36  and  O_38 
DOCKED: USER                              x       y       z     vdW  Elec       q    Type
DOCKED: USER                           _______ _______ _______ _____ _____    ______ ____
DOCKED: ROOT
DOCKED: ATOM      1  C   UNL d   1     -19.822   9.227   0.946 -0.23 +0.01    +0.064 C 
DOCKED: ATOM      2  C   UNL d   1     -17.459  13.540   0.454 -0.04 -0.00    +0.064 A 
DOCKED: ATOM      3  C   UNL d   1     -14.025  11.915   3.393 -0.24 -0.01    +0.064 C 
DOCKED: ATOM      4  C   UNL d   1     -16.349   7.773   3.967 -0.06 -0.00    +0.064 C 
DOCKED: ATOM      5  C   UNL d   1     -19.517  10.623   0.601 -0.19 +0.00    +0.066 A 
DOCKED: ATOM      6  C   UNL d   1     -20.342  11.452  -0.142 -0.15 -0.00    -0.021 A 
DOCKED: ATOM      7  C   UNL d   1     -19.683  12.648  -0.281 -0.14 -0.00    -0.025 A 
DOCKED: ATOM      8  C   UNL d   1     -18.480  12.503   0.383 -0.17 -0.00    +0.066 A 
DOCKED: ATOM      9  C   UNL d   1     -20.196  13.860  -0.996 -0.09 +0.00    +0.051 C 
DOCKED: ATOM     10  C   UNL d   1     -16.316  13.447   1.136 -0.12 -0.01    +0.066 A 
DOCKED: ATOM     11  C   UNL d   1     -15.306  14.411   1.092 -0.14 +0.00    -0.021 A 
DOCKED: ATOM     12  C   UNL d   1     -14.297  13.958   1.918 -0.18 -0.00    +0.000 A 
DOCKED: ATOM     13  C   UNL d   1     -14.744  12.725   2.422 -0.18 -0.01    +0.070 A 
DOCKED: ATOM     14  C   UNL d   1     -15.274  15.670   0.249 -0.12 -0.00    +0.052 C 
DOCKED: ATOM     15  C   UNL d   1     -14.427  10.703   3.843 -0.20 -0.01    +0.066 A 
DOCKED: ATOM     16  C   UNL d   1     -13.763  10.007   4.844 -0.24 +0.00    -0.021 A 
DOCKED: ATOM     17  C   UNL d   1     -14.430   8.810   5.009 -0.18 -0.00    +0.000 A 
DOCKED: ATOM     18  C   UNL d   1     -15.484   8.803   4.099 -0.13 -0.00    +0.070 A 
DOCKED: ATOM     19  C   UNL d   1     -12.535  10.435   5.601 -0.33 -0.01    +0.052 C 
DOCKED: ATOM     20  C   UNL d   1     -17.506   7.756   3.064 -0.19 +0.00    +0.066 A 
DOCKED: ATOM     21  C   UNL d   1     -18.288   6.629   2.771 -0.20 -0.00    -0.025 A 
DOCKED: ATOM     22  C   UNL d   1     -19.279   7.069   1.918 -0.22 -0.00    -0.021 A 
DOCKED: ATOM     23  C   UNL d   1     -19.061   8.438   1.721 -0.20 +0.00    +0.066 A 
DOCKED: ATOM     24  C   UNL d   1     -18.117   5.209   3.259 -0.15 +0.01    +0.051 C 
DOCKED: ATOM     25  N   UNL d   1     -18.387  11.273   0.927 -0.10 +0.04    -0.248 N 
DOCKED: ATOM     26  N   UNL d   1     -15.971  12.408   1.939 -0.13 +0.04    -0.248 N 
DOCKED: ATOM     27  N   UNL d   1     -15.510   9.984   3.412 -0.14 +0.03    -0.248 N 
DOCKED: ATOM     28  N   UNL d   1     -17.952   8.841   2.387 -0.14 +0.02    -0.248 N 
DOCKED: ATOM     29 FE   UNL d   1     -16.961  10.623   2.164 -0.05 -0.00    +0.000 Fe
DOCKED: ENDROOT
DOCKED: BRANCH   6  30
DOCKED: ATOM     30  C   UNL d   1     -21.696  11.133  -0.675 -0.10 +0.01    +0.052 C 
DOCKED: BRANCH  30  31
DOCKED: ATOM     31  C   UNL d   1     -21.657   9.870  -1.530 -0.17 +0.09    +0.115 C 
DOCKED: BRANCH  31  32
DOCKED: ATOM     32  C   UNL d   1     -21.871  10.209  -2.979 -0.16 +0.11    +0.139 C 
DOCKED: ATOM     33  O   UNL d   1     -22.349  11.287  -3.303 +0.01 -0.24    -0.650 OA
DOCKED: BRANCH  32  34
DOCKED: ATOM     34  O   UNL d   1     -21.537   9.326  -3.935 -0.50 -1.15    -0.776 OA
DOCKED: ATOM     35  H   UNL d   1     -20.669   9.396  -4.357 -0.31 +0.08    +0.167 HD
DOCKED: ENDBRANCH  32  34
DOCKED: ENDBRANCH  31  32
DOCKED: ENDBRANCH  30  31
DOCKED: ENDBRANCH   6  30
DOCKED: BRANCH  22  36
DOCKED: ATOM     36  C   UNL d   1     -20.346   6.210   1.292 -0.19 +0.02    +0.052 C 
DOCKED: BRANCH  36  37
DOCKED: ATOM     37  C   UNL d   1     -21.705   6.872   1.464 -0.12 +0.05    +0.115 C 
DOCKED: BRANCH  37  38
DOCKED: ATOM     38  C   UNL d   1     -22.585   6.612   0.275 -0.05 +0.13    +0.139 C 
DOCKED: ATOM     39  O   UNL d   1     -22.966   7.531  -0.434 -0.53 -1.07    -0.650 OA
DOCKED: BRANCH  38  40
DOCKED: ATOM     40  O   UNL d   1     -22.966   5.355  -0.017 -0.03 -0.60    -0.776 OA
DOCKED: ATOM     41  H   UNL d   1     -23.375   4.815   0.675 +0.01 +0.07    +0.167 HD
DOCKED: ENDBRANCH  38  40
DOCKED: ENDBRANCH  37  38
DOCKED: ENDBRANCH  36  37
DOCKED: ENDBRANCH  22  36
DOCKED: BRANCH  12  42
DOCKED: ATOM     42  C   UNL d   1     -13.007  14.673   2.165 -0.19 -0.00    +0.004 C 
DOCKED: ATOM     43  C   UNL d   1     -11.834  14.103   1.862 -0.35 +0.00    +0.012 C 
DOCKED: ENDBRANCH  12  42
DOCKED: BRANCH  17  44
DOCKED: ATOM     44  C   UNL d   1     -14.092   7.752   5.987 -0.21 -0.00    +0.004 C 
DOCKED: ATOM     45  C   UNL d   1     -13.163   6.831   5.707 -0.27 -0.00    +0.012 C 
DOCKED: ENDBRANCH  17  44
DOCKED: TORSDOF 10
DOCKED: TER
DOCKED: ENDMDL
________________________________________________________________________________


	BEGINNING GENETIC ALGORITHM DOCKING 97 of 100
Run: 97 Seed: 1820776171 2014741211 [ Run 97 of 100 GA/GALS ]
Beginning LAMARCKIAN GENETIC ALGORITHM (LGA), with a maximum of 25000000 energy evaluations.

Final-Value: -17.742


	FINAL GENETIC ALGORITHM DOCKED STATE
	_______________________________________________


Detailed state:  trans -9.158 1.265 1.533 quatxyzw 0.940017 0.147754 -0.239388 0.192949 center -0.174 -0.001 -0.047 ntor 10 -118.1310 88.6581 40.3805 -132.0410 121.8882 -18.5752 84.6491 14.8621 -13.1967 116.5714
State:	 -9.158   1.265   1.533   0.958  0.151 -0.244 157.750   -118.13   88.66   40.38 -132.04  121.89  -18.58   84.65   14.86  -13.20  116.57

DOCKED: MODEL       97
DOCKED: USER    Run = 97
DOCKED: USER    DPF = D:/Protein_go_brrr/autodock/final/mut_D99N/heme_Fe/dock.dpf
DOCKED: USER  
DOCKED: USER    Estimated Free Energy of Binding    =  -13.37 kcal/mol  [=(1)+(2)+(3)-(4)]
DOCKED: USER    Estimated Inhibition Constant, Ki   =  159.48 pM (picomolar)  [Temperature = 298.15 K]
DOCKED: USER    
DOCKED: USER    (1) Final Intermolecular Energy     =  -16.35 kcal/mol
DOCKED: USER        vdW + Hbond + desolv Energy     =  -13.58 kcal/mol
DOCKED: USER        Electrostatic Energy            =   -2.77 kcal/mol
DOCKED: USER    (2) Final Total Internal Energy     =   -1.39 kcal/mol
DOCKED: USER    (3) Torsional Free Energy           =   +2.98 kcal/mol
DOCKED: USER    (4) Unbound System's Energy  [=(2)] =   -1.39 kcal/mol
DOCKED: USER    
DOCKED: USER    
DOCKED: USER    NEWDPF move heme_Fe_opt.pdbqt
DOCKED: USER    NEWDPF about -0.174000 -0.001000 -0.047000
DOCKED: USER    NEWDPF tran0 -9.157795 1.264532 1.533031
DOCKED: USER    NEWDPF quaternion0 0.940017 0.147754 -0.239388 0.192949
DOCKED: USER    NEWDPF axisangle0 0.958020 0.150584 -0.243973 157.750091
DOCKED: USER    NEWDPF quat0 0.958020 0.150584 -0.243973 157.750091
DOCKED: USER    NEWDPF dihe0 -118.13 88.66 40.38 -132.04 121.89 -18.58 84.65 14.86 -13.20 116.57 
DOCKED: USER  keepresnum = 1 
DOCKED: USER  
DOCKED: REMARK  10 active torsions:
DOCKED: REMARK  status: ('A' for Active; 'I' for Inactive)
DOCKED: REMARK    1  A    between atoms: C_6  and  C_10 
DOCKED: REMARK    2  A    between atoms: C_10  and  C_11 
DOCKED: REMARK    3  A    between atoms: C_11  and  C_12 
DOCKED: REMARK    4  A    between atoms: C_12  and  O_14 
DOCKED: REMARK    5  A    between atoms: C_17  and  C_20 
DOCKED: REMARK    6  A    between atoms: C_24  and  C_27 
DOCKED: REMARK    7  A    between atoms: C_31  and  C_34 
DOCKED: REMARK    8  A    between atoms: C_34  and  C_35 
DOCKED: REMARK    9  A    between atoms: C_35  and  C_36 
DOCKED: REMARK   10  A    between atoms: C_36  and  O_38 
DOCKED: USER                              x       y       z     vdW  Elec       q    Type
DOCKED: USER                           _______ _______ _______ _____ _____    ______ ____
DOCKED: ROOT
DOCKED: ATOM      1  C   UNL d   1     -11.106   0.739   1.906 -0.37 +0.03    +0.064 C 
DOCKED: ATOM      2  C   UNL d   1      -8.550   4.966   2.069 -0.42 +0.01    +0.064 A 
DOCKED: ATOM      3  C   UNL d   1      -5.042   2.862  -0.447 -0.43 +0.01    +0.064 C 
DOCKED: ATOM      4  C   UNL d   1      -7.452  -1.270  -0.526 -0.39 +0.01    +0.064 C 
DOCKED: ATOM      5  C   UNL d   1     -10.675   2.099   2.257 -0.23 +0.02    +0.066 A 
DOCKED: ATOM      6  C   UNL d   1     -11.384   2.967   3.072 -0.26 -0.00    -0.021 A 
DOCKED: ATOM      7  C   UNL d   1     -10.675   4.142   3.113 -0.33 -0.00    -0.025 A 
DOCKED: ATOM      8  C   UNL d   1      -9.560   3.946   2.322 -0.37 +0.01    +0.066 A 
DOCKED: ATOM      9  C   UNL d   1     -11.046   5.370   3.887 -0.41 +0.00    +0.051 C 
DOCKED: ATOM     10  C   UNL d   1      -7.437   4.785   1.357 -0.39 +0.01    +0.066 A 
DOCKED: ATOM     11  C   UNL d   1      -6.546   5.812   1.037 -0.47 -0.00    -0.021 A 
DOCKED: ATOM     12  C   UNL d   1      -5.534   5.234   0.297 -0.47 +0.00    +0.000 A 
DOCKED: ATOM     13  C   UNL d   1      -5.867   3.872   0.196 -0.38 +0.01    +0.070 A 
DOCKED: ATOM     14  C   UNL d   1      -6.687   7.285   1.361 -0.53 +0.01    +0.052 C 
DOCKED: ATOM     15  C   UNL d   1      -5.383   1.559  -0.592 -0.39 +0.01    +0.066 A 
DOCKED: ATOM     16  C   UNL d   1      -4.524   0.605  -1.123 -0.32 -0.00    -0.021 A 
DOCKED: ATOM     17  C   UNL d   1      -5.219  -0.587  -1.150 -0.38 +0.00    +0.000 A 
DOCKED: ATOM     18  C   UNL d   1      -6.488  -0.330  -0.638 -0.41 +0.01    +0.070 A 
DOCKED: ATOM     19  C   UNL d   1      -3.115   0.808  -1.611 -0.28 +0.00    +0.052 C 
DOCKED: ATOM     20  C   UNL d   1      -8.778  -1.051   0.065 -0.32 +0.01    +0.066 A 
DOCKED: ATOM     21  C   UNL d   1      -9.850  -1.953   0.006 -0.06 -0.01    -0.025 A 
DOCKED: ATOM     22  C   UNL d   1     -10.876  -1.366   0.716 -0.12 -0.01    -0.021 A 
DOCKED: ATOM     23  C   UNL d   1     -10.395  -0.133   1.172 -0.34 +0.03    +0.066 A 
DOCKED: ATOM     24  C   UNL d   1      -9.916  -3.296  -0.683 -0.22 +0.01    +0.051 C 
DOCKED: ATOM     25  N   UNL d   1      -9.558   2.699   1.810 -0.17 -0.08    -0.248 N 
DOCKED: ATOM     26  N   UNL d   1      -7.031   3.599   0.834 -0.14 -0.07    -0.248 N 
DOCKED: ATOM     27  N   UNL d   1      -6.576   0.979  -0.254 -0.27 -0.03    -0.248 N 
DOCKED: ATOM     28  N   UNL d   1      -9.130   0.074   0.734 -0.26 -0.07    -0.248 N 
DOCKED: ATOM     29 FE   UNL d   1      -8.080   1.835   0.783 -0.09 +0.00    +0.000 Fe
DOCKED: ENDROOT
DOCKED: BRANCH   6  30
DOCKED: ATOM     30  C   UNL d   1     -12.658   2.689   3.792 -0.23 +0.02    +0.052 C 
DOCKED: BRANCH  30  31
DOCKED: ATOM     31  C   UNL d   1     -12.406   1.824   5.022 -0.14 +0.05    +0.115 C 
DOCKED: BRANCH  31  32
DOCKED: ATOM     32  C   UNL d   1     -12.633   0.373   4.700 -0.15 +0.16    +0.139 C 
DOCKED: ATOM     33  O   UNL d   1     -11.739  -0.447   4.855 -0.49 -1.06    -0.650 OA
DOCKED: BRANCH  32  34
DOCKED: ATOM     34  O   UNL d   1     -13.826  -0.037   4.238 -0.21 -1.07    -0.776 OA
DOCKED: ATOM     35  H   UNL d   1     -14.149   0.314   3.396 +0.03 +0.17    +0.167 HD
DOCKED: ENDBRANCH  32  34
DOCKED: ENDBRANCH  31  32
DOCKED: ENDBRANCH  30  31
DOCKED: ENDBRANCH   6  30
DOCKED: BRANCH  22  36
DOCKED: ATOM     36  C   UNL d   1     -12.257  -1.938   0.902 +0.06 +0.06    +0.052 C 
DOCKED: BRANCH  36  37
DOCKED: ATOM     37  C   UNL d   1     -13.277  -0.810   0.955 -0.04 +0.10    +0.115 C 
DOCKED: BRANCH  37  38
DOCKED: ATOM     38  C   UNL d   1     -14.599  -1.303   1.473 -0.03 +0.16    +0.139 C 
DOCKED: ATOM     39  O   UNL d   1     -14.866  -2.496   1.470 -0.58 -0.86    -0.650 OA
DOCKED: BRANCH  38  40
DOCKED: ATOM     40  O   UNL d   1     -15.504  -0.427   1.944 +0.00 -0.52    -0.776 OA
DOCKED: ATOM     41  H   UNL d   1     -15.504  -0.213   2.888 +0.03 +0.12    +0.167 HD
DOCKED: ENDBRANCH  38  40
DOCKED: ENDBRANCH  37  38
DOCKED: ENDBRANCH  36  37
DOCKED: ENDBRANCH  22  36
DOCKED: BRANCH  12  42
DOCKED: ATOM     42  C   UNL d   1      -4.361   5.969  -0.270 -0.64 +0.00    +0.004 C 
DOCKED: ATOM     43  C   UNL d   1      -3.242   6.139   0.446 -0.65 +0.00    +0.012 C 
DOCKED: ENDBRANCH  12  42
DOCKED: BRANCH  17  44
DOCKED: ATOM     44  C   UNL d   1      -4.695  -1.890  -1.617 -0.58 -0.00    +0.004 C 
DOCKED: ATOM     45  C   UNL d   1      -4.601  -2.163  -2.922 -0.73 -0.00    +0.012 C 
DOCKED: ENDBRANCH  17  44
DOCKED: TORSDOF 10
DOCKED: TER
DOCKED: ENDMDL
________________________________________________________________________________


	BEGINNING GENETIC ALGORITHM DOCKING 98 of 100
Run: 98 Seed: 2093157267 912338546 [ Run 98 of 100 GA/GALS ]
Beginning LAMARCKIAN GENETIC ALGORITHM (LGA), with a maximum of 25000000 energy evaluations.

Final-Value: -14.568


	FINAL GENETIC ALGORITHM DOCKED STATE
	_______________________________________________


Detailed state:  trans -8.935 2.833 2.053 quatxyzw -0.915340 0.255917 0.288982 -0.114663 center -0.174 -0.001 -0.047 ntor 10 -15.6331 153.3827 119.5103 176.0717 -112.9163 89.8178 57.7593 116.5909 -135.2523 -9.8388
State:	 -8.935   2.833   2.053  -0.921  0.258  0.291 -166.832    -15.63  153.38  119.51  176.07 -112.92   89.82   57.76  116.59 -135.25   -9.84

DOCKED: MODEL       98
DOCKED: USER    Run = 98
DOCKED: USER    DPF = D:/Protein_go_brrr/autodock/final/mut_D99N/heme_Fe/dock.dpf
DOCKED: USER  
DOCKED: USER    Estimated Free Energy of Binding    =  -11.21 kcal/mol  [=(1)+(2)+(3)-(4)]
DOCKED: USER    Estimated Inhibition Constant, Ki   =    6.05 nM (nanomolar)  [Temperature = 298.15 K]
DOCKED: USER    
DOCKED: USER    (1) Final Intermolecular Energy     =  -14.19 kcal/mol
DOCKED: USER        vdW + Hbond + desolv Energy     =  -12.89 kcal/mol
DOCKED: USER        Electrostatic Energy            =   -1.30 kcal/mol
DOCKED: USER    (2) Final Total Internal Energy     =   -0.37 kcal/mol
DOCKED: USER    (3) Torsional Free Energy           =   +2.98 kcal/mol
DOCKED: USER    (4) Unbound System's Energy  [=(2)] =   -0.37 kcal/mol
DOCKED: USER    
DOCKED: USER    
DOCKED: USER    NEWDPF move heme_Fe_opt.pdbqt
DOCKED: USER    NEWDPF about -0.174000 -0.001000 -0.047000
DOCKED: USER    NEWDPF tran0 -8.934986 2.833307 2.052533
DOCKED: USER    NEWDPF quaternion0 -0.915340 0.255917 0.288982 -0.114663
DOCKED: USER    NEWDPF axisangle0 -0.921418 0.257616 0.290901 -166.831677
DOCKED: USER    NEWDPF quat0 -0.921418 0.257616 0.290901 -166.831677
DOCKED: USER    NEWDPF dihe0 -15.63 153.38 119.51 176.07 -112.92 89.82 57.76 116.59 -135.25 -9.84 
DOCKED: USER  keepresnum = 1 
DOCKED: USER  
DOCKED: REMARK  10 active torsions:
DOCKED: REMARK  status: ('A' for Active; 'I' for Inactive)
DOCKED: REMARK    1  A    between atoms: C_6  and  C_10 
DOCKED: REMARK    2  A    between atoms: C_10  and  C_11 
DOCKED: REMARK    3  A    between atoms: C_11  and  C_12 
DOCKED: REMARK    4  A    between atoms: C_12  and  O_14 
DOCKED: REMARK    5  A    between atoms: C_17  and  C_20 
DOCKED: REMARK    6  A    between atoms: C_24  and  C_27 
DOCKED: REMARK    7  A    between atoms: C_31  and  C_34 
DOCKED: REMARK    8  A    between atoms: C_34  and  C_35 
DOCKED: REMARK    9  A    between atoms: C_35  and  C_36 
DOCKED: REMARK   10  A    between atoms: C_36  and  O_38 
DOCKED: USER                              x       y       z     vdW  Elec       q    Type
DOCKED: USER                           _______ _______ _______ _____ _____    ______ ____
DOCKED: ROOT
DOCKED: ATOM      1  C   UNL d   1     -10.544   3.870   2.791 -0.34 +0.01    +0.064 C 
DOCKED: ATOM      2  C   UNL d   1      -6.111   5.134   1.008 -0.41 +0.01    +0.064 A 
DOCKED: ATOM      3  C   UNL d   1      -5.648   0.704  -0.790 -0.45 +0.01    +0.064 C 
DOCKED: ATOM      4  C   UNL d   1      -9.890  -0.571   1.018 -0.41 +0.03    +0.064 C 
DOCKED: ATOM      5  C   UNL d   1      -9.303   4.611   2.528 -0.41 +0.01    +0.066 A 
DOCKED: ATOM      6  C   UNL d   1      -9.030   5.887   2.994 -0.50 -0.00    -0.021 A 
DOCKED: ATOM      7  C   UNL d   1      -7.800   6.239   2.495 -0.39 -0.00    -0.025 A 
DOCKED: ATOM      8  C   UNL d   1      -7.370   5.163   1.743 -0.41 +0.01    +0.066 A 
DOCKED: ATOM      9  C   UNL d   1      -7.081   7.528   2.748 +0.03 +0.01    +0.051 C 
DOCKED: ATOM     10  C   UNL d   1      -5.646   4.088   0.322 -0.39 +0.01    +0.066 A 
DOCKED: ATOM     11  C   UNL d   1      -4.493   4.129  -0.466 -0.30 -0.00    -0.021 A 
DOCKED: ATOM     12  C   UNL d   1      -4.347   2.868  -1.009 -0.17 +0.00    +0.000 A 
DOCKED: ATOM     13  C   UNL d   1      -5.433   2.118  -0.526 -0.39 +0.01    +0.070 A 
DOCKED: ATOM     14  C   UNL d   1      -3.612   5.330  -0.743 -0.40 +0.00    +0.052 C 
DOCKED: ATOM     15  C   UNL d   1      -6.720  -0.009  -0.370 -0.39 +0.01    +0.066 A 
DOCKED: ATOM     16  C   UNL d   1      -6.839  -1.380  -0.557 -0.47 -0.00    -0.021 A 
DOCKED: ATOM     17  C   UNL d   1      -8.063  -1.750  -0.040 -0.45 +0.00    +0.000 A 
DOCKED: ATOM     18  C   UNL d   1      -8.665  -0.592   0.449 -0.39 +0.02    +0.070 A 
DOCKED: ATOM     19  C   UNL d   1      -5.854  -2.306  -1.220 -0.07 -0.00    +0.052 C 
DOCKED: ATOM     20  C   UNL d   1     -10.528   0.616   1.599 -0.34 +0.03    +0.066 A 
DOCKED: ATOM     21  C   UNL d   1     -11.867   0.697   2.009 -0.32 -0.02    -0.025 A 
DOCKED: ATOM     22  C   UNL d   1     -12.028   1.967   2.522 -0.29 -0.01    -0.021 A 
DOCKED: ATOM     23  C   UNL d   1     -10.790   2.610   2.400 -0.27 +0.02    +0.066 A 
DOCKED: ATOM     24  C   UNL d   1     -12.946  -0.358   1.922 -0.10 +0.06    +0.051 C 
DOCKED: ATOM     25  N   UNL d   1      -8.282   4.171   1.773 -0.22 -0.07    -0.248 N 
DOCKED: ATOM     26  N   UNL d   1      -6.230   2.864   0.278 -0.26 -0.04    -0.248 N 
DOCKED: ATOM     27  N   UNL d   1      -7.822   0.471   0.286 -0.27 -0.05    -0.248 N 
DOCKED: ATOM     28  N   UNL d   1      -9.892   1.796   1.795 -0.23 -0.08    -0.248 N 
DOCKED: ATOM     29 FE   UNL d   1      -8.062   2.328   1.037 -0.09 +0.00    +0.000 Fe
DOCKED: ENDROOT
DOCKED: BRANCH   6  30
DOCKED: ATOM     30  C   UNL d   1      -9.883   6.723   3.885 -0.29 -0.00    +0.052 C 
DOCKED: BRANCH  30  31
DOCKED: ATOM     31  C   UNL d   1     -11.334   6.704   3.419 -0.37 -0.00    +0.115 C 
DOCKED: BRANCH  31  32
DOCKED: ATOM     32  C   UNL d   1     -11.814   8.100   3.135 -0.38 -0.00    +0.139 C 
DOCKED: ATOM     33  O   UNL d   1     -12.678   8.616   3.830 -0.07 +0.06    -0.650 OA
DOCKED: BRANCH  32  34
DOCKED: ATOM     34  O   UNL d   1     -11.295   8.797   2.110 +0.04 +0.01    -0.776 OA
DOCKED: ATOM     35  H   UNL d   1     -11.758   9.586   1.796 -0.40 -0.04    +0.167 HD
DOCKED: ENDBRANCH  32  34
DOCKED: ENDBRANCH  31  32
DOCKED: ENDBRANCH  30  31
DOCKED: ENDBRANCH   6  30
DOCKED: BRANCH  22  36
DOCKED: ATOM     36  C   UNL d   1     -13.313   2.544   3.054 -0.24 +0.02    +0.052 C 
DOCKED: BRANCH  36  37
DOCKED: ATOM     37  C   UNL d   1     -13.461   2.197   4.528 -0.14 +0.04    +0.115 C 
DOCKED: BRANCH  37  38
DOCKED: ATOM     38  C   UNL d   1     -13.588   0.712   4.721 -0.13 +0.12    +0.139 C 
DOCKED: ATOM     39  O   UNL d   1     -12.597   0.015   4.883 -0.54 -0.91    -0.650 OA
DOCKED: BRANCH  38  40
DOCKED: ATOM     40  O   UNL d   1     -14.803   0.136   4.714 +0.02 -0.64    -0.776 OA
DOCKED: ATOM     41  H   UNL d   1     -15.574   0.660   4.974 +0.02 +0.08    +0.167 HD
DOCKED: ENDBRANCH  38  40
DOCKED: ENDBRANCH  37  38
DOCKED: ENDBRANCH  36  37
DOCKED: ENDBRANCH  22  36
DOCKED: BRANCH  12  42
DOCKED: ATOM     42  C   UNL d   1      -3.245   2.456  -1.933 -0.31 +0.00    +0.004 C 
DOCKED: ATOM     43  C   UNL d   1      -3.029   1.165  -2.216 -0.53 +0.00    +0.012 C 
DOCKED: ENDBRANCH  12  42
DOCKED: BRANCH  17  44
DOCKED: ATOM     44  C   UNL d   1      -8.613  -3.124   0.003 -0.14 +0.00    +0.004 C 
DOCKED: ATOM     45  C   UNL d   1      -9.849  -3.381  -0.436 -0.34 +0.00    +0.012 C 
DOCKED: ENDBRANCH  17  44
DOCKED: TORSDOF 10
DOCKED: TER
DOCKED: ENDMDL
________________________________________________________________________________


	BEGINNING GENETIC ALGORITHM DOCKING 99 of 100
Run: 99 Seed: 214610011 1889004167 [ Run 99 of 100 GA/GALS ]
Beginning LAMARCKIAN GENETIC ALGORITHM (LGA), with a maximum of 25000000 energy evaluations.

Final-Value: -13.287


	FINAL GENETIC ALGORITHM DOCKED STATE
	_______________________________________________


Detailed state:  trans -7.306 2.752 0.162 quatxyzw -0.259738 0.139244 -0.954162 -0.052186 center -0.174 -0.001 -0.047 ntor 10 64.4246 99.2819 -145.1327 -179.8653 -98.1096 -81.0592 -176.8164 56.8318 168.9397 -46.4991
State:	 -7.306   2.752   0.162  -0.260  0.139 -0.955 -174.017     64.42   99.28 -145.13 -179.87  -98.11  -81.06 -176.82   56.83  168.94  -46.50

DOCKED: MODEL       99
DOCKED: USER    Run = 99
DOCKED: USER    DPF = D:/Protein_go_brrr/autodock/final/mut_D99N/heme_Fe/dock.dpf
DOCKED: USER  
DOCKED: USER    Estimated Free Energy of Binding    =   -9.91 kcal/mol  [=(1)+(2)+(3)-(4)]
DOCKED: USER    Estimated Inhibition Constant, Ki   =   54.50 nM (nanomolar)  [Temperature = 298.15 K]
DOCKED: USER    
DOCKED: USER    (1) Final Intermolecular Energy     =  -12.89 kcal/mol
DOCKED: USER        vdW + Hbond + desolv Energy     =  -12.74 kcal/mol
DOCKED: USER        Electrostatic Energy            =   -0.16 kcal/mol
DOCKED: USER    (2) Final Total Internal Energy     =   -0.39 kcal/mol
DOCKED: USER    (3) Torsional Free Energy           =   +2.98 kcal/mol
DOCKED: USER    (4) Unbound System's Energy  [=(2)] =   -0.39 kcal/mol
DOCKED: USER    
DOCKED: USER    
DOCKED: USER    NEWDPF move heme_Fe_opt.pdbqt
DOCKED: USER    NEWDPF about -0.174000 -0.001000 -0.047000
DOCKED: USER    NEWDPF tran0 -7.306252 2.751676 0.162476
DOCKED: USER    NEWDPF quaternion0 -0.259738 0.139244 -0.954162 -0.052186
DOCKED: USER    NEWDPF axisangle0 -0.260092 0.139434 -0.955463 -174.017220
DOCKED: USER    NEWDPF quat0 -0.260092 0.139434 -0.955463 -174.017220
DOCKED: USER    NEWDPF dihe0 64.42 99.28 -145.13 -179.87 -98.11 -81.06 -176.82 56.83 168.94 -46.50 
DOCKED: USER  keepresnum = 1 
DOCKED: USER  
DOCKED: REMARK  10 active torsions:
DOCKED: REMARK  status: ('A' for Active; 'I' for Inactive)
DOCKED: REMARK    1  A    between atoms: C_6  and  C_10 
DOCKED: REMARK    2  A    between atoms: C_10  and  C_11 
DOCKED: REMARK    3  A    between atoms: C_11  and  C_12 
DOCKED: REMARK    4  A    between atoms: C_12  and  O_14 
DOCKED: REMARK    5  A    between atoms: C_17  and  C_20 
DOCKED: REMARK    6  A    between atoms: C_24  and  C_27 
DOCKED: REMARK    7  A    between atoms: C_31  and  C_34 
DOCKED: REMARK    8  A    between atoms: C_34  and  C_35 
DOCKED: REMARK    9  A    between atoms: C_35  and  C_36 
DOCKED: REMARK   10  A    between atoms: C_36  and  O_38 
DOCKED: USER                              x       y       z     vdW  Elec       q    Type
DOCKED: USER                           _______ _______ _______ _____ _____    ______ ____
DOCKED: ROOT
DOCKED: ATOM      1  C   UNL d   1      -5.334   3.022  -0.334 -0.44 +0.01    +0.064 C 
DOCKED: ATOM      2  C   UNL d   1      -8.662   5.618   2.237 -0.46 +0.01    +0.064 A 
DOCKED: ATOM      3  C   UNL d   1     -11.464   1.721   2.413 -0.31 +0.02    +0.064 C 
DOCKED: ATOM      4  C   UNL d   1      -8.303  -0.780  -0.163 -0.36 +0.01    +0.064 C 
DOCKED: ATOM      5  C   UNL d   1      -6.048   4.138   0.301 -0.39 +0.01    +0.066 A 
DOCKED: ATOM      6  C   UNL d   1      -5.595   5.446   0.341 -0.47 -0.00    -0.021 A 
DOCKED: ATOM      7  C   UNL d   1      -6.518   6.166   1.059 -0.47 -0.00    -0.025 A 
DOCKED: ATOM      8  C   UNL d   1      -7.501   5.268   1.429 -0.42 +0.01    +0.066 A 
DOCKED: ATOM      9  C   UNL d   1      -6.461   7.634   1.349 -0.54 +0.01    +0.051 C 
DOCKED: ATOM     10  C   UNL d   1      -9.653   4.785   2.559 -0.41 +0.01    +0.066 A 
DOCKED: ATOM     11  C   UNL d   1     -10.694   5.118   3.429 -0.37 -0.00    -0.021 A 
DOCKED: ATOM     12  C   UNL d   1     -11.507   4.005   3.510 -0.25 +0.00    +0.000 A 
DOCKED: ATOM     13  C   UNL d   1     -10.909   3.038   2.684 -0.28 +0.02    +0.070 A 
DOCKED: ATOM     14  C   UNL d   1     -10.869   6.411   4.200 -0.27 -0.01    +0.052 C 
DOCKED: ATOM     15  C   UNL d   1     -10.866   0.767   1.660 -0.34 +0.03    +0.066 A 
DOCKED: ATOM     16  C   UNL d   1     -11.474  -0.441   1.344 -0.33 -0.02    -0.021 A 
DOCKED: ATOM     17  C   UNL d   1     -10.563  -1.166   0.604 -0.09 +0.00    +0.000 A 
DOCKED: ATOM     18  C   UNL d   1      -9.417  -0.382   0.489 -0.32 +0.02    +0.070 A 
DOCKED: ATOM     19  C   UNL d   1     -12.847  -0.910   1.742 +0.29 +0.07    +0.052 C 
DOCKED: ATOM     20  C   UNL d   1      -7.101   0.041  -0.357 -0.40 +0.01    +0.066 A 
DOCKED: ATOM     21  C   UNL d   1      -5.874  -0.424  -0.852 -0.43 -0.00    -0.025 A 
DOCKED: ATOM     22  C   UNL d   1      -5.047   0.679  -0.904 -0.38 -0.00    -0.021 A 
DOCKED: ATOM     23  C   UNL d   1      -5.795   1.765  -0.436 -0.40 +0.01    +0.066 A 
DOCKED: ATOM     24  C   UNL d   1      -5.490  -1.829  -1.253 -0.54 +0.00    +0.051 C 
DOCKED: ATOM     25  N   UNL d   1      -7.217   4.037   0.959 -0.19 -0.07    -0.248 N 
DOCKED: ATOM     26  N   UNL d   1      -9.774   3.509   2.111 -0.23 -0.06    -0.248 N 
DOCKED: ATOM     27  N   UNL d   1      -9.618   0.824   1.101 -0.23 -0.08    -0.248 N 
DOCKED: ATOM     28  N   UNL d   1      -7.034   1.361  -0.061 -0.25 -0.04    -0.248 N 
DOCKED: ATOM     29 FE   UNL d   1      -8.404   2.433   1.024 -0.09 +0.00    +0.000 Fe
DOCKED: ENDROOT
DOCKED: BRANCH   6  30
DOCKED: ATOM     30  C   UNL d   1      -4.359   5.992  -0.287 -0.60 +0.01    +0.052 C 
DOCKED: BRANCH  30  31
DOCKED: ATOM     31  C   UNL d   1      -3.258   6.172   0.753 -0.53 +0.01    +0.115 C 
DOCKED: BRANCH  31  32
DOCKED: ATOM     32  C   UNL d   1      -3.716   5.673   2.095 -0.29 +0.02    +0.139 C 
DOCKED: ATOM     33  O   UNL d   1      -4.142   6.450   2.937 +0.03 -0.07    -0.650 OA
DOCKED: BRANCH  32  34
DOCKED: ATOM     34  O   UNL d   1      -3.660   4.361   2.382 +0.10 -0.08    -0.776 OA
DOCKED: ATOM     35  H   UNL d   1      -4.484   3.879   2.540 +0.12 +0.02    +0.167 HD
DOCKED: ENDBRANCH  32  34
DOCKED: ENDBRANCH  31  32
DOCKED: ENDBRANCH  30  31
DOCKED: ENDBRANCH   6  30
DOCKED: BRANCH  22  36
DOCKED: ATOM     36  C   UNL d   1      -3.604   0.676  -1.334 -0.32 +0.00    +0.052 C 
DOCKED: BRANCH  36  37
DOCKED: ATOM     37  C   UNL d   1      -3.468  -0.036  -2.672 -0.41 +0.01    +0.115 C 
DOCKED: BRANCH  37  38
DOCKED: ATOM     38  C   UNL d   1      -2.484  -1.168  -2.583 -0.50 +0.00    +0.139 C 
DOCKED: ATOM     39  O   UNL d   1      -1.282  -0.958  -2.655 +0.01 -0.03    -0.650 OA
DOCKED: BRANCH  38  40
DOCKED: ATOM     40  O   UNL d   1      -2.924  -2.429  -2.425 +0.09 -0.00    -0.776 OA
DOCKED: ATOM     41  H   UNL d   1      -3.171  -2.733  -1.540 -0.12 -0.02    +0.167 HD
DOCKED: ENDBRANCH  38  40
DOCKED: ENDBRANCH  37  38
DOCKED: ENDBRANCH  36  37
DOCKED: ENDBRANCH  22  36
DOCKED: BRANCH  12  42
DOCKED: ATOM     42  C   UNL d   1     -12.745   3.908   4.344 -0.24 +0.00    +0.004 C 
DOCKED: ATOM     43  C   UNL d   1     -12.717   3.339   5.556 -0.21 +0.00    +0.012 C 
DOCKED: ENDBRANCH  12  42
DOCKED: BRANCH  17  44
DOCKED: ATOM     44  C   UNL d   1     -10.782  -2.511   0.026 -0.11 +0.00    +0.004 C 
DOCKED: ATOM     45  C   UNL d   1      -9.933  -3.512   0.281 -0.40 +0.00    +0.012 C 
DOCKED: ENDBRANCH  17  44
DOCKED: TORSDOF 10
DOCKED: TER
DOCKED: ENDMDL
________________________________________________________________________________


	BEGINNING GENETIC ALGORITHM DOCKING 100 of 100
Run: 100 Seed: 1996698202 1173061218 [ Run 100 of 100 GA/GALS ]
Beginning LAMARCKIAN GENETIC ALGORITHM (LGA), with a maximum of 25000000 energy evaluations.

Final-Value: -16.608


	FINAL GENETIC ALGORITHM DOCKED STATE
	_______________________________________________


Detailed state:  trans -9.075 2.015 1.061 quatxyzw 0.197288 0.192630 0.063950 -0.959105 center -0.174 -0.001 -0.047 ntor 10 -71.1596 -174.1282 74.8151 -126.9748 -122.5148 -85.2401 -28.8436 -59.8736 31.3490 49.1838
State:	 -9.075   2.015   1.061   0.697  0.681  0.226 -32.885    -71.16 -174.13   74.82 -126.97 -122.51  -85.24  -28.84  -59.87   31.35   49.18

DOCKED: MODEL      100
DOCKED: USER    Run = 100
DOCKED: USER    DPF = D:/Protein_go_brrr/autodock/final/mut_D99N/heme_Fe/dock.dpf
DOCKED: USER  
DOCKED: USER    Estimated Free Energy of Binding    =  -13.44 kcal/mol  [=(1)+(2)+(3)-(4)]
DOCKED: USER    Estimated Inhibition Constant, Ki   =  141.85 pM (picomolar)  [Temperature = 298.15 K]
DOCKED: USER    
DOCKED: USER    (1) Final Intermolecular Energy     =  -16.42 kcal/mol
DOCKED: USER        vdW + Hbond + desolv Energy     =  -13.99 kcal/mol
DOCKED: USER        Electrostatic Energy            =   -2.43 kcal/mol
DOCKED: USER    (2) Final Total Internal Energy     =   -0.19 kcal/mol
DOCKED: USER    (3) Torsional Free Energy           =   +2.98 kcal/mol
DOCKED: USER    (4) Unbound System's Energy  [=(2)] =   -0.19 kcal/mol
DOCKED: USER    
DOCKED: USER    
DOCKED: USER    NEWDPF move heme_Fe_opt.pdbqt
DOCKED: USER    NEWDPF about -0.174000 -0.001000 -0.047000
DOCKED: USER    NEWDPF tran0 -9.075288 2.014825 1.061326
DOCKED: USER    NEWDPF quaternion0 0.197288 0.192630 0.063950 -0.959105
DOCKED: USER    NEWDPF axisangle0 0.697002 0.680547 0.225929 -32.884874
DOCKED: USER    NEWDPF quat0 0.697002 0.680547 0.225929 -32.884874
DOCKED: USER    NEWDPF dihe0 -71.16 -174.13 74.82 -126.97 -122.51 -85.24 -28.84 -59.87 31.35 49.18 
DOCKED: USER  keepresnum = 1 
DOCKED: USER  
DOCKED: REMARK  10 active torsions:
DOCKED: REMARK  status: ('A' for Active; 'I' for Inactive)
DOCKED: REMARK    1  A    between atoms: C_6  and  C_10 
DOCKED: REMARK    2  A    between atoms: C_10  and  C_11 
DOCKED: REMARK    3  A    between atoms: C_11  and  C_12 
DOCKED: REMARK    4  A    between atoms: C_12  and  O_14 
DOCKED: REMARK    5  A    between atoms: C_17  and  C_20 
DOCKED: REMARK    6  A    between atoms: C_24  and  C_27 
DOCKED: REMARK    7  A    between atoms: C_31  and  C_34 
DOCKED: REMARK    8  A    between atoms: C_34  and  C_35 
DOCKED: REMARK    9  A    between atoms: C_35  and  C_36 
DOCKED: REMARK   10  A    between atoms: C_36  and  O_38 
DOCKED: USER                              x       y       z     vdW  Elec       q    Type
DOCKED: USER                           _______ _______ _______ _____ _____    ______ ____
DOCKED: ROOT
DOCKED: ATOM      1  C   UNL d   1     -10.680   1.379   2.171 -0.23 +0.02    +0.064 C 
DOCKED: ATOM      2  C   UNL d   1      -7.251  -0.866  -0.591 -0.38 +0.01    +0.064 A 
DOCKED: ATOM      3  C   UNL d   1      -4.655   3.175  -0.530 -0.34 +0.01    +0.064 C 
DOCKED: ATOM      4  C   UNL d   1      -8.011   5.399   2.055 -0.49 +0.01    +0.064 C 
DOCKED: ATOM      5  C   UNL d   1      -9.995   0.399   1.317 -0.35 +0.02    +0.066 A 
DOCKED: ATOM      6  C   UNL d   1     -10.501  -0.845   0.978 -0.33 -0.01    -0.021 A 
DOCKED: ATOM      7  C   UNL d   1      -9.547  -1.469   0.214 -0.19 -0.01    -0.025 A 
DOCKED: ATOM      8  C   UNL d   1      -8.493  -0.581   0.116 -0.37 +0.01    +0.066 A 
DOCKED: ATOM      9  C   UNL d   1      -9.658  -2.832  -0.398 -0.24 +0.01    +0.051 C 
DOCKED: ATOM     10  C   UNL d   1      -6.243  -0.006  -0.749 -0.41 +0.01    +0.066 A 
DOCKED: ATOM     11  C   UNL d   1      -5.019  -0.345  -1.333 -0.42 -0.00    -0.021 A 
DOCKED: ATOM     12  C   UNL d   1      -4.247   0.799  -1.312 -0.40 +0.00    +0.000 A 
DOCKED: ATOM     13  C   UNL d   1      -5.044   1.784  -0.703 -0.38 +0.01    +0.070 A 
DOCKED: ATOM     14  C   UNL d   1      -4.582  -1.710  -1.824 -0.61 -0.00    +0.052 C 
DOCKED: ATOM     15  C   UNL d   1      -5.398   4.115   0.102 -0.39 +0.01    +0.066 A 
DOCKED: ATOM     16  C   UNL d   1      -5.037   5.455   0.159 -0.49 -0.00    -0.021 A 
DOCKED: ATOM     17  C   UNL d   1      -6.001   6.098   0.907 -0.50 +0.00    +0.000 A 
DOCKED: ATOM     18  C   UNL d   1      -6.928   5.132   1.293 -0.40 +0.01    +0.070 A 
DOCKED: ATOM     19  C   UNL d   1      -3.820   6.104  -0.443 -0.51 +0.01    +0.052 C 
DOCKED: ATOM     20  C   UNL d   1      -9.040   4.421   2.429 -0.40 +0.01    +0.066 A 
DOCKED: ATOM     21  C   UNL d   1     -10.052   4.633   3.375 -0.42 -0.00    -0.025 A 
DOCKED: ATOM     22  C   UNL d   1     -10.809   3.479   3.383 -0.28 -0.00    -0.021 A 
DOCKED: ATOM     23  C   UNL d   1     -10.228   2.611   2.450 -0.08 +0.02    +0.066 A 
DOCKED: ATOM     24  C   UNL d   1     -10.301   5.850   4.235 -0.47 -0.00    +0.051 C 
DOCKED: ATOM     25  N   UNL d   1      -8.773   0.558   0.781 -0.25 -0.06    -0.248 N 
DOCKED: ATOM     26  N   UNL d   1      -6.257   1.292  -0.352 -0.27 -0.03    -0.248 N 
DOCKED: ATOM     27  N   UNL d   1      -6.582   3.921   0.762 -0.25 -0.05    -0.248 N 
DOCKED: ATOM     28  N   UNL d   1      -9.122   3.175   1.904 -0.10 -0.09    -0.248 N 
DOCKED: ATOM     29 FE   UNL d   1      -7.690   2.235   0.777 -0.09 +0.00    +0.000 Fe
DOCKED: ENDROOT
DOCKED: BRANCH   6  30
DOCKED: ATOM     30  C   UNL d   1     -11.833  -1.406   1.341 +0.12 +0.06    +0.052 C 
DOCKED: BRANCH  30  31
DOCKED: ATOM     31  C   UNL d   1     -12.637  -1.744   0.090 -0.00 +0.08    +0.115 C 
DOCKED: BRANCH  31  32
DOCKED: ATOM     32  C   UNL d   1     -13.584  -2.879   0.364 -0.16 +0.12    +0.139 C 
DOCKED: ATOM     33  O   UNL d   1     -13.538  -3.904  -0.302 +0.00 -0.31    -0.650 OA
DOCKED: BRANCH  32  34
DOCKED: ATOM     34  O   UNL d   1     -14.494  -2.776   1.348 -0.52 -1.14    -0.776 OA
DOCKED: ATOM     35  H   UNL d   1     -15.428  -2.678   1.115 +0.02 +0.14    +0.167 HD
DOCKED: ENDBRANCH  32  34
DOCKED: ENDBRANCH  31  32
DOCKED: ENDBRANCH  30  31
DOCKED: ENDBRANCH   6  30
DOCKED: BRANCH  22  36
DOCKED: ATOM     36  C   UNL d   1     -11.994   3.210   4.273 -0.26 +0.01    +0.052 C 
DOCKED: BRANCH  36  37
DOCKED: ATOM     37  C   UNL d   1     -13.010   2.355   3.530 -0.20 +0.04    +0.115 C 
DOCKED: BRANCH  37  38
DOCKED: ATOM     38  C   UNL d   1     -13.235   1.049   4.237 -0.16 +0.10    +0.139 C 
DOCKED: ATOM     39  O   UNL d   1     -12.499   0.094   4.034 -0.55 -1.01    -0.650 OA
DOCKED: BRANCH  38  40
DOCKED: ATOM     40  O   UNL d   1     -14.257   0.921   5.101 +0.04 -0.47    -0.776 OA
DOCKED: ATOM     41  H   UNL d   1     -14.887   1.649   5.196 +0.03 +0.06    +0.167 HD
DOCKED: ENDBRANCH  38  40
DOCKED: ENDBRANCH  37  38
DOCKED: ENDBRANCH  36  37
DOCKED: ENDBRANCH  22  36
DOCKED: BRANCH  12  42
DOCKED: ATOM     42  C   UNL d   1      -2.847   0.896  -1.829 -0.41 +0.00    +0.004 C 
DOCKED: ATOM     43  C   UNL d   1      -2.522   1.784  -2.777 -0.62 +0.00    +0.012 C 
DOCKED: ENDBRANCH  12  42
DOCKED: BRANCH  17  44
DOCKED: ATOM     44  C   UNL d   1      -6.044   7.545   1.215 -0.57 +0.00    +0.004 C 
DOCKED: ATOM     45  C   UNL d   1      -5.195   8.083   2.096 -0.69 +0.00    +0.012 C 
DOCKED: ENDBRANCH  17  44
DOCKED: TORSDOF 10
DOCKED: TER
DOCKED: ENDMDL
________________________________________________________________________________

DPF> analysis                             # perform a ranked cluster analysis


		CLUSTER ANALYSIS OF CONFORMATIONS
		_________________________________

Number of conformations = 100

RMSD cluster analysis will be performed using the ligand atoms only (45 / 45 total atoms).

Outputting structurally similar clusters, ranked in order of increasing energy.


________________________________________________________________________________

Number of distinct conformational clusters found = 29,  out of 100 runs,
Using an rmsd-tolerance of 2.0 A


	CLUSTERING HISTOGRAM
	____________________

________________________________________________________________________________
     |           |     |           |     |                                    
Clus | Lowest    | Run | Mean      | Num | Histogram                          
-ter | Binding   |     | Binding   | in  |                                    
Rank | Energy    |     | Energy    | Clus|    5    10   15   20   25   30   35
_____|___________|_____|___________|_____|____:____|____:____|____:____|____:___
   1 |    -13.44 | 100 |    -12.61 |  37 |#####################################
   2 |    -11.69 |   7 |    -11.03 |   3 |###
   3 |    -11.24 |  68 |    -11.11 |   3 |###
   4 |    -10.31 |  53 |    -10.16 |   3 |###
   5 |     -8.41 |  52 |     -8.41 |   1 |#
   6 |     -7.94 |  95 |     -7.94 |   1 |#
   7 |     -7.71 |  43 |     -7.14 |   7 |#######
   8 |     -7.68 |  85 |     -7.34 |   5 |#####
   9 |     -7.53 |  54 |     -7.22 |   8 |########
  10 |     -7.36 |  70 |     -7.36 |   1 |#
  11 |     -7.25 |  16 |     -7.25 |   1 |#
  12 |     -7.23 |  96 |     -6.75 |   4 |####
  13 |     -7.10 |   6 |     -7.10 |   1 |#
  14 |     -6.97 |  59 |     -6.38 |   2 |##
  15 |     -6.92 |  80 |     -6.48 |   3 |###
  16 |     -6.66 |  27 |     -6.66 |   1 |#
  17 |     -6.53 |  17 |     -6.12 |   3 |###
  18 |     -6.52 |  63 |     -6.52 |   1 |#
  19 |     -6.23 |  26 |     -5.99 |   2 |##
  20 |     -5.91 |  89 |     -5.91 |   1 |#
  21 |     -5.87 |  30 |     -5.87 |   1 |#
  22 |     -5.36 |  67 |     -5.10 |   3 |###
  23 |     -5.33 |   9 |     -5.33 |   1 |#
  24 |     -5.19 |  31 |     -5.19 |   1 |#
  25 |     -5.06 |  94 |     -4.87 |   2 |##
  26 |     -4.79 |  65 |     -4.79 |   1 |#
  27 |     -4.77 |  32 |     -4.77 |   1 |#
  28 |     -4.62 |  46 |     -4.62 |   1 |#
  29 |     -4.25 |  73 |     -4.25 |   1 |#
_____|___________|_____|___________|_____|______________________________________


Number of multi-member conformational clusters found = 14, out of 100 runs.

	RMSD TABLE
	__________

_____________________________________________________________________
     |      |      |           |         |                 |
Rank | Sub- | Run  | Binding   | Cluster | Reference       | Grep
     | Rank |      | Energy    | RMSD    | RMSD            | Pattern
_____|______|______|___________|_________|_________________|___________
   1      1    100      -13.44      0.00      6.64           RANKING
   1      2     66      -13.38      0.95      6.80           RANKING
   1      3     97      -13.37      1.13      6.85           RANKING
   1      4     13      -13.24      0.73      6.88           RANKING
   1      5     61      -13.23      0.81      6.88           RANKING
   1      6     62      -13.23      0.74      6.89           RANKING
   1      7     81      -13.22      1.06      6.77           RANKING
   1      8     29      -13.19      0.80      6.89           RANKING
   1      9     88      -13.18      1.09      6.83           RANKING
   1     10      4      -13.08      1.10      6.78           RANKING
   1     11     78      -13.06      1.07      6.82           RANKING
   1     12     14      -13.02      0.74      6.95           RANKING
   1     13      8      -13.01      1.08      6.74           RANKING
   1     14     84      -12.96      1.08      6.74           RANKING
   1     15     49      -12.91      1.31      6.91           RANKING
   1     16     12      -12.84      0.95      6.83           RANKING
   1     17      5      -12.78      1.69      6.82           RANKING
   1     18     83      -12.77      1.05      6.78           RANKING
   1     19     19      -12.70      0.91      6.90           RANKING
   1     20     33      -12.69      1.08      6.79           RANKING
   1     21     28      -12.58      1.03      6.82           RANKING
   1     22     76      -12.56      0.67      6.81           RANKING
   1     23     22      -12.44      0.98      6.58           RANKING
   1     24     15      -12.43      1.47      7.35           RANKING
   1     25     36      -12.36      1.16      6.73           RANKING
   1     26     64      -12.36      0.92      6.62           RANKING
   1     27     23      -12.20      0.86      6.71           RANKING
   1     28     34      -12.20      1.79      7.17           RANKING
   1     29     45      -12.18      0.99      6.91           RANKING
   1     30     24      -12.05      1.12      6.78           RANKING
   1     31     20      -12.03      1.14      6.78           RANKING
   1     32     72      -12.00      1.09      6.96           RANKING
   1     33     48      -11.99      1.08      6.87           RANKING
   1     34     58      -11.96      1.14      6.81           RANKING
   1     35     51      -11.77      1.00      6.96           RANKING
   1     36     74      -11.44      1.09      6.85           RANKING
   1     37     71      -10.88      1.50      6.92           RANKING
   2      1      7      -11.69      0.00      5.48           RANKING
   2      2     18      -11.12      0.83      5.58           RANKING
   2      3     93      -10.28      1.27      5.98           RANKING
   3      1     68      -11.24      0.00      6.94           RANKING
   3      2     98      -11.21      0.95      6.90           RANKING
   3      3     57      -10.88      0.75      6.80           RANKING
   4      1     53      -10.31      0.00      6.52           RANKING
   4      2      2      -10.25      1.44      6.30           RANKING
   4      3     99       -9.91      1.46      6.31           RANKING
   5      1     52       -8.41      0.00      8.98           RANKING
   6      1     95       -7.94      0.00     12.53           RANKING
   7      1     43       -7.71      0.00     16.54           RANKING
   7      2     91       -7.57      0.61     16.64           RANKING
   7      3     69       -7.48      0.90     16.65           RANKING
   7      4     86       -7.27      0.97     16.58           RANKING
   7      5     50       -7.13      0.97     16.65           RANKING
   7      6     35       -6.85      1.51     17.32           RANKING
   7      7     60       -5.95      1.45     17.38           RANKING
   8      1     85       -7.68      0.00     13.38           RANKING
   8      2     44       -7.56      0.53     13.53           RANKING
   8      3      1       -7.32      1.01     13.48           RANKING
   8      4     77       -7.08      1.06     13.49           RANKING
   8      5      3       -7.05      0.93     13.26           RANKING
   9      1     54       -7.53      0.00     17.64           RANKING
   9      2     25       -7.40      1.21     17.83           RANKING
   9      3     38       -7.37      1.12     17.87           RANKING
   9      4     55       -7.35      1.26     18.42           RANKING
   9      5     90       -7.23      1.13     17.82           RANKING
   9      6     39       -7.02      1.78     19.41           RANKING
   9      7     75       -6.99      1.08     18.26           RANKING
   9      8     82       -6.87      1.38     17.96           RANKING
  10      1     70       -7.36      0.00     10.07           RANKING
  11      1     16       -7.25      0.00     19.35           RANKING
  12      1     96       -7.23      0.00     16.57           RANKING
  12      2     11       -7.07      0.60     16.48           RANKING
  12      3     37       -6.42      1.95     17.08           RANKING
  12      4     92       -6.28      1.38     17.29           RANKING
  13      1      6       -7.10      0.00      9.43           RANKING
  14      1     59       -6.97      0.00     19.25           RANKING
  14      2     79       -5.79      1.53     19.71           RANKING
  15      1     80       -6.92      0.00     11.20           RANKING
  15      2     40       -6.37      1.01     11.11           RANKING
  15      3     10       -6.15      0.99     11.18           RANKING
  16      1     27       -6.66      0.00     15.73           RANKING
  17      1     17       -6.53      0.00     14.39           RANKING
  17      2     42       -6.24      1.61     14.14           RANKING
  17      3     41       -5.60      1.22     14.48           RANKING
  18      1     63       -6.52      0.00     20.48           RANKING
  19      1     26       -6.23      0.00     15.45           RANKING
  19      2     21       -5.74      0.60     15.45           RANKING
  20      1     89       -5.91      0.00     20.10           RANKING
  21      1     30       -5.87      0.00     17.31           RANKING
  22      1     67       -5.36      0.00     15.09           RANKING
  22      2     47       -5.15      0.94     15.26           RANKING
  22      3     87       -4.80      1.39     15.73           RANKING
  23      1      9       -5.33      0.00     16.78           RANKING
  24      1     31       -5.19      0.00     16.77           RANKING
  25      1     94       -5.06      0.00     13.47           RANKING
  25      2     56       -4.67      1.84     14.77           RANKING
  26      1     65       -4.79      0.00     13.43           RANKING
  27      1     32       -4.77      0.00     17.14           RANKING
  28      1     46       -4.62      0.00     17.03           RANKING
  29      1     73       -4.25      0.00     14.72           RANKING
_______________________________________________________________________



	INFORMATION ENTROPY ANALYSIS FOR THIS CLUSTERING
	________________________________________________


Information entropy for this clustering = 0.56  (rmstol = 2.00 Angstrom)

_______________________________________________________________________


	STATISTICAL MECHANICAL ANALYSIS
	_______________________________


Partition function, Q =   101.56            at Temperature, T = 298.15 K
Free energy,        A ~ -2737.63 kcal/mol   at Temperature, T = 298.15 K
Internal energy,    U =    -9.16 kcal/mol   at Temperature, T = 298.15 K
Entropy,            S =     9.15 kcal/mol/K at Temperature, T = 298.15 K

_______________________________________________________________________


	LOWEST ENERGY DOCKED CONFORMATION from EACH CLUSTER
	___________________________________________________



Keeping original residue number (specified in the input PDBQ file) for outputting.

MODEL      100
USER    Run = 100
USER    Cluster Rank = 1
USER    Number of conformations in this cluster = 37
USER  
USER    RMSD from reference structure       = 6.642 A
USER  
USER    Estimated Free Energy of Binding    =  -13.44 kcal/mol  [=(1)+(2)+(3)-(4)]
USER    Estimated Inhibition Constant, Ki   =  141.85 pM (picomolar)  [Temperature = 298.15 K]
USER    
USER    (1) Final Intermolecular Energy     =  -16.42 kcal/mol
USER        vdW + Hbond + desolv Energy     =  -13.99 kcal/mol
USER        Electrostatic Energy            =   -2.43 kcal/mol
USER    (2) Final Total Internal Energy     =   -0.19 kcal/mol
USER    (3) Torsional Free Energy           =   +2.98 kcal/mol
USER    (4) Unbound System's Energy  [=(2)] =   -0.19 kcal/mol
USER    
USER    
USER  
USER    DPF = D:/Protein_go_brrr/autodock/final/mut_D99N/heme_Fe/dock.dpf
USER    NEWDPF move	heme_Fe_opt.pdbqt
USER    NEWDPF about	-0.174000 -0.001000 -0.047000
USER    NEWDPF tran0	-9.075288 2.014825 1.061326
USER    NEWDPF axisangle0	0.697002 0.680547 0.225929 -32.884874
USER    NEWDPF quaternion0	0.197288 0.192630 0.063950 -0.959105
USER    NEWDPF dihe0	-71.16 -174.13 74.82 -126.97 -122.51 -85.24 -28.84 -59.87 31.35 49.18 
USER  
USER                              x       y       z    vdW   Elec        q     RMS 
ATOM      1  C   UNL d   1     -10.680   1.379   2.171 -0.23 +0.02    +0.064     6.642
ATOM      2  C   UNL d   1      -7.251  -0.866  -0.591 -0.38 +0.01    +0.064     6.642
ATOM      3  C   UNL d   1      -4.655   3.175  -0.530 -0.34 +0.01    +0.064     6.642
ATOM      4  C   UNL d   1      -8.011   5.399   2.055 -0.49 +0.01    +0.064     6.642
ATOM      5  C   UNL d   1      -9.995   0.399   1.317 -0.35 +0.02    +0.066     6.642
ATOM      6  C   UNL d   1     -10.501  -0.845   0.978 -0.33 -0.01    -0.021     6.642
ATOM      7  C   UNL d   1      -9.547  -1.469   0.214 -0.19 -0.01    -0.025     6.642
ATOM      8  C   UNL d   1      -8.493  -0.581   0.116 -0.37 +0.01    +0.066     6.642
ATOM      9  C   UNL d   1      -9.658  -2.832  -0.398 -0.24 +0.01    +0.051     6.642
ATOM     10  C   UNL d   1      -6.243  -0.006  -0.749 -0.41 +0.01    +0.066     6.642
ATOM     11  C   UNL d   1      -5.019  -0.345  -1.333 -0.42 -0.00    -0.021     6.642
ATOM     12  C   UNL d   1      -4.247   0.799  -1.312 -0.40 +0.00    +0.000     6.642
ATOM     13  C   UNL d   1      -5.044   1.784  -0.703 -0.38 +0.01    +0.070     6.642
ATOM     14  C   UNL d   1      -4.582  -1.710  -1.824 -0.61 -0.00    +0.052     6.642
ATOM     15  C   UNL d   1      -5.398   4.115   0.102 -0.39 +0.01    +0.066     6.642
ATOM     16  C   UNL d   1      -5.037   5.455   0.159 -0.49 -0.00    -0.021     6.642
ATOM     17  C   UNL d   1      -6.001   6.098   0.907 -0.50 +0.00    +0.000     6.642
ATOM     18  C   UNL d   1      -6.928   5.132   1.293 -0.40 +0.01    +0.070     6.642
ATOM     19  C   UNL d   1      -3.820   6.104  -0.443 -0.51 +0.01    +0.052     6.642
ATOM     20  C   UNL d   1      -9.040   4.421   2.429 -0.40 +0.01    +0.066     6.642
ATOM     21  C   UNL d   1     -10.052   4.633   3.375 -0.42 -0.00    -0.025     6.642
ATOM     22  C   UNL d   1     -10.809   3.479   3.383 -0.28 -0.00    -0.021     6.642
ATOM     23  C   UNL d   1     -10.228   2.611   2.450 -0.08 +0.02    +0.066     6.642
ATOM     24  C   UNL d   1     -10.301   5.850   4.235 -0.47 -0.00    +0.051     6.642
ATOM     25  N   UNL d   1      -8.773   0.558   0.781 -0.25 -0.06    -0.248     6.642
ATOM     26  N   UNL d   1      -6.257   1.292  -0.352 -0.27 -0.03    -0.248     6.642
ATOM     27  N   UNL d   1      -6.582   3.921   0.762 -0.25 -0.05    -0.248     6.642
ATOM     28  N   UNL d   1      -9.122   3.175   1.904 -0.10 -0.09    -0.248     6.642
ATOM     29 FE   UNL d   1      -7.690   2.235   0.777 -0.09 +0.00    +0.000     6.642
ATOM     30  C   UNL d   1     -11.833  -1.406   1.341 +0.12 +0.06    +0.052     6.642
ATOM     31  C   UNL d   1     -12.637  -1.744   0.090 -0.00 +0.08    +0.115     6.642
ATOM     32  C   UNL d   1     -13.584  -2.879   0.364 -0.16 +0.12    +0.139     6.642
ATOM     33  O   UNL d   1     -13.538  -3.904  -0.302 +0.00 -0.31    -0.650     6.642
ATOM     34  O   UNL d   1     -14.494  -2.776   1.348 -0.52 -1.14    -0.776     6.642
ATOM     35  H   UNL d   1     -15.428  -2.678   1.115 +0.02 +0.14    +0.167     6.642
ATOM     36  C   UNL d   1     -11.994   3.210   4.273 -0.26 +0.01    +0.052     6.642
ATOM     37  C   UNL d   1     -13.010   2.355   3.530 -0.20 +0.04    +0.115     6.642
ATOM     38  C   UNL d   1     -13.235   1.049   4.237 -0.16 +0.10    +0.139     6.642
ATOM     39  O   UNL d   1     -12.499   0.094   4.034 -0.55 -1.01    -0.650     6.642
ATOM     40  O   UNL d   1     -14.257   0.921   5.101 +0.04 -0.47    -0.776     6.642
ATOM     41  H   UNL d   1     -14.887   1.649   5.196 +0.03 +0.06    +0.167     6.642
ATOM     42  C   UNL d   1      -2.847   0.896  -1.829 -0.41 +0.00    +0.004     6.642
ATOM     43  C   UNL d   1      -2.522   1.784  -2.777 -0.62 +0.00    +0.012     6.642
ATOM     44  C   UNL d   1      -6.044   7.545   1.215 -0.57 +0.00    +0.004     6.642
ATOM     45  C   UNL d   1      -5.195   8.083   2.096 -0.69 +0.00    +0.012     6.642
TER
ENDMDL
MODEL        7
USER    Run = 7
USER    Cluster Rank = 2
USER    Number of conformations in this cluster = 3
USER  
USER    RMSD from reference structure       = 5.477 A
USER  
USER    Estimated Free Energy of Binding    =  -11.69 kcal/mol  [=(1)+(2)+(3)-(4)]
USER    Estimated Inhibition Constant, Ki   =    2.68 nM (nanomolar)  [Temperature = 298.15 K]
USER    
USER    (1) Final Intermolecular Energy     =  -14.68 kcal/mol
USER        vdW + Hbond + desolv Energy     =  -14.39 kcal/mol
USER        Electrostatic Energy            =   -0.29 kcal/mol
USER    (2) Final Total Internal Energy     =   -0.25 kcal/mol
USER    (3) Torsional Free Energy           =   +2.98 kcal/mol
USER    (4) Unbound System's Energy  [=(2)] =   -0.25 kcal/mol
USER    
USER    
USER  
USER    DPF = D:/Protein_go_brrr/autodock/final/mut_D99N/heme_Fe/dock.dpf
USER    NEWDPF move	heme_Fe_opt.pdbqt
USER    NEWDPF about	-0.174000 -0.001000 -0.047000
USER    NEWDPF tran0	-7.050708 1.967317 -0.136355
USER    NEWDPF axisangle0	0.424292 0.007373 0.905495 -108.563277
USER    NEWDPF quaternion0	0.344481 0.005986 0.735169 -0.583801
USER    NEWDPF dihe0	66.00 -165.49 -108.86 -151.80 -152.60 -67.12 -66.98 -45.71 146.11 -136.18 
USER  
USER                              x       y       z    vdW   Elec        q     RMS 
ATOM      1  C   UNL d   1      -6.567   0.068  -0.744 -0.48 +0.01    +0.064     5.477
ATOM      2  C   UNL d   1      -4.122   4.353  -0.435 -0.35 +0.01    +0.064     5.477
ATOM      3  C   UNL d   1      -7.632   6.075   2.354 -0.42 +0.01    +0.064     5.477
ATOM      4  C   UNL d   1     -10.065   1.973   1.982 -0.21 +0.02    +0.064     5.477
ATOM      5  C   UNL d   1      -5.593   1.143  -0.984 -0.41 +0.01    +0.066     5.477
ATOM      6  C   UNL d   1      -4.502   1.046  -1.832 -0.40 -0.00    -0.021     5.477
ATOM      7  C   UNL d   1      -3.821   2.235  -1.743 -0.32 -0.00    -0.025     5.477
ATOM      8  C   UNL d   1      -4.525   3.013  -0.843 -0.24 +0.01    +0.066     5.477
ATOM      9  C   UNL d   1      -2.580   2.600  -2.496 -0.48 +0.00    +0.051     5.477
ATOM     10  C   UNL d   1      -4.812   5.145   0.387 -0.44 +0.01    +0.066     5.477
ATOM     11  C   UNL d   1      -4.344   6.378   0.849 -0.54 -0.00    -0.021     5.477
ATOM     12  C   UNL d   1      -5.331   6.887   1.669 -0.53 +0.00    +0.000     5.477
ATOM     13  C   UNL d   1      -6.357   5.926   1.671 -0.41 +0.01    +0.070     5.477
ATOM     14  C   UNL d   1      -2.993   7.008   0.578 -0.12 +0.01    +0.052     5.477
ATOM     15  C   UNL d   1      -8.601   5.131   2.402 -0.44 +0.01    +0.066     5.477
ATOM     16  C   UNL d   1      -9.845   5.349   2.981 -0.47 -0.00    -0.021     5.477
ATOM     17  C   UNL d   1     -10.547   4.166   2.878 -0.31 +0.00    +0.000     5.477
ATOM     18  C   UNL d   1      -9.712   3.251   2.241 -0.30 +0.02    +0.070     5.477
ATOM     19  C   UNL d   1     -10.347   6.611   3.629 -0.51 -0.00    +0.052     5.477
ATOM     20  C   UNL d   1      -9.237   1.000   1.259 -0.28 +0.02    +0.066     5.477
ATOM     21  C   UNL d   1      -9.502  -0.373   1.159 -0.41 -0.01    -0.025     5.477
ATOM     22  C   UNL d   1      -8.499  -0.894   0.367 -0.43 -0.00    -0.021     5.477
ATOM     23  C   UNL d   1      -7.663   0.175   0.023 -0.39 +0.01    +0.066     5.477
ATOM     24  C   UNL d   1     -10.633  -1.163   1.775 -0.10 +0.04    +0.051     5.477
ATOM     25  N   UNL d   1      -5.607   2.349  -0.391 -0.27 -0.03    -0.248     5.477
ATOM     26  N   UNL d   1      -6.037   4.860   0.897 -0.25 -0.04    -0.248     5.477
ATOM     27  N   UNL d   1      -8.532   3.855   1.909 -0.20 -0.08    -0.248     5.477
ATOM     28  N   UNL d   1      -8.093   1.320   0.607 -0.15 -0.07    -0.248     5.477
ATOM     29 FE   UNL d   1      -7.067   3.089   0.752 -0.09 +0.00    +0.000     5.477
ATOM     30  C   UNL d   1      -4.134  -0.108  -2.700 -0.27 +0.00    +0.052     5.477
ATOM     31  C   UNL d   1      -2.712  -0.573  -2.406 -0.49 +0.00    +0.115     5.477
ATOM     32  C   UNL d   1      -2.724  -1.946  -1.793 -0.51 -0.00    +0.139     5.477
ATOM     33  O   UNL d   1      -1.821  -2.304  -1.048 -0.08 -0.00    -0.650     5.477
ATOM     34  O   UNL d   1      -3.730  -2.795  -2.058 +0.06 +0.09    -0.776     5.477
ATOM     35  H   UNL d   1      -4.327  -3.054  -1.342 -0.44 -0.06    +0.167     5.477
ATOM     36  C   UNL d   1      -8.329  -2.346   0.005 -0.45 +0.01    +0.052     5.477
ATOM     37  C   UNL d   1      -8.664  -3.217   1.206 -0.14 +0.03    +0.115     5.477
ATOM     38  C   UNL d   1      -9.563  -4.355   0.812 -0.23 +0.04    +0.139     5.477
ATOM     39  O   UNL d   1     -10.710  -4.147   0.446 -0.02 -0.31    -0.650     5.477
ATOM     40  O   UNL d   1      -9.108  -5.620   0.865 -0.02 -0.00    -0.776     5.477
ATOM     41  H   UNL d   1      -8.290  -5.805   1.346 -0.45 -0.05    +0.167     5.477
ATOM     42  C   UNL d   1      -5.252   8.193   2.394 -0.65 +0.00    +0.004     5.477
ATOM     43  C   UNL d   1      -4.294   8.420   3.302 -0.38 +0.00    +0.012     5.477
ATOM     44  C   UNL d   1     -11.934   3.933   3.340 -0.11 +0.00    +0.004     5.477
ATOM     45  C   UNL d   1     -12.174   3.351   4.519 -0.27 +0.00    +0.012     5.477
TER
ENDMDL
MODEL       68
USER    Run = 68
USER    Cluster Rank = 3
USER    Number of conformations in this cluster = 3
USER  
USER    RMSD from reference structure       = 6.939 A
USER  
USER    Estimated Free Energy of Binding    =  -11.24 kcal/mol  [=(1)+(2)+(3)-(4)]
USER    Estimated Inhibition Constant, Ki   =    5.72 nM (nanomolar)  [Temperature = 298.15 K]
USER    
USER    (1) Final Intermolecular Energy     =  -14.23 kcal/mol
USER        vdW + Hbond + desolv Energy     =  -12.99 kcal/mol
USER        Electrostatic Energy            =   -1.24 kcal/mol
USER    (2) Final Total Internal Energy     =   -0.46 kcal/mol
USER    (3) Torsional Free Energy           =   +2.98 kcal/mol
USER    (4) Unbound System's Energy  [=(2)] =   -0.46 kcal/mol
USER    
USER    
USER  
USER    DPF = D:/Protein_go_brrr/autodock/final/mut_D99N/heme_Fe/dock.dpf
USER    NEWDPF move	heme_Fe_opt.pdbqt
USER    NEWDPF about	-0.174000 -0.001000 -0.047000
USER    NEWDPF tran0	-9.049266 2.808087 1.997026
USER    NEWDPF axisangle0	-0.926022 0.251544 0.281439 -166.941989
USER    NEWDPF quaternion0	-0.920017 0.249913 0.279614 -0.113706
USER    NEWDPF dihe0	-99.54 -155.21 124.87 173.20 162.58 -100.03 -23.89 111.63 172.54 -3.83 
USER  
USER                              x       y       z    vdW   Elec        q     RMS 
ATOM      1  C   UNL d   1     -10.686   3.829   2.698 -0.29 +0.01    +0.064     6.939
ATOM      2  C   UNL d   1      -6.232   5.138   1.001 -0.41 +0.01    +0.064     6.939
ATOM      3  C   UNL d   1      -5.680   0.706  -0.767 -0.45 +0.01    +0.064     6.939
ATOM      4  C   UNL d   1      -9.942  -0.612   0.958 -0.40 +0.03    +0.064     6.939
ATOM      5  C   UNL d   1      -9.448   4.584   2.457 -0.41 +0.01    +0.066     6.939
ATOM      6  C   UNL d   1      -9.199   5.864   2.923 -0.51 -0.00    -0.021     6.939
ATOM      7  C   UNL d   1      -7.964   6.228   2.448 -0.44 -0.00    -0.025     6.939
ATOM      8  C   UNL d   1      -7.505   5.155   1.710 -0.41 +0.01    +0.066     6.939
ATOM      9  C   UNL d   1      -7.265   7.527   2.710 +0.03 +0.01    +0.051     6.939
ATOM     10  C   UNL d   1      -5.740   4.095   0.330 -0.39 +0.01    +0.066     6.939
ATOM     11  C   UNL d   1      -4.572   4.146  -0.434 -0.35 -0.00    -0.021     6.939
ATOM     12  C   UNL d   1      -4.399   2.885  -0.969 -0.20 +0.00    +0.000     6.939
ATOM     13  C   UNL d   1      -5.487   2.124  -0.505 -0.40 +0.01    +0.070     6.939
ATOM     14  C   UNL d   1      -3.699   5.356  -0.699 -0.44 +0.00    +0.052     6.939
ATOM     15  C   UNL d   1      -6.751  -0.018  -0.367 -0.39 +0.01    +0.066     6.939
ATOM     16  C   UNL d   1      -6.850  -1.391  -0.551 -0.47 -0.00    -0.021     6.939
ATOM     17  C   UNL d   1      -8.081  -1.773  -0.057 -0.44 +0.00    +0.000     6.939
ATOM     18  C   UNL d   1      -8.706  -0.621   0.414 -0.38 +0.02    +0.070     6.939
ATOM     19  C   UNL d   1      -5.841  -2.307  -1.189 -0.07 -0.00    +0.052     6.939
ATOM     20  C   UNL d   1     -10.607   0.570   1.520 -0.34 +0.03    +0.066     6.939
ATOM     21  C   UNL d   1     -11.954   0.637   1.901 -0.32 -0.02    -0.025     6.939
ATOM     22  C   UNL d   1     -12.141   1.907   2.406 -0.30 -0.01    -0.021     6.939
ATOM     23  C   UNL d   1     -10.909   2.564   2.307 -0.29 +0.02    +0.066     6.939
ATOM     24  C   UNL d   1     -13.018  -0.431   1.797 -0.17 +0.06    +0.051     6.939
ATOM     25  N   UNL d   1      -8.406   4.152   1.725 -0.14 -0.08    -0.248     6.939
ATOM     26  N   UNL d   1      -6.309   2.863   0.279 -0.26 -0.04    -0.248     6.939
ATOM     27  N   UNL d   1      -7.872   0.452   0.264 -0.26 -0.05    -0.248     6.939
ATOM     28  N   UNL d   1      -9.988   1.758   1.725 -0.22 -0.08    -0.248     6.939
ATOM     29 FE   UNL d   1      -8.150   2.309   1.002 -0.09 +0.00    +0.000     6.939
ATOM     30  C   UNL d   1     -10.080   6.694   3.793 -0.39 -0.00    +0.052     6.939
ATOM     31  C   UNL d   1     -10.886   7.684   2.959 -0.44 +0.00    +0.115     6.939
ATOM     32  C   UNL d   1     -12.137   8.090   3.688 -0.34 -0.01    +0.139     6.939
ATOM     33  O   UNL d   1     -12.753   9.093   3.357 -0.10 +0.05    -0.650     6.939
ATOM     34  O   UNL d   1     -12.589   7.352   4.716 +0.06 +0.11    -0.776     6.939
ATOM     35  H   UNL d   1     -12.183   7.461   5.587 -0.41 -0.06    +0.167     6.939
ATOM     36  C   UNL d   1     -13.444   2.471   2.909 -0.24 +0.02    +0.052     6.939
ATOM     37  C   UNL d   1     -13.550   2.258   4.412 -0.14 +0.04    +0.115     6.939
ATOM     38  C   UNL d   1     -13.722   0.802   4.738 -0.13 +0.11    +0.139     6.939
ATOM     39  O   UNL d   1     -14.826   0.345   4.997 +0.01 -0.46    -0.650     6.939
ATOM     40  O   UNL d   1     -12.653  -0.014   4.752 -0.50 -1.16    -0.776     6.939
ATOM     41  H   UNL d   1     -11.776   0.362   4.908 +0.04 +0.16    +0.167     6.939
ATOM     42  C   UNL d   1      -3.274   2.483  -1.868 -0.28 +0.00    +0.004     6.939
ATOM     43  C   UNL d   1      -3.102   1.204  -2.226 -0.53 +0.00    +0.012     6.939
ATOM     44  C   UNL d   1      -8.614  -3.153  -0.020 -0.07 +0.00    +0.004     6.939
ATOM     45  C   UNL d   1      -9.859  -3.417  -0.430 -0.35 +0.00    +0.012     6.939
TER
ENDMDL
MODEL       53
USER    Run = 53
USER    Cluster Rank = 4
USER    Number of conformations in this cluster = 3
USER  
USER    RMSD from reference structure       = 6.523 A
USER  
USER    Estimated Free Energy of Binding    =  -10.31 kcal/mol  [=(1)+(2)+(3)-(4)]
USER    Estimated Inhibition Constant, Ki   =   27.63 nM (nanomolar)  [Temperature = 298.15 K]
USER    
USER    (1) Final Intermolecular Energy     =  -13.29 kcal/mol
USER        vdW + Hbond + desolv Energy     =  -13.02 kcal/mol
USER        Electrostatic Energy            =   -0.27 kcal/mol
USER    (2) Final Total Internal Energy     =   -0.40 kcal/mol
USER    (3) Torsional Free Energy           =   +2.98 kcal/mol
USER    (4) Unbound System's Energy  [=(2)] =   -0.40 kcal/mol
USER    
USER    
USER  
USER    DPF = D:/Protein_go_brrr/autodock/final/mut_D99N/heme_Fe/dock.dpf
USER    NEWDPF move	heme_Fe_opt.pdbqt
USER    NEWDPF about	-0.174000 -0.001000 -0.047000
USER    NEWDPF tran0	-7.178401 3.004192 0.151697
USER    NEWDPF axisangle0	0.266982 -0.134969 0.954203 170.960495
USER    NEWDPF quaternion0	0.266151 -0.134549 0.951236 0.078803
USER    NEWDPF dihe0	-33.53 -78.84 -137.05 -168.53 96.04 103.76 120.38 -8.61 173.76 -38.02 
USER  
USER                              x       y       z    vdW   Elec        q     RMS 
ATOM      1  C   UNL d   1      -5.227   3.385  -0.354 -0.42 +0.01    +0.064     6.523
ATOM      2  C   UNL d   1      -8.679   5.781   2.248 -0.46 +0.01    +0.064     6.523
ATOM      3  C   UNL d   1     -11.259   1.734   2.421 -0.29 +0.02    +0.064     6.523
ATOM      4  C   UNL d   1      -7.980  -0.576  -0.187 -0.42 +0.01    +0.064     6.523
ATOM      5  C   UNL d   1      -5.998   4.457   0.291 -0.39 +0.01    +0.066     6.523
ATOM      6  C   UNL d   1      -5.618   5.788   0.335 -0.48 -0.00    -0.021     6.523
ATOM      7  C   UNL d   1      -6.575   6.452   1.061 -0.46 -0.00    -0.025     6.523
ATOM      8  C   UNL d   1      -7.504   5.499   1.432 -0.42 +0.01    +0.066     6.523
ATOM      9  C   UNL d   1      -6.597   7.920   1.359 -0.46 +0.01    +0.051     6.523
ATOM     10  C   UNL d   1      -9.620   4.893   2.572 -0.42 +0.01    +0.066     6.523
ATOM     11  C   UNL d   1     -10.672   5.164   3.450 -0.38 -0.00    -0.021     6.523
ATOM     12  C   UNL d   1     -11.422   4.007   3.530 -0.28 +0.00    +0.000     6.523
ATOM     13  C   UNL d   1     -10.776   3.078   2.695 -0.28 +0.01    +0.070     6.523
ATOM     14  C   UNL d   1     -10.914   6.441   4.228 -0.24 -0.01    +0.052     6.523
ATOM     15  C   UNL d   1     -10.614   0.819   1.660 -0.33 +0.03    +0.066     6.523
ATOM     16  C   UNL d   1     -11.156  -0.420   1.341 -0.34 -0.01    -0.021     6.523
ATOM     17  C   UNL d   1     -10.210  -1.089   0.591 -0.19 +0.00    +0.000     6.523
ATOM     18  C   UNL d   1      -9.110  -0.243   0.474 -0.35 +0.02    +0.070     6.523
ATOM     19  C   UNL d   1     -12.499  -0.966   1.744 +0.30 +0.07    +0.052     6.523
ATOM     20  C   UNL d   1      -6.827   0.311  -0.383 -0.41 +0.01    +0.066     6.523
ATOM     21  C   UNL d   1      -5.579  -0.082  -0.887 -0.40 -0.00    -0.025     6.523
ATOM     22  C   UNL d   1      -4.814   1.065  -0.938 -0.39 -0.00    -0.021     6.523
ATOM     23  C   UNL d   1      -5.619   2.106  -0.460 -0.40 +0.01    +0.066     6.523
ATOM     24  C   UNL d   1      -5.120  -1.462  -1.298 -0.51 +0.00    +0.051     6.523
ATOM     25  N   UNL d   1      -7.155   4.288   0.954 -0.23 -0.06    -0.248     6.523
ATOM     26  N   UNL d   1      -9.673   3.615   2.118 -0.23 -0.06    -0.248     6.523
ATOM     27  N   UNL d   1      -9.374   0.947   1.093 -0.22 -0.07    -0.248     6.523
ATOM     28  N   UNL d   1      -6.831   1.632  -0.081 -0.26 -0.04    -0.248     6.523
ATOM     29 FE   UNL d   1      -8.252   2.621   1.018 -0.09 +0.00    +0.000     6.523
ATOM     30  C   UNL d   1      -4.417   6.405  -0.298 -0.56 +0.01    +0.052     6.523
ATOM     31  C   UNL d   1      -3.280   6.531   0.710 -0.50 +0.02    +0.115     6.523
ATOM     32  C   UNL d   1      -3.701   7.384   1.874 -0.46 +0.03    +0.139     6.523
ATOM     33  O   UNL d   1      -4.125   6.873   2.901 +0.02 -0.08    -0.650     6.523
ATOM     34  O   UNL d   1      -3.615   8.723   1.795 +0.11 -0.24    -0.776     6.523
ATOM     35  H   UNL d   1      -4.275   9.264   2.252 +0.13 +0.05    +0.167     6.523
ATOM     36  C   UNL d   1      -3.376   1.144  -1.376 -0.01 +0.00    +0.052     6.523
ATOM     37  C   UNL d   1      -3.245   0.637  -2.805 -0.31 +0.01    +0.115     6.523
ATOM     38  C   UNL d   1      -1.873   0.913  -3.352 -0.54 +0.01    +0.139     6.523
ATOM     39  O   UNL d   1      -1.046   0.018  -3.445 +0.01 -0.03    -0.650     6.523
ATOM     40  O   UNL d   1      -1.544   2.157  -3.742 +0.04 -0.01    -0.776     6.523
ATOM     41  H   UNL d   1      -1.011   2.709  -3.152 -0.43 -0.02    +0.167     6.523
ATOM     42  C   UNL d   1     -12.648   3.838   4.370 -0.25 +0.00    +0.004     6.523
ATOM     43  C   UNL d   1     -12.561   3.415   5.638 -0.23 +0.00    +0.012     6.523
ATOM     44  C   UNL d   1     -10.359  -2.442   0.008 -0.19 +0.00    +0.004     6.523
ATOM     45  C   UNL d   1      -9.591  -3.455   0.424 -0.43 +0.00    +0.012     6.523
TER
ENDMDL
MODEL       52
USER    Run = 52
USER    Cluster Rank = 5
USER    Number of conformations in this cluster = 1
USER  
USER    RMSD from reference structure       = 8.976 A
USER  
USER    Estimated Free Energy of Binding    =   -8.41 kcal/mol  [=(1)+(2)+(3)-(4)]
USER    Estimated Inhibition Constant, Ki   =  681.55 nM (nanomolar)  [Temperature = 298.15 K]
USER    
USER    (1) Final Intermolecular Energy     =  -11.40 kcal/mol
USER        vdW + Hbond + desolv Energy     =   -9.30 kcal/mol
USER        Electrostatic Energy            =   -2.09 kcal/mol
USER    (2) Final Total Internal Energy     =   -1.89 kcal/mol
USER    (3) Torsional Free Energy           =   +2.98 kcal/mol
USER    (4) Unbound System's Energy  [=(2)] =   -1.89 kcal/mol
USER    
USER    
USER  
USER    DPF = D:/Protein_go_brrr/autodock/final/mut_D99N/heme_Fe/dock.dpf
USER    NEWDPF move	heme_Fe_opt.pdbqt
USER    NEWDPF about	-0.174000 -0.001000 -0.047000
USER    NEWDPF tran0	-11.677036 2.127125 2.950106
USER    NEWDPF axisangle0	-0.978931 0.004361 0.204146 -155.230468
USER    NEWDPF quaternion0	-0.956150 0.004259 0.199396 -0.214476
USER    NEWDPF dihe0	6.52 180.00 -122.75 67.32 -58.78 -57.56 80.31 120.72 -9.44 17.52 
USER  
USER                              x       y       z    vdW   Elec        q     RMS 
ATOM      1  C   UNL d   1     -13.697   2.246   3.292 -0.21 +0.02    +0.064     8.976
ATOM      2  C   UNL d   1      -9.950   5.468   3.412 -0.44 +0.00    +0.064     8.976
ATOM      3  C   UNL d   1      -7.242   2.302   1.023 -0.29 +0.02    +0.064     8.976
ATOM      4  C   UNL d   1     -10.821  -0.872   0.989 -0.32 +0.04    +0.064     8.976
ATOM      5  C   UNL d   1     -12.867   3.414   3.621 -0.18 +0.01    +0.066     8.976
ATOM      6  C   UNL d   1     -13.280   4.483   4.399 -0.16 -0.00    -0.021     8.976
ATOM      7  C   UNL d   1     -12.240   5.379   4.429 -0.26 -0.00    -0.025     8.976
ATOM      8  C   UNL d   1     -11.232   4.822   3.667 -0.28 +0.00    +0.066     8.976
ATOM      9  C   UNL d   1     -12.219   6.683   5.165 -0.11 -0.01    +0.051     8.976
ATOM     10  C   UNL d   1      -8.940   4.928   2.729 -0.43 +0.01    +0.066     8.976
ATOM     11  C   UNL d   1      -7.768   5.616   2.404 -0.36 -0.00    -0.021     8.976
ATOM     12  C   UNL d   1      -6.977   4.730   1.700 -0.45 +0.00    +0.000     8.976
ATOM     13  C   UNL d   1      -7.718   3.538   1.624 -0.05 +0.03    +0.070     8.976
ATOM     14  C   UNL d   1      -7.446   7.069   2.690 -0.34 +0.01    +0.052     8.976
ATOM     15  C   UNL d   1      -7.971   1.167   0.902 -0.33 +0.02    +0.066     8.976
ATOM     16  C   UNL d   1      -7.447  -0.022   0.412 -0.38 -0.00    -0.021     8.976
ATOM     17  C   UNL d   1      -8.478  -0.938   0.398 -0.45 +0.00    +0.000     8.976
ATOM     18  C   UNL d   1      -9.611  -0.283   0.877 -0.36 +0.02    +0.070     8.976
ATOM     19  C   UNL d   1      -6.038  -0.284  -0.049 -0.10 +0.01    +0.052     8.976
ATOM     20  C   UNL d   1     -12.020  -0.233   1.545 -0.27 +0.06    +0.066     8.976
ATOM     21  C   UNL d   1     -13.319  -0.757   1.484 -0.04 -0.03    -0.025     8.976
ATOM     22  C   UNL d   1     -14.120   0.142   2.158 -0.10 -0.02    -0.021     8.976
ATOM     23  C   UNL d   1     -13.284   1.176   2.595 -0.21 +0.04    +0.066     8.976
ATOM     24  C   UNL d   1     -13.792  -2.032   0.826 -0.11 +0.06    +0.051     8.976
ATOM     25  N   UNL d   1     -11.613   3.622   3.185 -0.15 -0.04    -0.248     8.976
ATOM     26  N   UNL d   1      -8.918   3.660   2.243 -0.27 -0.07    -0.248     8.976
ATOM     27  N   UNL d   1      -9.290   0.998   1.228 -0.23 -0.08    -0.248     8.976
ATOM     28  N   UNL d   1     -12.012   0.964   2.180 -0.20 -0.14    -0.248     8.976
ATOM     29 FE   UNL d   1     -10.465   2.310   2.211 -0.08 +0.00    +0.000     8.976
ATOM     30  C   UNL d   1     -14.587   4.639   5.098 -0.12 +0.01    +0.052     8.976
ATOM     31  C   UNL d   1     -14.600   3.847   6.401 -0.06 +0.02    +0.115     8.976
ATOM     32  C   UNL d   1     -15.319   2.540   6.215 -0.02 +0.03    +0.139     8.976
ATOM     33  O   UNL d   1     -16.486   2.516   5.848 +0.02 -0.13    -0.650     8.976
ATOM     34  O   UNL d   1     -14.683   1.380   6.453 +0.06 -0.29    -0.776     8.976
ATOM     35  H   UNL d   1     -15.128   0.548   6.238 +0.02 +0.08    +0.167     8.976
ATOM     36  C   UNL d   1     -15.613   0.035   2.327 -0.15 +0.03    +0.052     8.976
ATOM     37  C   UNL d   1     -15.950  -0.162   3.798 -0.08 +0.07    +0.115     8.976
ATOM     38  C   UNL d   1     -15.319  -1.416   4.332 +0.07 +0.19    +0.139     8.976
ATOM     39  O   UNL d   1     -15.555  -2.502   3.822 +0.03 -1.00    -0.650     8.976
ATOM     40  O   UNL d   1     -14.486  -1.352   5.386 +0.01 -1.21    -0.776     8.976
ATOM     41  H   UNL d   1     -14.300  -0.492   5.787 +0.02 +0.16    +0.167     8.976
ATOM     42  C   UNL d   1      -5.626   5.046   1.142 -0.51 +0.00    +0.004     8.976
ATOM     43  C   UNL d   1      -5.494   5.803   0.045 -0.57 +0.00    +0.012     8.976
ATOM     44  C   UNL d   1      -8.381  -2.353  -0.026 -0.46 +0.00    +0.004     8.976
ATOM     45  C   UNL d   1      -8.694  -3.344   0.816 -0.41 +0.00    +0.012     8.976
TER
ENDMDL
MODEL       95
USER    Run = 95
USER    Cluster Rank = 6
USER    Number of conformations in this cluster = 1
USER  
USER    RMSD from reference structure       = 12.530 A
USER  
USER    Estimated Free Energy of Binding    =   -7.94 kcal/mol  [=(1)+(2)+(3)-(4)]
USER    Estimated Inhibition Constant, Ki   =    1.52 uM (micromolar)  [Temperature = 298.15 K]
USER    
USER    (1) Final Intermolecular Energy     =  -10.92 kcal/mol
USER        vdW + Hbond + desolv Energy     =   -9.25 kcal/mol
USER        Electrostatic Energy            =   -1.67 kcal/mol
USER    (2) Final Total Internal Energy     =   -0.52 kcal/mol
USER    (3) Torsional Free Energy           =   +2.98 kcal/mol
USER    (4) Unbound System's Energy  [=(2)] =   -0.52 kcal/mol
USER    
USER    
USER  
USER    DPF = D:/Protein_go_brrr/autodock/final/mut_D99N/heme_Fe/dock.dpf
USER    NEWDPF move	heme_Fe_opt.pdbqt
USER    NEWDPF about	-0.174000 -0.001000 -0.047000
USER    NEWDPF tran0	-13.161411 5.559314 5.785009
USER    NEWDPF axisangle0	0.361762 0.323024 0.874519 -130.164144
USER    NEWDPF quaternion0	0.328086 0.292954 0.793112 -0.421320
USER    NEWDPF dihe0	48.16 84.04 -101.30 -157.07 104.85 -24.20 35.52 29.72 154.35 3.19 
USER  
USER                              x       y       z    vdW   Elec        q     RMS 
ATOM      1  C   UNL d   1     -11.874   3.983   5.526 -0.29 +0.01    +0.064    12.530
ATOM      2  C   UNL d   1     -12.009   8.663   3.941 -0.30 -0.01    +0.064    12.530
ATOM      3  C   UNL d   1     -15.351   9.616   7.256 -0.10 -0.01    +0.064    12.530
ATOM      4  C   UNL d   1     -15.313   5.066   8.735 -0.07 +0.02    +0.064    12.530
ATOM      5  C   UNL d   1     -11.662   5.191   4.717 -0.30 +0.00    +0.066    12.530
ATOM      6  C   UNL d   1     -10.849   5.262   3.598 -0.39 -0.00    -0.021    12.530
ATOM      7  C   UNL d   1     -10.884   6.563   3.161 -0.44 -0.00    -0.025    12.530
ATOM      8  C   UNL d   1     -11.719   7.237   4.031 -0.26 -0.01    +0.066    12.530
ATOM      9  C   UNL d   1     -10.168   7.112   1.965 -0.16 +0.00    +0.051    12.530
ATOM     10  C   UNL d   1     -12.855   9.325   4.732 -0.30 -0.01    +0.066    12.530
ATOM     11  C   UNL d   1     -13.025  10.711   4.695 -0.33 +0.00    -0.021    12.530
ATOM     12  C   UNL d   1     -13.972  11.014   5.654 -0.20 -0.00    +0.000    12.530
ATOM     13  C   UNL d   1     -14.328   9.785   6.237 -0.14 -0.01    +0.070    12.530
ATOM     14  C   UNL d   1     -12.273  11.708   3.837 -0.41 -0.01    +0.052    12.530
ATOM     15  C   UNL d   1     -15.661   8.442   7.857 -0.08 -0.00    +0.066    12.530
ATOM     16  C   UNL d   1     -16.713   8.304   8.754 -0.06 -0.00    -0.021    12.530
ATOM     17  C   UNL d   1     -16.701   6.993   9.184 -0.08 +0.00    +0.000    12.530
ATOM     18  C   UNL d   1     -15.638   6.363   8.542 -0.08 +0.01    +0.070    12.530
ATOM     19  C   UNL d   1     -17.677   9.366   9.210 -0.03 -0.00    +0.052    12.530
ATOM     20  C   UNL d   1     -14.240   4.353   8.031 -0.12 +0.02    +0.066    12.530
ATOM     21  C   UNL d   1     -13.764   3.077   8.361 -0.14 -0.01    -0.025    12.530
ATOM     22  C   UNL d   1     -12.793   2.783   7.426 -0.19 -0.00    -0.021    12.530
ATOM     23  C   UNL d   1     -12.711   3.888   6.570 -0.18 +0.01    +0.066    12.530
ATOM     24  C   UNL d   1     -14.189   2.175   9.497 -0.12 +0.01    +0.051    12.530
ATOM     25  N   UNL d   1     -12.199   6.398   4.970 -0.18 +0.03    -0.248    12.530
ATOM     26  N   UNL d   1     -13.641   8.757   5.681 -0.13 +0.04    -0.248    12.530
ATOM     27  N   UNL d   1     -15.025   7.241   7.693 -0.07 -0.01    -0.248    12.530
ATOM     28  N   UNL d   1     -13.565   4.861   6.971 -0.08 -0.03    -0.248    12.530
ATOM     29 FE   UNL d   1     -13.604   6.808   6.328 -0.05 -0.00    +0.000    12.530
ATOM     30  C   UNL d   1     -10.091   4.147   2.962 -0.42 +0.01    +0.052    12.530
ATOM     31  C   UNL d   1      -8.590   4.400   3.040 -0.37 +0.02    +0.115    12.530
ATOM     32  C   UNL d   1      -7.906   3.889   1.802 -0.30 +0.04    +0.139    12.530
ATOM     33  O   UNL d   1      -7.515   4.664   0.941 -0.18 -0.15    -0.650    12.530
ATOM     34  O   UNL d   1      -7.717   2.570   1.632 -0.95 -0.34    -0.776    12.530
ATOM     35  H   UNL d   1      -6.842   2.251   1.367 +0.09 +0.05    +0.167    12.530
ATOM     36  C   UNL d   1     -11.958   1.530   7.389 -0.25 +0.02    +0.052    12.530
ATOM     37  C   UNL d   1     -12.523   0.567   6.354 -0.18 +0.07    +0.115    12.530
ATOM     38  C   UNL d   1     -12.232  -0.858   6.730 -0.21 +0.13    +0.139    12.530
ATOM     39  O   UNL d   1     -11.288  -1.134   7.456 -0.60 -0.47    -0.650    12.530
ATOM     40  O   UNL d   1     -13.013  -1.848   6.263 -0.11 -1.26    -0.776    12.530
ATOM     41  H   UNL d   1     -13.733  -2.180   6.817 +0.02 +0.18    +0.167    12.530
ATOM     42  C   UNL d   1     -14.460  12.391   5.971 -0.17 -0.00    +0.004    12.530
ATOM     43  C   UNL d   1     -13.600  13.375   6.270 -0.23 -0.01    +0.012    12.530
ATOM     44  C   UNL d   1     -17.658   6.379  10.133 -0.05 +0.00    +0.004    12.530
ATOM     45  C   UNL d   1     -17.311   6.151  11.404 -0.07 +0.00    +0.012    12.530
TER
ENDMDL
MODEL       43
USER    Run = 43
USER    Cluster Rank = 7
USER    Number of conformations in this cluster = 7
USER  
USER    RMSD from reference structure       = 16.542 A
USER  
USER    Estimated Free Energy of Binding    =   -7.71 kcal/mol  [=(1)+(2)+(3)-(4)]
USER    Estimated Inhibition Constant, Ki   =    2.24 uM (micromolar)  [Temperature = 298.15 K]
USER    
USER    (1) Final Intermolecular Energy     =  -10.69 kcal/mol
USER        vdW + Hbond + desolv Energy     =   -9.71 kcal/mol
USER        Electrostatic Energy            =   -0.98 kcal/mol
USER    (2) Final Total Internal Energy     =   -0.62 kcal/mol
USER    (3) Torsional Free Energy           =   +2.98 kcal/mol
USER    (4) Unbound System's Energy  [=(2)] =   -0.62 kcal/mol
USER    
USER    
USER  
USER    DPF = D:/Protein_go_brrr/autodock/final/mut_D99N/heme_Fe/dock.dpf
USER    NEWDPF move	heme_Fe_opt.pdbqt
USER    NEWDPF about	-0.174000 -0.001000 -0.047000
USER    NEWDPF tran0	15.089397 -8.529242 7.296774
USER    NEWDPF axisangle0	0.183589 -0.323018 0.928415 160.327973
USER    NEWDPF quaternion0	0.180891 -0.318270 0.914768 0.170829
USER    NEWDPF dihe0	-119.22 147.03 103.17 -143.96 17.60 63.11 -95.20 8.22 -23.10 -177.40 
USER  
USER                              x       y       z    vdW   Elec        q     RMS 
ATOM      1  C   UNL d   1      17.047  -7.915   7.284 -0.28 -0.01    +0.064    16.542
ATOM      2  C   UNL d   1      13.106  -6.919  10.095 -0.26 -0.02    +0.064    16.542
ATOM      3  C   UNL d   1      10.889 -10.746   8.223 -0.25 -0.02    +0.064    16.542
ATOM      4  C   UNL d   1      14.653 -11.667   5.417 -0.28 -0.05    +0.064    16.542
ATOM      5  C   UNL d   1      16.112  -7.231   8.187 -0.24 -0.02    +0.066    16.542
ATOM      6  C   UNL d   1      16.365  -6.028   8.825 -0.18 +0.01    -0.021    16.542
ATOM      7  C   UNL d   1      15.272  -5.754   9.609 -0.18 +0.01    -0.025    16.542
ATOM      8  C   UNL d   1      14.392  -6.802   9.418 -0.23 -0.03    +0.066    16.542
ATOM      9  C   UNL d   1      15.085  -4.544  10.471 -0.16 -0.01    +0.051    16.542
ATOM     10  C   UNL d   1      12.214  -7.889   9.887 -0.25 -0.03    +0.066    16.542
ATOM     11  C   UNL d   1      11.042  -8.037  10.632 -0.22 +0.01    -0.021    16.542
ATOM     12  C   UNL d   1      10.393  -9.144  10.123 -0.20 -0.00    +0.000    16.542
ATOM     13  C   UNL d   1      11.215  -9.623   9.088 -0.21 -0.03    +0.070    16.542
ATOM     14  C   UNL d   1      10.596  -7.206  11.818 -0.19 -0.04    +0.052    16.542
ATOM     15  C   UNL d   1      11.700 -11.243   7.259 -0.24 -0.02    +0.066    16.542
ATOM     16  C   UNL d   1      11.312 -12.253   6.388 -0.25 +0.01    -0.021    16.542
ATOM     17  C   UNL d   1      12.397 -12.523   5.580 -0.27 -0.00    +0.000    16.542
ATOM     18  C   UNL d   1      13.425 -11.672   5.981 -0.30 -0.04    +0.070    16.542
ATOM     19  C   UNL d   1       9.983 -12.956   6.331 -0.31 -0.01    +0.052    16.542
ATOM     20  C   UNL d   1      15.739 -10.746   5.771 -0.31 -0.03    +0.066    16.542
ATOM     21  C   UNL d   1      17.068 -10.857   5.341 -0.33 +0.01    -0.025    16.542
ATOM     22  C   UNL d   1      17.730  -9.771   5.874 -0.32 +0.00    -0.021    16.542
ATOM     23  C   UNL d   1      16.785  -9.046   6.610 -0.27 -0.01    +0.066    16.542
ATOM     24  C   UNL d   1      17.694 -11.928   4.477 -0.27 -0.02    +0.051    16.542
ATOM     25  N   UNL d   1      14.901  -7.694   8.546 -0.15 +0.11    -0.248    16.542
ATOM     26  N   UNL d   1      12.329  -8.864   8.949 -0.09 +0.12    -0.248    16.542
ATOM     27  N   UNL d   1      12.984 -10.855   6.984 -0.09 +0.13    -0.248    16.542
ATOM     28  N   UNL d   1      15.582  -9.670   6.580 -0.20 +0.10    -0.248    16.542
ATOM     29 FE   UNL d   1      13.956  -9.268   7.763 -0.05 -0.00    +0.000    16.542
ATOM     30  C   UNL d   1      17.575  -5.170   8.683 -0.13 -0.01    +0.052    16.542
ATOM     31  C   UNL d   1      17.668  -4.595   7.273 -0.20 -0.01    +0.115    16.542
ATOM     32  C   UNL d   1      16.848  -3.340   7.162 -0.27 -0.02    +0.139    16.542
ATOM     33  O   UNL d   1      16.490  -2.738   8.165 -0.17 +0.05    -0.650    16.542
ATOM     34  O   UNL d   1      16.499  -2.866   5.954 -0.03 +0.13    -0.776    16.542
ATOM     35  H   UNL d   1      15.957  -3.417   5.372 -0.46 -0.08    +0.167    16.542
ATOM     36  C   UNL d   1      19.199  -9.475   5.724 -0.28 +0.02    +0.052    16.542
ATOM     37  C   UNL d   1      19.996 -10.315   6.711 -0.15 +0.03    +0.115    16.542
ATOM     38  C   UNL d   1      21.444  -9.916   6.713 -0.10 +0.09    +0.139    16.542
ATOM     39  O   UNL d   1      21.782  -8.792   7.057 -0.03 -0.46    -0.650    16.542
ATOM     40  O   UNL d   1      22.384 -10.798   6.331 -0.20 -0.93    -0.776    16.542
ATOM     41  H   UNL d   1      22.251 -11.738   6.517 +0.01 +0.12    +0.167    16.542
ATOM     42  C   UNL d   1       9.093  -9.683  10.630 -0.22 -0.00    +0.004    16.542
ATOM     43  C   UNL d   1       8.253 -10.336   9.816 -0.25 -0.01    +0.012    16.542
ATOM     44  C   UNL d   1      12.441 -13.515   4.482 -0.37 -0.00    +0.004    16.542
ATOM     45  C   UNL d   1      12.817 -14.777   4.714 -0.28 -0.00    +0.012    16.542
TER
ENDMDL
MODEL       85
USER    Run = 85
USER    Cluster Rank = 8
USER    Number of conformations in this cluster = 5
USER  
USER    RMSD from reference structure       = 13.381 A
USER  
USER    Estimated Free Energy of Binding    =   -7.68 kcal/mol  [=(1)+(2)+(3)-(4)]
USER    Estimated Inhibition Constant, Ki   =    2.35 uM (micromolar)  [Temperature = 298.15 K]
USER    
USER    (1) Final Intermolecular Energy     =  -10.66 kcal/mol
USER        vdW + Hbond + desolv Energy     =   -7.53 kcal/mol
USER        Electrostatic Energy            =   -3.13 kcal/mol
USER    (2) Final Total Internal Energy     =   -1.75 kcal/mol
USER    (3) Torsional Free Energy           =   +2.98 kcal/mol
USER    (4) Unbound System's Energy  [=(2)] =   -1.75 kcal/mol
USER    
USER    
USER  
USER    DPF = D:/Protein_go_brrr/autodock/final/mut_D99N/heme_Fe/dock.dpf
USER    NEWDPF move	heme_Fe_opt.pdbqt
USER    NEWDPF about	-0.174000 -0.001000 -0.047000
USER    NEWDPF tran0	-15.577166 4.973184 4.306061
USER    NEWDPF axisangle0	0.590817 0.791285 0.157492 -156.728753
USER    NEWDPF quaternion0	0.578676 0.775024 0.154256 -0.201687
USER    NEWDPF dihe0	-58.51 116.70 -175.08 53.66 107.03 -169.94 -48.32 -27.48 -173.33 15.56 
USER  
USER                              x       y       z    vdW   Elec        q     RMS 
ATOM      1  C   UNL d   1     -14.872   3.059   4.080 -0.14 +0.01    +0.064    13.381
ATOM      2  C   UNL d   1     -18.652   5.621   2.189 -0.20 +0.01    +0.064    13.381
ATOM      3  C   UNL d   1     -16.610   9.670   3.772 -0.16 -0.01    +0.064    13.381
ATOM      4  C   UNL d   1     -12.996   7.201   5.702 -0.21 -0.01    +0.064    13.381
ATOM      5  C   UNL d   1     -16.167   3.397   3.474 -0.14 +0.01    +0.066    13.381
ATOM      6  C   UNL d   1     -17.086   2.473   3.005 -0.13 -0.00    -0.021    13.381
ATOM      7  C   UNL d   1     -18.134   3.186   2.476 -0.14 -0.00    -0.025    13.381
ATOM      8  C   UNL d   1     -17.814   4.519   2.644 -0.18 +0.01    +0.066    13.381
ATOM      9  C   UNL d   1     -19.374   2.609   1.866 -0.11 +0.01    +0.051    13.381
ATOM     10  C   UNL d   1     -18.394   6.915   2.388 -0.22 +0.01    +0.066    13.381
ATOM     11  C   UNL d   1     -19.156   7.950   1.841 -0.22 -0.00    -0.021    13.381
ATOM     12  C   UNL d   1     -18.578   9.129   2.269 -0.18 -0.00    +0.000    13.381
ATOM     13  C   UNL d   1     -17.477   8.748   3.056 -0.17 -0.00    +0.070    13.381
ATOM     14  C   UNL d   1     -20.337   7.824   0.900 -0.19 +0.02    +0.052    13.381
ATOM     15  C   UNL d   1     -15.519   9.311   4.488 -0.12 -0.01    +0.066    13.381
ATOM     16  C   UNL d   1     -14.774  10.212   5.239 -0.12 +0.00    -0.021    13.381
ATOM     17  C   UNL d   1     -13.729   9.502   5.793 -0.24 -0.00    +0.000    13.381
ATOM     18  C   UNL d   1     -13.859   8.184   5.364 -0.19 -0.01    +0.070    13.381
ATOM     19  C   UNL d   1     -15.018  11.687   5.409 -0.10 -0.01    +0.052    13.381
ATOM     20  C   UNL d   1     -13.134   5.790   5.319 -0.19 +0.00    +0.066    13.381
ATOM     21  C   UNL d   1     -12.152   4.805   5.490 -0.27 -0.00    -0.025    13.381
ATOM     22  C   UNL d   1     -12.713   3.630   5.033 -0.19 -0.00    -0.021    13.381
ATOM     23  C   UNL d   1     -14.006   3.945   4.598 -0.12 +0.01    +0.066    13.381
ATOM     24  C   UNL d   1     -10.756   4.951   6.049 -0.43 -0.00    +0.051    13.381
ATOM     25  N   UNL d   1     -16.621   4.645   3.259 -0.10 -0.03    -0.248    13.381
ATOM     26  N   UNL d   1     -17.360   7.399   3.122 -0.13 -0.01    -0.248    13.381
ATOM     27  N   UNL d   1     -14.983   8.056   4.597 -0.06 +0.01    -0.248    13.381
ATOM     28  N   UNL d   1     -14.241   5.272   4.733 -0.04 -0.02    -0.248    13.381
ATOM     29 FE   UNL d   1     -15.799   6.336   3.928 -0.04 +0.00    +0.000    13.381
ATOM     30  C   UNL d   1     -16.986   0.988   3.074 -0.10 +0.02    +0.052    13.381
ATOM     31  C   UNL d   1     -16.165   0.447   1.908 -0.07 +0.04    +0.115    13.381
ATOM     32  C   UNL d   1     -15.131  -0.527   2.400 -0.13 +0.13    +0.139    13.381
ATOM     33  O   UNL d   1     -15.261  -1.727   2.204 -0.38 -0.85    -0.650    13.381
ATOM     34  O   UNL d   1     -14.049  -0.085   3.064 -0.05 -0.98    -0.776    13.381
ATOM     35  H   UNL d   1     -13.883  -0.409   3.960 +0.02 +0.31    +0.167    13.381
ATOM     36  C   UNL d   1     -12.025   2.292   4.974 -0.07 +0.02    +0.052    13.381
ATOM     37  C   UNL d   1     -12.674   1.336   5.964 -0.17 +0.06    +0.115    13.381
ATOM     38  C   UNL d   1     -12.542  -0.088   5.504 -0.13 +0.16    +0.139    13.381
ATOM     39  O   UNL d   1     -13.152  -0.986   6.066 -0.13 -0.89    -0.650    13.381
ATOM     40  O   UNL d   1     -11.741  -0.387   4.466 -0.41 -1.38    -0.776    13.381
ATOM     41  H   UNL d   1     -11.951  -0.027   3.592 +0.04 +0.25    +0.167    13.381
ATOM     42  C   UNL d   1     -19.062  10.498   1.913 -0.16 -0.00    +0.004    13.381
ATOM     43  C   UNL d   1     -18.231  11.409   1.391 -0.17 -0.00    +0.012    13.381
ATOM     44  C   UNL d   1     -12.686  10.047   6.692 -0.42 -0.00    +0.004    13.381
ATOM     45  C   UNL d   1     -12.682   9.748   7.996 -0.50 -0.00    +0.012    13.381
TER
ENDMDL
MODEL       54
USER    Run = 54
USER    Cluster Rank = 9
USER    Number of conformations in this cluster = 8
USER  
USER    RMSD from reference structure       = 17.645 A
USER  
USER    Estimated Free Energy of Binding    =   -7.53 kcal/mol  [=(1)+(2)+(3)-(4)]
USER    Estimated Inhibition Constant, Ki   =    3.01 uM (micromolar)  [Temperature = 298.15 K]
USER    
USER    (1) Final Intermolecular Energy     =  -10.51 kcal/mol
USER        vdW + Hbond + desolv Energy     =   -7.76 kcal/mol
USER        Electrostatic Energy            =   -2.75 kcal/mol
USER    (2) Final Total Internal Energy     =   -1.85 kcal/mol
USER    (3) Torsional Free Energy           =   +2.98 kcal/mol
USER    (4) Unbound System's Energy  [=(2)] =   -1.85 kcal/mol
USER    
USER    
USER  
USER    DPF = D:/Protein_go_brrr/autodock/final/mut_D99N/heme_Fe/dock.dpf
USER    NEWDPF move	heme_Fe_opt.pdbqt
USER    NEWDPF about	-0.174000 -0.001000 -0.047000
USER    NEWDPF tran0	5.909411 -0.151633 -17.636600
USER    NEWDPF axisangle0	0.996951 -0.069782 0.034912 -69.055586
USER    NEWDPF quaternion0	0.565078 -0.039553 0.019789 -0.823851
USER    NEWDPF dihe0	-80.30 -146.41 -164.25 -158.73 123.44 91.38 73.04 -31.83 -5.54 -16.13 
USER  
USER                              x       y       z    vdW   Elec        q     RMS 
ATOM      1  C   UNL d   1       3.918  -0.645 -17.674 -0.28 +0.02    +0.064    17.645
ATOM      2  C   UNL d   1       7.821  -1.707 -20.515 -0.13 +0.01    +0.064    17.645
ATOM      3  C   UNL d   1      10.709  -0.119 -17.021 -0.09 +0.03    +0.064    17.645
ATOM      4  C   UNL d   1       6.942   1.014 -14.298 -0.23 +0.02    +0.064    17.645
ATOM      5  C   UNL d   1       4.746  -1.014 -18.831 -0.18 +0.02    +0.066    17.645
ATOM      6  C   UNL d   1       4.252  -1.413 -20.062 -0.18 -0.01    -0.021    17.645
ATOM      7  C   UNL d   1       5.337  -1.711 -20.849 -0.09 -0.01    -0.025    17.645
ATOM      8  C   UNL d   1       6.452  -1.482 -20.067 -0.10 +0.01    +0.066    17.645
ATOM      9  C   UNL d   1       5.294  -2.170 -22.274 -0.14 +0.01    +0.051    17.645
ATOM     10  C   UNL d   1       8.916  -1.441 -19.801 -0.10 +0.01    +0.066    17.645
ATOM     11  C   UNL d   1      10.209  -1.774 -20.212 -0.06 -0.00    -0.021    17.645
ATOM     12  C   UNL d   1      11.059  -1.341 -19.214 -0.05 +0.00    +0.000    17.645
ATOM     13  C   UNL d   1      10.232  -0.769 -18.232 -0.08 +0.03    +0.070    17.645
ATOM     14  C   UNL d   1      10.610  -2.529 -21.463 -0.05 +0.01    +0.052    17.645
ATOM     15  C   UNL d   1       9.915   0.387 -16.048 -0.09 +0.03    +0.066    17.645
ATOM     16  C   UNL d   1      10.407   1.088 -14.955 -0.12 -0.01    -0.021    17.645
ATOM     17  C   UNL d   1       9.323   1.413 -14.166 -0.17 +0.00    +0.000    17.645
ATOM     18  C   UNL d   1       8.192   0.898 -14.796 -0.12 +0.02    +0.070    17.645
ATOM     19  C   UNL d   1      11.843   1.419 -14.648 -0.09 +0.01    +0.052    17.645
ATOM     20  C   UNL d   1       5.723   0.539 -14.963 -0.23 +0.02    +0.066    17.645
ATOM     21  C   UNL d   1       4.453   0.472 -14.373 -0.37 -0.01    -0.025    17.645
ATOM     22  C   UNL d   1       3.604   0.009 -15.357 -0.36 -0.01    -0.021    17.645
ATOM     23  C   UNL d   1       4.386  -0.194 -16.500 -0.25 +0.02    +0.066    17.645
ATOM     24  C   UNL d   1       4.049   0.819 -12.959 +0.02 +0.01    +0.051    17.645
ATOM     25  N   UNL d   1       6.090  -1.049 -18.843 -0.12 -0.07    -0.248    17.645
ATOM     26  N   UNL d   1       8.925  -0.837 -18.585 -0.06 -0.08    -0.248    17.645
ATOM     27  N   UNL d   1       8.550   0.305 -15.975 -0.10 -0.09    -0.248    17.645
ATOM     28  N   UNL d   1       5.686   0.088 -16.240 -0.11 -0.07    -0.248    17.645
ATOM     29 FE   UNL d   1       7.305  -0.373 -17.411 -0.04 +0.00    +0.000    17.645
ATOM     30  C   UNL d   1       2.823  -1.487 -20.479 -0.24 +0.02    +0.052    17.645
ATOM     31  C   UNL d   1       2.325  -0.124 -20.948 -0.09 +0.04    +0.115    17.645
ATOM     32  C   UNL d   1       1.402   0.479 -19.926 -0.12 +0.08    +0.139    17.645
ATOM     33  O   UNL d   1       1.636   1.580 -19.447 +0.02 -0.30    -0.650    17.645
ATOM     34  O   UNL d   1       0.306  -0.190 -19.529 -0.53 -1.04    -0.776    17.645
ATOM     35  H   UNL d   1       0.330  -0.676 -18.693 -0.53 +0.35    +0.167    17.645
ATOM     36  C   UNL d   1       2.133  -0.270 -15.191 -0.28 +0.02    +0.052    17.645
ATOM     37  C   UNL d   1       1.350   1.031 -15.294 -0.33 +0.07    +0.115    17.645
ATOM     38  C   UNL d   1      -0.001   0.798 -15.911 -0.23 +0.18    +0.139    17.645
ATOM     39  O   UNL d   1      -0.974   0.556 -15.212 -0.54 -1.01    -0.650    17.645
ATOM     40  O   UNL d   1      -0.147   0.853 -17.247 +0.02 -1.31    -0.776    17.645
ATOM     41  H   UNL d   1       0.582   0.559 -17.811 -0.22 +0.21    +0.167    17.645
ATOM     42  C   UNL d   1      12.546  -1.500 -19.227 -0.03 +0.00    +0.004    17.645
ATOM     43  C   UNL d   1      13.168  -2.250 -18.307 -0.06 +0.00    +0.012    17.645
ATOM     44  C   UNL d   1       9.364   2.184 -12.903 -0.23 +0.00    +0.004    17.645
ATOM     45  C   UNL d   1       9.222   1.572 -11.723 -0.39 +0.00    +0.012    17.645
TER
ENDMDL
MODEL       70
USER    Run = 70
USER    Cluster Rank = 10
USER    Number of conformations in this cluster = 1
USER  
USER    RMSD from reference structure       = 10.075 A
USER  
USER    Estimated Free Energy of Binding    =   -7.36 kcal/mol  [=(1)+(2)+(3)-(4)]
USER    Estimated Inhibition Constant, Ki   =    4.03 uM (micromolar)  [Temperature = 298.15 K]
USER    
USER    (1) Final Intermolecular Energy     =  -10.34 kcal/mol
USER        vdW + Hbond + desolv Energy     =   -8.49 kcal/mol
USER        Electrostatic Energy            =   -1.85 kcal/mol
USER    (2) Final Total Internal Energy     =   -0.67 kcal/mol
USER    (3) Torsional Free Energy           =   +2.98 kcal/mol
USER    (4) Unbound System's Energy  [=(2)] =   -0.67 kcal/mol
USER    
USER    
USER  
USER    DPF = D:/Protein_go_brrr/autodock/final/mut_D99N/heme_Fe/dock.dpf
USER    NEWDPF move	heme_Fe_opt.pdbqt
USER    NEWDPF about	-0.174000 -0.001000 -0.047000
USER    NEWDPF tran0	-13.207734 1.310990 2.985297
USER    NEWDPF axisangle0	-0.985502 -0.055932 0.160179 -150.996228
USER    NEWDPF quaternion0	-0.954103 -0.054150 0.155075 -0.250412
USER    NEWDPF dihe0	178.36 143.63 -131.11 40.34 119.04 87.96 131.50 -177.69 -155.81 -16.49 
USER  
USER                              x       y       z    vdW   Elec        q     RMS 
ATOM      1  C   UNL d   1     -15.255   1.249   3.107 -0.15 +0.03    +0.064    10.075
ATOM      2  C   UNL d   1     -11.823   4.709   3.931 -0.23 +0.01    +0.064    10.075
ATOM      3  C   UNL d   1      -8.624   1.994   1.593 +0.21 +0.03    +0.064    10.075
ATOM      4  C   UNL d   1     -11.904  -1.414   0.877 -0.20 +0.06    +0.064    10.075
ATOM      5  C   UNL d   1     -14.565   2.437   3.628 -0.14 +0.02    +0.066    10.075
ATOM      6  C   UNL d   1     -15.144   3.393   4.446 -0.10 -0.00    -0.021    10.075
ATOM      7  C   UNL d   1     -14.192   4.355   4.671 -0.13 -0.00    -0.025    10.075
ATOM      8  C   UNL d   1     -13.066   3.949   3.982 -0.16 +0.01    +0.066    10.075
ATOM      9  C   UNL d   1     -14.357   5.581   5.517 -0.14 +0.00    +0.051    10.075
ATOM     10  C   UNL d   1     -10.705   4.312   3.321 -0.31 +0.01    +0.066    10.075
ATOM     11  C   UNL d   1      -9.567   5.112   3.192 -0.46 -0.00    -0.021    10.075
ATOM     12  C   UNL d   1      -8.635   4.358   2.506 -0.44 +0.00    +0.000    10.075
ATOM     13  C   UNL d   1      -9.262   3.128   2.243 -0.18 +0.02    +0.070    10.075
ATOM     14  C   UNL d   1      -9.399   6.550   3.639 -0.46 +0.00    +0.052    10.075
ATOM     15  C   UNL d   1      -9.239   0.826   1.291 -0.34 +0.02    +0.066    10.075
ATOM     16  C   UNL d   1      -8.569  -0.269   0.761 -0.43 -0.01    -0.021    10.075
ATOM     17  C   UNL d   1      -9.514  -1.252   0.550 -0.38 +0.00    +0.000    10.075
ATOM     18  C   UNL d   1     -10.741  -0.731   0.954 -0.28 +0.04    +0.070    10.075
ATOM     19  C   UNL d   1      -7.103  -0.381   0.439 -0.27 +0.01    +0.052    10.075
ATOM     20  C   UNL d   1     -13.203  -0.921   1.349 -0.11 +0.08    +0.066    10.075
ATOM     21  C   UNL d   1     -14.441  -1.530   1.096 -0.10 -0.03    -0.025    10.075
ATOM     22  C   UNL d   1     -15.380  -0.762   1.752 -0.12 -0.02    -0.021    10.075
ATOM     23  C   UNL d   1     -14.684   0.284   2.370 -0.12 +0.05    +0.066    10.075
ATOM     24  C   UNL d   1     -14.735  -2.767   0.279 -0.17 +0.03    +0.051    10.075
ATOM     25  N   UNL d   1     -13.293   2.777   3.356 -0.12 -0.07    -0.248    10.075
ATOM     26  N   UNL d   1     -10.527   3.103   2.731 -0.21 -0.05    -0.248    10.075
ATOM     27  N   UNL d   1     -10.567   0.531   1.450 -0.24 -0.11    -0.248    10.075
ATOM     28  N   UNL d   1     -13.362   0.206   2.083 -0.14 -0.22    -0.248    10.075
ATOM     29 FE   UNL d   1     -11.944   1.653   2.406 -0.06 +0.00    +0.000    10.075
ATOM     30  C   UNL d   1     -16.526   3.384   5.005 -0.05 +0.01    +0.052    10.075
ATOM     31  C   UNL d   1     -17.559   3.530   3.892 -0.08 +0.02    +0.115    10.075
ATOM     32  C   UNL d   1     -17.194   4.668   2.981 -0.17 +0.02    +0.139    10.075
ATOM     33  O   UNL d   1     -16.971   4.470   1.795 -0.07 -0.10    -0.650    10.075
ATOM     34  O   UNL d   1     -17.108   5.919   3.464 +0.03 -0.06    -0.776    10.075
ATOM     35  H   UNL d   1     -17.308   6.076   4.398 +0.03 +0.01    +0.167    10.075
ATOM     36  C   UNL d   1     -16.868  -0.993   1.742 -0.10 +0.02    +0.052    10.075
ATOM     37  C   UNL d   1     -17.225  -2.082   2.743 -0.04 +0.05    +0.115    10.075
ATOM     38  C   UNL d   1     -16.001  -2.573   3.463 -0.00 +0.15    +0.139    10.075
ATOM     39  O   UNL d   1     -15.615  -2.024   4.484 +0.01 -0.82    -0.650    10.075
ATOM     40  O   UNL d   1     -15.317  -3.627   2.983 -0.18 -1.19    -0.776    10.075
ATOM     41  H   UNL d   1     -15.803  -4.356   2.574 +0.01 +0.13    +0.167    10.075
ATOM     42  C   UNL d   1      -7.264   4.824   2.133 -0.48 +0.00    +0.004    10.075
ATOM     43  C   UNL d   1      -7.061   5.558   1.031 -0.53 +0.00    +0.012    10.075
ATOM     44  C   UNL d   1      -9.256  -2.609   0.017 -0.44 +0.00    +0.004    10.075
ATOM     45  C   UNL d   1      -9.052  -3.641   0.841 -0.40 +0.00    +0.012    10.075
TER
ENDMDL
MODEL       16
USER    Run = 16
USER    Cluster Rank = 11
USER    Number of conformations in this cluster = 1
USER  
USER    RMSD from reference structure       = 19.349 A
USER  
USER    Estimated Free Energy of Binding    =   -7.25 kcal/mol  [=(1)+(2)+(3)-(4)]
USER    Estimated Inhibition Constant, Ki   =    4.89 uM (micromolar)  [Temperature = 298.15 K]
USER    
USER    (1) Final Intermolecular Energy     =  -10.23 kcal/mol
USER        vdW + Hbond + desolv Energy     =   -6.54 kcal/mol
USER        Electrostatic Energy            =   -3.69 kcal/mol
USER    (2) Final Total Internal Energy     =   -0.43 kcal/mol
USER    (3) Torsional Free Energy           =   +2.98 kcal/mol
USER    (4) Unbound System's Energy  [=(2)] =   -0.43 kcal/mol
USER    
USER    
USER  
USER    DPF = D:/Protein_go_brrr/autodock/final/mut_D99N/heme_Fe/dock.dpf
USER    NEWDPF move	heme_Fe_opt.pdbqt
USER    NEWDPF about	-0.174000 -0.001000 -0.047000
USER    NEWDPF tran0	-9.957388 -5.029644 -18.319227
USER    NEWDPF axisangle0	0.260773 -0.130887 0.956486 130.228976
USER    NEWDPF quaternion0	0.236561 -0.118734 0.867677 0.420806
USER    NEWDPF dihe0	130.43 163.19 -162.09 -165.38 99.01 -74.17 30.50 69.06 -30.03 -162.40 
USER  
USER                              x       y       z    vdW   Elec        q     RMS 
ATOM      1  C   UNL d   1      -8.668  -3.439 -18.453 -0.23 +0.02    +0.064    19.349
ATOM      2  C   UNL d   1     -12.958  -4.256 -16.139 -0.14 +0.01    +0.064    19.349
ATOM      3  C   UNL d   1     -12.402  -8.963 -16.917 -0.08 +0.01    +0.064    19.349
ATOM      4  C   UNL d   1      -8.301  -8.185 -19.253 -0.16 +0.00    +0.064    19.349
ATOM      5  C   UNL d   1      -9.968  -3.225 -17.803 -0.22 +0.02    +0.066    19.349
ATOM      6  C   UNL d   1     -10.518  -1.985 -17.522 -0.25 -0.01    -0.021    19.349
ATOM      7  C   UNL d   1     -11.707  -2.213 -16.876 -0.23 -0.01    -0.025    19.349
ATOM      8  C   UNL d   1     -11.839  -3.585 -16.787 -0.18 +0.01    +0.066    19.349
ATOM      9  C   UNL d   1     -12.664  -1.166 -16.394 -0.23 +0.02    +0.051    19.349
ATOM     10  C   UNL d   1     -13.138  -5.577 -16.089 -0.12 +0.01    +0.066    19.349
ATOM     11  C   UNL d   1     -14.159  -6.194 -15.362 -0.09 -0.00    -0.021    19.349
ATOM     12  C   UNL d   1     -14.010  -7.552 -15.557 -0.07 +0.00    +0.000    19.349
ATOM     13  C   UNL d   1     -12.890  -7.696 -16.394 -0.10 +0.01    +0.070    19.349
ATOM     14  C   UNL d   1     -15.185  -5.525 -14.470 -0.08 +0.00    +0.052    19.349
ATOM     15  C   UNL d   1     -11.294  -9.111 -17.681 -0.04 +0.00    +0.066    19.349
ATOM     16  C   UNL d   1     -10.918 -10.324 -18.243 -0.07 -0.00    -0.021    19.349
ATOM     17  C   UNL d   1      -9.733 -10.103 -18.915 -0.09 +0.00    +0.000    19.349
ATOM     18  C   UNL d   1      -9.412  -8.759 -18.742 -0.10 +0.00    +0.070    19.349
ATOM     19  C   UNL d   1     -11.628 -11.647 -18.135 -0.02 +0.00    +0.052    19.349
ATOM     20  C   UNL d   1      -7.961  -6.761 -19.144 -0.16 +0.00    +0.066    19.349
ATOM     21  C   UNL d   1      -6.727  -6.194 -19.490 -0.21 -0.00    -0.025    19.349
ATOM     22  C   UNL d   1      -6.858  -4.839 -19.267 -0.20 -0.01    -0.021    19.349
ATOM     23  C   UNL d   1      -8.158  -4.635 -18.789 -0.18 +0.01    +0.066    19.349
ATOM     24  C   UNL d   1      -5.483  -6.882 -20.002 -0.14 +0.00    +0.051    19.349
ATOM     25  N   UNL d   1     -10.784  -4.198 -17.360 -0.16 -0.04    -0.248    19.349
ATOM     26  N   UNL d   1     -12.353  -6.493 -16.712 -0.11 -0.03    -0.248    19.349
ATOM     27  N   UNL d   1     -10.393  -8.138 -18.020 -0.04 -0.00    -0.248    19.349
ATOM     28  N   UNL d   1      -8.811  -5.817 -18.673 -0.07 -0.00    -0.248    19.349
ATOM     29 FE   UNL d   1     -10.581  -6.156 -17.693 -0.04 -0.00    +0.000    19.349
ATOM     30  C   UNL d   1      -9.953  -0.650 -17.869 -0.09 +0.03    +0.052    19.349
ATOM     31  C   UNL d   1      -9.773  -0.514 -19.377 -0.18 +0.08    +0.115    19.349
ATOM     32  C   UNL d   1      -8.612   0.389 -19.689 -0.06 +0.19    +0.139    19.349
ATOM     33  O   UNL d   1      -7.519  -0.079 -19.976 -0.46 -1.07    -0.650    19.349
ATOM     34  O   UNL d   1      -8.766   1.723 -19.655 -0.06 -1.30    -0.776    19.349
ATOM     35  H   UNL d   1      -9.511   2.122 -20.126 +0.02 +0.14    +0.167    19.349
ATOM     36  C   UNL d   1      -5.777  -3.807 -19.456 -0.22 +0.03    +0.052    19.349
ATOM     37  C   UNL d   1      -4.653  -4.054 -18.460 -0.33 +0.08    +0.115    19.349
ATOM     38  C   UNL d   1      -4.588  -2.954 -17.438 -0.40 +0.17    +0.139    19.349
ATOM     39  O   UNL d   1      -4.145  -1.854 -17.731 -0.38 -1.41    -0.650    19.349
ATOM     40  O   UNL d   1      -5.017  -3.178 -16.183 -0.47 -0.81    -0.776    19.349
ATOM     41  H   UNL d   1      -5.584  -3.943 -16.010 +0.08 +0.15    +0.167    19.349
ATOM     42  C   UNL d   1     -14.886  -8.604 -14.953 -0.03 +0.00    +0.004    19.349
ATOM     43  C   UNL d   1     -14.401  -9.473 -14.056 -0.03 +0.00    +0.012    19.349
ATOM     44  C   UNL d   1      -8.969 -11.108 -19.688 -0.04 +0.00    +0.004    19.349
ATOM     45  C   UNL d   1      -7.778 -11.541 -19.260 -0.06 +0.00    +0.012    19.349
TER
ENDMDL
MODEL       96
USER    Run = 96
USER    Cluster Rank = 12
USER    Number of conformations in this cluster = 4
USER  
USER    RMSD from reference structure       = 16.573 A
USER  
USER    Estimated Free Energy of Binding    =   -7.23 kcal/mol  [=(1)+(2)+(3)-(4)]
USER    Estimated Inhibition Constant, Ki   =    5.03 uM (micromolar)  [Temperature = 298.15 K]
USER    
USER    (1) Final Intermolecular Energy     =  -10.21 kcal/mol
USER        vdW + Hbond + desolv Energy     =   -7.81 kcal/mol
USER        Electrostatic Energy            =   -2.40 kcal/mol
USER    (2) Final Total Internal Energy     =   -0.43 kcal/mol
USER    (3) Torsional Free Energy           =   +2.98 kcal/mol
USER    (4) Unbound System's Energy  [=(2)] =   -0.43 kcal/mol
USER    
USER    
USER  
USER    DPF = D:/Protein_go_brrr/autodock/final/mut_D99N/heme_Fe/dock.dpf
USER    NEWDPF move	heme_Fe_opt.pdbqt
USER    NEWDPF about	-0.174000 -0.001000 -0.047000
USER    NEWDPF tran0	-18.300488 10.164270 1.954906
USER    NEWDPF axisangle0	0.966637 0.170547 0.191118 -153.299607
USER    NEWDPF quaternion0	0.940516 0.165938 0.185953 -0.230902
USER    NEWDPF dihe0	84.99 -127.49 -167.72 -138.41 -17.19 -116.29 69.79 -33.91 -144.45 35.04 
USER  
USER                              x       y       z    vdW   Elec        q     RMS 
ATOM      1  C   UNL d   1     -19.822   9.227   0.946 -0.23 +0.01    +0.064    16.573
ATOM      2  C   UNL d   1     -17.459  13.540   0.454 -0.04 -0.00    +0.064    16.573
ATOM      3  C   UNL d   1     -14.025  11.915   3.393 -0.24 -0.01    +0.064    16.573
ATOM      4  C   UNL d   1     -16.349   7.773   3.967 -0.06 -0.00    +0.064    16.573
ATOM      5  C   UNL d   1     -19.517  10.623   0.601 -0.19 +0.00    +0.066    16.573
ATOM      6  C   UNL d   1     -20.342  11.452  -0.142 -0.15 -0.00    -0.021    16.573
ATOM      7  C   UNL d   1     -19.683  12.648  -0.281 -0.14 -0.00    -0.025    16.573
ATOM      8  C   UNL d   1     -18.480  12.503   0.383 -0.17 -0.00    +0.066    16.573
ATOM      9  C   UNL d   1     -20.196  13.860  -0.996 -0.09 +0.00    +0.051    16.573
ATOM     10  C   UNL d   1     -16.316  13.447   1.136 -0.12 -0.01    +0.066    16.573
ATOM     11  C   UNL d   1     -15.306  14.411   1.092 -0.14 +0.00    -0.021    16.573
ATOM     12  C   UNL d   1     -14.297  13.958   1.918 -0.18 -0.00    +0.000    16.573
ATOM     13  C   UNL d   1     -14.744  12.725   2.422 -0.18 -0.01    +0.070    16.573
ATOM     14  C   UNL d   1     -15.274  15.670   0.249 -0.12 -0.00    +0.052    16.573
ATOM     15  C   UNL d   1     -14.427  10.703   3.843 -0.20 -0.01    +0.066    16.573
ATOM     16  C   UNL d   1     -13.763  10.007   4.844 -0.24 +0.00    -0.021    16.573
ATOM     17  C   UNL d   1     -14.430   8.810   5.009 -0.18 -0.00    +0.000    16.573
ATOM     18  C   UNL d   1     -15.484   8.803   4.099 -0.13 -0.00    +0.070    16.573
ATOM     19  C   UNL d   1     -12.535  10.435   5.601 -0.33 -0.01    +0.052    16.573
ATOM     20  C   UNL d   1     -17.506   7.756   3.064 -0.19 +0.00    +0.066    16.573
ATOM     21  C   UNL d   1     -18.288   6.629   2.771 -0.20 -0.00    -0.025    16.573
ATOM     22  C   UNL d   1     -19.279   7.069   1.918 -0.22 -0.00    -0.021    16.573
ATOM     23  C   UNL d   1     -19.061   8.438   1.721 -0.20 +0.00    +0.066    16.573
ATOM     24  C   UNL d   1     -18.117   5.209   3.259 -0.15 +0.01    +0.051    16.573
ATOM     25  N   UNL d   1     -18.387  11.273   0.927 -0.10 +0.04    -0.248    16.573
ATOM     26  N   UNL d   1     -15.971  12.408   1.939 -0.13 +0.04    -0.248    16.573
ATOM     27  N   UNL d   1     -15.510   9.984   3.412 -0.14 +0.03    -0.248    16.573
ATOM     28  N   UNL d   1     -17.952   8.841   2.387 -0.14 +0.02    -0.248    16.573
ATOM     29 FE   UNL d   1     -16.961  10.623   2.164 -0.05 -0.00    +0.000    16.573
ATOM     30  C   UNL d   1     -21.696  11.133  -0.675 -0.10 +0.01    +0.052    16.573
ATOM     31  C   UNL d   1     -21.657   9.870  -1.530 -0.17 +0.09    +0.115    16.573
ATOM     32  C   UNL d   1     -21.871  10.209  -2.979 -0.16 +0.11    +0.139    16.573
ATOM     33  O   UNL d   1     -22.349  11.287  -3.303 +0.01 -0.24    -0.650    16.573
ATOM     34  O   UNL d   1     -21.537   9.326  -3.935 -0.50 -1.15    -0.776    16.573
ATOM     35  H   UNL d   1     -20.669   9.396  -4.357 -0.31 +0.08    +0.167    16.573
ATOM     36  C   UNL d   1     -20.346   6.210   1.292 -0.19 +0.02    +0.052    16.573
ATOM     37  C   UNL d   1     -21.705   6.872   1.464 -0.12 +0.05    +0.115    16.573
ATOM     38  C   UNL d   1     -22.585   6.612   0.275 -0.05 +0.13    +0.139    16.573
ATOM     39  O   UNL d   1     -22.966   7.531  -0.434 -0.53 -1.07    -0.650    16.573
ATOM     40  O   UNL d   1     -22.966   5.355  -0.017 -0.03 -0.60    -0.776    16.573
ATOM     41  H   UNL d   1     -23.375   4.815   0.675 +0.01 +0.07    +0.167    16.573
ATOM     42  C   UNL d   1     -13.007  14.673   2.165 -0.19 -0.00    +0.004    16.573
ATOM     43  C   UNL d   1     -11.834  14.103   1.862 -0.35 +0.00    +0.012    16.573
ATOM     44  C   UNL d   1     -14.092   7.752   5.987 -0.21 -0.00    +0.004    16.573
ATOM     45  C   UNL d   1     -13.163   6.831   5.707 -0.27 -0.00    +0.012    16.573
TER
ENDMDL
MODEL        6
USER    Run = 6
USER    Cluster Rank = 13
USER    Number of conformations in this cluster = 1
USER  
USER    RMSD from reference structure       = 9.426 A
USER  
USER    Estimated Free Energy of Binding    =   -7.10 kcal/mol  [=(1)+(2)+(3)-(4)]
USER    Estimated Inhibition Constant, Ki   =    6.28 uM (micromolar)  [Temperature = 298.15 K]
USER    
USER    (1) Final Intermolecular Energy     =  -10.08 kcal/mol
USER        vdW + Hbond + desolv Energy     =   -8.28 kcal/mol
USER        Electrostatic Energy            =   -1.80 kcal/mol
USER    (2) Final Total Internal Energy     =   -1.50 kcal/mol
USER    (3) Torsional Free Energy           =   +2.98 kcal/mol
USER    (4) Unbound System's Energy  [=(2)] =   -1.50 kcal/mol
USER    
USER    
USER  
USER    DPF = D:/Protein_go_brrr/autodock/final/mut_D99N/heme_Fe/dock.dpf
USER    NEWDPF move	heme_Fe_opt.pdbqt
USER    NEWDPF about	-0.174000 -0.001000 -0.047000
USER    NEWDPF tran0	-12.691631 -0.304238 1.142474
USER    NEWDPF axisangle0	-0.339512 -0.291407 0.894323 46.809547
USER    NEWDPF quaternion0	-0.134862 -0.115754 0.355247 0.917722
USER    NEWDPF dihe0	96.04 76.01 -133.90 24.22 -88.48 168.63 -153.25 120.99 170.58 -150.32 
USER  
USER                              x       y       z    vdW   Elec        q     RMS 
ATOM      1  C   UNL d   1     -14.098   0.708   2.242 -0.13 +0.04    +0.064     9.426
ATOM      2  C   UNL d   1     -13.760  -3.860   0.385 -0.12 +0.05    +0.064     9.426
ATOM      3  C   UNL d   1      -9.063  -3.149  -0.327 -0.17 +0.01    +0.064     9.426
ATOM      4  C   UNL d   1      -9.389   1.312   1.370 -0.31 +0.02    +0.064     9.426
ATOM      5  C   UNL d   1     -14.455  -0.613   1.708 -0.05 +0.06    +0.066     9.426
ATOM      6  C   UNL d   1     -15.743  -1.117   1.640 -0.13 -0.01    -0.021     9.426
ATOM      7  C   UNL d   1     -15.648  -2.387   1.127 -0.12 -0.02    -0.025     9.426
ATOM      8  C   UNL d   1     -14.303  -2.610   0.902 -0.06 +0.07    +0.066     9.426
ATOM      9  C   UNL d   1     -16.790  -3.318   0.856 -0.05 +0.02    +0.051     9.426
ATOM     10  C   UNL d   1     -12.474  -4.081   0.104 -0.13 +0.04    +0.066     9.426
ATOM     11  C   UNL d   1     -11.968  -5.324  -0.281 -0.14 -0.01    -0.021     9.426
ATOM     12  C   UNL d   1     -10.612  -5.150  -0.476 -0.25 +0.00    +0.000     9.426
ATOM     13  C   UNL d   1     -10.358  -3.797  -0.189 -0.28 +0.02    +0.070     9.426
ATOM     14  C   UNL d   1     -12.726  -6.631  -0.392 -0.07 +0.00    +0.052     9.426
ATOM     15  C   UNL d   1      -8.803  -1.861  -0.002 -0.34 +0.01    +0.066     9.426
ATOM     16  C   UNL d   1      -7.578  -1.251  -0.241 -0.43 -0.00    -0.021     9.426
ATOM     17  C   UNL d   1      -7.669   0.035   0.250 -0.44 +0.00    +0.000     9.426
ATOM     18  C   UNL d   1      -8.947   0.178   0.783 -0.36 +0.02    +0.070     9.426
ATOM     19  C   UNL d   1      -6.360  -1.858  -0.884 -0.47 +0.00    +0.052     9.426
ATOM     20  C   UNL d   1     -10.747   1.520   1.886 -0.30 +0.02    +0.066     9.426
ATOM     21  C   UNL d   1     -11.158   2.607   2.670 -0.28 -0.01    -0.025     9.426
ATOM     22  C   UNL d   1     -12.506   2.421   2.896 -0.25 -0.01    -0.021     9.426
ATOM     23  C   UNL d   1     -12.861   1.231   2.251 -0.24 +0.04    +0.066     9.426
ATOM     24  C   UNL d   1     -10.333   3.762   3.188 -0.37 +0.01    +0.051     9.426
ATOM     25  N   UNL d   1     -13.581  -1.526   1.247 -0.01 -0.34    -0.248     9.426
ATOM     26  N   UNL d   1     -11.491  -3.147   0.174 -0.13 -0.15    -0.248     9.426
ATOM     27  N   UNL d   1      -9.660  -0.972   0.590 -0.23 -0.09    -0.248     9.426
ATOM     28  N   UNL d   1     -11.775   0.663   1.674 -0.22 -0.14    -0.248     9.426
ATOM     29 FE   UNL d   1     -11.632  -1.241   0.924 -0.07 +0.00    +0.000     9.426
ATOM     30  C   UNL d   1     -17.005  -0.421   2.021 -0.10 +0.02    +0.052     9.426
ATOM     31  C   UNL d   1     -17.471  -0.868   3.403 -0.03 +0.04    +0.115     9.426
ATOM     32  C   UNL d   1     -16.302  -1.321   4.232 -0.05 +0.10    +0.139     9.426
ATOM     33  O   UNL d   1     -15.926  -2.485   4.197 -0.02 -0.73    -0.650     9.426
ATOM     34  O   UNL d   1     -15.656  -0.448   5.023 +0.02 -0.55    -0.776     9.426
ATOM     35  H   UNL d   1     -14.964   0.110   4.640 +0.02 +0.13    +0.167     9.426
ATOM     36  C   UNL d   1     -13.390   3.313   3.728 -0.20 +0.01    +0.052     9.426
ATOM     37  C   UNL d   1     -12.777   3.500   5.108 -0.17 +0.02    +0.115     9.426
ATOM     38  C   UNL d   1     -12.624   2.181   5.813 -0.16 +0.05    +0.139     9.426
ATOM     39  O   UNL d   1     -11.966   2.094   6.839 -0.01 -0.19    -0.650     9.426
ATOM     40  O   UNL d   1     -13.211   1.080   5.311 +0.02 -0.49    -0.776     9.426
ATOM     41  H   UNL d   1     -14.012   0.741   5.735 +0.03 +0.10    +0.167     9.426
ATOM     42  C   UNL d   1      -9.661  -6.228  -0.889 -0.18 -0.00    +0.004     9.426
ATOM     43  C   UNL d   1      -9.092  -7.030   0.021 -0.34 -0.00    +0.012     9.426
ATOM     44  C   UNL d   1      -6.607   1.066   0.195 -0.43 +0.00    +0.004     9.426
ATOM     45  C   UNL d   1      -6.366   1.740  -0.934 -0.52 +0.00    +0.012     9.426
TER
ENDMDL
MODEL       59
USER    Run = 59
USER    Cluster Rank = 14
USER    Number of conformations in this cluster = 2
USER  
USER    RMSD from reference structure       = 19.247 A
USER  
USER    Estimated Free Energy of Binding    =   -6.97 kcal/mol  [=(1)+(2)+(3)-(4)]
USER    Estimated Inhibition Constant, Ki   =    7.84 uM (micromolar)  [Temperature = 298.15 K]
USER    
USER    (1) Final Intermolecular Energy     =   -9.95 kcal/mol
USER        vdW + Hbond + desolv Energy     =   -6.49 kcal/mol
USER        Electrostatic Energy            =   -3.46 kcal/mol
USER    (2) Final Total Internal Energy     =   -1.48 kcal/mol
USER    (3) Torsional Free Energy           =   +2.98 kcal/mol
USER    (4) Unbound System's Energy  [=(2)] =   -1.48 kcal/mol
USER    
USER    
USER  
USER    DPF = D:/Protein_go_brrr/autodock/final/mut_D99N/heme_Fe/dock.dpf
USER    NEWDPF move	heme_Fe_opt.pdbqt
USER    NEWDPF about	-0.174000 -0.001000 -0.047000
USER    NEWDPF tran0	3.390501 -0.649532 -19.044724
USER    NEWDPF axisangle0	0.940188 -0.331378 -0.078968 109.240368
USER    NEWDPF quaternion0	0.766565 -0.270183 -0.064385 0.578994
USER    NEWDPF dihe0	-12.21 134.16 54.65 43.52 -178.55 -173.72 58.54 -46.59 -5.93 -41.88 
USER  
USER                              x       y       z    vdW   Elec        q     RMS 
ATOM      1  C   UNL d   1       1.858   0.525 -18.350 +0.07 +0.03    +0.064    19.247
ATOM      2  C   UNL d   1       6.530  -0.284 -16.955 -0.19 +0.02    +0.064    19.247
ATOM      3  C   UNL d   1       7.371  -2.344 -21.211 -0.15 +0.01    +0.064    19.247
ATOM      4  C   UNL d   1       2.826  -1.666 -22.541 -0.09 +0.01    +0.064    19.247
ATOM      5  C   UNL d   1       3.073   0.413 -17.531 -0.13 +0.02    +0.066    19.247
ATOM      6  C   UNL d   1       3.170   0.801 -16.204 -0.21 -0.01    -0.021    19.247
ATOM      7  C   UNL d   1       4.469   0.579 -15.819 -0.21 -0.01    -0.025    19.247
ATOM      8  C   UNL d   1       5.115   0.064 -16.926 -0.18 +0.02    +0.066    19.247
ATOM      9  C   UNL d   1       5.041   0.832 -14.458 -0.32 +0.01    +0.051    19.247
ATOM     10  C   UNL d   1       7.164  -0.836 -17.991 -0.19 +0.02    +0.066    19.247
ATOM     11  C   UNL d   1       8.544  -1.052 -18.029 -0.18 -0.01    -0.021    19.247
ATOM     12  C   UNL d   1       8.814  -1.630 -19.254 -0.17 +0.00    +0.000    19.247
ATOM     13  C   UNL d   1       7.575  -1.730 -19.909 -0.16 +0.01    +0.070    19.247
ATOM     14  C   UNL d   1       9.564  -0.664 -16.979 -0.04 +0.03    +0.052    19.247
ATOM     15  C   UNL d   1       6.189  -2.396 -21.868 -0.11 +0.01    +0.066    19.247
ATOM     16  C   UNL d   1       6.015  -3.080 -23.065 -0.11 -0.00    -0.021    19.247
ATOM     17  C   UNL d   1       4.706  -2.882 -23.452 -0.11 +0.00    +0.000    19.247
ATOM     18  C   UNL d   1       4.111  -2.078 -22.483 -0.10 +0.01    +0.070    19.247
ATOM     19  C   UNL d   1       7.045  -3.867 -23.830 -0.12 +0.00    +0.052    19.247
ATOM     20  C   UNL d   1       2.150  -0.871 -21.509 -0.10 +0.02    +0.066    19.247
ATOM     21  C   UNL d   1       0.890  -0.270 -21.646 -0.09 -0.01    -0.025    19.247
ATOM     22  C   UNL d   1       0.628   0.338 -20.435 -0.13 -0.01    -0.021    19.247
ATOM     23  C   UNL d   1       1.735   0.091 -19.614 -0.13 +0.03    +0.066    19.247
ATOM     24  C   UNL d   1      -0.025  -0.260 -22.849 -0.04 +0.02    +0.051    19.247
ATOM     25  N   UNL d   1       4.261  -0.044 -17.963 -0.11 -0.07    -0.248    19.247
ATOM     26  N   UNL d   1       6.570  -1.238 -19.143 -0.11 -0.06    -0.248    19.247
ATOM     27  N   UNL d   1       5.009  -1.815 -21.486 -0.10 -0.04    -0.248    19.247
ATOM     28  N   UNL d   1       2.679  -0.608 -20.290 -0.10 -0.08    -0.248    19.247
ATOM     29 FE   UNL d   1       4.624  -0.923 -19.718 -0.04 +0.00    +0.000    19.247
ATOM     30  C   UNL d   1       2.081   1.334 -15.338 -0.31 +0.02    +0.052    19.247
ATOM     31  C   UNL d   1       1.257   0.197 -14.743 -0.41 +0.08    +0.115    19.247
ATOM     32  C   UNL d   1      -0.187   0.330 -15.140 -0.35 +0.18    +0.139    19.247
ATOM     33  O   UNL d   1      -1.019  -0.473 -14.742 -0.65 -1.06    -0.650    19.247
ATOM     34  O   UNL d   1      -0.577   1.338 -15.939 -0.23 -1.00    -0.776    19.247
ATOM     35  H   UNL d   1      -1.463   1.312 -16.328 +0.06 +0.27    +0.167    19.247
ATOM     36  C   UNL d   1      -0.596   1.151 -20.106 -0.11 +0.05    +0.052    19.247
ATOM     37  C   UNL d   1      -1.847   0.328 -20.375 -0.11 +0.14    +0.115    19.247
ATOM     38  C   UNL d   1      -2.804   0.409 -19.221 +0.04 +0.27    +0.139    19.247
ATOM     39  O   UNL d   1      -3.817  -0.274 -19.199 -0.42 -1.28    -0.650    19.247
ATOM     40  O   UNL d   1      -2.552   1.245 -18.197 +0.04 -1.42    -0.776    19.247
ATOM     41  H   UNL d   1      -1.663   1.267 -17.817 +0.04 +0.31    +0.167    19.247
ATOM     42  C   UNL d   1      10.175  -2.026 -19.731 -0.11 +0.00    +0.004    19.247
ATOM     43  C   UNL d   1      10.566  -3.307 -19.715 -0.18 +0.00    +0.012    19.247
ATOM     44  C   UNL d   1       4.060  -3.444 -24.661 -0.07 +0.00    +0.004    19.247
ATOM     45  C   UNL d   1       3.322  -4.556 -24.588 -0.08 +0.00    +0.012    19.247
TER
ENDMDL
MODEL       80
USER    Run = 80
USER    Cluster Rank = 15
USER    Number of conformations in this cluster = 3
USER  
USER    RMSD from reference structure       = 11.203 A
USER  
USER    Estimated Free Energy of Binding    =   -6.92 kcal/mol  [=(1)+(2)+(3)-(4)]
USER    Estimated Inhibition Constant, Ki   =    8.49 uM (micromolar)  [Temperature = 298.15 K]
USER    
USER    (1) Final Intermolecular Energy     =   -9.90 kcal/mol
USER        vdW + Hbond + desolv Energy     =   -7.03 kcal/mol
USER        Electrostatic Energy            =   -2.87 kcal/mol
USER    (2) Final Total Internal Energy     =   -1.30 kcal/mol
USER    (3) Torsional Free Energy           =   +2.98 kcal/mol
USER    (4) Unbound System's Energy  [=(2)] =   -1.30 kcal/mol
USER    
USER    
USER  
USER    DPF = D:/Protein_go_brrr/autodock/final/mut_D99N/heme_Fe/dock.dpf
USER    NEWDPF move	heme_Fe_opt.pdbqt
USER    NEWDPF about	-0.174000 -0.001000 -0.047000
USER    NEWDPF tran0	-13.974127 -4.461591 0.772510
USER    NEWDPF axisangle0	-0.913693 0.098544 0.394276 126.993923
USER    NEWDPF quaternion0	-0.817674 0.088188 0.352842 0.446245
USER    NEWDPF dihe0	99.33 147.73 54.50 27.18 73.29 -97.08 -112.13 -150.28 -60.79 -27.42 
USER  
USER                              x       y       z    vdW   Elec        q     RMS 
ATOM      1  C   UNL d   1     -15.790  -3.873   1.525 -0.08 +0.04    +0.064    11.203
ATOM      2  C   UNL d   1     -13.544  -3.471  -2.860 -0.27 +0.01    +0.064    11.203
ATOM      3  C   UNL d   1     -10.373  -6.796  -1.462 -0.22 -0.02    +0.064    11.203
ATOM      4  C   UNL d   1     -12.468  -7.124   2.826 -0.11 +0.02    +0.064    11.203
ATOM      5  C   UNL d   1     -15.402  -3.390   0.192 -0.09 +0.03    +0.066    11.203
ATOM      6  C   UNL d   1     -16.022  -2.353  -0.484 -0.13 -0.01    -0.021    11.203
ATOM      7  C   UNL d   1     -15.400  -2.244  -1.703 -0.23 -0.01    -0.025    11.203
ATOM      8  C   UNL d   1     -14.423  -3.221  -1.724 -0.18 +0.02    +0.066    11.203
ATOM      9  C   UNL d   1     -15.720  -1.244  -2.772 -0.37 +0.00    +0.051    11.203
ATOM     10  C   UNL d   1     -12.557  -4.368  -2.884 -0.21 +0.01    +0.066    11.203
ATOM     11  C   UNL d   1     -11.807  -4.664  -4.025 -0.31 +0.00    -0.021    11.203
ATOM     12  C   UNL d   1     -10.896  -5.632  -3.652 -0.27 -0.00    +0.000    11.203
ATOM     13  C   UNL d   1     -11.146  -5.885  -2.292 -0.16 -0.01    +0.070    11.203
ATOM     14  C   UNL d   1     -11.994  -4.101  -5.419 -0.48 +0.00    +0.052    11.203
ATOM     15  C   UNL d   1     -10.641  -7.082  -0.167 -0.16 -0.01    +0.066    11.203
ATOM     16  C   UNL d   1      -9.821  -7.880   0.620 -0.22 +0.01    -0.021    11.203
ATOM     17  C   UNL d   1     -10.425  -7.979   1.857 -0.15 +0.00    +0.000    11.203
ATOM     18  C   UNL d   1     -11.604  -7.241   1.793 -0.11 +0.01    +0.070    11.203
ATOM     19  C   UNL d   1      -8.531  -8.546   0.221 -0.23 -0.03    +0.052    11.203
ATOM     20  C   UNL d   1     -13.687  -6.306   2.816 -0.08 +0.04    +0.066    11.203
ATOM     21  C   UNL d   1     -14.688  -6.333   3.798 -0.07 -0.01    -0.025    11.203
ATOM     22  C   UNL d   1     -15.618  -5.390   3.413 -0.06 -0.01    -0.021    11.203
ATOM     23  C   UNL d   1     -15.154  -4.832   2.216 -0.06 +0.05    +0.066    11.203
ATOM     24  C   UNL d   1     -14.775  -7.199   5.033 -0.03 +0.02    +0.051    11.203
ATOM     25  N   UNL d   1     -14.421  -3.910  -0.565 -0.06 -0.09    -0.248    11.203
ATOM     26  N   UNL d   1     -12.164  -5.121  -1.826 -0.07 -0.02    -0.248    11.203
ATOM     27  N   UNL d   1     -11.717  -6.653   0.564 -0.06 -0.04    -0.248    11.203
ATOM     28  N   UNL d   1     -13.998  -5.427   1.833 -0.07 -0.19    -0.248    11.203
ATOM     29 FE   UNL d   1     -13.081  -5.275   0.005 -0.02 +0.00    +0.000    11.203
ATOM     30  C   UNL d   1     -17.134  -1.492   0.009 -0.12 +0.01    +0.052    11.203
ATOM     31  C   UNL d   1     -17.093  -1.373   1.528 -0.08 +0.04    +0.115    11.203
ATOM     32  C   UNL d   1     -15.883  -0.592   1.962 -0.12 +0.08    +0.139    11.203
ATOM     33  O   UNL d   1     -15.831   0.618   1.799 +0.03 -0.26    -0.650    11.203
ATOM     34  O   UNL d   1     -14.844  -1.222   2.536 -0.11 -1.19    -0.776    11.203
ATOM     35  H   UNL d   1     -14.891  -1.446   3.476 +0.01 +0.32    +0.167    11.203
ATOM     36  C   UNL d   1     -16.904  -5.079   4.133 -0.02 +0.02    +0.052    11.203
ATOM     37  C   UNL d   1     -16.599  -4.389   5.454 -0.03 +0.06    +0.115    11.203
ATOM     38  C   UNL d   1     -15.316  -3.612   5.373 -0.01 +0.16    +0.139    11.203
ATOM     39  O   UNL d   1     -14.268  -4.091   5.780 -0.50 -0.96    -0.650    11.203
ATOM     40  O   UNL d   1     -15.314  -2.373   4.851 -0.04 -1.16    -0.776    11.203
ATOM     41  H   UNL d   1     -15.936  -2.160   4.141 +0.01 +0.18    +0.167    11.203
ATOM     42  C   UNL d   1      -9.890  -6.258  -4.566 -0.45 -0.00    +0.004    11.203
ATOM     43  C   UNL d   1      -8.604  -5.885  -4.533 -0.57 -0.00    +0.012    11.203
ATOM     44  C   UNL d   1      -9.897  -8.714   3.028 -0.17 +0.00    +0.004    11.203
ATOM     45  C   UNL d   1      -8.963  -8.170   3.815 -0.31 +0.00    +0.012    11.203
TER
ENDMDL
MODEL       27
USER    Run = 27
USER    Cluster Rank = 16
USER    Number of conformations in this cluster = 1
USER  
USER    RMSD from reference structure       = 15.727 A
USER  
USER    Estimated Free Energy of Binding    =   -6.66 kcal/mol  [=(1)+(2)+(3)-(4)]
USER    Estimated Inhibition Constant, Ki   =   13.07 uM (micromolar)  [Temperature = 298.15 K]
USER    
USER    (1) Final Intermolecular Energy     =   -9.65 kcal/mol
USER        vdW + Hbond + desolv Energy     =   -5.87 kcal/mol
USER        Electrostatic Energy            =   -3.77 kcal/mol
USER    (2) Final Total Internal Energy     =   -0.58 kcal/mol
USER    (3) Torsional Free Energy           =   +2.98 kcal/mol
USER    (4) Unbound System's Energy  [=(2)] =   -0.58 kcal/mol
USER    
USER    
USER  
USER    DPF = D:/Protein_go_brrr/autodock/final/mut_D99N/heme_Fe/dock.dpf
USER    NEWDPF move	heme_Fe_opt.pdbqt
USER    NEWDPF about	-0.174000 -0.001000 -0.047000
USER    NEWDPF tran0	-0.035028 4.464623 -15.781289
USER    NEWDPF axisangle0	-0.964393 -0.151740 -0.216611 -155.716920
USER    NEWDPF quaternion0	-0.942821 -0.148345 -0.211766 -0.210327
USER    NEWDPF dihe0	127.16 -18.17 57.71 49.03 -112.76 -51.02 39.55 45.21 -17.35 4.63 
USER  
USER                              x       y       z    vdW   Elec        q     RMS 
ATOM      1  C   UNL d   1      -1.594   4.383 -17.113 -0.11 +0.03    +0.064    15.727
ATOM      2  C   UNL d   1       0.278   7.874 -14.158 -0.09 -0.00    +0.064    15.727
ATOM      3  C   UNL d   1       4.226   5.195 -13.608 -0.12 +0.01    +0.064    15.727
ATOM      4  C   UNL d   1       2.389   1.756 -16.381 -0.17 +0.03    +0.064    15.727
ATOM      5  C   UNL d   1      -1.468   5.576 -16.266 -0.10 +0.02    +0.066    15.727
ATOM      6  C   UNL d   1      -2.460   6.525 -16.084 -0.12 -0.00    -0.021    15.727
ATOM      7  C   UNL d   1      -1.938   7.496 -15.266 -0.13 -0.00    -0.025    15.727
ATOM      8  C   UNL d   1      -0.646   7.102 -14.979 -0.09 +0.00    +0.066    15.727
ATOM      9  C   UNL d   1      -2.654   8.718 -14.778 -0.14 +0.00    +0.051    15.727
ATOM     10  C   UNL d   1       1.510   7.489 -13.820 -0.10 +0.00    +0.066    15.727
ATOM     11  C   UNL d   1       2.413   8.301 -13.127 -0.06 -0.00    -0.021    15.727
ATOM     12  C   UNL d   1       3.565   7.557 -12.971 -0.06 +0.00    +0.000    15.727
ATOM     13  C   UNL d   1       3.307   6.321 -13.589 -0.10 +0.01    +0.070    15.727
ATOM     14  C   UNL d   1       2.211   9.739 -12.696 -0.04 -0.00    +0.052    15.727
ATOM     15  C   UNL d   1       4.002   4.022 -14.246 -0.12 +0.01    +0.066    15.727
ATOM     16  C   UNL d   1       4.862   2.934 -14.157 -0.14 -0.00    -0.021    15.727
ATOM     17  C   UNL d   1       4.336   1.942 -14.959 -0.17 +0.00    +0.000    15.727
ATOM     18  C   UNL d   1       3.168   2.451 -15.522 -0.13 +0.02    +0.070    15.727
ATOM     19  C   UNL d   1       6.141   2.836 -13.371 -0.19 +0.01    +0.052    15.727
ATOM     20  C   UNL d   1       1.122   2.235 -16.945 -0.13 +0.04    +0.066    15.727
ATOM     21  C   UNL d   1       0.411   1.615 -17.982 -0.14 -0.02    -0.025    15.727
ATOM     22  C   UNL d   1      -0.727   2.373 -18.166 -0.10 -0.02    -0.021    15.727
ATOM     23  C   UNL d   1      -0.663   3.424 -17.243 -0.09 +0.04    +0.066    15.727
ATOM     24  C   UNL d   1       0.777   0.377 -18.768 +0.02 +0.05    +0.051    15.727
ATOM     25  N   UNL d   1      -0.366   5.929 -15.581 -0.01 -0.03    -0.248    15.727
ATOM     26  N   UNL d   1       2.057   6.283 -14.114 -0.02 -0.05    -0.248    15.727
ATOM     27  N   UNL d   1       2.939   3.713 -15.051 -0.06 -0.07    -0.248    15.727
ATOM     28  N   UNL d   1       0.489   3.360 -16.532 -0.06 -0.12    -0.248    15.727
ATOM     29 FE   UNL d   1       1.274   4.820 -15.324 -0.04 +0.00    +0.000    15.727
ATOM     30  C   UNL d   1      -3.843   6.502 -16.640 -0.15 +0.01    +0.052    15.727
ATOM     31  C   UNL d   1      -4.689   5.444 -15.941 -0.27 +0.05    +0.115    15.727
ATOM     32  C   UNL d   1      -5.574   4.739 -16.932 -0.23 +0.14    +0.139    15.727
ATOM     33  O   UNL d   1      -6.789   4.873 -16.888 -0.38 -0.70    -0.650    15.727
ATOM     34  O   UNL d   1      -5.035   3.951 -17.877 -0.29 -1.54    -0.776    15.727
ATOM     35  H   UNL d   1      -4.336   4.308 -18.443 +0.04 +0.20    +0.167    15.727
ATOM     36  C   UNL d   1      -1.790   2.127 -19.204 -0.09 +0.05    +0.052    15.727
ATOM     37  C   UNL d   1      -2.993   1.457 -18.558 -0.14 +0.19    +0.115    15.727
ATOM     38  C   UNL d   1      -3.498   0.323 -19.405 -0.13 +0.25    +0.139    15.727
ATOM     39  O   UNL d   1      -3.732   0.487 -20.593 -0.01 -0.73    -0.650    15.727
ATOM     40  O   UNL d   1      -3.699  -0.888 -18.855 -0.42 -1.91    -0.776    15.727
ATOM     41  H   UNL d   1      -4.263  -1.525 -19.315 +0.04 +0.26    +0.167    15.727
ATOM     42  C   UNL d   1       4.808   8.037 -12.291 -0.05 +0.00    +0.004    15.727
ATOM     43  C   UNL d   1       5.136   7.601 -11.067 -0.11 +0.00    +0.012    15.727
ATOM     44  C   UNL d   1       4.903   0.589 -15.157 -0.30 +0.00    +0.004    15.727
ATOM     45  C   UNL d   1       4.371  -0.473 -14.543 -0.53 +0.00    +0.012    15.727
TER
ENDMDL
MODEL       17
USER    Run = 17
USER    Cluster Rank = 17
USER    Number of conformations in this cluster = 3
USER  
USER    RMSD from reference structure       = 14.391 A
USER  
USER    Estimated Free Energy of Binding    =   -6.53 kcal/mol  [=(1)+(2)+(3)-(4)]
USER    Estimated Inhibition Constant, Ki   =   16.43 uM (micromolar)  [Temperature = 298.15 K]
USER    
USER    (1) Final Intermolecular Energy     =   -9.51 kcal/mol
USER        vdW + Hbond + desolv Energy     =   -7.80 kcal/mol
USER        Electrostatic Energy            =   -1.71 kcal/mol
USER    (2) Final Total Internal Energy     =   -2.08 kcal/mol
USER    (3) Torsional Free Energy           =   +2.98 kcal/mol
USER    (4) Unbound System's Energy  [=(2)] =   -2.08 kcal/mol
USER    
USER    
USER  
USER    DPF = D:/Protein_go_brrr/autodock/final/mut_D99N/heme_Fe/dock.dpf
USER    NEWDPF move	heme_Fe_opt.pdbqt
USER    NEWDPF about	-0.174000 -0.001000 -0.047000
USER    NEWDPF tran0	0.294149 17.762814 0.208908
USER    NEWDPF axisangle0	-0.971625 -0.008369 0.236378 47.934898
USER    NEWDPF quaternion0	-0.394691 -0.003400 0.096021 0.913776
USER    NEWDPF dihe0	-178.94 15.81 -142.77 -157.05 -58.72 -16.47 -0.46 -72.49 -24.63 1.51 
USER  
USER                              x       y       z    vdW   Elec        q     RMS 
ATOM      1  C   UNL d   1      -1.698  17.682   0.695 -0.18 +0.01    +0.064    14.391
ATOM      2  C   UNL d   1       1.308  14.963  -2.134 -0.29 -0.00    +0.064    14.391
ATOM      3  C   UNL d   1       5.078  17.081  -0.044 -0.15 +0.00    +0.064    14.391
ATOM      4  C   UNL d   1       2.186  19.798   2.628 -0.15 +0.00    +0.064    14.391
ATOM      5  C   UNL d   1      -1.202  16.780  -0.354 -0.13 +0.01    +0.066    14.391
ATOM      6  C   UNL d   1      -2.006  16.080  -1.239 -0.28 -0.00    -0.021    14.391
ATOM      7  C   UNL d   1      -1.171  15.322  -2.022 -0.33 -0.00    -0.025    14.391
ATOM      8  C   UNL d   1       0.112  15.590  -1.585 -0.25 +0.00    +0.066    14.391
ATOM      9  C   UNL d   1      -1.589  14.412  -3.136 -0.35 +0.00    +0.051    14.391
ATOM     10  C   UNL d   1       2.560  15.245  -1.770 -0.23 -0.00    +0.066    14.391
ATOM     11  C   UNL d   1       3.678  14.547  -2.232 -0.27 +0.00    -0.021    14.391
ATOM     12  C   UNL d   1       4.777  15.128  -1.631 -0.20 +0.00    +0.000    14.391
ATOM     13  C   UNL d   1       4.266  16.155  -0.819 -0.15 +0.00    +0.070    14.391
ATOM     14  C   UNL d   1       3.693  13.340  -3.149 -0.26 -0.01    +0.052    14.391
ATOM     15  C   UNL d   1       4.590  18.038   0.779 -0.13 +0.00    +0.066    14.391
ATOM     16  C   UNL d   1       5.396  18.967   1.424 -0.07 -0.00    -0.021    14.391
ATOM     17  C   UNL d   1       4.565  19.750   2.199 -0.08 +0.00    +0.000    14.391
ATOM     18  C   UNL d   1       3.268  19.276   2.011 -0.13 +0.00    +0.070    14.391
ATOM     19  C   UNL d   1       6.893  19.101   1.338 -0.03 +0.00    +0.052    14.391
ATOM     20  C   UNL d   1       0.801  19.365   2.408 -0.19 +0.01    +0.066    14.391
ATOM     21  C   UNL d   1      -0.302  19.755   3.182 -0.17 -0.00    -0.025    14.391
ATOM     22  C   UNL d   1      -1.400  19.150   2.606 -0.20 -0.00    -0.021    14.391
ATOM     23  C   UNL d   1      -0.926  18.415   1.513 -0.20 +0.01    +0.066    14.391
ATOM     24  C   UNL d   1      -0.330  20.645   4.403 -0.10 +0.00    +0.051    14.391
ATOM     25  N   UNL d   1       0.090  16.484  -0.576 -0.15 -0.01    -0.248    14.391
ATOM     26  N   UNL d   1       2.915  16.221  -0.896 -0.10 -0.01    -0.248    14.391
ATOM     27  N   UNL d   1       3.277  18.252   1.105 -0.13 -0.01    -0.248    14.391
ATOM     28  N   UNL d   1       0.423  18.513   1.425 -0.20 -0.03    -0.248    14.391
ATOM     29 FE   UNL d   1       1.669  17.369   0.266 -0.06 +0.00    +0.000    14.391
ATOM     30  C   UNL d   1      -3.491  16.142  -1.352 -0.32 +0.03    +0.052    14.391
ATOM     31  C   UNL d   1      -3.942  17.531  -1.790 -0.15 +0.06    +0.115    14.391
ATOM     32  C   UNL d   1      -5.439  17.584  -1.911 -0.02 +0.13    +0.139    14.391
ATOM     33  O   UNL d   1      -6.030  16.831  -2.673 -0.99 -0.60    -0.650    14.391
ATOM     34  O   UNL d   1      -6.145  18.464  -1.180 -0.43 -0.79    -0.776    14.391
ATOM     35  H   UNL d   1      -5.674  19.069  -0.590 +0.01 +0.14    +0.167    14.391
ATOM     36  C   UNL d   1      -2.817  19.237   3.108 -0.17 +0.02    +0.052    14.391
ATOM     37  C   UNL d   1      -3.579  20.290   2.317 -0.07 +0.03    +0.115    14.391
ATOM     38  C   UNL d   1      -4.551  19.651   1.367 -0.09 +0.07    +0.139    14.391
ATOM     39  O   UNL d   1      -4.455  18.468   1.076 +0.04 -0.53    -0.650    14.391
ATOM     40  O   UNL d   1      -5.539  20.384   0.823 -0.03 -0.37    -0.776    14.391
ATOM     41  H   UNL d   1      -6.283  19.932   0.402 +0.01 +0.12    +0.167    14.391
ATOM     42  C   UNL d   1       6.193  14.690  -1.831 -0.16 +0.00    +0.004    14.391
ATOM     43  C   UNL d   1       6.776  13.835  -0.981 -0.23 +0.00    +0.012    14.391
ATOM     44  C   UNL d   1       4.981  20.890   3.047 -0.03 +0.00    +0.004    14.391
ATOM     45  C   UNL d   1       5.071  20.758   4.374 -0.03 +0.00    +0.012    14.391
TER
ENDMDL
MODEL       63
USER    Run = 63
USER    Cluster Rank = 18
USER    Number of conformations in this cluster = 1
USER  
USER    RMSD from reference structure       = 20.483 A
USER  
USER    Estimated Free Energy of Binding    =   -6.52 kcal/mol  [=(1)+(2)+(3)-(4)]
USER    Estimated Inhibition Constant, Ki   =   16.54 uM (micromolar)  [Temperature = 298.15 K]
USER    
USER    (1) Final Intermolecular Energy     =   -9.51 kcal/mol
USER        vdW + Hbond + desolv Energy     =   -5.64 kcal/mol
USER        Electrostatic Energy            =   -3.87 kcal/mol
USER    (2) Final Total Internal Energy     =   -1.36 kcal/mol
USER    (3) Torsional Free Energy           =   +2.98 kcal/mol
USER    (4) Unbound System's Energy  [=(2)] =   -1.36 kcal/mol
USER    
USER    
USER  
USER    DPF = D:/Protein_go_brrr/autodock/final/mut_D99N/heme_Fe/dock.dpf
USER    NEWDPF move	heme_Fe_opt.pdbqt
USER    NEWDPF about	-0.174000 -0.001000 -0.047000
USER    NEWDPF tran0	-7.809309 -0.277637 -20.629969
USER    NEWDPF axisangle0	-0.146664 -0.236226 -0.960566 139.058316
USER    NEWDPF quaternion0	-0.137402 -0.221308 -0.899906 0.349731
USER    NEWDPF dihe0	151.70 -76.29 -157.32 -156.79 -86.36 -179.94 -165.90 80.86 -179.15 -152.46 
USER  
USER                              x       y       z    vdW   Elec        q     RMS 
ATOM      1  C   UNL d   1      -6.140  -1.445 -20.383 -0.14 +0.06    +0.064    20.483
ATOM      2  C   UNL d   1      -6.948   3.203 -21.856 -0.04 +0.04    +0.064    20.483
ATOM      3  C   UNL d   1     -11.405   2.915 -20.090 -0.09 +0.02    +0.064    20.483
ATOM      4  C   UNL d   1     -10.679  -1.620 -18.750 -0.16 +0.02    +0.064    20.483
ATOM      5  C   UNL d   1      -5.982  -0.139 -21.036 -0.08 +0.07    +0.066    20.483
ATOM      6  C   UNL d   1      -4.864   0.258 -21.750 -0.06 -0.02    -0.021    20.483
ATOM      7  C   UNL d   1      -5.087   1.550 -22.156 -0.03 -0.02    -0.025    20.483
ATOM      8  C   UNL d   1      -6.335   1.893 -21.673 -0.05 +0.06    +0.066    20.483
ATOM      9  C   UNL d   1      -4.158   2.391 -22.976 -0.00 +0.02    +0.051    20.483
ATOM     10  C   UNL d   1      -8.173   3.541 -21.451 -0.06 +0.04    +0.066    20.483
ATOM     11  C   UNL d   1      -8.689   4.836 -21.539 -0.03 -0.01    -0.021    20.483
ATOM     12  C   UNL d   1      -9.968   4.783 -21.021 -0.05 +0.00    +0.000    20.483
ATOM     13  C   UNL d   1     -10.165   3.447 -20.632 -0.08 +0.03    +0.070    20.483
ATOM     14  C   UNL d   1      -7.974   6.078 -22.030 -0.01 +0.01    +0.052    20.483
ATOM     15  C   UNL d   1     -11.583   1.641 -19.667 -0.07 +0.03    +0.066    20.483
ATOM     16  C   UNL d   1     -12.812   1.145 -19.249 -0.08 -0.01    -0.021    20.483
ATOM     17  C   UNL d   1     -12.604  -0.161 -18.859 -0.09 +0.00    +0.000    20.483
ATOM     18  C   UNL d   1     -11.250  -0.431 -19.044 -0.11 +0.03    +0.070    20.483
ATOM     19  C   UNL d   1     -14.126   1.876 -19.194 -0.05 +0.01    +0.052    20.483
ATOM     20  C   UNL d   1      -9.272  -1.960 -18.989 -0.15 +0.03    +0.066    20.483
ATOM     21  C   UNL d   1      -8.623  -3.107 -18.510 -0.20 -0.01    -0.025    20.483
ATOM     22  C   UNL d   1      -7.334  -3.043 -18.998 -0.18 -0.01    -0.021    20.483
ATOM     23  C   UNL d   1      -7.246  -1.863 -19.745 -0.13 +0.05    +0.066    20.483
ATOM     24  C   UNL d   1      -9.177  -4.208 -17.636 -0.26 +0.01    +0.051    20.483
ATOM     25  N   UNL d   1      -6.881   0.860 -21.000 -0.04 -0.35    -0.248    20.483
ATOM     26  N   UNL d   1      -9.068   2.691 -20.886 -0.08 -0.18    -0.248    20.483
ATOM     27  N   UNL d   1     -10.630   0.662 -19.581 -0.10 -0.14    -0.248    20.483
ATOM     28  N   UNL d   1      -8.418  -1.184 -19.699 -0.11 -0.20    -0.248    20.483
ATOM     29 FE   UNL d   1      -8.744   0.752 -20.291 -0.03 +0.00    +0.000    20.483
ATOM     30  C   UNL d   1      -3.651  -0.555 -22.052 -0.07 +0.03    +0.052    20.483
ATOM     31  C   UNL d   1      -2.605  -0.392 -20.955 -0.13 +0.12    +0.115    20.483
ATOM     32  C   UNL d   1      -3.213   0.249 -19.739 -0.14 +0.22    +0.139    20.483
ATOM     33  O   UNL d   1      -3.275   1.467 -19.642 -0.01 -0.88    -0.650    20.483
ATOM     34  O   UNL d   1      -3.695  -0.514 -18.743 -0.42 -1.91    -0.776    20.483
ATOM     35  H   UNL d   1      -4.030  -1.397 -18.949 +0.04 +0.34    +0.167    20.483
ATOM     36  C   UNL d   1      -6.238  -4.037 -18.718 -0.29 +0.02    +0.052    20.483
ATOM     37  C   UNL d   1      -6.050  -4.185 -17.216 -0.48 +0.06    +0.115    20.483
ATOM     38  C   UNL d   1      -4.876  -3.378 -16.738 -0.50 +0.14    +0.139    20.483
ATOM     39  O   UNL d   1      -4.564  -3.368 -15.556 -0.59 -0.68    -0.650    20.483
ATOM     40  O   UNL d   1      -4.159  -2.652 -17.614 -0.17 -1.28    -0.776    20.483
ATOM     41  H   UNL d   1      -4.286  -1.694 -17.647 +0.06 +0.35    +0.167    20.483
ATOM     42  C   UNL d   1     -10.894   5.952 -20.906 -0.05 -0.00    +0.004    20.483
ATOM     43  C   UNL d   1     -11.196   6.478 -19.711 -0.14 -0.00    +0.012    20.483
ATOM     44  C   UNL d   1     -13.638  -1.097 -18.361 -0.06 +0.00    +0.004    20.483
ATOM     45  C   UNL d   1     -13.743  -1.370 -17.056 -0.11 +0.00    +0.012    20.483
TER
ENDMDL
MODEL       26
USER    Run = 26
USER    Cluster Rank = 19
USER    Number of conformations in this cluster = 2
USER  
USER    RMSD from reference structure       = 15.451 A
USER  
USER    Estimated Free Energy of Binding    =   -6.23 kcal/mol  [=(1)+(2)+(3)-(4)]
USER    Estimated Inhibition Constant, Ki   =   27.31 uM (micromolar)  [Temperature = 298.15 K]
USER    
USER    (1) Final Intermolecular Energy     =   -9.21 kcal/mol
USER        vdW + Hbond + desolv Energy     =   -6.11 kcal/mol
USER        Electrostatic Energy            =   -3.10 kcal/mol
USER    (2) Final Total Internal Energy     =   -1.70 kcal/mol
USER    (3) Torsional Free Energy           =   +2.98 kcal/mol
USER    (4) Unbound System's Energy  [=(2)] =   -1.70 kcal/mol
USER    
USER    
USER  
USER    DPF = D:/Protein_go_brrr/autodock/final/mut_D99N/heme_Fe/dock.dpf
USER    NEWDPF move	heme_Fe_opt.pdbqt
USER    NEWDPF about	-0.174000 -0.001000 -0.047000
USER    NEWDPF tran0	-1.039865 6.432782 -15.350206
USER    NEWDPF axisangle0	0.648562 -0.351344 0.675222 -82.510725
USER    NEWDPF quaternion0	0.427672 -0.231682 0.445252 -0.751778
USER    NEWDPF dihe0	-125.37 49.85 78.77 64.52 151.43 -113.67 -62.00 -84.11 156.77 0.67 
USER  
USER                              x       y       z    vdW   Elec        q     RMS 
ATOM      1  C   UNL d   1      -1.954   5.033 -16.540 -0.14 +0.03    +0.064    15.451
ATOM      2  C   UNL d   1       2.736   6.129 -15.432 -0.07 +0.01    +0.064    15.451
ATOM      3  C   UNL d   1       1.173   8.774 -11.740 -0.13 -0.00    +0.064    15.451
ATOM      4  C   UNL d   1      -3.377   7.812 -12.859 -0.33 +0.00    +0.064    15.451
ATOM      5  C   UNL d   1      -0.493   5.164 -16.621 -0.08 +0.02    +0.066    15.451
ATOM      6  C   UNL d   1       0.295   4.627 -17.626 -0.05 -0.01    -0.021    15.451
ATOM      7  C   UNL d   1       1.598   4.929 -17.315 -0.05 -0.01    -0.025    15.451
ATOM      8  C   UNL d   1       1.555   5.639 -16.131 -0.07 +0.01    +0.066    15.451
ATOM      9  C   UNL d   1       2.805   4.568 -18.125 -0.01 +0.01    +0.051    15.451
ATOM     10  C   UNL d   1       2.720   6.865 -14.319 -0.08 +0.01    +0.066    15.451
ATOM     11  C   UNL d   1       3.869   7.222 -13.609 -0.05 -0.00    -0.021    15.451
ATOM     12  C   UNL d   1       3.444   7.972 -12.531 -0.07 +0.00    +0.000    15.451
ATOM     13  C   UNL d   1       2.043   8.027 -12.635 -0.09 +0.00    +0.070    15.451
ATOM     14  C   UNL d   1       5.297   6.812 -13.906 -0.02 +0.01    +0.052    15.451
ATOM     15  C   UNL d   1      -0.179   8.788 -11.805 -0.11 -0.01    +0.066    15.451
ATOM     16  C   UNL d   1      -0.969   9.594 -10.995 -0.15 +0.00    -0.021    15.451
ATOM     17  C   UNL d   1      -2.283   9.315 -11.314 -0.22 -0.00    +0.000    15.451
ATOM     18  C   UNL d   1      -2.262   8.341 -12.310 -0.20 -0.00    +0.070    15.451
ATOM     19  C   UNL d   1      -0.512  10.569  -9.945 -0.25 -0.02    +0.052    15.451
ATOM     20  C   UNL d   1      -3.395   6.832 -13.951 -0.30 +0.01    +0.066    15.451
ATOM     21  C   UNL d   1      -4.526   6.129 -14.391 -0.40 -0.00    -0.025    15.451
ATOM     22  C   UNL d   1      -4.100   5.353 -15.449 -0.29 -0.01    -0.021    15.451
ATOM     23  C   UNL d   1      -2.732   5.606 -15.608 -0.17 +0.02    +0.066    15.451
ATOM     24  C   UNL d   1      -5.935   6.176 -13.849 -0.35 +0.00    +0.051    15.451
ATOM     25  N   UNL d   1       0.281   5.789 -15.716 -0.01 -0.04    -0.248    15.451
ATOM     26  N   UNL d   1       1.601   7.345 -13.720 -0.08 -0.00    -0.248    15.451
ATOM     27  N   UNL d   1      -0.969   8.048 -12.644 -0.05 +0.04    -0.248    15.451
ATOM     28  N   UNL d   1      -2.298   6.475 -14.662 -0.11 -0.03    -0.248    15.451
ATOM     29 FE   UNL d   1      -0.350   6.910 -14.190 -0.04 -0.00    +0.000    15.451
ATOM     30  C   UNL d   1      -0.166   3.884 -18.832 -0.02 +0.02    +0.052    15.451
ATOM     31  C   UNL d   1       0.297   2.432 -18.782 -0.06 +0.07    +0.115    15.451
ATOM     32  C   UNL d   1      -0.885   1.503 -18.753 -0.07 +0.18    +0.139    15.451
ATOM     33  O   UNL d   1      -0.804   0.375 -19.219 -0.43 -1.37    -0.650    15.451
ATOM     34  O   UNL d   1      -2.047   1.907 -18.212 +0.04 -1.04    -0.776    15.451
ATOM     35  H   UNL d   1      -2.456   2.722 -18.534 +0.04 +0.17    +0.167    15.451
ATOM     36  C   UNL d   1      -4.951   4.386 -16.229 -0.34 +0.05    +0.052    15.451
ATOM     37  C   UNL d   1      -5.437   5.049 -17.510 -0.19 +0.11    +0.115    15.451
ATOM     38  C   UNL d   1      -4.533   4.720 -18.664 -0.06 +0.14    +0.139    15.451
ATOM     39  O   UNL d   1      -3.865   5.589 -19.203 +0.04 -0.32    -0.650    15.451
ATOM     40  O   UNL d   1      -4.456   3.455 -19.116 -0.38 -1.36    -0.776    15.451
ATOM     41  H   UNL d   1      -3.585   3.054 -19.243 +0.02 +0.21    +0.167    15.451
ATOM     42  C   UNL d   1       4.342   8.558 -11.489 -0.09 +0.00    +0.004    15.451
ATOM     43  C   UNL d   1       4.292   9.863 -11.191 -0.09 +0.00    +0.012    15.451
ATOM     44  C   UNL d   1      -3.478   9.954 -10.719 -0.23 +0.00    +0.004    15.451
ATOM     45  C   UNL d   1      -4.329  10.654 -11.476 -0.31 +0.00    +0.012    15.451
TER
ENDMDL
MODEL       89
USER    Run = 89
USER    Cluster Rank = 20
USER    Number of conformations in this cluster = 1
USER  
USER    RMSD from reference structure       = 20.098 A
USER  
USER    Estimated Free Energy of Binding    =   -5.91 kcal/mol  [=(1)+(2)+(3)-(4)]
USER    Estimated Inhibition Constant, Ki   =   46.27 uM (micromolar)  [Temperature = 298.15 K]
USER    
USER    (1) Final Intermolecular Energy     =   -8.90 kcal/mol
USER        vdW + Hbond + desolv Energy     =   -5.09 kcal/mol
USER        Electrostatic Energy            =   -3.81 kcal/mol
USER    (2) Final Total Internal Energy     =   -2.06 kcal/mol
USER    (3) Torsional Free Energy           =   +2.98 kcal/mol
USER    (4) Unbound System's Energy  [=(2)] =   -2.06 kcal/mol
USER    
USER    
USER  
USER    DPF = D:/Protein_go_brrr/autodock/final/mut_D99N/heme_Fe/dock.dpf
USER    NEWDPF move	heme_Fe_opt.pdbqt
USER    NEWDPF about	-0.174000 -0.001000 -0.047000
USER    NEWDPF tran0	0.242471 -0.432271 -20.064125
USER    NEWDPF axisangle0	0.955210 -0.284561 -0.081237 132.211951
USER    NEWDPF quaternion0	0.873344 -0.260173 -0.074275 0.405046
USER    NEWDPF dihe0	-77.03 -147.13 26.80 32.13 51.04 -120.64 -58.44 -131.44 -146.28 -9.73 
USER  
USER                              x       y       z    vdW   Elec        q     RMS 
ATOM      1  C   UNL d   1      -1.375   0.777 -19.702 -0.06 +0.09    +0.064    20.098
ATOM      2  C   UNL d   1       3.438   0.977 -18.593 -0.08 +0.02    +0.064    20.098
ATOM      3  C   UNL d   1       4.258  -2.464 -21.843 -0.15 +0.01    +0.064    20.098
ATOM      4  C   UNL d   1      -0.409  -2.747 -22.856 -0.13 +0.02    +0.064    20.098
ATOM      5  C   UNL d   1      -0.108   1.094 -19.029 -0.05 +0.08    +0.066    20.098
ATOM      6  C   UNL d   1       0.024   1.963 -17.958 -0.13 -0.02    -0.021    20.098
ATOM      7  C   UNL d   1       1.361   2.021 -17.654 -0.12 -0.01    -0.025    20.098
ATOM      8  C   UNL d   1       1.995   1.183 -18.551 -0.10 +0.03    +0.066    20.098
ATOM      9  C   UNL d   1       1.982   2.822 -16.550 -0.12 +0.02    +0.051    20.098
ATOM     10  C   UNL d   1       4.069   0.131 -19.410 -0.10 +0.02    +0.066    20.098
ATOM     11  C   UNL d   1       5.459   0.040 -19.506 -0.09 -0.00    -0.021    20.098
ATOM     12  C   UNL d   1       5.722  -0.934 -20.449 -0.13 +0.00    +0.000    20.098
ATOM     13  C   UNL d   1       4.465  -1.385 -20.890 -0.13 +0.02    +0.070    20.098
ATOM     14  C   UNL d   1       6.488   0.886 -18.785 -0.05 +0.01    +0.052    20.098
ATOM     15  C   UNL d   1       3.052  -2.866 -22.309 -0.14 +0.01    +0.066    20.098
ATOM     16  C   UNL d   1       2.889  -3.965 -23.142 -0.13 -0.00    -0.021    20.098
ATOM     17  C   UNL d   1       1.544  -4.047 -23.438 -0.11 +0.00    +0.000    20.098
ATOM     18  C   UNL d   1       0.918  -2.991 -22.781 -0.12 +0.01    +0.070    20.098
ATOM     19  C   UNL d   1       3.957  -4.890 -23.661 -0.08 +0.00    +0.052    20.098
ATOM     20  C   UNL d   1      -1.112  -1.683 -22.129 -0.13 +0.03    +0.066    20.098
ATOM     21  C   UNL d   1      -2.441  -1.293 -22.349 -0.10 -0.01    -0.025    20.098
ATOM     22  C   UNL d   1      -2.699  -0.297 -21.431 -0.10 -0.02    -0.021    20.098
ATOM     23  C   UNL d   1      -1.522  -0.113 -20.695 -0.12 +0.07    +0.066    20.098
ATOM     24  C   UNL d   1      -3.422  -1.822 -23.369 -0.06 +0.02    +0.051    20.098
ATOM     25  N   UNL d   1       1.098   0.613 -19.380 -0.11 -0.18    -0.248    20.098
ATOM     26  N   UNL d   1       3.457  -0.730 -20.263 -0.09 -0.07    -0.248    20.098
ATOM     27  N   UNL d   1       1.837  -2.290 -22.051 -0.09 -0.07    -0.248    20.098
ATOM     28  N   UNL d   1      -0.544  -0.930 -21.156 -0.12 -0.20    -0.248    20.098
ATOM     29 FE   UNL d   1       1.456  -0.831 -20.711 -0.03 +0.00    +0.000    20.098
ATOM     30  C   UNL d   1      -1.067   2.687 -17.246 -0.16 +0.04    +0.052    20.098
ATOM     31  C   UNL d   1      -1.872   3.543 -18.217 -0.05 +0.08    +0.115    20.098
ATOM     32  C   UNL d   1      -3.321   3.142 -18.195 -0.08 +0.17    +0.139    20.098
ATOM     33  O   UNL d   1      -3.927   3.056 -17.136 -0.07 -0.95    -0.650    20.098
ATOM     34  O   UNL d   1      -3.965   2.874 -19.343 -0.21 -1.16    -0.776    20.098
ATOM     35  H   UNL d   1      -4.129   1.952 -19.585 +0.02 +0.28    +0.167    20.098
ATOM     36  C   UNL d   1      -3.990   0.469 -21.303 -0.08 +0.05    +0.052    20.098
ATOM     37  C   UNL d   1      -4.942  -0.281 -20.384 -0.13 +0.15    +0.115    20.098
ATOM     38  C   UNL d   1      -4.248  -0.711 -19.122 -0.11 +0.26    +0.139    20.098
ATOM     39  O   UNL d   1      -4.180  -1.892 -18.817 -0.55 -1.15    -0.650    20.098
ATOM     40  O   UNL d   1      -3.695   0.211 -18.314 -0.20 -1.83    -0.776    20.098
ATOM     41  H   UNL d   1      -4.105   1.084 -18.246 +0.05 +0.37    +0.167    20.098
ATOM     42  C   UNL d   1       7.088  -1.359 -20.883 -0.14 +0.00    +0.004    20.098
ATOM     43  C   UNL d   1       7.855  -2.123 -20.094 -0.20 +0.00    +0.012    20.098
ATOM     44  C   UNL d   1       0.898  -5.080 -24.278 -0.09 +0.00    +0.004    20.098
ATOM     45  C   UNL d   1       0.507  -6.245 -23.752 -0.10 +0.00    +0.012    20.098
TER
ENDMDL
MODEL       30
USER    Run = 30
USER    Cluster Rank = 21
USER    Number of conformations in this cluster = 1
USER  
USER    RMSD from reference structure       = 17.305 A
USER  
USER    Estimated Free Energy of Binding    =   -5.87 kcal/mol  [=(1)+(2)+(3)-(4)]
USER    Estimated Inhibition Constant, Ki   =   50.16 uM (micromolar)  [Temperature = 298.15 K]
USER    
USER    (1) Final Intermolecular Energy     =   -8.85 kcal/mol
USER        vdW + Hbond + desolv Energy     =   -6.93 kcal/mol
USER        Electrostatic Energy            =   -1.92 kcal/mol
USER    (2) Final Total Internal Energy     =   -1.93 kcal/mol
USER    (3) Torsional Free Energy           =   +2.98 kcal/mol
USER    (4) Unbound System's Energy  [=(2)] =   -1.93 kcal/mol
USER    
USER    
USER  
USER    DPF = D:/Protein_go_brrr/autodock/final/mut_D99N/heme_Fe/dock.dpf
USER    NEWDPF move	heme_Fe_opt.pdbqt
USER    NEWDPF about	-0.174000 -0.001000 -0.047000
USER    NEWDPF tran0	-13.052826 15.027330 -4.222407
USER    NEWDPF axisangle0	0.298297 -0.857673 -0.418827 148.838562
USER    NEWDPF quaternion0	0.287336 -0.826156 -0.403437 0.268596
USER    NEWDPF dihe0	168.92 -37.07 44.46 47.91 110.47 79.40 -22.22 -66.38 -172.32 6.66 
USER  
USER                              x       y       z    vdW   Elec        q     RMS 
ATOM      1  C   UNL d   1     -11.531  15.945  -3.196 -0.17 +0.00    +0.064    17.305
ATOM      2  C   UNL d   1     -11.795  13.150  -7.264 -0.28 -0.01    +0.064    17.305
ATOM      3  C   UNL d   1     -16.542  13.876  -7.371 -0.15 -0.01    +0.064    17.305
ATOM      4  C   UNL d   1     -16.323  16.498  -3.376 -0.14 -0.00    +0.064    17.305
ATOM      5  C   UNL d   1     -11.177  15.022  -4.283 -0.19 +0.00    +0.066    17.305
ATOM      6  C   UNL d   1      -9.912  14.500  -4.496 -0.30 -0.00    -0.021    17.305
ATOM      7  C   UNL d   1      -9.985  13.727  -5.628 -0.40 +0.00    -0.025    17.305
ATOM      8  C   UNL d   1     -11.294  13.807  -6.063 -0.30 -0.00    +0.066    17.305
ATOM      9  C   UNL d   1      -8.862  12.945  -6.238 -0.35 +0.00    +0.051    17.305
ATOM     10  C   UNL d   1     -13.065  13.164  -7.674 -0.26 -0.01    +0.066    17.305
ATOM     11  C   UNL d   1     -13.493  12.622  -8.888 -0.25 +0.01    -0.021    17.305
ATOM     12  C   UNL d   1     -14.856  12.834  -8.951 -0.18 -0.00    +0.000    17.305
ATOM     13  C   UNL d   1     -15.190  13.508  -7.764 -0.17 -0.02    +0.070    17.305
ATOM     14  C   UNL d   1     -12.635  11.994  -9.968 -0.34 -0.02    +0.052    17.305
ATOM     15  C   UNL d   1     -16.863  14.571  -6.255 -0.03 -0.01    +0.066    17.305
ATOM     16  C   UNL d   1     -18.173  14.816  -5.864 -0.09 +0.00    -0.021    17.305
ATOM     17  C   UNL d   1     -18.113  15.575  -4.714 -0.12 -0.00    +0.000    17.305
ATOM     18  C   UNL d   1     -16.764  15.779  -4.431 -0.11 -0.01    +0.070    17.305
ATOM     19  C   UNL d   1     -19.435  14.378  -6.558 -0.07 -0.01    +0.052    17.305
ATOM     20  C   UNL d   1     -14.913  16.682  -3.012 -0.12 -0.00    +0.066    17.305
ATOM     21  C   UNL d   1     -14.436  17.581  -2.048 -0.06 -0.00    -0.025    17.305
ATOM     22  C   UNL d   1     -13.069  17.397  -2.004 -0.06 -0.00    -0.021    17.305
ATOM     23  C   UNL d   1     -12.767  16.404  -2.943 -0.12 +0.00    +0.066    17.305
ATOM     24  C   UNL d   1     -15.216  18.567  -1.210 -0.02 -0.00    +0.051    17.305
ATOM     25  N   UNL d   1     -12.018  14.588  -5.238 -0.16 +0.00    -0.248    17.305
ATOM     26  N   UNL d   1     -14.098  13.717  -6.989 -0.15 +0.03    -0.248    17.305
ATOM     27  N   UNL d   1     -15.995  15.125  -5.353 -0.10 +0.04    -0.248    17.305
ATOM     28  N   UNL d   1     -13.891  16.003  -3.586 -0.12 +0.01    -0.248    17.305
ATOM     29 FE   UNL d   1     -13.996  14.861  -5.287 -0.05 -0.00    +0.000    17.305
ATOM     30  C   UNL d   1      -8.698  14.706  -3.656 -0.37 +0.01    +0.052    17.305
ATOM     31  C   UNL d   1      -8.008  16.017  -4.016 -0.20 +0.04    +0.115    17.305
ATOM     32  C   UNL d   1      -7.152  16.492  -2.875 -0.12 +0.11    +0.139    17.305
ATOM     33  O   UNL d   1      -5.932  16.479  -2.963 -0.73 -0.64    -0.650    17.305
ATOM     34  O   UNL d   1      -7.723  16.936  -1.742 -0.04 -0.87    -0.776    17.305
ATOM     35  H   UNL d   1      -8.677  17.099  -1.730 +0.03 +0.11    +0.167    17.305
ATOM     36  C   UNL d   1     -12.105  18.170  -1.143 -0.03 +0.01    +0.052    17.305
ATOM     37  C   UNL d   1     -11.674  17.315   0.040 -0.06 +0.02    +0.115    17.305
ATOM     38  C   UNL d   1     -10.218  16.957  -0.057 -0.15 +0.07    +0.139    17.305
ATOM     39  O   UNL d   1      -9.354  17.759   0.264 +0.02 -0.48    -0.650    17.305
ATOM     40  O   UNL d   1      -9.854  15.741  -0.504 +0.03 -0.42    -0.776    17.305
ATOM     41  H   UNL d   1      -9.067  15.662  -1.061 +0.05 +0.12    +0.167    17.305
ATOM     42  C   UNL d   1     -15.734  12.423 -10.090 -0.15 -0.00    +0.004    17.305
ATOM     43  C   UNL d   1     -16.357  11.237 -10.086 -0.21 -0.01    +0.012    17.305
ATOM     44  C   UNL d   1     -19.269  16.057  -3.926 -0.08 -0.00    +0.004    17.305
ATOM     45  C   UNL d   1     -19.629  15.443  -2.793 -0.09 -0.00    +0.012    17.305
TER
ENDMDL
MODEL       67
USER    Run = 67
USER    Cluster Rank = 22
USER    Number of conformations in this cluster = 3
USER  
USER    RMSD from reference structure       = 15.092 A
USER  
USER    Estimated Free Energy of Binding    =   -5.36 kcal/mol  [=(1)+(2)+(3)-(4)]
USER    Estimated Inhibition Constant, Ki   =  117.32 uM (micromolar)  [Temperature = 298.15 K]
USER    
USER    (1) Final Intermolecular Energy     =   -8.35 kcal/mol
USER        vdW + Hbond + desolv Energy     =   -8.10 kcal/mol
USER        Electrostatic Energy            =   -0.24 kcal/mol
USER    (2) Final Total Internal Energy     =   -2.04 kcal/mol
USER    (3) Torsional Free Energy           =   +2.98 kcal/mol
USER    (4) Unbound System's Energy  [=(2)] =   -2.04 kcal/mol
USER    
USER    
USER  
USER    DPF = D:/Protein_go_brrr/autodock/final/mut_D99N/heme_Fe/dock.dpf
USER    NEWDPF move	heme_Fe_opt.pdbqt
USER    NEWDPF about	-0.174000 -0.001000 -0.047000
USER    NEWDPF tran0	16.949389 -0.962726 2.876004
USER    NEWDPF axisangle0	-0.322028 -0.728895 0.604160 -147.266902
USER    NEWDPF quaternion0	-0.308979 -0.699359 0.579679 -0.281781
USER    NEWDPF dihe0	-0.00 -131.55 -109.49 60.70 131.58 104.30 80.49 -44.93 -8.81 -36.75 
USER  
USER                              x       y       z    vdW   Elec        q     RMS 
ATOM      1  C   UNL d   1      17.831  -2.813   2.773 -0.30 -0.01    +0.064    15.092
ATOM      2  C   UNL d   1      15.252  -0.374   6.212 -0.13 +0.01    +0.064    15.092
ATOM      3  C   UNL d   1      13.840   2.744   2.842 -0.21 +0.00    +0.064    15.092
ATOM      4  C   UNL d   1      16.414   0.460  -0.480 -0.22 -0.01    +0.064    15.092
ATOM      5  C   UNL d   1      17.303  -2.367   4.070 -0.23 -0.01    +0.066    15.092
ATOM      6  C   UNL d   1      17.594  -2.959   5.288 -0.25 +0.00    -0.021    15.092
ATOM      7  C   UNL d   1      16.875  -2.284   6.242 -0.28 +0.00    -0.025    15.092
ATOM      8  C   UNL d   1      16.171  -1.304   5.569 -0.24 -0.00    +0.066    15.092
ATOM      9  C   UNL d   1      16.884  -2.559   7.714 -0.25 -0.00    +0.051    15.092
ATOM     10  C   UNL d   1      14.605   0.617   5.595 -0.25 +0.00    +0.066    15.092
ATOM     11  C   UNL d   1      13.644   1.419   6.215 -0.27 -0.00    -0.021    15.092
ATOM     12  C   UNL d   1      13.209   2.316   5.259 -0.25 +0.00    +0.000    15.092
ATOM     13  C   UNL d   1      13.928   2.006   4.092 -0.22 +0.00    +0.070    15.092
ATOM     14  C   UNL d   1      13.115   1.293   7.629 -0.28 +0.01    +0.052    15.092
ATOM     15  C   UNL d   1      14.492   2.419   1.701 -0.17 +0.00    +0.066    15.092
ATOM     16  C   UNL d   1      14.458   3.206   0.557 -0.14 -0.00    -0.021    15.092
ATOM     17  C   UNL d   1      15.197   2.547  -0.403 -0.17 +0.00    +0.000    15.092
ATOM     18  C   UNL d   1      15.661   1.369   0.177 -0.17 -0.00    +0.070    15.092
ATOM     19  C   UNL d   1      13.740   4.515   0.364 -0.08 -0.00    +0.052    15.092
ATOM     20  C   UNL d   1      16.971  -0.761   0.115 -0.20 -0.01    +0.066    15.092
ATOM     21  C   UNL d   1      17.579  -1.805  -0.596 -0.30 +0.00    -0.025    15.092
ATOM     22  C   UNL d   1      17.986  -2.721   0.352 -0.32 +0.00    -0.021    15.092
ATOM     23  C   UNL d   1      17.608  -2.205   1.597 -0.26 -0.01    +0.066    15.092
ATOM     24  C   UNL d   1      17.767  -1.945  -2.089 -0.42 -0.02    +0.051    15.092
ATOM     25  N   UNL d   1      16.442  -1.351   4.249 -0.18 +0.02    -0.248    15.092
ATOM     26  N   UNL d   1      14.773   0.965   4.294 -0.17 -0.00    -0.248    15.092
ATOM     27  N   UNL d   1      15.265   1.310   1.484 -0.10 +0.00    -0.248    15.092
ATOM     28  N   UNL d   1      16.949  -1.031   1.443 -0.11 +0.01    -0.248    15.092
ATOM     29 FE   UNL d   1      15.861  -0.033   2.867 -0.05 -0.00    +0.000    15.092
ATOM     30  C   UNL d   1      18.525  -4.096   5.538 -0.09 +0.00    +0.052    15.092
ATOM     31  C   UNL d   1      19.970  -3.611   5.585 -0.10 +0.01    +0.115    15.092
ATOM     32  C   UNL d   1      20.654  -3.868   4.271 -0.14 +0.02    +0.139    15.092
ATOM     33  O   UNL d   1      21.295  -2.985   3.718 +0.03 -0.06    -0.650    15.092
ATOM     34  O   UNL d   1      20.567  -5.077   3.690 -0.03 -0.16    -0.776    15.092
ATOM     35  H   UNL d   1      21.013  -5.225   2.844 +0.03 +0.03    +0.167    15.092
ATOM     36  C   UNL d   1      18.658  -4.039   0.069 -0.34 -0.02    +0.052    15.092
ATOM     37  C   UNL d   1      19.970  -3.800  -0.663 -0.28 -0.01    +0.115    15.092
ATOM     38  C   UNL d   1      21.076  -4.624  -0.068 -0.22 +0.00    +0.139    15.092
ATOM     39  O   UNL d   1      21.482  -5.629  -0.634 -0.02 -0.04    -0.650    15.092
ATOM     40  O   UNL d   1      21.629  -4.260   1.103 +0.05 -0.06    -0.776    15.092
ATOM     41  H   UNL d   1      21.051  -4.037   1.846 +0.05 +0.01    +0.167    15.092
ATOM     42  C   UNL d   1      12.165   3.364   5.481 -0.28 +0.00    +0.004    15.092
ATOM     43  C   UNL d   1      10.912   3.029   5.815 -0.41 +0.01    +0.012    15.092
ATOM     44  C   UNL d   1      15.460   3.024  -1.780 -0.02 +0.00    +0.004    15.092
ATOM     45  C   UNL d   1      16.699   3.336  -2.172 -0.10 +0.00    +0.012    15.092
TER
ENDMDL
MODEL        9
USER    Run = 9
USER    Cluster Rank = 23
USER    Number of conformations in this cluster = 1
USER  
USER    RMSD from reference structure       = 16.781 A
USER  
USER    Estimated Free Energy of Binding    =   -5.33 kcal/mol  [=(1)+(2)+(3)-(4)]
USER    Estimated Inhibition Constant, Ki   =  124.44 uM (micromolar)  [Temperature = 298.15 K]
USER    
USER    (1) Final Intermolecular Energy     =   -8.31 kcal/mol
USER        vdW + Hbond + desolv Energy     =   -7.39 kcal/mol
USER        Electrostatic Energy            =   -0.92 kcal/mol
USER    (2) Final Total Internal Energy     =   -2.09 kcal/mol
USER    (3) Torsional Free Energy           =   +2.98 kcal/mol
USER    (4) Unbound System's Energy  [=(2)] =   -2.09 kcal/mol
USER    
USER    
USER  
USER    DPF = D:/Protein_go_brrr/autodock/final/mut_D99N/heme_Fe/dock.dpf
USER    NEWDPF move	heme_Fe_opt.pdbqt
USER    NEWDPF about	-0.174000 -0.001000 -0.047000
USER    NEWDPF tran0	9.359665 0.380540 -15.923728
USER    NEWDPF axisangle0	0.930129 -0.359126 -0.076731 -69.930372
USER    NEWDPF quaternion0	0.533037 -0.205807 -0.043973 -0.819500
USER    NEWDPF dihe0	-93.04 -2.03 -162.42 -126.45 41.01 96.41 -38.67 76.56 172.52 172.32 
USER  
USER                              x       y       z    vdW   Elec        q     RMS 
ATOM      1  C   UNL d   1       7.358   0.478 -16.367 -0.16 +0.02    +0.064    16.781
ATOM      2  C   UNL d   1      11.251  -1.844 -18.339 -0.09 +0.03    +0.064    16.781
ATOM      3  C   UNL d   1      13.740  -0.924 -14.335 -0.13 +0.01    +0.064    16.781
ATOM      4  C   UNL d   1      10.018   1.418 -12.450 -0.31 +0.01    +0.064    16.781
ATOM      5  C   UNL d   1       8.250  -0.188 -17.327 -0.13 +0.02    +0.066    16.781
ATOM      6  C   UNL d   1       7.910  -0.509 -18.631 -0.11 -0.01    -0.021    16.781
ATOM      7  C   UNL d   1       8.991  -1.157 -19.177 -0.11 -0.01    -0.025    16.781
ATOM      8  C   UNL d   1       9.950  -1.207 -18.183 -0.11 +0.03    +0.066    16.781
ATOM      9  C   UNL d   1       9.093  -1.676 -20.578 -0.10 +0.01    +0.051    16.781
ATOM     10  C   UNL d   1      12.215  -1.856 -17.417 -0.06 +0.05    +0.066    16.781
ATOM     11  C   UNL d   1      13.407  -2.572 -17.551 -0.07 -0.01    -0.021    16.781
ATOM     12  C   UNL d   1      14.136  -2.337 -16.402 -0.08 +0.00    +0.000    16.781
ATOM     13  C   UNL d   1      13.339  -1.488 -15.615 -0.09 +0.03    +0.070    16.781
ATOM     14  C   UNL d   1      13.804  -3.491 -18.689 -0.04 +0.01    +0.052    16.781
ATOM     15  C   UNL d   1      12.956  -0.149 -13.549 -0.15 +0.01    +0.066    16.781
ATOM     16  C   UNL d   1      13.411   0.452 -12.382 -0.14 -0.00    -0.021    16.781
ATOM     17  C   UNL d   1      12.338   1.125 -11.835 -0.22 +0.00    +0.000    16.781
ATOM     18  C   UNL d   1      11.251   0.915 -12.681 -0.23 +0.01    +0.070    16.781
ATOM     19  C   UNL d   1      14.791   0.376 -11.788 -0.08 +0.01    +0.052    16.781
ATOM     20  C   UNL d   1       8.867   1.270 -13.349 -0.18 +0.01    +0.066    16.781
ATOM     21  C   UNL d   1       7.544   1.609 -13.033 -0.28 -0.00    -0.025    16.781
ATOM     22  C   UNL d   1       6.805   1.345 -14.167 -0.23 -0.00    -0.021    16.781
ATOM     23  C   UNL d   1       7.701   0.851 -15.124 -0.15 +0.02    +0.066    16.781
ATOM     24  C   UNL d   1       6.994   2.149 -11.733 -0.29 +0.01    +0.051    16.781
ATOM     25  N   UNL d   1       9.500  -0.608 -17.062 -0.08 -0.13    -0.248    16.781
ATOM     26  N   UNL d   1      12.165  -1.201 -16.229 +0.02 -0.17    -0.248    16.781
ATOM     27  N   UNL d   1      11.641   0.169 -13.758 -0.12 -0.07    -0.248    16.781
ATOM     28  N   UNL d   1       8.949   0.766 -14.604 -0.07 -0.08    -0.248    16.781
ATOM     29 FE   UNL d   1      10.557  -0.217 -15.415 -0.04 +0.00    +0.000    16.781
ATOM     30  C   UNL d   1       6.633  -0.197 -19.332 -0.10 +0.01    +0.052    16.781
ATOM     31  C   UNL d   1       5.699  -1.402 -19.314 +0.00 +0.03    +0.115    16.781
ATOM     32  C   UNL d   1       4.276  -0.961 -19.109 -0.22 +0.04    +0.139    16.781
ATOM     33  O   UNL d   1       3.843   0.032 -19.676 +0.03 -0.17    -0.650    16.781
ATOM     34  O   UNL d   1       3.464  -1.659 -18.297 -0.08 -0.26    -0.776    16.781
ATOM     35  H   UNL d   1       3.456  -1.453 -17.351 -0.36 +0.06    +0.167    16.781
ATOM     36  C   UNL d   1       5.315   1.511 -14.305 -0.26 +0.01    +0.052    16.781
ATOM     37  C   UNL d   1       4.616   0.215 -13.925 -0.39 +0.02    +0.115    16.781
ATOM     38  C   UNL d   1       4.135  -0.516 -15.147 -0.42 +0.04    +0.139    16.781
ATOM     39  O   UNL d   1       4.802  -1.412 -15.643 -0.60 -0.29    -0.650    16.781
ATOM     40  O   UNL d   1       2.958  -0.184 -15.707 +0.03 -0.27    -0.776    16.781
ATOM     41  H   UNL d   1       2.676  -0.640 -16.513 -0.46 +0.04    +0.167    16.781
ATOM     42  C   UNL d   1      15.483  -2.916 -16.109 -0.05 +0.00    +0.004    16.781
ATOM     43  C   UNL d   1      15.657  -3.779 -15.099 -0.09 -0.00    +0.012    16.781
ATOM     44  C   UNL d   1      12.357   1.933 -10.594 -0.25 +0.00    +0.004    16.781
ATOM     45  C   UNL d   1      12.437   1.345  -9.396 -0.33 +0.00    +0.012    16.781
TER
ENDMDL
MODEL       31
USER    Run = 31
USER    Cluster Rank = 24
USER    Number of conformations in this cluster = 1
USER  
USER    RMSD from reference structure       = 16.767 A
USER  
USER    Estimated Free Energy of Binding    =   -5.19 kcal/mol  [=(1)+(2)+(3)-(4)]
USER    Estimated Inhibition Constant, Ki   =  156.78 uM (micromolar)  [Temperature = 298.15 K]
USER    
USER    (1) Final Intermolecular Energy     =   -8.17 kcal/mol
USER        vdW + Hbond + desolv Energy     =   -7.05 kcal/mol
USER        Electrostatic Energy            =   -1.12 kcal/mol
USER    (2) Final Total Internal Energy     =   -2.45 kcal/mol
USER    (3) Torsional Free Energy           =   +2.98 kcal/mol
USER    (4) Unbound System's Energy  [=(2)] =   -2.45 kcal/mol
USER    
USER    
USER  
USER    DPF = D:/Protein_go_brrr/autodock/final/mut_D99N/heme_Fe/dock.dpf
USER    NEWDPF move	heme_Fe_opt.pdbqt
USER    NEWDPF about	-0.174000 -0.001000 -0.047000
USER    NEWDPF tran0	-1.355944 17.636645 7.816808
USER    NEWDPF axisangle0	-0.668494 -0.617545 -0.414432 -72.929224
USER    NEWDPF quaternion0	-0.397304 -0.367023 -0.246308 -0.804224
USER    NEWDPF dihe0	-21.13 -56.13 62.76 49.08 84.27 76.89 -57.22 -47.43 -164.70 2.00 
USER  
USER                              x       y       z    vdW   Elec        q     RMS 
ATOM      1  C   UNL d   1      -2.813  18.247   6.507 -0.12 +0.01    +0.064    16.767
ATOM      2  C   UNL d   1      -2.799  15.834  10.821 -0.26 -0.01    +0.064    16.767
ATOM      3  C   UNL d   1       1.742  17.239  11.513 -0.11 -0.00    +0.064    16.767
ATOM      4  C   UNL d   1       1.784  19.492   7.293 -0.13 +0.00    +0.064    16.767
ATOM      5  C   UNL d   1      -3.203  17.368   7.619 -0.19 +0.01    +0.066    16.767
ATOM      6  C   UNL d   1      -4.406  16.687   7.704 -0.35 -0.00    -0.021    16.767
ATOM      7  C   UNL d   1      -4.403  16.020   8.904 -0.39 +0.00    -0.025    16.767
ATOM      8  C   UNL d   1      -3.196  16.320   9.506 -0.27 -0.01    +0.066    16.767
ATOM      9  C   UNL d   1      -5.492  15.133   9.424 -0.42 -0.00    +0.051    16.767
ATOM     10  C   UNL d   1      -1.618  16.061  11.399 -0.23 -0.01    +0.066    16.767
ATOM     11  C   UNL d   1      -1.310  15.679  12.707 -0.23 +0.00    -0.021    16.767
ATOM     12  C   UNL d   1      -0.011  16.088  12.937 -0.18 -0.00    +0.000    16.767
ATOM     13  C   UNL d   1       0.407  16.711  11.748 -0.12 -0.00    +0.070    16.767
ATOM     14  C   UNL d   1      -2.230  15.019  13.713 -0.29 -0.02    +0.052    16.767
ATOM     15  C   UNL d   1       2.133  17.886  10.390 -0.07 +0.00    +0.066    16.767
ATOM     16  C   UNL d   1       3.443  18.286  10.163 -0.08 +0.00    -0.021    16.767
ATOM     17  C   UNL d   1       3.457  18.940   8.947 -0.09 +0.00    +0.000    16.767
ATOM     18  C   UNL d   1       2.151  18.926   8.463 -0.11 +0.00    +0.070    16.767
ATOM     19  C   UNL d   1       4.634  18.087  11.062 -0.05 -0.00    +0.052    16.767
ATOM     20  C   UNL d   1       0.432  19.444   6.722 -0.16 +0.01    +0.066    16.767
ATOM     21  C   UNL d   1      -0.008  20.190   5.620 -0.12 -0.00    -0.025    16.767
ATOM     22  C   UNL d   1      -1.317  19.810   5.406 -0.14 -0.00    -0.021    16.767
ATOM     23  C   UNL d   1      -1.624  18.857   6.384 -0.19 +0.01    +0.066    16.767
ATOM     24  C   UNL d   1       0.753  21.211   4.807 -0.06 +0.00    +0.051    16.767
ATOM     25  N   UNL d   1      -2.464  17.132   8.717 -0.20 +0.00    -0.248    16.767
ATOM     26  N   UNL d   1      -0.575  16.703  10.814 -0.10 +0.01    -0.248    16.767
ATOM     27  N   UNL d   1       1.345  18.240   9.328 -0.07 -0.01    -0.248    16.767
ATOM     28  N   UNL d   1      -0.567  18.671   7.212 -0.17 -0.03    -0.248    16.767
ATOM     29 FE   UNL d   1      -0.570  17.688   9.012 -0.05 +0.00    +0.000    16.767
ATOM     30  C   UNL d   1      -5.497  16.653   6.688 -0.33 +0.01    +0.052    16.767
ATOM     31  C   UNL d   1      -6.284  17.958   6.697 -0.19 +0.02    +0.115    16.767
ATOM     32  C   UNL d   1      -6.265  18.593   5.333 -0.17 +0.05    +0.139    16.767
ATOM     33  O   UNL d   1      -7.068  18.252   4.476 -0.59 -0.46    -0.650    16.767
ATOM     34  O   UNL d   1      -5.361  19.544   5.044 +0.05 -0.21    -0.776    16.767
ATOM     35  H   UNL d   1      -5.147  19.722   4.118 +0.04 +0.06    +0.167    16.767
ATOM     36  C   UNL d   1      -2.234  20.369   4.350 -0.10 +0.01    +0.052    16.767
ATOM     37  C   UNL d   1      -2.277  19.427   3.156 -0.14 +0.03    +0.115    16.767
ATOM     38  C   UNL d   1      -3.693  19.159   2.731 -0.17 +0.06    +0.139    16.767
ATOM     39  O   UNL d   1      -4.323  19.992   2.095 +0.02 -0.25    -0.650    16.767
ATOM     40  O   UNL d   1      -4.281  17.994   3.053 -0.01 -0.52    -0.776    16.767
ATOM     41  H   UNL d   1      -5.112  18.008   3.548 +0.04 +0.14    +0.167    16.767
ATOM     42  C   UNL d   1       0.733  15.895  14.220 -0.19 -0.00    +0.004    16.767
ATOM     43  C   UNL d   1       1.761  15.039  14.298 -0.23 -0.00    +0.012    16.767
ATOM     44  C   UNL d   1       4.646  19.521   8.284 -0.05 +0.00    +0.004    16.767
ATOM     45  C   UNL d   1       5.235  18.893   7.261 -0.07 +0.00    +0.012    16.767
TER
ENDMDL
MODEL       94
USER    Run = 94
USER    Cluster Rank = 25
USER    Number of conformations in this cluster = 2
USER  
USER    RMSD from reference structure       = 13.466 A
USER  
USER    Estimated Free Energy of Binding    =   -5.06 kcal/mol  [=(1)+(2)+(3)-(4)]
USER    Estimated Inhibition Constant, Ki   =  195.60 uM (micromolar)  [Temperature = 298.15 K]
USER    
USER    (1) Final Intermolecular Energy     =   -8.04 kcal/mol
USER        vdW + Hbond + desolv Energy     =   -6.69 kcal/mol
USER        Electrostatic Energy            =   -1.35 kcal/mol
USER    (2) Final Total Internal Energy     =   -2.53 kcal/mol
USER    (3) Torsional Free Energy           =   +2.98 kcal/mol
USER    (4) Unbound System's Energy  [=(2)] =   -2.53 kcal/mol
USER    
USER    
USER  
USER    DPF = D:/Protein_go_brrr/autodock/final/mut_D99N/heme_Fe/dock.dpf
USER    NEWDPF move	heme_Fe_opt.pdbqt
USER    NEWDPF about	-0.174000 -0.001000 -0.047000
USER    NEWDPF tran0	9.544587 11.297668 6.708206
USER    NEWDPF axisangle0	-0.440161 -0.632287 0.637551 -154.695705
USER    NEWDPF quaternion0	-0.429472 -0.616934 0.622070 -0.219031
USER    NEWDPF dihe0	-32.96 -53.76 172.52 -154.11 79.69 -180.00 -68.41 54.46 164.92 174.35 
USER  
USER                              x       y       z    vdW   Elec        q     RMS 
ATOM      1  C   UNL d   1      10.162   9.408   7.218 -0.10 +0.01    +0.064    13.466
ATOM      2  C   UNL d   1       7.507  12.926   9.457 -0.25 -0.01    +0.064    13.466
ATOM      3  C   UNL d   1       7.025  15.155   5.230 -0.24 -0.01    +0.064    13.466
ATOM      4  C   UNL d   1       9.679  11.817   3.063 -0.18 +0.00    +0.064    13.466
ATOM      5  C   UNL d   1       9.530  10.236   8.256 -0.09 +0.00    +0.066    13.466
ATOM      6  C   UNL d   1       9.565   9.964   9.614 -0.14 -0.00    -0.021    13.466
ATOM      7  C   UNL d   1       8.825  10.940  10.234 -0.18 -0.00    -0.025    13.466
ATOM      8  C   UNL d   1       8.365  11.770   9.230 -0.24 -0.00    +0.066    13.466
ATOM      9  C   UNL d   1       8.594  11.069  11.709 -0.15 -0.00    +0.051    13.466
ATOM     10  C   UNL d   1       7.098  13.776   8.513 -0.26 -0.01    +0.066    13.466
ATOM     11  C   UNL d   1       6.184  14.807   8.743 -0.26 +0.00    -0.021    13.466
ATOM     12  C   UNL d   1       6.015  15.454   7.536 -0.26 -0.00    +0.000    13.466
ATOM     13  C   UNL d   1       6.836  14.773   6.621 -0.07 -0.02    +0.070    13.466
ATOM     14  C   UNL d   1       5.454  15.118  10.034 -0.22 -0.01    +0.052    13.466
ATOM     15  C   UNL d   1       7.773  14.472   4.333 -0.22 -0.01    +0.066    13.466
ATOM     16  C   UNL d   1       8.009  14.924   3.040 -0.17 +0.00    -0.021    13.466
ATOM     17  C   UNL d   1       8.771  13.961   2.412 -0.16 +0.00    +0.000    13.466
ATOM     18  C   UNL d   1       8.980  12.940   3.337 -0.18 +0.00    +0.070    13.466
ATOM     19  C   UNL d   1       7.516  16.198   2.410 -0.13 +0.00    +0.052    13.466
ATOM     20  C   UNL d   1       9.972  10.751   4.029 -0.05 +0.00    +0.066    13.466
ATOM     21  C   UNL d   1      10.517   9.498   3.712 -0.12 -0.00    -0.025    13.466
ATOM     22  C   UNL d   1      10.658   8.833   4.912 -0.12 -0.00    -0.021    13.466
ATOM     23  C   UNL d   1      10.189   9.698   5.908 -0.10 +0.00    +0.066    13.466
ATOM     24  C   UNL d   1      10.886   8.946   2.354 -0.11 +0.00    +0.051    13.466
ATOM     25  N   UNL d   1       8.804  11.344   8.028 -0.16 -0.00    -0.248    13.466
ATOM     26  N   UNL d   1       7.490  13.744   7.214 -0.18 +0.04    -0.248    13.466
ATOM     27  N   UNL d   1       8.405  13.273   4.531 -0.16 +0.01    -0.248    13.466
ATOM     28  N   UNL d   1       9.730  10.849   5.358 -0.01 -0.01    -0.248    13.466
ATOM     29 FE   UNL d   1       8.611  12.296   6.284 -0.05 -0.00    +0.000    13.466
ATOM     30  C   UNL d   1      10.283   8.848  10.292 -0.10 +0.01    +0.052    13.466
ATOM     31  C   UNL d   1       9.302   7.776  10.754 -0.15 +0.02    +0.115    13.466
ATOM     32  C   UNL d   1       9.488   6.515   9.957 -0.16 +0.06    +0.139    13.466
ATOM     33  O   UNL d   1      10.396   5.739  10.221 +0.04 -0.43    -0.650    13.466
ATOM     34  O   UNL d   1       8.653   6.227   8.944 -0.14 -0.47    -0.776    13.466
ATOM     35  H   UNL d   1       8.995   5.751   8.174 +0.05 +0.17    +0.167    13.466
ATOM     36  C   UNL d   1      11.168   7.427   5.084 -0.11 +0.01    +0.052    13.466
ATOM     37  C   UNL d   1      10.010   6.445   4.985 -0.20 +0.02    +0.115    13.466
ATOM     38  C   UNL d   1       9.965   5.542   6.185 -0.23 +0.07    +0.139    13.466
ATOM     39  O   UNL d   1       9.101   4.684   6.289 -0.35 -0.49    -0.650    13.466
ATOM     40  O   UNL d   1      10.880   5.677   7.161 -0.00 -0.45    -0.776    13.466
ATOM     41  H   UNL d   1      10.580   5.798   8.073 +0.03 +0.13    +0.167    13.466
ATOM     42  C   UNL d   1       5.110  16.624   7.311 -0.24 -0.00    +0.004    13.466
ATOM     43  C   UNL d   1       4.375  16.722   6.195 -0.30 +0.00    +0.012    13.466
ATOM     44  C   UNL d   1       9.284  14.023   1.025 -0.10 +0.00    +0.004    13.466
ATOM     45  C   UNL d   1       8.669  13.364   0.038 -0.15 +0.00    +0.012    13.466
TER
ENDMDL
MODEL       65
USER    Run = 65
USER    Cluster Rank = 26
USER    Number of conformations in this cluster = 1
USER  
USER    RMSD from reference structure       = 13.427 A
USER  
USER    Estimated Free Energy of Binding    =   -4.79 kcal/mol  [=(1)+(2)+(3)-(4)]
USER    Estimated Inhibition Constant, Ki   =  307.74 uM (micromolar)  [Temperature = 298.15 K]
USER    
USER    (1) Final Intermolecular Energy     =   -7.77 kcal/mol
USER        vdW + Hbond + desolv Energy     =   -7.69 kcal/mol
USER        Electrostatic Energy            =   -0.08 kcal/mol
USER    (2) Final Total Internal Energy     =   -1.88 kcal/mol
USER    (3) Torsional Free Energy           =   +2.98 kcal/mol
USER    (4) Unbound System's Energy  [=(2)] =   -1.88 kcal/mol
USER    
USER    
USER  
USER    DPF = D:/Protein_go_brrr/autodock/final/mut_D99N/heme_Fe/dock.dpf
USER    NEWDPF move	heme_Fe_opt.pdbqt
USER    NEWDPF about	-0.174000 -0.001000 -0.047000
USER    NEWDPF tran0	14.672913 0.918687 2.813516
USER    NEWDPF axisangle0	-0.803069 0.357598 -0.476658 -91.037126
USER    NEWDPF quaternion0	-0.572972 0.255138 -0.340085 -0.700678
USER    NEWDPF dihe0	-144.72 -117.15 -179.97 -117.85 -104.08 -131.60 -152.54 53.18 165.94 157.21 
USER  
USER                              x       y       z    vdW   Elec        q     RMS 
ATOM      1  C   UNL d   1      13.795   2.770   2.921 -0.21 +0.00    +0.064    13.427
ATOM      2  C   UNL d   1      15.369  -0.533   6.244 -0.13 +0.01    +0.064    13.427
ATOM      3  C   UNL d   1      17.787  -2.784   2.758 -0.30 -0.01    +0.064    13.427
ATOM      4  C   UNL d   1      16.190   0.341  -0.494 -0.25 -0.01    +0.064    13.427
ATOM      5  C   UNL d   1      13.946   2.001   4.164 -0.22 +0.00    +0.066    13.427
ATOM      6  C   UNL d   1      13.300   2.288   5.355 -0.24 -0.00    -0.021    13.427
ATOM      7  C   UNL d   1      13.741   1.373   6.278 -0.26 -0.00    -0.025    13.427
ATOM      8  C   UNL d   1      14.640   0.561   5.614 -0.25 +0.00    +0.066    13.427
ATOM      9  C   UNL d   1      13.303   1.280   7.708 -0.27 +0.01    +0.051    13.427
ATOM     10  C   UNL d   1      16.198  -1.367   5.613 -0.24 -0.00    +0.066    13.427
ATOM     11  C   UNL d   1      16.970  -2.332   6.264 -0.28 +0.00    -0.021    13.427
ATOM     12  C   UNL d   1      17.689  -2.984   5.283 -0.25 -0.00    +0.000    13.427
ATOM     13  C   UNL d   1      17.321  -2.371   4.072 -0.23 -0.01    +0.070    13.427
ATOM     14  C   UNL d   1      17.069  -2.576   7.756 -0.23 -0.00    +0.052    13.427
ATOM     15  C   UNL d   1      17.477  -2.164   1.595 -0.26 -0.01    +0.066    13.427
ATOM     16  C   UNL d   1      17.861  -2.649   0.351 -0.33 +0.00    -0.021    13.427
ATOM     17  C   UNL d   1      17.405  -1.748  -0.588 -0.32 -0.00    +0.000    13.427
ATOM     18  C   UNL d   1      16.755  -0.730   0.107 -0.21 -0.01    +0.070    13.427
ATOM     19  C   UNL d   1      18.649  -3.897   0.055 -0.35 -0.02    +0.052    13.427
ATOM     20  C   UNL d   1      15.445   1.399   0.199 -0.18 -0.00    +0.066    13.427
ATOM     21  C   UNL d   1      15.031   2.608  -0.377 -0.17 -0.00    -0.025    13.427
ATOM     22  C   UNL d   1      14.339   3.279   0.610 -0.15 -0.00    -0.021    13.427
ATOM     23  C   UNL d   1      14.364   2.460   1.745 -0.18 +0.00    +0.066    13.427
ATOM     24  C   UNL d   1      15.271   3.115  -1.780 -0.01 +0.01    +0.051    13.427
ATOM     25  N   UNL d   1      14.755   0.940   4.326 -0.17 -0.00    -0.248    13.427
ATOM     26  N   UNL d   1      16.419  -1.379   4.274 -0.19 +0.02    -0.248    13.427
ATOM     27  N   UNL d   1      16.761  -1.007   1.445 -0.10 +0.01    -0.248    13.427
ATOM     28  N   UNL d   1      15.079   1.335   1.502 -0.11 -0.00    -0.248    13.427
ATOM     29 FE   UNL d   1      15.750  -0.022   2.886 -0.06 -0.00    +0.000    13.427
ATOM     30  C   UNL d   1      12.298   3.364   5.601 -0.25 +0.01    +0.052    13.427
ATOM     31  C   UNL d   1      12.923   4.516   6.380 -0.09 +0.03    +0.115    13.427
ATOM     32  C   UNL d   1      14.400   4.593   6.112 -0.02 +0.02    +0.139    13.427
ATOM     33  O   UNL d   1      15.206   4.201   6.944 +0.04 -0.07    -0.650    13.427
ATOM     34  O   UNL d   1      14.850   5.096   4.950 +0.03 -0.05    -0.776    13.427
ATOM     35  H   UNL d   1      14.369   5.827   4.537 +0.01 +0.01    +0.167    13.427
ATOM     36  C   UNL d   1      13.731   4.651   0.481 -0.07 -0.00    +0.052    13.427
ATOM     37  C   UNL d   1      14.577   5.660   1.243 -0.05 +0.00    +0.115    13.427
ATOM     38  C   UNL d   1      13.733   6.461   2.194 -0.04 +0.00    +0.139    13.427
ATOM     39  O   UNL d   1      13.819   7.679   2.233 +0.00 -0.02    -0.650    13.427
ATOM     40  O   UNL d   1      12.873   5.836   3.017 +0.02 -0.04    -0.776    13.427
ATOM     41  H   UNL d   1      13.219   5.221   3.679 +0.02 +0.01    +0.167    13.427
ATOM     42  C   UNL d   1      18.661  -4.094   5.528 -0.15 +0.00    +0.004    13.427
ATOM     43  C   UNL d   1      19.878  -4.081   4.969 -0.18 +0.00    +0.012    13.427
ATOM     44  C   UNL d   1      17.562  -1.863  -2.056 -0.45 -0.00    +0.004    13.427
ATOM     45  C   UNL d   1      18.775  -1.839  -2.618 -0.39 -0.00    +0.012    13.427
TER
ENDMDL
MODEL       32
USER    Run = 32
USER    Cluster Rank = 27
USER    Number of conformations in this cluster = 1
USER  
USER    RMSD from reference structure       = 17.137 A
USER  
USER    Estimated Free Energy of Binding    =   -4.77 kcal/mol  [=(1)+(2)+(3)-(4)]
USER    Estimated Inhibition Constant, Ki   =  316.32 uM (micromolar)  [Temperature = 298.15 K]
USER    
USER    (1) Final Intermolecular Energy     =   -7.76 kcal/mol
USER        vdW + Hbond + desolv Energy     =   -4.30 kcal/mol
USER        Electrostatic Energy            =   -3.46 kcal/mol
USER    (2) Final Total Internal Energy     =   -2.69 kcal/mol
USER    (3) Torsional Free Energy           =   +2.98 kcal/mol
USER    (4) Unbound System's Energy  [=(2)] =   -2.69 kcal/mol
USER    
USER    
USER  
USER    DPF = D:/Protein_go_brrr/autodock/final/mut_D99N/heme_Fe/dock.dpf
USER    NEWDPF move	heme_Fe_opt.pdbqt
USER    NEWDPF about	-0.174000 -0.001000 -0.047000
USER    NEWDPF tran0	1.669415 2.674673 -18.343553
USER    NEWDPF axisangle0	0.413055 -0.861131 0.296377 -60.564689
USER    NEWDPF quaternion0	0.208288 -0.434235 0.149452 -0.863551
USER    NEWDPF dihe0	-33.98 -86.17 74.11 -148.94 63.50 90.95 -94.75 98.93 179.35 -162.82 
USER  
USER                              x       y       z    vdW   Elec        q     RMS 
ATOM      1  C   UNL d   1       0.184   2.210 -19.681 -0.05 +0.04    +0.064    17.137
ATOM      2  C   UNL d   1       3.889  -0.301 -17.583 -0.22 +0.02    +0.064    17.137
ATOM      3  C   UNL d   1       4.381   3.240 -14.376 -0.15 +0.01    +0.064    17.137
ATOM      4  C   UNL d   1       0.868   5.735 -16.455 -0.08 +0.01    +0.064    17.137
ATOM      5  C   UNL d   1       1.236   1.213 -19.439 -0.10 +0.04    +0.066    17.137
ATOM      6  C   UNL d   1       1.474   0.105 -20.235 -0.14 -0.01    -0.021    17.137
ATOM      7  C   UNL d   1       2.500  -0.594 -19.650 -0.18 -0.01    -0.025    17.137
ATOM      8  C   UNL d   1       2.851   0.116 -18.518 -0.06 +0.02    +0.066    17.137
ATOM      9  C   UNL d   1       3.115  -1.858 -20.167 -0.29 +0.02    +0.051    17.137
ATOM     10  C   UNL d   1       4.285   0.394 -16.515 -0.18 +0.02    +0.066    17.137
ATOM     11  C   UNL d   1       5.201  -0.085 -15.576 -0.30 -0.01    -0.021    17.137
ATOM     12  C   UNL d   1       5.348   0.911 -14.631 -0.27 +0.00    +0.000    17.137
ATOM     13  C   UNL d   1       4.499   1.953 -15.043 -0.13 +0.02    +0.070    17.137
ATOM     14  C   UNL d   1       5.853  -1.452 -15.542 -0.47 +0.02    +0.052    17.137
ATOM     15  C   UNL d   1       3.528   4.227 -14.739 -0.11 +0.02    +0.066    17.137
ATOM     16  C   UNL d   1       3.516   5.479 -14.138 -0.11 -0.00    -0.021    17.137
ATOM     17  C   UNL d   1       2.501   6.199 -14.734 -0.08 +0.00    +0.000    17.137
ATOM     18  C   UNL d   1       1.914   5.366 -15.683 +0.05 +0.02    +0.070    17.137
ATOM     19  C   UNL d   1       4.406   5.974 -13.030 -0.10 +0.01    +0.052    17.137
ATOM     20  C   UNL d   1       0.264   4.908 -17.506 -0.05 +0.02    +0.066    17.137
ATOM     21  C   UNL d   1      -0.936   5.194 -18.173 -0.02 -0.01    -0.025    17.137
ATOM     22  C   UNL d   1      -1.105   4.183 -19.096 -0.01 -0.01    -0.021    17.137
ATOM     23  C   UNL d   1      -0.011   3.321 -18.953 -0.01 +0.03    +0.066    17.137
ATOM     24  C   UNL d   1      -1.882   6.352 -17.956 -0.02 +0.01    +0.051    17.137
ATOM     25  N   UNL d   1       2.086   1.220 -18.397 -0.07 -0.11    -0.248    17.137
ATOM     26  N   UNL d   1       3.844   1.635 -16.187 -0.05 -0.07    -0.248    17.137
ATOM     27  N   UNL d   1       2.572   4.168 -15.718 -0.06 -0.07    -0.248    17.137
ATOM     28  N   UNL d   1       0.798   3.744 -17.952 -0.02 -0.09    -0.248    17.137
ATOM     29 FE   UNL d   1       2.320   2.691 -17.069 -0.02 +0.00    +0.000    17.137
ATOM     30  C   UNL d   1       0.777  -0.262 -21.500 -0.11 +0.02    +0.052    17.137
ATOM     31  C   UNL d   1      -0.417  -1.167 -21.216 -0.12 +0.09    +0.115    17.137
ATOM     32  C   UNL d   1      -1.631  -0.346 -20.879 -0.13 +0.14    +0.139    17.137
ATOM     33  O   UNL d   1      -2.118   0.415 -21.703 +0.02 -0.43    -0.650    17.137
ATOM     34  O   UNL d   1      -2.192  -0.441 -19.662 +0.07 -1.73    -0.776    17.137
ATOM     35  H   UNL d   1      -2.594   0.346 -19.267 +0.02 +0.34    +0.167    17.137
ATOM     36  C   UNL d   1      -2.278   4.030 -20.028 -0.01 +0.03    +0.052    17.137
ATOM     37  C   UNL d   1      -3.539   3.752 -19.224 -0.06 +0.11    +0.115    17.137
ATOM     38  C   UNL d   1      -3.635   2.298 -18.858 +0.00 +0.22    +0.139    17.137
ATOM     39  O   UNL d   1      -3.164   1.885 -17.808 +0.01 -1.04    -0.650    17.137
ATOM     40  O   UNL d   1      -4.242   1.435 -19.691 +0.06 -1.35    -0.776    17.137
ATOM     41  H   UNL d   1      -3.708   0.948 -20.335 +0.03 +0.20    +0.167    17.137
ATOM     42  C   UNL d   1       6.231   0.826 -13.427 -0.23 +0.00    +0.004    17.137
ATOM     43  C   UNL d   1       7.202   1.724 -13.220 -0.32 +0.00    +0.012    17.137
ATOM     44  C   UNL d   1       2.131   7.600 -14.429 -0.09 +0.00    +0.004    17.137
ATOM     45  C   UNL d   1       1.155   7.876 -13.558 -0.12 -0.00    +0.012    17.137
TER
ENDMDL
MODEL       46
USER    Run = 46
USER    Cluster Rank = 28
USER    Number of conformations in this cluster = 1
USER  
USER    RMSD from reference structure       = 17.029 A
USER  
USER    Estimated Free Energy of Binding    =   -4.62 kcal/mol  [=(1)+(2)+(3)-(4)]
USER    Estimated Inhibition Constant, Ki   =  408.99 uM (micromolar)  [Temperature = 298.15 K]
USER    
USER    (1) Final Intermolecular Energy     =   -7.61 kcal/mol
USER        vdW + Hbond + desolv Energy     =   -7.60 kcal/mol
USER        Electrostatic Energy            =   -0.00 kcal/mol
USER    (2) Final Total Internal Energy     =   -2.18 kcal/mol
USER    (3) Torsional Free Energy           =   +2.98 kcal/mol
USER    (4) Unbound System's Energy  [=(2)] =   -2.18 kcal/mol
USER    
USER    
USER  
USER    DPF = D:/Protein_go_brrr/autodock/final/mut_D99N/heme_Fe/dock.dpf
USER    NEWDPF move	heme_Fe_opt.pdbqt
USER    NEWDPF about	-0.174000 -0.001000 -0.047000
USER    NEWDPF tran0	-1.761539 17.211214 8.661228
USER    NEWDPF axisangle0	-0.086923 0.527878 0.844860 177.250924
USER    NEWDPF quaternion0	-0.086898 0.527727 0.844617 0.023988
USER    NEWDPF dihe0	164.50 -45.73 177.48 6.27 -95.79 -12.43 2.24 -58.23 -11.62 13.00 
USER  
USER                              x       y       z    vdW   Elec        q     RMS 
ATOM      1  C   UNL d   1       0.099  17.971   9.077 -0.15 +0.00    +0.064    17.029
ATOM      2  C   UNL d   1      -3.290  18.785   5.572 -0.11 +0.02    +0.064    17.029
ATOM      3  C   UNL d   1      -6.525  16.465   8.258 -0.20 -0.00    +0.064    17.029
ATOM      4  C   UNL d   1      -3.235  15.574  11.615 -0.21 -0.02    +0.064    17.029
ATOM      5  C   UNL d   1      -0.534  18.343   7.804 -0.25 +0.01    +0.066    17.029
ATOM      6  C   UNL d   1       0.124  18.931   6.736 -0.24 -0.00    -0.021    17.029
ATOM      7  C   UNL d   1      -0.819  19.161   5.765 -0.22 -0.00    -0.025    17.029
ATOM      8  C   UNL d   1      -2.017  18.702   6.277 -0.17 +0.01    +0.066    17.029
ATOM      9  C   UNL d   1      -0.570  19.767   4.418 -0.19 +0.01    +0.051    17.029
ATOM     10  C   UNL d   1      -4.449  18.300   6.020 -0.21 +0.02    +0.066    17.029
ATOM     11  C   UNL d   1      -5.673  18.495   5.374 -0.22 -0.01    -0.021    17.029
ATOM     12  C   UNL d   1      -6.625  17.850   6.138 -0.20 +0.00    +0.000    17.029
ATOM     13  C   UNL d   1      -5.927  17.295   7.225 -0.23 +0.01    +0.070    17.029
ATOM     14  C   UNL d   1      -5.933  19.316   4.127 -0.15 +0.03    +0.052    17.029
ATOM     15  C   UNL d   1      -5.868  15.972   9.335 -0.27 -0.01    +0.066    17.029
ATOM     16  C   UNL d   1      -6.451  15.100  10.246 -0.30 +0.00    -0.021    17.029
ATOM     17  C   UNL d   1      -5.505  14.845  11.217 -0.28 -0.00    +0.000    17.029
ATOM     18  C   UNL d   1      -4.366  15.571  10.876 -0.23 -0.01    +0.070    17.029
ATOM     19  C   UNL d   1      -7.851  14.547  10.221 -0.37 -0.02    +0.052    17.029
ATOM     20  C   UNL d   1      -1.997  16.277  11.256 -0.22 -0.01    +0.066    17.029
ATOM     21  C   UNL d   1      -0.892  16.454  12.101 -0.17 +0.00    -0.025    17.029
ATOM     22  C   UNL d   1       0.051  17.128  11.353 -0.13 +0.00    -0.021    17.029
ATOM     23  C   UNL d   1      -0.515  17.341  10.090 -0.12 +0.00    +0.066    17.029
ATOM     24  C   UNL d   1      -0.724  16.018  13.538 -0.20 -0.01    +0.051    17.029
ATOM     25  N   UNL d   1      -1.839  18.197   7.514 -0.18 -0.02    -0.248    17.029
ATOM     26  N   UNL d   1      -4.602  17.577   7.158 -0.17 -0.03    -0.248    17.029
ATOM     27  N   UNL d   1      -4.573  16.230   9.697 -0.16 +0.02    -0.248    17.029
ATOM     28  N   UNL d   1      -1.781  16.859  10.052 -0.17 +0.01    -0.248    17.029
ATOM     29 FE   UNL d   1      -3.192  17.217   8.607 -0.05 -0.00    +0.000    17.029
ATOM     30  C   UNL d   1       1.578  19.242   6.633 -0.19 +0.00    +0.052    17.029
ATOM     31  C   UNL d   1       2.379  17.982   6.324 -0.23 +0.01    +0.115    17.029
ATOM     32  C   UNL d   1       3.849  18.291   6.276 -0.18 +0.01    +0.139    17.029
ATOM     33  O   UNL d   1       4.404  18.519   5.210 +0.00 -0.02    -0.650    17.029
ATOM     34  O   UNL d   1       4.570  18.320   7.410 +0.04 -0.01    -0.776    17.029
ATOM     35  H   UNL d   1       4.107  18.367   8.259 +0.03 +0.00    +0.167    17.029
ATOM     36  C   UNL d   1       1.400  17.584  11.843 -0.10 -0.00    +0.052    17.029
ATOM     37  C   UNL d   1       2.493  16.757  11.182 -0.09 -0.00    +0.115    17.029
ATOM     38  C   UNL d   1       3.438  17.632  10.409 -0.08 -0.00    +0.139    17.029
ATOM     39  O   UNL d   1       3.161  18.800  10.177 -0.00 +0.00    -0.650    17.029
ATOM     40  O   UNL d   1       4.603  17.131   9.961 +0.02 +0.01    -0.776    17.029
ATOM     41  H   UNL d   1       4.873  17.312   9.050 +0.03 -0.00    +0.167    17.029
ATOM     42  C   UNL d   1      -8.087  17.807   5.827 -0.13 +0.00    +0.004    17.029
ATOM     43  C   UNL d   1      -9.001  18.025   6.780 -0.15 -0.00    +0.012    17.029
ATOM     44  C   UNL d   1      -5.673  13.948  12.382 -0.33 -0.00    +0.004    17.029
ATOM     45  C   UNL d   1      -5.939  12.648  12.214 -0.47 -0.00    +0.012    17.029
TER
ENDMDL
MODEL       73
USER    Run = 73
USER    Cluster Rank = 29
USER    Number of conformations in this cluster = 1
USER  
USER    RMSD from reference structure       = 14.720 A
USER  
USER    Estimated Free Energy of Binding    =   -4.25 kcal/mol  [=(1)+(2)+(3)-(4)]
USER    Estimated Inhibition Constant, Ki   =  772.68 uM (micromolar)  [Temperature = 298.15 K]
USER    
USER    (1) Final Intermolecular Energy     =   -7.23 kcal/mol
USER        vdW + Hbond + desolv Energy     =   -6.97 kcal/mol
USER        Electrostatic Energy            =   -0.26 kcal/mol
USER    (2) Final Total Internal Energy     =   -2.11 kcal/mol
USER    (3) Torsional Free Energy           =   +2.98 kcal/mol
USER    (4) Unbound System's Energy  [=(2)] =   -2.11 kcal/mol
USER    
USER    
USER  
USER    DPF = D:/Protein_go_brrr/autodock/final/mut_D99N/heme_Fe/dock.dpf
USER    NEWDPF move	heme_Fe_opt.pdbqt
USER    NEWDPF about	-0.174000 -0.001000 -0.047000
USER    NEWDPF tran0	7.514409 13.664037 5.988486
USER    NEWDPF axisangle0	-0.457890 -0.461697 -0.759719 172.330741
USER    NEWDPF quaternion0	-0.456865 -0.460663 -0.758018 0.066877
USER    NEWDPF dihe0	-135.27 -17.31 27.26 -165.03 -85.03 37.20 -6.92 -64.27 -41.92 1.34 
USER  
USER                              x       y       z    vdW   Elec        q     RMS 
ATOM      1  C   UNL d   1       9.033  13.002   4.778 -0.18 -0.00    +0.064    14.720
ATOM      2  C   UNL d   1       5.730  16.670   4.526 -0.21 -0.00    +0.064    14.720
ATOM      3  C   UNL d   1       4.798  16.059   9.198 -0.13 -0.00    +0.064    14.720
ATOM      4  C   UNL d   1       7.914  12.437   9.439 -0.28 -0.00    +0.064    14.720
ATOM      5  C   UNL d   1       8.129  14.035   4.254 -0.22 -0.00    +0.066    14.720
ATOM      6  C   UNL d   1       8.035  14.402   2.922 -0.20 +0.00    -0.021    14.720
ATOM      7  C   UNL d   1       7.120  15.423   2.853 -0.21 +0.00    -0.025    14.720
ATOM      8  C   UNL d   1       6.690  15.641   4.148 -0.23 -0.00    +0.066    14.720
ATOM      9  C   UNL d   1       6.677  16.130   1.609 -0.18 +0.00    +0.051    14.720
ATOM     10  C   UNL d   1       5.255  16.862   5.758 -0.23 -0.00    +0.066    14.720
ATOM     11  C   UNL d   1       4.424  17.928   6.111 -0.19 -0.00    -0.021    14.720
ATOM     12  C   UNL d   1       4.155  17.784   7.457 -0.15 +0.00    +0.000    14.720
ATOM     13  C   UNL d   1       4.849  16.631   7.862 -0.12 -0.00    +0.070    14.720
ATOM     14  C   UNL d   1       3.964  19.068   5.224 -0.15 +0.00    +0.052    14.720
ATOM     15  C   UNL d   1       5.506  14.979   9.607 -0.22 -0.01    +0.066    14.720
ATOM     16  C   UNL d   1       5.354  14.403  10.861 -0.21 +0.00    -0.021    14.720
ATOM     17  C   UNL d   1       6.254  13.360  10.934 -0.22 -0.00    +0.000    14.720
ATOM     18  C   UNL d   1       6.938  13.327   9.721 -0.23 -0.01    +0.070    14.720
ATOM     19  C   UNL d   1       4.418  14.830  11.961 -0.19 -0.01    +0.052    14.720
ATOM     20  C   UNL d   1       8.613  12.332   8.152 -0.22 -0.00    +0.066    14.720
ATOM     21  C   UNL d   1       9.755  11.555   7.911 -0.15 -0.00    -0.025    14.720
ATOM     22  C   UNL d   1      10.049  11.721   6.574 -0.14 -0.00    -0.021    14.720
ATOM     23  C   UNL d   1       9.084  12.593   6.056 -0.14 -0.00    +0.066    14.720
ATOM     24  C   UNL d   1      10.537  10.702   8.882 -0.09 +0.00    +0.051    14.720
ATOM     25  N   UNL d   1       7.299  14.788   4.997 -0.15 +0.04    -0.248    14.720
ATOM     26  N   UNL d   1       5.527  16.074   6.829 -0.17 +0.02    -0.248    14.720
ATOM     27  N   UNL d   1       6.449  14.294   8.888 -0.19 +0.04    -0.248    14.720
ATOM     28  N   UNL d   1       8.237  12.998   7.034 -0.18 +0.02    -0.248    14.720
ATOM     29 FE   UNL d   1       6.883  14.535   6.933 -0.06 -0.00    +0.000    14.720
ATOM     30  C   UNL d   1       8.760  13.800   1.767 -0.16 +0.00    +0.052    14.720
ATOM     31  C   UNL d   1       8.682  12.278   1.814 -0.14 +0.01    +0.115    14.720
ATOM     32  C   UNL d   1       9.269  11.683   0.565 -0.07 +0.03    +0.139    14.720
ATOM     33  O   UNL d   1       8.587  11.552  -0.442 -0.46 -0.30    -0.650    14.720
ATOM     34  O   UNL d   1      10.553  11.287   0.544 +0.02 -0.07    -0.776    14.720
ATOM     35  H   UNL d   1      10.900  10.779   1.291 +0.02 +0.01    +0.167    14.720
ATOM     36  C   UNL d   1      11.220  11.114   5.849 -0.08 +0.00    +0.052    14.720
ATOM     37  C   UNL d   1      10.773   9.862   5.108 -0.11 +0.01    +0.115    14.720
ATOM     38  C   UNL d   1      10.895  10.043   3.621 -0.09 +0.01    +0.139    14.720
ATOM     39  O   UNL d   1      11.829  10.671   3.143 +0.01 -0.02    -0.650    14.720
ATOM     40  O   UNL d   1       9.969   9.515   2.802 +0.02 -0.02    -0.776    14.720
ATOM     41  H   UNL d   1       9.904   9.840   1.894 +0.03 +0.01    +0.167    14.720
ATOM     42  C   UNL d   1       3.306  18.714   8.264 -0.13 +0.00    +0.004    14.720
ATOM     43  C   UNL d   1       1.971  18.702   8.153 -0.16 +0.00    +0.012    14.720
ATOM     44  C   UNL d   1       6.434  12.442  12.082 -0.25 -0.00    +0.004    14.720
ATOM     45  C   UNL d   1       7.548  12.478  12.820 -0.18 -0.00    +0.012    14.720
TER
ENDMDL


AVSFLD: # AVS field file
AVSFLD: #
AVSFLD: # Created by AutoDock
AVSFLD: #
AVSFLD: ndim=2           # number of dimensions in the field
AVSFLD: nspace=1         # number of physical coordinates
AVSFLD: veclen=7         # vector size
AVSFLD: dim1=45          # atoms
AVSFLD: dim2=29          # conformations
AVSFLD: data=Real       # data type (byte,integer,Real,double)
AVSFLD: field=uniform    # field coordinate layout
AVSFLD: label= x y z vdW Elec q RMS
AVSFLD: variable 1 file = D:/Protein_go_brrr/autodock/final/mut_D99N/heme_Fe/dock.dlg.pdb filetype = ascii offset = 5 stride = 12
AVSFLD: variable 2 file = D:/Protein_go_brrr/autodock/final/mut_D99N/heme_Fe/dock.dlg.pdb filetype = ascii offset = 6 stride = 12
AVSFLD: variable 3 file = D:/Protein_go_brrr/autodock/final/mut_D99N/heme_Fe/dock.dlg.pdb filetype = ascii offset = 7 stride = 12
AVSFLD: variable 4 file = D:/Protein_go_brrr/autodock/final/mut_D99N/heme_Fe/dock.dlg.pdb filetype = ascii offset = 8 stride = 12
AVSFLD: variable 5 file = D:/Protein_go_brrr/autodock/final/mut_D99N/heme_Fe/dock.dlg.pdb filetype = ascii offset = 9 stride = 12
AVSFLD: variable 6 file = D:/Protein_go_brrr/autodock/final/mut_D99N/heme_Fe/dock.dlg.pdb filetype = ascii offset = 10 stride = 12
AVSFLD: variable 7 file = D:/Protein_go_brrr/autodock/final/mut_D99N/heme_Fe/dock.dlg.pdb filetype = ascii offset = 11 stride = 12
AVSFLD: # end of file

>>> Closing the docking parameter file (DPF)...
This docking finished at:			8:11 10" a.m., 10/03/2025


________________________________________________________________________________

D:/autodockScripts/autodock4.exe: Successful Completion on "ACER"

Real= 14h 36m 12.92s,  CPU= 6m 37.97s,  System= 1m 25.98s
________________________________________________________________________________

