          AutoDock 4.2 Release 4.2.6   
         (C) 1989-2012 The Scripps Research Institute
        AutoDock comes with ABSOLUTELY NO WARRANTY.
        AutoDock is free software, and you are welcome
        to redistribute it under certain conditions;
        for details type 'autodock4 -C'

                     main.cc  $Revision: 1.213 $

                   Compiled on Jul 18 2014 at 15:34:58


This file was created at:			4:17 55" p.m., 09/29/2025
                   on host:		"ACER"
Current Working Directory = "D:\Protein_go_brrr\autodock\final\AncA\2_3_BPG"

      ________________________________________________________________

                   SETTING UP DEFAULT PARAMETER LIBRARY
      ________________________________________________________________


Random number generator was seeded with values 103052, 1759155475.
Docking parameter file (DPF) used for this docking:		D:/Protein_go_brrr/autodock/final/AncA/2_3_BPG/dock.dpf
DPF> autodock_parameter_version 4.2       # used by autodock to validate parameter set

	Autodock parameter version 4.2.
DPF> outlev 1                             # diagnostic output level

Output Level = 1  ADT-COMPATIBLE OUTPUT DURING DOCKING.
DPF> intelec                              # calculate internal electrostatics

Electrostatic energies will be calculated for all non-bonds between moving atoms.
DPF> seed pid time                        # seeds for random generator

Random number generator was seeded with values 103052, 1759155475.
DPF> ligand_types P C OA                  # atoms types in ligand

DPF> fld opt_AncA.maps.fld                # grid_data_file

Opening Grid Map Dimensions file:		opt_AncA.maps.fld
Grid Point Spacing =				0.414 Angstroms

Even Number of User-specified Grid Points =	126 x-points
						126 y-points
						126 z-points

Coordinates of Central Grid Point of Maps =	(-0.462, -1.415, -1.889)
Macromolecule file used to create Grid Maps =	opt_AncA.pdbqt
Grid Parameter file used to create Grid Maps =	D:/Protein_go_brrr/autodock/final/AncA/2_3_BPG/grid.gpf
Minimum coordinates in grid = (-26.544, -27.497, -27.971)
Maximum coordinates in grid = (25.620, 24.667, 24.193)

DPF> map opt_AncA.P.map                   # atom-specific affinity map

DPF> map opt_AncA.C.map                   # atom-specific affinity map

DPF> map opt_AncA.OA.map                  # atom-specific affinity map

DPF> elecmap opt_AncA.e.map               # electrostatics map

DPF> desolvmap opt_AncA.d.map             # desolvation map

DPF> move 2_3_BPG_opt.pdbqt               # small molecule

1,4-interactions will be _ignored_ in the non-bonded internal energy calculation.

Ligand PDBQT file = "2_3_BPG_opt.pdbqt"

INPUT LIGAND PDBQT FILE:
________________________

INPUT-LIGAND-PDBQT: REMARK  6 active torsions:
INPUT-LIGAND-PDBQT: REMARK  status: ('A' for Active; 'I' for Inactive)
INPUT-LIGAND-PDBQT: REMARK    1  A    between atoms: P_1  and  O_3 
INPUT-LIGAND-PDBQT: REMARK    2  A    between atoms: P_2  and  O_4 
INPUT-LIGAND-PDBQT: REMARK    3  A    between atoms: O_3  and  C_13 
INPUT-LIGAND-PDBQT: REMARK    4  A    between atoms: O_4  and  C_14 
INPUT-LIGAND-PDBQT: REMARK    5  A    between atoms: C_13  and  C_14 
INPUT-LIGAND-PDBQT: REMARK    6  A    between atoms: C_13  and  C_15 
INPUT-LIGAND-PDBQT: ROOT
INPUT-LIGAND-PDBQT: ATOM      1  C   UNL d   1      -0.571  -0.229   0.124  0.00  0.00     0.193 C 
INPUT-LIGAND-PDBQT: ENDROOT
INPUT-LIGAND-PDBQT: BRANCH   1   2
INPUT-LIGAND-PDBQT: ATOM      2  O   UNL d   1      -1.621   0.569  -0.519  0.00  0.00    -0.356 OA
INPUT-LIGAND-PDBQT: BRANCH   2   3
INPUT-LIGAND-PDBQT: ATOM      3  P   UNL d   1      -3.039   0.957   0.218  0.00  0.00    -0.014 P 
INPUT-LIGAND-PDBQT: ATOM      4  O   UNL d   1      -3.756   1.871  -0.788  0.00  0.00    -0.577 OA
INPUT-LIGAND-PDBQT: ATOM      5  O   UNL d   1      -2.691   1.702   1.505  0.00  0.00    -0.577 OA
INPUT-LIGAND-PDBQT: ATOM      6  O   UNL d   1      -3.816  -0.334   0.454  0.00  0.00    -0.638 OA
INPUT-LIGAND-PDBQT: ENDBRANCH   2   3
INPUT-LIGAND-PDBQT: ENDBRANCH   1   2
INPUT-LIGAND-PDBQT: BRANCH   1   7
INPUT-LIGAND-PDBQT: ATOM      7  C   UNL d   1       0.831   0.324  -0.327  0.00  0.00     0.201 C 
INPUT-LIGAND-PDBQT: BRANCH   7   8
INPUT-LIGAND-PDBQT: ATOM      8  O   UNL d   1       1.946  -0.012   0.528  0.00  0.00    -0.364 OA
INPUT-LIGAND-PDBQT: BRANCH   8   9
INPUT-LIGAND-PDBQT: ATOM      9  P   UNL d   1       3.455   0.578   0.194  0.00  0.00    -0.015 P 
INPUT-LIGAND-PDBQT: ATOM     10  O   UNL d   1       4.367  -0.029   1.267  0.00  0.00    -0.577 OA
INPUT-LIGAND-PDBQT: ATOM     11  O   UNL d   1       3.374   2.100   0.308  0.00  0.00    -0.577 OA
INPUT-LIGAND-PDBQT: ATOM     12  O   UNL d   1       3.825   0.102  -1.210  0.00  0.00    -0.638 OA
INPUT-LIGAND-PDBQT: ENDBRANCH   8   9
INPUT-LIGAND-PDBQT: ENDBRANCH   7   8
INPUT-LIGAND-PDBQT: ENDBRANCH   1   7
INPUT-LIGAND-PDBQT: BRANCH   1  13
INPUT-LIGAND-PDBQT: ATOM     13  C   UNL d   1      -0.687  -1.734  -0.323  0.00  0.00     0.073 C 
INPUT-LIGAND-PDBQT: ATOM     14  O   UNL d   1      -0.704  -2.000  -1.576  0.00  0.00    -0.547 OA
INPUT-LIGAND-PDBQT: ATOM     15  O   UNL d   1      -0.694  -2.619   0.607  0.00  0.00    -0.547 OA
INPUT-LIGAND-PDBQT: ENDBRANCH   1  13
INPUT-LIGAND-PDBQT: TORSDOF 6
________________________________________________________________________________

Total charge on ligand                               =	-4.960 e
REMARK  6 active torsions:
REMARK  status: ('A' for Active; 'I' for Inactive)
REMARK    1  A    between atoms: P_1  and  O_3 
REMARK    2  A    between atoms: P_2  and  O_4 
REMARK    3  A    between atoms: O_3  and  C_13 
REMARK    4  A    between atoms: O_4  and  C_14 
REMARK    5  A    between atoms: C_13  and  C_14 
REMARK    6  A    between atoms: C_13  and  C_15 


Number of Rotatable Bonds in Small Molecule =	6 torsions
Number of atoms in ligand:  15

Number of non-hydrogen atoms in ligand:  15

Number of vibrational degrees of freedom of ligand:  39


Number of torsional degrees of freedom = 6
Estimated loss of torsional free energy upon binding = +1.7898 kcal/mol


DPF> about 0.015 0.083 0.031            # small molecule center

Small molecule center of rotation =	(+0.015, +0.083, +0.031)

DPF> tran0 random                         # initial coordinates/A or random

Initial translation =			(-14.749, -6.233, -20.947) Angstroms
DPF> quaternion0 random                   # initial orientation

Each run will begin with a new, random initial orientation.
Initial quaternion,  (x,y,z,w) =	( -0.867, -0.170, -0.367, -0.291 ),
DPF> dihe0 random                         # initial dihedrals (relative) or random

DPF> torsdof 6                            # torsional degrees of freedom

Number of torsional degrees of freedom = 6
Free energy coefficient for torsional degrees of freedom = 0.2983, the factory default value.

Estimated loss of torsional free energy upon binding = +1.7898 kcal/mol

DPF> rmstol 2.0                           # cluster_tolerance/A

Maximum RMS tolerance for conformational cluster analysis = 2.00 Angstroms
DPF> extnrg 1000.0                        # external grid energy

External grid energy (beyond grid map walls) = 1000.00

DPF> e0max 0.0 10000                      # max initial energy; max number of retries

Using user-specified maximum number of retries for simanneal initialization, 10000 retries.
If the simanneal initial energy is greater than e0max, 0.000,
then a new, random initial state will be created.

DPF> ga_pop_size 150                      # number of individuals in population

A population of 150 individuals will be used
DPF> ga_num_evals 25000000                # maximum number of energy evaluations

There will be at most 25000000 function evaluations used.
DPF> ga_num_generations 27000             # maximum number of generations

The GA will run for at most 27000 generations.
DPF> ga_elitism 1                         # number of top individuals to survive to next generation

The 1 best will be preserved each GA generation.
DPF> ga_mutation_rate 0.02                # rate of gene mutation

The mutation rate is 0.020000.
DPF> ga_crossover_rate 0.8                # rate of crossover

The crossover rate is 0.800000.
DPF> ga_window_size 10                    # 

The GA's selection window is 10 generations.
DPF> ga_cauchy_alpha 0.0                  # Alpha parameter of Cauchy distribution

The alpha parameter (for the Cauchy distribution) is being set to 0.000000.
DPF> ga_cauchy_beta 1.0                   # Beta parameter Cauchy distribution

The beta parameter (for the Cauchy distribution) is being set to 1.000000.
DPF> set_ga                               # set the above parameters for GA or LGA

DPF> sw_max_its 300                       # iterations of Solis & Wets local search

Solis & Wets algorithms will perform at most 300 iterations.
DPF> sw_max_succ 4                        # consecutive successes before changing rho

Solis & Wets algorithms expand rho every 4 in a row successes.
DPF> sw_max_fail 4                        # consecutive failures before changing rho

Solis & Wets algorithms contract rho every 4 in a row failures.
DPF> sw_rho 1.0                           # size of local search space to sample

rho is set to 1.000000.
DPF> sw_lb_rho 0.01                       # lower bound on rho

rho will never get smaller than 0.010000.
DPF> ls_search_freq 0.06                  # probability of performing local search on individual

Local search will be performed with frequency 0.060000.
DPF> set_psw1                             # set the above pseudo-Solis & Wets parameters

Creating a new Local Search object using the pseudo-Solis-Wets algorithm (pSW1) with the current settings.

DPF> unbound_model bound                  # state of unbound ligand

DPF> ga_run 100                           # do this many hybrid GA-LS runs

centering ligand on specified point: 0.015 0.083 0.031
Furthest true ligand atom from "about" center is 4.525 Angstroms (maxrad).
Number of requested GA dockings = 100 runs
Unbound model to be used is 'same as bound' [AutoDock 4.2 default].

	BEGINNING GENETIC ALGORITHM DOCKING 1 of 100
Run: 1 Seed: 1498745848 2055676852 [ Run 1 of 100 GA/GALS ]
Beginning LAMARCKIAN GENETIC ALGORITHM (LGA), with a maximum of 25000000 energy evaluations.

Final-Value: -10.292


	FINAL GENETIC ALGORITHM DOCKED STATE
	_______________________________________________


Detailed state:  trans -7.876 -13.320 1.341 quatxyzw -0.579097 -0.151810 0.457999 0.657143 center 0.015 0.083 0.031 ntor 6 132.1622 163.9611 177.7000 68.1476 -14.9216 -26.0835
State:	 -7.876 -13.320   1.341  -0.768 -0.201  0.608 97.835    132.16  163.96  177.70   68.15  -14.92  -26.08

DOCKED: MODEL        1
DOCKED: USER    Run = 1
DOCKED: USER    DPF = D:/Protein_go_brrr/autodock/final/AncA/2_3_BPG/dock.dpf
DOCKED: USER  
DOCKED: USER    Estimated Free Energy of Binding    =  -10.53 kcal/mol  [=(1)+(2)+(3)-(4)]
DOCKED: USER    Estimated Inhibition Constant, Ki   =   19.18 nM (nanomolar)  [Temperature = 298.15 K]
DOCKED: USER    
DOCKED: USER    (1) Final Intermolecular Energy     =  -12.32 kcal/mol
DOCKED: USER        vdW + Hbond + desolv Energy     =   -5.16 kcal/mol
DOCKED: USER        Electrostatic Energy            =   -7.16 kcal/mol
DOCKED: USER    (2) Final Total Internal Energy     =   +2.03 kcal/mol
DOCKED: USER    (3) Torsional Free Energy           =   +1.79 kcal/mol
DOCKED: USER    (4) Unbound System's Energy  [=(2)] =   +2.03 kcal/mol
DOCKED: USER    
DOCKED: USER    
DOCKED: USER    NEWDPF move 2_3_BPG_opt.pdbqt
DOCKED: USER    NEWDPF about 0.015000 0.083000 0.031000
DOCKED: USER    NEWDPF tran0 -7.875620 -13.319930 1.340825
DOCKED: USER    NEWDPF quaternion0 -0.579097 -0.151810 0.457999 0.657143
DOCKED: USER    NEWDPF axisangle0 -0.768272 -0.201402 0.607614 97.835289
DOCKED: USER    NEWDPF quat0 -0.768272 -0.201402 0.607614 97.835289
DOCKED: USER    NEWDPF dihe0 132.16 163.96 177.70 68.15 -14.92 -26.08 
DOCKED: USER  keepresnum = 1 
DOCKED: USER  
DOCKED: REMARK  6 active torsions:
DOCKED: REMARK  status: ('A' for Active; 'I' for Inactive)
DOCKED: REMARK    1  A    between atoms: P_1  and  O_3 
DOCKED: REMARK    2  A    between atoms: P_2  and  O_4 
DOCKED: REMARK    3  A    between atoms: O_3  and  C_13 
DOCKED: REMARK    4  A    between atoms: O_4  and  C_14 
DOCKED: REMARK    5  A    between atoms: C_13  and  C_14 
DOCKED: REMARK    6  A    between atoms: C_13  and  C_15 
DOCKED: USER                              x       y       z     vdW  Elec       q    Type
DOCKED: USER                           _______ _______ _______ _____ _____    ______ ____
DOCKED: ROOT
DOCKED: ATOM      1  C   UNL d   1      -8.462 -13.126   1.601 -0.24 +0.19    +0.193 C 
DOCKED: ENDROOT
DOCKED: BRANCH   1   2
DOCKED: ATOM      2  O   UNL d   1      -8.190 -12.172   2.682 -0.72 -0.34    -0.356 OA
DOCKED: BRANCH   2   3
DOCKED: ATOM      3  P   UNL d   1      -7.384 -12.572   4.058 -0.53 -0.02    -0.014 P 
DOCKED: ATOM      4  O   UNL d   1      -7.500 -14.103   4.138 -0.31 -0.91    -0.577 OA
DOCKED: ATOM      5  O   UNL d   1      -8.107 -11.893   5.219 -0.17 -0.27    -0.577 OA
DOCKED: ATOM      6  O   UNL d   1      -5.934 -12.128   3.902 -0.42 -1.03    -0.638 OA
DOCKED: ENDBRANCH   2   3
DOCKED: ENDBRANCH   1   2
DOCKED: BRANCH   1   7
DOCKED: ATOM      7  C   UNL d   1      -7.134 -13.367   0.794 -0.18 +0.29    +0.201 C 
DOCKED: BRANCH   7   8
DOCKED: ATOM      8  O   UNL d   1      -6.812 -14.746   0.507 -0.33 -0.65    -0.364 OA
DOCKED: BRANCH   8   9
DOCKED: ATOM      9  P   UNL d   1      -5.614 -15.111  -0.574 -0.08 -0.03    -0.015 P 
DOCKED: ATOM     10  O   UNL d   1      -5.087 -13.755  -1.058 -0.10 -1.27    -0.577 OA
DOCKED: ATOM     11  O   UNL d   1      -6.262 -15.908  -1.706 -0.48 -1.29    -0.577 OA
DOCKED: ATOM     12  O   UNL d   1      -4.549 -15.904   0.183 -0.47 -1.28    -0.638 OA
DOCKED: ENDBRANCH   8   9
DOCKED: ENDBRANCH   7   8
DOCKED: ENDBRANCH   1   7
DOCKED: BRANCH   1  13
DOCKED: ATOM     13  C   UNL d   1      -9.547 -12.538   0.623 -0.30 +0.05    +0.073 C 
DOCKED: ATOM     14  O   UNL d   1      -9.991 -13.286  -0.318 -0.34 -0.32    -0.547 OA
DOCKED: ATOM     15  O   UNL d   1      -9.972 -11.352   0.869 -0.49 -0.28    -0.547 OA
DOCKED: ENDBRANCH   1  13
DOCKED: TORSDOF 6
DOCKED: TER
DOCKED: ENDMDL
________________________________________________________________________________


	BEGINNING GENETIC ALGORITHM DOCKING 2 of 100
Run: 2 Seed: 485589332 875392335 [ Run 2 of 100 GA/GALS ]
Beginning LAMARCKIAN GENETIC ALGORITHM (LGA), with a maximum of 25000000 energy evaluations.

Final-Value: -9.762


	FINAL GENETIC ALGORITHM DOCKED STATE
	_______________________________________________


Detailed state:  trans -6.727 -13.147 -0.418 quatxyzw -0.833871 -0.477669 0.275818 -0.020389 center 0.015 0.083 0.031 ntor 6 -173.4382 -91.6585 151.8582 80.0402 3.3388 -42.3790
State:	 -6.727 -13.147  -0.418  -0.834 -0.478  0.276 -177.663   -173.44  -91.66  151.86   80.04    3.34  -42.38

DOCKED: MODEL        2
DOCKED: USER    Run = 2
DOCKED: USER    DPF = D:/Protein_go_brrr/autodock/final/AncA/2_3_BPG/dock.dpf
DOCKED: USER  
DOCKED: USER    Estimated Free Energy of Binding    =  -10.18 kcal/mol  [=(1)+(2)+(3)-(4)]
DOCKED: USER    Estimated Inhibition Constant, Ki   =   34.56 nM (nanomolar)  [Temperature = 298.15 K]
DOCKED: USER    
DOCKED: USER    (1) Final Intermolecular Energy     =  -11.97 kcal/mol
DOCKED: USER        vdW + Hbond + desolv Energy     =   -4.50 kcal/mol
DOCKED: USER        Electrostatic Energy            =   -7.47 kcal/mol
DOCKED: USER    (2) Final Total Internal Energy     =   +2.21 kcal/mol
DOCKED: USER    (3) Torsional Free Energy           =   +1.79 kcal/mol
DOCKED: USER    (4) Unbound System's Energy  [=(2)] =   +2.21 kcal/mol
DOCKED: USER    
DOCKED: USER    
DOCKED: USER    NEWDPF move 2_3_BPG_opt.pdbqt
DOCKED: USER    NEWDPF about 0.015000 0.083000 0.031000
DOCKED: USER    NEWDPF tran0 -6.726508 -13.147318 -0.418002
DOCKED: USER    NEWDPF quaternion0 -0.833871 -0.477669 0.275818 -0.020389
DOCKED: USER    NEWDPF axisangle0 -0.834045 -0.477768 0.275875 -177.663441
DOCKED: USER    NEWDPF quat0 -0.834045 -0.477768 0.275875 -177.663441
DOCKED: USER    NEWDPF dihe0 -173.44 -91.66 151.86 80.04 3.34 -42.38 
DOCKED: USER  keepresnum = 1 
DOCKED: USER  
DOCKED: REMARK  6 active torsions:
DOCKED: REMARK  status: ('A' for Active; 'I' for Inactive)
DOCKED: REMARK    1  A    between atoms: P_1  and  O_3 
DOCKED: REMARK    2  A    between atoms: P_2  and  O_4 
DOCKED: REMARK    3  A    between atoms: O_3  and  C_13 
DOCKED: REMARK    4  A    between atoms: O_4  and  C_14 
DOCKED: REMARK    5  A    between atoms: C_13  and  C_14 
DOCKED: REMARK    6  A    between atoms: C_13  and  C_15 
DOCKED: USER                              x       y       z     vdW  Elec       q    Type
DOCKED: USER                           _______ _______ _______ _____ _____    ______ ____
DOCKED: ROOT
DOCKED: ATOM      1  C   UNL d   1      -7.246 -13.473  -0.146 -0.18 +0.24    +0.193 C 
DOCKED: ENDROOT
DOCKED: BRANCH   1   2
DOCKED: ATOM      2  O   UNL d   1      -6.722 -14.607   0.624 -0.36 -0.68    -0.356 OA
DOCKED: BRANCH   2   3
DOCKED: ATOM      3  P   UNL d   1      -5.684 -15.719  -0.000 +0.03 -0.03    -0.014 P 
DOCKED: ATOM      4  O   UNL d   1      -4.295 -15.080   0.161 -0.44 -1.30    -0.577 OA
DOCKED: ATOM      5  O   UNL d   1      -6.050 -15.904  -1.471 -0.48 -1.27    -0.577 OA
DOCKED: ATOM      6  O   UNL d   1      -5.811 -16.996   0.823 -0.10 -0.93    -0.638 OA
DOCKED: ENDBRANCH   2   3
DOCKED: ENDBRANCH   1   2
DOCKED: BRANCH   1   7
DOCKED: ATOM      7  C   UNL d   1      -6.046 -12.537  -0.546 -0.22 +0.26    +0.201 C 
DOCKED: BRANCH   7   8
DOCKED: ATOM      8  O   UNL d   1      -5.801 -12.397  -1.963 -0.18 -0.54    -0.364 OA
DOCKED: BRANCH   8   9
DOCKED: ATOM      9  P   UNL d   1      -4.473 -11.568  -2.497 -0.42 -0.02    -0.015 P 
DOCKED: ATOM     10  O   UNL d   1      -4.139 -10.581  -1.372 -0.06 -0.42    -0.577 OA
DOCKED: ATOM     11  O   UNL d   1      -4.882 -10.851  -3.783 -0.12 -0.48    -0.577 OA
DOCKED: ATOM     12  O   UNL d   1      -3.358 -12.591  -2.712 -0.54 -1.37    -0.638 OA
DOCKED: ENDBRANCH   8   9
DOCKED: ENDBRANCH   7   8
DOCKED: ENDBRANCH   1   7
DOCKED: BRANCH   1  13
DOCKED: ATOM     13  C   UNL d   1      -8.259 -12.647   0.732 -0.28 +0.07    +0.073 C 
DOCKED: ATOM     14  O   UNL d   1      -9.468 -12.532   0.324 -0.44 -0.36    -0.547 OA
DOCKED: ATOM     15  O   UNL d   1      -7.822 -12.186   1.847 -0.70 -0.64    -0.547 OA
DOCKED: ENDBRANCH   1  13
DOCKED: TORSDOF 6
DOCKED: TER
DOCKED: ENDMDL
________________________________________________________________________________


	BEGINNING GENETIC ALGORITHM DOCKING 3 of 100
Run: 3 Seed: 289165135 1544552526 [ Run 3 of 100 GA/GALS ]
Beginning LAMARCKIAN GENETIC ALGORITHM (LGA), with a maximum of 25000000 energy evaluations.

Final-Value: -10.485


	FINAL GENETIC ALGORITHM DOCKED STATE
	_______________________________________________


Detailed state:  trans -6.674 -13.317 -0.383 quatxyzw 0.011081 0.965955 0.070678 0.248622 center 0.015 0.083 0.031 ntor 6 -172.6664 75.4903 -147.2152 9.9661 22.5693 -180.0000
State:	 -6.674 -13.317  -0.383   0.011  0.997  0.073 151.208   -172.67   75.49 -147.22    9.97   22.57 -180.00

DOCKED: MODEL        3
DOCKED: USER    Run = 3
DOCKED: USER    DPF = D:/Protein_go_brrr/autodock/final/AncA/2_3_BPG/dock.dpf
DOCKED: USER  
DOCKED: USER    Estimated Free Energy of Binding    =  -10.84 kcal/mol  [=(1)+(2)+(3)-(4)]
DOCKED: USER    Estimated Inhibition Constant, Ki   =   11.26 nM (nanomolar)  [Temperature = 298.15 K]
DOCKED: USER    
DOCKED: USER    (1) Final Intermolecular Energy     =  -12.63 kcal/mol
DOCKED: USER        vdW + Hbond + desolv Energy     =   -4.51 kcal/mol
DOCKED: USER        Electrostatic Energy            =   -8.12 kcal/mol
DOCKED: USER    (2) Final Total Internal Energy     =   +2.15 kcal/mol
DOCKED: USER    (3) Torsional Free Energy           =   +1.79 kcal/mol
DOCKED: USER    (4) Unbound System's Energy  [=(2)] =   +2.15 kcal/mol
DOCKED: USER    
DOCKED: USER    
DOCKED: USER    NEWDPF move 2_3_BPG_opt.pdbqt
DOCKED: USER    NEWDPF about 0.015000 0.083000 0.031000
DOCKED: USER    NEWDPF tran0 -6.673573 -13.317127 -0.382529
DOCKED: USER    NEWDPF quaternion0 0.011081 0.965955 0.070678 0.248622
DOCKED: USER    NEWDPF axisangle0 0.011441 0.997269 0.072969 151.208011
DOCKED: USER    NEWDPF quat0 0.011441 0.997269 0.072969 151.208011
DOCKED: USER    NEWDPF dihe0 -172.67 75.49 -147.22 9.97 22.57 -180.00 
DOCKED: USER  keepresnum = 1 
DOCKED: USER  
DOCKED: REMARK  6 active torsions:
DOCKED: REMARK  status: ('A' for Active; 'I' for Inactive)
DOCKED: REMARK    1  A    between atoms: P_1  and  O_3 
DOCKED: REMARK    2  A    between atoms: P_2  and  O_4 
DOCKED: REMARK    3  A    between atoms: O_3  and  C_13 
DOCKED: REMARK    4  A    between atoms: O_4  and  C_14 
DOCKED: REMARK    5  A    between atoms: C_13  and  C_14 
DOCKED: REMARK    6  A    between atoms: C_13  and  C_15 
DOCKED: USER                              x       y       z     vdW  Elec       q    Type
DOCKED: USER                           _______ _______ _______ _____ _____    ______ ____
DOCKED: ROOT
DOCKED: ATOM      1  C   UNL d   1      -6.222 -13.605  -0.786 -0.19 +0.32    +0.193 C 
DOCKED: ENDROOT
DOCKED: BRANCH   1   2
DOCKED: ATOM      2  O   UNL d   1      -4.949 -12.892  -0.631 -0.19 -0.57    -0.356 OA
DOCKED: BRANCH   2   3
DOCKED: ATOM      3  P   UNL d   1      -4.156 -12.177  -1.881 -0.28 -0.02    -0.014 P 
DOCKED: ATOM      4  O   UNL d   1      -2.928 -13.071  -2.117 -0.40 -1.13    -0.577 OA
DOCKED: ATOM      5  O   UNL d   1      -3.753 -10.778  -1.421 -0.06 -0.45    -0.577 OA
DOCKED: ATOM      6  O   UNL d   1      -5.087 -12.175  -3.090 -0.22 -1.14    -0.638 OA
DOCKED: ENDBRANCH   2   3
DOCKED: ENDBRANCH   1   2
DOCKED: BRANCH   1   7
DOCKED: ATOM      7  C   UNL d   1      -7.203 -13.141   0.352 -0.20 +0.25    +0.201 C 
DOCKED: BRANCH   7   8
DOCKED: ATOM      8  O   UNL d   1      -6.585 -12.542   1.513 -0.59 -0.61    -0.364 OA
DOCKED: BRANCH   8   9
DOCKED: ATOM      9  P   UNL d   1      -7.349 -12.593   2.979 -0.27 -0.02    -0.015 P 
DOCKED: ATOM     10  O   UNL d   1      -8.074 -13.943   3.005 -0.16 -0.76    -0.577 OA
DOCKED: ATOM     11  O   UNL d   1      -8.327 -11.419   3.013 -0.34 -0.43    -0.577 OA
DOCKED: ATOM     12  O   UNL d   1      -6.267 -12.502   4.055 -0.54 -1.18    -0.638 OA
DOCKED: ENDBRANCH   8   9
DOCKED: ENDBRANCH   7   8
DOCKED: ENDBRANCH   1   7
DOCKED: BRANCH   1  13
DOCKED: ATOM     13  C   UNL d   1      -5.992 -15.156  -0.652 -0.12 +0.14    +0.073 C 
DOCKED: ATOM     14  O   UNL d   1      -6.282 -15.906  -1.650 -0.51 -1.19    -0.547 OA
DOCKED: ATOM     15  O   UNL d   1      -5.461 -15.574   0.440 -0.45 -1.33    -0.547 OA
DOCKED: ENDBRANCH   1  13
DOCKED: TORSDOF 6
DOCKED: TER
DOCKED: ENDMDL
________________________________________________________________________________


	BEGINNING GENETIC ALGORITHM DOCKING 4 of 100
Run: 4 Seed: 471866422 1381644727 [ Run 4 of 100 GA/GALS ]
Beginning LAMARCKIAN GENETIC ALGORITHM (LGA), with a maximum of 25000000 energy evaluations.

Final-Value: -9.719


	FINAL GENETIC ALGORITHM DOCKED STATE
	_______________________________________________


Detailed state:  trans -6.486 -12.805 -0.582 quatxyzw -0.700332 -0.543782 0.442778 -0.133356 center 0.015 0.083 0.031 ntor 6 -22.4303 120.3125 -98.8045 15.2317 57.7821 -107.0662
State:	 -6.486 -12.805  -0.582  -0.707 -0.549  0.447 -164.673    -22.43  120.31  -98.80   15.23   57.78 -107.07

DOCKED: MODEL        4
DOCKED: USER    Run = 4
DOCKED: USER    DPF = D:/Protein_go_brrr/autodock/final/AncA/2_3_BPG/dock.dpf
DOCKED: USER  
DOCKED: USER    Estimated Free Energy of Binding    =  -10.38 kcal/mol  [=(1)+(2)+(3)-(4)]
DOCKED: USER    Estimated Inhibition Constant, Ki   =   24.44 nM (nanomolar)  [Temperature = 298.15 K]
DOCKED: USER    
DOCKED: USER    (1) Final Intermolecular Energy     =  -12.17 kcal/mol
DOCKED: USER        vdW + Hbond + desolv Energy     =   -4.28 kcal/mol
DOCKED: USER        Electrostatic Energy            =   -7.89 kcal/mol
DOCKED: USER    (2) Final Total Internal Energy     =   +2.45 kcal/mol
DOCKED: USER    (3) Torsional Free Energy           =   +1.79 kcal/mol
DOCKED: USER    (4) Unbound System's Energy  [=(2)] =   +2.45 kcal/mol
DOCKED: USER    
DOCKED: USER    
DOCKED: USER    NEWDPF move 2_3_BPG_opt.pdbqt
DOCKED: USER    NEWDPF about 0.015000 0.083000 0.031000
DOCKED: USER    NEWDPF tran0 -6.486464 -12.805257 -0.581608
DOCKED: USER    NEWDPF quaternion0 -0.700332 -0.543782 0.442778 -0.133356
DOCKED: USER    NEWDPF axisangle0 -0.706644 -0.548682 0.446769 -164.672890
DOCKED: USER    NEWDPF quat0 -0.706644 -0.548682 0.446769 -164.672890
DOCKED: USER    NEWDPF dihe0 -22.43 120.31 -98.80 15.23 57.78 -107.07 
DOCKED: USER  keepresnum = 1 
DOCKED: USER  
DOCKED: REMARK  6 active torsions:
DOCKED: REMARK  status: ('A' for Active; 'I' for Inactive)
DOCKED: REMARK    1  A    between atoms: P_1  and  O_3 
DOCKED: REMARK    2  A    between atoms: P_2  and  O_4 
DOCKED: REMARK    3  A    between atoms: O_3  and  C_13 
DOCKED: REMARK    4  A    between atoms: O_4  and  C_14 
DOCKED: REMARK    5  A    between atoms: C_13  and  C_14 
DOCKED: REMARK    6  A    between atoms: C_13  and  C_15 
DOCKED: USER                              x       y       z     vdW  Elec       q    Type
DOCKED: USER                           _______ _______ _______ _____ _____    ______ ____
DOCKED: ROOT
DOCKED: ATOM      1  C   UNL d   1      -6.768 -13.232  -0.148 -0.20 +0.26    +0.193 C 
DOCKED: ENDROOT
DOCKED: BRANCH   1   2
DOCKED: ATOM      2  O   UNL d   1      -5.780 -14.264   0.186 -0.55 -0.78    -0.356 OA
DOCKED: BRANCH   2   3
DOCKED: ATOM      3  P   UNL d   1      -5.987 -15.858  -0.161 -0.13 -0.02    -0.014 P 
DOCKED: ATOM      4  O   UNL d   1      -7.209 -16.276   0.671 -0.03 -0.72    -0.577 OA
DOCKED: ATOM      5  O   UNL d   1      -4.723 -16.587   0.291 -0.21 -0.96    -0.577 OA
DOCKED: ATOM      6  O   UNL d   1      -6.259 -15.983  -1.657 -0.48 -1.37    -0.638 OA
DOCKED: ENDBRANCH   2   3
DOCKED: ENDBRANCH   1   2
DOCKED: BRANCH   1   7
DOCKED: ATOM      7  C   UNL d   1      -6.044 -12.072  -0.926 -0.11 +0.23    +0.201 C 
DOCKED: BRANCH   7   8
DOCKED: ATOM      8  O   UNL d   1      -5.262 -12.473  -2.072 -0.27 -0.64    -0.364 OA
DOCKED: BRANCH   8   9
DOCKED: ATOM      9  P   UNL d   1      -3.636 -12.174  -2.113 -0.20 -0.02    -0.015 P 
DOCKED: ATOM     10  O   UNL d   1      -2.997 -13.333  -1.338 -0.23 -0.98    -0.577 OA
DOCKED: ATOM     11  O   UNL d   1      -3.412 -10.831  -1.419 -0.06 -0.44    -0.577 OA
DOCKED: ATOM     12  O   UNL d   1      -3.215 -12.166  -3.582 -0.49 -1.01    -0.638 OA
DOCKED: ENDBRANCH   8   9
DOCKED: ENDBRANCH   7   8
DOCKED: ENDBRANCH   1   7
DOCKED: BRANCH   1  13
DOCKED: ATOM     13  C   UNL d   1      -7.397 -12.641   1.169 -0.18 +0.09    +0.073 C 
DOCKED: ATOM     14  O   UNL d   1      -6.672 -12.593   2.224 -0.65 -1.05    -0.547 OA
DOCKED: ATOM     15  O   UNL d   1      -8.592 -12.179   1.088 -0.48 -0.45    -0.547 OA
DOCKED: ENDBRANCH   1  13
DOCKED: TORSDOF 6
DOCKED: TER
DOCKED: ENDMDL
________________________________________________________________________________


	BEGINNING GENETIC ALGORITHM DOCKING 5 of 100
Run: 5 Seed: 526232428 1040612566 [ Run 5 of 100 GA/GALS ]
Beginning LAMARCKIAN GENETIC ALGORITHM (LGA), with a maximum of 25000000 energy evaluations.

Final-Value: -9.976


	FINAL GENETIC ALGORITHM DOCKED STATE
	_______________________________________________


Detailed state:  trans -6.375 -13.077 -0.313 quatxyzw -0.815249 -0.457698 0.337099 -0.110662 center 0.015 0.083 0.031 ntor 6 167.2215 21.7754 137.6067 79.4276 5.8649 -44.3112
State:	 -6.375 -13.077  -0.313  -0.820 -0.461  0.339 -167.293    167.22   21.78  137.61   79.43    5.86  -44.31

DOCKED: MODEL        5
DOCKED: USER    Run = 5
DOCKED: USER    DPF = D:/Protein_go_brrr/autodock/final/AncA/2_3_BPG/dock.dpf
DOCKED: USER  
DOCKED: USER    Estimated Free Energy of Binding    =  -10.45 kcal/mol  [=(1)+(2)+(3)-(4)]
DOCKED: USER    Estimated Inhibition Constant, Ki   =   22.04 nM (nanomolar)  [Temperature = 298.15 K]
DOCKED: USER    
DOCKED: USER    (1) Final Intermolecular Energy     =  -12.24 kcal/mol
DOCKED: USER        vdW + Hbond + desolv Energy     =   -4.51 kcal/mol
DOCKED: USER        Electrostatic Energy            =   -7.73 kcal/mol
DOCKED: USER    (2) Final Total Internal Energy     =   +2.26 kcal/mol
DOCKED: USER    (3) Torsional Free Energy           =   +1.79 kcal/mol
DOCKED: USER    (4) Unbound System's Energy  [=(2)] =   +2.26 kcal/mol
DOCKED: USER    
DOCKED: USER    
DOCKED: USER    NEWDPF move 2_3_BPG_opt.pdbqt
DOCKED: USER    NEWDPF about 0.015000 0.083000 0.031000
DOCKED: USER    NEWDPF tran0 -6.375145 -13.076892 -0.312658
DOCKED: USER    NEWDPF quaternion0 -0.815249 -0.457698 0.337099 -0.110662
DOCKED: USER    NEWDPF axisangle0 -0.820287 -0.460526 0.339182 -167.293005
DOCKED: USER    NEWDPF quat0 -0.820287 -0.460526 0.339182 -167.293005
DOCKED: USER    NEWDPF dihe0 167.22 21.78 137.61 79.43 5.86 -44.31 
DOCKED: USER  keepresnum = 1 
DOCKED: USER  
DOCKED: REMARK  6 active torsions:
DOCKED: REMARK  status: ('A' for Active; 'I' for Inactive)
DOCKED: REMARK    1  A    between atoms: P_1  and  O_3 
DOCKED: REMARK    2  A    between atoms: P_2  and  O_4 
DOCKED: REMARK    3  A    between atoms: O_3  and  C_13 
DOCKED: REMARK    4  A    between atoms: O_4  and  C_14 
DOCKED: REMARK    5  A    between atoms: C_13  and  C_14 
DOCKED: REMARK    6  A    between atoms: C_13  and  C_15 
DOCKED: USER                              x       y       z     vdW  Elec       q    Type
DOCKED: USER                           _______ _______ _______ _____ _____    ______ ____
DOCKED: ROOT
DOCKED: ATOM      1  C   UNL d   1      -6.853 -13.396   0.033 -0.19 +0.27    +0.193 C 
DOCKED: ENDROOT
DOCKED: BRANCH   1   2
DOCKED: ATOM      2  O   UNL d   1      -6.269 -14.620   0.595 -0.43 -0.82    -0.356 OA
DOCKED: BRANCH   2   3
DOCKED: ATOM      3  P   UNL d   1      -5.467 -15.735  -0.309 -0.13 -0.03    -0.014 P 
DOCKED: ATOM      4  O   UNL d   1      -5.450 -16.998   0.567 -0.12 -0.84    -0.577 OA
DOCKED: ATOM      5  O   UNL d   1      -4.058 -15.197  -0.547 -0.16 -1.20    -0.577 OA
DOCKED: ATOM      6  O   UNL d   1      -6.258 -15.957  -1.595 -0.50 -1.35    -0.638 OA
DOCKED: ENDBRANCH   2   3
DOCKED: ENDBRANCH   1   2
DOCKED: BRANCH   1   7
DOCKED: ATOM      7  C   UNL d   1      -5.692 -12.495  -0.528 -0.23 +0.27    +0.201 C 
DOCKED: BRANCH   7   8
DOCKED: ATOM      8  O   UNL d   1      -5.694 -12.282  -1.957 -0.19 -0.52    -0.364 OA
DOCKED: BRANCH   8   9
DOCKED: ATOM      9  P   UNL d   1      -4.408 -11.541  -2.688 -0.42 -0.02    -0.015 P 
DOCKED: ATOM     10  O   UNL d   1      -4.003 -10.411  -1.733 -0.05 -0.40    -0.577 OA
DOCKED: ATOM     11  O   UNL d   1      -4.906 -11.003  -4.029 -0.11 -0.50    -0.577 OA
DOCKED: ATOM     12  O   UNL d   1      -3.307 -12.590  -2.835 -0.50 -1.37    -0.638 OA
DOCKED: ENDBRANCH   8   9
DOCKED: ENDBRANCH   7   8
DOCKED: ENDBRANCH   1   7
DOCKED: BRANCH   1  13
DOCKED: ATOM     13  C   UNL d   1      -7.613 -12.597   1.155 -0.20 +0.09    +0.073 C 
DOCKED: ATOM     14  O   UNL d   1      -8.738 -12.056   0.865 -0.39 -0.41    -0.547 OA
DOCKED: ATOM     15  O   UNL d   1      -7.084 -12.588   2.325 -0.87 -0.90    -0.547 OA
DOCKED: ENDBRANCH   1  13
DOCKED: TORSDOF 6
DOCKED: TER
DOCKED: ENDMDL
________________________________________________________________________________


	BEGINNING GENETIC ALGORITHM DOCKING 6 of 100
Run: 6 Seed: 670204644 1491804375 [ Run 6 of 100 GA/GALS ]
Beginning LAMARCKIAN GENETIC ALGORITHM (LGA), with a maximum of 25000000 energy evaluations.

Final-Value: -9.872


	FINAL GENETIC ALGORITHM DOCKED STATE
	_______________________________________________


Detailed state:  trans -6.257 -12.892 -0.302 quatxyzw 0.784509 0.513365 -0.336381 0.088596 center 0.015 0.083 0.031 ntor 6 164.0466 22.8087 145.5901 67.6923 19.0987 -47.0317
State:	 -6.257 -12.892  -0.302   0.788  0.515 -0.338 169.834    164.05   22.81  145.59   67.69   19.10  -47.03

DOCKED: MODEL        6
DOCKED: USER    Run = 6
DOCKED: USER    DPF = D:/Protein_go_brrr/autodock/final/AncA/2_3_BPG/dock.dpf
DOCKED: USER  
DOCKED: USER    Estimated Free Energy of Binding    =  -10.42 kcal/mol  [=(1)+(2)+(3)-(4)]
DOCKED: USER    Estimated Inhibition Constant, Ki   =   22.82 nM (nanomolar)  [Temperature = 298.15 K]
DOCKED: USER    
DOCKED: USER    (1) Final Intermolecular Energy     =  -12.21 kcal/mol
DOCKED: USER        vdW + Hbond + desolv Energy     =   -4.29 kcal/mol
DOCKED: USER        Electrostatic Energy            =   -7.93 kcal/mol
DOCKED: USER    (2) Final Total Internal Energy     =   +2.34 kcal/mol
DOCKED: USER    (3) Torsional Free Energy           =   +1.79 kcal/mol
DOCKED: USER    (4) Unbound System's Energy  [=(2)] =   +2.34 kcal/mol
DOCKED: USER    
DOCKED: USER    
DOCKED: USER    NEWDPF move 2_3_BPG_opt.pdbqt
DOCKED: USER    NEWDPF about 0.015000 0.083000 0.031000
DOCKED: USER    NEWDPF tran0 -6.257093 -12.891829 -0.302076
DOCKED: USER    NEWDPF quaternion0 0.784509 0.513365 -0.336381 0.088596
DOCKED: USER    NEWDPF axisangle0 0.787607 0.515392 -0.337709 169.834305
DOCKED: USER    NEWDPF quat0 0.787607 0.515392 -0.337709 169.834305
DOCKED: USER    NEWDPF dihe0 164.05 22.81 145.59 67.69 19.10 -47.03 
DOCKED: USER  keepresnum = 1 
DOCKED: USER  
DOCKED: REMARK  6 active torsions:
DOCKED: REMARK  status: ('A' for Active; 'I' for Inactive)
DOCKED: REMARK    1  A    between atoms: P_1  and  O_3 
DOCKED: REMARK    2  A    between atoms: P_2  and  O_4 
DOCKED: REMARK    3  A    between atoms: O_3  and  C_13 
DOCKED: REMARK    4  A    between atoms: O_4  and  C_14 
DOCKED: REMARK    5  A    between atoms: C_13  and  C_14 
DOCKED: REMARK    6  A    between atoms: C_13  and  C_15 
DOCKED: USER                              x       y       z     vdW  Elec       q    Type
DOCKED: USER                           _______ _______ _______ _____ _____    ______ ____
DOCKED: ROOT
DOCKED: ATOM      1  C   UNL d   1      -6.692 -13.275   0.035 -0.20 +0.27    +0.193 C 
DOCKED: ENDROOT
DOCKED: BRANCH   1   2
DOCKED: ATOM      2  O   UNL d   1      -5.958 -14.416   0.594 -0.29 -0.91    -0.356 OA
DOCKED: BRANCH   2   3
DOCKED: ATOM      3  P   UNL d   1      -5.233 -15.565  -0.332 -0.11 -0.03    -0.014 P 
DOCKED: ATOM      4  O   UNL d   1      -5.032 -16.754   0.620 -0.22 -0.95    -0.577 OA
DOCKED: ATOM      5  O   UNL d   1      -3.899 -14.991  -0.804 -0.05 -1.25    -0.577 OA
DOCKED: ATOM      6  O   UNL d   1      -6.181 -15.917  -1.474 -0.51 -1.34    -0.638 OA
DOCKED: ENDBRANCH   2   3
DOCKED: ENDBRANCH   1   2
DOCKED: BRANCH   1   7
DOCKED: ATOM      7  C   UNL d   1      -5.655 -12.222  -0.504 -0.21 +0.25    +0.201 C 
DOCKED: BRANCH   7   8
DOCKED: ATOM      8  O   UNL d   1      -5.626 -12.042  -1.937 -0.19 -0.48    -0.364 OA
DOCKED: BRANCH   8   9
DOCKED: ATOM      9  P   UNL d   1      -4.278 -11.420  -2.668 -0.45 -0.02    -0.015 P 
DOCKED: ATOM     10  O   UNL d   1      -3.680 -10.449  -1.643 -0.05 -0.40    -0.577 OA
DOCKED: ATOM     11  O   UNL d   1      -4.748 -10.699  -3.931 -0.11 -0.44    -0.577 OA
DOCKED: ATOM     12  O   UNL d   1      -3.343 -12.592  -2.962 -0.45 -1.41    -0.638 OA
DOCKED: ENDBRANCH   8   9
DOCKED: ENDBRANCH   7   8
DOCKED: ENDBRANCH   1   7
DOCKED: BRANCH   1  13
DOCKED: ATOM     13  C   UNL d   1      -7.566 -12.595   1.153 -0.19 +0.09    +0.073 C 
DOCKED: ATOM     14  O   UNL d   1      -8.726 -12.151   0.837 -0.38 -0.42    -0.547 OA
DOCKED: ATOM     15  O   UNL d   1      -7.084 -12.584   2.343 -0.86 -0.90    -0.547 OA
DOCKED: ENDBRANCH   1  13
DOCKED: TORSDOF 6
DOCKED: TER
DOCKED: ENDMDL
________________________________________________________________________________


	BEGINNING GENETIC ALGORITHM DOCKING 7 of 100
Run: 7 Seed: 241996301 1590552558 [ Run 7 of 100 GA/GALS ]
Beginning LAMARCKIAN GENETIC ALGORITHM (LGA), with a maximum of 25000000 energy evaluations.

Final-Value: -10.145


	FINAL GENETIC ALGORITHM DOCKED STATE
	_______________________________________________


Detailed state:  trans -6.785 -12.916 -0.591 quatxyzw -0.648440 -0.569548 0.503719 -0.037521 center 0.015 0.083 0.031 ntor 6 -39.6447 72.0351 -164.3513 43.6095 33.7820 -105.7779
State:	 -6.785 -12.916  -0.591  -0.649 -0.570  0.504 -175.699    -39.64   72.04 -164.35   43.61   33.78 -105.78

DOCKED: MODEL        7
DOCKED: USER    Run = 7
DOCKED: USER    DPF = D:/Protein_go_brrr/autodock/final/AncA/2_3_BPG/dock.dpf
DOCKED: USER  
DOCKED: USER    Estimated Free Energy of Binding    =  -10.79 kcal/mol  [=(1)+(2)+(3)-(4)]
DOCKED: USER    Estimated Inhibition Constant, Ki   =   12.32 nM (nanomolar)  [Temperature = 298.15 K]
DOCKED: USER    
DOCKED: USER    (1) Final Intermolecular Energy     =  -12.58 kcal/mol
DOCKED: USER        vdW + Hbond + desolv Energy     =   -4.49 kcal/mol
DOCKED: USER        Electrostatic Energy            =   -8.09 kcal/mol
DOCKED: USER    (2) Final Total Internal Energy     =   +2.44 kcal/mol
DOCKED: USER    (3) Torsional Free Energy           =   +1.79 kcal/mol
DOCKED: USER    (4) Unbound System's Energy  [=(2)] =   +2.44 kcal/mol
DOCKED: USER    
DOCKED: USER    
DOCKED: USER    NEWDPF move 2_3_BPG_opt.pdbqt
DOCKED: USER    NEWDPF about 0.015000 0.083000 0.031000
DOCKED: USER    NEWDPF tran0 -6.784613 -12.915830 -0.590909
DOCKED: USER    NEWDPF quaternion0 -0.648440 -0.569548 0.503719 -0.037521
DOCKED: USER    NEWDPF axisangle0 -0.648897 -0.569950 0.504073 -175.699372
DOCKED: USER    NEWDPF quat0 -0.648897 -0.569950 0.504073 -175.699372
DOCKED: USER    NEWDPF dihe0 -39.64 72.04 -164.35 43.61 33.78 -105.78 
DOCKED: USER  keepresnum = 1 
DOCKED: USER  
DOCKED: REMARK  6 active torsions:
DOCKED: REMARK  status: ('A' for Active; 'I' for Inactive)
DOCKED: REMARK    1  A    between atoms: P_1  and  O_3 
DOCKED: REMARK    2  A    between atoms: P_2  and  O_4 
DOCKED: REMARK    3  A    between atoms: O_3  and  C_13 
DOCKED: REMARK    4  A    between atoms: O_4  and  C_14 
DOCKED: REMARK    5  A    between atoms: C_13  and  C_14 
DOCKED: REMARK    6  A    between atoms: C_13  and  C_15 
DOCKED: USER                              x       y       z     vdW  Elec       q    Type
DOCKED: USER                           _______ _______ _______ _____ _____    ______ ____
DOCKED: ROOT
DOCKED: ATOM      1  C   UNL d   1      -6.976 -13.311  -0.084 -0.19 +0.25    +0.193 C 
DOCKED: ENDROOT
DOCKED: BRANCH   1   2
DOCKED: ATOM      2  O   UNL d   1      -5.806 -14.067   0.375 -0.39 -0.82    -0.356 OA
DOCKED: BRANCH   2   3
DOCKED: ATOM      3  P   UNL d   1      -5.364 -15.519  -0.257 -0.12 -0.03    -0.014 P 
DOCKED: ATOM      4  O   UNL d   1      -5.610 -16.522   0.881 -0.27 -1.08    -0.577 OA
DOCKED: ATOM      5  O   UNL d   1      -3.882 -15.426  -0.613 -0.11 -1.14    -0.577 OA
DOCKED: ATOM      6  O   UNL d   1      -6.261 -15.803  -1.457 -0.54 -1.33    -0.638 OA
DOCKED: ENDBRANCH   2   3
DOCKED: ENDBRANCH   1   2
DOCKED: BRANCH   1   7
DOCKED: ATOM      7  C   UNL d   1      -6.494 -12.178  -1.064 -0.18 +0.22    +0.201 C 
DOCKED: BRANCH   7   8
DOCKED: ATOM      8  O   UNL d   1      -5.678 -12.611  -2.175 -0.19 -0.64    -0.364 OA
DOCKED: BRANCH   8   9
DOCKED: ATOM      9  P   UNL d   1      -4.427 -11.665  -2.702 -0.38 -0.02    -0.015 P 
DOCKED: ATOM     10  O   UNL d   1      -4.148 -10.693  -1.550 -0.06 -0.44    -0.577 OA
DOCKED: ATOM     11  O   UNL d   1      -4.915 -10.940  -3.956 -0.12 -0.49    -0.577 OA
DOCKED: ATOM     12  O   UNL d   1      -3.243 -12.593  -2.971 -0.46 -1.36    -0.638 OA
DOCKED: ENDBRANCH   8   9
DOCKED: ENDBRANCH   7   8
DOCKED: ENDBRANCH   1   7
DOCKED: BRANCH   1  13
DOCKED: ATOM     13  C   UNL d   1      -7.702 -12.642   1.142 -0.22 +0.08    +0.073 C 
DOCKED: ATOM     14  O   UNL d   1      -7.084 -12.589   2.263 -0.88 -0.90    -0.547 OA
DOCKED: ATOM     15  O   UNL d   1      -8.858 -12.128   0.925 -0.38 -0.41    -0.547 OA
DOCKED: ENDBRANCH   1  13
DOCKED: TORSDOF 6
DOCKED: TER
DOCKED: ENDMDL
________________________________________________________________________________


	BEGINNING GENETIC ALGORITHM DOCKING 8 of 100
Run: 8 Seed: 1508761360 2024960055 [ Run 8 of 100 GA/GALS ]
Beginning LAMARCKIAN GENETIC ALGORITHM (LGA), with a maximum of 25000000 energy evaluations.

Final-Value: -10.147


	FINAL GENETIC ALGORITHM DOCKED STATE
	_______________________________________________


Detailed state:  trans -5.834 -13.154 -0.453 quatxyzw 0.241759 0.949187 0.149445 0.135139 center 0.015 0.083 0.031 ntor 6 176.7431 91.9886 10.3846 9.5470 -23.3939 105.1880
State:	 -5.834 -13.154  -0.453   0.244  0.958  0.151 164.467    176.74   91.99   10.38    9.55  -23.39  105.19

DOCKED: MODEL        8
DOCKED: USER    Run = 8
DOCKED: USER    DPF = D:/Protein_go_brrr/autodock/final/AncA/2_3_BPG/dock.dpf
DOCKED: USER  
DOCKED: USER    Estimated Free Energy of Binding    =  -10.56 kcal/mol  [=(1)+(2)+(3)-(4)]
DOCKED: USER    Estimated Inhibition Constant, Ki   =   18.05 nM (nanomolar)  [Temperature = 298.15 K]
DOCKED: USER    
DOCKED: USER    (1) Final Intermolecular Energy     =  -12.35 kcal/mol
DOCKED: USER        vdW + Hbond + desolv Energy     =   -4.37 kcal/mol
DOCKED: USER        Electrostatic Energy            =   -7.98 kcal/mol
DOCKED: USER    (2) Final Total Internal Energy     =   +2.21 kcal/mol
DOCKED: USER    (3) Torsional Free Energy           =   +1.79 kcal/mol
DOCKED: USER    (4) Unbound System's Energy  [=(2)] =   +2.21 kcal/mol
DOCKED: USER    
DOCKED: USER    
DOCKED: USER    NEWDPF move 2_3_BPG_opt.pdbqt
DOCKED: USER    NEWDPF about 0.015000 0.083000 0.031000
DOCKED: USER    NEWDPF tran0 -5.833539 -13.154344 -0.452642
DOCKED: USER    NEWDPF quaternion0 0.241759 0.949187 0.149445 0.135139
DOCKED: USER    NEWDPF axisangle0 0.243997 0.957975 0.150829 164.466657
DOCKED: USER    NEWDPF quat0 0.243997 0.957975 0.150829 164.466657
DOCKED: USER    NEWDPF dihe0 176.74 91.99 10.38 9.55 -23.39 105.19 
DOCKED: USER  keepresnum = 1 
DOCKED: USER  
DOCKED: REMARK  6 active torsions:
DOCKED: REMARK  status: ('A' for Active; 'I' for Inactive)
DOCKED: REMARK    1  A    between atoms: P_1  and  O_3 
DOCKED: REMARK    2  A    between atoms: P_2  and  O_4 
DOCKED: REMARK    3  A    between atoms: O_3  and  C_13 
DOCKED: REMARK    4  A    between atoms: O_4  and  C_14 
DOCKED: REMARK    5  A    between atoms: C_13  and  C_14 
DOCKED: REMARK    6  A    between atoms: C_13  and  C_15 
DOCKED: USER                              x       y       z     vdW  Elec       q    Type
DOCKED: USER                           _______ _______ _______ _____ _____    ______ ____
DOCKED: ROOT
DOCKED: ATOM      1  C   UNL d   1      -5.510 -13.629  -0.799 -0.14 +0.37    +0.193 C 
DOCKED: ENDROOT
DOCKED: BRANCH   1   2
DOCKED: ATOM      2  O   UNL d   1      -4.104 -13.624  -0.379 -0.16 -0.67    -0.356 OA
DOCKED: BRANCH   2   3
DOCKED: ATOM      3  P   UNL d   1      -2.852 -13.406  -1.422 -0.16 -0.02    -0.014 P 
DOCKED: ATOM      4  O   UNL d   1      -2.454 -14.829  -1.845 -0.01 -1.13    -0.577 OA
DOCKED: ATOM      5  O   UNL d   1      -1.731 -12.717  -0.646 -0.04 -0.54    -0.577 OA
DOCKED: ATOM      6  O   UNL d   1      -3.361 -12.592  -2.607 -0.54 -1.34    -0.638 OA
DOCKED: ENDBRANCH   2   3
DOCKED: ENDBRANCH   1   2
DOCKED: BRANCH   1   7
DOCKED: ATOM      7  C   UNL d   1      -6.338 -12.736   0.197 -0.21 +0.28    +0.201 C 
DOCKED: BRANCH   7   8
DOCKED: ATOM      8  O   UNL d   1      -6.989 -13.436   1.280 -0.19 -0.64    -0.364 OA
DOCKED: BRANCH   8   9
DOCKED: ATOM      9  P   UNL d   1      -7.449 -12.616   2.641 -0.35 -0.02    -0.015 P 
DOCKED: ATOM     10  O   UNL d   1      -7.793 -13.704   3.665 -0.34 -0.82    -0.577 OA
DOCKED: ATOM     11  O   UNL d   1      -8.672 -11.779   2.265 -0.49 -0.45    -0.577 OA
DOCKED: ATOM     12  O   UNL d   1      -6.257 -11.769   3.082 -0.56 -0.92    -0.638 OA
DOCKED: ENDBRANCH   8   9
DOCKED: ENDBRANCH   7   8
DOCKED: ENDBRANCH   1   7
DOCKED: BRANCH   1  13
DOCKED: ATOM     13  C   UNL d   1      -6.081 -15.095  -0.755 -0.04 +0.14    +0.073 C 
DOCKED: ATOM     14  O   UNL d   1      -6.693 -15.544  -1.787 -0.59 -1.11    -0.547 OA
DOCKED: ATOM     15  O   UNL d   1      -5.841 -15.782   0.302 -0.55 -1.10    -0.547 OA
DOCKED: ENDBRANCH   1  13
DOCKED: TORSDOF 6
DOCKED: TER
DOCKED: ENDMDL
________________________________________________________________________________


	BEGINNING GENETIC ALGORITHM DOCKING 9 of 100
Run: 9 Seed: 2090853681 1955433226 [ Run 9 of 100 GA/GALS ]
Beginning LAMARCKIAN GENETIC ALGORITHM (LGA), with a maximum of 25000000 energy evaluations.

Final-Value: -9.821


	FINAL GENETIC ALGORITHM DOCKED STATE
	_______________________________________________


Detailed state:  trans -7.138 -13.036 1.014 quatxyzw -0.628698 -0.181252 0.323344 0.683620 center 0.015 0.083 0.031 ntor 6 88.6812 149.7261 -157.3668 65.0451 94.3634 22.2594
State:	 -7.138 -13.036   1.014  -0.861 -0.248  0.443 93.746     88.68  149.73 -157.37   65.05   94.36   22.26

DOCKED: MODEL        9
DOCKED: USER    Run = 9
DOCKED: USER    DPF = D:/Protein_go_brrr/autodock/final/AncA/2_3_BPG/dock.dpf
DOCKED: USER  
DOCKED: USER    Estimated Free Energy of Binding    =  -10.43 kcal/mol  [=(1)+(2)+(3)-(4)]
DOCKED: USER    Estimated Inhibition Constant, Ki   =   22.82 nM (nanomolar)  [Temperature = 298.15 K]
DOCKED: USER    
DOCKED: USER    (1) Final Intermolecular Energy     =  -12.21 kcal/mol
DOCKED: USER        vdW + Hbond + desolv Energy     =   -4.79 kcal/mol
DOCKED: USER        Electrostatic Energy            =   -7.42 kcal/mol
DOCKED: USER    (2) Final Total Internal Energy     =   +2.39 kcal/mol
DOCKED: USER    (3) Torsional Free Energy           =   +1.79 kcal/mol
DOCKED: USER    (4) Unbound System's Energy  [=(2)] =   +2.39 kcal/mol
DOCKED: USER    
DOCKED: USER    
DOCKED: USER    NEWDPF move 2_3_BPG_opt.pdbqt
DOCKED: USER    NEWDPF about 0.015000 0.083000 0.031000
DOCKED: USER    NEWDPF tran0 -7.137718 -13.035504 1.013772
DOCKED: USER    NEWDPF quaternion0 -0.628698 -0.181252 0.323344 0.683620
DOCKED: USER    NEWDPF axisangle0 -0.861420 -0.248345 0.443034 93.745688
DOCKED: USER    NEWDPF quat0 -0.861420 -0.248345 0.443034 93.745688
DOCKED: USER    NEWDPF dihe0 88.68 149.73 -157.37 65.05 94.36 22.26 
DOCKED: USER  keepresnum = 1 
DOCKED: USER  
DOCKED: REMARK  6 active torsions:
DOCKED: REMARK  status: ('A' for Active; 'I' for Inactive)
DOCKED: REMARK    1  A    between atoms: P_1  and  O_3 
DOCKED: REMARK    2  A    between atoms: P_2  and  O_4 
DOCKED: REMARK    3  A    between atoms: O_3  and  C_13 
DOCKED: REMARK    4  A    between atoms: O_4  and  C_14 
DOCKED: REMARK    5  A    between atoms: C_13  and  C_14 
DOCKED: REMARK    6  A    between atoms: C_13  and  C_15 
DOCKED: USER                              x       y       z     vdW  Elec       q    Type
DOCKED: USER                           _______ _______ _______ _____ _____    ______ ____
DOCKED: ROOT
DOCKED: ATOM      1  C   UNL d   1      -7.786 -13.001   1.179 -0.23 +0.23    +0.193 C 
DOCKED: ENDROOT
DOCKED: BRANCH   1   2
DOCKED: ATOM      2  O   UNL d   1      -7.911 -12.148   2.366 -0.84 -0.39    -0.356 OA
DOCKED: BRANCH   2   3
DOCKED: ATOM      3  P   UNL d   1      -7.327 -12.567   3.845 -0.45 -0.02    -0.014 P 
DOCKED: ATOM      4  O   UNL d   1      -7.511 -14.091   3.911 -0.30 -0.97    -0.577 OA
DOCKED: ATOM      5  O   UNL d   1      -8.182 -11.852   4.889 -0.19 -0.30    -0.577 OA
DOCKED: ATOM      6  O   UNL d   1      -5.853 -12.179   3.897 -0.39 -1.08    -0.638 OA
DOCKED: ENDBRANCH   2   3
DOCKED: ENDBRANCH   1   2
DOCKED: BRANCH   1   7
DOCKED: ATOM      7  C   UNL d   1      -6.328 -12.860   0.607 -0.16 +0.31    +0.201 C 
DOCKED: BRANCH   7   8
DOCKED: ATOM      8  O   UNL d   1      -6.047 -13.611  -0.595 -0.20 -0.62    -0.364 OA
DOCKED: BRANCH   8   9
DOCKED: ATOM      9  P   UNL d   1      -5.643 -15.213  -0.497 -0.09 -0.03    -0.015 P 
DOCKED: ATOM     10  O   UNL d   1      -6.258 -15.700   0.820 -0.33 -1.24    -0.577 OA
DOCKED: ATOM     11  O   UNL d   1      -4.117 -15.287  -0.476 -0.20 -1.19    -0.577 OA
DOCKED: ATOM     12  O   UNL d   1      -6.259 -15.908  -1.710 -0.47 -1.44    -0.638 OA
DOCKED: ENDBRANCH   8   9
DOCKED: ENDBRANCH   7   8
DOCKED: ENDBRANCH   1   7
DOCKED: BRANCH   1  13
DOCKED: ATOM     13  C   UNL d   1      -8.808 -12.540   0.073 -0.29 +0.05    +0.073 C 
DOCKED: ATOM     14  O   UNL d   1      -8.441 -12.581  -1.153 -0.02 -0.40    -0.547 OA
DOCKED: ATOM     15  O   UNL d   1      -9.983 -12.207   0.469 -0.63 -0.35    -0.547 OA
DOCKED: ENDBRANCH   1  13
DOCKED: TORSDOF 6
DOCKED: TER
DOCKED: ENDMDL
________________________________________________________________________________


	BEGINNING GENETIC ALGORITHM DOCKING 10 of 100
Run: 10 Seed: 1617832264 674325828 [ Run 10 of 100 GA/GALS ]
Beginning LAMARCKIAN GENETIC ALGORITHM (LGA), with a maximum of 25000000 energy evaluations.

Final-Value: -9.576


	FINAL GENETIC ALGORITHM DOCKED STATE
	_______________________________________________


Detailed state:  trans -6.442 -13.603 -0.123 quatxyzw 0.489795 0.427206 0.759550 -0.026069 center 0.015 0.083 0.031 ntor 6 119.5851 -84.9006 -174.4982 46.8784 3.4815 -23.7919
State:	 -6.442 -13.603  -0.123   0.490  0.427  0.760 -177.012    119.59  -84.90 -174.50   46.88    3.48  -23.79

DOCKED: MODEL       10
DOCKED: USER    Run = 10
DOCKED: USER    DPF = D:/Protein_go_brrr/autodock/final/AncA/2_3_BPG/dock.dpf
DOCKED: USER  
DOCKED: USER    Estimated Free Energy of Binding    =   -9.80 kcal/mol  [=(1)+(2)+(3)-(4)]
DOCKED: USER    Estimated Inhibition Constant, Ki   =   66.00 nM (nanomolar)  [Temperature = 298.15 K]
DOCKED: USER    
DOCKED: USER    (1) Final Intermolecular Energy     =  -11.59 kcal/mol
DOCKED: USER        vdW + Hbond + desolv Energy     =   -3.70 kcal/mol
DOCKED: USER        Electrostatic Energy            =   -7.88 kcal/mol
DOCKED: USER    (2) Final Total Internal Energy     =   +2.01 kcal/mol
DOCKED: USER    (3) Torsional Free Energy           =   +1.79 kcal/mol
DOCKED: USER    (4) Unbound System's Energy  [=(2)] =   +2.01 kcal/mol
DOCKED: USER    
DOCKED: USER    
DOCKED: USER    NEWDPF move 2_3_BPG_opt.pdbqt
DOCKED: USER    NEWDPF about 0.015000 0.083000 0.031000
DOCKED: USER    NEWDPF tran0 -6.442472 -13.603277 -0.123396
DOCKED: USER    NEWDPF quaternion0 0.489795 0.427206 0.759550 -0.026069
DOCKED: USER    NEWDPF axisangle0 0.489962 0.427351 0.759808 -177.012340
DOCKED: USER    NEWDPF quat0 0.489962 0.427351 0.759808 -177.012340
DOCKED: USER    NEWDPF dihe0 119.59 -84.90 -174.50 46.88 3.48 -23.79 
DOCKED: USER  keepresnum = 1 
DOCKED: USER  
DOCKED: REMARK  6 active torsions:
DOCKED: REMARK  status: ('A' for Active; 'I' for Inactive)
DOCKED: REMARK    1  A    between atoms: P_1  and  O_3 
DOCKED: REMARK    2  A    between atoms: P_2  and  O_4 
DOCKED: REMARK    3  A    between atoms: O_3  and  C_13 
DOCKED: REMARK    4  A    between atoms: O_4  and  C_14 
DOCKED: REMARK    5  A    between atoms: C_13  and  C_14 
DOCKED: REMARK    6  A    between atoms: C_13  and  C_15 
DOCKED: USER                              x       y       z     vdW  Elec       q    Type
DOCKED: USER                           _______ _______ _______ _____ _____    ______ ____
DOCKED: ROOT
DOCKED: ATOM      1  C   UNL d   1      -6.185 -13.616  -0.742 -0.19 +0.32    +0.193 C 
DOCKED: ENDROOT
DOCKED: BRANCH   1   2
DOCKED: ATOM      2  O   UNL d   1      -5.831 -15.004  -1.062 -0.48 -0.81    -0.356 OA
DOCKED: BRANCH   2   3
DOCKED: ATOM      3  P   UNL d   1      -4.395 -15.688  -0.644 -0.09 -0.03    -0.014 P 
DOCKED: ATOM      4  O   UNL d   1      -4.657 -16.318   0.733 -0.30 -1.17    -0.577 OA
DOCKED: ATOM      5  O   UNL d   1      -3.365 -14.563  -0.560 -0.08 -1.06    -0.577 OA
DOCKED: ATOM      6  O   UNL d   1      -4.056 -16.746  -1.689 -0.02 -1.29    -0.638 OA
DOCKED: ENDBRANCH   2   3
DOCKED: ENDBRANCH   1   2
DOCKED: BRANCH   1   7
DOCKED: ATOM      7  C   UNL d   1      -7.049 -13.605   0.573 -0.17 +0.30    +0.201 C 
DOCKED: BRANCH   7   8
DOCKED: ATOM      8  O   UNL d   1      -6.703 -12.595   1.546 -0.66 -0.61    -0.364 OA
DOCKED: BRANCH   8   9
DOCKED: ATOM      9  P   UNL d   1      -7.432 -12.590   3.031 -0.38 -0.02    -0.015 P 
DOCKED: ATOM     10  O   UNL d   1      -8.245 -13.889   3.081 -0.11 -0.68    -0.577 OA
DOCKED: ATOM     11  O   UNL d   1      -8.328 -11.353   3.083 -0.31 -0.42    -0.577 OA
DOCKED: ATOM     12  O   UNL d   1      -6.320 -12.569   4.079 -0.55 -1.19    -0.638 OA
DOCKED: ENDBRANCH   8   9
DOCKED: ENDBRANCH   7   8
DOCKED: ENDBRANCH   1   7
DOCKED: BRANCH   1  13
DOCKED: ATOM     13  C   UNL d   1      -7.038 -12.994  -1.911 -0.25 +0.09    +0.073 C 
DOCKED: ATOM     14  O   UNL d   1      -7.546 -11.830  -1.744 -0.04 -0.42    -0.547 OA
DOCKED: ATOM     15  O   UNL d   1      -7.121 -13.674  -2.997 -0.08 -0.88    -0.547 OA
DOCKED: ENDBRANCH   1  13
DOCKED: TORSDOF 6
DOCKED: TER
DOCKED: ENDMDL
________________________________________________________________________________


	BEGINNING GENETIC ALGORITHM DOCKING 11 of 100
Run: 11 Seed: 1192342182 1428262963 [ Run 11 of 100 GA/GALS ]
Beginning LAMARCKIAN GENETIC ALGORITHM (LGA), with a maximum of 25000000 energy evaluations.

Final-Value: -9.959


	FINAL GENETIC ALGORITHM DOCKED STATE
	_______________________________________________


Detailed state:  trans -6.344 -12.914 -0.708 quatxyzw 0.691720 0.551556 -0.459844 0.076506 center 0.015 0.083 0.031 ntor 6 -29.3394 60.6591 -4.2952 43.1019 1.0931 -120.9223
State:	 -6.344 -12.914  -0.708   0.694  0.553 -0.461 171.224    -29.34   60.66   -4.30   43.10    1.09 -120.92

DOCKED: MODEL       11
DOCKED: USER    Run = 11
DOCKED: USER    DPF = D:/Protein_go_brrr/autodock/final/AncA/2_3_BPG/dock.dpf
DOCKED: USER  
DOCKED: USER    Estimated Free Energy of Binding    =  -10.40 kcal/mol  [=(1)+(2)+(3)-(4)]
DOCKED: USER    Estimated Inhibition Constant, Ki   =   23.68 nM (nanomolar)  [Temperature = 298.15 K]
DOCKED: USER    
DOCKED: USER    (1) Final Intermolecular Energy     =  -12.19 kcal/mol
DOCKED: USER        vdW + Hbond + desolv Energy     =   -4.41 kcal/mol
DOCKED: USER        Electrostatic Energy            =   -7.78 kcal/mol
DOCKED: USER    (2) Final Total Internal Energy     =   +2.23 kcal/mol
DOCKED: USER    (3) Torsional Free Energy           =   +1.79 kcal/mol
DOCKED: USER    (4) Unbound System's Energy  [=(2)] =   +2.23 kcal/mol
DOCKED: USER    
DOCKED: USER    
DOCKED: USER    NEWDPF move 2_3_BPG_opt.pdbqt
DOCKED: USER    NEWDPF about 0.015000 0.083000 0.031000
DOCKED: USER    NEWDPF tran0 -6.343523 -12.913757 -0.707765
DOCKED: USER    NEWDPF quaternion0 0.691720 0.551556 -0.459844 0.076506
DOCKED: USER    NEWDPF axisangle0 0.693754 0.553177 -0.461195 171.224460
DOCKED: USER    NEWDPF quat0 0.693754 0.553177 -0.461195 171.224460
DOCKED: USER    NEWDPF dihe0 -29.34 60.66 -4.30 43.10 1.09 -120.92 
DOCKED: USER  keepresnum = 1 
DOCKED: USER  
DOCKED: REMARK  6 active torsions:
DOCKED: REMARK  status: ('A' for Active; 'I' for Inactive)
DOCKED: REMARK    1  A    between atoms: P_1  and  O_3 
DOCKED: REMARK    2  A    between atoms: P_2  and  O_4 
DOCKED: REMARK    3  A    between atoms: O_3  and  C_13 
DOCKED: REMARK    4  A    between atoms: O_4  and  C_14 
DOCKED: REMARK    5  A    between atoms: C_13  and  C_14 
DOCKED: REMARK    6  A    between atoms: C_13  and  C_15 
DOCKED: USER                              x       y       z     vdW  Elec       q    Type
DOCKED: USER                           _______ _______ _______ _____ _____    ______ ____
DOCKED: ROOT
DOCKED: ATOM      1  C   UNL d   1      -6.608 -13.321  -0.246 -0.20 +0.27    +0.193 C 
DOCKED: ENDROOT
DOCKED: BRANCH   1   2
DOCKED: ATOM      2  O   UNL d   1      -5.559 -14.241   0.208 -0.51 -0.83    -0.356 OA
DOCKED: BRANCH   2   3
DOCKED: ATOM      3  P   UNL d   1      -5.256 -15.689  -0.511 -0.10 -0.03    -0.014 P 
DOCKED: ATOM      4  O   UNL d   1      -5.396 -16.716   0.624 -0.24 -0.95    -0.577 OA
DOCKED: ATOM      5  O   UNL d   1      -3.827 -15.636  -1.048 -0.01 -1.23    -0.577 OA
DOCKED: ATOM      6  O   UNL d   1      -6.305 -15.906  -1.595 -0.51 -1.35    -0.638 OA
DOCKED: ENDBRANCH   2   3
DOCKED: ENDBRANCH   1   2
DOCKED: BRANCH   1   7
DOCKED: ATOM      7  C   UNL d   1      -5.944 -12.182  -1.103 -0.21 +0.24    +0.201 C 
DOCKED: BRANCH   7   8
DOCKED: ATOM      8  O   UNL d   1      -4.866 -12.594  -1.973 -0.34 -0.71    -0.364 OA
DOCKED: BRANCH   8   9
DOCKED: ATOM      9  P   UNL d   1      -4.026 -11.466  -2.844 -0.44 -0.02    -0.015 P 
DOCKED: ATOM     10  O   UNL d   1      -2.948 -12.261  -3.590 -0.48 -0.89    -0.577 OA
DOCKED: ATOM     11  O   UNL d   1      -3.420 -10.487  -1.839 -0.05 -0.40    -0.577 OA
DOCKED: ATOM     12  O   UNL d   1      -5.017 -10.805  -3.801 -0.06 -0.51    -0.638 OA
DOCKED: ENDBRANCH   8   9
DOCKED: ENDBRANCH   7   8
DOCKED: ENDBRANCH   1   7
DOCKED: BRANCH   1  13
DOCKED: ATOM     13  C   UNL d   1      -7.325 -12.666   0.994 -0.19 +0.09    +0.073 C 
DOCKED: ATOM     14  O   UNL d   1      -6.686 -12.594   2.101 -0.66 -1.02    -0.547 OA
DOCKED: ATOM     15  O   UNL d   1      -8.498 -12.183   0.800 -0.41 -0.45    -0.547 OA
DOCKED: ENDBRANCH   1  13
DOCKED: TORSDOF 6
DOCKED: TER
DOCKED: ENDMDL
________________________________________________________________________________


	BEGINNING GENETIC ALGORITHM DOCKING 12 of 100
Run: 12 Seed: 1650253408 1885467106 [ Run 12 of 100 GA/GALS ]
Beginning LAMARCKIAN GENETIC ALGORITHM (LGA), with a maximum of 25000000 energy evaluations.

Final-Value: -9.979


	FINAL GENETIC ALGORITHM DOCKED STATE
	_______________________________________________


Detailed state:  trans -6.418 -13.176 -0.919 quatxyzw 0.656127 0.513893 -0.552539 0.010617 center 0.015 0.083 0.031 ntor 6 134.1748 69.7734 51.2499 48.1051 -22.8679 -178.6595
State:	 -6.418 -13.176  -0.919   0.656  0.514 -0.553 178.783    134.17   69.77   51.25   48.11  -22.87 -178.66

DOCKED: MODEL       12
DOCKED: USER    Run = 12
DOCKED: USER    DPF = D:/Protein_go_brrr/autodock/final/AncA/2_3_BPG/dock.dpf
DOCKED: USER  
DOCKED: USER    Estimated Free Energy of Binding    =  -10.47 kcal/mol  [=(1)+(2)+(3)-(4)]
DOCKED: USER    Estimated Inhibition Constant, Ki   =   21.24 nM (nanomolar)  [Temperature = 298.15 K]
DOCKED: USER    
DOCKED: USER    (1) Final Intermolecular Energy     =  -12.26 kcal/mol
DOCKED: USER        vdW + Hbond + desolv Energy     =   -4.32 kcal/mol
DOCKED: USER        Electrostatic Energy            =   -7.94 kcal/mol
DOCKED: USER    (2) Final Total Internal Energy     =   +2.28 kcal/mol
DOCKED: USER    (3) Torsional Free Energy           =   +1.79 kcal/mol
DOCKED: USER    (4) Unbound System's Energy  [=(2)] =   +2.28 kcal/mol
DOCKED: USER    
DOCKED: USER    
DOCKED: USER    NEWDPF move 2_3_BPG_opt.pdbqt
DOCKED: USER    NEWDPF about 0.015000 0.083000 0.031000
DOCKED: USER    NEWDPF tran0 -6.418424 -13.175841 -0.918698
DOCKED: USER    NEWDPF quaternion0 0.656127 0.513893 -0.552539 0.010617
DOCKED: USER    NEWDPF axisangle0 0.656164 0.513922 -0.552570 178.783344
DOCKED: USER    NEWDPF quat0 0.656164 0.513922 -0.552570 178.783344
DOCKED: USER    NEWDPF dihe0 134.17 69.77 51.25 48.11 -22.87 -178.66 
DOCKED: USER  keepresnum = 1 
DOCKED: USER  
DOCKED: REMARK  6 active torsions:
DOCKED: REMARK  status: ('A' for Active; 'I' for Inactive)
DOCKED: REMARK    1  A    between atoms: P_1  and  O_3 
DOCKED: REMARK    2  A    between atoms: P_2  and  O_4 
DOCKED: REMARK    3  A    between atoms: O_3  and  C_13 
DOCKED: REMARK    4  A    between atoms: O_4  and  C_14 
DOCKED: REMARK    5  A    between atoms: C_13  and  C_14 
DOCKED: REMARK    6  A    between atoms: C_13  and  C_15 
DOCKED: USER                              x       y       z     vdW  Elec       q    Type
DOCKED: USER                           _______ _______ _______ _____ _____    ______ ____
DOCKED: ROOT
DOCKED: ATOM      1  C   UNL d   1      -6.612 -13.482  -0.355 -0.20 +0.28    +0.193 C 
DOCKED: ENDROOT
DOCKED: BRANCH   1   2
DOCKED: ATOM      2  O   UNL d   1      -5.465 -14.223   0.181 -0.55 -0.82    -0.356 OA
DOCKED: BRANCH   2   3
DOCKED: ATOM      3  P   UNL d   1      -5.052 -15.734  -0.320 -0.13 -0.03    -0.014 P 
DOCKED: ATOM      4  O   UNL d   1      -5.278 -16.621   0.914 -0.25 -1.07    -0.577 OA
DOCKED: ATOM      5  O   UNL d   1      -3.578 -15.692  -0.719 -0.06 -1.06    -0.577 OA
DOCKED: ATOM      6  O   UNL d   1      -5.981 -16.121  -1.465 -0.43 -1.33    -0.638 OA
DOCKED: ENDBRANCH   2   3
DOCKED: ENDBRANCH   1   2
DOCKED: BRANCH   1   7
DOCKED: ATOM      7  C   UNL d   1      -6.108 -12.531  -1.502 -0.22 +0.27    +0.201 C 
DOCKED: BRANCH   7   8
DOCKED: ATOM      8  O   UNL d   1      -4.693 -12.243  -1.506 -0.30 -0.54    -0.364 OA
DOCKED: BRANCH   8   9
DOCKED: ATOM      9  P   UNL d   1      -3.963 -11.688  -2.883 -0.36 -0.02    -0.015 P 
DOCKED: ATOM     10  O   UNL d   1      -2.786 -12.642  -3.123 -0.48 -1.04    -0.577 OA
DOCKED: ATOM     11  O   UNL d   1      -3.492 -10.263  -2.595 -0.05 -0.38    -0.577 OA
DOCKED: ATOM     12  O   UNL d   1      -4.999 -11.761  -4.004 -0.13 -0.84    -0.638 OA
DOCKED: ENDBRANCH   8   9
DOCKED: ENDBRANCH   7   8
DOCKED: ENDBRANCH   1   7
DOCKED: BRANCH   1  13
DOCKED: ATOM     13  C   UNL d   1      -7.264 -12.604   0.778 -0.20 +0.09    +0.073 C 
DOCKED: ATOM     14  O   UNL d   1      -8.371 -12.008   0.528 -0.32 -0.44    -0.547 OA
DOCKED: ATOM     15  O   UNL d   1      -6.673 -12.590   1.917 -0.65 -0.99    -0.547 OA
DOCKED: ENDBRANCH   1  13
DOCKED: TORSDOF 6
DOCKED: TER
DOCKED: ENDMDL
________________________________________________________________________________


	BEGINNING GENETIC ALGORITHM DOCKING 13 of 100
Run: 13 Seed: 2058732701 1505197490 [ Run 13 of 100 GA/GALS ]
Beginning LAMARCKIAN GENETIC ALGORITHM (LGA), with a maximum of 25000000 energy evaluations.

Final-Value: -9.784


	FINAL GENETIC ALGORITHM DOCKED STATE
	_______________________________________________


Detailed state:  trans -6.642 -13.707 0.415 quatxyzw 0.349183 0.499723 0.789917 -0.066168 center 0.015 0.083 0.031 ntor 6 153.2793 -63.9501 167.6709 -4.1564 53.3170 -21.6593
State:	 -6.642 -13.707   0.415   0.350  0.501  0.792 -172.412    153.28  -63.95  167.67   -4.16   53.32  -21.66

DOCKED: MODEL       13
DOCKED: USER    Run = 13
DOCKED: USER    DPF = D:/Protein_go_brrr/autodock/final/AncA/2_3_BPG/dock.dpf
DOCKED: USER  
DOCKED: USER    Estimated Free Energy of Binding    =  -10.11 kcal/mol  [=(1)+(2)+(3)-(4)]
DOCKED: USER    Estimated Inhibition Constant, Ki   =   38.99 nM (nanomolar)  [Temperature = 298.15 K]
DOCKED: USER    
DOCKED: USER    (1) Final Intermolecular Energy     =  -11.90 kcal/mol
DOCKED: USER        vdW + Hbond + desolv Energy     =   -3.99 kcal/mol
DOCKED: USER        Electrostatic Energy            =   -7.91 kcal/mol
DOCKED: USER    (2) Final Total Internal Energy     =   +2.11 kcal/mol
DOCKED: USER    (3) Torsional Free Energy           =   +1.79 kcal/mol
DOCKED: USER    (4) Unbound System's Energy  [=(2)] =   +2.11 kcal/mol
DOCKED: USER    
DOCKED: USER    
DOCKED: USER    NEWDPF move 2_3_BPG_opt.pdbqt
DOCKED: USER    NEWDPF about 0.015000 0.083000 0.031000
DOCKED: USER    NEWDPF tran0 -6.642467 -13.707420 0.414977
DOCKED: USER    NEWDPF quaternion0 0.349183 0.499723 0.789917 -0.066168
DOCKED: USER    NEWDPF axisangle0 0.349950 0.500821 0.791652 -172.412170
DOCKED: USER    NEWDPF quat0 0.349950 0.500821 0.791652 -172.412170
DOCKED: USER    NEWDPF dihe0 153.28 -63.95 167.67 -4.16 53.32 -21.66 
DOCKED: USER  keepresnum = 1 
DOCKED: USER  
DOCKED: REMARK  6 active torsions:
DOCKED: REMARK  status: ('A' for Active; 'I' for Inactive)
DOCKED: REMARK    1  A    between atoms: P_1  and  O_3 
DOCKED: REMARK    2  A    between atoms: P_2  and  O_4 
DOCKED: REMARK    3  A    between atoms: O_3  and  C_13 
DOCKED: REMARK    4  A    between atoms: O_4  and  C_14 
DOCKED: REMARK    5  A    between atoms: C_13  and  C_14 
DOCKED: REMARK    6  A    between atoms: C_13  and  C_15 
DOCKED: USER                              x       y       z     vdW  Elec       q    Type
DOCKED: USER                           _______ _______ _______ _____ _____    ______ ____
DOCKED: ROOT
DOCKED: ATOM      1  C   UNL d   1      -6.223 -13.751  -0.106 -0.17 +0.33    +0.193 C 
DOCKED: ENDROOT
DOCKED: BRANCH   1   2
DOCKED: ATOM      2  O   UNL d   1      -5.641 -15.097  -0.114 -0.69 -0.76    -0.356 OA
DOCKED: BRANCH   2   3
DOCKED: ATOM      3  P   UNL d   1      -4.046 -15.389  -0.388 -0.15 -0.03    -0.014 P 
DOCKED: ATOM      4  O   UNL d   1      -3.514 -15.904   0.959 -0.04 -1.10    -0.577 OA
DOCKED: ATOM      5  O   UNL d   1      -3.402 -14.059  -0.774 -0.09 -1.08    -0.577 OA
DOCKED: ATOM      6  O   UNL d   1      -3.941 -16.454  -1.475 -0.00 -1.31    -0.638 OA
DOCKED: ENDBRANCH   2   3
DOCKED: ENDBRANCH   1   2
DOCKED: BRANCH   1   7
DOCKED: ATOM      7  C   UNL d   1      -7.415 -13.722   0.921 -0.15 +0.29    +0.201 C 
DOCKED: BRANCH   7   8
DOCKED: ATOM      8  O   UNL d   1      -7.497 -12.548   1.758 -0.81 -0.48    -0.364 OA
DOCKED: BRANCH   8   9
DOCKED: ATOM      9  P   UNL d   1      -7.500 -12.702   3.405 -0.42 -0.02    -0.015 P 
DOCKED: ATOM     10  O   UNL d   1      -7.667 -14.204   3.665 -0.21 -0.93    -0.577 OA
DOCKED: ATOM     11  O   UNL d   1      -8.691 -11.897   3.926 -0.05 -0.34    -0.577 OA
DOCKED: ATOM     12  O   UNL d   1      -6.157 -12.179   3.911 -0.56 -1.02    -0.638 OA
DOCKED: ENDBRANCH   8   9
DOCKED: ENDBRANCH   7   8
DOCKED: ENDBRANCH   1   7
DOCKED: BRANCH   1  13
DOCKED: ATOM     13  C   UNL d   1      -6.781 -13.395  -1.535 -0.21 +0.11    +0.073 C 
DOCKED: ATOM     14  O   UNL d   1      -6.838 -12.163  -1.880 -0.06 -0.56    -0.547 OA
DOCKED: ATOM     15  O   UNL d   1      -7.089 -14.378  -2.301 -0.36 -0.99    -0.547 OA
DOCKED: ENDBRANCH   1  13
DOCKED: TORSDOF 6
DOCKED: TER
DOCKED: ENDMDL
________________________________________________________________________________


	BEGINNING GENETIC ALGORITHM DOCKING 14 of 100
Run: 14 Seed: 2007753189 923333219 [ Run 14 of 100 GA/GALS ]
Beginning LAMARCKIAN GENETIC ALGORITHM (LGA), with a maximum of 25000000 energy evaluations.

Final-Value: -9.973


	FINAL GENETIC ALGORITHM DOCKED STATE
	_______________________________________________


Detailed state:  trans -6.176 -12.993 -0.288 quatxyzw 0.470654 0.203813 0.795037 -0.323821 center 0.015 0.083 0.031 ntor 6 -142.2378 -58.3090 -116.5331 42.3005 31.8421 -42.8682
State:	 -6.176 -12.993  -0.288   0.497  0.215  0.840 -142.212   -142.24  -58.31 -116.53   42.30   31.84  -42.87

DOCKED: MODEL       14
DOCKED: USER    Run = 14
DOCKED: USER    DPF = D:/Protein_go_brrr/autodock/final/AncA/2_3_BPG/dock.dpf
DOCKED: USER  
DOCKED: USER    Estimated Free Energy of Binding    =  -10.37 kcal/mol  [=(1)+(2)+(3)-(4)]
DOCKED: USER    Estimated Inhibition Constant, Ki   =   24.87 nM (nanomolar)  [Temperature = 298.15 K]
DOCKED: USER    
DOCKED: USER    (1) Final Intermolecular Energy     =  -12.16 kcal/mol
DOCKED: USER        vdW + Hbond + desolv Energy     =   -4.27 kcal/mol
DOCKED: USER        Electrostatic Energy            =   -7.90 kcal/mol
DOCKED: USER    (2) Final Total Internal Energy     =   +2.19 kcal/mol
DOCKED: USER    (3) Torsional Free Energy           =   +1.79 kcal/mol
DOCKED: USER    (4) Unbound System's Energy  [=(2)] =   +2.19 kcal/mol
DOCKED: USER    
DOCKED: USER    
DOCKED: USER    NEWDPF move 2_3_BPG_opt.pdbqt
DOCKED: USER    NEWDPF about 0.015000 0.083000 0.031000
DOCKED: USER    NEWDPF tran0 -6.176460 -12.993246 -0.287551
DOCKED: USER    NEWDPF quaternion0 0.470654 0.203813 0.795037 -0.323821
DOCKED: USER    NEWDPF axisangle0 0.497458 0.215421 0.840315 -142.211670
DOCKED: USER    NEWDPF quat0 0.497458 0.215421 0.840315 -142.211670
DOCKED: USER    NEWDPF dihe0 -142.24 -58.31 -116.53 42.30 31.84 -42.87 
DOCKED: USER  keepresnum = 1 
DOCKED: USER  
DOCKED: REMARK  6 active torsions:
DOCKED: REMARK  status: ('A' for Active; 'I' for Inactive)
DOCKED: REMARK    1  A    between atoms: P_1  and  O_3 
DOCKED: REMARK    2  A    between atoms: P_2  and  O_4 
DOCKED: REMARK    3  A    between atoms: O_3  and  C_13 
DOCKED: REMARK    4  A    between atoms: O_4  and  C_14 
DOCKED: REMARK    5  A    between atoms: C_13  and  C_14 
DOCKED: REMARK    6  A    between atoms: C_13  and  C_15 
DOCKED: USER                              x       y       z     vdW  Elec       q    Type
DOCKED: USER                           _______ _______ _______ _____ _____    ______ ____
DOCKED: ROOT
DOCKED: ATOM      1  C   UNL d   1      -5.790 -13.185  -0.801 -0.21 +0.32    +0.193 C 
DOCKED: ENDROOT
DOCKED: BRANCH   1   2
DOCKED: ATOM      2  O   UNL d   1      -6.250 -14.504  -1.251 -0.46 -0.75    -0.356 OA
DOCKED: BRANCH   2   3
DOCKED: ATOM      3  P   UNL d   1      -5.663 -15.918  -0.650 -0.12 -0.03    -0.014 P 
DOCKED: ATOM      4  O   UNL d   1      -6.880 -16.592   0.001 -0.02 -0.70    -0.577 OA
DOCKED: ATOM      5  O   UNL d   1      -4.597 -15.562   0.385 -0.41 -1.37    -0.577 OA
DOCKED: ATOM      6  O   UNL d   1      -5.126 -16.739  -1.818 -0.05 -1.37    -0.638 OA
DOCKED: ENDBRANCH   2   3
DOCKED: ENDBRANCH   1   2
DOCKED: BRANCH   1   7
DOCKED: ATOM      7  C   UNL d   1      -6.853 -12.594   0.197 -0.19 +0.24    +0.201 C 
DOCKED: BRANCH   7   8
DOCKED: ATOM      8  O   UNL d   1      -6.394 -12.376   1.550 -0.49 -0.61    -0.364 OA
DOCKED: BRANCH   8   9
DOCKED: ATOM      9  P   UNL d   1      -7.426 -12.606   2.823 -0.34 -0.02    -0.015 P 
DOCKED: ATOM     10  O   UNL d   1      -7.737 -14.107   2.819 -0.14 -0.95    -0.577 OA
DOCKED: ATOM     11  O   UNL d   1      -8.672 -11.765   2.544 -0.40 -0.44    -0.577 OA
DOCKED: ATOM     12  O   UNL d   1      -6.685 -12.176   4.088 -0.65 -0.82    -0.638 OA
DOCKED: ENDBRANCH   8   9
DOCKED: ENDBRANCH   7   8
DOCKED: ENDBRANCH   1   7
DOCKED: BRANCH   1  13
DOCKED: ATOM     13  C   UNL d   1      -5.657 -12.211  -2.031 -0.27 +0.10    +0.073 C 
DOCKED: ATOM     14  O   UNL d   1      -4.546 -12.178  -2.667 -0.45 -1.01    -0.547 OA
DOCKED: ATOM     15  O   UNL d   1      -6.705 -11.548  -2.364 -0.06 -0.48    -0.547 OA
DOCKED: ENDBRANCH   1  13
DOCKED: TORSDOF 6
DOCKED: TER
DOCKED: ENDMDL
________________________________________________________________________________


	BEGINNING GENETIC ALGORITHM DOCKING 15 of 100
Run: 15 Seed: 1897761278 1642286398 [ Run 15 of 100 GA/GALS ]
Beginning LAMARCKIAN GENETIC ALGORITHM (LGA), with a maximum of 25000000 energy evaluations.

Final-Value: -10.041


	FINAL GENETIC ALGORITHM DOCKED STATE
	_______________________________________________


Detailed state:  trans -6.298 -13.157 0.027 quatxyzw -0.074024 -0.446564 -0.891608 0.011643 center 0.015 0.083 0.031 ntor 6 89.2204 -154.5517 -45.9610 179.3893 -92.0754 -96.2537
State:	 -6.298 -13.157   0.027  -0.074 -0.447 -0.892 178.666     89.22 -154.55  -45.96  179.39  -92.08  -96.25

DOCKED: MODEL       15
DOCKED: USER    Run = 15
DOCKED: USER    DPF = D:/Protein_go_brrr/autodock/final/AncA/2_3_BPG/dock.dpf
DOCKED: USER  
DOCKED: USER    Estimated Free Energy of Binding    =  -10.76 kcal/mol  [=(1)+(2)+(3)-(4)]
DOCKED: USER    Estimated Inhibition Constant, Ki   =   13.07 nM (nanomolar)  [Temperature = 298.15 K]
DOCKED: USER    
DOCKED: USER    (1) Final Intermolecular Energy     =  -12.54 kcal/mol
DOCKED: USER        vdW + Hbond + desolv Energy     =   -4.18 kcal/mol
DOCKED: USER        Electrostatic Energy            =   -8.36 kcal/mol
DOCKED: USER    (2) Final Total Internal Energy     =   +2.50 kcal/mol
DOCKED: USER    (3) Torsional Free Energy           =   +1.79 kcal/mol
DOCKED: USER    (4) Unbound System's Energy  [=(2)] =   +2.50 kcal/mol
DOCKED: USER    
DOCKED: USER    
DOCKED: USER    NEWDPF move 2_3_BPG_opt.pdbqt
DOCKED: USER    NEWDPF about 0.015000 0.083000 0.031000
DOCKED: USER    NEWDPF tran0 -6.298016 -13.157478 0.027077
DOCKED: USER    NEWDPF quaternion0 -0.074024 -0.446564 -0.891608 0.011643
DOCKED: USER    NEWDPF axisangle0 -0.074029 -0.446595 -0.891669 178.665752
DOCKED: USER    NEWDPF quat0 -0.074029 -0.446595 -0.891669 178.665752
DOCKED: USER    NEWDPF dihe0 89.22 -154.55 -45.96 179.39 -92.08 -96.25 
DOCKED: USER  keepresnum = 1 
DOCKED: USER  
DOCKED: REMARK  6 active torsions:
DOCKED: REMARK  status: ('A' for Active; 'I' for Inactive)
DOCKED: REMARK    1  A    between atoms: P_1  and  O_3 
DOCKED: REMARK    2  A    between atoms: P_2  and  O_4 
DOCKED: REMARK    3  A    between atoms: O_3  and  C_13 
DOCKED: REMARK    4  A    between atoms: O_4  and  C_14 
DOCKED: REMARK    5  A    between atoms: C_13  and  C_14 
DOCKED: REMARK    6  A    between atoms: C_13  and  C_15 
DOCKED: USER                              x       y       z     vdW  Elec       q    Type
DOCKED: USER                           _______ _______ _______ _____ _____    ______ ____
DOCKED: ROOT
DOCKED: ATOM      1  C   UNL d   1      -5.720 -12.947  -0.238 -0.22 +0.30    +0.193 C 
DOCKED: ENDROOT
DOCKED: BRANCH   1   2
DOCKED: ATOM      2  O   UNL d   1      -4.737 -14.029  -0.109 -0.40 -0.77    -0.356 OA
DOCKED: BRANCH   2   3
DOCKED: ATOM      3  P   UNL d   1      -5.056 -15.592  -0.508 -0.08 -0.03    -0.014 P 
DOCKED: ATOM      4  O   UNL d   1      -6.247 -15.504  -1.475 -0.54 -1.31    -0.577 OA
DOCKED: ATOM      5  O   UNL d   1      -5.432 -16.320   0.781 -0.34 -1.18    -0.577 OA
DOCKED: ATOM      6  O   UNL d   1      -3.820 -16.165  -1.192 +0.01 -1.28    -0.638 OA
DOCKED: ENDBRANCH   2   3
DOCKED: ENDBRANCH   1   2
DOCKED: BRANCH   1   7
DOCKED: ATOM      7  C   UNL d   1      -7.145 -13.516   0.107 -0.18 +0.26    +0.201 C 
DOCKED: BRANCH   7   8
DOCKED: ATOM      8  O   UNL d   1      -7.323 -13.993   1.459 -0.11 -0.63    -0.364 OA
DOCKED: BRANCH   8   9
DOCKED: ATOM      9  P   UNL d   1      -7.871 -12.967   2.636 -0.42 -0.02    -0.015 P 
DOCKED: ATOM     10  O   UNL d   1      -8.914 -13.776   3.416 -0.01 -0.47    -0.577 OA
DOCKED: ATOM     11  O   UNL d   1      -8.493 -11.766   1.925 -0.53 -0.51    -0.577 OA
DOCKED: ATOM     12  O   UNL d   1      -6.670 -12.593   3.503 -0.65 -1.26    -0.638 OA
DOCKED: ENDBRANCH   8   9
DOCKED: ENDBRANCH   7   8
DOCKED: ENDBRANCH   1   7
DOCKED: BRANCH   1  13
DOCKED: ATOM     13  C   UNL d   1      -5.737 -12.408  -1.717 -0.27 +0.11    +0.073 C 
DOCKED: ATOM     14  O   UNL d   1      -6.859 -12.060  -2.228 -0.07 -0.55    -0.547 OA
DOCKED: ATOM     15  O   UNL d   1      -4.603 -12.289  -2.307 -0.39 -1.02    -0.547 OA
DOCKED: ENDBRANCH   1  13
DOCKED: TORSDOF 6
DOCKED: TER
DOCKED: ENDMDL
________________________________________________________________________________


	BEGINNING GENETIC ALGORITHM DOCKING 16 of 100
Run: 16 Seed: 226295935 696888259 [ Run 16 of 100 GA/GALS ]
Beginning LAMARCKIAN GENETIC ALGORITHM (LGA), with a maximum of 25000000 energy evaluations.

Final-Value: -9.665


	FINAL GENETIC ALGORITHM DOCKED STATE
	_______________________________________________


Detailed state:  trans -6.514 -13.002 0.348 quatxyzw -0.297031 -0.384086 -0.795413 0.362724 center 0.015 0.083 0.031 ntor 6 -169.9850 -46.6942 -74.9553 -34.1756 -93.8994 -118.0564
State:	 -6.514 -13.002   0.348  -0.319 -0.412 -0.854 137.465   -169.99  -46.69  -74.96  -34.18  -93.90 -118.06

DOCKED: MODEL       16
DOCKED: USER    Run = 16
DOCKED: USER    DPF = D:/Protein_go_brrr/autodock/final/AncA/2_3_BPG/dock.dpf
DOCKED: USER  
DOCKED: USER    Estimated Free Energy of Binding    =  -10.29 kcal/mol  [=(1)+(2)+(3)-(4)]
DOCKED: USER    Estimated Inhibition Constant, Ki   =   28.85 nM (nanomolar)  [Temperature = 298.15 K]
DOCKED: USER    
DOCKED: USER    (1) Final Intermolecular Energy     =  -12.08 kcal/mol
DOCKED: USER        vdW + Hbond + desolv Energy     =   -3.94 kcal/mol
DOCKED: USER        Electrostatic Energy            =   -8.14 kcal/mol
DOCKED: USER    (2) Final Total Internal Energy     =   +2.41 kcal/mol
DOCKED: USER    (3) Torsional Free Energy           =   +1.79 kcal/mol
DOCKED: USER    (4) Unbound System's Energy  [=(2)] =   +2.41 kcal/mol
DOCKED: USER    
DOCKED: USER    
DOCKED: USER    NEWDPF move 2_3_BPG_opt.pdbqt
DOCKED: USER    NEWDPF about 0.015000 0.083000 0.031000
DOCKED: USER    NEWDPF tran0 -6.513991 -13.002334 0.348007
DOCKED: USER    NEWDPF quaternion0 -0.297031 -0.384086 -0.795413 0.362724
DOCKED: USER    NEWDPF axisangle0 -0.318738 -0.412156 -0.853542 137.464817
DOCKED: USER    NEWDPF quat0 -0.318738 -0.412156 -0.853542 137.464817
DOCKED: USER    NEWDPF dihe0 -169.99 -46.69 -74.96 -34.18 -93.90 -118.06 
DOCKED: USER  keepresnum = 1 
DOCKED: USER  
DOCKED: REMARK  6 active torsions:
DOCKED: REMARK  status: ('A' for Active; 'I' for Inactive)
DOCKED: REMARK    1  A    between atoms: P_1  and  O_3 
DOCKED: REMARK    2  A    between atoms: P_2  and  O_4 
DOCKED: REMARK    3  A    between atoms: O_3  and  C_13 
DOCKED: REMARK    4  A    between atoms: O_4  and  C_14 
DOCKED: REMARK    5  A    between atoms: C_13  and  C_14 
DOCKED: REMARK    6  A    between atoms: C_13  and  C_15 
DOCKED: USER                              x       y       z     vdW  Elec       q    Type
DOCKED: USER                           _______ _______ _______ _____ _____    ______ ____
DOCKED: ROOT
DOCKED: ATOM      1  C   UNL d   1      -6.007 -13.300   0.026 -0.18 +0.32    +0.193 C 
DOCKED: ENDROOT
DOCKED: BRANCH   1   2
DOCKED: ATOM      2  O   UNL d   1      -6.180 -14.752   0.142 -0.58 -0.72    -0.356 OA
DOCKED: BRANCH   2   3
DOCKED: ATOM      3  P   UNL d   1      -4.998 -15.834  -0.228 -0.14 -0.03    -0.014 P 
DOCKED: ATOM      4  O   UNL d   1      -4.922 -16.753   1.002 -0.21 -1.03    -0.577 OA
DOCKED: ATOM      5  O   UNL d   1      -3.705 -15.044  -0.420 -0.13 -1.13    -0.577 OA
DOCKED: ATOM      6  O   UNL d   1      -5.434 -16.600  -1.473 -0.24 -1.25    -0.638 OA
DOCKED: ENDBRANCH   2   3
DOCKED: ENDBRANCH   1   2
DOCKED: BRANCH   1   7
DOCKED: ATOM      7  C   UNL d   1      -7.324 -12.593   0.516 -0.16 +0.23    +0.201 C 
DOCKED: BRANCH   7   8
DOCKED: ATOM      8  O   UNL d   1      -7.938 -13.154   1.698 -0.31 -0.44    -0.364 OA
DOCKED: BRANCH   8   9
DOCKED: ATOM      9  P   UNL d   1      -7.498 -12.611   3.198 -0.46 -0.02    -0.015 P 
DOCKED: ATOM     10  O   UNL d   1      -8.688 -11.776   3.685 -0.01 -0.35    -0.577 OA
DOCKED: ATOM     11  O   UNL d   1      -6.241 -11.761   3.014 -0.57 -0.83    -0.577 OA
DOCKED: ATOM     12  O   UNL d   1      -7.264 -13.842   4.072 -0.29 -1.20    -0.638 OA
DOCKED: ENDBRANCH   8   9
DOCKED: ENDBRANCH   7   8
DOCKED: ENDBRANCH   1   7
DOCKED: BRANCH   1  13
DOCKED: ATOM     13  C   UNL d   1      -5.753 -12.905  -1.477 -0.21 +0.12    +0.073 C 
DOCKED: ATOM     14  O   UNL d   1      -4.627 -12.379  -1.789 -0.32 -0.93    -0.547 OA
DOCKED: ATOM     15  O   UNL d   1      -6.676 -13.196  -2.320 -0.11 -0.88    -0.547 OA
DOCKED: ENDBRANCH   1  13
DOCKED: TORSDOF 6
DOCKED: TER
DOCKED: ENDMDL
________________________________________________________________________________


	BEGINNING GENETIC ALGORITHM DOCKING 17 of 100
Run: 17 Seed: 1017665405 1202971243 [ Run 17 of 100 GA/GALS ]
Beginning LAMARCKIAN GENETIC ALGORITHM (LGA), with a maximum of 25000000 energy evaluations.

Final-Value: -9.834


	FINAL GENETIC ALGORITHM DOCKED STATE
	_______________________________________________


Detailed state:  trans -6.094 -12.963 -0.275 quatxyzw -0.820049 -0.453317 0.303674 -0.172640 center 0.015 0.083 0.031 ntor 6 177.9564 49.7934 -24.4586 54.6440 -26.8346 -113.1945
State:	 -6.094 -12.963  -0.275  -0.833 -0.460  0.308 -160.117    177.96   49.79  -24.46   54.64  -26.83 -113.19

DOCKED: MODEL       17
DOCKED: USER    Run = 17
DOCKED: USER    DPF = D:/Protein_go_brrr/autodock/final/AncA/2_3_BPG/dock.dpf
DOCKED: USER  
DOCKED: USER    Estimated Free Energy of Binding    =  -10.40 kcal/mol  [=(1)+(2)+(3)-(4)]
DOCKED: USER    Estimated Inhibition Constant, Ki   =   23.82 nM (nanomolar)  [Temperature = 298.15 K]
DOCKED: USER    
DOCKED: USER    (1) Final Intermolecular Energy     =  -12.19 kcal/mol
DOCKED: USER        vdW + Hbond + desolv Energy     =   -4.28 kcal/mol
DOCKED: USER        Electrostatic Energy            =   -7.91 kcal/mol
DOCKED: USER    (2) Final Total Internal Energy     =   +2.35 kcal/mol
DOCKED: USER    (3) Torsional Free Energy           =   +1.79 kcal/mol
DOCKED: USER    (4) Unbound System's Energy  [=(2)] =   +2.35 kcal/mol
DOCKED: USER    
DOCKED: USER    
DOCKED: USER    NEWDPF move 2_3_BPG_opt.pdbqt
DOCKED: USER    NEWDPF about 0.015000 0.083000 0.031000
DOCKED: USER    NEWDPF tran0 -6.093566 -12.962995 -0.274916
DOCKED: USER    NEWDPF quaternion0 -0.820049 -0.453317 0.303674 -0.172640
DOCKED: USER    NEWDPF axisangle0 -0.832550 -0.460227 0.308304 -160.117290
DOCKED: USER    NEWDPF quat0 -0.832550 -0.460227 0.308304 -160.117290
DOCKED: USER    NEWDPF dihe0 177.96 49.79 -24.46 54.64 -26.83 -113.19 
DOCKED: USER  keepresnum = 1 
DOCKED: USER  
DOCKED: REMARK  6 active torsions:
DOCKED: REMARK  status: ('A' for Active; 'I' for Inactive)
DOCKED: REMARK    1  A    between atoms: P_1  and  O_3 
DOCKED: REMARK    2  A    between atoms: P_2  and  O_4 
DOCKED: REMARK    3  A    between atoms: O_3  and  C_13 
DOCKED: REMARK    4  A    between atoms: O_4  and  C_14 
DOCKED: REMARK    5  A    between atoms: C_13  and  C_14 
DOCKED: REMARK    6  A    between atoms: C_13  and  C_15 
DOCKED: USER                              x       y       z     vdW  Elec       q    Type
DOCKED: USER                           _______ _______ _______ _____ _____    ______ ____
DOCKED: ROOT
DOCKED: ATOM      1  C   UNL d   1      -6.591 -13.294   0.029 -0.20 +0.28    +0.193 C 
DOCKED: ENDROOT
DOCKED: BRANCH   1   2
DOCKED: ATOM      2  O   UNL d   1      -6.085 -14.612   0.428 -0.43 -0.83    -0.356 OA
DOCKED: BRANCH   2   3
DOCKED: ATOM      3  P   UNL d   1      -5.898 -15.864  -0.622 -0.13 -0.03    -0.014 P 
DOCKED: ATOM      4  O   UNL d   1      -6.500 -17.073   0.111 -0.01 -0.67    -0.577 OA
DOCKED: ATOM      5  O   UNL d   1      -4.399 -16.038  -0.857 -0.09 -1.16    -0.577 OA
DOCKED: ATOM      6  O   UNL d   1      -6.678 -15.534  -1.891 -0.56 -1.36    -0.638 OA
DOCKED: ENDBRANCH   2   3
DOCKED: ENDBRANCH   1   2
DOCKED: BRANCH   1   7
DOCKED: ATOM      7  C   UNL d   1      -5.375 -12.401  -0.418 -0.22 +0.27    +0.201 C 
DOCKED: BRANCH   7   8
DOCKED: ATOM      8  O   UNL d   1      -4.426 -13.028  -1.308 -0.29 -0.71    -0.364 OA
DOCKED: BRANCH   8   9
DOCKED: ATOM      9  P   UNL d   1      -3.477 -12.100  -2.296 -0.22 -0.02    -0.015 P 
DOCKED: ATOM     10  O   UNL d   1      -2.271 -12.985  -2.635 -0.34 -0.89    -0.577 OA
DOCKED: ATOM     11  O   UNL d   1      -3.071 -10.865  -1.492 -0.05 -0.43    -0.577 OA
DOCKED: ATOM     12  O   UNL d   1      -4.308 -11.763  -3.533 -0.43 -0.92    -0.638 OA
DOCKED: ENDBRANCH   8   9
DOCKED: ENDBRANCH   7   8
DOCKED: ENDBRANCH   1   7
DOCKED: BRANCH   1  13
DOCKED: ATOM     13  C   UNL d   1      -7.306 -12.599   1.247 -0.16 +0.10    +0.073 C 
DOCKED: ATOM     14  O   UNL d   1      -8.491 -12.141   1.080 -0.49 -0.47    -0.547 OA
DOCKED: ATOM     15  O   UNL d   1      -6.676 -12.591   2.365 -0.65 -1.07    -0.547 OA
DOCKED: ENDBRANCH   1  13
DOCKED: TORSDOF 6
DOCKED: TER
DOCKED: ENDMDL
________________________________________________________________________________


	BEGINNING GENETIC ALGORITHM DOCKING 18 of 100
Run: 18 Seed: 1748438835 675034345 [ Run 18 of 100 GA/GALS ]
Beginning LAMARCKIAN GENETIC ALGORITHM (LGA), with a maximum of 25000000 energy evaluations.

Final-Value: -9.842


	FINAL GENETIC ALGORITHM DOCKED STATE
	_______________________________________________


Detailed state:  trans -5.695 -12.964 -0.139 quatxyzw 0.466938 0.228343 0.796812 -0.308090 center 0.015 0.083 0.031 ntor 6 -138.9313 27.9235 -29.3803 30.7596 -17.8363 -105.8324
State:	 -5.695 -12.964  -0.139   0.491  0.240  0.838 -144.112   -138.93   27.92  -29.38   30.76  -17.84 -105.83

DOCKED: MODEL       18
DOCKED: USER    Run = 18
DOCKED: USER    DPF = D:/Protein_go_brrr/autodock/final/AncA/2_3_BPG/dock.dpf
DOCKED: USER  
DOCKED: USER    Estimated Free Energy of Binding    =  -10.21 kcal/mol  [=(1)+(2)+(3)-(4)]
DOCKED: USER    Estimated Inhibition Constant, Ki   =   32.65 nM (nanomolar)  [Temperature = 298.15 K]
DOCKED: USER    
DOCKED: USER    (1) Final Intermolecular Energy     =  -12.00 kcal/mol
DOCKED: USER        vdW + Hbond + desolv Energy     =   -3.93 kcal/mol
DOCKED: USER        Electrostatic Energy            =   -8.08 kcal/mol
DOCKED: USER    (2) Final Total Internal Energy     =   +2.16 kcal/mol
DOCKED: USER    (3) Torsional Free Energy           =   +1.79 kcal/mol
DOCKED: USER    (4) Unbound System's Energy  [=(2)] =   +2.16 kcal/mol
DOCKED: USER    
DOCKED: USER    
DOCKED: USER    NEWDPF move 2_3_BPG_opt.pdbqt
DOCKED: USER    NEWDPF about 0.015000 0.083000 0.031000
DOCKED: USER    NEWDPF tran0 -5.694912 -12.964259 -0.138507
DOCKED: USER    NEWDPF quaternion0 0.466938 0.228343 0.796812 -0.308090
DOCKED: USER    NEWDPF axisangle0 0.490812 0.240018 0.837553 -144.111633
DOCKED: USER    NEWDPF quat0 0.490812 0.240018 0.837553 -144.111633
DOCKED: USER    NEWDPF dihe0 -138.93 27.92 -29.38 30.76 -17.84 -105.83 
DOCKED: USER  keepresnum = 1 
DOCKED: USER  
DOCKED: REMARK  6 active torsions:
DOCKED: REMARK  status: ('A' for Active; 'I' for Inactive)
DOCKED: REMARK    1  A    between atoms: P_1  and  O_3 
DOCKED: REMARK    2  A    between atoms: P_2  and  O_4 
DOCKED: REMARK    3  A    between atoms: O_3  and  C_13 
DOCKED: REMARK    4  A    between atoms: O_4  and  C_14 
DOCKED: REMARK    5  A    between atoms: C_13  and  C_14 
DOCKED: REMARK    6  A    between atoms: C_13  and  C_15 
DOCKED: USER                              x       y       z     vdW  Elec       q    Type
DOCKED: USER                           _______ _______ _______ _____ _____    ______ ____
DOCKED: ROOT
DOCKED: ATOM      1  C   UNL d   1      -5.307 -13.150  -0.653 -0.22 +0.33    +0.193 C 
DOCKED: ENDROOT
DOCKED: BRANCH   1   2
DOCKED: ATOM      2  O   UNL d   1      -5.705 -14.501  -1.062 -0.37 -0.82    -0.356 OA
DOCKED: BRANCH   2   3
DOCKED: ATOM      3  P   UNL d   1      -4.864 -15.853  -0.649 -0.09 -0.03    -0.014 P 
DOCKED: ATOM      4  O   UNL d   1      -5.235 -16.880  -1.731 -0.12 -1.11    -0.577 OA
DOCKED: ATOM      5  O   UNL d   1      -5.356 -16.289   0.730 -0.35 -1.18    -0.577 OA
DOCKED: ATOM      6  O   UNL d   1      -3.378 -15.514  -0.685 -0.05 -1.15    -0.638 OA
DOCKED: ENDBRANCH   2   3
DOCKED: ENDBRANCH   1   2
DOCKED: BRANCH   1   7
DOCKED: ATOM      7  C   UNL d   1      -6.384 -12.587   0.346 -0.19 +0.27    +0.201 C 
DOCKED: BRANCH   7   8
DOCKED: ATOM      8  O   UNL d   1      -6.678 -13.419   1.490 -0.05 -0.78    -0.364 OA
DOCKED: BRANCH   8   9
DOCKED: ATOM      9  P   UNL d   1      -7.500 -12.793   2.782 -0.31 -0.02    -0.015 P 
DOCKED: ATOM     10  O   UNL d   1      -8.215 -13.991   3.418 -0.12 -0.68    -0.577 OA
DOCKED: ATOM     11  O   UNL d   1      -8.488 -11.767   2.227 -0.54 -0.50    -0.577 OA
DOCKED: ATOM     12  O   UNL d   1      -6.464 -12.178   3.721 -0.66 -0.99    -0.638 OA
DOCKED: ENDBRANCH   8   9
DOCKED: ENDBRANCH   7   8
DOCKED: ENDBRANCH   1   7
DOCKED: BRANCH   1  13
DOCKED: ATOM     13  C   UNL d   1      -5.241 -12.203  -1.909 -0.27 +0.11    +0.073 C 
DOCKED: ATOM     14  O   UNL d   1      -4.163 -12.179  -2.600 -0.55 -1.00    -0.547 OA
DOCKED: ATOM     15  O   UNL d   1      -6.307 -11.552  -2.204 -0.06 -0.52    -0.547 OA
DOCKED: ENDBRANCH   1  13
DOCKED: TORSDOF 6
DOCKED: TER
DOCKED: ENDMDL
________________________________________________________________________________


	BEGINNING GENETIC ALGORITHM DOCKING 19 of 100
Run: 19 Seed: 826869708 1668538516 [ Run 19 of 100 GA/GALS ]
Beginning LAMARCKIAN GENETIC ALGORITHM (LGA), with a maximum of 25000000 energy evaluations.

Final-Value: -9.983


	FINAL GENETIC ALGORITHM DOCKED STATE
	_______________________________________________


Detailed state:  trans -6.692 -13.300 0.332 quatxyzw 0.290136 0.482676 0.799187 -0.210107 center 0.015 0.083 0.031 ntor 6 -179.9748 -46.2749 -179.7956 -27.7225 76.8765 -42.4908
State:	 -6.692 -13.300   0.332   0.297  0.494  0.817 -155.743   -179.97  -46.27 -179.80  -27.72   76.88  -42.49

DOCKED: MODEL       19
DOCKED: USER    Run = 19
DOCKED: USER    DPF = D:/Protein_go_brrr/autodock/final/AncA/2_3_BPG/dock.dpf
DOCKED: USER  
DOCKED: USER    Estimated Free Energy of Binding    =  -10.53 kcal/mol  [=(1)+(2)+(3)-(4)]
DOCKED: USER    Estimated Inhibition Constant, Ki   =   19.05 nM (nanomolar)  [Temperature = 298.15 K]
DOCKED: USER    
DOCKED: USER    (1) Final Intermolecular Energy     =  -12.32 kcal/mol
DOCKED: USER        vdW + Hbond + desolv Energy     =   -3.99 kcal/mol
DOCKED: USER        Electrostatic Energy            =   -8.33 kcal/mol
DOCKED: USER    (2) Final Total Internal Energy     =   +2.34 kcal/mol
DOCKED: USER    (3) Torsional Free Energy           =   +1.79 kcal/mol
DOCKED: USER    (4) Unbound System's Energy  [=(2)] =   +2.34 kcal/mol
DOCKED: USER    
DOCKED: USER    
DOCKED: USER    NEWDPF move 2_3_BPG_opt.pdbqt
DOCKED: USER    NEWDPF about 0.015000 0.083000 0.031000
DOCKED: USER    NEWDPF tran0 -6.691657 -13.299985 0.332092
DOCKED: USER    NEWDPF quaternion0 0.290136 0.482676 0.799187 -0.210107
DOCKED: USER    NEWDPF axisangle0 0.296760 0.493696 0.817434 -155.742804
DOCKED: USER    NEWDPF quat0 0.296760 0.493696 0.817434 -155.742804
DOCKED: USER    NEWDPF dihe0 -179.97 -46.27 -179.80 -27.72 76.88 -42.49 
DOCKED: USER  keepresnum = 1 
DOCKED: USER  
DOCKED: REMARK  6 active torsions:
DOCKED: REMARK  status: ('A' for Active; 'I' for Inactive)
DOCKED: REMARK    1  A    between atoms: P_1  and  O_3 
DOCKED: REMARK    2  A    between atoms: P_2  and  O_4 
DOCKED: REMARK    3  A    between atoms: O_3  and  C_13 
DOCKED: REMARK    4  A    between atoms: O_4  and  C_14 
DOCKED: REMARK    5  A    between atoms: C_13  and  C_14 
DOCKED: REMARK    6  A    between atoms: C_13  and  C_15 
DOCKED: USER                              x       y       z     vdW  Elec       q    Type
DOCKED: USER                           _______ _______ _______ _____ _____    ______ ____
DOCKED: ROOT
DOCKED: ATOM      1  C   UNL d   1      -6.177 -13.461  -0.066 -0.19 +0.32    +0.193 C 
DOCKED: ENDROOT
DOCKED: BRANCH   1   2
DOCKED: ATOM      2  O   UNL d   1      -5.869 -14.882   0.138 -0.65 -0.78    -0.356 OA
DOCKED: BRANCH   2   3
DOCKED: ATOM      3  P   UNL d   1      -4.425 -15.559  -0.260 -0.15 -0.03    -0.014 P 
DOCKED: ATOM      4  O   UNL d   1      -3.998 -16.323   1.003 -0.14 -1.11    -0.577 OA
DOCKED: ATOM      5  O   UNL d   1      -3.462 -14.417  -0.577 -0.09 -1.08    -0.577 OA
DOCKED: ATOM      6  O   UNL d   1      -4.655 -16.504  -1.435 -0.01 -1.35    -0.638 OA
DOCKED: ENDBRANCH   2   3
DOCKED: ENDBRANCH   1   2
DOCKED: BRANCH   1   7
DOCKED: ATOM      7  C   UNL d   1      -7.550 -13.137   0.629 -0.20 +0.24    +0.201 C 
DOCKED: BRANCH   7   8
DOCKED: ATOM      8  O   UNL d   1      -7.499 -12.184   1.714 -0.78 -0.47    -0.364 OA
DOCKED: BRANCH   8   9
DOCKED: ATOM      9  P   UNL d   1      -7.502 -12.711   3.282 -0.40 -0.02    -0.015 P 
DOCKED: ATOM     10  O   UNL d   1      -7.504 -14.241   3.189 -0.12 -1.11    -0.577 OA
DOCKED: ATOM     11  O   UNL d   1      -8.780 -12.177   3.929 -0.09 -0.36    -0.577 OA
DOCKED: ATOM     12  O   UNL d   1      -6.230 -12.177   3.940 -0.60 -0.99    -0.638 OA
DOCKED: ENDBRANCH   8   9
DOCKED: ENDBRANCH   7   8
DOCKED: ENDBRANCH   1   7
DOCKED: BRANCH   1  13
DOCKED: ATOM     13  C   UNL d   1      -6.305 -13.152  -1.604 -0.19 +0.12    +0.073 C 
DOCKED: ATOM     14  O   UNL d   1      -5.596 -12.207  -2.098 -0.13 -0.79    -0.547 OA
DOCKED: ATOM     15  O   UNL d   1      -7.074 -13.918  -2.290 -0.26 -0.91    -0.547 OA
DOCKED: ENDBRANCH   1  13
DOCKED: TORSDOF 6
DOCKED: TER
DOCKED: ENDMDL
________________________________________________________________________________


	BEGINNING GENETIC ALGORITHM DOCKING 20 of 100
Run: 20 Seed: 204722080 1096471876 [ Run 20 of 100 GA/GALS ]
Beginning LAMARCKIAN GENETIC ALGORITHM (LGA), with a maximum of 25000000 energy evaluations.

Final-Value: -10.427


	FINAL GENETIC ALGORITHM DOCKED STATE
	_______________________________________________


Detailed state:  trans -6.671 -13.254 -0.416 quatxyzw -0.053028 -0.965884 -0.065170 -0.244968 center 0.015 0.083 0.031 ntor 6 -162.4407 67.6347 -134.8317 18.8581 20.7017 169.6511
State:	 -6.671 -13.254  -0.416  -0.055 -0.996 -0.067 -151.640   -162.44   67.63 -134.83   18.86   20.70  169.65

DOCKED: MODEL       20
DOCKED: USER    Run = 20
DOCKED: USER    DPF = D:/Protein_go_brrr/autodock/final/AncA/2_3_BPG/dock.dpf
DOCKED: USER  
DOCKED: USER    Estimated Free Energy of Binding    =  -10.80 kcal/mol  [=(1)+(2)+(3)-(4)]
DOCKED: USER    Estimated Inhibition Constant, Ki   =   12.11 nM (nanomolar)  [Temperature = 298.15 K]
DOCKED: USER    
DOCKED: USER    (1) Final Intermolecular Energy     =  -12.59 kcal/mol
DOCKED: USER        vdW + Hbond + desolv Energy     =   -4.61 kcal/mol
DOCKED: USER        Electrostatic Energy            =   -7.98 kcal/mol
DOCKED: USER    (2) Final Total Internal Energy     =   +2.16 kcal/mol
DOCKED: USER    (3) Torsional Free Energy           =   +1.79 kcal/mol
DOCKED: USER    (4) Unbound System's Energy  [=(2)] =   +2.16 kcal/mol
DOCKED: USER    
DOCKED: USER    
DOCKED: USER    NEWDPF move 2_3_BPG_opt.pdbqt
DOCKED: USER    NEWDPF about 0.015000 0.083000 0.031000
DOCKED: USER    NEWDPF tran0 -6.670695 -13.254338 -0.415781
DOCKED: USER    NEWDPF quaternion0 -0.053028 -0.965884 -0.065170 -0.244968
DOCKED: USER    NEWDPF axisangle0 -0.054695 -0.996238 -0.067218 -151.640146
DOCKED: USER    NEWDPF quat0 -0.054695 -0.996238 -0.067218 -151.640146
DOCKED: USER    NEWDPF dihe0 -162.44 67.63 -134.83 18.86 20.70 169.65 
DOCKED: USER  keepresnum = 1 
DOCKED: USER  
DOCKED: REMARK  6 active torsions:
DOCKED: REMARK  status: ('A' for Active; 'I' for Inactive)
DOCKED: REMARK    1  A    between atoms: P_1  and  O_3 
DOCKED: REMARK    2  A    between atoms: P_2  and  O_4 
DOCKED: REMARK    3  A    between atoms: O_3  and  C_13 
DOCKED: REMARK    4  A    between atoms: O_4  and  C_14 
DOCKED: REMARK    5  A    between atoms: C_13  and  C_14 
DOCKED: REMARK    6  A    between atoms: C_13  and  C_15 
DOCKED: USER                              x       y       z     vdW  Elec       q    Type
DOCKED: USER                           _______ _______ _______ _____ _____    ______ ____
DOCKED: ROOT
DOCKED: ATOM      1  C   UNL d   1      -6.244 -13.589  -0.809 -0.19 +0.32    +0.193 C 
DOCKED: ENDROOT
DOCKED: BRANCH   1   2
DOCKED: ATOM      2  O   UNL d   1      -4.918 -12.974  -0.673 -0.19 -0.59    -0.356 OA
DOCKED: BRANCH   2   3
DOCKED: ATOM      3  P   UNL d   1      -4.163 -12.177  -1.898 -0.27 -0.02    -0.014 P 
DOCKED: ATOM      4  O   UNL d   1      -2.902 -13.010  -2.177 -0.43 -1.11    -0.577 OA
DOCKED: ATOM      5  O   UNL d   1      -3.812 -10.783  -1.382 -0.06 -0.45    -0.577 OA
DOCKED: ATOM      6  O   UNL d   1      -5.102 -12.162  -3.100 -0.21 -1.13    -0.638 OA
DOCKED: ENDBRANCH   2   3
DOCKED: ENDBRANCH   1   2
DOCKED: BRANCH   1   7
DOCKED: ATOM      7  C   UNL d   1      -7.185 -13.014   0.312 -0.20 +0.25    +0.201 C 
DOCKED: BRANCH   7   8
DOCKED: ATOM      8  O   UNL d   1      -6.538 -12.643   1.549 -0.54 -0.65    -0.364 OA
DOCKED: BRANCH   8   9
DOCKED: ATOM      9  P   UNL d   1      -7.405 -12.593   2.957 -0.34 -0.02    -0.015 P 
DOCKED: ATOM     10  O   UNL d   1      -8.196 -13.907   2.984 -0.12 -0.71    -0.577 OA
DOCKED: ATOM     11  O   UNL d   1      -8.324 -11.375   2.872 -0.34 -0.45    -0.577 OA
DOCKED: ATOM     12  O   UNL d   1      -6.400 -12.505   4.104 -0.59 -1.10    -0.638 OA
DOCKED: ENDBRANCH   8   9
DOCKED: ENDBRANCH   7   8
DOCKED: ENDBRANCH   1   7
DOCKED: BRANCH   1  13
DOCKED: ATOM     13  C   UNL d   1      -6.136 -15.149  -0.626 -0.13 +0.14    +0.073 C 
DOCKED: ATOM     14  O   UNL d   1      -6.291 -15.898  -1.654 -0.50 -1.19    -0.547 OA
DOCKED: ATOM     15  O   UNL d   1      -5.833 -15.578   0.545 -0.50 -1.27    -0.547 OA
DOCKED: ENDBRANCH   1  13
DOCKED: TORSDOF 6
DOCKED: TER
DOCKED: ENDMDL
________________________________________________________________________________


	BEGINNING GENETIC ALGORITHM DOCKING 21 of 100
Run: 21 Seed: 661529213 1011201022 [ Run 21 of 100 GA/GALS ]
Beginning LAMARCKIAN GENETIC ALGORITHM (LGA), with a maximum of 25000000 energy evaluations.

Final-Value: -9.692


	FINAL GENETIC ALGORITHM DOCKED STATE
	_______________________________________________


Detailed state:  trans -6.564 -13.670 -0.189 quatxyzw 0.455624 0.490233 0.740420 -0.062092 center 0.015 0.083 0.031 ntor 6 143.8332 163.5914 -176.8377 30.5945 15.2468 -33.5498
State:	 -6.564 -13.670  -0.189   0.457  0.491  0.742 -172.880    143.83  163.59 -176.84   30.59   15.25  -33.55

DOCKED: MODEL       21
DOCKED: USER    Run = 21
DOCKED: USER    DPF = D:/Protein_go_brrr/autodock/final/AncA/2_3_BPG/dock.dpf
DOCKED: USER  
DOCKED: USER    Estimated Free Energy of Binding    =   -9.92 kcal/mol  [=(1)+(2)+(3)-(4)]
DOCKED: USER    Estimated Inhibition Constant, Ki   =   53.79 nM (nanomolar)  [Temperature = 298.15 K]
DOCKED: USER    
DOCKED: USER    (1) Final Intermolecular Energy     =  -11.71 kcal/mol
DOCKED: USER        vdW + Hbond + desolv Energy     =   -3.66 kcal/mol
DOCKED: USER        Electrostatic Energy            =   -8.05 kcal/mol
DOCKED: USER    (2) Final Total Internal Energy     =   +2.01 kcal/mol
DOCKED: USER    (3) Torsional Free Energy           =   +1.79 kcal/mol
DOCKED: USER    (4) Unbound System's Energy  [=(2)] =   +2.01 kcal/mol
DOCKED: USER    
DOCKED: USER    
DOCKED: USER    NEWDPF move 2_3_BPG_opt.pdbqt
DOCKED: USER    NEWDPF about 0.015000 0.083000 0.031000
DOCKED: USER    NEWDPF tran0 -6.564067 -13.670496 -0.188730
DOCKED: USER    NEWDPF quaternion0 0.455624 0.490233 0.740420 -0.062092
DOCKED: USER    NEWDPF axisangle0 0.456505 0.491181 0.741852 -172.880243
DOCKED: USER    NEWDPF quat0 0.456505 0.491181 0.741852 -172.880243
DOCKED: USER    NEWDPF dihe0 143.83 163.59 -176.84 30.59 15.25 -33.55 
DOCKED: USER  keepresnum = 1 
DOCKED: USER  
DOCKED: REMARK  6 active torsions:
DOCKED: REMARK  status: ('A' for Active; 'I' for Inactive)
DOCKED: REMARK    1  A    between atoms: P_1  and  O_3 
DOCKED: REMARK    2  A    between atoms: P_2  and  O_4 
DOCKED: REMARK    3  A    between atoms: O_3  and  C_13 
DOCKED: REMARK    4  A    between atoms: O_4  and  C_14 
DOCKED: REMARK    5  A    between atoms: C_13  and  C_14 
DOCKED: REMARK    6  A    between atoms: C_13  and  C_15 
DOCKED: USER                              x       y       z     vdW  Elec       q    Type
DOCKED: USER                           _______ _______ _______ _____ _____    ______ ____
DOCKED: ROOT
DOCKED: ATOM      1  C   UNL d   1      -6.268 -13.764  -0.783 -0.18 +0.33    +0.193 C 
DOCKED: ENDROOT
DOCKED: BRANCH   1   2
DOCKED: ATOM      2  O   UNL d   1      -5.852 -15.169  -0.870 -0.52 -0.76    -0.356 OA
DOCKED: BRANCH   2   3
DOCKED: ATOM      3  P   UNL d   1      -4.302 -15.667  -0.637 -0.10 -0.03    -0.014 P 
DOCKED: ATOM      4  O   UNL d   1      -3.456 -14.404  -0.862 -0.06 -1.15    -0.577 OA
DOCKED: ATOM      5  O   UNL d   1      -4.008 -16.735  -1.688 -0.04 -1.17    -0.577 OA
DOCKED: ATOM      6  O   UNL d   1      -4.181 -16.175   0.796 -0.18 -1.30    -0.638 OA
DOCKED: ENDBRANCH   2   3
DOCKED: ENDBRANCH   1   2
DOCKED: BRANCH   1   7
DOCKED: ATOM      7  C   UNL d   1      -7.213 -13.594   0.463 -0.17 +0.28    +0.201 C 
DOCKED: BRANCH   7   8
DOCKED: ATOM      8  O   UNL d   1      -6.829 -12.573   1.410 -0.64 -0.57    -0.364 OA
DOCKED: BRANCH   8   9
DOCKED: ATOM      9  P   UNL d   1      -7.446 -12.590   2.945 -0.39 -0.02    -0.015 P 
DOCKED: ATOM     10  O   UNL d   1      -8.261 -13.886   3.033 -0.10 -0.68    -0.577 OA
DOCKED: ATOM     11  O   UNL d   1      -8.329 -11.350   3.085 -0.31 -0.42    -0.577 OA
DOCKED: ATOM     12  O   UNL d   1      -6.260 -12.591   3.909 -0.50 -1.33    -0.638 OA
DOCKED: ENDBRANCH   8   9
DOCKED: ENDBRANCH   7   8
DOCKED: ENDBRANCH   1   7
DOCKED: BRANCH   1  13
DOCKED: ATOM     13  C   UNL d   1      -7.064 -13.356  -2.078 -0.21 +0.10    +0.073 C 
DOCKED: ATOM     14  O   UNL d   1      -7.209 -12.110  -2.339 -0.06 -0.51    -0.547 OA
DOCKED: ATOM     15  O   UNL d   1      -7.470 -14.309  -2.837 -0.21 -0.83    -0.547 OA
DOCKED: ENDBRANCH   1  13
DOCKED: TORSDOF 6
DOCKED: TER
DOCKED: ENDMDL
________________________________________________________________________________


	BEGINNING GENETIC ALGORITHM DOCKING 22 of 100
Run: 22 Seed: 1586131246 1930486780 [ Run 22 of 100 GA/GALS ]
Beginning LAMARCKIAN GENETIC ALGORITHM (LGA), with a maximum of 25000000 energy evaluations.

Final-Value: -10.098


	FINAL GENETIC ALGORITHM DOCKED STATE
	_______________________________________________


Detailed state:  trans -6.295 -13.055 -0.894 quatxyzw 0.676582 0.530084 -0.510604 0.023045 center 0.015 0.083 0.031 ntor 6 139.8772 72.8022 23.9430 40.7890 -17.1214 -152.4560
State:	 -6.295 -13.055  -0.894   0.677  0.530 -0.511 177.359    139.88   72.80   23.94   40.79  -17.12 -152.46

DOCKED: MODEL       22
DOCKED: USER    Run = 22
DOCKED: USER    DPF = D:/Protein_go_brrr/autodock/final/AncA/2_3_BPG/dock.dpf
DOCKED: USER  
DOCKED: USER    Estimated Free Energy of Binding    =  -10.54 kcal/mol  [=(1)+(2)+(3)-(4)]
DOCKED: USER    Estimated Inhibition Constant, Ki   =   18.93 nM (nanomolar)  [Temperature = 298.15 K]
DOCKED: USER    
DOCKED: USER    (1) Final Intermolecular Energy     =  -12.33 kcal/mol
DOCKED: USER        vdW + Hbond + desolv Energy     =   -4.37 kcal/mol
DOCKED: USER        Electrostatic Energy            =   -7.95 kcal/mol
DOCKED: USER    (2) Final Total Internal Energy     =   +2.23 kcal/mol
DOCKED: USER    (3) Torsional Free Energy           =   +1.79 kcal/mol
DOCKED: USER    (4) Unbound System's Energy  [=(2)] =   +2.23 kcal/mol
DOCKED: USER    
DOCKED: USER    
DOCKED: USER    NEWDPF move 2_3_BPG_opt.pdbqt
DOCKED: USER    NEWDPF about 0.015000 0.083000 0.031000
DOCKED: USER    NEWDPF tran0 -6.294528 -13.054641 -0.894268
DOCKED: USER    NEWDPF quaternion0 0.676582 0.530084 -0.510604 0.023045
DOCKED: USER    NEWDPF axisangle0 0.676762 0.530225 -0.510740 177.359054
DOCKED: USER    NEWDPF quat0 0.676762 0.530225 -0.510740 177.359054
DOCKED: USER    NEWDPF dihe0 139.88 72.80 23.94 40.79 -17.12 -152.46 
DOCKED: USER  keepresnum = 1 
DOCKED: USER  
DOCKED: REMARK  6 active torsions:
DOCKED: REMARK  status: ('A' for Active; 'I' for Inactive)
DOCKED: REMARK    1  A    between atoms: P_1  and  O_3 
DOCKED: REMARK    2  A    between atoms: P_2  and  O_4 
DOCKED: REMARK    3  A    between atoms: O_3  and  C_13 
DOCKED: REMARK    4  A    between atoms: O_4  and  C_14 
DOCKED: REMARK    5  A    between atoms: C_13  and  C_14 
DOCKED: REMARK    6  A    between atoms: C_13  and  C_15 
DOCKED: USER                              x       y       z     vdW  Elec       q    Type
DOCKED: USER                           _______ _______ _______ _____ _____    ______ ____
DOCKED: ROOT
DOCKED: ATOM      1  C   UNL d   1      -6.529 -13.400  -0.369 -0.20 +0.28    +0.193 C 
DOCKED: ENDROOT
DOCKED: BRANCH   1   2
DOCKED: ATOM      2  O   UNL d   1      -5.427 -14.198   0.181 -0.54 -0.83    -0.356 OA
DOCKED: BRANCH   2   3
DOCKED: ATOM      3  P   UNL d   1      -5.110 -15.742  -0.289 -0.13 -0.03    -0.014 P 
DOCKED: ATOM      4  O   UNL d   1      -5.462 -16.596   0.940 -0.25 -1.08    -0.577 OA
DOCKED: ATOM      5  O   UNL d   1      -3.620 -15.818  -0.617 -0.07 -1.03    -0.577 OA
DOCKED: ATOM      6  O   UNL d   1      -6.011 -16.069  -1.474 -0.45 -1.35    -0.638 OA
DOCKED: ENDBRANCH   2   3
DOCKED: ENDBRANCH   1   2
DOCKED: BRANCH   1   7
DOCKED: ATOM      7  C   UNL d   1      -5.939 -12.373  -1.405 -0.22 +0.26    +0.201 C 
DOCKED: BRANCH   7   8
DOCKED: ATOM      8  O   UNL d   1      -4.536 -12.524  -1.714 -0.41 -0.65    -0.364 OA
DOCKED: BRANCH   8   9
DOCKED: ATOM      9  P   UNL d   1      -3.887 -11.749  -3.024 -0.33 -0.02    -0.015 P 
DOCKED: ATOM     10  O   UNL d   1      -2.678 -12.600  -3.431 -0.45 -0.96    -0.577 OA
DOCKED: ATOM     11  O   UNL d   1      -3.471 -10.354  -2.556 -0.05 -0.39    -0.577 OA
DOCKED: ATOM     12  O   UNL d   1      -4.961 -11.720  -4.109 -0.09 -0.81    -0.638 OA
DOCKED: ENDBRANCH   8   9
DOCKED: ENDBRANCH   7   8
DOCKED: ENDBRANCH   1   7
DOCKED: BRANCH   1  13
DOCKED: ATOM     13  C   UNL d   1      -7.243 -12.600   0.783 -0.20 +0.09    +0.073 C 
DOCKED: ATOM     14  O   UNL d   1      -8.379 -12.061   0.539 -0.33 -0.45    -0.547 OA
DOCKED: ATOM     15  O   UNL d   1      -6.666 -12.590   1.930 -0.65 -1.00    -0.547 OA
DOCKED: ENDBRANCH   1  13
DOCKED: TORSDOF 6
DOCKED: TER
DOCKED: ENDMDL
________________________________________________________________________________


	BEGINNING GENETIC ALGORITHM DOCKING 23 of 100
Run: 23 Seed: 826824261 1102697542 [ Run 23 of 100 GA/GALS ]
Beginning LAMARCKIAN GENETIC ALGORITHM (LGA), with a maximum of 25000000 energy evaluations.

Final-Value: -9.352


	FINAL GENETIC ALGORITHM DOCKED STATE
	_______________________________________________


Detailed state:  trans -6.059 -13.168 -0.564 quatxyzw -0.445792 -0.849892 -0.279618 0.027681 center 0.015 0.083 0.031 ntor 6 80.1929 89.1648 -103.0401 20.8595 55.7025 180.0000
State:	 -6.059 -13.168  -0.564  -0.446 -0.850 -0.280 176.828     80.19   89.16 -103.04   20.86   55.70  180.00

DOCKED: MODEL       23
DOCKED: USER    Run = 23
DOCKED: USER    DPF = D:/Protein_go_brrr/autodock/final/AncA/2_3_BPG/dock.dpf
DOCKED: USER  
DOCKED: USER    Estimated Free Energy of Binding    =   -9.92 kcal/mol  [=(1)+(2)+(3)-(4)]
DOCKED: USER    Estimated Inhibition Constant, Ki   =   53.26 nM (nanomolar)  [Temperature = 298.15 K]
DOCKED: USER    
DOCKED: USER    (1) Final Intermolecular Energy     =  -11.71 kcal/mol
DOCKED: USER        vdW + Hbond + desolv Energy     =   -3.81 kcal/mol
DOCKED: USER        Electrostatic Energy            =   -7.90 kcal/mol
DOCKED: USER    (2) Final Total Internal Energy     =   +2.36 kcal/mol
DOCKED: USER    (3) Torsional Free Energy           =   +1.79 kcal/mol
DOCKED: USER    (4) Unbound System's Energy  [=(2)] =   +2.36 kcal/mol
DOCKED: USER    
DOCKED: USER    
DOCKED: USER    NEWDPF move 2_3_BPG_opt.pdbqt
DOCKED: USER    NEWDPF about 0.015000 0.083000 0.031000
DOCKED: USER    NEWDPF tran0 -6.058569 -13.168256 -0.564407
DOCKED: USER    NEWDPF quaternion0 -0.445792 -0.849892 -0.279618 0.027681
DOCKED: USER    NEWDPF axisangle0 -0.445963 -0.850218 -0.279725 176.827550
DOCKED: USER    NEWDPF quat0 -0.445963 -0.850218 -0.279725 176.827550
DOCKED: USER    NEWDPF dihe0 80.19 89.16 -103.04 20.86 55.70 180.00 
DOCKED: USER  keepresnum = 1 
DOCKED: USER  
DOCKED: REMARK  6 active torsions:
DOCKED: REMARK  status: ('A' for Active; 'I' for Inactive)
DOCKED: REMARK    1  A    between atoms: P_1  and  O_3 
DOCKED: REMARK    2  A    between atoms: P_2  and  O_4 
DOCKED: REMARK    3  A    between atoms: O_3  and  C_13 
DOCKED: REMARK    4  A    between atoms: O_4  and  C_14 
DOCKED: REMARK    5  A    between atoms: C_13  and  C_14 
DOCKED: REMARK    6  A    between atoms: C_13  and  C_15 
DOCKED: USER                              x       y       z     vdW  Elec       q    Type
DOCKED: USER                           _______ _______ _______ _____ _____    ______ ____
DOCKED: ROOT
DOCKED: ATOM      1  C   UNL d   1      -5.910 -13.719  -0.917 -0.14 +0.36    +0.193 C 
DOCKED: ENDROOT
DOCKED: BRANCH   1   2
DOCKED: ATOM      2  O   UNL d   1      -4.878 -14.464  -0.189 -0.58 -0.79    -0.356 OA
DOCKED: BRANCH   2   3
DOCKED: ATOM      3  P   UNL d   1      -3.333 -14.628  -0.729 -0.13 -0.03    -0.014 P 
DOCKED: ATOM      4  O   UNL d   1      -3.328 -15.971  -1.475 -0.03 -1.21    -0.577 OA
DOCKED: ATOM      5  O   UNL d   1      -2.426 -14.664   0.499 +0.04 -0.83    -0.577 OA
DOCKED: ATOM      6  O   UNL d   1      -3.037 -13.464  -1.669 -0.21 -1.28    -0.638 OA
DOCKED: ENDBRANCH   2   3
DOCKED: ENDBRANCH   1   2
DOCKED: BRANCH   1   7
DOCKED: ATOM      7  C   UNL d   1      -6.476 -12.591   0.023 -0.21 +0.26    +0.201 C 
DOCKED: BRANCH   7   8
DOCKED: ATOM      8  O   UNL d   1      -6.264 -12.785   1.438 -0.28 -0.71    -0.364 OA
DOCKED: BRANCH   8   9
DOCKED: ATOM      9  P   UNL d   1      -7.555 -12.855   2.469 -0.32 -0.02    -0.015 P 
DOCKED: ATOM     10  O   UNL d   1      -8.111 -14.277   2.316 -0.03 -0.75    -0.577 OA
DOCKED: ATOM     11  O   UNL d   1      -8.556 -11.798   2.003 -0.53 -0.49    -0.577 OA
DOCKED: ATOM     12  O   UNL d   1      -7.023 -12.596   3.878 -0.72 -0.96    -0.638 OA
DOCKED: ENDBRANCH   8   9
DOCKED: ENDBRANCH   7   8
DOCKED: ENDBRANCH   1   7
DOCKED: BRANCH   1  13
DOCKED: ATOM     13  C   UNL d   1      -7.090 -14.681  -1.317 -0.12 +0.11    +0.073 C 
DOCKED: ATOM     14  O   UNL d   1      -8.293 -14.292  -1.111 +0.01 -0.51    -0.547 OA
DOCKED: ATOM     15  O   UNL d   1      -6.773 -15.785  -1.889 -0.58 -1.05    -0.547 OA
DOCKED: ENDBRANCH   1  13
DOCKED: TORSDOF 6
DOCKED: TER
DOCKED: ENDMDL
________________________________________________________________________________


	BEGINNING GENETIC ALGORITHM DOCKING 24 of 100
Run: 24 Seed: 2084460030 931630590 [ Run 24 of 100 GA/GALS ]
Beginning LAMARCKIAN GENETIC ALGORITHM (LGA), with a maximum of 25000000 energy evaluations.

Final-Value: -9.876


	FINAL GENETIC ALGORITHM DOCKED STATE
	_______________________________________________


Detailed state:  trans -6.448 -13.259 0.127 quatxyzw 0.872137 0.362119 -0.273215 0.183306 center 0.015 0.083 0.031 ntor 6 -175.5694 -92.8273 -93.7048 93.2400 -8.6885 -62.2217
State:	 -6.448 -13.259   0.127   0.887  0.368 -0.278 158.875   -175.57  -92.83  -93.70   93.24   -8.69  -62.22

DOCKED: MODEL       24
DOCKED: USER    Run = 24
DOCKED: USER    DPF = D:/Protein_go_brrr/autodock/final/AncA/2_3_BPG/dock.dpf
DOCKED: USER  
DOCKED: USER    Estimated Free Energy of Binding    =  -10.46 kcal/mol  [=(1)+(2)+(3)-(4)]
DOCKED: USER    Estimated Inhibition Constant, Ki   =   21.55 nM (nanomolar)  [Temperature = 298.15 K]
DOCKED: USER    
DOCKED: USER    (1) Final Intermolecular Energy     =  -12.25 kcal/mol
DOCKED: USER        vdW + Hbond + desolv Energy     =   -4.42 kcal/mol
DOCKED: USER        Electrostatic Energy            =   -7.83 kcal/mol
DOCKED: USER    (2) Final Total Internal Energy     =   +2.37 kcal/mol
DOCKED: USER    (3) Torsional Free Energy           =   +1.79 kcal/mol
DOCKED: USER    (4) Unbound System's Energy  [=(2)] =   +2.37 kcal/mol
DOCKED: USER    
DOCKED: USER    
DOCKED: USER    NEWDPF move 2_3_BPG_opt.pdbqt
DOCKED: USER    NEWDPF about 0.015000 0.083000 0.031000
DOCKED: USER    NEWDPF tran0 -6.447878 -13.258509 0.127406
DOCKED: USER    NEWDPF quaternion0 0.872137 0.362119 -0.273215 0.183306
DOCKED: USER    NEWDPF axisangle0 0.887169 0.368360 -0.277925 158.875269
DOCKED: USER    NEWDPF quat0 0.887169 0.368360 -0.277925 158.875269
DOCKED: USER    NEWDPF dihe0 -175.57 -92.83 -93.70 93.24 -8.69 -62.22 
DOCKED: USER  keepresnum = 1 
DOCKED: USER  
DOCKED: REMARK  6 active torsions:
DOCKED: REMARK  status: ('A' for Active; 'I' for Inactive)
DOCKED: REMARK    1  A    between atoms: P_1  and  O_3 
DOCKED: REMARK    2  A    between atoms: P_2  and  O_4 
DOCKED: REMARK    3  A    between atoms: O_3  and  C_13 
DOCKED: REMARK    4  A    between atoms: O_4  and  C_14 
DOCKED: REMARK    5  A    between atoms: C_13  and  C_14 
DOCKED: REMARK    6  A    between atoms: C_13  and  C_15 
DOCKED: USER                              x       y       z     vdW  Elec       q    Type
DOCKED: USER                           _______ _______ _______ _____ _____    ______ ____
DOCKED: ROOT
DOCKED: ATOM      1  C   UNL d   1      -7.015 -13.467   0.418 -0.18 +0.28    +0.193 C 
DOCKED: ENDROOT
DOCKED: BRANCH   1   2
DOCKED: ATOM      2  O   UNL d   1      -6.817 -14.849   0.869 -0.27 -0.70    -0.356 OA
DOCKED: BRANCH   2   3
DOCKED: ATOM      3  P   UNL d   1      -5.983 -15.971   0.004 -0.10 -0.02    -0.014 P 
DOCKED: ATOM      4  O   UNL d   1      -4.510 -15.709   0.357 -0.41 -1.28    -0.577 OA
DOCKED: ATOM      5  O   UNL d   1      -6.262 -15.702  -1.474 -0.55 -1.24    -0.577 OA
DOCKED: ATOM      6  O   UNL d   1      -6.433 -17.353   0.466 -0.00 -0.71    -0.638 OA
DOCKED: ENDBRANCH   2   3
DOCKED: ENDBRANCH   1   2
DOCKED: BRANCH   1   7
DOCKED: ATOM      7  C   UNL d   1      -5.621 -12.867   0.003 -0.13 +0.31    +0.201 C 
DOCKED: BRANCH   7   8
DOCKED: ATOM      8  O   UNL d   1      -5.314 -12.904  -1.408 -0.19 -0.65    -0.364 OA
DOCKED: BRANCH   8   9
DOCKED: ATOM      9  P   UNL d   1      -3.941 -12.177  -1.978 -0.23 -0.02    -0.015 P 
DOCKED: ATOM     10  O   UNL d   1      -2.852 -13.252  -1.882 -0.32 -1.08    -0.577 OA
DOCKED: ATOM     11  O   UNL d   1      -3.653 -10.989  -1.061 -0.07 -0.47    -0.577 OA
DOCKED: ATOM     12  O   UNL d   1      -4.215 -11.765  -3.423 -0.47 -0.92    -0.638 OA
DOCKED: ENDBRANCH   8   9
DOCKED: ENDBRANCH   7   8
DOCKED: ENDBRANCH   1   7
DOCKED: BRANCH   1  13
DOCKED: ATOM     13  C   UNL d   1      -7.611 -12.597   1.587 -0.21 +0.09    +0.073 C 
DOCKED: ATOM     14  O   UNL d   1      -8.731 -12.004   1.398 -0.51 -0.43    -0.547 OA
DOCKED: ATOM     15  O   UNL d   1      -6.961 -12.586   2.694 -0.76 -0.98    -0.547 OA
DOCKED: ENDBRANCH   1  13
DOCKED: TORSDOF 6
DOCKED: TER
DOCKED: ENDMDL
________________________________________________________________________________


	BEGINNING GENETIC ALGORITHM DOCKING 25 of 100
Run: 25 Seed: 164160224 237409344 [ Run 25 of 100 GA/GALS ]
Beginning LAMARCKIAN GENETIC ALGORITHM (LGA), with a maximum of 25000000 energy evaluations.

Final-Value: -9.937


	FINAL GENETIC ALGORITHM DOCKED STATE
	_______________________________________________


Detailed state:  trans -5.987 -12.839 -0.378 quatxyzw 0.802012 0.504032 -0.282756 0.150923 center 0.015 0.083 0.031 ntor 6 -6.1037 -179.5556 -121.9033 36.8468 -56.4874 -107.0340
State:	 -5.987 -12.839  -0.378   0.811  0.510 -0.286 162.639     -6.10 -179.56 -121.90   36.85  -56.49 -107.03

DOCKED: MODEL       25
DOCKED: USER    Run = 25
DOCKED: USER    DPF = D:/Protein_go_brrr/autodock/final/AncA/2_3_BPG/dock.dpf
DOCKED: USER  
DOCKED: USER    Estimated Free Energy of Binding    =  -10.39 kcal/mol  [=(1)+(2)+(3)-(4)]
DOCKED: USER    Estimated Inhibition Constant, Ki   =   24.38 nM (nanomolar)  [Temperature = 298.15 K]
DOCKED: USER    
DOCKED: USER    (1) Final Intermolecular Energy     =  -12.18 kcal/mol
DOCKED: USER        vdW + Hbond + desolv Energy     =   -4.37 kcal/mol
DOCKED: USER        Electrostatic Energy            =   -7.80 kcal/mol
DOCKED: USER    (2) Final Total Internal Energy     =   +2.24 kcal/mol
DOCKED: USER    (3) Torsional Free Energy           =   +1.79 kcal/mol
DOCKED: USER    (4) Unbound System's Energy  [=(2)] =   +2.24 kcal/mol
DOCKED: USER    
DOCKED: USER    
DOCKED: USER    NEWDPF move 2_3_BPG_opt.pdbqt
DOCKED: USER    NEWDPF about 0.015000 0.083000 0.031000
DOCKED: USER    NEWDPF tran0 -5.986920 -12.838668 -0.377659
DOCKED: USER    NEWDPF quaternion0 0.802012 0.504032 -0.282756 0.150923
DOCKED: USER    NEWDPF axisangle0 0.811305 0.509872 -0.286032 162.639160
DOCKED: USER    NEWDPF quat0 0.811305 0.509872 -0.286032 162.639160
DOCKED: USER    NEWDPF dihe0 -6.10 -179.56 -121.90 36.85 -56.49 -107.03 
DOCKED: USER  keepresnum = 1 
DOCKED: USER  
DOCKED: REMARK  6 active torsions:
DOCKED: REMARK  status: ('A' for Active; 'I' for Inactive)
DOCKED: REMARK    1  A    between atoms: P_1  and  O_3 
DOCKED: REMARK    2  A    between atoms: P_2  and  O_4 
DOCKED: REMARK    3  A    between atoms: O_3  and  C_13 
DOCKED: REMARK    4  A    between atoms: O_4  and  C_14 
DOCKED: REMARK    5  A    between atoms: C_13  and  C_14 
DOCKED: REMARK    6  A    between atoms: C_13  and  C_15 
DOCKED: USER                              x       y       z     vdW  Elec       q    Type
DOCKED: USER                           _______ _______ _______ _____ _____    ______ ____
DOCKED: ROOT
DOCKED: ATOM      1  C   UNL d   1      -6.463 -13.227  -0.110 -0.21 +0.28    +0.193 C 
DOCKED: ENDROOT
DOCKED: BRANCH   1   2
DOCKED: ATOM      2  O   UNL d   1      -5.846 -14.494   0.296 -0.49 -0.83    -0.356 OA
DOCKED: BRANCH   2   3
DOCKED: ATOM      3  P   UNL d   1      -5.846 -15.842  -0.646 -0.13 -0.03    -0.014 P 
DOCKED: ATOM      4  O   UNL d   1      -6.676 -15.448  -1.878 -0.58 -1.24    -0.577 OA
DOCKED: ATOM      5  O   UNL d   1      -6.522 -16.953   0.155 -0.02 -0.69    -0.577 OA
DOCKED: ATOM      6  O   UNL d   1      -4.402 -16.156  -1.021 -0.06 -1.29    -0.638 OA
DOCKED: ENDBRANCH   2   3
DOCKED: ENDBRANCH   1   2
DOCKED: BRANCH   1   7
DOCKED: ATOM      7  C   UNL d   1      -5.325 -12.201  -0.466 -0.22 +0.25    +0.201 C 
DOCKED: BRANCH   7   8
DOCKED: ATOM      8  O   UNL d   1      -4.338 -12.660  -1.416 -0.39 -0.63    -0.364 OA
DOCKED: BRANCH   8   9
DOCKED: ATOM      9  P   UNL d   1      -4.007 -11.763  -2.767 -0.34 -0.02    -0.015 P 
DOCKED: ATOM     10  O   UNL d   1      -3.507 -10.414  -2.237 -0.04 -0.40    -0.577 OA
DOCKED: ATOM     11  O   UNL d   1      -5.318 -11.622  -3.541 -0.14 -0.71    -0.577 OA
DOCKED: ATOM     12  O   UNL d   1      -2.927 -12.508  -3.550 -0.43 -1.13    -0.638 OA
DOCKED: ENDBRANCH   8   9
DOCKED: ENDBRANCH   7   8
DOCKED: ENDBRANCH   1   7
DOCKED: BRANCH   1  13
DOCKED: ATOM     13  C   UNL d   1      -7.320 -12.640   1.073 -0.18 +0.09    +0.073 C 
DOCKED: ATOM     14  O   UNL d   1      -6.796 -12.593   2.241 -0.72 -1.01    -0.547 OA
DOCKED: ATOM     15  O   UNL d   1      -8.481 -12.180   0.779 -0.41 -0.45    -0.547 OA
DOCKED: ENDBRANCH   1  13
DOCKED: TORSDOF 6
DOCKED: TER
DOCKED: ENDMDL
________________________________________________________________________________


	BEGINNING GENETIC ALGORITHM DOCKING 26 of 100
Run: 26 Seed: 1515836485 1919295348 [ Run 26 of 100 GA/GALS ]
Beginning LAMARCKIAN GENETIC ALGORITHM (LGA), with a maximum of 25000000 energy evaluations.

Final-Value: -10.308


	FINAL GENETIC ALGORITHM DOCKED STATE
	_______________________________________________


Detailed state:  trans -6.288 -13.340 -0.441 quatxyzw -0.074912 -0.981754 -0.102875 -0.141295 center 0.015 0.083 0.031 ntor 6 -0.8277 125.7160 -126.2292 -22.9273 27.7430 -179.3632
State:	 -6.288 -13.340  -0.441  -0.076 -0.992 -0.104 -163.754     -0.83  125.72 -126.23  -22.93   27.74 -179.36

DOCKED: MODEL       26
DOCKED: USER    Run = 26
DOCKED: USER    DPF = D:/Protein_go_brrr/autodock/final/AncA/2_3_BPG/dock.dpf
DOCKED: USER  
DOCKED: USER    Estimated Free Energy of Binding    =  -10.88 kcal/mol  [=(1)+(2)+(3)-(4)]
DOCKED: USER    Estimated Inhibition Constant, Ki   =   10.54 nM (nanomolar)  [Temperature = 298.15 K]
DOCKED: USER    
DOCKED: USER    (1) Final Intermolecular Energy     =  -12.67 kcal/mol
DOCKED: USER        vdW + Hbond + desolv Energy     =   -4.44 kcal/mol
DOCKED: USER        Electrostatic Energy            =   -8.23 kcal/mol
DOCKED: USER    (2) Final Total Internal Energy     =   +2.36 kcal/mol
DOCKED: USER    (3) Torsional Free Energy           =   +1.79 kcal/mol
DOCKED: USER    (4) Unbound System's Energy  [=(2)] =   +2.36 kcal/mol
DOCKED: USER    
DOCKED: USER    
DOCKED: USER    NEWDPF move 2_3_BPG_opt.pdbqt
DOCKED: USER    NEWDPF about 0.015000 0.083000 0.031000
DOCKED: USER    NEWDPF tran0 -6.288194 -13.339616 -0.440986
DOCKED: USER    NEWDPF quaternion0 -0.074912 -0.981754 -0.102875 -0.141295
DOCKED: USER    NEWDPF axisangle0 -0.075671 -0.991703 -0.103917 -163.754475
DOCKED: USER    NEWDPF quat0 -0.075671 -0.991703 -0.103917 -163.754475
DOCKED: USER    NEWDPF dihe0 -0.83 125.72 -126.23 -22.93 27.74 -179.36 
DOCKED: USER  keepresnum = 1 
DOCKED: USER  
DOCKED: REMARK  6 active torsions:
DOCKED: REMARK  status: ('A' for Active; 'I' for Inactive)
DOCKED: REMARK    1  A    between atoms: P_1  and  O_3 
DOCKED: REMARK    2  A    between atoms: P_2  and  O_4 
DOCKED: REMARK    3  A    between atoms: O_3  and  C_13 
DOCKED: REMARK    4  A    between atoms: O_4  and  C_14 
DOCKED: REMARK    5  A    between atoms: C_13  and  C_14 
DOCKED: REMARK    6  A    between atoms: C_13  and  C_15 
DOCKED: USER                              x       y       z     vdW  Elec       q    Type
DOCKED: USER                           _______ _______ _______ _____ _____    ______ ____
DOCKED: ROOT
DOCKED: ATOM      1  C   UNL d   1      -5.811 -13.690  -0.756 -0.17 +0.35    +0.193 C 
DOCKED: ENDROOT
DOCKED: BRANCH   1   2
DOCKED: ATOM      2  O   UNL d   1      -4.506 -13.185  -0.316 -0.14 -0.62    -0.356 OA
DOCKED: BRANCH   2   3
DOCKED: ATOM      3  P   UNL d   1      -3.136 -13.320  -1.215 -0.15 -0.02    -0.014 P 
DOCKED: ATOM      4  O   UNL d   1      -2.973 -14.831  -1.441 +0.04 -1.22    -0.577 OA
DOCKED: ATOM      5  O   UNL d   1      -1.990 -12.750  -0.382 -0.01 -0.59    -0.577 OA
DOCKED: ATOM      6  O   UNL d   1      -3.360 -12.578  -2.529 -0.54 -1.30    -0.638 OA
DOCKED: ENDBRANCH   2   3
DOCKED: ENDBRANCH   1   2
DOCKED: BRANCH   1   7
DOCKED: ATOM      7  C   UNL d   1      -6.926 -13.090   0.178 -0.20 +0.26    +0.201 C 
DOCKED: BRANCH   7   8
DOCKED: ATOM      8  O   UNL d   1      -6.476 -12.593   1.458 -0.54 -0.63    -0.364 OA
DOCKED: BRANCH   8   9
DOCKED: ATOM      9  P   UNL d   1      -7.481 -12.654   2.771 -0.37 -0.02    -0.015 P 
DOCKED: ATOM     10  O   UNL d   1      -7.880 -14.129   2.900 -0.16 -0.86    -0.577 OA
DOCKED: ATOM     11  O   UNL d   1      -8.682 -11.763   2.455 -0.42 -0.44    -0.577 OA
DOCKED: ATOM     12  O   UNL d   1      -6.677 -12.169   3.976 -0.68 -0.85    -0.638 OA
DOCKED: ENDBRANCH   8   9
DOCKED: ENDBRANCH   7   8
DOCKED: ENDBRANCH   1   7
DOCKED: BRANCH   1  13
DOCKED: ATOM     13  C   UNL d   1      -5.849 -15.260  -0.643 -0.12 +0.15    +0.073 C 
DOCKED: ATOM     14  O   UNL d   1      -5.536 -15.799   0.476 -0.49 -1.23    -0.547 OA
DOCKED: ATOM     15  O   UNL d   1      -6.258 -15.908  -1.672 -0.50 -1.21    -0.547 OA
DOCKED: ENDBRANCH   1  13
DOCKED: TORSDOF 6
DOCKED: TER
DOCKED: ENDMDL
________________________________________________________________________________


	BEGINNING GENETIC ALGORITHM DOCKING 27 of 100
Run: 27 Seed: 1353277476 1384696581 [ Run 27 of 100 GA/GALS ]
Beginning LAMARCKIAN GENETIC ALGORITHM (LGA), with a maximum of 25000000 energy evaluations.

Final-Value: -10.337


	FINAL GENETIC ALGORITHM DOCKED STATE
	_______________________________________________


Detailed state:  trans -7.419 -13.372 0.816 quatxyzw 0.505702 0.316475 -0.561502 -0.573432 center 0.015 0.083 0.031 ntor 6 -2.6285 -161.7893 -161.2640 -5.9660 -72.2778 -104.2617
State:	 -7.419 -13.372   0.816   0.617  0.386 -0.685 -110.020     -2.63 -161.79 -161.26   -5.97  -72.28 -104.26

DOCKED: MODEL       27
DOCKED: USER    Run = 27
DOCKED: USER    DPF = D:/Protein_go_brrr/autodock/final/AncA/2_3_BPG/dock.dpf
DOCKED: USER  
DOCKED: USER    Estimated Free Energy of Binding    =  -10.67 kcal/mol  [=(1)+(2)+(3)-(4)]
DOCKED: USER    Estimated Inhibition Constant, Ki   =   15.15 nM (nanomolar)  [Temperature = 298.15 K]
DOCKED: USER    
DOCKED: USER    (1) Final Intermolecular Energy     =  -12.46 kcal/mol
DOCKED: USER        vdW + Hbond + desolv Energy     =   -4.98 kcal/mol
DOCKED: USER        Electrostatic Energy            =   -7.48 kcal/mol
DOCKED: USER    (2) Final Total Internal Energy     =   +2.12 kcal/mol
DOCKED: USER    (3) Torsional Free Energy           =   +1.79 kcal/mol
DOCKED: USER    (4) Unbound System's Energy  [=(2)] =   +2.12 kcal/mol
DOCKED: USER    
DOCKED: USER    
DOCKED: USER    NEWDPF move 2_3_BPG_opt.pdbqt
DOCKED: USER    NEWDPF about 0.015000 0.083000 0.031000
DOCKED: USER    NEWDPF tran0 -7.419134 -13.371599 0.815982
DOCKED: USER    NEWDPF quaternion0 0.505702 0.316475 -0.561502 -0.573432
DOCKED: USER    NEWDPF axisangle0 0.617272 0.386297 -0.685383 -110.020205
DOCKED: USER    NEWDPF quat0 0.617272 0.386297 -0.685383 -110.020205
DOCKED: USER    NEWDPF dihe0 -2.63 -161.79 -161.26 -5.97 -72.28 -104.26 
DOCKED: USER  keepresnum = 1 
DOCKED: USER  
DOCKED: REMARK  6 active torsions:
DOCKED: REMARK  status: ('A' for Active; 'I' for Inactive)
DOCKED: REMARK    1  A    between atoms: P_1  and  O_3 
DOCKED: REMARK    2  A    between atoms: P_2  and  O_4 
DOCKED: REMARK    3  A    between atoms: O_3  and  C_13 
DOCKED: REMARK    4  A    between atoms: O_4  and  C_14 
DOCKED: REMARK    5  A    between atoms: C_13  and  C_14 
DOCKED: REMARK    6  A    between atoms: C_13  and  C_15 
DOCKED: USER                              x       y       z     vdW  Elec       q    Type
DOCKED: USER                           _______ _______ _______ _____ _____    ______ ____
DOCKED: ROOT
DOCKED: ATOM      1  C   UNL d   1      -7.838 -13.224   1.318 -0.22 +0.23    +0.193 C 
DOCKED: ENDROOT
DOCKED: BRANCH   1   2
DOCKED: ATOM      2  O   UNL d   1      -7.115 -12.396   2.289 -0.94 -0.55    -0.356 OA
DOCKED: BRANCH   2   3
DOCKED: ATOM      3  P   UNL d   1      -7.244 -12.593   3.917 -0.41 -0.02    -0.014 P 
DOCKED: ATOM      4  O   UNL d   1      -7.921 -13.962   4.085 -0.20 -0.71    -0.577 OA
DOCKED: ATOM      5  O   UNL d   1      -8.125 -11.462   4.441 -0.19 -0.30    -0.577 OA
DOCKED: ATOM      6  O   UNL d   1      -5.836 -12.589   4.505 -0.32 -1.10    -0.638 OA
DOCKED: ENDBRANCH   2   3
DOCKED: ENDBRANCH   1   2
DOCKED: BRANCH   1   7
DOCKED: ATOM      7  C   UNL d   1      -6.975 -13.335   0.007 -0.19 +0.27    +0.201 C 
DOCKED: BRANCH   7   8
DOCKED: ATOM      8  O   UNL d   1      -5.628 -13.828   0.179 -0.45 -0.76    -0.364 OA
DOCKED: BRANCH   8   9
DOCKED: ATOM      9  P   UNL d   1      -5.210 -15.319  -0.402 -0.07 -0.03    -0.015 P 
DOCKED: ATOM     10  O   UNL d   1      -6.258 -15.638  -1.475 -0.55 -1.26    -0.577 OA
DOCKED: ATOM     11  O   UNL d   1      -5.283 -16.293   0.774 -0.32 -1.21    -0.577 OA
DOCKED: ATOM     12  O   UNL d   1      -3.805 -15.196  -0.991 +0.02 -1.41    -0.638 OA
DOCKED: ENDBRANCH   8   9
DOCKED: ENDBRANCH   7   8
DOCKED: ENDBRANCH   1   7
DOCKED: BRANCH   1  13
DOCKED: ATOM     13  C   UNL d   1      -9.217 -12.555   0.959 -0.33 +0.05    +0.073 C 
DOCKED: ATOM     14  O   UNL d   1      -9.225 -11.324   0.603 -0.30 -0.31    -0.547 OA
DOCKED: ATOM     15  O   UNL d   1     -10.255 -13.310   0.985 -0.51 -0.37    -0.547 OA
DOCKED: ENDBRANCH   1  13
DOCKED: TORSDOF 6
DOCKED: TER
DOCKED: ENDMDL
________________________________________________________________________________


	BEGINNING GENETIC ALGORITHM DOCKING 28 of 100
Run: 28 Seed: 1318927868 270640325 [ Run 28 of 100 GA/GALS ]
Beginning LAMARCKIAN GENETIC ALGORITHM (LGA), with a maximum of 25000000 energy evaluations.

Final-Value: -10.675


	FINAL GENETIC ALGORITHM DOCKED STATE
	_______________________________________________


Detailed state:  trans -7.640 -13.088 0.816 quatxyzw -0.535558 -0.320173 0.407727 0.666653 center 0.015 0.083 0.031 ntor 6 159.3377 178.0583 57.8146 33.5722 -72.0233 -82.1737
State:	 -7.640 -13.088   0.816  -0.719 -0.430  0.547 96.382    159.34  178.06   57.81   33.57  -72.02  -82.17

DOCKED: MODEL       28
DOCKED: USER    Run = 28
DOCKED: USER    DPF = D:/Protein_go_brrr/autodock/final/AncA/2_3_BPG/dock.dpf
DOCKED: USER  
DOCKED: USER    Estimated Free Energy of Binding    =  -11.05 kcal/mol  [=(1)+(2)+(3)-(4)]
DOCKED: USER    Estimated Inhibition Constant, Ki   =    7.99 nM (nanomolar)  [Temperature = 298.15 K]
DOCKED: USER    
DOCKED: USER    (1) Final Intermolecular Energy     =  -12.84 kcal/mol
DOCKED: USER        vdW + Hbond + desolv Energy     =   -5.09 kcal/mol
DOCKED: USER        Electrostatic Energy            =   -7.74 kcal/mol
DOCKED: USER    (2) Final Total Internal Energy     =   +2.16 kcal/mol
DOCKED: USER    (3) Torsional Free Energy           =   +1.79 kcal/mol
DOCKED: USER    (4) Unbound System's Energy  [=(2)] =   +2.16 kcal/mol
DOCKED: USER    
DOCKED: USER    
DOCKED: USER    NEWDPF move 2_3_BPG_opt.pdbqt
DOCKED: USER    NEWDPF about 0.015000 0.083000 0.031000
DOCKED: USER    NEWDPF tran0 -7.639694 -13.087508 0.816348
DOCKED: USER    NEWDPF quaternion0 -0.535558 -0.320173 0.407727 0.666653
DOCKED: USER    NEWDPF axisangle0 -0.718514 -0.429551 0.547014 96.381506
DOCKED: USER    NEWDPF quat0 -0.718514 -0.429551 0.547014 96.381506
DOCKED: USER    NEWDPF dihe0 159.34 178.06 57.81 33.57 -72.02 -82.17 
DOCKED: USER  keepresnum = 1 
DOCKED: USER  
DOCKED: REMARK  6 active torsions:
DOCKED: REMARK  status: ('A' for Active; 'I' for Inactive)
DOCKED: REMARK    1  A    between atoms: P_1  and  O_3 
DOCKED: REMARK    2  A    between atoms: P_2  and  O_4 
DOCKED: REMARK    3  A    between atoms: O_3  and  C_13 
DOCKED: REMARK    4  A    between atoms: O_4  and  C_14 
DOCKED: REMARK    5  A    between atoms: C_13  and  C_14 
DOCKED: REMARK    6  A    between atoms: C_13  and  C_15 
DOCKED: USER                              x       y       z     vdW  Elec       q    Type
DOCKED: USER                           _______ _______ _______ _____ _____    ______ ____
DOCKED: ROOT
DOCKED: ATOM      1  C   UNL d   1      -8.188 -13.090   1.202 -0.23 +0.20    +0.193 C 
DOCKED: ENDROOT
DOCKED: BRANCH   1   2
DOCKED: ATOM      2  O   UNL d   1      -7.960 -12.177   2.328 -0.84 -0.39    -0.356 OA
DOCKED: BRANCH   2   3
DOCKED: ATOM      3  P   UNL d   1      -7.496 -12.685   3.821 -0.50 -0.02    -0.014 P 
DOCKED: ATOM      4  O   UNL d   1      -7.538 -14.219   3.735 -0.23 -1.00    -0.577 OA
DOCKED: ATOM      5  O   UNL d   1      -8.521 -12.150   4.820 -0.17 -0.31    -0.577 OA
DOCKED: ATOM      6  O   UNL d   1      -6.080 -12.177   4.073 -0.51 -0.97    -0.638 OA
DOCKED: ENDBRANCH   2   3
DOCKED: ENDBRANCH   1   2
DOCKED: BRANCH   1   7
DOCKED: ATOM      7  C   UNL d   1      -7.045 -12.880   0.142 -0.20 +0.24    +0.201 C 
DOCKED: BRANCH   7   8
DOCKED: ATOM      8  O   UNL d   1      -5.771 -13.482   0.460 -0.27 -0.75    -0.364 OA
DOCKED: BRANCH   8   9
DOCKED: ATOM      9  P   UNL d   1      -5.218 -14.768  -0.421 -0.05 -0.03    -0.015 P 
DOCKED: ATOM     10  O   UNL d   1      -5.057 -15.906   0.593 -0.44 -1.35    -0.577 OA
DOCKED: ATOM     11  O   UNL d   1      -3.878 -14.349  -1.027 -0.00 -1.31    -0.577 OA
DOCKED: ATOM     12  O   UNL d   1      -6.279 -15.083  -1.474 -0.49 -1.50    -0.638 OA
DOCKED: ENDBRANCH   8   9
DOCKED: ENDBRANCH   7   8
DOCKED: ENDBRANCH   1   7
DOCKED: BRANCH   1  13
DOCKED: ATOM     13  C   UNL d   1      -9.572 -12.772   0.521 -0.28 +0.05    +0.073 C 
DOCKED: ATOM     14  O   UNL d   1     -10.239 -13.740   0.012 -0.30 -0.32    -0.547 OA
DOCKED: ATOM     15  O   UNL d   1      -9.981 -11.556   0.574 -0.58 -0.30    -0.547 OA
DOCKED: ENDBRANCH   1  13
DOCKED: TORSDOF 6
DOCKED: TER
DOCKED: ENDMDL
________________________________________________________________________________


	BEGINNING GENETIC ALGORITHM DOCKING 29 of 100
Run: 29 Seed: 292949493 905679067 [ Run 29 of 100 GA/GALS ]
Beginning LAMARCKIAN GENETIC ALGORITHM (LGA), with a maximum of 25000000 energy evaluations.

Final-Value: -9.214


	FINAL GENETIC ALGORITHM DOCKED STATE
	_______________________________________________


Detailed state:  trans -4.029 -17.922 -3.063 quatxyzw -0.447137 0.497506 -0.636273 0.384334 center 0.015 0.083 0.031 ntor 6 169.0535 -51.2261 160.9121 29.7006 -33.9403 75.7067
State:	 -4.029 -17.922  -3.063  -0.484  0.539 -0.689 134.795    169.05  -51.23  160.91   29.70  -33.94   75.71

DOCKED: MODEL       29
DOCKED: USER    Run = 29
DOCKED: USER    DPF = D:/Protein_go_brrr/autodock/final/AncA/2_3_BPG/dock.dpf
DOCKED: USER  
DOCKED: USER    Estimated Free Energy of Binding    =   -9.54 kcal/mol  [=(1)+(2)+(3)-(4)]
DOCKED: USER    Estimated Inhibition Constant, Ki   =  101.60 nM (nanomolar)  [Temperature = 298.15 K]
DOCKED: USER    
DOCKED: USER    (1) Final Intermolecular Energy     =  -11.33 kcal/mol
DOCKED: USER        vdW + Hbond + desolv Energy     =   -2.80 kcal/mol
DOCKED: USER        Electrostatic Energy            =   -8.53 kcal/mol
DOCKED: USER    (2) Final Total Internal Energy     =   +2.12 kcal/mol
DOCKED: USER    (3) Torsional Free Energy           =   +1.79 kcal/mol
DOCKED: USER    (4) Unbound System's Energy  [=(2)] =   +2.12 kcal/mol
DOCKED: USER    
DOCKED: USER    
DOCKED: USER    NEWDPF move 2_3_BPG_opt.pdbqt
DOCKED: USER    NEWDPF about 0.015000 0.083000 0.031000
DOCKED: USER    NEWDPF tran0 -4.029497 -17.921690 -3.063261
DOCKED: USER    NEWDPF quaternion0 -0.447137 0.497506 -0.636273 0.384334
DOCKED: USER    NEWDPF axisangle0 -0.484337 0.538897 -0.689208 134.795177
DOCKED: USER    NEWDPF quat0 -0.484337 0.538897 -0.689208 134.795177
DOCKED: USER    NEWDPF dihe0 169.05 -51.23 160.91 29.70 -33.94 75.71 
DOCKED: USER  keepresnum = 1 
DOCKED: USER  
DOCKED: REMARK  6 active torsions:
DOCKED: REMARK  status: ('A' for Active; 'I' for Inactive)
DOCKED: REMARK    1  A    between atoms: P_1  and  O_3 
DOCKED: REMARK    2  A    between atoms: P_2  and  O_4 
DOCKED: REMARK    3  A    between atoms: O_3  and  C_13 
DOCKED: REMARK    4  A    between atoms: O_4  and  C_14 
DOCKED: REMARK    5  A    between atoms: C_13  and  C_14 
DOCKED: REMARK    6  A    between atoms: C_13  and  C_15 
DOCKED: USER                              x       y       z     vdW  Elec       q    Type
DOCKED: USER                           _______ _______ _______ _____ _____    ______ ____
DOCKED: ROOT
DOCKED: ATOM      1  C   UNL d   1      -3.542 -17.973  -3.521 -0.07 +0.27    +0.193 C 
DOCKED: ENDROOT
DOCKED: BRANCH   1   2
DOCKED: ATOM      2  O   UNL d   1      -4.088 -17.559  -4.818 -0.15 -0.58    -0.356 OA
DOCKED: BRANCH   2   3
DOCKED: ATOM      3  P   UNL d   1      -4.524 -18.621  -5.995 -0.26 -0.02    -0.014 P 
DOCKED: ATOM      4  O   UNL d   1      -5.987 -18.268  -6.307 -0.08 -0.80    -0.577 OA
DOCKED: ATOM      5  O   UNL d   1      -4.398 -20.025  -5.407 -0.01 -0.61    -0.577 OA
DOCKED: ATOM      6  O   UNL d   1      -3.622 -18.384  -7.202 -0.45 -1.16    -0.638 OA
DOCKED: ENDBRANCH   2   3
DOCKED: ENDBRANCH   1   2
DOCKED: BRANCH   1   7
DOCKED: ATOM      7  C   UNL d   1      -4.570 -17.586  -2.394 +0.01 +0.33    +0.201 C 
DOCKED: BRANCH   7   8
DOCKED: ATOM      8  O   UNL d   1      -4.054 -16.764  -1.325 -0.08 -0.65    -0.364 OA
DOCKED: BRANCH   8   9
DOCKED: ATOM      9  P   UNL d   1      -5.046 -15.691  -0.550 -0.08 -0.03    -0.015 P 
DOCKED: ATOM     10  O   UNL d   1      -6.258 -15.528  -1.476 -0.55 -1.29    -0.577 OA
DOCKED: ATOM     11  O   UNL d   1      -4.263 -14.387  -0.400 -0.24 -1.23    -0.577 OA
DOCKED: ATOM     12  O   UNL d   1      -5.428 -16.317   0.791 -0.33 -1.31    -0.638 OA
DOCKED: ENDBRANCH   8   9
DOCKED: ENDBRANCH   7   8
DOCKED: ENDBRANCH   1   7
DOCKED: BRANCH   1  13
DOCKED: ATOM     13  C   UNL d   1      -2.185 -17.226  -3.243 -0.07 +0.10    +0.073 C 
DOCKED: ATOM     14  O   UNL d   1      -1.209 -17.895  -2.751 +0.00 -0.44    -0.547 OA
DOCKED: ATOM     15  O   UNL d   1      -2.117 -15.992  -3.588 -0.44 -1.10    -0.547 OA
DOCKED: ENDBRANCH   1  13
DOCKED: TORSDOF 6
DOCKED: TER
DOCKED: ENDMDL
________________________________________________________________________________


	BEGINNING GENETIC ALGORITHM DOCKING 30 of 100
Run: 30 Seed: 1515422214 2134725037 [ Run 30 of 100 GA/GALS ]
Beginning LAMARCKIAN GENETIC ALGORITHM (LGA), with a maximum of 25000000 energy evaluations.

Final-Value: -10.200


	FINAL GENETIC ALGORITHM DOCKED STATE
	_______________________________________________


Detailed state:  trans -5.933 -13.079 -0.622 quatxyzw 0.226989 0.965946 0.083735 0.091725 center 0.015 0.083 0.031 ntor 6 173.6894 -138.8291 -118.6562 6.8515 51.6911 158.0004
State:	 -5.933 -13.079  -0.622   0.228  0.970  0.084 169.474    173.69 -138.83 -118.66    6.85   51.69  158.00

DOCKED: MODEL       30
DOCKED: USER    Run = 30
DOCKED: USER    DPF = D:/Protein_go_brrr/autodock/final/AncA/2_3_BPG/dock.dpf
DOCKED: USER  
DOCKED: USER    Estimated Free Energy of Binding    =  -10.80 kcal/mol  [=(1)+(2)+(3)-(4)]
DOCKED: USER    Estimated Inhibition Constant, Ki   =   12.22 nM (nanomolar)  [Temperature = 298.15 K]
DOCKED: USER    
DOCKED: USER    (1) Final Intermolecular Energy     =  -12.58 kcal/mol
DOCKED: USER        vdW + Hbond + desolv Energy     =   -4.49 kcal/mol
DOCKED: USER        Electrostatic Energy            =   -8.09 kcal/mol
DOCKED: USER    (2) Final Total Internal Energy     =   +2.39 kcal/mol
DOCKED: USER    (3) Torsional Free Energy           =   +1.79 kcal/mol
DOCKED: USER    (4) Unbound System's Energy  [=(2)] =   +2.39 kcal/mol
DOCKED: USER    
DOCKED: USER    
DOCKED: USER    NEWDPF move 2_3_BPG_opt.pdbqt
DOCKED: USER    NEWDPF about 0.015000 0.083000 0.031000
DOCKED: USER    NEWDPF tran0 -5.933343 -13.078674 -0.622151
DOCKED: USER    NEWDPF quaternion0 0.226989 0.965946 0.083735 0.091725
DOCKED: USER    NEWDPF axisangle0 0.227950 0.970035 0.084090 169.474341
DOCKED: USER    NEWDPF quat0 0.227950 0.970035 0.084090 169.474341
DOCKED: USER    NEWDPF dihe0 173.69 -138.83 -118.66 6.85 51.69 158.00 
DOCKED: USER  keepresnum = 1 
DOCKED: USER  
DOCKED: REMARK  6 active torsions:
DOCKED: REMARK  status: ('A' for Active; 'I' for Inactive)
DOCKED: REMARK    1  A    between atoms: P_1  and  O_3 
DOCKED: REMARK    2  A    between atoms: P_2  and  O_4 
DOCKED: REMARK    3  A    between atoms: O_3  and  C_13 
DOCKED: REMARK    4  A    between atoms: O_4  and  C_14 
DOCKED: REMARK    5  A    between atoms: C_13  and  C_14 
DOCKED: REMARK    6  A    between atoms: C_13  and  C_15 
DOCKED: USER                              x       y       z     vdW  Elec       q    Type
DOCKED: USER                           _______ _______ _______ _____ _____    ______ ____
DOCKED: ROOT
DOCKED: ATOM      1  C   UNL d   1      -5.572 -13.583  -0.876 -0.13 +0.37    +0.193 C 
DOCKED: ENDROOT
DOCKED: BRANCH   1   2
DOCKED: ATOM      2  O   UNL d   1      -4.196 -13.454  -0.383 -0.14 -0.65    -0.356 OA
DOCKED: BRANCH   2   3
DOCKED: ATOM      3  P   UNL d   1      -2.884 -13.398  -1.372 -0.17 -0.02    -0.014 P 
DOCKED: ATOM      4  O   UNL d   1      -3.357 -12.589  -2.591 -0.57 -1.20    -0.577 OA
DOCKED: ATOM      5  O   UNL d   1      -2.542 -14.837  -1.752 +0.00 -1.14    -0.577 OA
DOCKED: ATOM      6  O   UNL d   1      -1.762 -12.683  -0.627 -0.01 -0.60    -0.638 OA
DOCKED: ENDBRANCH   2   3
DOCKED: ENDBRANCH   1   2
DOCKED: BRANCH   1   7
DOCKED: ATOM      7  C   UNL d   1      -6.492 -12.593  -0.071 -0.21 +0.25    +0.201 C 
DOCKED: BRANCH   7   8
DOCKED: ATOM      8  O   UNL d   1      -6.257 -12.531   1.353 -0.42 -0.63    -0.364 OA
DOCKED: BRANCH   8   9
DOCKED: ATOM      9  P   UNL d   1      -7.500 -12.792   2.413 -0.32 -0.02    -0.015 P 
DOCKED: ATOM     10  O   UNL d   1      -7.931 -14.243   2.172 -0.03 -0.81    -0.577 OA
DOCKED: ATOM     11  O   UNL d   1      -8.607 -11.801   2.054 -0.52 -0.48    -0.577 OA
DOCKED: ATOM     12  O   UNL d   1      -6.945 -12.584   3.821 -0.71 -1.01    -0.638 OA
DOCKED: ENDBRANCH   8   9
DOCKED: ENDBRANCH   7   8
DOCKED: ENDBRANCH   1   7
DOCKED: BRANCH   1  13
DOCKED: ATOM     13  C   UNL d   1      -6.091 -15.052  -0.648 -0.13 +0.14    +0.073 C 
DOCKED: ATOM     14  O   UNL d   1      -6.674 -15.652  -1.619 -0.60 -1.04    -0.547 OA
DOCKED: ATOM     15  O   UNL d   1      -5.839 -15.589   0.490 -0.52 -1.24    -0.547 OA
DOCKED: ENDBRANCH   1  13
DOCKED: TORSDOF 6
DOCKED: TER
DOCKED: ENDMDL
________________________________________________________________________________


	BEGINNING GENETIC ALGORITHM DOCKING 31 of 100
Run: 31 Seed: 1836463168 1941008096 [ Run 31 of 100 GA/GALS ]
Beginning LAMARCKIAN GENETIC ALGORITHM (LGA), with a maximum of 25000000 energy evaluations.

Final-Value: -10.073


	FINAL GENETIC ALGORITHM DOCKED STATE
	_______________________________________________


Detailed state:  trans -6.641 -13.032 -0.543 quatxyzw 0.695270 0.529227 -0.485034 0.035517 center 0.015 0.083 0.031 ntor 6 144.9434 56.9037 -90.2716 57.1000 -13.1978 -149.0169
State:	 -6.641 -13.032  -0.543   0.696  0.530 -0.485 175.929    144.94   56.90  -90.27   57.10  -13.20 -149.02

DOCKED: MODEL       31
DOCKED: USER    Run = 31
DOCKED: USER    DPF = D:/Protein_go_brrr/autodock/final/AncA/2_3_BPG/dock.dpf
DOCKED: USER  
DOCKED: USER    Estimated Free Energy of Binding    =  -10.70 kcal/mol  [=(1)+(2)+(3)-(4)]
DOCKED: USER    Estimated Inhibition Constant, Ki   =   14.31 nM (nanomolar)  [Temperature = 298.15 K]
DOCKED: USER    
DOCKED: USER    (1) Final Intermolecular Energy     =  -12.49 kcal/mol
DOCKED: USER        vdW + Hbond + desolv Energy     =   -4.51 kcal/mol
DOCKED: USER        Electrostatic Energy            =   -7.99 kcal/mol
DOCKED: USER    (2) Final Total Internal Energy     =   +2.42 kcal/mol
DOCKED: USER    (3) Torsional Free Energy           =   +1.79 kcal/mol
DOCKED: USER    (4) Unbound System's Energy  [=(2)] =   +2.42 kcal/mol
DOCKED: USER    
DOCKED: USER    
DOCKED: USER    NEWDPF move 2_3_BPG_opt.pdbqt
DOCKED: USER    NEWDPF about 0.015000 0.083000 0.031000
DOCKED: USER    NEWDPF tran0 -6.640826 -13.031557 -0.542820
DOCKED: USER    NEWDPF quaternion0 0.695270 0.529227 -0.485034 0.035517
DOCKED: USER    NEWDPF axisangle0 0.695709 0.529561 -0.485340 175.929249
DOCKED: USER    NEWDPF quat0 0.695709 0.529561 -0.485340 175.929249
DOCKED: USER    NEWDPF dihe0 144.94 56.90 -90.27 57.10 -13.20 -149.02 
DOCKED: USER  keepresnum = 1 
DOCKED: USER  
DOCKED: REMARK  6 active torsions:
DOCKED: REMARK  status: ('A' for Active; 'I' for Inactive)
DOCKED: REMARK    1  A    between atoms: P_1  and  O_3 
DOCKED: REMARK    2  A    between atoms: P_2  and  O_4 
DOCKED: REMARK    3  A    between atoms: O_3  and  C_13 
DOCKED: REMARK    4  A    between atoms: O_4  and  C_14 
DOCKED: REMARK    5  A    between atoms: C_13  and  C_14 
DOCKED: REMARK    6  A    between atoms: C_13  and  C_15 
DOCKED: USER                              x       y       z     vdW  Elec       q    Type
DOCKED: USER                           _______ _______ _______ _____ _____    ______ ____
DOCKED: ROOT
DOCKED: ATOM      1  C   UNL d   1      -6.908 -13.390  -0.043 -0.19 +0.26    +0.193 C 
DOCKED: ENDROOT
DOCKED: BRANCH   1   2
DOCKED: ATOM      2  O   UNL d   1      -5.858 -14.249   0.515 -0.36 -0.89    -0.356 OA
DOCKED: BRANCH   2   3
DOCKED: ATOM      3  P   UNL d   1      -5.310 -15.607  -0.233 -0.13 -0.03    -0.014 P 
DOCKED: ATOM      4  O   UNL d   1      -5.434 -16.708   0.832 -0.24 -1.00    -0.577 OA
DOCKED: ATOM      5  O   UNL d   1      -3.852 -15.356  -0.614 -0.11 -1.15    -0.577 OA
DOCKED: ATOM      6  O   UNL d   1      -6.213 -15.882  -1.431 -0.52 -1.32    -0.638 OA
DOCKED: ENDBRANCH   2   3
DOCKED: ENDBRANCH   1   2
DOCKED: BRANCH   1   7
DOCKED: ATOM      7  C   UNL d   1      -6.242 -12.342  -1.009 -0.20 +0.24    +0.201 C 
DOCKED: BRANCH   7   8
DOCKED: ATOM      8  O   UNL d   1      -4.852 -12.574  -1.330 -0.27 -0.59    -0.364 OA
DOCKED: BRANCH   8   9
DOCKED: ATOM      9  P   UNL d   1      -4.118 -11.695  -2.523 -0.39 -0.02    -0.015 P 
DOCKED: ATOM     10  O   UNL d   1      -3.498 -10.489  -1.805 -0.05 -0.40    -0.577 OA
DOCKED: ATOM     11  O   UNL d   1      -5.211 -11.275  -3.505 -0.12 -0.59    -0.577 OA
DOCKED: ATOM     12  O   UNL d   1      -3.057 -12.593  -3.157 -0.46 -1.27    -0.638 OA
DOCKED: ENDBRANCH   8   9
DOCKED: ENDBRANCH   7   8
DOCKED: ENDBRANCH   1   7
DOCKED: BRANCH   1  13
DOCKED: ATOM     13  C   UNL d   1      -7.642 -12.613   1.113 -0.21 +0.09    +0.073 C 
DOCKED: ATOM     14  O   UNL d   1      -8.794 -12.108   0.875 -0.38 -0.41    -0.547 OA
DOCKED: ATOM     15  O   UNL d   1      -7.061 -12.588   2.258 -0.86 -0.91    -0.547 OA
DOCKED: ENDBRANCH   1  13
DOCKED: TORSDOF 6
DOCKED: TER
DOCKED: ENDMDL
________________________________________________________________________________


	BEGINNING GENETIC ALGORITHM DOCKING 32 of 100
Run: 32 Seed: 1522006007 1437815845 [ Run 32 of 100 GA/GALS ]
Beginning LAMARCKIAN GENETIC ALGORITHM (LGA), with a maximum of 25000000 energy evaluations.

Final-Value: -10.404


	FINAL GENETIC ALGORITHM DOCKED STATE
	_______________________________________________


Detailed state:  trans -6.584 -12.866 -0.580 quatxyzw 0.046220 0.969834 0.055516 0.232818 center 0.015 0.083 0.031 ntor 6 167.9759 80.7983 -125.3613 9.7580 33.9292 158.2513
State:	 -6.584 -12.866  -0.580   0.048  0.997  0.057 153.074    167.98   80.80 -125.36    9.76   33.93  158.25

DOCKED: MODEL       32
DOCKED: USER    Run = 32
DOCKED: USER    DPF = D:/Protein_go_brrr/autodock/final/AncA/2_3_BPG/dock.dpf
DOCKED: USER  
DOCKED: USER    Estimated Free Energy of Binding    =  -10.78 kcal/mol  [=(1)+(2)+(3)-(4)]
DOCKED: USER    Estimated Inhibition Constant, Ki   =   12.46 nM (nanomolar)  [Temperature = 298.15 K]
DOCKED: USER    
DOCKED: USER    (1) Final Intermolecular Energy     =  -12.57 kcal/mol
DOCKED: USER        vdW + Hbond + desolv Energy     =   -4.89 kcal/mol
DOCKED: USER        Electrostatic Energy            =   -7.68 kcal/mol
DOCKED: USER    (2) Final Total Internal Energy     =   +2.17 kcal/mol
DOCKED: USER    (3) Torsional Free Energy           =   +1.79 kcal/mol
DOCKED: USER    (4) Unbound System's Energy  [=(2)] =   +2.17 kcal/mol
DOCKED: USER    
DOCKED: USER    
DOCKED: USER    NEWDPF move 2_3_BPG_opt.pdbqt
DOCKED: USER    NEWDPF about 0.015000 0.083000 0.031000
DOCKED: USER    NEWDPF tran0 -6.583678 -12.865978 -0.580276
DOCKED: USER    NEWDPF quaternion0 0.046220 0.969834 0.055516 0.232818
DOCKED: USER    NEWDPF axisangle0 0.047526 0.997237 0.057085 153.073935
DOCKED: USER    NEWDPF quat0 0.047526 0.997237 0.057085 153.073935
DOCKED: USER    NEWDPF dihe0 167.98 80.80 -125.36 9.76 33.93 158.25 
DOCKED: USER  keepresnum = 1 
DOCKED: USER  
DOCKED: REMARK  6 active torsions:
DOCKED: REMARK  status: ('A' for Active; 'I' for Inactive)
DOCKED: REMARK    1  A    between atoms: P_1  and  O_3 
DOCKED: REMARK    2  A    between atoms: P_2  and  O_4 
DOCKED: REMARK    3  A    between atoms: O_3  and  C_13 
DOCKED: REMARK    4  A    between atoms: O_4  and  C_14 
DOCKED: REMARK    5  A    between atoms: C_13  and  C_14 
DOCKED: REMARK    6  A    between atoms: C_13  and  C_15 
DOCKED: USER                              x       y       z     vdW  Elec       q    Type
DOCKED: USER                           _______ _______ _______ _____ _____    ______ ____
DOCKED: ROOT
DOCKED: ATOM      1  C   UNL d   1      -6.141 -13.200  -0.957 -0.21 +0.30    +0.193 C 
DOCKED: ENDROOT
DOCKED: BRANCH   1   2
DOCKED: ATOM      2  O   UNL d   1      -4.830 -12.560  -0.799 -0.20 -0.53    -0.356 OA
DOCKED: BRANCH   2   3
DOCKED: ATOM      3  P   UNL d   1      -3.959 -11.962  -2.059 -0.30 -0.02    -0.014 P 
DOCKED: ATOM      4  O   UNL d   1      -2.864 -13.012  -2.300 -0.43 -1.13    -0.577 OA
DOCKED: ATOM      5  O   UNL d   1      -3.369 -10.628  -1.608 -0.05 -0.41    -0.577 OA
DOCKED: ATOM      6  O   UNL d   1      -4.892 -11.840  -3.260 -0.28 -0.95    -0.638 OA
DOCKED: ENDBRANCH   2   3
DOCKED: ENDBRANCH   1   2
DOCKED: BRANCH   1   7
DOCKED: ATOM      7  C   UNL d   1      -7.120 -12.622   0.130 -0.19 +0.23    +0.201 C 
DOCKED: BRANCH   7   8
DOCKED: ATOM      8  O   UNL d   1      -6.566 -12.459   1.455 -0.55 -0.59    -0.364 OA
DOCKED: BRANCH   8   9
DOCKED: ATOM      9  P   UNL d   1      -7.499 -12.760   2.787 -0.33 -0.02    -0.015 P 
DOCKED: ATOM     10  O   UNL d   1      -7.980 -14.207   2.619 -0.09 -0.81    -0.577 OA
DOCKED: ATOM     11  O   UNL d   1      -8.660 -11.766   2.753 -0.32 -0.42    -0.577 OA
DOCKED: ATOM     12  O   UNL d   1      -6.603 -12.592   4.013 -0.65 -1.11    -0.638 OA
DOCKED: ENDBRANCH   8   9
DOCKED: ENDBRANCH   7   8
DOCKED: ENDBRANCH   1   7
DOCKED: BRANCH   1  13
DOCKED: ATOM     13  C   UNL d   1      -6.013 -14.755  -0.744 -0.06 +0.15    +0.073 C 
DOCKED: ATOM     14  O   UNL d   1      -6.655 -15.535  -1.531 -0.60 -1.04    -0.547 OA
DOCKED: ATOM     15  O   UNL d   1      -5.211 -15.152   0.177 -0.63 -1.31    -0.547 OA
DOCKED: ENDBRANCH   1  13
DOCKED: TORSDOF 6
DOCKED: TER
DOCKED: ENDMDL
________________________________________________________________________________


	BEGINNING GENETIC ALGORITHM DOCKING 33 of 100
Run: 33 Seed: 1463853458 1602236795 [ Run 33 of 100 GA/GALS ]
Beginning LAMARCKIAN GENETIC ALGORITHM (LGA), with a maximum of 25000000 energy evaluations.

Final-Value: -10.407


	FINAL GENETIC ALGORITHM DOCKED STATE
	_______________________________________________


Detailed state:  trans -6.703 -12.966 -0.281 quatxyzw -0.011802 -0.960417 -0.129598 -0.246300 center 0.015 0.083 0.031 ntor 6 -5.4005 85.2014 97.9737 -11.1690 18.9436 177.4953
State:	 -6.703 -12.966  -0.281  -0.012 -0.991 -0.134 -151.483     -5.40   85.20   97.97  -11.17   18.94  177.50

DOCKED: MODEL       33
DOCKED: USER    Run = 33
DOCKED: USER    DPF = D:/Protein_go_brrr/autodock/final/AncA/2_3_BPG/dock.dpf
DOCKED: USER  
DOCKED: USER    Estimated Free Energy of Binding    =  -10.81 kcal/mol  [=(1)+(2)+(3)-(4)]
DOCKED: USER    Estimated Inhibition Constant, Ki   =   11.88 nM (nanomolar)  [Temperature = 298.15 K]
DOCKED: USER    
DOCKED: USER    (1) Final Intermolecular Energy     =  -12.60 kcal/mol
DOCKED: USER        vdW + Hbond + desolv Energy     =   -4.91 kcal/mol
DOCKED: USER        Electrostatic Energy            =   -7.69 kcal/mol
DOCKED: USER    (2) Final Total Internal Energy     =   +2.19 kcal/mol
DOCKED: USER    (3) Torsional Free Energy           =   +1.79 kcal/mol
DOCKED: USER    (4) Unbound System's Energy  [=(2)] =   +2.19 kcal/mol
DOCKED: USER    
DOCKED: USER    
DOCKED: USER    NEWDPF move 2_3_BPG_opt.pdbqt
DOCKED: USER    NEWDPF about 0.015000 0.083000 0.031000
DOCKED: USER    NEWDPF tran0 -6.703169 -12.965855 -0.280715
DOCKED: USER    NEWDPF quaternion0 -0.011802 -0.960417 -0.129598 -0.246300
DOCKED: USER    NEWDPF axisangle0 -0.012177 -0.990945 -0.133717 -151.482617
DOCKED: USER    NEWDPF quat0 -0.012177 -0.990945 -0.133717 -151.482617
DOCKED: USER    NEWDPF dihe0 -5.40 85.20 97.97 -11.17 18.94 177.50 
DOCKED: USER  keepresnum = 1 
DOCKED: USER  
DOCKED: REMARK  6 active torsions:
DOCKED: REMARK  status: ('A' for Active; 'I' for Inactive)
DOCKED: REMARK    1  A    between atoms: P_1  and  O_3 
DOCKED: REMARK    2  A    between atoms: P_2  and  O_4 
DOCKED: REMARK    3  A    between atoms: O_3  and  C_13 
DOCKED: REMARK    4  A    between atoms: O_4  and  C_14 
DOCKED: REMARK    5  A    between atoms: C_13  and  C_14 
DOCKED: REMARK    6  A    between atoms: C_13  and  C_15 
DOCKED: USER                              x       y       z     vdW  Elec       q    Type
DOCKED: USER                           _______ _______ _______ _____ _____    ______ ____
DOCKED: ROOT
DOCKED: ATOM      1  C   UNL d   1      -6.259 -13.219  -0.714 -0.21 +0.29    +0.193 C 
DOCKED: ENDROOT
DOCKED: BRANCH   1   2
DOCKED: ATOM      2  O   UNL d   1      -4.966 -12.569  -0.477 -0.18 -0.52    -0.356 OA
DOCKED: BRANCH   2   3
DOCKED: ATOM      3  P   UNL d   1      -3.913 -12.187  -1.681 -0.34 -0.02    -0.014 P 
DOCKED: ATOM      4  O   UNL d   1      -2.885 -13.330  -1.668 -0.28 -1.05    -0.577 OA
DOCKED: ATOM      5  O   UNL d   1      -3.271 -10.851  -1.314 -0.06 -0.44    -0.577 OA
DOCKED: ATOM      6  O   UNL d   1      -4.690 -12.148  -2.992 -0.33 -1.19    -0.638 OA
DOCKED: ENDBRANCH   2   3
DOCKED: ENDBRANCH   1   2
DOCKED: BRANCH   1   7
DOCKED: ATOM      7  C   UNL d   1      -7.231 -12.858   0.469 -0.19 +0.25    +0.201 C 
DOCKED: BRANCH   7   8
DOCKED: ATOM      8  O   UNL d   1      -6.598 -12.469   1.708 -0.64 -0.62    -0.364 OA
DOCKED: BRANCH   8   9
DOCKED: ATOM      9  P   UNL d   1      -7.424 -12.592   3.136 -0.38 -0.02    -0.015 P 
DOCKED: ATOM     10  O   UNL d   1      -8.330 -11.355   3.180 -0.28 -0.41    -0.577 OA
DOCKED: ATOM     11  O   UNL d   1      -6.384 -12.578   4.256 -0.63 -0.98    -0.577 OA
DOCKED: ATOM     12  O   UNL d   1      -8.228 -13.890   3.082 -0.09 -0.76    -0.638 OA
DOCKED: ENDBRANCH   8   9
DOCKED: ENDBRANCH   7   8
DOCKED: ENDBRANCH   1   7
DOCKED: BRANCH   1  13
DOCKED: ATOM     13  C   UNL d   1      -6.077 -14.783  -0.758 -0.06 +0.14    +0.073 C 
DOCKED: ATOM     14  O   UNL d   1      -5.405 -15.346   0.176 -0.64 -1.25    -0.547 OA
DOCKED: ATOM     15  O   UNL d   1      -6.675 -15.412  -1.703 -0.59 -1.12    -0.547 OA
DOCKED: ENDBRANCH   1  13
DOCKED: TORSDOF 6
DOCKED: TER
DOCKED: ENDMDL
________________________________________________________________________________


	BEGINNING GENETIC ALGORITHM DOCKING 34 of 100
Run: 34 Seed: 1678118604 1671573663 [ Run 34 of 100 GA/GALS ]
Beginning LAMARCKIAN GENETIC ALGORITHM (LGA), with a maximum of 25000000 energy evaluations.

Final-Value: -10.448


	FINAL GENETIC ALGORITHM DOCKED STATE
	_______________________________________________


Detailed state:  trans -6.178 -12.865 -0.616 quatxyzw 0.045339 0.976186 0.027543 0.210349 center 0.015 0.083 0.031 ntor 6 157.2752 -21.8874 -112.2321 1.7956 30.3255 145.7132
State:	 -6.178 -12.865  -0.616   0.046  0.999  0.028 155.714    157.28  -21.89 -112.23    1.80   30.33  145.71

DOCKED: MODEL       34
DOCKED: USER    Run = 34
DOCKED: USER    DPF = D:/Protein_go_brrr/autodock/final/AncA/2_3_BPG/dock.dpf
DOCKED: USER  
DOCKED: USER    Estimated Free Energy of Binding    =  -10.84 kcal/mol  [=(1)+(2)+(3)-(4)]
DOCKED: USER    Estimated Inhibition Constant, Ki   =   11.41 nM (nanomolar)  [Temperature = 298.15 K]
DOCKED: USER    
DOCKED: USER    (1) Final Intermolecular Energy     =  -12.63 kcal/mol
DOCKED: USER        vdW + Hbond + desolv Energy     =   -4.98 kcal/mol
DOCKED: USER        Electrostatic Energy            =   -7.65 kcal/mol
DOCKED: USER    (2) Final Total Internal Energy     =   +2.18 kcal/mol
DOCKED: USER    (3) Torsional Free Energy           =   +1.79 kcal/mol
DOCKED: USER    (4) Unbound System's Energy  [=(2)] =   +2.18 kcal/mol
DOCKED: USER    
DOCKED: USER    
DOCKED: USER    NEWDPF move 2_3_BPG_opt.pdbqt
DOCKED: USER    NEWDPF about 0.015000 0.083000 0.031000
DOCKED: USER    NEWDPF tran0 -6.178408 -12.865180 -0.615556
DOCKED: USER    NEWDPF quaternion0 0.045339 0.976186 0.027543 0.210349
DOCKED: USER    NEWDPF axisangle0 0.046377 0.998527 0.028174 155.714388
DOCKED: USER    NEWDPF quat0 0.046377 0.998527 0.028174 155.714388
DOCKED: USER    NEWDPF dihe0 157.28 -21.89 -112.23 1.80 30.33 145.71 
DOCKED: USER  keepresnum = 1 
DOCKED: USER  
DOCKED: REMARK  6 active torsions:
DOCKED: REMARK  status: ('A' for Active; 'I' for Inactive)
DOCKED: REMARK    1  A    between atoms: P_1  and  O_3 
DOCKED: REMARK    2  A    between atoms: P_2  and  O_4 
DOCKED: REMARK    3  A    between atoms: O_3  and  C_13 
DOCKED: REMARK    4  A    between atoms: O_4  and  C_14 
DOCKED: REMARK    5  A    between atoms: C_13  and  C_14 
DOCKED: REMARK    6  A    between atoms: C_13  and  C_15 
DOCKED: USER                              x       y       z     vdW  Elec       q    Type
DOCKED: USER                           _______ _______ _______ _____ _____    ______ ____
DOCKED: ROOT
DOCKED: ATOM      1  C   UNL d   1      -5.716 -13.214  -0.953 -0.20 +0.33    +0.193 C 
DOCKED: ENDROOT
DOCKED: BRANCH   1   2
DOCKED: ATOM      2  O   UNL d   1      -4.421 -12.548  -0.774 -0.21 -0.53    -0.356 OA
DOCKED: BRANCH   2   3
DOCKED: ATOM      3  P   UNL d   1      -3.415 -12.179  -2.022 -0.31 -0.02    -0.014 P 
DOCKED: ATOM      4  O   UNL d   1      -2.594 -10.984  -1.512 -0.05 -0.42    -0.577 OA
DOCKED: ATOM      5  O   UNL d   1      -4.292 -11.792  -3.211 -0.51 -0.86    -0.577 OA
DOCKED: ATOM      6  O   UNL d   1      -2.531 -13.393  -2.289 -0.27 -1.20    -0.638 OA
DOCKED: ENDBRANCH   2   3
DOCKED: ENDBRANCH   1   2
DOCKED: BRANCH   1   7
DOCKED: ATOM      7  C   UNL d   1      -6.749 -12.589   0.056 -0.20 +0.24    +0.201 C 
DOCKED: BRANCH   7   8
DOCKED: ATOM      8  O   UNL d   1      -6.359 -12.603   1.447 -0.47 -0.65    -0.364 OA
DOCKED: BRANCH   8   9
DOCKED: ATOM      9  P   UNL d   1      -7.504 -12.783   2.627 -0.32 -0.02    -0.015 P 
DOCKED: ATOM     10  O   UNL d   1      -7.985 -14.233   2.499 -0.07 -0.81    -0.577 OA
DOCKED: ATOM     11  O   UNL d   1      -8.618 -11.782   2.323 -0.49 -0.46    -0.577 OA
DOCKED: ATOM     12  O   UNL d   1      -6.815 -12.523   3.967 -0.69 -0.99    -0.638 OA
DOCKED: ENDBRANCH   8   9
DOCKED: ENDBRANCH   7   8
DOCKED: ENDBRANCH   1   7
DOCKED: BRANCH   1  13
DOCKED: ATOM     13  C   UNL d   1      -5.579 -14.752  -0.647 -0.11 +0.16    +0.073 C 
DOCKED: ATOM     14  O   UNL d   1      -6.335 -15.571  -1.278 -0.56 -1.10    -0.547 OA
DOCKED: ATOM     15  O   UNL d   1      -4.662 -15.101   0.182 -0.53 -1.31    -0.547 OA
DOCKED: ENDBRANCH   1  13
DOCKED: TORSDOF 6
DOCKED: TER
DOCKED: ENDMDL
________________________________________________________________________________


	BEGINNING GENETIC ALGORITHM DOCKING 35 of 100
Run: 35 Seed: 1120327240 1626198308 [ Run 35 of 100 GA/GALS ]
Beginning LAMARCKIAN GENETIC ALGORITHM (LGA), with a maximum of 25000000 energy evaluations.

Final-Value: -9.697


	FINAL GENETIC ALGORITHM DOCKED STATE
	_______________________________________________


Detailed state:  trans -6.420 -13.156 -0.392 quatxyzw -0.647448 0.518383 0.551972 0.086116 center 0.015 0.083 0.031 ntor 6 -79.5376 -107.5961 173.1325 71.3142 20.2144 147.8410
State:	 -6.420 -13.156  -0.392  -0.650  0.520  0.554 170.120    -79.54 -107.60  173.13   71.31   20.21  147.84

DOCKED: MODEL       35
DOCKED: USER    Run = 35
DOCKED: USER    DPF = D:/Protein_go_brrr/autodock/final/AncA/2_3_BPG/dock.dpf
DOCKED: USER  
DOCKED: USER    Estimated Free Energy of Binding    =  -10.20 kcal/mol  [=(1)+(2)+(3)-(4)]
DOCKED: USER    Estimated Inhibition Constant, Ki   =   33.34 nM (nanomolar)  [Temperature = 298.15 K]
DOCKED: USER    
DOCKED: USER    (1) Final Intermolecular Energy     =  -11.99 kcal/mol
DOCKED: USER        vdW + Hbond + desolv Energy     =   -3.97 kcal/mol
DOCKED: USER        Electrostatic Energy            =   -8.02 kcal/mol
DOCKED: USER    (2) Final Total Internal Energy     =   +2.29 kcal/mol
DOCKED: USER    (3) Torsional Free Energy           =   +1.79 kcal/mol
DOCKED: USER    (4) Unbound System's Energy  [=(2)] =   +2.29 kcal/mol
DOCKED: USER    
DOCKED: USER    
DOCKED: USER    NEWDPF move 2_3_BPG_opt.pdbqt
DOCKED: USER    NEWDPF about 0.015000 0.083000 0.031000
DOCKED: USER    NEWDPF tran0 -6.419932 -13.156300 -0.392118
DOCKED: USER    NEWDPF quaternion0 -0.647448 0.518383 0.551972 0.086116
DOCKED: USER    NEWDPF axisangle0 -0.649862 0.520316 0.554031 170.119604
DOCKED: USER    NEWDPF quat0 -0.649862 0.520316 0.554031 170.119604
DOCKED: USER    NEWDPF dihe0 -79.54 -107.60 173.13 71.31 20.21 147.84 
DOCKED: USER  keepresnum = 1 
DOCKED: USER  
DOCKED: REMARK  6 active torsions:
DOCKED: REMARK  status: ('A' for Active; 'I' for Inactive)
DOCKED: REMARK    1  A    between atoms: P_1  and  O_3 
DOCKED: REMARK    2  A    between atoms: P_2  and  O_4 
DOCKED: REMARK    3  A    between atoms: O_3  and  C_13 
DOCKED: REMARK    4  A    between atoms: O_4  and  C_14 
DOCKED: REMARK    5  A    between atoms: C_13  and  C_14 
DOCKED: REMARK    6  A    between atoms: C_13  and  C_15 
DOCKED: USER                              x       y       z     vdW  Elec       q    Type
DOCKED: USER                           _______ _______ _______ _____ _____    ______ ____
DOCKED: ROOT
DOCKED: ATOM      1  C   UNL d   1      -6.229 -12.525  -0.274 -0.21 +0.24    +0.193 C 
DOCKED: ENDROOT
DOCKED: BRANCH   1   2
DOCKED: ATOM      2  O   UNL d   1      -6.018 -12.374   1.170 -0.21 -0.58    -0.356 OA
DOCKED: BRANCH   2   3
DOCKED: ATOM      3  P   UNL d   1      -7.206 -12.595   2.285 -0.17 -0.02    -0.014 P 
DOCKED: ATOM      4  O   UNL d   1      -7.503 -14.102   2.233 -0.07 -1.05    -0.577 OA
DOCKED: ATOM      5  O   UNL d   1      -8.410 -11.770   1.833 -0.54 -0.54    -0.577 OA
DOCKED: ATOM      6  O   UNL d   1      -6.660 -12.179   3.646 -0.71 -0.94    -0.638 OA
DOCKED: ENDBRANCH   2   3
DOCKED: ENDBRANCH   1   2
DOCKED: BRANCH   1   7
DOCKED: ATOM      7  C   UNL d   1      -6.391 -14.054  -0.603 -0.16 +0.34    +0.201 C 
DOCKED: BRANCH   7   8
DOCKED: ATOM      8  O   UNL d   1      -5.342 -14.919  -0.113 -0.71 -0.82    -0.364 OA
DOCKED: BRANCH   8   9
DOCKED: ATOM      9  P   UNL d   1      -5.067 -16.382  -0.836 -0.05 -0.03    -0.015 P 
DOCKED: ATOM     10  O   UNL d   1      -6.175 -16.522  -1.887 -0.39 -1.11    -0.577 OA
DOCKED: ATOM     11  O   UNL d   1      -5.178 -17.446   0.255 -0.02 -0.71    -0.577 OA
DOCKED: ATOM     12  O   UNL d   1      -3.679 -16.317  -1.471 -0.03 -1.32    -0.638 OA
DOCKED: ENDBRANCH   8   9
DOCKED: ENDBRANCH   7   8
DOCKED: ENDBRANCH   1   7
DOCKED: BRANCH   1  13
DOCKED: ATOM     13  C   UNL d   1      -4.985 -11.968  -1.062 -0.32 +0.09    +0.073 C 
DOCKED: ATOM     14  O   UNL d   1      -4.264 -11.066  -0.508 -0.09 -0.46    -0.547 OA
DOCKED: ATOM     15  O   UNL d   1      -4.730 -12.503  -2.201 -0.28 -1.11    -0.547 OA
DOCKED: ENDBRANCH   1  13
DOCKED: TORSDOF 6
DOCKED: TER
DOCKED: ENDMDL
________________________________________________________________________________


	BEGINNING GENETIC ALGORITHM DOCKING 36 of 100
Run: 36 Seed: 1488527935 108630334 [ Run 36 of 100 GA/GALS ]
Beginning LAMARCKIAN GENETIC ALGORITHM (LGA), with a maximum of 25000000 energy evaluations.

Final-Value: -9.509


	FINAL GENETIC ALGORITHM DOCKED STATE
	_______________________________________________


Detailed state:  trans -8.337 -13.700 1.268 quatxyzw 0.517240 -0.210380 -0.671558 -0.487045 center 0.015 0.083 0.031 ntor 6 -175.4345 -135.3595 175.0475 63.7775 -32.3685 118.3897
State:	 -8.337 -13.700   1.268   0.592 -0.241 -0.769 -121.707   -175.43 -135.36  175.05   63.78  -32.37  118.39

DOCKED: MODEL       36
DOCKED: USER    Run = 36
DOCKED: USER    DPF = D:/Protein_go_brrr/autodock/final/AncA/2_3_BPG/dock.dpf
DOCKED: USER  
DOCKED: USER    Estimated Free Energy of Binding    =  -10.11 kcal/mol  [=(1)+(2)+(3)-(4)]
DOCKED: USER    Estimated Inhibition Constant, Ki   =   38.79 nM (nanomolar)  [Temperature = 298.15 K]
DOCKED: USER    
DOCKED: USER    (1) Final Intermolecular Energy     =  -11.90 kcal/mol
DOCKED: USER        vdW + Hbond + desolv Energy     =   -4.73 kcal/mol
DOCKED: USER        Electrostatic Energy            =   -7.17 kcal/mol
DOCKED: USER    (2) Final Total Internal Energy     =   +2.39 kcal/mol
DOCKED: USER    (3) Torsional Free Energy           =   +1.79 kcal/mol
DOCKED: USER    (4) Unbound System's Energy  [=(2)] =   +2.39 kcal/mol
DOCKED: USER    
DOCKED: USER    
DOCKED: USER    NEWDPF move 2_3_BPG_opt.pdbqt
DOCKED: USER    NEWDPF about 0.015000 0.083000 0.031000
DOCKED: USER    NEWDPF tran0 -8.337111 -13.700041 1.268081
DOCKED: USER    NEWDPF quaternion0 0.517240 -0.210380 -0.671558 -0.487045
DOCKED: USER    NEWDPF axisangle0 0.592230 -0.240881 -0.768921 -121.706853
DOCKED: USER    NEWDPF quat0 0.592230 -0.240881 -0.768921 -121.706853
DOCKED: USER    NEWDPF dihe0 -175.43 -135.36 175.05 63.78 -32.37 118.39 
DOCKED: USER  keepresnum = 1 
DOCKED: USER  
DOCKED: REMARK  6 active torsions:
DOCKED: REMARK  status: ('A' for Active; 'I' for Inactive)
DOCKED: REMARK    1  A    between atoms: P_1  and  O_3 
DOCKED: REMARK    2  A    between atoms: P_2  and  O_4 
DOCKED: REMARK    3  A    between atoms: O_3  and  C_13 
DOCKED: REMARK    4  A    between atoms: O_4  and  C_14 
DOCKED: REMARK    5  A    between atoms: C_13  and  C_14 
DOCKED: REMARK    6  A    between atoms: C_13  and  C_15 
DOCKED: USER                              x       y       z     vdW  Elec       q    Type
DOCKED: USER                           _______ _______ _______ _____ _____    ______ ____
DOCKED: ROOT
DOCKED: ATOM      1  C   UNL d   1      -8.563 -13.073   1.345 -0.24 +0.17    +0.193 C 
DOCKED: ENDROOT
DOCKED: BRANCH   1   2
DOCKED: ATOM      2  O   UNL d   1      -7.646 -12.364   2.245 -0.87 -0.45    -0.356 OA
DOCKED: BRANCH   2   3
DOCKED: ATOM      3  P   UNL d   1      -7.498 -12.717   3.844 -0.49 -0.02    -0.014 P 
DOCKED: ATOM      4  O   UNL d   1      -7.546 -14.251   3.904 -0.24 -0.96    -0.577 OA
DOCKED: ATOM      5  O   UNL d   1      -8.694 -12.089   4.558 -0.14 -0.31    -0.577 OA
DOCKED: ATOM      6  O   UNL d   1      -6.154 -12.179   4.323 -0.53 -0.87    -0.638 OA
DOCKED: ENDBRANCH   2   3
DOCKED: ENDBRANCH   1   2
DOCKED: BRANCH   1   7
DOCKED: ATOM      7  C   UNL d   1      -7.902 -14.438   0.923 -0.11 +0.24    +0.201 C 
DOCKED: BRANCH   7   8
DOCKED: ATOM      8  O   UNL d   1      -6.948 -14.368  -0.159 -0.16 -0.54    -0.364 OA
DOCKED: BRANCH   8   9
DOCKED: ATOM      9  P   UNL d   1      -5.701 -15.453  -0.237 -0.14 -0.03    -0.015 P 
DOCKED: ATOM     10  O   UNL d   1      -5.843 -16.315   1.023 -0.27 -1.18    -0.577 OA
DOCKED: ATOM     11  O   UNL d   1      -4.405 -14.643  -0.232 -0.41 -1.25    -0.577 OA
DOCKED: ATOM     12  O   UNL d   1      -5.892 -16.269  -1.515 -0.37 -1.32    -0.638 OA
DOCKED: ENDBRANCH   8   9
DOCKED: ENDBRANCH   7   8
DOCKED: ENDBRANCH   1   7
DOCKED: BRANCH   1  13
DOCKED: ATOM     13  C   UNL d   1      -8.818 -12.216   0.050 -0.31 +0.05    +0.073 C 
DOCKED: ATOM     14  O   UNL d   1     -10.022 -11.883  -0.235 -0.45 -0.29    -0.547 OA
DOCKED: ATOM     15  O   UNL d   1      -7.786 -11.844  -0.616 +0.00 -0.42    -0.547 OA
DOCKED: ENDBRANCH   1  13
DOCKED: TORSDOF 6
DOCKED: TER
DOCKED: ENDMDL
________________________________________________________________________________


	BEGINNING GENETIC ALGORITHM DOCKING 37 of 100
Run: 37 Seed: 870992209 570666583 [ Run 37 of 100 GA/GALS ]
Beginning LAMARCKIAN GENETIC ALGORITHM (LGA), with a maximum of 25000000 energy evaluations.

Final-Value: -9.912


	FINAL GENETIC ALGORITHM DOCKED STATE
	_______________________________________________


Detailed state:  trans -6.347 -13.192 -0.467 quatxyzw 0.482295 0.268495 0.793078 -0.257543 center 0.015 0.083 0.031 ntor 6 -145.3498 64.6257 -116.7448 51.4223 19.6647 -45.2308
State:	 -6.347 -13.192  -0.467   0.499  0.278  0.821 -150.151   -145.35   64.63 -116.74   51.42   19.66  -45.23

DOCKED: MODEL       37
DOCKED: USER    Run = 37
DOCKED: USER    DPF = D:/Protein_go_brrr/autodock/final/AncA/2_3_BPG/dock.dpf
DOCKED: USER  
DOCKED: USER    Estimated Free Energy of Binding    =  -10.30 kcal/mol  [=(1)+(2)+(3)-(4)]
DOCKED: USER    Estimated Inhibition Constant, Ki   =   28.13 nM (nanomolar)  [Temperature = 298.15 K]
DOCKED: USER    
DOCKED: USER    (1) Final Intermolecular Energy     =  -12.09 kcal/mol
DOCKED: USER        vdW + Hbond + desolv Energy     =   -4.18 kcal/mol
DOCKED: USER        Electrostatic Energy            =   -7.91 kcal/mol
DOCKED: USER    (2) Final Total Internal Energy     =   +2.18 kcal/mol
DOCKED: USER    (3) Torsional Free Energy           =   +1.79 kcal/mol
DOCKED: USER    (4) Unbound System's Energy  [=(2)] =   +2.18 kcal/mol
DOCKED: USER    
DOCKED: USER    
DOCKED: USER    NEWDPF move 2_3_BPG_opt.pdbqt
DOCKED: USER    NEWDPF about 0.015000 0.083000 0.031000
DOCKED: USER    NEWDPF tran0 -6.347464 -13.191817 -0.466651
DOCKED: USER    NEWDPF quaternion0 0.482295 0.268495 0.793078 -0.257543
DOCKED: USER    NEWDPF axisangle0 0.499133 0.277868 0.820765 -150.151316
DOCKED: USER    NEWDPF quat0 0.499133 0.277868 0.820765 -150.151316
DOCKED: USER    NEWDPF dihe0 -145.35 64.63 -116.74 51.42 19.66 -45.23 
DOCKED: USER  keepresnum = 1 
DOCKED: USER  
DOCKED: REMARK  6 active torsions:
DOCKED: REMARK  status: ('A' for Active; 'I' for Inactive)
DOCKED: REMARK    1  A    between atoms: P_1  and  O_3 
DOCKED: REMARK    2  A    between atoms: P_2  and  O_4 
DOCKED: REMARK    3  A    between atoms: O_3  and  C_13 
DOCKED: REMARK    4  A    between atoms: O_4  and  C_14 
DOCKED: REMARK    5  A    between atoms: C_13  and  C_14 
DOCKED: REMARK    6  A    between atoms: C_13  and  C_15 
DOCKED: USER                              x       y       z     vdW  Elec       q    Type
DOCKED: USER                           _______ _______ _______ _____ _____    ______ ____
DOCKED: ROOT
DOCKED: ATOM      1  C   UNL d   1      -5.981 -13.341  -1.008 -0.19 +0.32    +0.193 C 
DOCKED: ENDROOT
DOCKED: BRANCH   1   2
DOCKED: ATOM      2  O   UNL d   1      -6.259 -14.733  -1.379 -0.50 -0.80    -0.356 OA
DOCKED: BRANCH   2   3
DOCKED: ATOM      3  P   UNL d   1      -5.554 -16.022  -0.640 -0.13 -0.03    -0.014 P 
DOCKED: ATOM      4  O   UNL d   1      -4.793 -16.739  -1.766 +0.01 -1.24    -0.577 OA
DOCKED: ATOM      5  O   UNL d   1      -6.677 -16.892  -0.079 -0.01 -0.68    -0.577 OA
DOCKED: ATOM      6  O   UNL d   1      -4.604 -15.491   0.428 -0.36 -1.58    -0.638 OA
DOCKED: ENDBRANCH   2   3
DOCKED: ENDBRANCH   1   2
DOCKED: BRANCH   1   7
DOCKED: ATOM      7  C   UNL d   1      -7.035 -12.885   0.067 -0.20 +0.24    +0.201 C 
DOCKED: BRANCH   7   8
DOCKED: ATOM      8  O   UNL d   1      -6.510 -12.594   1.381 -0.54 -0.61    -0.364 OA
DOCKED: BRANCH   8   9
DOCKED: ATOM      9  P   UNL d   1      -7.501 -12.657   2.704 -0.39 -0.02    -0.015 P 
DOCKED: ATOM     10  O   UNL d   1      -7.907 -14.131   2.828 -0.15 -0.84    -0.577 OA
DOCKED: ATOM     11  O   UNL d   1      -8.700 -11.758   2.406 -0.43 -0.44    -0.577 OA
DOCKED: ATOM     12  O   UNL d   1      -6.682 -12.185   3.905 -0.71 -0.88    -0.638 OA
DOCKED: ENDBRANCH   8   9
DOCKED: ENDBRANCH   7   8
DOCKED: ENDBRANCH   1   7
DOCKED: BRANCH   1  13
DOCKED: ATOM     13  C   UNL d   1      -6.113 -12.409  -2.270 -0.25 +0.10    +0.073 C 
DOCKED: ATOM     14  O   UNL d   1      -5.067 -12.178  -2.972 -0.28 -0.97    -0.547 OA
DOCKED: ATOM     15  O   UNL d   1      -7.289 -11.983  -2.559 -0.06 -0.48    -0.547 OA
DOCKED: ENDBRANCH   1  13
DOCKED: TORSDOF 6
DOCKED: TER
DOCKED: ENDMDL
________________________________________________________________________________


	BEGINNING GENETIC ALGORITHM DOCKING 38 of 100
Run: 38 Seed: 1117351292 1938654173 [ Run 38 of 100 GA/GALS ]
Beginning LAMARCKIAN GENETIC ALGORITHM (LGA), with a maximum of 25000000 energy evaluations.

Final-Value: -9.924


	FINAL GENETIC ALGORITHM DOCKED STATE
	_______________________________________________


Detailed state:  trans -6.504 -13.429 0.178 quatxyzw 0.333885 0.590043 0.733048 -0.054863 center 0.015 0.083 0.031 ntor 6 159.7006 -57.6004 -174.0778 -15.0132 36.7893 -52.4358
State:	 -6.504 -13.429   0.178   0.334  0.591  0.734 -173.710    159.70  -57.60 -174.08  -15.01   36.79  -52.44

DOCKED: MODEL       38
DOCKED: USER    Run = 38
DOCKED: USER    DPF = D:/Protein_go_brrr/autodock/final/AncA/2_3_BPG/dock.dpf
DOCKED: USER  
DOCKED: USER    Estimated Free Energy of Binding    =  -10.25 kcal/mol  [=(1)+(2)+(3)-(4)]
DOCKED: USER    Estimated Inhibition Constant, Ki   =   30.53 nM (nanomolar)  [Temperature = 298.15 K]
DOCKED: USER    
DOCKED: USER    (1) Final Intermolecular Energy     =  -12.04 kcal/mol
DOCKED: USER        vdW + Hbond + desolv Energy     =   -3.69 kcal/mol
DOCKED: USER        Electrostatic Energy            =   -8.35 kcal/mol
DOCKED: USER    (2) Final Total Internal Energy     =   +2.12 kcal/mol
DOCKED: USER    (3) Torsional Free Energy           =   +1.79 kcal/mol
DOCKED: USER    (4) Unbound System's Energy  [=(2)] =   +2.12 kcal/mol
DOCKED: USER    
DOCKED: USER    
DOCKED: USER    NEWDPF move 2_3_BPG_opt.pdbqt
DOCKED: USER    NEWDPF about 0.015000 0.083000 0.031000
DOCKED: USER    NEWDPF tran0 -6.504155 -13.428750 0.177963
DOCKED: USER    NEWDPF quaternion0 0.333885 0.590043 0.733048 -0.054863
DOCKED: USER    NEWDPF axisangle0 0.334389 0.590933 0.734154 -173.709968
DOCKED: USER    NEWDPF quat0 0.334389 0.590933 0.734154 -173.709968
DOCKED: USER    NEWDPF dihe0 159.70 -57.60 -174.08 -15.01 36.79 -52.44 
DOCKED: USER  keepresnum = 1 
DOCKED: USER  
DOCKED: REMARK  6 active torsions:
DOCKED: REMARK  status: ('A' for Active; 'I' for Inactive)
DOCKED: REMARK    1  A    between atoms: P_1  and  O_3 
DOCKED: REMARK    2  A    between atoms: P_2  and  O_4 
DOCKED: REMARK    3  A    between atoms: O_3  and  C_13 
DOCKED: REMARK    4  A    between atoms: O_4  and  C_14 
DOCKED: REMARK    5  A    between atoms: C_13  and  C_14 
DOCKED: REMARK    6  A    between atoms: C_13  and  C_15 
DOCKED: USER                              x       y       z     vdW  Elec       q    Type
DOCKED: USER                           _______ _______ _______ _____ _____    ______ ____
DOCKED: ROOT
DOCKED: ATOM      1  C   UNL d   1      -6.099 -13.537  -0.345 -0.20 +0.32    +0.193 C 
DOCKED: ENDROOT
DOCKED: BRANCH   1   2
DOCKED: ATOM      2  O   UNL d   1      -5.395 -14.805  -0.123 -0.71 -0.80    -0.356 OA
DOCKED: BRANCH   2   3
DOCKED: ATOM      3  P   UNL d   1      -3.863 -15.091  -0.646 -0.10 -0.03    -0.014 P 
DOCKED: ATOM      4  O   UNL d   1      -3.061 -15.348   0.639 -0.01 -0.99    -0.577 OA
DOCKED: ATOM      5  O   UNL d   1      -3.386 -13.829  -1.362 -0.07 -1.25    -0.577 OA
DOCKED: ATOM      6  O   UNL d   1      -3.893 -16.324  -1.543 +0.09 -1.41    -0.638 OA
DOCKED: ENDBRANCH   2   3
DOCKED: ENDBRANCH   1   2
DOCKED: BRANCH   1   7
DOCKED: ATOM      7  C   UNL d   1      -7.256 -13.410   0.713 -0.18 +0.28    +0.201 C 
DOCKED: BRANCH   7   8
DOCKED: ATOM      8  O   UNL d   1      -7.039 -12.453   1.773 -0.77 -0.56    -0.364 OA
DOCKED: BRANCH   8   9
DOCKED: ATOM      9  P   UNL d   1      -7.500 -12.811   3.321 -0.33 -0.02    -0.015 P 
DOCKED: ATOM     10  O   UNL d   1      -7.914 -14.287   3.283 -0.17 -0.83    -0.577 OA
DOCKED: ATOM     11  O   UNL d   1      -8.677 -11.896   3.659 -0.05 -0.37    -0.577 OA
DOCKED: ATOM     12  O   UNL d   1      -6.285 -12.578   4.218 -0.56 -1.14    -0.638 OA
DOCKED: ENDBRANCH   8   9
DOCKED: ENDBRANCH   7   8
DOCKED: ENDBRANCH   1   7
DOCKED: BRANCH   1  13
DOCKED: ATOM     13  C   UNL d   1      -6.729 -13.514  -1.787 -0.15 +0.12    +0.073 C 
DOCKED: ATOM     14  O   UNL d   1      -6.795 -12.396  -2.408 -0.07 -0.64    -0.547 OA
DOCKED: ATOM     15  O   UNL d   1      -7.085 -14.643  -2.285 -0.42 -1.03    -0.547 OA
DOCKED: ENDBRANCH   1  13
DOCKED: TORSDOF 6
DOCKED: TER
DOCKED: ENDMDL
________________________________________________________________________________


	BEGINNING GENETIC ALGORITHM DOCKING 39 of 100
Run: 39 Seed: 1156329146 1532860663 [ Run 39 of 100 GA/GALS ]
Beginning LAMARCKIAN GENETIC ALGORITHM (LGA), with a maximum of 25000000 energy evaluations.

Final-Value: -9.861


	FINAL GENETIC ALGORITHM DOCKED STATE
	_______________________________________________


Detailed state:  trans -7.381 -12.959 0.862 quatxyzw 0.610316 0.238082 -0.363896 -0.662127 center 0.015 0.083 0.031 ntor 6 -155.3645 170.8235 -23.5660 48.6819 88.5409 14.4308
State:	 -7.381 -12.959   0.862   0.814  0.318 -0.486 -97.075   -155.36  170.82  -23.57   48.68   88.54   14.43

DOCKED: MODEL       39
DOCKED: USER    Run = 39
DOCKED: USER    DPF = D:/Protein_go_brrr/autodock/final/AncA/2_3_BPG/dock.dpf
DOCKED: USER  
DOCKED: USER    Estimated Free Energy of Binding    =  -10.29 kcal/mol  [=(1)+(2)+(3)-(4)]
DOCKED: USER    Estimated Inhibition Constant, Ki   =   28.73 nM (nanomolar)  [Temperature = 298.15 K]
DOCKED: USER    
DOCKED: USER    (1) Final Intermolecular Energy     =  -12.08 kcal/mol
DOCKED: USER        vdW + Hbond + desolv Energy     =   -4.75 kcal/mol
DOCKED: USER        Electrostatic Energy            =   -7.33 kcal/mol
DOCKED: USER    (2) Final Total Internal Energy     =   +2.22 kcal/mol
DOCKED: USER    (3) Torsional Free Energy           =   +1.79 kcal/mol
DOCKED: USER    (4) Unbound System's Energy  [=(2)] =   +2.22 kcal/mol
DOCKED: USER    
DOCKED: USER    
DOCKED: USER    NEWDPF move 2_3_BPG_opt.pdbqt
DOCKED: USER    NEWDPF about 0.015000 0.083000 0.031000
DOCKED: USER    NEWDPF tran0 -7.380573 -12.958731 0.861516
DOCKED: USER    NEWDPF quaternion0 0.610316 0.238082 -0.363896 -0.662127
DOCKED: USER    NEWDPF axisangle0 0.814414 0.317701 -0.485588 -97.075481
DOCKED: USER    NEWDPF quat0 0.814414 0.317701 -0.485588 -97.075481
DOCKED: USER    NEWDPF dihe0 -155.36 170.82 -23.57 48.68 88.54 14.43 
DOCKED: USER  keepresnum = 1 
DOCKED: USER  
DOCKED: REMARK  6 active torsions:
DOCKED: REMARK  status: ('A' for Active; 'I' for Inactive)
DOCKED: REMARK    1  A    between atoms: P_1  and  O_3 
DOCKED: REMARK    2  A    between atoms: P_2  and  O_4 
DOCKED: REMARK    3  A    between atoms: O_3  and  C_13 
DOCKED: REMARK    4  A    between atoms: O_4  and  C_14 
DOCKED: REMARK    5  A    between atoms: C_13  and  C_14 
DOCKED: REMARK    6  A    between atoms: C_13  and  C_15 
DOCKED: USER                              x       y       z     vdW  Elec       q    Type
DOCKED: USER                           _______ _______ _______ _____ _____    ______ ____
DOCKED: ROOT
DOCKED: ATOM      1  C   UNL d   1      -7.998 -12.935   1.122 -0.23 +0.21    +0.193 C 
DOCKED: ENDROOT
DOCKED: BRANCH   1   2
DOCKED: ATOM      2  O   UNL d   1      -7.951 -12.111   2.335 -0.82 -0.39    -0.356 OA
DOCKED: BRANCH   2   3
DOCKED: ATOM      3  P   UNL d   1      -7.503 -12.694   3.806 -0.50 -0.02    -0.014 P 
DOCKED: ATOM      4  O   UNL d   1      -7.518 -14.221   3.633 -0.21 -1.03    -0.577 OA
DOCKED: ATOM      5  O   UNL d   1      -8.553 -12.232   4.814 -0.16 -0.32    -0.577 OA
DOCKED: ATOM      6  O   UNL d   1      -6.100 -12.179   4.109 -0.52 -0.95    -0.638 OA
DOCKED: ENDBRANCH   2   3
DOCKED: ENDBRANCH   1   2
DOCKED: BRANCH   1   7
DOCKED: ATOM      7  C   UNL d   1      -6.641 -12.766   0.344 -0.19 +0.27    +0.201 C 
DOCKED: BRANCH   7   8
DOCKED: ATOM      8  O   UNL d   1      -6.465 -13.618  -0.809 -0.17 -0.57    -0.364 OA
DOCKED: BRANCH   8   9
DOCKED: ATOM      9  P   UNL d   1      -5.800 -15.122  -0.636 -0.10 -0.03    -0.015 P 
DOCKED: ATOM     10  O   UNL d   1      -6.258 -15.906  -1.872 -0.44 -1.38    -0.577 OA
DOCKED: ATOM     11  O   UNL d   1      -6.364 -15.713   0.656 -0.38 -1.12    -0.577 OA
DOCKED: ATOM     12  O   UNL d   1      -4.283 -14.944  -0.600 -0.18 -1.39    -0.638 OA
DOCKED: ENDBRANCH   8   9
DOCKED: ENDBRANCH   7   8
DOCKED: ENDBRANCH   1   7
DOCKED: BRANCH   1  13
DOCKED: ATOM     13  C   UNL d   1      -9.175 -12.459   0.191 -0.31 +0.05    +0.073 C 
DOCKED: ATOM     14  O   UNL d   1     -10.261 -13.139   0.182 -0.42 -0.37    -0.547 OA
DOCKED: ATOM     15  O   UNL d   1      -8.996 -11.369  -0.464 -0.10 -0.29    -0.547 OA
DOCKED: ENDBRANCH   1  13
DOCKED: TORSDOF 6
DOCKED: TER
DOCKED: ENDMDL
________________________________________________________________________________


	BEGINNING GENETIC ALGORITHM DOCKING 40 of 100
Run: 40 Seed: 168165372 104076129 [ Run 40 of 100 GA/GALS ]
Beginning LAMARCKIAN GENETIC ALGORITHM (LGA), with a maximum of 25000000 energy evaluations.

Final-Value: -10.693


	FINAL GENETIC ALGORITHM DOCKED STATE
	_______________________________________________


Detailed state:  trans -7.633 -13.154 0.868 quatxyzw 0.505211 0.327651 -0.433389 -0.670508 center 0.015 0.083 0.031 ntor 6 164.2493 175.9488 -179.8448 30.5668 -67.7654 -84.8366
State:	 -7.633 -13.154   0.868   0.681  0.442 -0.584 -95.787    164.25  175.95 -179.84   30.57  -67.77  -84.84

DOCKED: MODEL       40
DOCKED: USER    Run = 40
DOCKED: USER    DPF = D:/Protein_go_brrr/autodock/final/AncA/2_3_BPG/dock.dpf
DOCKED: USER  
DOCKED: USER    Estimated Free Energy of Binding    =  -11.02 kcal/mol  [=(1)+(2)+(3)-(4)]
DOCKED: USER    Estimated Inhibition Constant, Ki   =    8.34 nM (nanomolar)  [Temperature = 298.15 K]
DOCKED: USER    
DOCKED: USER    (1) Final Intermolecular Energy     =  -12.81 kcal/mol
DOCKED: USER        vdW + Hbond + desolv Energy     =   -5.08 kcal/mol
DOCKED: USER        Electrostatic Energy            =   -7.73 kcal/mol
DOCKED: USER    (2) Final Total Internal Energy     =   +2.12 kcal/mol
DOCKED: USER    (3) Torsional Free Energy           =   +1.79 kcal/mol
DOCKED: USER    (4) Unbound System's Energy  [=(2)] =   +2.12 kcal/mol
DOCKED: USER    
DOCKED: USER    
DOCKED: USER    NEWDPF move 2_3_BPG_opt.pdbqt
DOCKED: USER    NEWDPF about 0.015000 0.083000 0.031000
DOCKED: USER    NEWDPF tran0 -7.633227 -13.154299 0.867678
DOCKED: USER    NEWDPF quaternion0 0.505211 0.327651 -0.433389 -0.670508
DOCKED: USER    NEWDPF axisangle0 0.680967 0.441637 -0.584159 -95.787435
DOCKED: USER    NEWDPF quat0 0.680967 0.441637 -0.584159 -95.787435
DOCKED: USER    NEWDPF dihe0 164.25 175.95 -179.84 30.57 -67.77 -84.84 
DOCKED: USER  keepresnum = 1 
DOCKED: USER  
DOCKED: REMARK  6 active torsions:
DOCKED: REMARK  status: ('A' for Active; 'I' for Inactive)
DOCKED: REMARK    1  A    between atoms: P_1  and  O_3 
DOCKED: REMARK    2  A    between atoms: P_2  and  O_4 
DOCKED: REMARK    3  A    between atoms: O_3  and  C_13 
DOCKED: REMARK    4  A    between atoms: O_4  and  C_14 
DOCKED: REMARK    5  A    between atoms: C_13  and  C_14 
DOCKED: REMARK    6  A    between atoms: C_13  and  C_15 
DOCKED: USER                              x       y       z     vdW  Elec       q    Type
DOCKED: USER                           _______ _______ _______ _____ _____    ______ ____
DOCKED: ROOT
DOCKED: ATOM      1  C   UNL d   1      -8.158 -13.133   1.285 -0.23 +0.20    +0.193 C 
DOCKED: ENDROOT
DOCKED: BRANCH   1   2
DOCKED: ATOM      2  O   UNL d   1      -7.861 -12.161   2.343 -0.85 -0.40    -0.356 OA
DOCKED: BRANCH   2   3
DOCKED: ATOM      3  P   UNL d   1      -7.378 -12.592   3.855 -0.48 -0.02    -0.014 P 
DOCKED: ATOM      4  O   UNL d   1      -7.537 -14.120   3.887 -0.28 -0.96    -0.577 OA
DOCKED: ATOM      5  O   UNL d   1      -8.320 -11.908   4.843 -0.19 -0.29    -0.577 OA
DOCKED: ATOM      6  O   UNL d   1      -5.919 -12.178   4.019 -0.43 -1.02    -0.638 OA
DOCKED: ENDBRANCH   2   3
DOCKED: ENDBRANCH   1   2
DOCKED: BRANCH   1   7
DOCKED: ATOM      7  C   UNL d   1      -7.080 -12.987   0.148 -0.20 +0.25    +0.201 C 
DOCKED: BRANCH   7   8
DOCKED: ATOM      8  O   UNL d   1      -5.772 -13.525   0.447 -0.28 -0.75    -0.364 OA
DOCKED: BRANCH   8   9
DOCKED: ATOM      9  P   UNL d   1      -5.183 -14.804  -0.422 -0.04 -0.03    -0.015 P 
DOCKED: ATOM     10  O   UNL d   1      -6.259 -15.100  -1.474 -0.51 -1.36    -0.577 OA
DOCKED: ATOM     11  O   UNL d   1      -5.008 -15.964   0.557 -0.44 -1.31    -0.577 OA
DOCKED: ATOM     12  O   UNL d   1      -3.869 -14.351  -1.056 +0.02 -1.46    -0.638 OA
DOCKED: ENDBRANCH   8   9
DOCKED: ENDBRANCH   7   8
DOCKED: ENDBRANCH   1   7
DOCKED: BRANCH   1  13
DOCKED: ATOM     13  C   UNL d   1      -9.579 -12.845   0.671 -0.27 +0.05    +0.073 C 
DOCKED: ATOM     14  O   UNL d   1     -10.317 -13.840   0.345 -0.33 -0.32    -0.547 OA
DOCKED: ATOM     15  O   UNL d   1      -9.942 -11.616   0.593 -0.58 -0.31    -0.547 OA
DOCKED: ENDBRANCH   1  13
DOCKED: TORSDOF 6
DOCKED: TER
DOCKED: ENDMDL
________________________________________________________________________________


	BEGINNING GENETIC ALGORITHM DOCKING 41 of 100
Run: 41 Seed: 625009501 782644320 [ Run 41 of 100 GA/GALS ]
Beginning LAMARCKIAN GENETIC ALGORITHM (LGA), with a maximum of 25000000 energy evaluations.

Final-Value: -9.919


	FINAL GENETIC ALGORITHM DOCKED STATE
	_______________________________________________


Detailed state:  trans -5.919 -13.219 -0.025 quatxyzw 0.410366 0.186937 0.841626 -0.297187 center 0.015 0.083 0.031 ntor 6 -129.0498 8.9198 -134.3507 26.5004 31.4457 -26.5354
State:	 -5.919 -13.219  -0.025   0.430  0.196  0.881 -145.423   -129.05    8.92 -134.35   26.50   31.45  -26.54

DOCKED: MODEL       41
DOCKED: USER    Run = 41
DOCKED: USER    DPF = D:/Protein_go_brrr/autodock/final/AncA/2_3_BPG/dock.dpf
DOCKED: USER  
DOCKED: USER    Estimated Free Energy of Binding    =  -10.24 kcal/mol  [=(1)+(2)+(3)-(4)]
DOCKED: USER    Estimated Inhibition Constant, Ki   =   31.43 nM (nanomolar)  [Temperature = 298.15 K]
DOCKED: USER    
DOCKED: USER    (1) Final Intermolecular Energy     =  -12.03 kcal/mol
DOCKED: USER        vdW + Hbond + desolv Energy     =   -4.12 kcal/mol
DOCKED: USER        Electrostatic Energy            =   -7.90 kcal/mol
DOCKED: USER    (2) Final Total Internal Energy     =   +2.11 kcal/mol
DOCKED: USER    (3) Torsional Free Energy           =   +1.79 kcal/mol
DOCKED: USER    (4) Unbound System's Energy  [=(2)] =   +2.11 kcal/mol
DOCKED: USER    
DOCKED: USER    
DOCKED: USER    NEWDPF move 2_3_BPG_opt.pdbqt
DOCKED: USER    NEWDPF about 0.015000 0.083000 0.031000
DOCKED: USER    NEWDPF tran0 -5.918672 -13.218886 -0.024715
DOCKED: USER    NEWDPF quaternion0 0.410366 0.186937 0.841626 -0.297187
DOCKED: USER    NEWDPF axisangle0 0.429784 0.195782 0.881450 -145.422568
DOCKED: USER    NEWDPF quat0 0.429784 0.195782 0.881450 -145.422568
DOCKED: USER    NEWDPF dihe0 -129.05 8.92 -134.35 26.50 31.45 -26.54 
DOCKED: USER  keepresnum = 1 
DOCKED: USER  
DOCKED: REMARK  6 active torsions:
DOCKED: REMARK  status: ('A' for Active; 'I' for Inactive)
DOCKED: REMARK    1  A    between atoms: P_1  and  O_3 
DOCKED: REMARK    2  A    between atoms: P_2  and  O_4 
DOCKED: REMARK    3  A    between atoms: O_3  and  C_13 
DOCKED: REMARK    4  A    between atoms: O_4  and  C_14 
DOCKED: REMARK    5  A    between atoms: C_13  and  C_14 
DOCKED: REMARK    6  A    between atoms: C_13  and  C_15 
DOCKED: USER                              x       y       z     vdW  Elec       q    Type
DOCKED: USER                           _______ _______ _______ _____ _____    ______ ____
DOCKED: ROOT
DOCKED: ATOM      1  C   UNL d   1      -5.451 -13.360  -0.483 -0.20 +0.34    +0.193 C 
DOCKED: ENDROOT
DOCKED: BRANCH   1   2
DOCKED: ATOM      2  O   UNL d   1      -5.732 -14.693  -1.028 -0.41 -0.82    -0.356 OA
DOCKED: BRANCH   2   3
DOCKED: ATOM      3  P   UNL d   1      -4.850 -16.028  -0.649 -0.11 -0.03    -0.014 P 
DOCKED: ATOM      4  O   UNL d   1      -5.430 -17.137  -1.541 -0.11 -0.92    -0.577 OA
DOCKED: ATOM      5  O   UNL d   1      -5.083 -16.319   0.832 -0.29 -1.23    -0.577 OA
DOCKED: ATOM      6  O   UNL d   1      -3.391 -15.741  -0.990 -0.03 -1.20    -0.638 OA
DOCKED: ENDBRANCH   2   3
DOCKED: ENDBRANCH   1   2
DOCKED: BRANCH   1   7
DOCKED: ATOM      7  C   UNL d   1      -6.686 -12.892   0.370 -0.20 +0.28    +0.201 C 
DOCKED: BRANCH   7   8
DOCKED: ATOM      8  O   UNL d   1      -6.382 -12.342   1.671 -0.51 -0.62    -0.364 OA
DOCKED: BRANCH   8   9
DOCKED: ATOM      9  P   UNL d   1      -7.412 -12.594   2.941 -0.34 -0.02    -0.015 P 
DOCKED: ATOM     10  O   UNL d   1      -7.716 -14.097   2.915 -0.16 -0.97    -0.577 OA
DOCKED: ATOM     11  O   UNL d   1      -8.661 -11.754   2.675 -0.35 -0.43    -0.577 OA
DOCKED: ATOM     12  O   UNL d   1      -6.671 -12.180   4.211 -0.62 -0.80    -0.638 OA
DOCKED: ENDBRANCH   8   9
DOCKED: ENDBRANCH   7   8
DOCKED: ENDBRANCH   1   7
DOCKED: BRANCH   1  13
DOCKED: ATOM     13  C   UNL d   1      -5.231 -12.334  -1.657 -0.25 +0.11    +0.073 C 
DOCKED: ATOM     14  O   UNL d   1      -4.123 -12.369  -2.300 -0.49 -1.08    -0.547 OA
DOCKED: ATOM     15  O   UNL d   1      -6.212 -11.556  -1.942 -0.04 -0.53    -0.547 OA
DOCKED: ENDBRANCH   1  13
DOCKED: TORSDOF 6
DOCKED: TER
DOCKED: ENDMDL
________________________________________________________________________________


	BEGINNING GENETIC ALGORITHM DOCKING 42 of 100
Run: 42 Seed: 1590013274 66305006 [ Run 42 of 100 GA/GALS ]
Beginning LAMARCKIAN GENETIC ALGORITHM (LGA), with a maximum of 25000000 energy evaluations.

Final-Value: -9.826


	FINAL GENETIC ALGORITHM DOCKED STATE
	_______________________________________________


Detailed state:  trans -6.003 -13.424 -0.046 quatxyzw 0.403560 0.175802 0.846527 -0.299374 center 0.015 0.083 0.031 ntor 6 -126.6673 -50.8022 -146.9979 31.5481 33.2361 -23.1173
State:	 -6.003 -13.424  -0.046   0.423  0.184  0.887 -145.160   -126.67  -50.80 -147.00   31.55   33.24  -23.12

DOCKED: MODEL       42
DOCKED: USER    Run = 42
DOCKED: USER    DPF = D:/Protein_go_brrr/autodock/final/AncA/2_3_BPG/dock.dpf
DOCKED: USER  
DOCKED: USER    Estimated Free Energy of Binding    =  -10.12 kcal/mol  [=(1)+(2)+(3)-(4)]
DOCKED: USER    Estimated Inhibition Constant, Ki   =   38.36 nM (nanomolar)  [Temperature = 298.15 K]
DOCKED: USER    
DOCKED: USER    (1) Final Intermolecular Energy     =  -11.91 kcal/mol
DOCKED: USER        vdW + Hbond + desolv Energy     =   -3.88 kcal/mol
DOCKED: USER        Electrostatic Energy            =   -8.02 kcal/mol
DOCKED: USER    (2) Final Total Internal Energy     =   +2.08 kcal/mol
DOCKED: USER    (3) Torsional Free Energy           =   +1.79 kcal/mol
DOCKED: USER    (4) Unbound System's Energy  [=(2)] =   +2.08 kcal/mol
DOCKED: USER    
DOCKED: USER    
DOCKED: USER    NEWDPF move 2_3_BPG_opt.pdbqt
DOCKED: USER    NEWDPF about 0.015000 0.083000 0.031000
DOCKED: USER    NEWDPF tran0 -6.003392 -13.423764 -0.046294
DOCKED: USER    NEWDPF quaternion0 0.403560 0.175802 0.846527 -0.299374
DOCKED: USER    NEWDPF axisangle0 0.422958 0.184252 0.887219 -145.159961
DOCKED: USER    NEWDPF quat0 0.422958 0.184252 0.887219 -145.159961
DOCKED: USER    NEWDPF dihe0 -126.67 -50.80 -147.00 31.55 33.24 -23.12 
DOCKED: USER  keepresnum = 1 
DOCKED: USER  
DOCKED: REMARK  6 active torsions:
DOCKED: REMARK  status: ('A' for Active; 'I' for Inactive)
DOCKED: REMARK    1  A    between atoms: P_1  and  O_3 
DOCKED: REMARK    2  A    between atoms: P_2  and  O_4 
DOCKED: REMARK    3  A    between atoms: O_3  and  C_13 
DOCKED: REMARK    4  A    between atoms: O_4  and  C_14 
DOCKED: REMARK    5  A    between atoms: C_13  and  C_14 
DOCKED: REMARK    6  A    between atoms: C_13  and  C_15 
DOCKED: USER                              x       y       z     vdW  Elec       q    Type
DOCKED: USER                           _______ _______ _______ _____ _____    ______ ____
DOCKED: ROOT
DOCKED: ATOM      1  C   UNL d   1      -5.526 -13.562  -0.496 -0.19 +0.35    +0.193 C 
DOCKED: ENDROOT
DOCKED: BRANCH   1   2
DOCKED: ATOM      2  O   UNL d   1      -5.805 -14.885  -1.067 -0.45 -0.82    -0.356 OA
DOCKED: BRANCH   2   3
DOCKED: ATOM      3  P   UNL d   1      -5.021 -16.253  -0.599 -0.13 -0.03    -0.014 P 
DOCKED: ATOM      4  O   UNL d   1      -6.145 -17.219  -0.193 -0.01 -0.68    -0.577 OA
DOCKED: ATOM      5  O   UNL d   1      -4.139 -15.884   0.593 -0.29 -1.21    -0.577 OA
DOCKED: ATOM      6  O   UNL d   1      -4.236 -16.779  -1.796 +0.03 -1.35    -0.638 OA
DOCKED: ENDBRANCH   2   3
DOCKED: ENDBRANCH   1   2
DOCKED: BRANCH   1   7
DOCKED: ATOM      7  C   UNL d   1      -6.778 -13.097   0.336 -0.20 +0.28    +0.201 C 
DOCKED: BRANCH   7   8
DOCKED: ATOM      8  O   UNL d   1      -6.494 -12.498   1.619 -0.56 -0.63    -0.364 OA
DOCKED: BRANCH   8   9
DOCKED: ATOM      9  P   UNL d   1      -7.501 -12.770   2.903 -0.33 -0.02    -0.015 P 
DOCKED: ATOM     10  O   UNL d   1      -7.984 -14.215   2.732 -0.10 -0.81    -0.577 OA
DOCKED: ATOM     11  O   UNL d   1      -8.649 -11.768   2.790 -0.30 -0.42    -0.577 OA
DOCKED: ATOM     12  O   UNL d   1      -6.672 -12.588   4.174 -0.67 -1.01    -0.638 OA
DOCKED: ENDBRANCH   8   9
DOCKED: ENDBRANCH   7   8
DOCKED: ENDBRANCH   1   7
DOCKED: BRANCH   1  13
DOCKED: ATOM     13  C   UNL d   1      -5.272 -12.520  -1.649 -0.21 +0.12    +0.073 C 
DOCKED: ATOM     14  O   UNL d   1      -4.169 -12.583  -2.298 -0.40 -1.24    -0.547 OA
DOCKED: ATOM     15  O   UNL d   1      -6.224 -11.700  -1.913 -0.06 -0.55    -0.547 OA
DOCKED: ENDBRANCH   1  13
DOCKED: TORSDOF 6
DOCKED: TER
DOCKED: ENDMDL
________________________________________________________________________________


	BEGINNING GENETIC ALGORITHM DOCKING 43 of 100
Run: 43 Seed: 543265249 2015189571 [ Run 43 of 100 GA/GALS ]
Beginning LAMARCKIAN GENETIC ALGORITHM (LGA), with a maximum of 25000000 energy evaluations.

Final-Value: -9.630


	FINAL GENETIC ALGORITHM DOCKED STATE
	_______________________________________________


Detailed state:  trans -6.635 -13.038 -0.740 quatxyzw -0.687675 -0.509782 0.510641 -0.080448 center 0.015 0.083 0.031 ntor 6 143.3745 -138.3071 -171.0136 33.4521 -42.3497 164.1022
State:	 -6.635 -13.038  -0.740  -0.690 -0.511  0.512 -170.771    143.37 -138.31 -171.01   33.45  -42.35  164.10

DOCKED: MODEL       43
DOCKED: USER    Run = 43
DOCKED: USER    DPF = D:/Protein_go_brrr/autodock/final/AncA/2_3_BPG/dock.dpf
DOCKED: USER  
DOCKED: USER    Estimated Free Energy of Binding    =  -10.12 kcal/mol  [=(1)+(2)+(3)-(4)]
DOCKED: USER    Estimated Inhibition Constant, Ki   =   38.00 nM (nanomolar)  [Temperature = 298.15 K]
DOCKED: USER    
DOCKED: USER    (1) Final Intermolecular Energy     =  -11.91 kcal/mol
DOCKED: USER        vdW + Hbond + desolv Energy     =   -4.41 kcal/mol
DOCKED: USER        Electrostatic Energy            =   -7.50 kcal/mol
DOCKED: USER    (2) Final Total Internal Energy     =   +2.28 kcal/mol
DOCKED: USER    (3) Torsional Free Energy           =   +1.79 kcal/mol
DOCKED: USER    (4) Unbound System's Energy  [=(2)] =   +2.28 kcal/mol
DOCKED: USER    
DOCKED: USER    
DOCKED: USER    NEWDPF move 2_3_BPG_opt.pdbqt
DOCKED: USER    NEWDPF about 0.015000 0.083000 0.031000
DOCKED: USER    NEWDPF tran0 -6.635074 -13.038265 -0.740498
DOCKED: USER    NEWDPF quaternion0 -0.687675 -0.509782 0.510641 -0.080448
DOCKED: USER    NEWDPF axisangle0 -0.689911 -0.511440 0.512301 -170.771344
DOCKED: USER    NEWDPF quat0 -0.689911 -0.511440 0.512301 -170.771344
DOCKED: USER    NEWDPF dihe0 143.37 -138.31 -171.01 33.45 -42.35 164.10 
DOCKED: USER  keepresnum = 1 
DOCKED: USER  
DOCKED: REMARK  6 active torsions:
DOCKED: REMARK  status: ('A' for Active; 'I' for Inactive)
DOCKED: REMARK    1  A    between atoms: P_1  and  O_3 
DOCKED: REMARK    2  A    between atoms: P_2  and  O_4 
DOCKED: REMARK    3  A    between atoms: O_3  and  C_13 
DOCKED: REMARK    4  A    between atoms: O_4  and  C_14 
DOCKED: REMARK    5  A    between atoms: C_13  and  C_14 
DOCKED: REMARK    6  A    between atoms: C_13  and  C_15 
DOCKED: USER                              x       y       z     vdW  Elec       q    Type
DOCKED: USER                           _______ _______ _______ _____ _____    ______ ____
DOCKED: ROOT
DOCKED: ATOM      1  C   UNL d   1      -6.877 -13.390  -0.223 -0.19 +0.26    +0.193 C 
DOCKED: ENDROOT
DOCKED: BRANCH   1   2
DOCKED: ATOM      2  O   UNL d   1      -5.835 -14.321   0.224 -0.53 -0.79    -0.356 OA
DOCKED: BRANCH   2   3
DOCKED: ATOM      3  P   UNL d   1      -5.797 -15.907  -0.209 -0.15 -0.03    -0.014 P 
DOCKED: ATOM      4  O   UNL d   1      -6.269 -15.917  -1.672 -0.50 -1.27    -0.577 OA
DOCKED: ATOM      5  O   UNL d   1      -6.773 -16.649   0.701 -0.05 -0.75    -0.577 OA
DOCKED: ATOM      6  O   UNL d   1      -4.357 -16.395  -0.083 -0.14 -1.07    -0.638 OA
DOCKED: ENDBRANCH   2   3
DOCKED: ENDBRANCH   1   2
DOCKED: BRANCH   1   7
DOCKED: ATOM      7  C   UNL d   1      -6.239 -12.365  -1.232 -0.21 +0.24    +0.201 C 
DOCKED: BRANCH   7   8
DOCKED: ATOM      8  O   UNL d   1      -4.885 -11.953  -0.941 -0.19 -0.44    -0.364 OA
DOCKED: BRANCH   8   9
DOCKED: ATOM      9  P   UNL d   1      -3.795 -11.756  -2.169 -0.42 -0.02    -0.015 P 
DOCKED: ATOM     10  O   UNL d   1      -4.629 -11.811  -3.455 -0.39 -0.86    -0.577 OA
DOCKED: ATOM     11  O   UNL d   1      -2.807 -12.918  -2.080 -0.42 -1.00    -0.577 OA
DOCKED: ATOM     12  O   UNL d   1      -3.135 -10.392  -1.972 -0.01 -0.41    -0.638 OA
DOCKED: ENDBRANCH   8   9
DOCKED: ENDBRANCH   7   8
DOCKED: ENDBRANCH   1   7
DOCKED: BRANCH   1  13
DOCKED: ATOM     13  C   UNL d   1      -7.453 -12.594   1.007 -0.18 +0.09    +0.073 C 
DOCKED: ATOM     14  O   UNL d   1      -8.575 -11.990   0.873 -0.40 -0.44    -0.547 OA
DOCKED: ATOM     15  O   UNL d   1      -6.786 -12.652   2.102 -0.64 -1.01    -0.547 OA
DOCKED: ENDBRANCH   1  13
DOCKED: TORSDOF 6
DOCKED: TER
DOCKED: ENDMDL
________________________________________________________________________________


	BEGINNING GENETIC ALGORITHM DOCKING 44 of 100
Run: 44 Seed: 2025815571 2056884809 [ Run 44 of 100 GA/GALS ]
Beginning LAMARCKIAN GENETIC ALGORITHM (LGA), with a maximum of 25000000 energy evaluations.

Final-Value: -10.188


	FINAL GENETIC ALGORITHM DOCKED STATE
	_______________________________________________


Detailed state:  trans -5.994 -13.089 0.191 quatxyzw -0.159509 -0.431778 -0.884581 0.075100 center 0.015 0.083 0.031 ntor 6 90.7985 -26.2070 147.7441 178.2741 75.9034 -23.1922
State:	 -5.994 -13.089   0.191  -0.160 -0.433 -0.887 171.386     90.80  -26.21  147.74  178.27   75.90  -23.19

DOCKED: MODEL       44
DOCKED: USER    Run = 44
DOCKED: USER    DPF = D:/Protein_go_brrr/autodock/final/AncA/2_3_BPG/dock.dpf
DOCKED: USER  
DOCKED: USER    Estimated Free Energy of Binding    =  -10.81 kcal/mol  [=(1)+(2)+(3)-(4)]
DOCKED: USER    Estimated Inhibition Constant, Ki   =   11.85 nM (nanomolar)  [Temperature = 298.15 K]
DOCKED: USER    
DOCKED: USER    (1) Final Intermolecular Energy     =  -12.60 kcal/mol
DOCKED: USER        vdW + Hbond + desolv Energy     =   -4.23 kcal/mol
DOCKED: USER        Electrostatic Energy            =   -8.37 kcal/mol
DOCKED: USER    (2) Final Total Internal Energy     =   +2.42 kcal/mol
DOCKED: USER    (3) Torsional Free Energy           =   +1.79 kcal/mol
DOCKED: USER    (4) Unbound System's Energy  [=(2)] =   +2.42 kcal/mol
DOCKED: USER    
DOCKED: USER    
DOCKED: USER    NEWDPF move 2_3_BPG_opt.pdbqt
DOCKED: USER    NEWDPF about 0.015000 0.083000 0.031000
DOCKED: USER    NEWDPF tran0 -5.994339 -13.088980 0.191425
DOCKED: USER    NEWDPF quaternion0 -0.159509 -0.431778 -0.884581 0.075100
DOCKED: USER    NEWDPF axisangle0 -0.159960 -0.433001 -0.887087 171.386019
DOCKED: USER    NEWDPF quat0 -0.159960 -0.433001 -0.887087 171.386019
DOCKED: USER    NEWDPF dihe0 90.80 -26.21 147.74 178.27 75.90 -23.19 
DOCKED: USER  keepresnum = 1 
DOCKED: USER  
DOCKED: REMARK  6 active torsions:
DOCKED: REMARK  status: ('A' for Active; 'I' for Inactive)
DOCKED: REMARK    1  A    between atoms: P_1  and  O_3 
DOCKED: REMARK    2  A    between atoms: P_2  and  O_4 
DOCKED: REMARK    3  A    between atoms: O_3  and  C_13 
DOCKED: REMARK    4  A    between atoms: O_4  and  C_14 
DOCKED: REMARK    5  A    between atoms: C_13  and  C_14 
DOCKED: REMARK    6  A    between atoms: C_13  and  C_15 
DOCKED: USER                              x       y       z     vdW  Elec       q    Type
DOCKED: USER                           _______ _______ _______ _____ _____    ______ ____
DOCKED: ROOT
DOCKED: ATOM      1  C   UNL d   1      -5.414 -12.987  -0.128 -0.13 +0.32    +0.193 C 
DOCKED: ENDROOT
DOCKED: BRANCH   1   2
DOCKED: ATOM      2  O   UNL d   1      -4.649 -14.238  -0.098 -0.45 -0.79    -0.356 OA
DOCKED: BRANCH   2   3
DOCKED: ATOM      3  P   UNL d   1      -5.304 -15.706  -0.444 -0.11 -0.03    -0.014 P 
DOCKED: ATOM      4  O   UNL d   1      -4.141 -16.515  -1.038 -0.04 -1.03    -0.577 OA
DOCKED: ATOM      5  O   UNL d   1      -6.411 -15.477  -1.471 -0.57 -1.22    -0.577 OA
DOCKED: ATOM      6  O   UNL d   1      -5.803 -16.318   0.861 -0.32 -1.25    -0.638 OA
DOCKED: ENDBRANCH   2   3
DOCKED: ENDBRANCH   1   2
DOCKED: BRANCH   1   7
DOCKED: ATOM      7  C   UNL d   1      -6.883 -13.281   0.352 -0.19 +0.29    +0.201 C 
DOCKED: BRANCH   7   8
DOCKED: ATOM      8  O   UNL d   1      -7.448 -12.325   1.275 -0.65 -0.46    -0.364 OA
DOCKED: BRANCH   8   9
DOCKED: ATOM      9  P   UNL d   1      -7.503 -12.665   2.893 -0.40 -0.02    -0.015 P 
DOCKED: ATOM     10  O   UNL d   1      -7.628 -14.191   2.976 -0.13 -1.03    -0.577 OA
DOCKED: ATOM     11  O   UNL d   1      -8.736 -11.959   3.456 -0.04 -0.38    -0.577 OA
DOCKED: ATOM     12  O   UNL d   1      -6.195 -12.163   3.504 -0.52 -1.12    -0.638 OA
DOCKED: ENDBRANCH   8   9
DOCKED: ENDBRANCH   7   8
DOCKED: ENDBRANCH   1   7
DOCKED: BRANCH   1  13
DOCKED: ATOM     13  C   UNL d   1      -5.468 -12.422  -1.597 -0.26 +0.11    +0.073 C 
DOCKED: ATOM     14  O   UNL d   1      -6.535 -11.829  -1.985 -0.06 -0.55    -0.547 OA
DOCKED: ATOM     15  O   UNL d   1      -4.402 -12.536  -2.304 -0.35 -1.20    -0.547 OA
DOCKED: ENDBRANCH   1  13
DOCKED: TORSDOF 6
DOCKED: TER
DOCKED: ENDMDL
________________________________________________________________________________


	BEGINNING GENETIC ALGORITHM DOCKING 45 of 100
Run: 45 Seed: 100689232 1816036364 [ Run 45 of 100 GA/GALS ]
Beginning LAMARCKIAN GENETIC ALGORITHM (LGA), with a maximum of 25000000 energy evaluations.

Final-Value: -9.841


	FINAL GENETIC ALGORITHM DOCKED STATE
	_______________________________________________


Detailed state:  trans -6.652 -13.588 0.306 quatxyzw 0.367387 0.575802 0.729633 -0.033389 center 0.015 0.083 0.031 ntor 6 139.5782 -62.3635 -171.6839 -3.3213 33.0582 -47.9715
State:	 -6.652 -13.588   0.306   0.368  0.576  0.730 -176.173    139.58  -62.36 -171.68   -3.32   33.06  -47.97

DOCKED: MODEL       45
DOCKED: USER    Run = 45
DOCKED: USER    DPF = D:/Protein_go_brrr/autodock/final/AncA/2_3_BPG/dock.dpf
DOCKED: USER  
DOCKED: USER    Estimated Free Energy of Binding    =  -10.16 kcal/mol  [=(1)+(2)+(3)-(4)]
DOCKED: USER    Estimated Inhibition Constant, Ki   =   35.92 nM (nanomolar)  [Temperature = 298.15 K]
DOCKED: USER    
DOCKED: USER    (1) Final Intermolecular Energy     =  -11.95 kcal/mol
DOCKED: USER        vdW + Hbond + desolv Energy     =   -3.78 kcal/mol
DOCKED: USER        Electrostatic Energy            =   -8.17 kcal/mol
DOCKED: USER    (2) Final Total Internal Energy     =   +2.10 kcal/mol
DOCKED: USER    (3) Torsional Free Energy           =   +1.79 kcal/mol
DOCKED: USER    (4) Unbound System's Energy  [=(2)] =   +2.10 kcal/mol
DOCKED: USER    
DOCKED: USER    
DOCKED: USER    NEWDPF move 2_3_BPG_opt.pdbqt
DOCKED: USER    NEWDPF about 0.015000 0.083000 0.031000
DOCKED: USER    NEWDPF tran0 -6.651745 -13.587537 0.305687
DOCKED: USER    NEWDPF quaternion0 0.367387 0.575802 0.729633 -0.033389
DOCKED: USER    NEWDPF axisangle0 0.367592 0.576124 0.730040 -176.173208
DOCKED: USER    NEWDPF quat0 0.367592 0.576124 0.730040 -176.173208
DOCKED: USER    NEWDPF dihe0 139.58 -62.36 -171.68 -3.32 33.06 -47.97 
DOCKED: USER  keepresnum = 1 
DOCKED: USER  
DOCKED: REMARK  6 active torsions:
DOCKED: REMARK  status: ('A' for Active; 'I' for Inactive)
DOCKED: REMARK    1  A    between atoms: P_1  and  O_3 
DOCKED: REMARK    2  A    between atoms: P_2  and  O_4 
DOCKED: REMARK    3  A    between atoms: O_3  and  C_13 
DOCKED: REMARK    4  A    between atoms: O_4  and  C_14 
DOCKED: REMARK    5  A    between atoms: C_13  and  C_14 
DOCKED: REMARK    6  A    between atoms: C_13  and  C_15 
DOCKED: USER                              x       y       z     vdW  Elec       q    Type
DOCKED: USER                           _______ _______ _______ _____ _____    ______ ____
DOCKED: ROOT
DOCKED: ATOM      1  C   UNL d   1      -6.289 -13.684  -0.250 -0.19 +0.32    +0.193 C 
DOCKED: ENDROOT
DOCKED: BRANCH   1   2
DOCKED: ATOM      2  O   UNL d   1      -5.595 -14.971  -0.125 -0.69 -0.77    -0.356 OA
DOCKED: BRANCH   2   3
DOCKED: ATOM      3  P   UNL d   1      -4.014 -15.186  -0.521 -0.11 -0.03    -0.014 P 
DOCKED: ATOM      4  O   UNL d   1      -3.322 -15.491   0.817 +0.06 -1.11    -0.577 OA
DOCKED: ATOM      5  O   UNL d   1      -3.516 -13.874  -1.125 -0.09 -1.19    -0.577 OA
DOCKED: ATOM      6  O   UNL d   1      -3.925 -16.369  -1.480 +0.02 -1.35    -0.638 OA
DOCKED: ENDBRANCH   2   3
DOCKED: ENDBRANCH   1   2
DOCKED: BRANCH   1   7
DOCKED: ATOM      7  C   UNL d   1      -7.361 -13.575   0.896 -0.16 +0.28    +0.201 C 
DOCKED: BRANCH   7   8
DOCKED: ATOM      8  O   UNL d   1      -7.096 -12.588   1.917 -0.86 -0.57    -0.364 OA
DOCKED: BRANCH   8   9
DOCKED: ATOM      9  P   UNL d   1      -7.501 -12.893   3.492 -0.30 -0.02    -0.015 P 
DOCKED: ATOM     10  O   UNL d   1      -7.872 -14.380   3.527 -0.16 -0.83    -0.577 OA
DOCKED: ATOM     11  O   UNL d   1      -8.695 -11.999   3.825 -0.07 -0.36    -0.577 OA
DOCKED: ATOM     12  O   UNL d   1      -6.269 -12.588   4.342 -0.56 -1.08    -0.638 OA
DOCKED: ENDBRANCH   8   9
DOCKED: ENDBRANCH   7   8
DOCKED: ENDBRANCH   1   7
DOCKED: BRANCH   1  13
DOCKED: ATOM     13  C   UNL d   1      -7.024 -13.599  -1.639 -0.20 +0.10    +0.073 C 
DOCKED: ATOM     14  O   UNL d   1      -7.463 -12.461  -2.030 -0.05 -0.52    -0.547 OA
DOCKED: ATOM     15  O   UNL d   1      -7.085 -14.678  -2.332 -0.41 -1.04    -0.547 OA
DOCKED: ENDBRANCH   1  13
DOCKED: TORSDOF 6
DOCKED: TER
DOCKED: ENDMDL
________________________________________________________________________________


	BEGINNING GENETIC ALGORITHM DOCKING 46 of 100
Run: 46 Seed: 1890039557 2054698933 [ Run 46 of 100 GA/GALS ]
Beginning LAMARCKIAN GENETIC ALGORITHM (LGA), with a maximum of 25000000 energy evaluations.

Final-Value: -10.177


	FINAL GENETIC ALGORITHM DOCKED STATE
	_______________________________________________


Detailed state:  trans -6.577 -12.885 -0.731 quatxyzw 0.633512 0.567559 -0.522724 0.057433 center 0.015 0.083 0.031 ntor 6 142.9078 -35.3575 59.8620 29.8875 -56.4266 179.0916
State:	 -6.577 -12.885  -0.731   0.635  0.568 -0.524 173.415    142.91  -35.36   59.86   29.89  -56.43  179.09

DOCKED: MODEL       46
DOCKED: USER    Run = 46
DOCKED: USER    DPF = D:/Protein_go_brrr/autodock/final/AncA/2_3_BPG/dock.dpf
DOCKED: USER  
DOCKED: USER    Estimated Free Energy of Binding    =  -10.84 kcal/mol  [=(1)+(2)+(3)-(4)]
DOCKED: USER    Estimated Inhibition Constant, Ki   =   11.24 nM (nanomolar)  [Temperature = 298.15 K]
DOCKED: USER    
DOCKED: USER    (1) Final Intermolecular Energy     =  -12.63 kcal/mol
DOCKED: USER        vdW + Hbond + desolv Energy     =   -4.37 kcal/mol
DOCKED: USER        Electrostatic Energy            =   -8.26 kcal/mol
DOCKED: USER    (2) Final Total Internal Energy     =   +2.46 kcal/mol
DOCKED: USER    (3) Torsional Free Energy           =   +1.79 kcal/mol
DOCKED: USER    (4) Unbound System's Energy  [=(2)] =   +2.46 kcal/mol
DOCKED: USER    
DOCKED: USER    
DOCKED: USER    NEWDPF move 2_3_BPG_opt.pdbqt
DOCKED: USER    NEWDPF about 0.015000 0.083000 0.031000
DOCKED: USER    NEWDPF tran0 -6.577026 -12.884666 -0.730869
DOCKED: USER    NEWDPF quaternion0 0.633512 0.567559 -0.522724 0.057433
DOCKED: USER    NEWDPF axisangle0 0.634559 0.568498 -0.523589 173.415048
DOCKED: USER    NEWDPF quat0 0.634559 0.568498 -0.523589 173.415048
DOCKED: USER    NEWDPF dihe0 142.91 -35.36 59.86 29.89 -56.43 179.09 
DOCKED: USER  keepresnum = 1 
DOCKED: USER  
DOCKED: REMARK  6 active torsions:
DOCKED: REMARK  status: ('A' for Active; 'I' for Inactive)
DOCKED: REMARK    1  A    between atoms: P_1  and  O_3 
DOCKED: REMARK    2  A    between atoms: P_2  and  O_4 
DOCKED: REMARK    3  A    between atoms: O_3  and  C_13 
DOCKED: REMARK    4  A    between atoms: O_4  and  C_14 
DOCKED: REMARK    5  A    between atoms: C_13  and  C_14 
DOCKED: REMARK    6  A    between atoms: C_13  and  C_15 
DOCKED: USER                              x       y       z     vdW  Elec       q    Type
DOCKED: USER                           _______ _______ _______ _____ _____    ______ ____
DOCKED: ROOT
DOCKED: ATOM      1  C   UNL d   1      -6.739 -13.281  -0.215 -0.20 +0.26    +0.193 C 
DOCKED: ENDROOT
DOCKED: BRANCH   1   2
DOCKED: ATOM      2  O   UNL d   1      -5.545 -14.043   0.168 -0.51 -0.78    -0.356 OA
DOCKED: BRANCH   2   3
DOCKED: ATOM      3  P   UNL d   1      -5.311 -15.619  -0.237 -0.13 -0.03    -0.014 P 
DOCKED: ATOM      4  O   UNL d   1      -3.817 -15.709  -0.585 -0.09 -1.08    -0.577 OA
DOCKED: ATOM      5  O   UNL d   1      -6.189 -15.909  -1.453 -0.53 -1.20    -0.577 OA
DOCKED: ATOM      6  O   UNL d   1      -5.655 -16.474   0.978 -0.25 -1.24    -0.638 OA
DOCKED: ENDBRANCH   2   3
DOCKED: ENDBRANCH   1   2
DOCKED: BRANCH   1   7
DOCKED: ATOM      7  C   UNL d   1      -6.313 -12.147  -1.219 -0.18 +0.22    +0.201 C 
DOCKED: BRANCH   7   8
DOCKED: ATOM      8  O   UNL d   1      -4.921 -11.764  -1.185 -0.19 -0.42    -0.364 OA
DOCKED: BRANCH   8   9
DOCKED: ATOM      9  P   UNL d   1      -4.026 -11.764  -2.577 -0.37 -0.02    -0.015 P 
DOCKED: ATOM     10  O   UNL d   1      -2.918 -12.797  -2.339 -0.50 -1.06    -0.577 OA
DOCKED: ATOM     11  O   UNL d   1      -3.464 -10.352  -2.745 -0.05 -0.39    -0.577 OA
DOCKED: ATOM     12  O   UNL d   1      -4.961 -12.175  -3.714 -0.10 -1.14    -0.638 OA
DOCKED: ENDBRANCH   8   9
DOCKED: ENDBRANCH   7   8
DOCKED: ENDBRANCH   1   7
DOCKED: BRANCH   1  13
DOCKED: ATOM     13  C   UNL d   1      -7.383 -12.613   1.057 -0.18 +0.09    +0.073 C 
DOCKED: ATOM     14  O   UNL d   1      -8.588 -12.186   0.978 -0.45 -0.45    -0.547 OA
DOCKED: ATOM     15  O   UNL d   1      -6.674 -12.594   2.127 -0.65 -1.03    -0.547 OA
DOCKED: ENDBRANCH   1  13
DOCKED: TORSDOF 6
DOCKED: TER
DOCKED: ENDMDL
________________________________________________________________________________


	BEGINNING GENETIC ALGORITHM DOCKING 47 of 100
Run: 47 Seed: 225365969 163690966 [ Run 47 of 100 GA/GALS ]
Beginning LAMARCKIAN GENETIC ALGORITHM (LGA), with a maximum of 25000000 energy evaluations.

Final-Value: -10.104


	FINAL GENETIC ALGORITHM DOCKED STATE
	_______________________________________________


Detailed state:  trans -5.881 -13.133 0.171 quatxyzw 0.214991 0.452245 0.865320 0.021765 center 0.015 0.083 0.031 ntor 6 76.3353 -25.2561 140.5018 -179.7944 59.1232 -10.2312
State:	 -5.881 -13.133   0.171   0.215  0.452  0.866 177.506     76.34  -25.26  140.50 -179.79   59.12  -10.23

DOCKED: MODEL       47
DOCKED: USER    Run = 47
DOCKED: USER    DPF = D:/Protein_go_brrr/autodock/final/AncA/2_3_BPG/dock.dpf
DOCKED: USER  
DOCKED: USER    Estimated Free Energy of Binding    =  -10.62 kcal/mol  [=(1)+(2)+(3)-(4)]
DOCKED: USER    Estimated Inhibition Constant, Ki   =   16.43 nM (nanomolar)  [Temperature = 298.15 K]
DOCKED: USER    
DOCKED: USER    (1) Final Intermolecular Energy     =  -12.41 kcal/mol
DOCKED: USER        vdW + Hbond + desolv Energy     =   -4.16 kcal/mol
DOCKED: USER        Electrostatic Energy            =   -8.25 kcal/mol
DOCKED: USER    (2) Final Total Internal Energy     =   +2.31 kcal/mol
DOCKED: USER    (3) Torsional Free Energy           =   +1.79 kcal/mol
DOCKED: USER    (4) Unbound System's Energy  [=(2)] =   +2.31 kcal/mol
DOCKED: USER    
DOCKED: USER    
DOCKED: USER    NEWDPF move 2_3_BPG_opt.pdbqt
DOCKED: USER    NEWDPF about 0.015000 0.083000 0.031000
DOCKED: USER    NEWDPF tran0 -5.880553 -13.132941 0.171192
DOCKED: USER    NEWDPF quaternion0 0.214991 0.452245 0.865320 0.021765
DOCKED: USER    NEWDPF axisangle0 0.215042 0.452352 0.865525 177.505726
DOCKED: USER    NEWDPF quat0 0.215042 0.452352 0.865525 177.505726
DOCKED: USER    NEWDPF dihe0 76.34 -25.26 140.50 -179.79 59.12 -10.23 
DOCKED: USER  keepresnum = 1 
DOCKED: USER  
DOCKED: REMARK  6 active torsions:
DOCKED: REMARK  status: ('A' for Active; 'I' for Inactive)
DOCKED: REMARK    1  A    between atoms: P_1  and  O_3 
DOCKED: REMARK    2  A    between atoms: P_2  and  O_4 
DOCKED: REMARK    3  A    between atoms: O_3  and  C_13 
DOCKED: REMARK    4  A    between atoms: O_4  and  C_14 
DOCKED: REMARK    5  A    between atoms: C_13  and  C_14 
DOCKED: REMARK    6  A    between atoms: C_13  and  C_15 
DOCKED: USER                              x       y       z     vdW  Elec       q    Type
DOCKED: USER                           _______ _______ _______ _____ _____    ______ ____
DOCKED: ROOT
DOCKED: ATOM      1  C   UNL d   1      -5.389 -12.967  -0.253 -0.19 +0.31    +0.193 C 
DOCKED: ENDROOT
DOCKED: BRANCH   1   2
DOCKED: ATOM      2  O   UNL d   1      -4.478 -14.112  -0.368 -0.33 -0.75    -0.356 OA
DOCKED: BRANCH   2   3
DOCKED: ATOM      3  P   UNL d   1      -4.993 -15.652  -0.626 -0.06 -0.03    -0.014 P 
DOCKED: ATOM      4  O   UNL d   1      -3.839 -16.318  -1.393 -0.01 -1.19    -0.577 OA
DOCKED: ATOM      5  O   UNL d   1      -6.259 -15.570  -1.476 -0.55 -1.28    -0.577 OA
DOCKED: ATOM      6  O   UNL d   1      -5.214 -16.309   0.733 -0.33 -1.31    -0.638 OA
DOCKED: ENDBRANCH   2   3
DOCKED: ENDBRANCH   1   2
DOCKED: BRANCH   1   7
DOCKED: ATOM      7  C   UNL d   1      -6.691 -13.431   0.499 -0.17 +0.32    +0.201 C 
DOCKED: BRANCH   7   8
DOCKED: ATOM      8  O   UNL d   1      -7.353 -12.422   1.293 -0.66 -0.48    -0.364 OA
DOCKED: BRANCH   8   9
DOCKED: ATOM      9  P   UNL d   1      -7.502 -12.619   2.929 -0.43 -0.02    -0.015 P 
DOCKED: ATOM     10  O   UNL d   1      -7.759 -14.117   3.128 -0.19 -0.94    -0.577 OA
DOCKED: ATOM     11  O   UNL d   1      -8.693 -11.771   3.373 -0.03 -0.37    -0.577 OA
DOCKED: ATOM     12  O   UNL d   1      -6.183 -12.174   3.558 -0.52 -1.11    -0.638 OA
DOCKED: ENDBRANCH   8   9
DOCKED: ENDBRANCH   7   8
DOCKED: ENDBRANCH   1   7
DOCKED: BRANCH   1  13
DOCKED: ATOM     13  C   UNL d   1      -5.791 -12.451  -1.685 -0.27 +0.11    +0.073 C 
DOCKED: ATOM     14  O   UNL d   1      -7.032 -12.273  -1.945 -0.06 -0.55    -0.547 OA
DOCKED: ATOM     15  O   UNL d   1      -4.833 -12.178  -2.496 -0.37 -0.95    -0.547 OA
DOCKED: ENDBRANCH   1  13
DOCKED: TORSDOF 6
DOCKED: TER
DOCKED: ENDMDL
________________________________________________________________________________


	BEGINNING GENETIC ALGORITHM DOCKING 48 of 100
Run: 48 Seed: 721529327 1081551042 [ Run 48 of 100 GA/GALS ]
Beginning LAMARCKIAN GENETIC ALGORITHM (LGA), with a maximum of 25000000 energy evaluations.

Final-Value: -10.433


	FINAL GENETIC ALGORITHM DOCKED STATE
	_______________________________________________


Detailed state:  trans -7.802 -13.267 1.229 quatxyzw 0.552423 0.192863 -0.480080 -0.653572 center 0.015 0.083 0.031 ntor 6 131.8309 170.6474 -176.4371 55.1609 -6.1418 -42.6760
State:	 -7.802 -13.267   1.229   0.730  0.255 -0.634 -98.377    131.83  170.65 -176.44   55.16   -6.14  -42.68

DOCKED: MODEL       48
DOCKED: USER    Run = 48
DOCKED: USER    DPF = D:/Protein_go_brrr/autodock/final/AncA/2_3_BPG/dock.dpf
DOCKED: USER  
DOCKED: USER    Estimated Free Energy of Binding    =  -10.69 kcal/mol  [=(1)+(2)+(3)-(4)]
DOCKED: USER    Estimated Inhibition Constant, Ki   =   14.48 nM (nanomolar)  [Temperature = 298.15 K]
DOCKED: USER    
DOCKED: USER    (1) Final Intermolecular Energy     =  -12.48 kcal/mol
DOCKED: USER        vdW + Hbond + desolv Energy     =   -5.00 kcal/mol
DOCKED: USER        Electrostatic Energy            =   -7.48 kcal/mol
DOCKED: USER    (2) Final Total Internal Energy     =   +2.05 kcal/mol
DOCKED: USER    (3) Torsional Free Energy           =   +1.79 kcal/mol
DOCKED: USER    (4) Unbound System's Energy  [=(2)] =   +2.05 kcal/mol
DOCKED: USER    
DOCKED: USER    
DOCKED: USER    NEWDPF move 2_3_BPG_opt.pdbqt
DOCKED: USER    NEWDPF about 0.015000 0.083000 0.031000
DOCKED: USER    NEWDPF tran0 -7.802066 -13.267318 1.228727
DOCKED: USER    NEWDPF quaternion0 0.552423 0.192863 -0.480080 -0.653572
DOCKED: USER    NEWDPF axisangle0 0.729884 0.254818 -0.634301 -98.377139
DOCKED: USER    NEWDPF quat0 0.729884 0.254818 -0.634301 -98.377139
DOCKED: USER    NEWDPF dihe0 131.83 170.65 -176.44 55.16 -6.14 -42.68 
DOCKED: USER  keepresnum = 1 
DOCKED: USER  
DOCKED: REMARK  6 active torsions:
DOCKED: REMARK  status: ('A' for Active; 'I' for Inactive)
DOCKED: REMARK    1  A    between atoms: P_1  and  O_3 
DOCKED: REMARK    2  A    between atoms: P_2  and  O_4 
DOCKED: REMARK    3  A    between atoms: O_3  and  C_13 
DOCKED: REMARK    4  A    between atoms: O_4  and  C_14 
DOCKED: REMARK    5  A    between atoms: C_13  and  C_14 
DOCKED: REMARK    6  A    between atoms: C_13  and  C_15 
DOCKED: USER                              x       y       z     vdW  Elec       q    Type
DOCKED: USER                           _______ _______ _______ _____ _____    ______ ____
DOCKED: ROOT
DOCKED: ATOM      1  C   UNL d   1      -8.363 -13.087   1.549 -0.24 +0.19    +0.193 C 
DOCKED: ENDROOT
DOCKED: BRANCH   1   2
DOCKED: ATOM      2  O   UNL d   1      -8.001 -12.125   2.596 -0.81 -0.37    -0.356 OA
DOCKED: BRANCH   2   3
DOCKED: ATOM      3  P   UNL d   1      -7.315 -12.562   4.026 -0.50 -0.02    -0.014 P 
DOCKED: ATOM      4  O   UNL d   1      -7.499 -14.087   4.088 -0.32 -0.92    -0.577 OA
DOCKED: ATOM      5  O   UNL d   1      -8.092 -11.856   5.135 -0.18 -0.28    -0.577 OA
DOCKED: ATOM      6  O   UNL d   1      -5.840 -12.178   3.978 -0.38 -1.05    -0.638 OA
DOCKED: ENDBRANCH   2   3
DOCKED: ENDBRANCH   1   2
DOCKED: BRANCH   1   7
DOCKED: ATOM      7  C   UNL d   1      -7.121 -13.298   0.607 -0.19 +0.28    +0.201 C 
DOCKED: BRANCH   7   8
DOCKED: ATOM      8  O   UNL d   1      -6.569 -14.633   0.581 -0.40 -0.73    -0.364 OA
DOCKED: BRANCH   8   9
DOCKED: ATOM      9  P   UNL d   1      -5.310 -14.991  -0.432 -0.05 -0.03    -0.015 P 
DOCKED: ATOM     10  O   UNL d   1      -4.911 -13.651  -1.061 -0.09 -1.25    -0.577 OA
DOCKED: ATOM     11  O   UNL d   1      -5.842 -15.975  -1.473 -0.41 -1.33    -0.577 OA
DOCKED: ATOM     12  O   UNL d   1      -4.192 -15.577   0.429 -0.31 -1.42    -0.638 OA
DOCKED: ENDBRANCH   8   9
DOCKED: ENDBRANCH   7   8
DOCKED: ENDBRANCH   1   7
DOCKED: BRANCH   1  13
DOCKED: ATOM     13  C   UNL d   1      -9.557 -12.526   0.691 -0.30 +0.05    +0.073 C 
DOCKED: ATOM     14  O   UNL d   1     -10.076 -13.282  -0.203 -0.37 -0.33    -0.547 OA
DOCKED: ATOM     15  O   UNL d   1      -9.986 -11.352   0.986 -0.46 -0.28    -0.547 OA
DOCKED: ENDBRANCH   1  13
DOCKED: TORSDOF 6
DOCKED: TER
DOCKED: ENDMDL
________________________________________________________________________________


	BEGINNING GENETIC ALGORITHM DOCKING 49 of 100
Run: 49 Seed: 867824726 21587962 [ Run 49 of 100 GA/GALS ]
Beginning LAMARCKIAN GENETIC ALGORITHM (LGA), with a maximum of 25000000 energy evaluations.

Final-Value: -9.957


	FINAL GENETIC ALGORITHM DOCKED STATE
	_______________________________________________


Detailed state:  trans -6.543 -13.296 -0.123 quatxyzw 0.406716 0.691947 0.584993 -0.116515 center 0.015 0.083 0.031 ntor 6 126.9823 -34.2596 -140.0892 -7.5162 26.8456 -99.3788
State:	 -6.543 -13.296  -0.123   0.410  0.697  0.589 -166.618    126.98  -34.26 -140.09   -7.52   26.85  -99.38

DOCKED: MODEL       49
DOCKED: USER    Run = 49
DOCKED: USER    DPF = D:/Protein_go_brrr/autodock/final/AncA/2_3_BPG/dock.dpf
DOCKED: USER  
DOCKED: USER    Estimated Free Energy of Binding    =  -10.41 kcal/mol  [=(1)+(2)+(3)-(4)]
DOCKED: USER    Estimated Inhibition Constant, Ki   =   23.30 nM (nanomolar)  [Temperature = 298.15 K]
DOCKED: USER    
DOCKED: USER    (1) Final Intermolecular Energy     =  -12.20 kcal/mol
DOCKED: USER        vdW + Hbond + desolv Energy     =   -4.06 kcal/mol
DOCKED: USER        Electrostatic Energy            =   -8.14 kcal/mol
DOCKED: USER    (2) Final Total Internal Energy     =   +2.25 kcal/mol
DOCKED: USER    (3) Torsional Free Energy           =   +1.79 kcal/mol
DOCKED: USER    (4) Unbound System's Energy  [=(2)] =   +2.25 kcal/mol
DOCKED: USER    
DOCKED: USER    
DOCKED: USER    NEWDPF move 2_3_BPG_opt.pdbqt
DOCKED: USER    NEWDPF about 0.015000 0.083000 0.031000
DOCKED: USER    NEWDPF tran0 -6.543320 -13.296417 -0.123014
DOCKED: USER    NEWDPF quaternion0 0.406716 0.691947 0.584993 -0.116515
DOCKED: USER    NEWDPF axisangle0 0.409505 0.696692 0.589004 -166.617931
DOCKED: USER    NEWDPF quat0 0.409505 0.696692 0.589004 -166.617931
DOCKED: USER    NEWDPF dihe0 126.98 -34.26 -140.09 -7.52 26.85 -99.38 
DOCKED: USER  keepresnum = 1 
DOCKED: USER  
DOCKED: REMARK  6 active torsions:
DOCKED: REMARK  status: ('A' for Active; 'I' for Inactive)
DOCKED: REMARK    1  A    between atoms: P_1  and  O_3 
DOCKED: REMARK    2  A    between atoms: P_2  and  O_4 
DOCKED: REMARK    3  A    between atoms: O_3  and  C_13 
DOCKED: REMARK    4  A    between atoms: O_4  and  C_14 
DOCKED: REMARK    5  A    between atoms: C_13  and  C_14 
DOCKED: REMARK    6  A    between atoms: C_13  and  C_15 
DOCKED: USER                              x       y       z     vdW  Elec       q    Type
DOCKED: USER                           _______ _______ _______ _____ _____    ______ ____
DOCKED: ROOT
DOCKED: ATOM      1  C   UNL d   1      -6.241 -13.635  -0.616 -0.19 +0.31    +0.193 C 
DOCKED: ENDROOT
DOCKED: BRANCH   1   2
DOCKED: ATOM      2  O   UNL d   1      -5.636 -14.841  -0.040 -0.67 -0.78    -0.356 OA
DOCKED: BRANCH   2   3
DOCKED: ATOM      3  P   UNL d   1      -4.158 -15.410  -0.482 -0.12 -0.03    -0.014 P 
DOCKED: ATOM      4  O   UNL d   1      -3.533 -15.913   0.828 -0.09 -1.08    -0.577 OA
DOCKED: ATOM      5  O   UNL d   1      -3.376 -14.233  -1.063 -0.06 -1.17    -0.577 OA
DOCKED: ATOM      6  O   UNL d   1      -4.369 -16.548  -1.475 +0.01 -1.33    -0.638 OA
DOCKED: ENDBRANCH   2   3
DOCKED: ENDBRANCH   1   2
DOCKED: BRANCH   1   7
DOCKED: ATOM      7  C   UNL d   1      -7.192 -12.985   0.455 -0.20 +0.25    +0.201 C 
DOCKED: BRANCH   7   8
DOCKED: ATOM      8  O   UNL d   1      -6.566 -12.580   1.692 -0.63 -0.65    -0.364 OA
DOCKED: BRANCH   8   9
DOCKED: ATOM      9  P   UNL d   1      -7.429 -12.591   3.103 -0.38 -0.02    -0.015 P 
DOCKED: ATOM     10  O   UNL d   1      -8.240 -13.893   3.063 -0.11 -0.69    -0.577 OA
DOCKED: ATOM     11  O   UNL d   1      -8.331 -11.357   3.084 -0.31 -0.42    -0.577 OA
DOCKED: ATOM     12  O   UNL d   1      -6.420 -12.578   4.250 -0.60 -1.07    -0.638 OA
DOCKED: ENDBRANCH   8   9
DOCKED: ENDBRANCH   7   8
DOCKED: ENDBRANCH   1   7
DOCKED: BRANCH   1  13
DOCKED: ATOM     13  C   UNL d   1      -7.093 -14.013  -1.885 -0.14 +0.11    +0.073 C 
DOCKED: ATOM     14  O   UNL d   1      -7.685 -13.074  -2.525 -0.06 -0.57    -0.547 OA
DOCKED: ATOM     15  O   UNL d   1      -7.092 -15.246  -2.242 -0.51 -1.02    -0.547 OA
DOCKED: ENDBRANCH   1  13
DOCKED: TORSDOF 6
DOCKED: TER
DOCKED: ENDMDL
________________________________________________________________________________


	BEGINNING GENETIC ALGORITHM DOCKING 50 of 100
Run: 50 Seed: 2085649824 1987525146 [ Run 50 of 100 GA/GALS ]
Beginning LAMARCKIAN GENETIC ALGORITHM (LGA), with a maximum of 25000000 energy evaluations.

Final-Value: -9.954


	FINAL GENETIC ALGORITHM DOCKED STATE
	_______________________________________________


Detailed state:  trans -6.841 -13.403 0.432 quatxyzw -0.355073 -0.534326 -0.758842 0.112153 center 0.015 0.083 0.031 ntor 6 140.7990 -54.1647 -169.6633 -18.3060 55.8085 -43.5319
State:	 -6.841 -13.403   0.432  -0.357 -0.538 -0.764 167.121    140.80  -54.16 -169.66  -18.31   55.81  -43.53

DOCKED: MODEL       50
DOCKED: USER    Run = 50
DOCKED: USER    DPF = D:/Protein_go_brrr/autodock/final/AncA/2_3_BPG/dock.dpf
DOCKED: USER  
DOCKED: USER    Estimated Free Energy of Binding    =  -10.43 kcal/mol  [=(1)+(2)+(3)-(4)]
DOCKED: USER    Estimated Inhibition Constant, Ki   =   22.53 nM (nanomolar)  [Temperature = 298.15 K]
DOCKED: USER    
DOCKED: USER    (1) Final Intermolecular Energy     =  -12.22 kcal/mol
DOCKED: USER        vdW + Hbond + desolv Energy     =   -4.01 kcal/mol
DOCKED: USER        Electrostatic Energy            =   -8.21 kcal/mol
DOCKED: USER    (2) Final Total Internal Energy     =   +2.27 kcal/mol
DOCKED: USER    (3) Torsional Free Energy           =   +1.79 kcal/mol
DOCKED: USER    (4) Unbound System's Energy  [=(2)] =   +2.27 kcal/mol
DOCKED: USER    
DOCKED: USER    
DOCKED: USER    NEWDPF move 2_3_BPG_opt.pdbqt
DOCKED: USER    NEWDPF about 0.015000 0.083000 0.031000
DOCKED: USER    NEWDPF tran0 -6.841326 -13.402783 0.431896
DOCKED: USER    NEWDPF quaternion0 -0.355073 -0.534326 -0.758842 0.112153
DOCKED: USER    NEWDPF axisangle0 -0.357327 -0.537719 -0.763660 167.121136
DOCKED: USER    NEWDPF quat0 -0.357327 -0.537719 -0.763660 167.121136
DOCKED: USER    NEWDPF dihe0 140.80 -54.16 -169.66 -18.31 55.81 -43.53 
DOCKED: USER  keepresnum = 1 
DOCKED: USER  
DOCKED: REMARK  6 active torsions:
DOCKED: REMARK  status: ('A' for Active; 'I' for Inactive)
DOCKED: REMARK    1  A    between atoms: P_1  and  O_3 
DOCKED: REMARK    2  A    between atoms: P_2  and  O_4 
DOCKED: REMARK    3  A    between atoms: O_3  and  C_13 
DOCKED: REMARK    4  A    between atoms: O_4  and  C_14 
DOCKED: REMARK    5  A    between atoms: C_13  and  C_14 
DOCKED: REMARK    6  A    between atoms: C_13  and  C_15 
DOCKED: USER                              x       y       z     vdW  Elec       q    Type
DOCKED: USER                           _______ _______ _______ _____ _____    ______ ____
DOCKED: ROOT
DOCKED: ATOM      1  C   UNL d   1      -6.422 -13.531  -0.075 -0.19 +0.30    +0.193 C 
DOCKED: ENDROOT
DOCKED: BRANCH   1   2
DOCKED: ATOM      2  O   UNL d   1      -5.920 -14.901   0.082 -0.63 -0.76    -0.356 OA
DOCKED: BRANCH   2   3
DOCKED: ATOM      3  P   UNL d   1      -4.441 -15.386  -0.449 -0.09 -0.03    -0.014 P 
DOCKED: ATOM      4  O   UNL d   1      -3.734 -15.910   0.811 -0.12 -1.14    -0.577 OA
DOCKED: ATOM      5  O   UNL d   1      -3.738 -14.156  -1.018 -0.05 -1.25    -0.577 OA
DOCKED: ATOM      6  O   UNL d   1      -4.650 -16.495  -1.476 -0.00 -1.38    -0.638 OA
DOCKED: ENDBRANCH   2   3
DOCKED: ENDBRANCH   1   2
DOCKED: BRANCH   1   7
DOCKED: ATOM      7  C   UNL d   1      -7.616 -13.313   0.925 -0.20 +0.25    +0.201 C 
DOCKED: BRANCH   7   8
DOCKED: ATOM      8  O   UNL d   1      -7.404 -12.323   1.956 -0.84 -0.50    -0.364 OA
DOCKED: BRANCH   8   9
DOCKED: ATOM      9  P   UNL d   1      -7.500 -12.752   3.550 -0.41 -0.02    -0.015 P 
DOCKED: ATOM     10  O   UNL d   1      -7.504 -14.285   3.552 -0.18 -1.06    -0.577 OA
DOCKED: ATOM     11  O   UNL d   1      -8.810 -12.177   4.088 -0.09 -0.34    -0.577 OA
DOCKED: ATOM     12  O   UNL d   1      -6.266 -12.181   4.246 -0.59 -0.88    -0.638 OA
DOCKED: ENDBRANCH   8   9
DOCKED: ENDBRANCH   7   8
DOCKED: ENDBRANCH   1   7
DOCKED: BRANCH   1  13
DOCKED: ATOM     13  C   UNL d   1      -6.947 -13.314  -1.543 -0.22 +0.10    +0.073 C 
DOCKED: ATOM     14  O   UNL d   1      -7.159 -12.116  -1.946 -0.05 -0.51    -0.547 OA
DOCKED: ATOM     15  O   UNL d   1      -7.073 -14.359  -2.277 -0.35 -0.99    -0.547 OA
DOCKED: ENDBRANCH   1  13
DOCKED: TORSDOF 6
DOCKED: TER
DOCKED: ENDMDL
________________________________________________________________________________


	BEGINNING GENETIC ALGORITHM DOCKING 51 of 100
Run: 51 Seed: 1245308155 1573714156 [ Run 51 of 100 GA/GALS ]
Beginning LAMARCKIAN GENETIC ALGORITHM (LGA), with a maximum of 25000000 energy evaluations.

Final-Value: -10.379


	FINAL GENETIC ALGORITHM DOCKED STATE
	_______________________________________________


Detailed state:  trans -7.460 -13.138 0.816 quatxyzw -0.472911 -0.385479 0.433842 0.662980 center 0.015 0.083 0.031 ntor 6 178.5794 -175.5557 -23.2463 12.7313 -100.6108 -77.7709
State:	 -7.460 -13.138   0.816  -0.632 -0.515  0.580 96.945    178.58 -175.56  -23.25   12.73 -100.61  -77.77

DOCKED: MODEL       51
DOCKED: USER    Run = 51
DOCKED: USER    DPF = D:/Protein_go_brrr/autodock/final/AncA/2_3_BPG/dock.dpf
DOCKED: USER  
DOCKED: USER    Estimated Free Energy of Binding    =  -10.87 kcal/mol  [=(1)+(2)+(3)-(4)]
DOCKED: USER    Estimated Inhibition Constant, Ki   =   10.83 nM (nanomolar)  [Temperature = 298.15 K]
DOCKED: USER    
DOCKED: USER    (1) Final Intermolecular Energy     =  -12.66 kcal/mol
DOCKED: USER        vdW + Hbond + desolv Energy     =   -5.14 kcal/mol
DOCKED: USER        Electrostatic Energy            =   -7.52 kcal/mol
DOCKED: USER    (2) Final Total Internal Energy     =   +2.28 kcal/mol
DOCKED: USER    (3) Torsional Free Energy           =   +1.79 kcal/mol
DOCKED: USER    (4) Unbound System's Energy  [=(2)] =   +2.28 kcal/mol
DOCKED: USER    
DOCKED: USER    
DOCKED: USER    NEWDPF move 2_3_BPG_opt.pdbqt
DOCKED: USER    NEWDPF about 0.015000 0.083000 0.031000
DOCKED: USER    NEWDPF tran0 -7.459672 -13.138202 0.815876
DOCKED: USER    NEWDPF quaternion0 -0.472911 -0.385479 0.433842 0.662980
DOCKED: USER    NEWDPF axisangle0 -0.631696 -0.514908 0.579509 96.944840
DOCKED: USER    NEWDPF quat0 -0.631696 -0.514908 0.579509 96.944840
DOCKED: USER    NEWDPF dihe0 178.58 -175.56 -23.25 12.73 -100.61 -77.77 
DOCKED: USER  keepresnum = 1 
DOCKED: USER  
DOCKED: REMARK  6 active torsions:
DOCKED: REMARK  status: ('A' for Active; 'I' for Inactive)
DOCKED: REMARK    1  A    between atoms: P_1  and  O_3 
DOCKED: REMARK    2  A    between atoms: P_2  and  O_4 
DOCKED: REMARK    3  A    between atoms: O_3  and  C_13 
DOCKED: REMARK    4  A    between atoms: O_4  and  C_14 
DOCKED: REMARK    5  A    between atoms: C_13  and  C_14 
DOCKED: REMARK    6  A    between atoms: C_13  and  C_15 
DOCKED: USER                              x       y       z     vdW  Elec       q    Type
DOCKED: USER                           _______ _______ _______ _____ _____    ______ ____
DOCKED: ROOT
DOCKED: ATOM      1  C   UNL d   1      -7.935 -13.159   1.288 -0.22 +0.22    +0.193 C 
DOCKED: ENDROOT
DOCKED: BRANCH   1   2
DOCKED: ATOM      2  O   UNL d   1      -7.592 -12.179   2.325 -0.89 -0.44    -0.356 OA
DOCKED: BRANCH   2   3
DOCKED: ATOM      3  P   UNL d   1      -7.320 -12.584   3.896 -0.45 -0.02    -0.014 P 
DOCKED: ATOM      4  O   UNL d   1      -7.501 -14.109   3.935 -0.30 -0.97    -0.577 OA
DOCKED: ATOM      5  O   UNL d   1      -8.378 -11.871   4.736 -0.19 -0.30    -0.577 OA
DOCKED: ATOM      6  O   UNL d   1      -5.892 -12.180   4.246 -0.41 -0.94    -0.638 OA
DOCKED: ENDBRANCH   2   3
DOCKED: ENDBRANCH   1   2
DOCKED: BRANCH   1   7
DOCKED: ATOM      7  C   UNL d   1      -7.003 -12.923   0.043 -0.20 +0.25    +0.201 C 
DOCKED: BRANCH   7   8
DOCKED: ATOM      8  O   UNL d   1      -5.684 -13.507   0.123 -0.35 -0.69    -0.364 OA
DOCKED: BRANCH   8   9
DOCKED: ATOM      9  P   UNL d   1      -5.457 -15.102  -0.253 -0.09 -0.03    -0.015 P 
DOCKED: ATOM     10  O   UNL d   1      -3.964 -15.226  -0.580 -0.14 -1.18    -0.577 OA
DOCKED: ATOM     11  O   UNL d   1      -6.335 -15.402  -1.467 -0.55 -1.27    -0.577 OA
DOCKED: ATOM     12  O   UNL d   1      -5.844 -15.916   0.981 -0.22 -1.56    -0.638 OA
DOCKED: ENDBRANCH   8   9
DOCKED: ENDBRANCH   7   8
DOCKED: ENDBRANCH   1   7
DOCKED: BRANCH   1  13
DOCKED: ATOM     13  C   UNL d   1      -9.432 -12.970   0.841 -0.28 +0.05    +0.073 C 
DOCKED: ATOM     14  O   UNL d   1     -10.206 -13.991   0.849 -0.29 -0.32    -0.547 OA
DOCKED: ATOM     15  O   UNL d   1      -9.807 -11.777   0.551 -0.56 -0.32    -0.547 OA
DOCKED: ENDBRANCH   1  13
DOCKED: TORSDOF 6
DOCKED: TER
DOCKED: ENDMDL
________________________________________________________________________________


	BEGINNING GENETIC ALGORITHM DOCKING 52 of 100
Run: 52 Seed: 1067676817 919451554 [ Run 52 of 100 GA/GALS ]
Beginning LAMARCKIAN GENETIC ALGORITHM (LGA), with a maximum of 25000000 energy evaluations.

Final-Value: -9.272


	FINAL GENETIC ALGORITHM DOCKED STATE
	_______________________________________________


Detailed state:  trans -5.460 -12.871 -0.410 quatxyzw -0.433759 -0.314355 0.061081 0.842201 center 0.015 0.083 0.031 ntor 6 -6.2058 45.9550 65.8967 -1.5490 -60.9637 -36.5665
State:	 -5.460 -12.871  -0.410  -0.805 -0.583  0.113 65.253     -6.21   45.95   65.90   -1.55  -60.96  -36.57

DOCKED: MODEL       52
DOCKED: USER    Run = 52
DOCKED: USER    DPF = D:/Protein_go_brrr/autodock/final/AncA/2_3_BPG/dock.dpf
DOCKED: USER  
DOCKED: USER    Estimated Free Energy of Binding    =   -9.53 kcal/mol  [=(1)+(2)+(3)-(4)]
DOCKED: USER    Estimated Inhibition Constant, Ki   =  103.48 nM (nanomolar)  [Temperature = 298.15 K]
DOCKED: USER    
DOCKED: USER    (1) Final Intermolecular Energy     =  -11.32 kcal/mol
DOCKED: USER        vdW + Hbond + desolv Energy     =   -3.76 kcal/mol
DOCKED: USER        Electrostatic Energy            =   -7.56 kcal/mol
DOCKED: USER    (2) Final Total Internal Energy     =   +2.05 kcal/mol
DOCKED: USER    (3) Torsional Free Energy           =   +1.79 kcal/mol
DOCKED: USER    (4) Unbound System's Energy  [=(2)] =   +2.05 kcal/mol
DOCKED: USER    
DOCKED: USER    
DOCKED: USER    NEWDPF move 2_3_BPG_opt.pdbqt
DOCKED: USER    NEWDPF about 0.015000 0.083000 0.031000
DOCKED: USER    NEWDPF tran0 -5.459543 -12.871012 -0.410358
DOCKED: USER    NEWDPF quaternion0 -0.433759 -0.314355 0.061081 0.842201
DOCKED: USER    NEWDPF axisangle0 -0.804504 -0.583043 0.113288 65.253437
DOCKED: USER    NEWDPF quat0 -0.804504 -0.583043 0.113288 65.253437
DOCKED: USER    NEWDPF dihe0 -6.21 45.95 65.90 -1.55 -60.96 -36.57 
DOCKED: USER  keepresnum = 1 
DOCKED: USER  
DOCKED: REMARK  6 active torsions:
DOCKED: REMARK  status: ('A' for Active; 'I' for Inactive)
DOCKED: REMARK    1  A    between atoms: P_1  and  O_3 
DOCKED: REMARK    2  A    between atoms: P_2  and  O_4 
DOCKED: REMARK    3  A    between atoms: O_3  and  C_13 
DOCKED: REMARK    4  A    between atoms: O_4  and  C_14 
DOCKED: REMARK    5  A    between atoms: C_13  and  C_14 
DOCKED: REMARK    6  A    between atoms: C_13  and  C_15 
DOCKED: USER                              x       y       z     vdW  Elec       q    Type
DOCKED: USER                           _______ _______ _______ _____ _____    ______ ____
DOCKED: ROOT
DOCKED: ATOM      1  C   UNL d   1      -5.998 -13.234  -0.245 -0.21 +0.31    +0.193 C 
DOCKED: ENDROOT
DOCKED: BRANCH   1   2
DOCKED: ATOM      2  O   UNL d   1      -6.840 -12.426   0.645 -0.40 -0.46    -0.356 OA
DOCKED: BRANCH   2   3
DOCKED: ATOM      3  P   UNL d   1      -7.500 -13.006   2.035 -0.32 -0.02    -0.014 P 
DOCKED: ATOM      4  O   UNL d   1      -8.929 -12.442   2.044 -0.25 -0.44    -0.577 OA
DOCKED: ATOM      5  O   UNL d   1      -6.671 -12.456   3.193 -0.70 -1.09    -0.577 OA
DOCKED: ATOM      6  O   UNL d   1      -7.500 -14.529   1.957 +0.02 -1.12    -0.638 OA
DOCKED: ENDBRANCH   2   3
DOCKED: ENDBRANCH   1   2
DOCKED: BRANCH   1   7
DOCKED: ATOM      7  C   UNL d   1      -4.891 -12.309  -0.871 -0.25 +0.27    +0.201 C 
DOCKED: BRANCH   7   8
DOCKED: ATOM      8  O   UNL d   1      -3.524 -12.718  -0.644 -0.16 -0.51    -0.364 OA
DOCKED: BRANCH   8   9
DOCKED: ATOM      9  P   UNL d   1      -2.521 -13.008  -1.927 -0.25 -0.02    -0.015 P 
DOCKED: ATOM     10  O   UNL d   1      -2.262 -14.519  -1.897 -0.03 -1.03    -0.577 OA
DOCKED: ATOM     11  O   UNL d   1      -1.243 -12.205  -1.684 -0.03 -0.44    -0.577 OA
DOCKED: ATOM     12  O   UNL d   1      -3.267 -12.578  -3.189 -0.40 -1.39    -0.638 OA
DOCKED: ENDBRANCH   8   9
DOCKED: ENDBRANCH   7   8
DOCKED: ENDBRANCH   1   7
DOCKED: BRANCH   1  13
DOCKED: ATOM     13  C   UNL d   1      -6.869 -13.838  -1.410 -0.17 +0.11    +0.073 C 
DOCKED: ATOM     14  O   UNL d   1      -7.670 -13.061  -2.040 -0.05 -0.56    -0.547 OA
DOCKED: ATOM     15  O   UNL d   1      -6.674 -15.072  -1.703 -0.56 -1.15    -0.547 OA
DOCKED: ENDBRANCH   1  13
DOCKED: TORSDOF 6
DOCKED: TER
DOCKED: ENDMDL
________________________________________________________________________________


	BEGINNING GENETIC ALGORITHM DOCKING 53 of 100
Run: 53 Seed: 476908690 317064634 [ Run 53 of 100 GA/GALS ]
Beginning LAMARCKIAN GENETIC ALGORITHM (LGA), with a maximum of 25000000 energy evaluations.

Final-Value: -10.108


	FINAL GENETIC ALGORITHM DOCKED STATE
	_______________________________________________


Detailed state:  trans -6.784 -12.905 -0.146 quatxyzw 0.049187 0.765310 -0.007923 0.641731 center 0.015 0.083 0.031 ntor 6 63.1187 -17.3572 -27.9544 -164.4544 -37.2469 -11.6323
State:	 -6.784 -12.905  -0.146   0.064  0.998 -0.010 100.158     63.12  -17.36  -27.95 -164.45  -37.25  -11.63

DOCKED: MODEL       53
DOCKED: USER    Run = 53
DOCKED: USER    DPF = D:/Protein_go_brrr/autodock/final/AncA/2_3_BPG/dock.dpf
DOCKED: USER  
DOCKED: USER    Estimated Free Energy of Binding    =  -10.86 kcal/mol  [=(1)+(2)+(3)-(4)]
DOCKED: USER    Estimated Inhibition Constant, Ki   =   10.94 nM (nanomolar)  [Temperature = 298.15 K]
DOCKED: USER    
DOCKED: USER    (1) Final Intermolecular Energy     =  -12.65 kcal/mol
DOCKED: USER        vdW + Hbond + desolv Energy     =   -4.71 kcal/mol
DOCKED: USER        Electrostatic Energy            =   -7.94 kcal/mol
DOCKED: USER    (2) Final Total Internal Energy     =   +2.54 kcal/mol
DOCKED: USER    (3) Torsional Free Energy           =   +1.79 kcal/mol
DOCKED: USER    (4) Unbound System's Energy  [=(2)] =   +2.54 kcal/mol
DOCKED: USER    
DOCKED: USER    
DOCKED: USER    NEWDPF move 2_3_BPG_opt.pdbqt
DOCKED: USER    NEWDPF about 0.015000 0.083000 0.031000
DOCKED: USER    NEWDPF tran0 -6.783832 -12.905465 -0.146422
DOCKED: USER    NEWDPF quaternion0 0.049187 0.765310 -0.007923 0.641731
DOCKED: USER    NEWDPF axisangle0 0.064134 0.997888 -0.010330 100.158017
DOCKED: USER    NEWDPF quat0 0.064134 0.997888 -0.010330 100.158017
DOCKED: USER    NEWDPF dihe0 63.12 -17.36 -27.95 -164.45 -37.25 -11.63 
DOCKED: USER  keepresnum = 1 
DOCKED: USER  
DOCKED: REMARK  6 active torsions:
DOCKED: REMARK  status: ('A' for Active; 'I' for Inactive)
DOCKED: REMARK    1  A    between atoms: P_1  and  O_3 
DOCKED: REMARK    2  A    between atoms: P_2  and  O_4 
DOCKED: REMARK    3  A    between atoms: O_3  and  C_13 
DOCKED: REMARK    4  A    between atoms: O_4  and  C_14 
DOCKED: REMARK    5  A    between atoms: C_13  and  C_14 
DOCKED: REMARK    6  A    between atoms: C_13  and  C_15 
DOCKED: USER                              x       y       z     vdW  Elec       q    Type
DOCKED: USER                           _______ _______ _______ _____ _____    ______ ____
DOCKED: ROOT
DOCKED: ATOM      1  C   UNL d   1      -6.795 -13.261  -0.714 -0.20 +0.25    +0.193 C 
DOCKED: ENDROOT
DOCKED: BRANCH   1   2
DOCKED: ATOM      2  O   UNL d   1      -5.931 -12.590  -1.692 -0.16 -0.53    -0.356 OA
DOCKED: BRANCH   2   3
DOCKED: ATOM      3  P   UNL d   1      -4.311 -12.396  -1.482 -0.29 -0.02    -0.014 P 
DOCKED: ATOM      4  O   UNL d   1      -3.765 -12.174  -2.901 -0.60 -1.05    -0.577 OA
DOCKED: ATOM      5  O   UNL d   1      -3.777 -13.689  -0.870 -0.12 -1.13    -0.577 OA
DOCKED: ATOM      6  O   UNL d   1      -4.094 -11.171  -0.601 -0.04 -0.56    -0.638 OA
DOCKED: ENDBRANCH   2   3
DOCKED: ENDBRANCH   1   2
DOCKED: BRANCH   1   7
DOCKED: ATOM      7  C   UNL d   1      -6.556 -12.614   0.699 -0.15 +0.29    +0.201 C 
DOCKED: BRANCH   7   8
DOCKED: ATOM      8  O   UNL d   1      -7.702 -12.580   1.579 -0.77 -0.44    -0.364 OA
DOCKED: BRANCH   8   9
DOCKED: ATOM      9  P   UNL d   1      -7.500 -12.752   3.212 -0.36 -0.02    -0.015 P 
DOCKED: ATOM     10  O   UNL d   1      -8.704 -12.039   3.840 -0.08 -0.36    -0.577 OA
DOCKED: ATOM     11  O   UNL d   1      -6.181 -12.071   3.572 -0.55 -0.94    -0.577 OA
DOCKED: ATOM     12  O   UNL d   1      -7.501 -14.251   3.510 -0.16 -1.19    -0.638 OA
DOCKED: ENDBRANCH   8   9
DOCKED: ENDBRANCH   7   8
DOCKED: ENDBRANCH   1   7
DOCKED: BRANCH   1  13
DOCKED: ATOM     13  C   UNL d   1      -6.434 -14.791  -0.636 -0.16 +0.13    +0.073 C 
DOCKED: ATOM     14  O   UNL d   1      -5.986 -15.258   0.470 -0.47 -1.27    -0.547 OA
DOCKED: ATOM     15  O   UNL d   1      -6.672 -15.500  -1.680 -0.60 -1.10    -0.547 OA
DOCKED: ENDBRANCH   1  13
DOCKED: TORSDOF 6
DOCKED: TER
DOCKED: ENDMDL
________________________________________________________________________________


	BEGINNING GENETIC ALGORITHM DOCKING 54 of 100
Run: 54 Seed: 1545099578 173829083 [ Run 54 of 100 GA/GALS ]
Beginning LAMARCKIAN GENETIC ALGORITHM (LGA), with a maximum of 25000000 energy evaluations.

Final-Value: -10.071


	FINAL GENETIC ALGORITHM DOCKED STATE
	_______________________________________________


Detailed state:  trans -6.340 -12.635 -0.714 quatxyzw -0.659690 -0.596768 0.448676 -0.085828 center 0.015 0.083 0.031 ntor 6 -32.7715 -31.5909 61.9443 15.7055 -66.3362 -167.7831
State:	 -6.340 -12.635  -0.714  -0.662 -0.599  0.450 -170.153    -32.77  -31.59   61.94   15.71  -66.34 -167.78

DOCKED: MODEL       54
DOCKED: USER    Run = 54
DOCKED: USER    DPF = D:/Protein_go_brrr/autodock/final/AncA/2_3_BPG/dock.dpf
DOCKED: USER  
DOCKED: USER    Estimated Free Energy of Binding    =  -10.75 kcal/mol  [=(1)+(2)+(3)-(4)]
DOCKED: USER    Estimated Inhibition Constant, Ki   =   13.20 nM (nanomolar)  [Temperature = 298.15 K]
DOCKED: USER    
DOCKED: USER    (1) Final Intermolecular Energy     =  -12.54 kcal/mol
DOCKED: USER        vdW + Hbond + desolv Energy     =   -4.27 kcal/mol
DOCKED: USER        Electrostatic Energy            =   -8.27 kcal/mol
DOCKED: USER    (2) Final Total Internal Energy     =   +2.47 kcal/mol
DOCKED: USER    (3) Torsional Free Energy           =   +1.79 kcal/mol
DOCKED: USER    (4) Unbound System's Energy  [=(2)] =   +2.47 kcal/mol
DOCKED: USER    
DOCKED: USER    
DOCKED: USER    NEWDPF move 2_3_BPG_opt.pdbqt
DOCKED: USER    NEWDPF about 0.015000 0.083000 0.031000
DOCKED: USER    NEWDPF tran0 -6.339695 -12.634811 -0.713865
DOCKED: USER    NEWDPF quaternion0 -0.659690 -0.596768 0.448676 -0.085828
DOCKED: USER    NEWDPF axisangle0 -0.662133 -0.598978 0.450338 -170.152727
DOCKED: USER    NEWDPF quat0 -0.662133 -0.598978 0.450338 -170.152727
DOCKED: USER    NEWDPF dihe0 -32.77 -31.59 61.94 15.71 -66.34 -167.78 
DOCKED: USER  keepresnum = 1 
DOCKED: USER  
DOCKED: REMARK  6 active torsions:
DOCKED: REMARK  status: ('A' for Active; 'I' for Inactive)
DOCKED: REMARK    1  A    between atoms: P_1  and  O_3 
DOCKED: REMARK    2  A    between atoms: P_2  and  O_4 
DOCKED: REMARK    3  A    between atoms: O_3  and  C_13 
DOCKED: REMARK    4  A    between atoms: O_4  and  C_14 
DOCKED: REMARK    5  A    between atoms: C_13  and  C_14 
DOCKED: REMARK    6  A    between atoms: C_13  and  C_15 
DOCKED: USER                              x       y       z     vdW  Elec       q    Type
DOCKED: USER                           _______ _______ _______ _____ _____    ______ ____
DOCKED: ROOT
DOCKED: ATOM      1  C   UNL d   1      -6.559 -13.095  -0.279 -0.21 +0.26    +0.193 C 
DOCKED: ENDROOT
DOCKED: BRANCH   1   2
DOCKED: ATOM      2  O   UNL d   1      -5.425 -13.949   0.092 -0.48 -0.77    -0.356 OA
DOCKED: BRANCH   2   3
DOCKED: ATOM      3  P   UNL d   1      -5.359 -15.558  -0.242 -0.13 -0.03    -0.014 P 
DOCKED: ATOM      4  O   UNL d   1      -3.877 -15.825  -0.553 -0.10 -1.07    -0.577 OA
DOCKED: ATOM      5  O   UNL d   1      -6.242 -15.803  -1.464 -0.54 -1.21    -0.577 OA
DOCKED: ATOM      6  O   UNL d   1      -5.815 -16.317   1.000 -0.27 -1.30    -0.638 OA
DOCKED: ENDBRANCH   2   3
DOCKED: ENDBRANCH   1   2
DOCKED: BRANCH   1   7
DOCKED: ATOM      7  C   UNL d   1      -6.014 -11.844  -1.061 -0.02 +0.21    +0.201 C 
DOCKED: BRANCH   7   8
DOCKED: ATOM      8  O   UNL d   1      -4.577 -11.693  -1.086 -0.20 -0.40    -0.364 OA
DOCKED: BRANCH   8   9
DOCKED: ATOM      9  P   UNL d   1      -3.760 -11.764  -2.523 -0.39 -0.02    -0.015 P 
DOCKED: ATOM     10  O   UNL d   1      -2.865 -13.004  -2.412 -0.43 -1.16    -0.577 OA
DOCKED: ATOM     11  O   UNL d   1      -2.943 -10.477  -2.636 -0.04 -0.38    -0.577 OA
DOCKED: ATOM     12  O   UNL d   1      -4.805 -11.908  -3.629 -0.24 -0.99    -0.638 OA
DOCKED: ENDBRANCH   8   9
DOCKED: ENDBRANCH   7   8
DOCKED: ENDBRANCH   1   7
DOCKED: BRANCH   1  13
DOCKED: ATOM     13  C   UNL d   1      -7.304 -12.596   1.015 -0.17 +0.09    +0.073 C 
DOCKED: ATOM     14  O   UNL d   1      -6.671 -12.609   2.128 -0.63 -1.04    -0.547 OA
DOCKED: ATOM     15  O   UNL d   1      -8.495 -12.141   0.862 -0.43 -0.45    -0.547 OA
DOCKED: ENDBRANCH   1  13
DOCKED: TORSDOF 6
DOCKED: TER
DOCKED: ENDMDL
________________________________________________________________________________


	BEGINNING GENETIC ALGORITHM DOCKING 55 of 100
Run: 55 Seed: 909420649 1402205454 [ Run 55 of 100 GA/GALS ]
Beginning LAMARCKIAN GENETIC ALGORITHM (LGA), with a maximum of 25000000 energy evaluations.

Final-Value: -10.196


	FINAL GENETIC ALGORITHM DOCKED STATE
	_______________________________________________


Detailed state:  trans -6.046 -12.813 -0.753 quatxyzw 0.728261 0.550347 -0.402254 0.070329 center 0.015 0.083 0.031 ntor 6 155.4319 57.7547 -109.2587 35.8976 32.2527 -66.3389
State:	 -6.046 -12.813  -0.753   0.730  0.552 -0.403 171.934    155.43   57.75 -109.26   35.90   32.25  -66.34

DOCKED: MODEL       55
DOCKED: USER    Run = 55
DOCKED: USER    DPF = D:/Protein_go_brrr/autodock/final/AncA/2_3_BPG/dock.dpf
DOCKED: USER  
DOCKED: USER    Estimated Free Energy of Binding    =  -10.66 kcal/mol  [=(1)+(2)+(3)-(4)]
DOCKED: USER    Estimated Inhibition Constant, Ki   =   15.36 nM (nanomolar)  [Temperature = 298.15 K]
DOCKED: USER    
DOCKED: USER    (1) Final Intermolecular Energy     =  -12.45 kcal/mol
DOCKED: USER        vdW + Hbond + desolv Energy     =   -4.36 kcal/mol
DOCKED: USER        Electrostatic Energy            =   -8.09 kcal/mol
DOCKED: USER    (2) Final Total Internal Energy     =   +2.25 kcal/mol
DOCKED: USER    (3) Torsional Free Energy           =   +1.79 kcal/mol
DOCKED: USER    (4) Unbound System's Energy  [=(2)] =   +2.25 kcal/mol
DOCKED: USER    
DOCKED: USER    
DOCKED: USER    NEWDPF move 2_3_BPG_opt.pdbqt
DOCKED: USER    NEWDPF about 0.015000 0.083000 0.031000
DOCKED: USER    NEWDPF tran0 -6.046372 -12.812537 -0.752558
DOCKED: USER    NEWDPF quaternion0 0.728261 0.550347 -0.402254 0.070329
DOCKED: USER    NEWDPF axisangle0 0.730068 0.551713 -0.403252 171.934289
DOCKED: USER    NEWDPF quat0 0.730068 0.551713 -0.403252 171.934289
DOCKED: USER    NEWDPF dihe0 155.43 57.75 -109.26 35.90 32.25 -66.34 
DOCKED: USER  keepresnum = 1 
DOCKED: USER  
DOCKED: REMARK  6 active torsions:
DOCKED: REMARK  status: ('A' for Active; 'I' for Inactive)
DOCKED: REMARK    1  A    between atoms: P_1  and  O_3 
DOCKED: REMARK    2  A    between atoms: P_2  and  O_4 
DOCKED: REMARK    3  A    between atoms: O_3  and  C_13 
DOCKED: REMARK    4  A    between atoms: O_4  and  C_14 
DOCKED: REMARK    5  A    between atoms: C_13  and  C_14 
DOCKED: REMARK    6  A    between atoms: C_13  and  C_15 
DOCKED: USER                              x       y       z     vdW  Elec       q    Type
DOCKED: USER                           _______ _______ _______ _____ _____    ______ ____
DOCKED: ROOT
DOCKED: ATOM      1  C   UNL d   1      -6.382 -13.227  -0.346 -0.21 +0.28    +0.193 C 
DOCKED: ENDROOT
DOCKED: BRANCH   1   2
DOCKED: ATOM      2  O   UNL d   1      -5.435 -14.216   0.181 -0.55 -0.83    -0.356 OA
DOCKED: BRANCH   2   3
DOCKED: ATOM      3  P   UNL d   1      -5.234 -15.712  -0.473 -0.10 -0.03    -0.014 P 
DOCKED: ATOM      4  O   UNL d   1      -5.431 -16.676   0.707 -0.25 -0.99    -0.577 OA
DOCKED: ATOM      5  O   UNL d   1      -3.810 -15.778  -1.020 -0.02 -1.19    -0.577 OA
DOCKED: ATOM      6  O   UNL d   1      -6.305 -15.907  -1.541 -0.53 -1.32    -0.638 OA
DOCKED: ENDBRANCH   2   3
DOCKED: ENDBRANCH   1   2
DOCKED: BRANCH   1   7
DOCKED: ATOM      7  C   UNL d   1      -5.572 -12.083  -1.060 -0.21 +0.24    +0.201 C 
DOCKED: BRANCH   7   8
DOCKED: ATOM      8  O   UNL d   1      -5.369 -12.246  -2.481 -0.29 -0.60    -0.364 OA
DOCKED: BRANCH   8   9
DOCKED: ATOM      9  P   UNL d   1      -3.959 -11.739  -3.182 -0.32 -0.02    -0.015 P 
DOCKED: ATOM     10  O   UNL d   1      -2.903 -12.758  -2.735 -0.49 -1.13    -0.577 OA
DOCKED: ATOM     11  O   UNL d   1      -3.669 -10.340  -2.638 -0.05 -0.39    -0.577 OA
DOCKED: ATOM     12  O   UNL d   1      -4.173 -11.761  -4.695 -0.12 -0.75    -0.638 OA
DOCKED: ENDBRANCH   8   9
DOCKED: ENDBRANCH   7   8
DOCKED: ENDBRANCH   1   7
DOCKED: BRANCH   1  13
DOCKED: ATOM     13  C   UNL d   1      -7.215 -12.596   0.831 -0.19 +0.09    +0.073 C 
DOCKED: ATOM     14  O   UNL d   1      -8.402 -12.182   0.586 -0.37 -0.45    -0.547 OA
DOCKED: ATOM     15  O   UNL d   1      -6.670 -12.593   1.993 -0.65 -1.01    -0.547 OA
DOCKED: ENDBRANCH   1  13
DOCKED: TORSDOF 6
DOCKED: TER
DOCKED: ENDMDL
________________________________________________________________________________


	BEGINNING GENETIC ALGORITHM DOCKING 56 of 100
Run: 56 Seed: 38878847 693460041 [ Run 56 of 100 GA/GALS ]
Beginning LAMARCKIAN GENETIC ALGORITHM (LGA), with a maximum of 25000000 energy evaluations.

Final-Value: -9.792


	FINAL GENETIC ALGORITHM DOCKED STATE
	_______________________________________________


Detailed state:  trans -6.454 -13.467 -0.187 quatxyzw -0.864061 -0.382137 0.308254 -0.111131 center 0.015 0.083 0.031 ntor 6 178.4781 -80.3425 137.7512 91.0249 -10.2261 -24.7512
State:	 -6.454 -13.467  -0.187  -0.869 -0.385  0.310 -167.239    178.48  -80.34  137.75   91.02  -10.23  -24.75

DOCKED: MODEL       56
DOCKED: USER    Run = 56
DOCKED: USER    DPF = D:/Protein_go_brrr/autodock/final/AncA/2_3_BPG/dock.dpf
DOCKED: USER  
DOCKED: USER    Estimated Free Energy of Binding    =  -10.10 kcal/mol  [=(1)+(2)+(3)-(4)]
DOCKED: USER    Estimated Inhibition Constant, Ki   =   39.78 nM (nanomolar)  [Temperature = 298.15 K]
DOCKED: USER    
DOCKED: USER    (1) Final Intermolecular Energy     =  -11.89 kcal/mol
DOCKED: USER        vdW + Hbond + desolv Energy     =   -4.40 kcal/mol
DOCKED: USER        Electrostatic Energy            =   -7.49 kcal/mol
DOCKED: USER    (2) Final Total Internal Energy     =   +2.09 kcal/mol
DOCKED: USER    (3) Torsional Free Energy           =   +1.79 kcal/mol
DOCKED: USER    (4) Unbound System's Energy  [=(2)] =   +2.09 kcal/mol
DOCKED: USER    
DOCKED: USER    
DOCKED: USER    NEWDPF move 2_3_BPG_opt.pdbqt
DOCKED: USER    NEWDPF about 0.015000 0.083000 0.031000
DOCKED: USER    NEWDPF tran0 -6.454357 -13.466674 -0.187084
DOCKED: USER    NEWDPF quaternion0 -0.864061 -0.382137 0.308254 -0.111131
DOCKED: USER    NEWDPF axisangle0 -0.869446 -0.384518 0.310175 -167.238978
DOCKED: USER    NEWDPF quat0 -0.869446 -0.384518 0.310175 -167.238978
DOCKED: USER    NEWDPF dihe0 178.48 -80.34 137.75 91.02 -10.23 -24.75 
DOCKED: USER  keepresnum = 1 
DOCKED: USER  
DOCKED: REMARK  6 active torsions:
DOCKED: REMARK  status: ('A' for Active; 'I' for Inactive)
DOCKED: REMARK    1  A    between atoms: P_1  and  O_3 
DOCKED: REMARK    2  A    between atoms: P_2  and  O_4 
DOCKED: REMARK    3  A    between atoms: O_3  and  C_13 
DOCKED: REMARK    4  A    between atoms: O_4  and  C_14 
DOCKED: REMARK    5  A    between atoms: C_13  and  C_14 
DOCKED: REMARK    6  A    between atoms: C_13  and  C_15 
DOCKED: USER                              x       y       z     vdW  Elec       q    Type
DOCKED: USER                           _______ _______ _______ _____ _____    ______ ____
DOCKED: ROOT
DOCKED: ATOM      1  C   UNL d   1      -7.000 -13.685   0.136 -0.17 +0.27    +0.193 C 
DOCKED: ENDROOT
DOCKED: BRANCH   1   2
DOCKED: ATOM      2  O   UNL d   1      -6.674 -14.967   0.770 -0.34 -0.72    -0.356 OA
DOCKED: BRANCH   2   3
DOCKED: ATOM      3  P   UNL d   1      -5.782 -16.137   0.034 -0.10 -0.02    -0.014 P 
DOCKED: ATOM      4  O   UNL d   1      -4.351 -15.903   0.541 -0.34 -1.24    -0.577 OA
DOCKED: ATOM      5  O   UNL d   1      -5.890 -15.908  -1.472 -0.43 -1.34    -0.577 OA
DOCKED: ATOM      6  O   UNL d   1      -6.321 -17.492   0.483 +0.00 -0.69    -0.638 OA
DOCKED: ENDBRANCH   2   3
DOCKED: ENDBRANCH   1   2
DOCKED: BRANCH   1   7
DOCKED: ATOM      7  C   UNL d   1      -5.668 -13.021  -0.374 -0.21 +0.32    +0.201 C 
DOCKED: BRANCH   7   8
DOCKED: ATOM      8  O   UNL d   1      -5.710 -12.468  -1.708 -0.18 -0.54    -0.364 OA
DOCKED: BRANCH   8   9
DOCKED: ATOM      9  P   UNL d   1      -4.430 -11.591  -2.284 -0.43 -0.02    -0.015 P 
DOCKED: ATOM     10  O   UNL d   1      -3.969 -10.735  -1.098 -0.07 -0.44    -0.577 OA
DOCKED: ATOM     11  O   UNL d   1      -4.958 -10.735  -3.435 -0.11 -0.47    -0.577 OA
DOCKED: ATOM     12  O   UNL d   1      -3.360 -12.589  -2.722 -0.54 -1.37    -0.638 OA
DOCKED: ENDBRANCH   8   9
DOCKED: ENDBRANCH   7   8
DOCKED: ENDBRANCH   1   7
DOCKED: BRANCH   1  13
DOCKED: ATOM     13  C   UNL d   1      -7.675 -12.721   1.182 -0.23 +0.09    +0.073 C 
DOCKED: ATOM     14  O   UNL d   1      -8.792 -12.174   0.878 -0.38 -0.41    -0.547 OA
DOCKED: ATOM     15  O   UNL d   1      -7.088 -12.591   2.317 -0.87 -0.90    -0.547 OA
DOCKED: ENDBRANCH   1  13
DOCKED: TORSDOF 6
DOCKED: TER
DOCKED: ENDMDL
________________________________________________________________________________


	BEGINNING GENETIC ALGORITHM DOCKING 57 of 100
Run: 57 Seed: 1444439065 1203078116 [ Run 57 of 100 GA/GALS ]
Beginning LAMARCKIAN GENETIC ALGORITHM (LGA), with a maximum of 25000000 energy evaluations.

Final-Value: -9.575


	FINAL GENETIC ALGORITHM DOCKED STATE
	_______________________________________________


Detailed state:  trans -5.725 -12.661 -0.781 quatxyzw 0.003355 0.785695 0.173947 -0.593644 center 0.015 0.083 0.031 ntor 6 64.4738 -10.8926 133.4861 -153.8306 114.5183 10.5161
State:	 -5.725 -12.661  -0.781   0.004  0.976  0.216 -107.168     64.47  -10.89  133.49 -153.83  114.52   10.52

DOCKED: MODEL       57
DOCKED: USER    Run = 57
DOCKED: USER    DPF = D:/Protein_go_brrr/autodock/final/AncA/2_3_BPG/dock.dpf
DOCKED: USER  
DOCKED: USER    Estimated Free Energy of Binding    =  -10.39 kcal/mol  [=(1)+(2)+(3)-(4)]
DOCKED: USER    Estimated Inhibition Constant, Ki   =   24.23 nM (nanomolar)  [Temperature = 298.15 K]
DOCKED: USER    
DOCKED: USER    (1) Final Intermolecular Energy     =  -12.18 kcal/mol
DOCKED: USER        vdW + Hbond + desolv Energy     =   -4.22 kcal/mol
DOCKED: USER        Electrostatic Energy            =   -7.96 kcal/mol
DOCKED: USER    (2) Final Total Internal Energy     =   +2.60 kcal/mol
DOCKED: USER    (3) Torsional Free Energy           =   +1.79 kcal/mol
DOCKED: USER    (4) Unbound System's Energy  [=(2)] =   +2.60 kcal/mol
DOCKED: USER    
DOCKED: USER    
DOCKED: USER    NEWDPF move 2_3_BPG_opt.pdbqt
DOCKED: USER    NEWDPF about 0.015000 0.083000 0.031000
DOCKED: USER    NEWDPF tran0 -5.724878 -12.661398 -0.780616
DOCKED: USER    NEWDPF quaternion0 0.003355 0.785695 0.173947 -0.593644
DOCKED: USER    NEWDPF axisangle0 0.004169 0.976350 0.216157 -107.167880
DOCKED: USER    NEWDPF quat0 0.004169 0.976350 0.216157 -107.167880
DOCKED: USER    NEWDPF dihe0 64.47 -10.89 133.49 -153.83 114.52 10.52 
DOCKED: USER  keepresnum = 1 
DOCKED: USER  
DOCKED: REMARK  6 active torsions:
DOCKED: REMARK  status: ('A' for Active; 'I' for Inactive)
DOCKED: REMARK    1  A    between atoms: P_1  and  O_3 
DOCKED: REMARK    2  A    between atoms: P_2  and  O_4 
DOCKED: REMARK    3  A    between atoms: O_3  and  C_13 
DOCKED: REMARK    4  A    between atoms: O_4  and  C_14 
DOCKED: REMARK    5  A    between atoms: C_13  and  C_14 
DOCKED: REMARK    6  A    between atoms: C_13  and  C_15 
DOCKED: USER                              x       y       z     vdW  Elec       q    Type
DOCKED: USER                           _______ _______ _______ _____ _____    ______ ____
DOCKED: ROOT
DOCKED: ATOM      1  C   UNL d   1      -5.402 -13.054  -0.343 -0.20 +0.32    +0.193 C 
DOCKED: ENDROOT
DOCKED: BRANCH   1   2
DOCKED: ATOM      2  O   UNL d   1      -5.854 -12.699   1.007 -0.10 -0.64    -0.356 OA
DOCKED: BRANCH   2   3
DOCKED: ATOM      3  P   UNL d   1      -7.331 -13.110   1.602 -0.23 -0.02    -0.014 P 
DOCKED: ATOM      4  O   UNL d   1      -7.210 -12.883   3.117 -0.62 -1.03    -0.577 OA
DOCKED: ATOM      5  O   UNL d   1      -7.559 -14.583   1.271 -0.03 -0.87    -0.577 OA
DOCKED: ATOM      6  O   UNL d   1      -8.365 -12.179   0.977 -0.44 -0.56    -0.638 OA
DOCKED: ENDBRANCH   2   3
DOCKED: ENDBRANCH   1   2
DOCKED: BRANCH   1   7
DOCKED: ATOM      7  C   UNL d   1      -6.349 -12.359  -1.390 -0.21 +0.24    +0.201 C 
DOCKED: BRANCH   7   8
DOCKED: ATOM      8  O   UNL d   1      -5.916 -12.417  -2.767 -0.17 -0.59    -0.364 OA
DOCKED: BRANCH   8   9
DOCKED: ATOM      9  P   UNL d   1      -4.497 -11.700  -3.222 -0.32 -0.02    -0.015 P 
DOCKED: ATOM     10  O   UNL d   1      -4.502 -10.331  -2.531 -0.06 -0.40    -0.577 OA
DOCKED: ATOM     11  O   UNL d   1      -4.531 -11.570  -4.745 -0.12 -0.61    -0.577 OA
DOCKED: ATOM     12  O   UNL d   1      -3.360 -12.591  -2.723 -0.54 -1.37    -0.638 OA
DOCKED: ENDBRANCH   8   9
DOCKED: ENDBRANCH   7   8
DOCKED: ENDBRANCH   1   7
DOCKED: BRANCH   1  13
DOCKED: ATOM     13  C   UNL d   1      -5.483 -14.612  -0.547 -0.12 +0.16    +0.073 C 
DOCKED: ATOM     14  O   UNL d   1      -6.260 -15.070  -1.457 -0.51 -1.29    -0.547 OA
DOCKED: ATOM     15  O   UNL d   1      -4.707 -15.336   0.177 -0.55 -1.26    -0.547 OA
DOCKED: ENDBRANCH   1  13
DOCKED: TORSDOF 6
DOCKED: TER
DOCKED: ENDMDL
________________________________________________________________________________


	BEGINNING GENETIC ALGORITHM DOCKING 58 of 100
Run: 58 Seed: 1911589139 1054480135 [ Run 58 of 100 GA/GALS ]
Beginning LAMARCKIAN GENETIC ALGORITHM (LGA), with a maximum of 25000000 energy evaluations.

Final-Value: -10.158


	FINAL GENETIC ALGORITHM DOCKED STATE
	_______________________________________________


Detailed state:  trans -7.339 -13.021 0.841 quatxyzw 0.518071 0.342417 -0.330630 -0.710660 center 0.015 0.083 0.031 ntor 6 149.4163 157.9289 -153.3365 38.2468 -106.0966 -60.9140
State:	 -7.339 -13.021   0.841   0.736  0.487 -0.470 -89.423    149.42  157.93 -153.34   38.25 -106.10  -60.91

DOCKED: MODEL       58
DOCKED: USER    Run = 58
DOCKED: USER    DPF = D:/Protein_go_brrr/autodock/final/AncA/2_3_BPG/dock.dpf
DOCKED: USER  
DOCKED: USER    Estimated Free Energy of Binding    =  -10.66 kcal/mol  [=(1)+(2)+(3)-(4)]
DOCKED: USER    Estimated Inhibition Constant, Ki   =   15.40 nM (nanomolar)  [Temperature = 298.15 K]
DOCKED: USER    
DOCKED: USER    (1) Final Intermolecular Energy     =  -12.45 kcal/mol
DOCKED: USER        vdW + Hbond + desolv Energy     =   -4.85 kcal/mol
DOCKED: USER        Electrostatic Energy            =   -7.60 kcal/mol
DOCKED: USER    (2) Final Total Internal Energy     =   +2.29 kcal/mol
DOCKED: USER    (3) Torsional Free Energy           =   +1.79 kcal/mol
DOCKED: USER    (4) Unbound System's Energy  [=(2)] =   +2.29 kcal/mol
DOCKED: USER    
DOCKED: USER    
DOCKED: USER    NEWDPF move 2_3_BPG_opt.pdbqt
DOCKED: USER    NEWDPF about 0.015000 0.083000 0.031000
DOCKED: USER    NEWDPF tran0 -7.339172 -13.021310 0.841004
DOCKED: USER    NEWDPF quaternion0 0.518071 0.342417 -0.330630 -0.710660
DOCKED: USER    NEWDPF axisangle0 0.736381 0.486708 -0.469955 -89.422710
DOCKED: USER    NEWDPF quat0 0.736381 0.486708 -0.469955 -89.422710
DOCKED: USER    NEWDPF dihe0 149.42 157.93 -153.34 38.25 -106.10 -60.91 
DOCKED: USER  keepresnum = 1 
DOCKED: USER  
DOCKED: REMARK  6 active torsions:
DOCKED: REMARK  status: ('A' for Active; 'I' for Inactive)
DOCKED: REMARK    1  A    between atoms: P_1  and  O_3 
DOCKED: REMARK    2  A    between atoms: P_2  and  O_4 
DOCKED: REMARK    3  A    between atoms: O_3  and  C_13 
DOCKED: REMARK    4  A    between atoms: O_4  and  C_14 
DOCKED: REMARK    5  A    between atoms: C_13  and  C_14 
DOCKED: REMARK    6  A    between atoms: C_13  and  C_15 
DOCKED: USER                              x       y       z     vdW  Elec       q    Type
DOCKED: USER                           _______ _______ _______ _____ _____    ______ ____
DOCKED: ROOT
DOCKED: ATOM      1  C   UNL d   1      -7.904 -13.120   1.189 -0.22 +0.22    +0.193 C 
DOCKED: ENDROOT
DOCKED: BRANCH   1   2
DOCKED: ATOM      2  O   UNL d   1      -7.912 -12.185   2.320 -0.85 -0.39    -0.356 OA
DOCKED: BRANCH   2   3
DOCKED: ATOM      3  P   UNL d   1      -7.364 -12.576   3.820 -0.46 -0.02    -0.014 P 
DOCKED: ATOM      4  O   UNL d   1      -7.533 -14.102   3.903 -0.29 -0.96    -0.577 OA
DOCKED: ATOM      5  O   UNL d   1      -8.255 -11.856   4.830 -0.19 -0.30    -0.577 OA
DOCKED: ATOM      6  O   UNL d   1      -5.896 -12.171   3.906 -0.41 -1.06    -0.638 OA
DOCKED: ENDBRANCH   2   3
DOCKED: ENDBRANCH   1   2
DOCKED: BRANCH   1   7
DOCKED: ATOM      7  C   UNL d   1      -6.746 -12.712   0.205 -0.20 +0.26    +0.201 C 
DOCKED: BRANCH   7   8
DOCKED: ATOM      8  O   UNL d   1      -5.517 -13.460   0.333 -0.27 -0.74    -0.364 OA
DOCKED: BRANCH   8   9
DOCKED: ATOM      9  P   UNL d   1      -5.408 -14.990  -0.288 -0.08 -0.03    -0.015 P 
DOCKED: ATOM     10  O   UNL d   1      -6.380 -15.008  -1.474 -0.51 -1.29    -0.577 OA
DOCKED: ATOM     11  O   UNL d   1      -5.840 -15.952   0.819 -0.33 -1.31    -0.577 OA
DOCKED: ATOM     12  O   UNL d   1      -3.960 -15.196  -0.729 -0.07 -1.35    -0.638 OA
DOCKED: ENDBRANCH   8   9
DOCKED: ENDBRANCH   7   8
DOCKED: ENDBRANCH   1   7
DOCKED: BRANCH   1  13
DOCKED: ATOM     13  C   UNL d   1      -9.273 -13.044   0.416 -0.26 +0.05    +0.073 C 
DOCKED: ATOM     14  O   UNL d   1      -9.634 -14.052  -0.288 -0.05 -0.34    -0.547 OA
DOCKED: ATOM     15  O   UNL d   1      -9.982 -11.989   0.590 -0.64 -0.34    -0.547 OA
DOCKED: ENDBRANCH   1  13
DOCKED: TORSDOF 6
DOCKED: TER
DOCKED: ENDMDL
________________________________________________________________________________


	BEGINNING GENETIC ALGORITHM DOCKING 59 of 100
Run: 59 Seed: 1107642688 1671382599 [ Run 59 of 100 GA/GALS ]
Beginning LAMARCKIAN GENETIC ALGORITHM (LGA), with a maximum of 25000000 energy evaluations.

Final-Value: -10.121


	FINAL GENETIC ALGORITHM DOCKED STATE
	_______________________________________________


Detailed state:  trans -5.388 -12.958 -0.253 quatxyzw 0.057192 0.393916 0.060969 -0.915337 center 0.015 0.083 0.031 ntor 6 31.3752 116.2551 30.9656 -4.0782 -5.0275 7.9605
State:	 -5.388 -12.958  -0.253   0.142  0.978  0.151 -47.493     31.38  116.26   30.97   -4.08   -5.03    7.96

DOCKED: MODEL       59
DOCKED: USER    Run = 59
DOCKED: USER    DPF = D:/Protein_go_brrr/autodock/final/AncA/2_3_BPG/dock.dpf
DOCKED: USER  
DOCKED: USER    Estimated Free Energy of Binding    =  -10.41 kcal/mol  [=(1)+(2)+(3)-(4)]
DOCKED: USER    Estimated Inhibition Constant, Ki   =   23.29 nM (nanomolar)  [Temperature = 298.15 K]
DOCKED: USER    
DOCKED: USER    (1) Final Intermolecular Energy     =  -12.20 kcal/mol
DOCKED: USER        vdW + Hbond + desolv Energy     =   -4.60 kcal/mol
DOCKED: USER        Electrostatic Energy            =   -7.60 kcal/mol
DOCKED: USER    (2) Final Total Internal Energy     =   +2.08 kcal/mol
DOCKED: USER    (3) Torsional Free Energy           =   +1.79 kcal/mol
DOCKED: USER    (4) Unbound System's Energy  [=(2)] =   +2.08 kcal/mol
DOCKED: USER    
DOCKED: USER    
DOCKED: USER    NEWDPF move 2_3_BPG_opt.pdbqt
DOCKED: USER    NEWDPF about 0.015000 0.083000 0.031000
DOCKED: USER    NEWDPF tran0 -5.387614 -12.957989 -0.253118
DOCKED: USER    NEWDPF quaternion0 0.057192 0.393916 0.060969 -0.915337
DOCKED: USER    NEWDPF axisangle0 0.142025 0.978216 0.151404 -47.492640
DOCKED: USER    NEWDPF quat0 0.142025 0.978216 0.151404 -47.492640
DOCKED: USER    NEWDPF dihe0 31.38 116.26 30.97 -4.08 -5.03 7.96 
DOCKED: USER  keepresnum = 1 
DOCKED: USER  
DOCKED: REMARK  6 active torsions:
DOCKED: REMARK  status: ('A' for Active; 'I' for Inactive)
DOCKED: REMARK    1  A    between atoms: P_1  and  O_3 
DOCKED: REMARK    2  A    between atoms: P_2  and  O_4 
DOCKED: REMARK    3  A    between atoms: O_3  and  C_13 
DOCKED: REMARK    4  A    between atoms: O_4  and  C_14 
DOCKED: REMARK    5  A    between atoms: C_13  and  C_14 
DOCKED: REMARK    6  A    between atoms: C_13  and  C_15 
DOCKED: USER                              x       y       z     vdW  Elec       q    Type
DOCKED: USER                           _______ _______ _______ _____ _____    ______ ____
DOCKED: ROOT
DOCKED: ATOM      1  C   UNL d   1      -5.699 -13.363   0.181 -0.08 +0.35    +0.193 C 
DOCKED: ENDROOT
DOCKED: BRANCH   1   2
DOCKED: ATOM      2  O   UNL d   1      -6.937 -12.704   0.614 -0.39 -0.47    -0.356 OA
DOCKED: BRANCH   2   3
DOCKED: ATOM      3  P   UNL d   1      -7.442 -12.669   2.178 -0.27 -0.02    -0.014 P 
DOCKED: ATOM      4  O   UNL d   1      -7.799 -14.130   2.498 -0.09 -0.90    -0.577 OA
DOCKED: ATOM      5  O   UNL d   1      -8.671 -11.765   2.237 -0.50 -0.46    -0.577 OA
DOCKED: ATOM      6  O   UNL d   1      -6.282 -12.176   3.037 -0.55 -1.17    -0.638 OA
DOCKED: ENDBRANCH   2   3
DOCKED: ENDBRANCH   1   2
DOCKED: BRANCH   1   7
DOCKED: ATOM      7  C   UNL d   1      -5.108 -12.572  -1.044 -0.24 +0.30    +0.201 C 
DOCKED: BRANCH   7   8
DOCKED: ATOM      8  O   UNL d   1      -3.754 -12.910  -1.418 -0.42 -0.67    -0.364 OA
DOCKED: BRANCH   8   9
DOCKED: ATOM      9  P   UNL d   1      -3.046 -12.178  -2.721 -0.19 -0.02    -0.015 P 
DOCKED: ATOM     10  O   UNL d   1      -2.120 -13.242  -3.323 -0.25 -0.93    -0.577 OA
DOCKED: ATOM     11  O   UNL d   1      -2.265 -10.977  -2.189 -0.04 -0.41    -0.577 OA
DOCKED: ATOM     12  O   UNL d   1      -4.167 -11.784  -3.682 -0.42 -0.92    -0.638 OA
DOCKED: ENDBRANCH   8   9
DOCKED: ENDBRANCH   7   8
DOCKED: ENDBRANCH   1   7
DOCKED: BRANCH   1  13
DOCKED: ATOM     13  C   UNL d   1      -6.003 -14.840  -0.271 -0.15 +0.14    +0.073 C 
DOCKED: ATOM     14  O   UNL d   1      -6.391 -15.042  -1.475 -0.53 -1.22    -0.547 OA
DOCKED: ATOM     15  O   UNL d   1      -5.781 -15.769   0.586 -0.48 -1.22    -0.547 OA
DOCKED: ENDBRANCH   1  13
DOCKED: TORSDOF 6
DOCKED: TER
DOCKED: ENDMDL
________________________________________________________________________________


	BEGINNING GENETIC ALGORITHM DOCKING 60 of 100
Run: 60 Seed: 257534714 2016891313 [ Run 60 of 100 GA/GALS ]
Beginning LAMARCKIAN GENETIC ALGORITHM (LGA), with a maximum of 25000000 energy evaluations.

Final-Value: -9.508


	FINAL GENETIC ALGORITHM DOCKED STATE
	_______________________________________________


Detailed state:  trans -8.128 -14.587 1.882 quatxyzw -0.648744 -0.078229 0.681207 0.330104 center 0.015 0.083 0.031 ntor 6 149.9769 159.2228 -129.3579 49.2938 -19.0491 134.5867
State:	 -8.128 -14.587   1.882  -0.687 -0.083  0.722 141.450    149.98  159.22 -129.36   49.29  -19.05  134.59

DOCKED: MODEL       60
DOCKED: USER    Run = 60
DOCKED: USER    DPF = D:/Protein_go_brrr/autodock/final/AncA/2_3_BPG/dock.dpf
DOCKED: USER  
DOCKED: USER    Estimated Free Energy of Binding    =   -9.89 kcal/mol  [=(1)+(2)+(3)-(4)]
DOCKED: USER    Estimated Inhibition Constant, Ki   =   56.62 nM (nanomolar)  [Temperature = 298.15 K]
DOCKED: USER    
DOCKED: USER    (1) Final Intermolecular Energy     =  -11.68 kcal/mol
DOCKED: USER        vdW + Hbond + desolv Energy     =   -3.78 kcal/mol
DOCKED: USER        Electrostatic Energy            =   -7.89 kcal/mol
DOCKED: USER    (2) Final Total Internal Energy     =   +2.17 kcal/mol
DOCKED: USER    (3) Torsional Free Energy           =   +1.79 kcal/mol
DOCKED: USER    (4) Unbound System's Energy  [=(2)] =   +2.17 kcal/mol
DOCKED: USER    
DOCKED: USER    
DOCKED: USER    NEWDPF move 2_3_BPG_opt.pdbqt
DOCKED: USER    NEWDPF about 0.015000 0.083000 0.031000
DOCKED: USER    NEWDPF tran0 -8.127823 -14.587367 1.881988
DOCKED: USER    NEWDPF quaternion0 -0.648744 -0.078229 0.681207 0.330104
DOCKED: USER    NEWDPF axisangle0 -0.687269 -0.082874 0.721660 141.449852
DOCKED: USER    NEWDPF quat0 -0.687269 -0.082874 0.721660 141.449852
DOCKED: USER    NEWDPF dihe0 149.98 159.22 -129.36 49.29 -19.05 134.59 
DOCKED: USER  keepresnum = 1 
DOCKED: USER  
DOCKED: REMARK  6 active torsions:
DOCKED: REMARK  status: ('A' for Active; 'I' for Inactive)
DOCKED: REMARK    1  A    between atoms: P_1  and  O_3 
DOCKED: REMARK    2  A    between atoms: P_2  and  O_4 
DOCKED: REMARK    3  A    between atoms: O_3  and  C_13 
DOCKED: REMARK    4  A    between atoms: O_4  and  C_14 
DOCKED: REMARK    5  A    between atoms: C_13  and  C_14 
DOCKED: REMARK    6  A    between atoms: C_13  and  C_15 
DOCKED: USER                              x       y       z     vdW  Elec       q    Type
DOCKED: USER                           _______ _______ _______ _____ _____    ______ ____
DOCKED: ROOT
DOCKED: ATOM      1  C   UNL d   1      -8.412 -14.193   2.343 -0.15 +0.21    +0.193 C 
DOCKED: ENDROOT
DOCKED: BRANCH   1   2
DOCKED: ATOM      2  O   UNL d   1      -7.500 -14.098   3.489 -0.33 -0.66    -0.356 OA
DOCKED: BRANCH   2   3
DOCKED: ATOM      3  P   UNL d   1      -7.426 -15.228   4.680 -0.11 -0.02    -0.014 P 
DOCKED: ATOM      4  O   UNL d   1      -8.810 -15.896   4.661 +0.04 -0.38    -0.577 OA
DOCKED: ATOM      5  O   UNL d   1      -7.178 -14.487   5.992 -0.01 -0.49    -0.577 OA
DOCKED: ATOM      6  O   UNL d   1      -6.322 -16.218   4.323 -0.16 -1.26    -0.638 OA
DOCKED: ENDBRANCH   2   3
DOCKED: ENDBRANCH   1   2
DOCKED: BRANCH   1   7
DOCKED: ATOM      7  C   UNL d   1      -7.648 -14.866   1.144 -0.07 +0.28    +0.201 C 
DOCKED: BRANCH   7   8
DOCKED: ATOM      8  O   UNL d   1      -6.551 -14.107   0.590 -0.34 -0.71    -0.364 OA
DOCKED: BRANCH   8   9
DOCKED: ATOM      9  P   UNL d   1      -5.437 -14.848  -0.384 -0.07 -0.03    -0.015 P 
DOCKED: ATOM     10  O   UNL d   1      -6.262 -15.543  -1.474 -0.55 -1.29    -0.577 OA
DOCKED: ATOM     11  O   UNL d   1      -4.680 -15.850   0.487 -0.40 -1.30    -0.577 OA
DOCKED: ATOM     12  O   UNL d   1      -4.538 -13.752  -0.955 -0.06 -1.39    -0.638 OA
DOCKED: ENDBRANCH   8   9
DOCKED: ENDBRANCH   7   8
DOCKED: ENDBRANCH   1   7
DOCKED: BRANCH   1  13
DOCKED: ATOM     13  C   UNL d   1      -8.877 -12.755   1.902 -0.33 +0.06    +0.073 C 
DOCKED: ATOM     14  O   UNL d   1      -9.980 -12.638   1.263 -0.64 -0.36    -0.547 OA
DOCKED: ATOM     15  O   UNL d   1      -8.144 -11.767   2.271 -0.59 -0.55    -0.547 OA
DOCKED: ENDBRANCH   1  13
DOCKED: TORSDOF 6
DOCKED: TER
DOCKED: ENDMDL
________________________________________________________________________________


	BEGINNING GENETIC ALGORITHM DOCKING 61 of 100
Run: 61 Seed: 572275846 1504328209 [ Run 61 of 100 GA/GALS ]
Beginning LAMARCKIAN GENETIC ALGORITHM (LGA), with a maximum of 25000000 energy evaluations.

Final-Value: -10.078


	FINAL GENETIC ALGORITHM DOCKED STATE
	_______________________________________________


Detailed state:  trans -6.260 -12.847 -0.453 quatxyzw 0.120928 0.949467 0.124651 0.261441 center 0.015 0.083 0.031 ntor 6 -179.9839 68.4266 -50.8816 12.9732 1.6796 113.0542
State:	 -6.260 -12.847  -0.453   0.125  0.984  0.129 149.689   -179.98   68.43  -50.88   12.97    1.68  113.05

DOCKED: MODEL       61
DOCKED: USER    Run = 61
DOCKED: USER    DPF = D:/Protein_go_brrr/autodock/final/AncA/2_3_BPG/dock.dpf
DOCKED: USER  
DOCKED: USER    Estimated Free Energy of Binding    =  -10.44 kcal/mol  [=(1)+(2)+(3)-(4)]
DOCKED: USER    Estimated Inhibition Constant, Ki   =   22.40 nM (nanomolar)  [Temperature = 298.15 K]
DOCKED: USER    
DOCKED: USER    (1) Final Intermolecular Energy     =  -12.23 kcal/mol
DOCKED: USER        vdW + Hbond + desolv Energy     =   -4.47 kcal/mol
DOCKED: USER        Electrostatic Energy            =   -7.75 kcal/mol
DOCKED: USER    (2) Final Total Internal Energy     =   +2.15 kcal/mol
DOCKED: USER    (3) Torsional Free Energy           =   +1.79 kcal/mol
DOCKED: USER    (4) Unbound System's Energy  [=(2)] =   +2.15 kcal/mol
DOCKED: USER    
DOCKED: USER    
DOCKED: USER    NEWDPF move 2_3_BPG_opt.pdbqt
DOCKED: USER    NEWDPF about 0.015000 0.083000 0.031000
DOCKED: USER    NEWDPF tran0 -6.260066 -12.847255 -0.452590
DOCKED: USER    NEWDPF quaternion0 0.120928 0.949467 0.124651 0.261441
DOCKED: USER    NEWDPF axisangle0 0.125286 0.983680 0.129142 149.688891
DOCKED: USER    NEWDPF quat0 0.125286 0.983680 0.129142 149.688891
DOCKED: USER    NEWDPF dihe0 -179.98 68.43 -50.88 12.97 1.68 113.05 
DOCKED: USER  keepresnum = 1 
DOCKED: USER  
DOCKED: REMARK  6 active torsions:
DOCKED: REMARK  status: ('A' for Active; 'I' for Inactive)
DOCKED: REMARK    1  A    between atoms: P_1  and  O_3 
DOCKED: REMARK    2  A    between atoms: P_2  and  O_4 
DOCKED: REMARK    3  A    between atoms: O_3  and  C_13 
DOCKED: REMARK    4  A    between atoms: O_4  and  C_14 
DOCKED: REMARK    5  A    between atoms: C_13  and  C_14 
DOCKED: REMARK    6  A    between atoms: C_13  and  C_15 
DOCKED: USER                              x       y       z     vdW  Elec       q    Type
DOCKED: USER                           _______ _______ _______ _____ _____    ______ ____
DOCKED: ROOT
DOCKED: ATOM      1  C   UNL d   1      -5.907 -13.209  -0.893 -0.21 +0.31    +0.193 C 
DOCKED: ENDROOT
DOCKED: BRANCH   1   2
DOCKED: ATOM      2  O   UNL d   1      -4.496 -12.825  -0.772 -0.21 -0.58    -0.356 OA
DOCKED: BRANCH   2   3
DOCKED: ATOM      3  P   UNL d   1      -3.627 -12.178  -2.010 -0.26 -0.02    -0.014 P 
DOCKED: ATOM      4  O   UNL d   1      -2.539 -13.224  -2.301 -0.35 -1.04    -0.577 OA
DOCKED: ATOM      5  O   UNL d   1      -3.026 -10.868  -1.505 -0.05 -0.43    -0.577 OA
DOCKED: ATOM      6  O   UNL d   1      -4.564 -11.999  -3.200 -0.36 -1.10    -0.638 OA
DOCKED: ENDBRANCH   2   3
DOCKED: ENDBRANCH   1   2
DOCKED: BRANCH   1   7
DOCKED: ATOM      7  C   UNL d   1      -6.703 -12.594   0.317 -0.19 +0.26    +0.201 C 
DOCKED: BRANCH   7   8
DOCKED: ATOM      8  O   UNL d   1      -6.741 -13.395   1.519 -0.08 -0.76    -0.364 OA
DOCKED: BRANCH   8   9
DOCKED: ATOM      9  P   UNL d   1      -7.645 -12.904   2.814 -0.32 -0.02    -0.015 P 
DOCKED: ATOM     10  O   UNL d   1      -8.459 -14.138   3.223 -0.03 -0.61    -0.577 OA
DOCKED: ATOM     11  O   UNL d   1      -8.541 -11.766   2.327 -0.51 -0.48    -0.577 OA
DOCKED: ATOM     12  O   UNL d   1      -6.670 -12.472   3.908 -0.69 -1.05    -0.638 OA
DOCKED: ENDBRANCH   8   9
DOCKED: ENDBRANCH   7   8
DOCKED: ENDBRANCH   1   7
DOCKED: BRANCH   1  13
DOCKED: ATOM     13  C   UNL d   1      -6.045 -14.776  -0.843 +0.01 +0.15    +0.073 C 
DOCKED: ATOM     14  O   UNL d   1      -6.673 -15.365  -1.792 -0.58 -1.16    -0.547 OA
DOCKED: ATOM     15  O   UNL d   1      -5.459 -15.382   0.125 -0.64 -1.22    -0.547 OA
DOCKED: ENDBRANCH   1  13
DOCKED: TORSDOF 6
DOCKED: TER
DOCKED: ENDMDL
________________________________________________________________________________


	BEGINNING GENETIC ALGORITHM DOCKING 62 of 100
Run: 62 Seed: 1406877318 1524826342 [ Run 62 of 100 GA/GALS ]
Beginning LAMARCKIAN GENETIC ALGORITHM (LGA), with a maximum of 25000000 energy evaluations.

Final-Value: -10.442


	FINAL GENETIC ALGORITHM DOCKED STATE
	_______________________________________________


Detailed state:  trans -7.784 -13.212 1.101 quatxyzw 0.571725 0.220074 -0.457087 -0.644802 center 0.015 0.083 0.031 ntor 6 137.8355 -180.0000 -45.4669 48.5221 -17.9815 -54.9108
State:	 -7.784 -13.212   1.101   0.748  0.288 -0.598 -99.698    137.84 -180.00  -45.47   48.52  -17.98  -54.91

DOCKED: MODEL       62
DOCKED: USER    Run = 62
DOCKED: USER    DPF = D:/Protein_go_brrr/autodock/final/AncA/2_3_BPG/dock.dpf
DOCKED: USER  
DOCKED: USER    Estimated Free Energy of Binding    =  -10.68 kcal/mol  [=(1)+(2)+(3)-(4)]
DOCKED: USER    Estimated Inhibition Constant, Ki   =   14.91 nM (nanomolar)  [Temperature = 298.15 K]
DOCKED: USER    
DOCKED: USER    (1) Final Intermolecular Energy     =  -12.47 kcal/mol
DOCKED: USER        vdW + Hbond + desolv Energy     =   -4.88 kcal/mol
DOCKED: USER        Electrostatic Energy            =   -7.58 kcal/mol
DOCKED: USER    (2) Final Total Internal Energy     =   +2.02 kcal/mol
DOCKED: USER    (3) Torsional Free Energy           =   +1.79 kcal/mol
DOCKED: USER    (4) Unbound System's Energy  [=(2)] =   +2.02 kcal/mol
DOCKED: USER    
DOCKED: USER    
DOCKED: USER    NEWDPF move 2_3_BPG_opt.pdbqt
DOCKED: USER    NEWDPF about 0.015000 0.083000 0.031000
DOCKED: USER    NEWDPF tran0 -7.784442 -13.211773 1.100948
DOCKED: USER    NEWDPF quaternion0 0.571725 0.220074 -0.457087 -0.644802
DOCKED: USER    NEWDPF axisangle0 0.747989 0.287923 -0.598007 -99.698405
DOCKED: USER    NEWDPF quat0 0.747989 0.287923 -0.598007 -99.698405
DOCKED: USER    NEWDPF dihe0 137.84 -180.00 -45.47 48.52 -17.98 -54.91 
DOCKED: USER  keepresnum = 1 
DOCKED: USER  
DOCKED: REMARK  6 active torsions:
DOCKED: REMARK  status: ('A' for Active; 'I' for Inactive)
DOCKED: REMARK    1  A    between atoms: P_1  and  O_3 
DOCKED: REMARK    2  A    between atoms: P_2  and  O_4 
DOCKED: REMARK    3  A    between atoms: O_3  and  C_13 
DOCKED: REMARK    4  A    between atoms: O_4  and  C_14 
DOCKED: REMARK    5  A    between atoms: C_13  and  C_14 
DOCKED: REMARK    6  A    between atoms: C_13  and  C_15 
DOCKED: USER                              x       y       z     vdW  Elec       q    Type
DOCKED: USER                           _______ _______ _______ _____ _____    ______ ____
DOCKED: ROOT
DOCKED: ATOM      1  C   UNL d   1      -8.353 -13.079   1.429 -0.24 +0.19    +0.193 C 
DOCKED: ENDROOT
DOCKED: BRANCH   1   2
DOCKED: ATOM      2  O   UNL d   1      -8.038 -12.178   2.544 -0.81 -0.37    -0.356 OA
DOCKED: BRANCH   2   3
DOCKED: ATOM      3  P   UNL d   1      -7.486 -12.703   4.001 -0.52 -0.02    -0.014 P 
DOCKED: ATOM      4  O   UNL d   1      -7.510 -14.235   3.890 -0.25 -0.98    -0.577 OA
DOCKED: ATOM      5  O   UNL d   1      -8.462 -12.201   5.063 -0.17 -0.30    -0.577 OA
DOCKED: ATOM      6  O   UNL d   1      -6.066 -12.177   4.184 -0.50 -0.93    -0.638 OA
DOCKED: ENDBRANCH   2   3
DOCKED: ENDBRANCH   1   2
DOCKED: BRANCH   1   7
DOCKED: ATOM      7  C   UNL d   1      -7.100 -13.169   0.483 -0.20 +0.27    +0.201 C 
DOCKED: BRANCH   7   8
DOCKED: ATOM      8  O   UNL d   1      -6.327 -14.386   0.574 -0.40 -0.80    -0.364 OA
DOCKED: BRANCH   8   9
DOCKED: ATOM      9  P   UNL d   1      -5.227 -14.760  -0.603 -0.03 -0.03    -0.015 P 
DOCKED: ATOM     10  O   UNL d   1      -3.991 -15.263   0.152 -0.35 -1.19    -0.577 OA
DOCKED: ATOM     11  O   UNL d   1      -4.941 -13.471  -1.373 +0.05 -1.33    -0.577 OA
DOCKED: ATOM     12  O   UNL d   1      -5.851 -15.850  -1.474 -0.37 -1.53    -0.638 OA
DOCKED: ENDBRANCH   8   9
DOCKED: ENDBRANCH   7   8
DOCKED: ENDBRANCH   1   7
DOCKED: BRANCH   1  13
DOCKED: ATOM     13  C   UNL d   1      -9.569 -12.512   0.605 -0.30 +0.05    +0.073 C 
DOCKED: ATOM     14  O   UNL d   1     -10.125 -13.272  -0.264 -0.35 -0.32    -0.547 OA
DOCKED: ATOM     15  O   UNL d   1      -9.974 -11.331   0.901 -0.47 -0.28    -0.547 OA
DOCKED: ENDBRANCH   1  13
DOCKED: TORSDOF 6
DOCKED: TER
DOCKED: ENDMDL
________________________________________________________________________________


	BEGINNING GENETIC ALGORITHM DOCKING 63 of 100
Run: 63 Seed: 1718216504 102232385 [ Run 63 of 100 GA/GALS ]
Beginning LAMARCKIAN GENETIC ALGORITHM (LGA), with a maximum of 25000000 energy evaluations.

Final-Value: -10.679


	FINAL GENETIC ALGORITHM DOCKED STATE
	_______________________________________________


Detailed state:  trans -7.668 -13.127 0.824 quatxyzw 0.528510 0.319820 -0.472900 -0.628298 center 0.015 0.083 0.031 ntor 6 -13.8842 -165.1452 -178.4480 20.8580 -65.6577 -94.8088
State:	 -7.668 -13.127   0.824   0.679  0.411 -0.608 -102.151    -13.88 -165.15 -178.45   20.86  -65.66  -94.81

DOCKED: MODEL       63
DOCKED: USER    Run = 63
DOCKED: USER    DPF = D:/Protein_go_brrr/autodock/final/AncA/2_3_BPG/dock.dpf
DOCKED: USER  
DOCKED: USER    Estimated Free Energy of Binding    =  -11.01 kcal/mol  [=(1)+(2)+(3)-(4)]
DOCKED: USER    Estimated Inhibition Constant, Ki   =    8.54 nM (nanomolar)  [Temperature = 298.15 K]
DOCKED: USER    
DOCKED: USER    (1) Final Intermolecular Energy     =  -12.80 kcal/mol
DOCKED: USER        vdW + Hbond + desolv Energy     =   -5.08 kcal/mol
DOCKED: USER        Electrostatic Energy            =   -7.72 kcal/mol
DOCKED: USER    (2) Final Total Internal Energy     =   +2.12 kcal/mol
DOCKED: USER    (3) Torsional Free Energy           =   +1.79 kcal/mol
DOCKED: USER    (4) Unbound System's Energy  [=(2)] =   +2.12 kcal/mol
DOCKED: USER    
DOCKED: USER    
DOCKED: USER    NEWDPF move 2_3_BPG_opt.pdbqt
DOCKED: USER    NEWDPF about 0.015000 0.083000 0.031000
DOCKED: USER    NEWDPF tran0 -7.667721 -13.126970 0.824240
DOCKED: USER    NEWDPF quaternion0 0.528510 0.319820 -0.472900 -0.628298
DOCKED: USER    NEWDPF axisangle0 0.679342 0.411094 -0.607862 -102.150669
DOCKED: USER    NEWDPF quat0 0.679342 0.411094 -0.607862 -102.150669
DOCKED: USER    NEWDPF dihe0 -13.88 -165.15 -178.45 20.86 -65.66 -94.81 
DOCKED: USER  keepresnum = 1 
DOCKED: USER  
DOCKED: REMARK  6 active torsions:
DOCKED: REMARK  status: ('A' for Active; 'I' for Inactive)
DOCKED: REMARK    1  A    between atoms: P_1  and  O_3 
DOCKED: REMARK    2  A    between atoms: P_2  and  O_4 
DOCKED: REMARK    3  A    between atoms: O_3  and  C_13 
DOCKED: REMARK    4  A    between atoms: O_4  and  C_14 
DOCKED: REMARK    5  A    between atoms: C_13  and  C_14 
DOCKED: REMARK    6  A    between atoms: C_13  and  C_15 
DOCKED: USER                              x       y       z     vdW  Elec       q    Type
DOCKED: USER                           _______ _______ _______ _____ _____    ______ ____
DOCKED: ROOT
DOCKED: ATOM      1  C   UNL d   1      -8.172 -13.065   1.262 -0.23 +0.20    +0.193 C 
DOCKED: ENDROOT
DOCKED: BRANCH   1   2
DOCKED: ATOM      2  O   UNL d   1      -7.730 -12.179   2.345 -0.87 -0.42    -0.356 OA
DOCKED: BRANCH   2   3
DOCKED: ATOM      3  P   UNL d   1      -7.468 -12.696   3.884 -0.48 -0.02    -0.014 P 
DOCKED: ATOM      4  O   UNL d   1      -7.514 -14.229   3.786 -0.23 -1.00    -0.577 OA
DOCKED: ATOM      5  O   UNL d   1      -8.608 -12.154   4.744 -0.16 -0.31    -0.577 OA
DOCKED: ATOM      6  O   UNL d   1      -6.092 -12.204   4.319 -0.50 -0.90    -0.638 OA
DOCKED: ENDBRANCH   2   3
DOCKED: ENDBRANCH   1   2
DOCKED: BRANCH   1   7
DOCKED: ATOM      7  C   UNL d   1      -7.124 -12.991   0.091 -0.20 +0.24    +0.201 C 
DOCKED: BRANCH   7   8
DOCKED: ATOM      8  O   UNL d   1      -5.801 -13.487   0.396 -0.30 -0.73    -0.364 OA
DOCKED: BRANCH   8   9
DOCKED: ATOM      9  P   UNL d   1      -5.193 -14.788  -0.424 -0.05 -0.03    -0.015 P 
DOCKED: ATOM     10  O   UNL d   1      -6.257 -15.132  -1.473 -0.51 -1.36    -0.577 OA
DOCKED: ATOM     11  O   UNL d   1      -5.013 -15.913   0.596 -0.43 -1.35    -0.577 OA
DOCKED: ATOM     12  O   UNL d   1      -3.878 -14.345  -1.063 +0.03 -1.46    -0.638 OA
DOCKED: ENDBRANCH   8   9
DOCKED: ENDBRANCH   7   8
DOCKED: ENDBRANCH   1   7
DOCKED: BRANCH   1  13
DOCKED: ATOM     13  C   UNL d   1      -9.571 -12.594   0.716 -0.30 +0.05    +0.073 C 
DOCKED: ATOM     14  O   UNL d   1      -9.789 -11.338   0.594 -0.47 -0.28    -0.547 OA
DOCKED: ATOM     15  O   UNL d   1     -10.397 -13.511   0.363 -0.39 -0.35    -0.547 OA
DOCKED: ENDBRANCH   1  13
DOCKED: TORSDOF 6
DOCKED: TER
DOCKED: ENDMDL
________________________________________________________________________________


	BEGINNING GENETIC ALGORITHM DOCKING 64 of 100
Run: 64 Seed: 1347286361 1426072171 [ Run 64 of 100 GA/GALS ]
Beginning LAMARCKIAN GENETIC ALGORITHM (LGA), with a maximum of 25000000 energy evaluations.

Final-Value: -10.231


	FINAL GENETIC ALGORITHM DOCKED STATE
	_______________________________________________


Detailed state:  trans -7.809 -13.499 1.169 quatxyzw -0.457588 -0.208613 0.470848 0.724843 center 0.015 0.083 0.031 ntor 6 156.7312 167.2152 -45.9058 54.0404 -5.7255 -37.8750
State:	 -7.809 -13.499   1.169  -0.664 -0.303  0.683 87.089    156.73  167.22  -45.91   54.04   -5.73  -37.87

DOCKED: MODEL       64
DOCKED: USER    Run = 64
DOCKED: USER    DPF = D:/Protein_go_brrr/autodock/final/AncA/2_3_BPG/dock.dpf
DOCKED: USER  
DOCKED: USER    Estimated Free Energy of Binding    =  -10.44 kcal/mol  [=(1)+(2)+(3)-(4)]
DOCKED: USER    Estimated Inhibition Constant, Ki   =   22.17 nM (nanomolar)  [Temperature = 298.15 K]
DOCKED: USER    
DOCKED: USER    (1) Final Intermolecular Energy     =  -12.23 kcal/mol
DOCKED: USER        vdW + Hbond + desolv Energy     =   -4.96 kcal/mol
DOCKED: USER        Electrostatic Energy            =   -7.27 kcal/mol
DOCKED: USER    (2) Final Total Internal Energy     =   +2.00 kcal/mol
DOCKED: USER    (3) Torsional Free Energy           =   +1.79 kcal/mol
DOCKED: USER    (4) Unbound System's Energy  [=(2)] =   +2.00 kcal/mol
DOCKED: USER    
DOCKED: USER    
DOCKED: USER    NEWDPF move 2_3_BPG_opt.pdbqt
DOCKED: USER    NEWDPF about 0.015000 0.083000 0.031000
DOCKED: USER    NEWDPF tran0 -7.808998 -13.498865 1.169442
DOCKED: USER    NEWDPF quaternion0 -0.457588 -0.208613 0.470848 0.724843
DOCKED: USER    NEWDPF axisangle0 -0.664215 -0.302814 0.683463 87.088502
DOCKED: USER    NEWDPF quat0 -0.664215 -0.302814 0.683463 87.088502
DOCKED: USER    NEWDPF dihe0 156.73 167.22 -45.91 54.04 -5.73 -37.87 
DOCKED: USER  keepresnum = 1 
DOCKED: USER  
DOCKED: REMARK  6 active torsions:
DOCKED: REMARK  status: ('A' for Active; 'I' for Inactive)
DOCKED: REMARK    1  A    between atoms: P_1  and  O_3 
DOCKED: REMARK    2  A    between atoms: P_2  and  O_4 
DOCKED: REMARK    3  A    between atoms: O_3  and  C_13 
DOCKED: REMARK    4  A    between atoms: O_4  and  C_14 
DOCKED: REMARK    5  A    between atoms: C_13  and  C_14 
DOCKED: REMARK    6  A    between atoms: C_13  and  C_15 
DOCKED: USER                              x       y       z     vdW  Elec       q    Type
DOCKED: USER                           _______ _______ _______ _____ _____    ______ ____
DOCKED: ROOT
DOCKED: ATOM      1  C   UNL d   1      -8.369 -13.334   1.499 -0.22 +0.19    +0.193 C 
DOCKED: ENDROOT
DOCKED: BRANCH   1   2
DOCKED: ATOM      2  O   UNL d   1      -8.082 -12.155   2.324 -0.81 -0.37    -0.356 OA
DOCKED: BRANCH   2   3
DOCKED: ATOM      3  P   UNL d   1      -7.279 -12.229   3.757 -0.58 -0.02    -0.014 P 
DOCKED: ATOM      4  O   UNL d   1      -7.342 -13.712   4.155 -0.41 -0.97    -0.577 OA
DOCKED: ATOM      5  O   UNL d   1      -8.038 -11.349   4.748 -0.17 -0.24    -0.577 OA
DOCKED: ATOM      6  O   UNL d   1      -5.843 -11.774   3.517 -0.31 -0.91    -0.638 OA
DOCKED: ENDBRANCH   2   3
DOCKED: ENDBRANCH   1   2
DOCKED: BRANCH   1   7
DOCKED: ATOM      7  C   UNL d   1      -7.169 -13.559   0.507 -0.17 +0.28    +0.201 C 
DOCKED: BRANCH   7   8
DOCKED: ATOM      8  O   UNL d   1      -6.507 -14.839   0.599 -0.42 -0.75    -0.364 OA
DOCKED: BRANCH   8   9
DOCKED: ATOM      9  P   UNL d   1      -5.275 -15.213  -0.440 -0.06 -0.03    -0.015 P 
DOCKED: ATOM     10  O   UNL d   1      -4.197 -15.862   0.436 -0.33 -1.19    -0.577 OA
DOCKED: ATOM     11  O   UNL d   1      -4.796 -13.898  -1.055 -0.05 -1.33    -0.577 OA
DOCKED: ATOM     12  O   UNL d   1      -5.837 -16.187  -1.475 -0.39 -1.36    -0.638 OA
DOCKED: ENDBRANCH   8   9
DOCKED: ENDBRANCH   7   8
DOCKED: ENDBRANCH   1   7
DOCKED: BRANCH   1  13
DOCKED: ATOM     13  C   UNL d   1      -9.680 -13.100   0.661 -0.18 +0.05    +0.073 C 
DOCKED: ATOM     14  O   UNL d   1     -10.407 -14.113   0.367 -0.25 -0.30    -0.547 OA
DOCKED: ATOM     15  O   UNL d   1      -9.979 -11.885   0.373 -0.59 -0.32    -0.547 OA
DOCKED: ENDBRANCH   1  13
DOCKED: TORSDOF 6
DOCKED: TER
DOCKED: ENDMDL
________________________________________________________________________________


	BEGINNING GENETIC ALGORITHM DOCKING 65 of 100
Run: 65 Seed: 1132133830 1541105803 [ Run 65 of 100 GA/GALS ]
Beginning LAMARCKIAN GENETIC ALGORITHM (LGA), with a maximum of 25000000 energy evaluations.

Final-Value: -10.438


	FINAL GENETIC ALGORITHM DOCKED STATE
	_______________________________________________


Detailed state:  trans -6.390 -13.331 -0.516 quatxyzw -0.072319 -0.983504 -0.082909 -0.143585 center 0.015 0.083 0.031 ntor 6 179.6918 91.9365 -139.2051 8.0563 36.1243 179.2357
State:	 -6.390 -13.331  -0.516  -0.073 -0.994 -0.084 -163.489    179.69   91.94 -139.21    8.06   36.12  179.24

DOCKED: MODEL       65
DOCKED: USER    Run = 65
DOCKED: USER    DPF = D:/Protein_go_brrr/autodock/final/AncA/2_3_BPG/dock.dpf
DOCKED: USER  
DOCKED: USER    Estimated Free Energy of Binding    =  -10.86 kcal/mol  [=(1)+(2)+(3)-(4)]
DOCKED: USER    Estimated Inhibition Constant, Ki   =   11.01 nM (nanomolar)  [Temperature = 298.15 K]
DOCKED: USER    
DOCKED: USER    (1) Final Intermolecular Energy     =  -12.65 kcal/mol
DOCKED: USER        vdW + Hbond + desolv Energy     =   -4.58 kcal/mol
DOCKED: USER        Electrostatic Energy            =   -8.07 kcal/mol
DOCKED: USER    (2) Final Total Internal Energy     =   +2.21 kcal/mol
DOCKED: USER    (3) Torsional Free Energy           =   +1.79 kcal/mol
DOCKED: USER    (4) Unbound System's Energy  [=(2)] =   +2.21 kcal/mol
DOCKED: USER    
DOCKED: USER    
DOCKED: USER    NEWDPF move 2_3_BPG_opt.pdbqt
DOCKED: USER    NEWDPF about 0.015000 0.083000 0.031000
DOCKED: USER    NEWDPF tran0 -6.389910 -13.330780 -0.515969
DOCKED: USER    NEWDPF quaternion0 -0.072319 -0.983504 -0.082909 -0.143585
DOCKED: USER    NEWDPF axisangle0 -0.073076 -0.993801 -0.083777 -163.489273
DOCKED: USER    NEWDPF quat0 -0.073076 -0.993801 -0.083777 -163.489273
DOCKED: USER    NEWDPF dihe0 179.69 91.94 -139.21 8.06 36.12 179.24 
DOCKED: USER  keepresnum = 1 
DOCKED: USER  
DOCKED: REMARK  6 active torsions:
DOCKED: REMARK  status: ('A' for Active; 'I' for Inactive)
DOCKED: REMARK    1  A    between atoms: P_1  and  O_3 
DOCKED: REMARK    2  A    between atoms: P_2  and  O_4 
DOCKED: REMARK    3  A    between atoms: O_3  and  C_13 
DOCKED: REMARK    4  A    between atoms: O_4  and  C_14 
DOCKED: REMARK    5  A    between atoms: C_13  and  C_14 
DOCKED: REMARK    6  A    between atoms: C_13  and  C_15 
DOCKED: USER                              x       y       z     vdW  Elec       q    Type
DOCKED: USER                           _______ _______ _______ _____ _____    ______ ____
DOCKED: ROOT
DOCKED: ATOM      1  C   UNL d   1      -5.911 -13.688  -0.821 -0.16 +0.35    +0.193 C 
DOCKED: ENDROOT
DOCKED: BRANCH   1   2
DOCKED: ATOM      2  O   UNL d   1      -4.609 -13.151  -0.409 -0.17 -0.62    -0.356 OA
DOCKED: BRANCH   2   3
DOCKED: ATOM      3  P   UNL d   1      -3.471 -12.626  -1.473 -0.29 -0.02    -0.014 P 
DOCKED: ATOM      4  O   UNL d   1      -2.592 -13.860  -1.734 -0.13 -1.07    -0.577 OA
DOCKED: ATOM      5  O   UNL d   1      -2.686 -11.513  -0.784 -0.02 -0.50    -0.577 OA
DOCKED: ATOM      6  O   UNL d   1      -4.187 -12.170  -2.741 -0.50 -1.20    -0.638 OA
DOCKED: ENDBRANCH   2   3
DOCKED: ENDBRANCH   1   2
DOCKED: BRANCH   1   7
DOCKED: ATOM      7  C   UNL d   1      -7.027 -13.065   0.097 -0.20 +0.25    +0.201 C 
DOCKED: BRANCH   7   8
DOCKED: ATOM      8  O   UNL d   1      -6.579 -12.542   1.367 -0.56 -0.59    -0.364 OA
DOCKED: BRANCH   8   9
DOCKED: ATOM      9  P   UNL d   1      -7.501 -12.757   2.724 -0.34 -0.02    -0.015 P 
DOCKED: ATOM     10  O   UNL d   1      -7.982 -14.212   2.653 -0.09 -0.81    -0.577 OA
DOCKED: ATOM     11  O   UNL d   1      -8.662 -11.767   2.635 -0.37 -0.43    -0.577 OA
DOCKED: ATOM     12  O   UNL d   1      -6.595 -12.510   3.929 -0.66 -1.10    -0.638 OA
DOCKED: ENDBRANCH   8   9
DOCKED: ENDBRANCH   7   8
DOCKED: ENDBRANCH   1   7
DOCKED: BRANCH   1  13
DOCKED: ATOM     13  C   UNL d   1      -5.930 -15.252  -0.647 -0.12 +0.14    +0.073 C 
DOCKED: ATOM     14  O   UNL d   1      -6.262 -15.975  -1.651 -0.50 -1.17    -0.547 OA
DOCKED: ATOM     15  O   UNL d   1      -5.547 -15.717   0.487 -0.47 -1.27    -0.547 OA
DOCKED: ENDBRANCH   1  13
DOCKED: TORSDOF 6
DOCKED: TER
DOCKED: ENDMDL
________________________________________________________________________________


	BEGINNING GENETIC ALGORITHM DOCKING 66 of 100
Run: 66 Seed: 1265052964 548563434 [ Run 66 of 100 GA/GALS ]
Beginning LAMARCKIAN GENETIC ALGORITHM (LGA), with a maximum of 25000000 energy evaluations.

Final-Value: -9.506


	FINAL GENETIC ALGORITHM DOCKED STATE
	_______________________________________________


Detailed state:  trans -6.036 -13.015 -0.307 quatxyzw -0.504233 -0.586843 -0.605696 0.185734 center 0.015 0.083 0.031 ntor 6 129.6487 -173.8278 -126.9386 12.0725 -14.6237 -161.3607
State:	 -6.036 -13.015  -0.307  -0.513 -0.597 -0.616 158.592    129.65 -173.83 -126.94   12.07  -14.62 -161.36

DOCKED: MODEL       66
DOCKED: USER    Run = 66
DOCKED: USER    DPF = D:/Protein_go_brrr/autodock/final/AncA/2_3_BPG/dock.dpf
DOCKED: USER  
DOCKED: USER    Estimated Free Energy of Binding    =   -9.84 kcal/mol  [=(1)+(2)+(3)-(4)]
DOCKED: USER    Estimated Inhibition Constant, Ki   =   61.59 nM (nanomolar)  [Temperature = 298.15 K]
DOCKED: USER    
DOCKED: USER    (1) Final Intermolecular Energy     =  -11.63 kcal/mol
DOCKED: USER        vdW + Hbond + desolv Energy     =   -3.65 kcal/mol
DOCKED: USER        Electrostatic Energy            =   -7.98 kcal/mol
DOCKED: USER    (2) Final Total Internal Energy     =   +2.12 kcal/mol
DOCKED: USER    (3) Torsional Free Energy           =   +1.79 kcal/mol
DOCKED: USER    (4) Unbound System's Energy  [=(2)] =   +2.12 kcal/mol
DOCKED: USER    
DOCKED: USER    
DOCKED: USER    NEWDPF move 2_3_BPG_opt.pdbqt
DOCKED: USER    NEWDPF about 0.015000 0.083000 0.031000
DOCKED: USER    NEWDPF tran0 -6.035675 -13.014667 -0.306894
DOCKED: USER    NEWDPF quaternion0 -0.504233 -0.586843 -0.605696 0.185734
DOCKED: USER    NEWDPF axisangle0 -0.513162 -0.597235 -0.616422 158.592120
DOCKED: USER    NEWDPF quat0 -0.513162 -0.597235 -0.616422 158.592120
DOCKED: USER    NEWDPF dihe0 129.65 -173.83 -126.94 12.07 -14.62 -161.36 
DOCKED: USER  keepresnum = 1 
DOCKED: USER  
DOCKED: REMARK  6 active torsions:
DOCKED: REMARK  status: ('A' for Active; 'I' for Inactive)
DOCKED: REMARK    1  A    between atoms: P_1  and  O_3 
DOCKED: REMARK    2  A    between atoms: P_2  and  O_4 
DOCKED: REMARK    3  A    between atoms: O_3  and  C_13 
DOCKED: REMARK    4  A    between atoms: O_4  and  C_14 
DOCKED: REMARK    5  A    between atoms: C_13  and  C_14 
DOCKED: REMARK    6  A    between atoms: C_13  and  C_15 
DOCKED: USER                              x       y       z     vdW  Elec       q    Type
DOCKED: USER                           _______ _______ _______ _____ _____    ______ ____
DOCKED: ROOT
DOCKED: ATOM      1  C   UNL d   1      -5.825 -13.369  -0.836 -0.20 +0.33    +0.193 C 
DOCKED: ENDROOT
DOCKED: BRANCH   1   2
DOCKED: ATOM      2  O   UNL d   1      -5.622 -14.757  -0.405 -0.60 -0.75    -0.356 OA
DOCKED: BRANCH   2   3
DOCKED: ATOM      3  P   UNL d   1      -4.174 -15.529  -0.502 -0.12 -0.03    -0.014 P 
DOCKED: ATOM      4  O   UNL d   1      -3.210 -14.468  -1.055 -0.05 -1.13    -0.577 OA
DOCKED: ATOM      5  O   UNL d   1      -4.347 -16.693  -1.476 -0.04 -1.13    -0.577 OA
DOCKED: ATOM      6  O   UNL d   1      -3.777 -15.967   0.904 -0.07 -1.29    -0.638 OA
DOCKED: ENDBRANCH   2   3
DOCKED: ENDBRANCH   1   2
DOCKED: BRANCH   1   7
DOCKED: ATOM      7  C   UNL d   1      -6.589 -12.594   0.301 -0.19 +0.26    +0.201 C 
DOCKED: BRANCH   7   8
DOCKED: ATOM      8  O   UNL d   1      -6.955 -13.375   1.460 -0.20 -0.68    -0.364 OA
DOCKED: BRANCH   8   9
DOCKED: ATOM      9  P   UNL d   1      -7.499 -12.622   2.829 -0.42 -0.02    -0.015 P 
DOCKED: ATOM     10  O   UNL d   1      -8.685 -11.766   2.370 -0.45 -0.44    -0.577 OA
DOCKED: ATOM     11  O   UNL d   1      -6.347 -11.766   3.354 -0.59 -0.78    -0.577 OA
DOCKED: ATOM     12  O   UNL d   1      -7.925 -13.716   3.807 -0.26 -0.81    -0.638 OA
DOCKED: ENDBRANCH   8   9
DOCKED: ENDBRANCH   7   8
DOCKED: ENDBRANCH   1   7
DOCKED: BRANCH   1  13
DOCKED: ATOM     13  C   UNL d   1      -6.699 -13.333  -2.145 -0.11 +0.12    +0.073 C 
DOCKED: ATOM     14  O   UNL d   1      -6.922 -12.201  -2.700 -0.07 -0.58    -0.547 OA
DOCKED: ATOM     15  O   UNL d   1      -7.087 -14.462  -2.617 -0.27 -1.05    -0.547 OA
DOCKED: ENDBRANCH   1  13
DOCKED: TORSDOF 6
DOCKED: TER
DOCKED: ENDMDL
________________________________________________________________________________


	BEGINNING GENETIC ALGORITHM DOCKING 67 of 100
Run: 67 Seed: 1553662343 582995591 [ Run 67 of 100 GA/GALS ]
Beginning LAMARCKIAN GENETIC ALGORITHM (LGA), with a maximum of 25000000 energy evaluations.

Final-Value: -9.873


	FINAL GENETIC ALGORITHM DOCKED STATE
	_______________________________________________


Detailed state:  trans -6.069 -13.394 -0.087 quatxyzw 0.413158 0.184738 0.835293 -0.312183 center 0.015 0.083 0.031 ntor 6 -134.6788 -45.3521 -164.3865 29.8751 40.0334 -16.6564
State:	 -6.069 -13.394  -0.087   0.435  0.194  0.879 -143.618   -134.68  -45.35 -164.39   29.88   40.03  -16.66

DOCKED: MODEL       67
DOCKED: USER    Run = 67
DOCKED: USER    DPF = D:/Protein_go_brrr/autodock/final/AncA/2_3_BPG/dock.dpf
DOCKED: USER  
DOCKED: USER    Estimated Free Energy of Binding    =  -10.16 kcal/mol  [=(1)+(2)+(3)-(4)]
DOCKED: USER    Estimated Inhibition Constant, Ki   =   35.50 nM (nanomolar)  [Temperature = 298.15 K]
DOCKED: USER    
DOCKED: USER    (1) Final Intermolecular Energy     =  -11.95 kcal/mol
DOCKED: USER        vdW + Hbond + desolv Energy     =   -3.69 kcal/mol
DOCKED: USER        Electrostatic Energy            =   -8.26 kcal/mol
DOCKED: USER    (2) Final Total Internal Energy     =   +2.08 kcal/mol
DOCKED: USER    (3) Torsional Free Energy           =   +1.79 kcal/mol
DOCKED: USER    (4) Unbound System's Energy  [=(2)] =   +2.08 kcal/mol
DOCKED: USER    
DOCKED: USER    
DOCKED: USER    NEWDPF move 2_3_BPG_opt.pdbqt
DOCKED: USER    NEWDPF about 0.015000 0.083000 0.031000
DOCKED: USER    NEWDPF tran0 -6.069218 -13.394051 -0.086878
DOCKED: USER    NEWDPF quaternion0 0.413158 0.184738 0.835293 -0.312183
DOCKED: USER    NEWDPF axisangle0 0.434893 0.194456 0.879235 -143.618295
DOCKED: USER    NEWDPF quat0 0.434893 0.194456 0.879235 -143.618295
DOCKED: USER    NEWDPF dihe0 -134.68 -45.35 -164.39 29.88 40.03 -16.66 
DOCKED: USER  keepresnum = 1 
DOCKED: USER  
DOCKED: REMARK  6 active torsions:
DOCKED: REMARK  status: ('A' for Active; 'I' for Inactive)
DOCKED: REMARK    1  A    between atoms: P_1  and  O_3 
DOCKED: REMARK    2  A    between atoms: P_2  and  O_4 
DOCKED: REMARK    3  A    between atoms: O_3  and  C_13 
DOCKED: REMARK    4  A    between atoms: O_4  and  C_14 
DOCKED: REMARK    5  A    between atoms: C_13  and  C_14 
DOCKED: REMARK    6  A    between atoms: C_13  and  C_15 
DOCKED: USER                              x       y       z     vdW  Elec       q    Type
DOCKED: USER                           _______ _______ _______ _____ _____    ______ ____
DOCKED: ROOT
DOCKED: ATOM      1  C   UNL d   1      -5.607 -13.555  -0.546 -0.19 +0.35    +0.193 C 
DOCKED: ENDROOT
DOCKED: BRANCH   1   2
DOCKED: ATOM      2  O   UNL d   1      -5.933 -14.883  -1.077 -0.48 -0.80    -0.356 OA
DOCKED: BRANCH   2   3
DOCKED: ATOM      3  P   UNL d   1      -5.144 -16.254  -0.626 -0.13 -0.03    -0.014 P 
DOCKED: ATOM      4  O   UNL d   1      -6.265 -17.245  -0.278 -0.01 -0.67    -0.577 OA
DOCKED: ATOM      5  O   UNL d   1      -4.299 -15.908   0.598 -0.32 -1.24    -0.577 OA
DOCKED: ATOM      6  O   UNL d   1      -4.320 -16.736  -1.816 +0.06 -1.39    -0.638 OA
DOCKED: ENDBRANCH   2   3
DOCKED: ENDBRANCH   1   2
DOCKED: BRANCH   1   7
DOCKED: ATOM      7  C   UNL d   1      -6.825 -13.040   0.307 -0.20 +0.27    +0.201 C 
DOCKED: BRANCH   7   8
DOCKED: ATOM      8  O   UNL d   1      -6.490 -12.290   1.496 -0.51 -0.58    -0.364 OA
DOCKED: BRANCH   8   9
DOCKED: ATOM      9  P   UNL d   1      -7.301 -12.571   2.910 -0.22 -0.02    -0.015 P 
DOCKED: ATOM     10  O   UNL d   1      -7.970 -13.938   2.722 -0.16 -0.81    -0.577 OA
DOCKED: ATOM     11  O   UNL d   1      -8.327 -11.449   3.066 -0.34 -0.43    -0.577 OA
DOCKED: ATOM     12  O   UNL d   1      -6.261 -12.590   4.030 -0.52 -1.26    -0.638 OA
DOCKED: ENDBRANCH   8   9
DOCKED: ENDBRANCH   7   8
DOCKED: ENDBRANCH   1   7
DOCKED: BRANCH   1  13
DOCKED: ATOM     13  C   UNL d   1      -5.359 -12.546  -1.729 -0.20 +0.12    +0.073 C 
DOCKED: ATOM     14  O   UNL d   1      -4.214 -12.549  -2.303 -0.40 -1.22    -0.547 OA
DOCKED: ATOM     15  O   UNL d   1      -6.351 -11.818  -2.092 -0.06 -0.57    -0.547 OA
DOCKED: ENDBRANCH   1  13
DOCKED: TORSDOF 6
DOCKED: TER
DOCKED: ENDMDL
________________________________________________________________________________


	BEGINNING GENETIC ALGORITHM DOCKING 68 of 100
Run: 68 Seed: 1680935469 1236638115 [ Run 68 of 100 GA/GALS ]
Beginning LAMARCKIAN GENETIC ALGORITHM (LGA), with a maximum of 25000000 energy evaluations.

Final-Value: -10.027


	FINAL GENETIC ALGORITHM DOCKED STATE
	_______________________________________________


Detailed state:  trans -6.736 -13.433 0.376 quatxyzw 0.299787 0.555612 0.767266 -0.112814 center 0.015 0.083 0.031 ntor 6 163.1709 -45.3047 180.0000 -26.8266 64.2287 -43.8124
State:	 -6.736 -13.433   0.376   0.302  0.559  0.772 -167.045    163.17  -45.30  180.00  -26.83   64.23  -43.81

DOCKED: MODEL       68
DOCKED: USER    Run = 68
DOCKED: USER    DPF = D:/Protein_go_brrr/autodock/final/AncA/2_3_BPG/dock.dpf
DOCKED: USER  
DOCKED: USER    Estimated Free Energy of Binding    =  -10.52 kcal/mol  [=(1)+(2)+(3)-(4)]
DOCKED: USER    Estimated Inhibition Constant, Ki   =   19.34 nM (nanomolar)  [Temperature = 298.15 K]
DOCKED: USER    
DOCKED: USER    (1) Final Intermolecular Energy     =  -12.31 kcal/mol
DOCKED: USER        vdW + Hbond + desolv Energy     =   -3.98 kcal/mol
DOCKED: USER        Electrostatic Energy            =   -8.33 kcal/mol
DOCKED: USER    (2) Final Total Internal Energy     =   +2.29 kcal/mol
DOCKED: USER    (3) Torsional Free Energy           =   +1.79 kcal/mol
DOCKED: USER    (4) Unbound System's Energy  [=(2)] =   +2.29 kcal/mol
DOCKED: USER    
DOCKED: USER    
DOCKED: USER    NEWDPF move 2_3_BPG_opt.pdbqt
DOCKED: USER    NEWDPF about 0.015000 0.083000 0.031000
DOCKED: USER    NEWDPF tran0 -6.736150 -13.433406 0.375965
DOCKED: USER    NEWDPF quaternion0 0.299787 0.555612 0.767266 -0.112814
DOCKED: USER    NEWDPF axisangle0 0.301713 0.559181 0.772195 -167.044918
DOCKED: USER    NEWDPF quat0 0.301713 0.559181 0.772195 -167.044918
DOCKED: USER    NEWDPF dihe0 163.17 -45.30 180.00 -26.83 64.23 -43.81 
DOCKED: USER  keepresnum = 1 
DOCKED: USER  
DOCKED: REMARK  6 active torsions:
DOCKED: REMARK  status: ('A' for Active; 'I' for Inactive)
DOCKED: REMARK    1  A    between atoms: P_1  and  O_3 
DOCKED: REMARK    2  A    between atoms: P_2  and  O_4 
DOCKED: REMARK    3  A    between atoms: O_3  and  C_13 
DOCKED: REMARK    4  A    between atoms: O_4  and  C_14 
DOCKED: REMARK    5  A    between atoms: C_13  and  C_14 
DOCKED: REMARK    6  A    between atoms: C_13  and  C_15 
DOCKED: USER                              x       y       z     vdW  Elec       q    Type
DOCKED: USER                           _______ _______ _______ _____ _____    ______ ____
DOCKED: ROOT
DOCKED: ATOM      1  C   UNL d   1      -6.266 -13.546  -0.088 -0.19 +0.32    +0.193 C 
DOCKED: ENDROOT
DOCKED: BRANCH   1   2
DOCKED: ATOM      2  O   UNL d   1      -5.680 -14.867   0.164 -0.66 -0.81    -0.356 OA
DOCKED: BRANCH   2   3
DOCKED: ATOM      3  P   UNL d   1      -4.204 -15.323  -0.399 -0.12 -0.03    -0.014 P 
DOCKED: ATOM      4  O   UNL d   1      -3.487 -15.903   0.830 -0.08 -1.06    -0.577 OA
DOCKED: ATOM      5  O   UNL d   1      -3.507 -14.064  -0.913 -0.08 -1.14    -0.577 OA
DOCKED: ATOM      6  O   UNL d   1      -4.416 -16.382  -1.476 +0.05 -1.42    -0.638 OA
DOCKED: ENDBRANCH   2   3
DOCKED: ENDBRANCH   1   2
DOCKED: BRANCH   1   7
DOCKED: ATOM      7  C   UNL d   1      -7.556 -13.387   0.798 -0.19 +0.25    +0.201 C 
DOCKED: BRANCH   7   8
DOCKED: ATOM      8  O   UNL d   1      -7.504 -12.355   1.807 -0.81 -0.48    -0.364 OA
DOCKED: BRANCH   8   9
DOCKED: ATOM      9  P   UNL d   1      -7.500 -12.761   3.411 -0.38 -0.02    -0.015 P 
DOCKED: ATOM     10  O   UNL d   1      -7.501 -14.295   3.434 -0.15 -1.08    -0.577 OA
DOCKED: ATOM     11  O   UNL d   1      -8.775 -12.180   4.022 -0.10 -0.35    -0.577 OA
DOCKED: ATOM     12  O   UNL d   1      -6.226 -12.179   4.021 -0.59 -0.96    -0.638 OA
DOCKED: ENDBRANCH   8   9
DOCKED: ENDBRANCH   7   8
DOCKED: ENDBRANCH   1   7
DOCKED: BRANCH   1  13
DOCKED: ATOM     13  C   UNL d   1      -6.676 -13.418  -1.603 -0.20 +0.11    +0.073 C 
DOCKED: ATOM     14  O   UNL d   1      -6.520 -12.287  -2.185 -0.07 -0.66    -0.547 OA
DOCKED: ATOM     15  O   UNL d   1      -7.089 -14.484  -2.187 -0.40 -0.98    -0.547 OA
DOCKED: ENDBRANCH   1  13
DOCKED: TORSDOF 6
DOCKED: TER
DOCKED: ENDMDL
________________________________________________________________________________


	BEGINNING GENETIC ALGORITHM DOCKING 69 of 100
Run: 69 Seed: 923284633 12461578 [ Run 69 of 100 GA/GALS ]
Beginning LAMARCKIAN GENETIC ALGORITHM (LGA), with a maximum of 25000000 energy evaluations.

Final-Value: -9.965


	FINAL GENETIC ALGORITHM DOCKED STATE
	_______________________________________________


Detailed state:  trans -6.076 -12.609 -0.332 quatxyzw 0.026605 0.501331 0.159293 -0.850050 center 0.015 0.083 0.031 ntor 6 43.2929 -13.1368 -115.4752 3.2053 96.6441 31.9474
State:	 -6.076 -12.609  -0.332   0.051  0.952  0.302 -63.566     43.29  -13.14 -115.48    3.21   96.64   31.95

DOCKED: MODEL       69
DOCKED: USER    Run = 69
DOCKED: USER    DPF = D:/Protein_go_brrr/autodock/final/AncA/2_3_BPG/dock.dpf
DOCKED: USER  
DOCKED: USER    Estimated Free Energy of Binding    =  -10.55 kcal/mol  [=(1)+(2)+(3)-(4)]
DOCKED: USER    Estimated Inhibition Constant, Ki   =   18.36 nM (nanomolar)  [Temperature = 298.15 K]
DOCKED: USER    
DOCKED: USER    (1) Final Intermolecular Energy     =  -12.34 kcal/mol
DOCKED: USER        vdW + Hbond + desolv Energy     =   -4.64 kcal/mol
DOCKED: USER        Electrostatic Energy            =   -7.71 kcal/mol
DOCKED: USER    (2) Final Total Internal Energy     =   +2.38 kcal/mol
DOCKED: USER    (3) Torsional Free Energy           =   +1.79 kcal/mol
DOCKED: USER    (4) Unbound System's Energy  [=(2)] =   +2.38 kcal/mol
DOCKED: USER    
DOCKED: USER    
DOCKED: USER    NEWDPF move 2_3_BPG_opt.pdbqt
DOCKED: USER    NEWDPF about 0.015000 0.083000 0.031000
DOCKED: USER    NEWDPF tran0 -6.075990 -12.608818 -0.331573
DOCKED: USER    NEWDPF quaternion0 0.026605 0.501331 0.159293 -0.850050
DOCKED: USER    NEWDPF axisangle0 0.050512 0.951830 0.302436 -63.565728
DOCKED: USER    NEWDPF quat0 0.050512 0.951830 0.302436 -63.565728
DOCKED: USER    NEWDPF dihe0 43.29 -13.14 -115.48 3.21 96.64 31.95 
DOCKED: USER  keepresnum = 1 
DOCKED: USER  
DOCKED: REMARK  6 active torsions:
DOCKED: REMARK  status: ('A' for Active; 'I' for Inactive)
DOCKED: REMARK    1  A    between atoms: P_1  and  O_3 
DOCKED: REMARK    2  A    between atoms: P_2  and  O_4 
DOCKED: REMARK    3  A    between atoms: O_3  and  C_13 
DOCKED: REMARK    4  A    between atoms: O_4  and  C_14 
DOCKED: REMARK    5  A    between atoms: C_13  and  C_14 
DOCKED: REMARK    6  A    between atoms: C_13  and  C_15 
DOCKED: USER                              x       y       z     vdW  Elec       q    Type
DOCKED: USER                           _______ _______ _______ _____ _____    ______ ____
DOCKED: ROOT
DOCKED: ATOM      1  C   UNL d   1      -6.181 -13.068   0.145 -0.21 +0.30    +0.193 C 
DOCKED: ENDROOT
DOCKED: BRANCH   1   2
DOCKED: ATOM      2  O   UNL d   1      -7.399 -12.698   0.876 -0.51 -0.44    -0.356 OA
DOCKED: BRANCH   2   3
DOCKED: ATOM      3  P   UNL d   1      -7.471 -12.594   2.515 -0.36 -0.02    -0.014 P 
DOCKED: ATOM      4  O   UNL d   1      -8.742 -11.776   2.792 -0.24 -0.41    -0.577 OA
DOCKED: ATOM      5  O   UNL d   1      -6.216 -11.855   2.978 -0.54 -0.89    -0.577 OA
DOCKED: ATOM      6  O   UNL d   1      -7.584 -14.009   3.073 -0.18 -1.16    -0.638 OA
DOCKED: ENDBRANCH   2   3
DOCKED: ENDBRANCH   1   2
DOCKED: BRANCH   1   7
DOCKED: ATOM      7  C   UNL d   1      -6.079 -12.179  -1.148 -0.21 +0.23    +0.201 C 
DOCKED: BRANCH   7   8
DOCKED: ATOM      8  O   UNL d   1      -5.083 -12.583  -2.114 -0.28 -0.71    -0.364 OA
DOCKED: BRANCH   8   9
DOCKED: ATOM      9  P   UNL d   1      -3.495 -12.179  -1.886 -0.35 -0.02    -0.015 P 
DOCKED: ATOM     10  O   UNL d   1      -3.056 -12.967  -0.646 -0.06 -0.80    -0.577 OA
DOCKED: ATOM     11  O   UNL d   1      -3.448 -10.669  -1.649 -0.05 -0.42    -0.577 OA
DOCKED: ATOM     12  O   UNL d   1      -2.735 -12.611  -3.139 -0.47 -1.10    -0.638 OA
DOCKED: ENDBRANCH   8   9
DOCKED: ENDBRANCH   7   8
DOCKED: ENDBRANCH   1   7
DOCKED: BRANCH   1  13
DOCKED: ATOM     13  C   UNL d   1      -6.251 -14.580  -0.287 -0.17 +0.13    +0.073 C 
DOCKED: ATOM     14  O   UNL d   1      -6.641 -14.859  -1.475 -0.54 -1.07    -0.547 OA
DOCKED: ATOM     15  O   UNL d   1      -5.846 -15.449   0.567 -0.49 -1.32    -0.547 OA
DOCKED: ENDBRANCH   1  13
DOCKED: TORSDOF 6
DOCKED: TER
DOCKED: ENDMDL
________________________________________________________________________________


	BEGINNING GENETIC ALGORITHM DOCKING 70 of 100
Run: 70 Seed: 1900778500 1794726130 [ Run 70 of 100 GA/GALS ]
Beginning LAMARCKIAN GENETIC ALGORITHM (LGA), with a maximum of 25000000 energy evaluations.

Final-Value: -9.950


	FINAL GENETIC ALGORITHM DOCKED STATE
	_______________________________________________


Detailed state:  trans -6.774 -13.274 0.467 quatxyzw 0.279300 0.441241 0.825953 -0.212367 center 0.015 0.083 0.031 ntor 6 162.1726 -48.1879 172.1592 -30.1961 84.6820 -37.3426
State:	 -6.774 -13.274   0.467   0.286  0.452  0.845 -155.478    162.17  -48.19  172.16  -30.20   84.68  -37.34

DOCKED: MODEL       70
DOCKED: USER    Run = 70
DOCKED: USER    DPF = D:/Protein_go_brrr/autodock/final/AncA/2_3_BPG/dock.dpf
DOCKED: USER  
DOCKED: USER    Estimated Free Energy of Binding    =  -10.57 kcal/mol  [=(1)+(2)+(3)-(4)]
DOCKED: USER    Estimated Inhibition Constant, Ki   =   18.02 nM (nanomolar)  [Temperature = 298.15 K]
DOCKED: USER    
DOCKED: USER    (1) Final Intermolecular Energy     =  -12.35 kcal/mol
DOCKED: USER        vdW + Hbond + desolv Energy     =   -3.96 kcal/mol
DOCKED: USER        Electrostatic Energy            =   -8.39 kcal/mol
DOCKED: USER    (2) Final Total Internal Energy     =   +2.40 kcal/mol
DOCKED: USER    (3) Torsional Free Energy           =   +1.79 kcal/mol
DOCKED: USER    (4) Unbound System's Energy  [=(2)] =   +2.40 kcal/mol
DOCKED: USER    
DOCKED: USER    
DOCKED: USER    NEWDPF move 2_3_BPG_opt.pdbqt
DOCKED: USER    NEWDPF about 0.015000 0.083000 0.031000
DOCKED: USER    NEWDPF tran0 -6.773539 -13.273699 0.466807
DOCKED: USER    NEWDPF quaternion0 0.279300 0.441241 0.825953 -0.212367
DOCKED: USER    NEWDPF axisangle0 0.285819 0.451540 0.845233 -155.477813
DOCKED: USER    NEWDPF quat0 0.285819 0.451540 0.845233 -155.477813
DOCKED: USER    NEWDPF dihe0 162.17 -48.19 172.16 -30.20 84.68 -37.34 
DOCKED: USER  keepresnum = 1 
DOCKED: USER  
DOCKED: REMARK  6 active torsions:
DOCKED: REMARK  status: ('A' for Active; 'I' for Inactive)
DOCKED: REMARK    1  A    between atoms: P_1  and  O_3 
DOCKED: REMARK    2  A    between atoms: P_2  and  O_4 
DOCKED: REMARK    3  A    between atoms: O_3  and  C_13 
DOCKED: REMARK    4  A    between atoms: O_4  and  C_14 
DOCKED: REMARK    5  A    between atoms: C_13  and  C_14 
DOCKED: REMARK    6  A    between atoms: C_13  and  C_15 
DOCKED: USER                              x       y       z     vdW  Elec       q    Type
DOCKED: USER                           _______ _______ _______ _____ _____    ______ ____
DOCKED: ROOT
DOCKED: ATOM      1  C   UNL d   1      -6.239 -13.405   0.084 -0.19 +0.32    +0.193 C 
DOCKED: ENDROOT
DOCKED: BRANCH   1   2
DOCKED: ATOM      2  O   UNL d   1      -5.948 -14.839   0.180 -0.63 -0.77    -0.356 OA
DOCKED: BRANCH   2   3
DOCKED: ATOM      3  P   UNL d   1      -4.506 -15.499  -0.255 -0.14 -0.03    -0.014 P 
DOCKED: ATOM      4  O   UNL d   1      -4.077 -16.324   0.969 -0.15 -1.12    -0.577 OA
DOCKED: ATOM      5  O   UNL d   1      -3.542 -14.345  -0.520 -0.09 -1.09    -0.577 OA
DOCKED: ATOM      6  O   UNL d   1      -4.742 -16.386  -1.473 -0.00 -1.44    -0.638 OA
DOCKED: ENDBRANCH   2   3
DOCKED: ENDBRANCH   1   2
DOCKED: BRANCH   1   7
DOCKED: ATOM      7  C   UNL d   1      -7.646 -13.130   0.732 -0.20 +0.23    +0.201 C 
DOCKED: BRANCH   7   8
DOCKED: ATOM      8  O   UNL d   1      -7.664 -12.184   1.823 -0.81 -0.45    -0.364 OA
DOCKED: BRANCH   8   9
DOCKED: ATOM      9  P   UNL d   1      -7.511 -12.713   3.383 -0.41 -0.02    -0.015 P 
DOCKED: ATOM     10  O   UNL d   1      -7.519 -14.244   3.287 -0.14 -1.09    -0.577 OA
DOCKED: ATOM     11  O   UNL d   1      -8.719 -12.183   4.154 -0.12 -0.35    -0.577 OA
DOCKED: ATOM     12  O   UNL d   1      -6.181 -12.178   3.913 -0.57 -1.01    -0.638 OA
DOCKED: ENDBRANCH   8   9
DOCKED: ENDBRANCH   7   8
DOCKED: ENDBRANCH   1   7
DOCKED: BRANCH   1  13
DOCKED: ATOM     13  C   UNL d   1      -6.284 -12.963  -1.426 -0.25 +0.11    +0.073 C 
DOCKED: ATOM     14  O   UNL d   1      -5.839 -11.803  -1.738 -0.07 -0.61    -0.547 OA
DOCKED: ATOM     15  O   UNL d   1      -6.712 -13.828  -2.273 -0.17 -1.08    -0.547 OA
DOCKED: ENDBRANCH   1  13
DOCKED: TORSDOF 6
DOCKED: TER
DOCKED: ENDMDL
________________________________________________________________________________


	BEGINNING GENETIC ALGORITHM DOCKING 71 of 100
Run: 71 Seed: 679894856 644199374 [ Run 71 of 100 GA/GALS ]
Beginning LAMARCKIAN GENETIC ALGORITHM (LGA), with a maximum of 25000000 energy evaluations.

Final-Value: -9.784


	FINAL GENETIC ALGORITHM DOCKED STATE
	_______________________________________________


Detailed state:  trans -5.387 -12.794 -0.329 quatxyzw -0.592022 -0.285384 -0.685316 0.313699 center 0.015 0.083 0.031 ntor 6 33.5680 43.4055 -79.3755 39.5346 -19.2057 -166.1740
State:	 -5.387 -12.794  -0.329  -0.623 -0.301 -0.722 143.435     33.57   43.41  -79.38   39.53  -19.21 -166.17

DOCKED: MODEL       71
DOCKED: USER    Run = 71
DOCKED: USER    DPF = D:/Protein_go_brrr/autodock/final/AncA/2_3_BPG/dock.dpf
DOCKED: USER  
DOCKED: USER    Estimated Free Energy of Binding    =  -10.26 kcal/mol  [=(1)+(2)+(3)-(4)]
DOCKED: USER    Estimated Inhibition Constant, Ki   =   30.10 nM (nanomolar)  [Temperature = 298.15 K]
DOCKED: USER    
DOCKED: USER    (1) Final Intermolecular Energy     =  -12.05 kcal/mol
DOCKED: USER        vdW + Hbond + desolv Energy     =   -4.02 kcal/mol
DOCKED: USER        Electrostatic Energy            =   -8.04 kcal/mol
DOCKED: USER    (2) Final Total Internal Energy     =   +2.27 kcal/mol
DOCKED: USER    (3) Torsional Free Energy           =   +1.79 kcal/mol
DOCKED: USER    (4) Unbound System's Energy  [=(2)] =   +2.27 kcal/mol
DOCKED: USER    
DOCKED: USER    
DOCKED: USER    NEWDPF move 2_3_BPG_opt.pdbqt
DOCKED: USER    NEWDPF about 0.015000 0.083000 0.031000
DOCKED: USER    NEWDPF tran0 -5.386995 -12.793871 -0.328591
DOCKED: USER    NEWDPF quaternion0 -0.592022 -0.285384 -0.685316 0.313699
DOCKED: USER    NEWDPF axisangle0 -0.623495 -0.300555 -0.721748 143.435461
DOCKED: USER    NEWDPF quat0 -0.623495 -0.300555 -0.721748 143.435461
DOCKED: USER    NEWDPF dihe0 33.57 43.41 -79.38 39.53 -19.21 -166.17 
DOCKED: USER  keepresnum = 1 
DOCKED: USER  
DOCKED: REMARK  6 active torsions:
DOCKED: REMARK  status: ('A' for Active; 'I' for Inactive)
DOCKED: REMARK    1  A    between atoms: P_1  and  O_3 
DOCKED: REMARK    2  A    between atoms: P_2  and  O_4 
DOCKED: REMARK    3  A    between atoms: O_3  and  C_13 
DOCKED: REMARK    4  A    between atoms: O_4  and  C_14 
DOCKED: REMARK    5  A    between atoms: C_13  and  C_14 
DOCKED: REMARK    6  A    between atoms: C_13  and  C_15 
DOCKED: USER                              x       y       z     vdW  Elec       q    Type
DOCKED: USER                           _______ _______ _______ _____ _____    ______ ____
DOCKED: ROOT
DOCKED: ATOM      1  C   UNL d   1      -5.206 -13.042  -0.924 -0.21 +0.33    +0.193 C 
DOCKED: ENDROOT
DOCKED: BRANCH   1   2
DOCKED: ATOM      2  O   UNL d   1      -5.809 -14.372  -1.067 -0.38 -0.79    -0.356 OA
DOCKED: BRANCH   2   3
DOCKED: ATOM      3  P   UNL d   1      -5.040 -15.763  -0.643 -0.08 -0.03    -0.014 P 
DOCKED: ATOM      4  O   UNL d   1      -5.423 -16.763  -1.745 -0.18 -1.15    -0.577 OA
DOCKED: ATOM      5  O   UNL d   1      -5.590 -16.187   0.717 -0.35 -1.20    -0.577 OA
DOCKED: ATOM      6  O   UNL d   1      -3.540 -15.487  -0.634 -0.06 -1.18    -0.638 OA
DOCKED: ENDBRANCH   2   3
DOCKED: ENDBRANCH   1   2
DOCKED: BRANCH   1   7
DOCKED: ATOM      7  C   UNL d   1      -5.847 -12.329   0.322 -0.06 +0.27    +0.201 C 
DOCKED: BRANCH   7   8
DOCKED: ATOM      8  O   UNL d   1      -6.950 -13.021   0.947 -0.31 -0.55    -0.364 OA
DOCKED: BRANCH   8   9
DOCKED: ATOM      9  P   UNL d   1      -7.442 -12.596   2.469 -0.33 -0.02    -0.015 P 
DOCKED: ATOM     10  O   UNL d   1      -8.715 -11.768   2.259 -0.48 -0.44    -0.577 OA
DOCKED: ATOM     11  O   UNL d   1      -6.316 -11.767   3.086 -0.62 -0.82    -0.577 OA
DOCKED: ATOM     12  O   UNL d   1      -7.719 -13.891   3.231 -0.24 -1.04    -0.638 OA
DOCKED: ENDBRANCH   8   9
DOCKED: ENDBRANCH   7   8
DOCKED: ENDBRANCH   1   7
DOCKED: BRANCH   1  13
DOCKED: ATOM     13  C   UNL d   1      -5.499 -12.176  -2.206 -0.26 +0.11    +0.073 C 
DOCKED: ATOM     14  O   UNL d   1      -6.587 -11.502  -2.254 -0.05 -0.49    -0.547 OA
DOCKED: ATOM     15  O   UNL d   1      -4.588 -12.149  -3.111 -0.39 -1.04    -0.547 OA
DOCKED: ENDBRANCH   1  13
DOCKED: TORSDOF 6
DOCKED: TER
DOCKED: ENDMDL
________________________________________________________________________________


	BEGINNING GENETIC ALGORITHM DOCKING 72 of 100
Run: 72 Seed: 1308160202 1582383744 [ Run 72 of 100 GA/GALS ]
Beginning LAMARCKIAN GENETIC ALGORITHM (LGA), with a maximum of 25000000 energy evaluations.

Final-Value: -10.190


	FINAL GENETIC ALGORITHM DOCKED STATE
	_______________________________________________


Detailed state:  trans -6.389 -12.907 -0.795 quatxyzw -0.657372 -0.560154 0.502378 -0.041308 center 0.015 0.083 0.031 ntor 6 142.6985 83.2584 -68.4367 32.0735 -43.5785 -168.0900
State:	 -6.389 -12.907  -0.795  -0.658 -0.561  0.503 -175.265    142.70   83.26  -68.44   32.07  -43.58 -168.09

DOCKED: MODEL       72
DOCKED: USER    Run = 72
DOCKED: USER    DPF = D:/Protein_go_brrr/autodock/final/AncA/2_3_BPG/dock.dpf
DOCKED: USER  
DOCKED: USER    Estimated Free Energy of Binding    =  -10.73 kcal/mol  [=(1)+(2)+(3)-(4)]
DOCKED: USER    Estimated Inhibition Constant, Ki   =   13.65 nM (nanomolar)  [Temperature = 298.15 K]
DOCKED: USER    
DOCKED: USER    (1) Final Intermolecular Energy     =  -12.52 kcal/mol
DOCKED: USER        vdW + Hbond + desolv Energy     =   -4.29 kcal/mol
DOCKED: USER        Electrostatic Energy            =   -8.23 kcal/mol
DOCKED: USER    (2) Final Total Internal Energy     =   +2.33 kcal/mol
DOCKED: USER    (3) Torsional Free Energy           =   +1.79 kcal/mol
DOCKED: USER    (4) Unbound System's Energy  [=(2)] =   +2.33 kcal/mol
DOCKED: USER    
DOCKED: USER    
DOCKED: USER    NEWDPF move 2_3_BPG_opt.pdbqt
DOCKED: USER    NEWDPF about 0.015000 0.083000 0.031000
DOCKED: USER    NEWDPF tran0 -6.388907 -12.907041 -0.794624
DOCKED: USER    NEWDPF quaternion0 -0.657372 -0.560154 0.502378 -0.041308
DOCKED: USER    NEWDPF axisangle0 -0.657934 -0.560632 0.502807 -175.265096
DOCKED: USER    NEWDPF quat0 -0.657934 -0.560632 0.502807 -175.265096
DOCKED: USER    NEWDPF dihe0 142.70 83.26 -68.44 32.07 -43.58 -168.09 
DOCKED: USER  keepresnum = 1 
DOCKED: USER  
DOCKED: REMARK  6 active torsions:
DOCKED: REMARK  status: ('A' for Active; 'I' for Inactive)
DOCKED: REMARK    1  A    between atoms: P_1  and  O_3 
DOCKED: REMARK    2  A    between atoms: P_2  and  O_4 
DOCKED: REMARK    3  A    between atoms: O_3  and  C_13 
DOCKED: REMARK    4  A    between atoms: O_4  and  C_14 
DOCKED: REMARK    5  A    between atoms: C_13  and  C_14 
DOCKED: REMARK    6  A    between atoms: C_13  and  C_15 
DOCKED: USER                              x       y       z     vdW  Elec       q    Type
DOCKED: USER                           _______ _______ _______ _____ _____    ______ ____
DOCKED: ROOT
DOCKED: ATOM      1  C   UNL d   1      -6.594 -13.295  -0.288 -0.20 +0.27    +0.193 C 
DOCKED: ENDROOT
DOCKED: BRANCH   1   2
DOCKED: ATOM      2  O   UNL d   1      -5.446 -14.079   0.181 -0.52 -0.80    -0.356 OA
DOCKED: BRANCH   2   3
DOCKED: ATOM      3  P   UNL d   1      -5.193 -15.649  -0.239 -0.13 -0.03    -0.014 P 
DOCKED: ATOM      4  O   UNL d   1      -5.674 -16.453   0.979 -0.26 -1.13    -0.577 OA
DOCKED: ATOM      5  O   UNL d   1      -3.693 -15.821  -0.469 -0.09 -1.03    -0.577 OA
DOCKED: ATOM      6  O   UNL d   1      -6.036 -15.948  -1.475 -0.46 -1.39    -0.638 OA
DOCKED: ENDBRANCH   2   3
DOCKED: ENDBRANCH   1   2
DOCKED: BRANCH   1   7
DOCKED: ATOM      7  C   UNL d   1      -6.076 -12.179  -1.268 -0.21 +0.24    +0.201 C 
DOCKED: BRANCH   7   8
DOCKED: ATOM      8  O   UNL d   1      -4.642 -12.027  -1.349 -0.24 -0.48    -0.364 OA
DOCKED: BRANCH   8   9
DOCKED: ATOM      9  P   UNL d   1      -3.917 -11.758  -2.812 -0.35 -0.02    -0.015 P 
DOCKED: ATOM     10  O   UNL d   1      -3.342 -10.340  -2.717 -0.04 -0.38    -0.577 OA
DOCKED: ATOM     11  O   UNL d   1      -5.009 -11.860  -3.876 -0.17 -0.83    -0.577 OA
DOCKED: ATOM     12  O   UNL d   1      -2.823 -12.812  -2.974 -0.37 -1.28    -0.638 OA
DOCKED: ENDBRANCH   8   9
DOCKED: ENDBRANCH   7   8
DOCKED: ENDBRANCH   1   7
DOCKED: BRANCH   1  13
DOCKED: ATOM     13  C   UNL d   1      -7.309 -12.603   0.932 -0.18 +0.09    +0.073 C 
DOCKED: ATOM     14  O   UNL d   1      -8.494 -12.147   0.767 -0.40 -0.45    -0.547 OA
DOCKED: ATOM     15  O   UNL d   1      -6.676 -12.593   2.049 -0.65 -1.02    -0.547 OA
DOCKED: ENDBRANCH   1  13
DOCKED: TORSDOF 6
DOCKED: TER
DOCKED: ENDMDL
________________________________________________________________________________


	BEGINNING GENETIC ALGORITHM DOCKING 73 of 100
Run: 73 Seed: 329272629 683567403 [ Run 73 of 100 GA/GALS ]
Beginning LAMARCKIAN GENETIC ALGORITHM (LGA), with a maximum of 25000000 energy evaluations.

Final-Value: -10.124


	FINAL GENETIC ALGORITHM DOCKED STATE
	_______________________________________________


Detailed state:  trans -6.289 -12.900 -0.747 quatxyzw -0.691844 -0.553251 0.458555 -0.070658 center 0.015 0.083 0.031 ntor 6 -30.8529 86.1134 41.8649 25.8577 -39.6041 -163.8366
State:	 -6.289 -12.900  -0.747  -0.694 -0.555  0.460 -171.896    -30.85   86.11   41.86   25.86  -39.60 -163.84

DOCKED: MODEL       73
DOCKED: USER    Run = 73
DOCKED: USER    DPF = D:/Protein_go_brrr/autodock/final/AncA/2_3_BPG/dock.dpf
DOCKED: USER  
DOCKED: USER    Estimated Free Energy of Binding    =  -10.58 kcal/mol  [=(1)+(2)+(3)-(4)]
DOCKED: USER    Estimated Inhibition Constant, Ki   =   17.65 nM (nanomolar)  [Temperature = 298.15 K]
DOCKED: USER    
DOCKED: USER    (1) Final Intermolecular Energy     =  -12.37 kcal/mol
DOCKED: USER        vdW + Hbond + desolv Energy     =   -4.58 kcal/mol
DOCKED: USER        Electrostatic Energy            =   -7.78 kcal/mol
DOCKED: USER    (2) Final Total Internal Energy     =   +2.24 kcal/mol
DOCKED: USER    (3) Torsional Free Energy           =   +1.79 kcal/mol
DOCKED: USER    (4) Unbound System's Energy  [=(2)] =   +2.24 kcal/mol
DOCKED: USER    
DOCKED: USER    
DOCKED: USER    NEWDPF move 2_3_BPG_opt.pdbqt
DOCKED: USER    NEWDPF about 0.015000 0.083000 0.031000
DOCKED: USER    NEWDPF tran0 -6.289048 -12.899771 -0.747304
DOCKED: USER    NEWDPF quaternion0 -0.691844 -0.553251 0.458555 -0.070658
DOCKED: USER    NEWDPF axisangle0 -0.693577 -0.554637 0.459704 -171.896462
DOCKED: USER    NEWDPF quat0 -0.693577 -0.554637 0.459704 -171.896462
DOCKED: USER    NEWDPF dihe0 -30.85 86.11 41.86 25.86 -39.60 -163.84 
DOCKED: USER  keepresnum = 1 
DOCKED: USER  
DOCKED: REMARK  6 active torsions:
DOCKED: REMARK  status: ('A' for Active; 'I' for Inactive)
DOCKED: REMARK    1  A    between atoms: P_1  and  O_3 
DOCKED: REMARK    2  A    between atoms: P_2  and  O_4 
DOCKED: REMARK    3  A    between atoms: O_3  and  C_13 
DOCKED: REMARK    4  A    between atoms: O_4  and  C_14 
DOCKED: REMARK    5  A    between atoms: C_13  and  C_14 
DOCKED: REMARK    6  A    between atoms: C_13  and  C_15 
DOCKED: USER                              x       y       z     vdW  Elec       q    Type
DOCKED: USER                           _______ _______ _______ _____ _____    ______ ____
DOCKED: ROOT
DOCKED: ATOM      1  C   UNL d   1      -6.555 -13.307  -0.285 -0.21 +0.28    +0.193 C 
DOCKED: ENDROOT
DOCKED: BRANCH   1   2
DOCKED: ATOM      2  O   UNL d   1      -5.503 -14.217   0.182 -0.55 -0.82    -0.356 OA
DOCKED: BRANCH   2   3
DOCKED: ATOM      3  P   UNL d   1      -5.435 -15.806  -0.233 -0.15 -0.03    -0.014 P 
DOCKED: ATOM      4  O   UNL d   1      -6.067 -16.541   0.960 -0.22 -0.99    -0.577 OA
DOCKED: ATOM      5  O   UNL d   1      -3.960 -16.168  -0.397 -0.09 -0.99    -0.577 OA
DOCKED: ATOM      6  O   UNL d   1      -6.253 -15.997  -1.505 -0.52 -1.29    -0.638 OA
DOCKED: ENDBRANCH   2   3
DOCKED: ENDBRANCH   1   2
DOCKED: BRANCH   1   7
DOCKED: ATOM      7  C   UNL d   1      -5.892 -12.167  -1.143 -0.21 +0.24    +0.201 C 
DOCKED: BRANCH   7   8
DOCKED: ATOM      8  O   UNL d   1      -4.449 -12.186  -1.209 -0.25 -0.50    -0.364 OA
DOCKED: BRANCH   8   9
DOCKED: ATOM      9  P   UNL d   1      -3.676 -11.761  -2.609 -0.38 -0.02    -0.015 P 
DOCKED: ATOM     10  O   UNL d   1      -2.577 -12.814  -2.793 -0.46 -0.99    -0.577 OA
DOCKED: ATOM     11  O   UNL d   1      -3.098 -10.363  -2.393 -0.04 -0.37    -0.577 OA
DOCKED: ATOM     12  O   UNL d   1      -4.714 -11.812  -3.730 -0.27 -0.92    -0.638 OA
DOCKED: ENDBRANCH   8   9
DOCKED: ENDBRANCH   7   8
DOCKED: ENDBRANCH   1   7
DOCKED: BRANCH   1  13
DOCKED: ATOM     13  C   UNL d   1      -7.287 -12.651   0.944 -0.19 +0.09    +0.073 C 
DOCKED: ATOM     14  O   UNL d   1      -6.669 -12.594   2.065 -0.65 -1.02    -0.547 OA
DOCKED: ATOM     15  O   UNL d   1      -8.450 -12.150   0.731 -0.40 -0.45    -0.547 OA
DOCKED: ENDBRANCH   1  13
DOCKED: TORSDOF 6
DOCKED: TER
DOCKED: ENDMDL
________________________________________________________________________________


	BEGINNING GENETIC ALGORITHM DOCKING 74 of 100
Run: 74 Seed: 1564700741 714666267 [ Run 74 of 100 GA/GALS ]
Beginning LAMARCKIAN GENETIC ALGORITHM (LGA), with a maximum of 25000000 energy evaluations.

Final-Value: -9.546


	FINAL GENETIC ALGORITHM DOCKED STATE
	_______________________________________________


Detailed state:  trans -6.716 -13.917 -0.414 quatxyzw 0.456996 0.607903 0.646546 0.059891 center 0.015 0.083 0.031 ntor 6 111.2845 -74.7179 89.9791 51.6548 1.7795 -45.0458
State:	 -6.716 -13.917  -0.414   0.458  0.609  0.648 173.133    111.28  -74.72   89.98   51.65    1.78  -45.05

DOCKED: MODEL       74
DOCKED: USER    Run = 74
DOCKED: USER    DPF = D:/Protein_go_brrr/autodock/final/AncA/2_3_BPG/dock.dpf
DOCKED: USER  
DOCKED: USER    Estimated Free Energy of Binding    =   -9.83 kcal/mol  [=(1)+(2)+(3)-(4)]
DOCKED: USER    Estimated Inhibition Constant, Ki   =   61.78 nM (nanomolar)  [Temperature = 298.15 K]
DOCKED: USER    
DOCKED: USER    (1) Final Intermolecular Energy     =  -11.62 kcal/mol
DOCKED: USER        vdW + Hbond + desolv Energy     =   -3.51 kcal/mol
DOCKED: USER        Electrostatic Energy            =   -8.11 kcal/mol
DOCKED: USER    (2) Final Total Internal Energy     =   +2.08 kcal/mol
DOCKED: USER    (3) Torsional Free Energy           =   +1.79 kcal/mol
DOCKED: USER    (4) Unbound System's Energy  [=(2)] =   +2.08 kcal/mol
DOCKED: USER    
DOCKED: USER    
DOCKED: USER    NEWDPF move 2_3_BPG_opt.pdbqt
DOCKED: USER    NEWDPF about 0.015000 0.083000 0.031000
DOCKED: USER    NEWDPF tran0 -6.716103 -13.916790 -0.413791
DOCKED: USER    NEWDPF quaternion0 0.456996 0.607903 0.646546 0.059891
DOCKED: USER    NEWDPF axisangle0 0.457817 0.608996 0.647709 173.132841
DOCKED: USER    NEWDPF quat0 0.457817 0.608996 0.647709 173.132841
DOCKED: USER    NEWDPF dihe0 111.28 -74.72 89.98 51.65 1.78 -45.05 
DOCKED: USER  keepresnum = 1 
DOCKED: USER  
DOCKED: REMARK  6 active torsions:
DOCKED: REMARK  status: ('A' for Active; 'I' for Inactive)
DOCKED: REMARK    1  A    between atoms: P_1  and  O_3 
DOCKED: REMARK    2  A    between atoms: P_2  and  O_4 
DOCKED: REMARK    3  A    between atoms: O_3  and  C_13 
DOCKED: REMARK    4  A    between atoms: O_4  and  C_14 
DOCKED: REMARK    5  A    between atoms: C_13  and  C_14 
DOCKED: REMARK    6  A    between atoms: C_13  and  C_15 
DOCKED: USER                              x       y       z     vdW  Elec       q    Type
DOCKED: USER                           _______ _______ _______ _____ _____    ______ ____
DOCKED: ROOT
DOCKED: ATOM      1  C   UNL d   1      -6.528 -14.040  -1.046 -0.13 +0.33    +0.193 C 
DOCKED: ENDROOT
DOCKED: BRANCH   1   2
DOCKED: ATOM      2  O   UNL d   1      -5.752 -15.285  -1.058 -0.48 -0.81    -0.356 OA
DOCKED: BRANCH   2   3
DOCKED: ATOM      3  P   UNL d   1      -4.163 -15.362  -0.645 -0.08 -0.03    -0.014 P 
DOCKED: ATOM      4  O   UNL d   1      -4.166 -15.912   0.790 -0.14 -1.29    -0.577 OA
DOCKED: ATOM      5  O   UNL d   1      -3.611 -13.939  -0.700 -0.09 -1.09    -0.577 OA
DOCKED: ATOM      6  O   UNL d   1      -3.471 -16.320  -1.610 -0.03 -1.34    -0.638 OA
DOCKED: ENDBRANCH   2   3
DOCKED: ENDBRANCH   1   2
DOCKED: BRANCH   1   7
DOCKED: ATOM      7  C   UNL d   1      -7.218 -13.889   0.360 -0.15 +0.28    +0.201 C 
DOCKED: BRANCH   7   8
DOCKED: ATOM      8  O   UNL d   1      -6.769 -12.778   1.167 -0.46 -0.58    -0.364 OA
DOCKED: BRANCH   8   9
DOCKED: ATOM      9  P   UNL d   1      -7.336 -12.590   2.710 -0.26 -0.02    -0.015 P 
DOCKED: ATOM     10  O   UNL d   1      -8.621 -11.767   2.564 -0.41 -0.45    -0.577 OA
DOCKED: ATOM     11  O   UNL d   1      -6.261 -11.836   3.492 -0.59 -0.81    -0.577 OA
DOCKED: ATOM     12  O   UNL d   1      -7.609 -13.988   3.264 -0.22 -1.12    -0.638 OA
DOCKED: ENDBRANCH   8   9
DOCKED: ENDBRANCH   7   8
DOCKED: ENDBRANCH   1   7
DOCKED: BRANCH   1  13
DOCKED: ATOM     13  C   UNL d   1      -7.646 -14.089  -2.153 -0.18 +0.09    +0.073 C 
DOCKED: ATOM     14  O   UNL d   1      -8.596 -13.231  -2.102 -0.02 -0.42    -0.547 OA
DOCKED: ATOM     15  O   UNL d   1      -7.502 -14.957  -3.088 -0.26 -0.86    -0.547 OA
DOCKED: ENDBRANCH   1  13
DOCKED: TORSDOF 6
DOCKED: TER
DOCKED: ENDMDL
________________________________________________________________________________


	BEGINNING GENETIC ALGORITHM DOCKING 75 of 100
Run: 75 Seed: 5638433 916836250 [ Run 75 of 100 GA/GALS ]
Beginning LAMARCKIAN GENETIC ALGORITHM (LGA), with a maximum of 25000000 energy evaluations.

Final-Value: -9.813


	FINAL GENETIC ALGORITHM DOCKED STATE
	_______________________________________________


Detailed state:  trans -5.948 -13.015 0.151 quatxyzw 0.322881 0.366212 0.828639 -0.273851 center 0.015 0.083 0.031 ntor 6 -129.9237 -59.2970 -152.1168 -6.7340 54.8921 -49.6775
State:	 -5.948 -13.015   0.151   0.336  0.381  0.862 -148.213   -129.92  -59.30 -152.12   -6.73   54.89  -49.68

DOCKED: MODEL       75
DOCKED: USER    Run = 75
DOCKED: USER    DPF = D:/Protein_go_brrr/autodock/final/AncA/2_3_BPG/dock.dpf
DOCKED: USER  
DOCKED: USER    Estimated Free Energy of Binding    =  -10.32 kcal/mol  [=(1)+(2)+(3)-(4)]
DOCKED: USER    Estimated Inhibition Constant, Ki   =   27.47 nM (nanomolar)  [Temperature = 298.15 K]
DOCKED: USER    
DOCKED: USER    (1) Final Intermolecular Energy     =  -12.10 kcal/mol
DOCKED: USER        vdW + Hbond + desolv Energy     =   -3.72 kcal/mol
DOCKED: USER        Electrostatic Energy            =   -8.39 kcal/mol
DOCKED: USER    (2) Final Total Internal Energy     =   +2.29 kcal/mol
DOCKED: USER    (3) Torsional Free Energy           =   +1.79 kcal/mol
DOCKED: USER    (4) Unbound System's Energy  [=(2)] =   +2.29 kcal/mol
DOCKED: USER    
DOCKED: USER    
DOCKED: USER    NEWDPF move 2_3_BPG_opt.pdbqt
DOCKED: USER    NEWDPF about 0.015000 0.083000 0.031000
DOCKED: USER    NEWDPF tran0 -5.948477 -13.014578 0.151406
DOCKED: USER    NEWDPF quaternion0 0.322881 0.366212 0.828639 -0.273851
DOCKED: USER    NEWDPF axisangle0 0.335715 0.380768 0.861575 -148.212852
DOCKED: USER    NEWDPF quat0 0.335715 0.380768 0.861575 -148.212852
DOCKED: USER    NEWDPF dihe0 -129.92 -59.30 -152.12 -6.73 54.89 -49.68 
DOCKED: USER  keepresnum = 1 
DOCKED: USER  
DOCKED: REMARK  6 active torsions:
DOCKED: REMARK  status: ('A' for Active; 'I' for Inactive)
DOCKED: REMARK    1  A    between atoms: P_1  and  O_3 
DOCKED: REMARK    2  A    between atoms: P_2  and  O_4 
DOCKED: REMARK    3  A    between atoms: O_3  and  C_13 
DOCKED: REMARK    4  A    between atoms: O_4  and  C_14 
DOCKED: REMARK    5  A    between atoms: C_13  and  C_14 
DOCKED: REMARK    6  A    between atoms: C_13  and  C_15 
DOCKED: USER                              x       y       z     vdW  Elec       q    Type
DOCKED: USER                           _______ _______ _______ _____ _____    ______ ____
DOCKED: ROOT
DOCKED: ATOM      1  C   UNL d   1      -5.436 -13.198  -0.240 -0.19 +0.33    +0.193 C 
DOCKED: ENDROOT
DOCKED: BRANCH   1   2
DOCKED: ATOM      2  O   UNL d   1      -5.409 -14.663  -0.303 -0.67 -0.78    -0.356 OA
DOCKED: BRANCH   2   3
DOCKED: ATOM      3  P   UNL d   1      -4.021 -15.544  -0.247 -0.18 -0.03    -0.014 P 
DOCKED: ATOM      4  O   UNL d   1      -4.143 -16.370   1.043 -0.12 -1.14    -0.577 OA
DOCKED: ATOM      5  O   UNL d   1      -2.860 -14.554  -0.173 -0.06 -0.91    -0.577 OA
DOCKED: ATOM      6  O   UNL d   1      -3.981 -16.437  -1.483 +0.01 -1.33    -0.638 OA
DOCKED: ENDBRANCH   2   3
DOCKED: ENDBRANCH   1   2
DOCKED: BRANCH   1   7
DOCKED: ATOM      7  C   UNL d   1      -6.788 -12.745   0.426 -0.19 +0.27    +0.201 C 
DOCKED: BRANCH   7   8
DOCKED: ATOM      8  O   UNL d   1      -6.679 -12.180   1.751 -0.64 -0.57    -0.364 OA
DOCKED: BRANCH   8   9
DOCKED: ATOM      9  P   UNL d   1      -7.501 -12.861   3.014 -0.26 -0.02    -0.015 P 
DOCKED: ATOM     10  O   UNL d   1      -7.599 -14.352   2.668 -0.04 -1.05    -0.577 OA
DOCKED: ATOM     11  O   UNL d   1      -8.876 -12.195   3.063 -0.08 -0.40    -0.577 OA
DOCKED: ATOM     12  O   UNL d   1      -6.673 -12.618   4.275 -0.66 -0.99    -0.638 OA
DOCKED: ENDBRANCH   8   9
DOCKED: ENDBRANCH   7   8
DOCKED: ENDBRANCH   1   7
DOCKED: BRANCH   1  13
DOCKED: ATOM     13  C   UNL d   1      -5.364 -12.594  -1.693 -0.19 +0.12    +0.073 C 
DOCKED: ATOM     14  O   UNL d   1      -4.234 -12.590  -2.297 -0.38 -1.25    -0.547 OA
DOCKED: ATOM     15  O   UNL d   1      -6.467 -12.196  -2.214 -0.07 -0.64    -0.547 OA
DOCKED: ENDBRANCH   1  13
DOCKED: TORSDOF 6
DOCKED: TER
DOCKED: ENDMDL
________________________________________________________________________________


	BEGINNING GENETIC ALGORITHM DOCKING 76 of 100
Run: 76 Seed: 925189649 521202570 [ Run 76 of 100 GA/GALS ]
Beginning LAMARCKIAN GENETIC ALGORITHM (LGA), with a maximum of 25000000 energy evaluations.

Final-Value: -9.490


	FINAL GENETIC ALGORITHM DOCKED STATE
	_______________________________________________


Detailed state:  trans -6.500 -13.705 -0.160 quatxyzw -0.494103 -0.499973 -0.711048 -0.017297 center 0.015 0.083 0.031 ntor 6 125.5252 -79.2446 69.4932 55.7928 3.4083 -27.0075
State:	 -6.500 -13.705  -0.160  -0.494 -0.500 -0.711 -178.018    125.53  -79.24   69.49   55.79    3.41  -27.01

DOCKED: MODEL       76
DOCKED: USER    Run = 76
DOCKED: USER    DPF = D:/Protein_go_brrr/autodock/final/AncA/2_3_BPG/dock.dpf
DOCKED: USER  
DOCKED: USER    Estimated Free Energy of Binding    =   -9.74 kcal/mol  [=(1)+(2)+(3)-(4)]
DOCKED: USER    Estimated Inhibition Constant, Ki   =   72.91 nM (nanomolar)  [Temperature = 298.15 K]
DOCKED: USER    
DOCKED: USER    (1) Final Intermolecular Energy     =  -11.53 kcal/mol
DOCKED: USER        vdW + Hbond + desolv Energy     =   -3.80 kcal/mol
DOCKED: USER        Electrostatic Energy            =   -7.72 kcal/mol
DOCKED: USER    (2) Final Total Internal Energy     =   +2.04 kcal/mol
DOCKED: USER    (3) Torsional Free Energy           =   +1.79 kcal/mol
DOCKED: USER    (4) Unbound System's Energy  [=(2)] =   +2.04 kcal/mol
DOCKED: USER    
DOCKED: USER    
DOCKED: USER    NEWDPF move 2_3_BPG_opt.pdbqt
DOCKED: USER    NEWDPF about 0.015000 0.083000 0.031000
DOCKED: USER    NEWDPF tran0 -6.500333 -13.704601 -0.160028
DOCKED: USER    NEWDPF quaternion0 -0.494103 -0.499973 -0.711048 -0.017297
DOCKED: USER    NEWDPF axisangle0 -0.494177 -0.500048 -0.711154 -178.017823
DOCKED: USER    NEWDPF quat0 -0.494177 -0.500048 -0.711154 -178.017823
DOCKED: USER    NEWDPF dihe0 125.53 -79.24 69.49 55.79 3.41 -27.01 
DOCKED: USER  keepresnum = 1 
DOCKED: USER  
DOCKED: REMARK  6 active torsions:
DOCKED: REMARK  status: ('A' for Active; 'I' for Inactive)
DOCKED: REMARK    1  A    between atoms: P_1  and  O_3 
DOCKED: REMARK    2  A    between atoms: P_2  and  O_4 
DOCKED: REMARK    3  A    between atoms: O_3  and  C_13 
DOCKED: REMARK    4  A    between atoms: O_4  and  C_14 
DOCKED: REMARK    5  A    between atoms: C_13  and  C_14 
DOCKED: REMARK    6  A    between atoms: C_13  and  C_15 
DOCKED: USER                              x       y       z     vdW  Elec       q    Type
DOCKED: USER                           _______ _______ _______ _____ _____    ______ ____
DOCKED: ROOT
DOCKED: ATOM      1  C   UNL d   1      -6.299 -13.756  -0.797 -0.18 +0.32    +0.193 C 
DOCKED: ENDROOT
DOCKED: BRANCH   1   2
DOCKED: ATOM      2  O   UNL d   1      -5.789 -15.116  -1.007 -0.49 -0.81    -0.356 OA
DOCKED: BRANCH   2   3
DOCKED: ATOM      3  P   UNL d   1      -4.316 -15.619  -0.477 -0.12 -0.03    -0.014 P 
DOCKED: ATOM      4  O   UNL d   1      -4.608 -16.319   0.859 -0.24 -1.21    -0.577 OA
DOCKED: ATOM      5  O   UNL d   1      -3.455 -14.373  -0.283 -0.10 -1.05    -0.577 OA
DOCKED: ATOM      6  O   UNL d   1      -3.752 -16.593  -1.507 -0.05 -1.23    -0.638 OA
DOCKED: ENDBRANCH   2   3
DOCKED: ENDBRANCH   1   2
DOCKED: BRANCH   1   7
DOCKED: ATOM      7  C   UNL d   1      -7.038 -13.703   0.590 -0.16 +0.31    +0.201 C 
DOCKED: BRANCH   7   8
DOCKED: ATOM      8  O   UNL d   1      -6.694 -12.590   1.445 -0.63 -0.59    -0.364 OA
DOCKED: BRANCH   8   9
DOCKED: ATOM      9  P   UNL d   1      -7.285 -12.516   2.989 -0.23 -0.02    -0.015 P 
DOCKED: ATOM     10  O   UNL d   1      -8.327 -11.391   2.963 -0.34 -0.44    -0.577 OA
DOCKED: ATOM     11  O   UNL d   1      -6.106 -12.181   3.902 -0.58 -0.93    -0.577 OA
DOCKED: ATOM     12  O   UNL d   1      -7.913 -13.874   3.297 -0.25 -0.89    -0.638 OA
DOCKED: ENDBRANCH   8   9
DOCKED: ENDBRANCH   7   8
DOCKED: ENDBRANCH   1   7
DOCKED: BRANCH   1  13
DOCKED: ATOM     13  C   UNL d   1      -7.327 -13.384  -1.930 -0.22 +0.09    +0.073 C 
DOCKED: ATOM     14  O   UNL d   1      -7.885 -12.232  -1.895 -0.04 -0.43    -0.547 OA
DOCKED: ATOM     15  O   UNL d   1      -7.497 -14.245  -2.868 -0.20 -0.81    -0.547 OA
DOCKED: ENDBRANCH   1  13
DOCKED: TORSDOF 6
DOCKED: TER
DOCKED: ENDMDL
________________________________________________________________________________


	BEGINNING GENETIC ALGORITHM DOCKING 77 of 100
Run: 77 Seed: 1574209007 961536420 [ Run 77 of 100 GA/GALS ]
Beginning LAMARCKIAN GENETIC ALGORITHM (LGA), with a maximum of 25000000 energy evaluations.

Final-Value: -10.151


	FINAL GENETIC ALGORITHM DOCKED STATE
	_______________________________________________


Detailed state:  trans -6.246 -12.979 0.059 quatxyzw 0.098455 0.512098 0.850159 -0.072753 center 0.015 0.083 0.031 ntor 6 73.7317 65.1353 158.5387 -157.0048 71.3617 -44.9460
State:	 -6.246 -12.979   0.059   0.099  0.513  0.852 -171.656     73.73   65.14  158.54 -157.00   71.36  -44.95

DOCKED: MODEL       77
DOCKED: USER    Run = 77
DOCKED: USER    DPF = D:/Protein_go_brrr/autodock/final/AncA/2_3_BPG/dock.dpf
DOCKED: USER  
DOCKED: USER    Estimated Free Energy of Binding    =  -10.97 kcal/mol  [=(1)+(2)+(3)-(4)]
DOCKED: USER    Estimated Inhibition Constant, Ki   =    9.16 nM (nanomolar)  [Temperature = 298.15 K]
DOCKED: USER    
DOCKED: USER    (1) Final Intermolecular Energy     =  -12.76 kcal/mol
DOCKED: USER        vdW + Hbond + desolv Energy     =   -4.10 kcal/mol
DOCKED: USER        Electrostatic Energy            =   -8.66 kcal/mol
DOCKED: USER    (2) Final Total Internal Energy     =   +2.60 kcal/mol
DOCKED: USER    (3) Torsional Free Energy           =   +1.79 kcal/mol
DOCKED: USER    (4) Unbound System's Energy  [=(2)] =   +2.60 kcal/mol
DOCKED: USER    
DOCKED: USER    
DOCKED: USER    NEWDPF move 2_3_BPG_opt.pdbqt
DOCKED: USER    NEWDPF about 0.015000 0.083000 0.031000
DOCKED: USER    NEWDPF tran0 -6.245696 -12.978508 0.059301
DOCKED: USER    NEWDPF quaternion0 0.098455 0.512098 0.850159 -0.072753
DOCKED: USER    NEWDPF axisangle0 0.098716 0.513458 0.852417 -171.655743
DOCKED: USER    NEWDPF quat0 0.098716 0.513458 0.852417 -171.655743
DOCKED: USER    NEWDPF dihe0 73.73 65.14 158.54 -157.00 71.36 -44.95 
DOCKED: USER  keepresnum = 1 
DOCKED: USER  
DOCKED: REMARK  6 active torsions:
DOCKED: REMARK  status: ('A' for Active; 'I' for Inactive)
DOCKED: REMARK    1  A    between atoms: P_1  and  O_3 
DOCKED: REMARK    2  A    between atoms: P_2  and  O_4 
DOCKED: REMARK    3  A    between atoms: O_3  and  C_13 
DOCKED: REMARK    4  A    between atoms: O_4  and  C_14 
DOCKED: REMARK    5  A    between atoms: C_13  and  C_14 
DOCKED: REMARK    6  A    between atoms: C_13  and  C_15 
DOCKED: USER                              x       y       z     vdW  Elec       q    Type
DOCKED: USER                           _______ _______ _______ _____ _____    ______ ____
DOCKED: ROOT
DOCKED: ATOM      1  C   UNL d   1      -5.648 -12.885  -0.229 -0.21 +0.29    +0.193 C 
DOCKED: ENDROOT
DOCKED: BRANCH   1   2
DOCKED: ATOM      2  O   UNL d   1      -4.803 -14.043   0.087 -0.39 -0.80    -0.356 OA
DOCKED: BRANCH   2   3
DOCKED: ATOM      3  P   UNL d   1      -5.047 -15.539  -0.551 -0.06 -0.03    -0.014 P 
DOCKED: ATOM      4  O   UNL d   1      -5.320 -16.435   0.668 -0.34 -1.09    -0.577 OA
DOCKED: ATOM      5  O   UNL d   1      -3.759 -15.941  -1.267 +0.07 -1.26    -0.577 OA
DOCKED: ATOM      6  O   UNL d   1      -6.259 -15.466  -1.474 -0.54 -1.45    -0.638 OA
DOCKED: ENDBRANCH   2   3
DOCKED: ENDBRANCH   1   2
DOCKED: BRANCH   1   7
DOCKED: ATOM      7  C   UNL d   1      -7.129 -13.214   0.185 -0.19 +0.26    +0.201 C 
DOCKED: BRANCH   7   8
DOCKED: ATOM      8  O   UNL d   1      -7.676 -12.416   1.258 -0.68 -0.43    -0.364 OA
DOCKED: BRANCH   8   9
DOCKED: ATOM      9  P   UNL d   1      -7.861 -13.069   2.767 -0.38 -0.02    -0.015 P 
DOCKED: ATOM     10  O   UNL d   1      -7.836 -14.587   2.550 -0.02 -0.88    -0.577 OA
DOCKED: ATOM     11  O   UNL d   1      -9.213 -12.590   3.297 -0.02 -0.37    -0.577 OA
DOCKED: ATOM     12  O   UNL d   1      -6.683 -12.590   3.614 -0.66 -1.21    -0.638 OA
DOCKED: ENDBRANCH   8   9
DOCKED: ENDBRANCH   7   8
DOCKED: ENDBRANCH   1   7
DOCKED: BRANCH   1  13
DOCKED: ATOM     13  C   UNL d   1      -5.609 -12.595  -1.776 -0.21 +0.12    +0.073 C 
DOCKED: ATOM     14  O   UNL d   1      -6.719 -12.497  -2.407 -0.07 -0.68    -0.547 OA
DOCKED: ATOM     15  O   UNL d   1      -4.454 -12.408  -2.304 -0.38 -1.11    -0.547 OA
DOCKED: ENDBRANCH   1  13
DOCKED: TORSDOF 6
DOCKED: TER
DOCKED: ENDMDL
________________________________________________________________________________


	BEGINNING GENETIC ALGORITHM DOCKING 78 of 100
Run: 78 Seed: 633397944 2104622332 [ Run 78 of 100 GA/GALS ]
Beginning LAMARCKIAN GENETIC ALGORITHM (LGA), with a maximum of 25000000 energy evaluations.

Final-Value: -9.869


	FINAL GENETIC ALGORITHM DOCKED STATE
	_______________________________________________


Detailed state:  trans -6.402 -13.340 -0.023 quatxyzw 0.419117 0.561836 0.699381 -0.139810 center 0.015 0.083 0.031 ntor 6 142.6977 -44.8036 -145.8912 11.8356 18.8056 -72.6397
State:	 -6.402 -13.340  -0.023   0.423  0.567  0.706 -163.926    142.70  -44.80 -145.89   11.84   18.81  -72.64

DOCKED: MODEL       78
DOCKED: USER    Run = 78
DOCKED: USER    DPF = D:/Protein_go_brrr/autodock/final/AncA/2_3_BPG/dock.dpf
DOCKED: USER  
DOCKED: USER    Estimated Free Energy of Binding    =  -10.15 kcal/mol  [=(1)+(2)+(3)-(4)]
DOCKED: USER    Estimated Inhibition Constant, Ki   =   36.49 nM (nanomolar)  [Temperature = 298.15 K]
DOCKED: USER    
DOCKED: USER    (1) Final Intermolecular Energy     =  -11.94 kcal/mol
DOCKED: USER        vdW + Hbond + desolv Energy     =   -3.92 kcal/mol
DOCKED: USER        Electrostatic Energy            =   -8.02 kcal/mol
DOCKED: USER    (2) Final Total Internal Energy     =   +2.07 kcal/mol
DOCKED: USER    (3) Torsional Free Energy           =   +1.79 kcal/mol
DOCKED: USER    (4) Unbound System's Energy  [=(2)] =   +2.07 kcal/mol
DOCKED: USER    
DOCKED: USER    
DOCKED: USER    NEWDPF move 2_3_BPG_opt.pdbqt
DOCKED: USER    NEWDPF about 0.015000 0.083000 0.031000
DOCKED: USER    NEWDPF tran0 -6.401553 -13.340249 -0.022663
DOCKED: USER    NEWDPF quaternion0 0.419117 0.561836 0.699381 -0.139810
DOCKED: USER    NEWDPF axisangle0 0.423274 0.567409 0.706318 -163.926295
DOCKED: USER    NEWDPF quat0 0.423274 0.567409 0.706318 -163.926295
DOCKED: USER    NEWDPF dihe0 142.70 -44.80 -145.89 11.84 18.81 -72.64 
DOCKED: USER  keepresnum = 1 
DOCKED: USER  
DOCKED: REMARK  6 active torsions:
DOCKED: REMARK  status: ('A' for Active; 'I' for Inactive)
DOCKED: REMARK    1  A    between atoms: P_1  and  O_3 
DOCKED: REMARK    2  A    between atoms: P_2  and  O_4 
DOCKED: REMARK    3  A    between atoms: O_3  and  C_13 
DOCKED: REMARK    4  A    between atoms: O_4  and  C_14 
DOCKED: REMARK    5  A    between atoms: C_13  and  C_14 
DOCKED: REMARK    6  A    between atoms: C_13  and  C_15 
DOCKED: USER                              x       y       z     vdW  Elec       q    Type
DOCKED: USER                           _______ _______ _______ _____ _____    ______ ____
DOCKED: ROOT
DOCKED: ATOM      1  C   UNL d   1      -6.061 -13.566  -0.554 -0.20 +0.32    +0.193 C 
DOCKED: ENDROOT
DOCKED: BRANCH   1   2
DOCKED: ATOM      2  O   UNL d   1      -5.679 -14.959  -0.295 -0.65 -0.74    -0.356 OA
DOCKED: BRANCH   2   3
DOCKED: ATOM      3  P   UNL d   1      -4.119 -15.477  -0.267 -0.17 -0.03    -0.014 P 
DOCKED: ATOM      4  O   UNL d   1      -4.008 -16.288   1.033 -0.11 -1.14    -0.577 OA
DOCKED: ATOM      5  O   UNL d   1      -3.230 -14.235  -0.232 -0.07 -0.99    -0.577 OA
DOCKED: ATOM      6  O   UNL d   1      -3.891 -16.352  -1.495 +0.03 -1.37    -0.638 OA
DOCKED: ENDBRANCH   2   3
DOCKED: ENDBRANCH   1   2
DOCKED: BRANCH   1   7
DOCKED: ATOM      7  C   UNL d   1      -7.099 -13.115   0.539 -0.20 +0.27    +0.201 C 
DOCKED: BRANCH   7   8
DOCKED: ATOM      8  O   UNL d   1      -6.538 -12.592   1.763 -0.62 -0.67    -0.364 OA
DOCKED: BRANCH   8   9
DOCKED: ATOM      9  P   UNL d   1      -7.434 -12.593   3.154 -0.39 -0.02    -0.015 P 
DOCKED: ATOM     10  O   UNL d   1      -8.252 -13.889   3.100 -0.11 -0.68    -0.577 OA
DOCKED: ATOM     11  O   UNL d   1      -8.326 -11.353   3.110 -0.31 -0.42    -0.577 OA
DOCKED: ATOM     12  O   UNL d   1      -6.452 -12.582   4.324 -0.61 -1.03    -0.638 OA
DOCKED: ENDBRANCH   8   9
DOCKED: ENDBRANCH   7   8
DOCKED: ENDBRANCH   1   7
DOCKED: BRANCH   1  13
DOCKED: ATOM     13  C   UNL d   1      -6.737 -13.446  -1.971 -0.13 +0.12    +0.073 C 
DOCKED: ATOM     14  O   UNL d   1      -6.845 -12.285  -2.500 -0.07 -0.61    -0.547 OA
DOCKED: ATOM     15  O   UNL d   1      -7.086 -14.540  -2.544 -0.31 -1.05    -0.547 OA
DOCKED: ENDBRANCH   1  13
DOCKED: TORSDOF 6
DOCKED: TER
DOCKED: ENDMDL
________________________________________________________________________________


	BEGINNING GENETIC ALGORITHM DOCKING 79 of 100
Run: 79 Seed: 647281985 1164792675 [ Run 79 of 100 GA/GALS ]
Beginning LAMARCKIAN GENETIC ALGORITHM (LGA), with a maximum of 25000000 energy evaluations.

Final-Value: -9.537


	FINAL GENETIC ALGORITHM DOCKED STATE
	_______________________________________________


Detailed state:  trans -6.903 -13.385 -0.446 quatxyzw -0.570822 0.602672 0.554755 0.056534 center 0.015 0.083 0.031 ntor 6 -37.4855 14.4627 -100.1307 79.2642 -70.2840 83.9435
State:	 -6.903 -13.385  -0.446  -0.572  0.604  0.556 173.518    -37.49   14.46 -100.13   79.26  -70.28   83.94

DOCKED: MODEL       79
DOCKED: USER    Run = 79
DOCKED: USER    DPF = D:/Protein_go_brrr/autodock/final/AncA/2_3_BPG/dock.dpf
DOCKED: USER  
DOCKED: USER    Estimated Free Energy of Binding    =  -10.28 kcal/mol  [=(1)+(2)+(3)-(4)]
DOCKED: USER    Estimated Inhibition Constant, Ki   =   29.26 nM (nanomolar)  [Temperature = 298.15 K]
DOCKED: USER    
DOCKED: USER    (1) Final Intermolecular Energy     =  -12.07 kcal/mol
DOCKED: USER        vdW + Hbond + desolv Energy     =   -3.81 kcal/mol
DOCKED: USER        Electrostatic Energy            =   -8.25 kcal/mol
DOCKED: USER    (2) Final Total Internal Energy     =   +2.53 kcal/mol
DOCKED: USER    (3) Torsional Free Energy           =   +1.79 kcal/mol
DOCKED: USER    (4) Unbound System's Energy  [=(2)] =   +2.53 kcal/mol
DOCKED: USER    
DOCKED: USER    
DOCKED: USER    NEWDPF move 2_3_BPG_opt.pdbqt
DOCKED: USER    NEWDPF about 0.015000 0.083000 0.031000
DOCKED: USER    NEWDPF tran0 -6.903212 -13.384644 -0.446269
DOCKED: USER    NEWDPF quaternion0 -0.570822 0.602672 0.554755 0.056534
DOCKED: USER    NEWDPF axisangle0 -0.571736 0.603637 0.555644 173.518218
DOCKED: USER    NEWDPF quat0 -0.571736 0.603637 0.555644 173.518218
DOCKED: USER    NEWDPF dihe0 -37.49 14.46 -100.13 79.26 -70.28 83.94 
DOCKED: USER  keepresnum = 1 
DOCKED: USER  
DOCKED: REMARK  6 active torsions:
DOCKED: REMARK  status: ('A' for Active; 'I' for Inactive)
DOCKED: REMARK    1  A    between atoms: P_1  and  O_3 
DOCKED: REMARK    2  A    between atoms: P_2  and  O_4 
DOCKED: REMARK    3  A    between atoms: O_3  and  C_13 
DOCKED: REMARK    4  A    between atoms: O_4  and  C_14 
DOCKED: REMARK    5  A    between atoms: C_13  and  C_14 
DOCKED: REMARK    6  A    between atoms: C_13  and  C_15 
DOCKED: USER                              x       y       z     vdW  Elec       q    Type
DOCKED: USER                           _______ _______ _______ _____ _____    ______ ____
DOCKED: ROOT
DOCKED: ATOM      1  C   UNL d   1      -6.573 -12.805  -0.379 -0.22 +0.24    +0.193 C 
DOCKED: ENDROOT
DOCKED: BRANCH   1   2
DOCKED: ATOM      2  O   UNL d   1      -6.262 -12.619   1.043 -0.38 -0.59    -0.356 OA
DOCKED: BRANCH   2   3
DOCKED: ATOM      3  P   UNL d   1      -7.395 -12.693   2.232 -0.23 -0.02    -0.014 P 
DOCKED: ATOM      4  O   UNL d   1      -6.669 -12.180   3.485 -0.76 -0.88    -0.577 OA
DOCKED: ATOM      5  O   UNL d   1      -7.802 -14.158   2.379 -0.07 -0.89    -0.577 OA
DOCKED: ATOM      6  O   UNL d   1      -8.550 -11.778   1.840 -0.48 -0.55    -0.638 OA
DOCKED: ENDBRANCH   2   3
DOCKED: ENDBRANCH   1   2
DOCKED: BRANCH   1   7
DOCKED: ATOM      7  C   UNL d   1      -7.082 -14.278  -0.595 -0.13 +0.28    +0.201 C 
DOCKED: BRANCH   7   8
DOCKED: ATOM      8  O   UNL d   1      -6.260 -15.111  -1.443 -0.56 -0.85    -0.364 OA
DOCKED: BRANCH   8   9
DOCKED: ATOM      9  P   UNL d   1      -5.451 -16.404  -0.803 -0.08 -0.03    -0.015 P 
DOCKED: ATOM     10  O   UNL d   1      -6.488 -17.531  -0.739 +0.00 -0.60    -0.577 OA
DOCKED: ATOM     11  O   UNL d   1      -4.975 -15.987   0.589 -0.42 -1.30    -0.577 OA
DOCKED: ATOM     12  O   UNL d   1      -4.302 -16.733  -1.754 +0.04 -1.36    -0.638 OA
DOCKED: ENDBRANCH   8   9
DOCKED: ENDBRANCH   7   8
DOCKED: ENDBRANCH   1   7
DOCKED: BRANCH   1  13
DOCKED: ATOM     13  C   UNL d   1      -5.279 -12.586  -1.248 -0.28 +0.11    +0.073 C 
DOCKED: ATOM     14  O   UNL d   1      -4.139 -12.605  -0.663 -0.11 -0.80    -0.547 OA
DOCKED: ATOM     15  O   UNL d   1      -5.442 -12.463  -2.515 -0.12 -1.01    -0.547 OA
DOCKED: ENDBRANCH   1  13
DOCKED: TORSDOF 6
DOCKED: TER
DOCKED: ENDMDL
________________________________________________________________________________


	BEGINNING GENETIC ALGORITHM DOCKING 80 of 100
Run: 80 Seed: 1230270824 2105133497 [ Run 80 of 100 GA/GALS ]
Beginning LAMARCKIAN GENETIC ALGORITHM (LGA), with a maximum of 25000000 energy evaluations.

Final-Value: -9.444


	FINAL GENETIC ALGORITHM DOCKED STATE
	_______________________________________________


Detailed state:  trans -6.054 -13.163 -0.503 quatxyzw 0.522020 0.682878 0.499183 -0.109498 center 0.015 0.083 0.031 ntor 6 116.6888 -39.9938 -23.2335 24.9241 2.0554 -172.7611
State:	 -6.054 -13.163  -0.503   0.525  0.687  0.502 -167.427    116.69  -39.99  -23.23   24.92    2.06 -172.76

DOCKED: MODEL       80
DOCKED: USER    Run = 80
DOCKED: USER    DPF = D:/Protein_go_brrr/autodock/final/AncA/2_3_BPG/dock.dpf
DOCKED: USER  
DOCKED: USER    Estimated Free Energy of Binding    =   -9.77 kcal/mol  [=(1)+(2)+(3)-(4)]
DOCKED: USER    Estimated Inhibition Constant, Ki   =   69.26 nM (nanomolar)  [Temperature = 298.15 K]
DOCKED: USER    
DOCKED: USER    (1) Final Intermolecular Energy     =  -11.56 kcal/mol
DOCKED: USER        vdW + Hbond + desolv Energy     =   -3.59 kcal/mol
DOCKED: USER        Electrostatic Energy            =   -7.96 kcal/mol
DOCKED: USER    (2) Final Total Internal Energy     =   +2.11 kcal/mol
DOCKED: USER    (3) Torsional Free Energy           =   +1.79 kcal/mol
DOCKED: USER    (4) Unbound System's Energy  [=(2)] =   +2.11 kcal/mol
DOCKED: USER    
DOCKED: USER    
DOCKED: USER    NEWDPF move 2_3_BPG_opt.pdbqt
DOCKED: USER    NEWDPF about 0.015000 0.083000 0.031000
DOCKED: USER    NEWDPF tran0 -6.053850 -13.162833 -0.502801
DOCKED: USER    NEWDPF quaternion0 0.522020 0.682878 0.499183 -0.109498
DOCKED: USER    NEWDPF axisangle0 0.525178 0.687009 0.502203 -167.427250
DOCKED: USER    NEWDPF quat0 0.525178 0.687009 0.502203 -167.427250
DOCKED: USER    NEWDPF dihe0 116.69 -39.99 -23.23 24.92 2.06 -172.76 
DOCKED: USER  keepresnum = 1 
DOCKED: USER  
DOCKED: REMARK  6 active torsions:
DOCKED: REMARK  status: ('A' for Active; 'I' for Inactive)
DOCKED: REMARK    1  A    between atoms: P_1  and  O_3 
DOCKED: REMARK    2  A    between atoms: P_2  and  O_4 
DOCKED: REMARK    3  A    between atoms: O_3  and  C_13 
DOCKED: REMARK    4  A    between atoms: O_4  and  C_14 
DOCKED: REMARK    5  A    between atoms: C_13  and  C_14 
DOCKED: REMARK    6  A    between atoms: C_13  and  C_15 
DOCKED: USER                              x       y       z     vdW  Elec       q    Type
DOCKED: USER                           _______ _______ _______ _____ _____    ______ ____
DOCKED: ROOT
DOCKED: ATOM      1  C   UNL d   1      -5.927 -13.578  -1.013 -0.15 +0.35    +0.193 C 
DOCKED: ENDROOT
DOCKED: BRANCH   1   2
DOCKED: ATOM      2  O   UNL d   1      -5.424 -14.841  -0.461 -0.61 -0.78    -0.356 OA
DOCKED: BRANCH   2   3
DOCKED: ATOM      3  P   UNL d   1      -3.852 -15.312  -0.571 -0.13 -0.03    -0.014 P 
DOCKED: ATOM      4  O   UNL d   1      -3.515 -15.849   0.829 -0.06 -1.09    -0.577 OA
DOCKED: ATOM      5  O   UNL d   1      -3.031 -14.070  -0.910 -0.08 -1.01    -0.577 OA
DOCKED: ATOM      6  O   UNL d   1      -3.762 -16.408  -1.628 +0.07 -1.40    -0.638 OA
DOCKED: ENDBRANCH   2   3
DOCKED: ENDBRANCH   1   2
DOCKED: BRANCH   1   7
DOCKED: ATOM      7  C   UNL d   1      -6.500 -12.705   0.163 -0.21 +0.27    +0.201 C 
DOCKED: BRANCH   7   8
DOCKED: ATOM      8  O   UNL d   1      -6.697 -13.391   1.419 -0.12 -0.75    -0.364 OA
DOCKED: BRANCH   8   9
DOCKED: ATOM      9  P   UNL d   1      -7.411 -12.609   2.690 -0.32 -0.02    -0.015 P 
DOCKED: ATOM     10  O   UNL d   1      -7.932 -13.724   3.604 -0.30 -0.76    -0.577 OA
DOCKED: ATOM     11  O   UNL d   1      -8.549 -11.767   2.112 -0.53 -0.49    -0.577 OA
DOCKED: ATOM     12  O   UNL d   1      -6.330 -11.768   3.368 -0.54 -0.86    -0.638 OA
DOCKED: ENDBRANCH   8   9
DOCKED: ENDBRANCH   7   8
DOCKED: ENDBRANCH   1   7
DOCKED: BRANCH   1  13
DOCKED: ATOM     13  C   UNL d   1      -7.086 -13.862  -2.041 -0.14 +0.11    +0.073 C 
DOCKED: ATOM     14  O   UNL d   1      -7.768 -12.872  -2.481 -0.05 -0.53    -0.547 OA
DOCKED: ATOM     15  O   UNL d   1      -7.236 -15.077  -2.428 -0.43 -0.98    -0.547 OA
DOCKED: ENDBRANCH   1  13
DOCKED: TORSDOF 6
DOCKED: TER
DOCKED: ENDMDL
________________________________________________________________________________


	BEGINNING GENETIC ALGORITHM DOCKING 81 of 100
Run: 81 Seed: 119197746 2028519244 [ Run 81 of 100 GA/GALS ]
Beginning LAMARCKIAN GENETIC ALGORITHM (LGA), with a maximum of 25000000 energy evaluations.

Final-Value: -10.396


	FINAL GENETIC ALGORITHM DOCKED STATE
	_______________________________________________


Detailed state:  trans -7.970 -13.700 1.201 quatxyzw 0.423709 0.301913 -0.592531 -0.615001 center 0.015 0.083 0.031 ntor 6 10.2296 -157.9857 72.1823 9.5735 -40.2109 -121.9894
State:	 -7.970 -13.700   1.201   0.537  0.383 -0.751 -104.096     10.23 -157.99   72.18    9.57  -40.21 -121.99

DOCKED: MODEL       81
DOCKED: USER    Run = 81
DOCKED: USER    DPF = D:/Protein_go_brrr/autodock/final/AncA/2_3_BPG/dock.dpf
DOCKED: USER  
DOCKED: USER    Estimated Free Energy of Binding    =  -10.69 kcal/mol  [=(1)+(2)+(3)-(4)]
DOCKED: USER    Estimated Inhibition Constant, Ki   =   14.60 nM (nanomolar)  [Temperature = 298.15 K]
DOCKED: USER    
DOCKED: USER    (1) Final Intermolecular Energy     =  -12.48 kcal/mol
DOCKED: USER        vdW + Hbond + desolv Energy     =   -4.95 kcal/mol
DOCKED: USER        Electrostatic Energy            =   -7.53 kcal/mol
DOCKED: USER    (2) Final Total Internal Energy     =   +2.08 kcal/mol
DOCKED: USER    (3) Torsional Free Energy           =   +1.79 kcal/mol
DOCKED: USER    (4) Unbound System's Energy  [=(2)] =   +2.08 kcal/mol
DOCKED: USER    
DOCKED: USER    
DOCKED: USER    NEWDPF move 2_3_BPG_opt.pdbqt
DOCKED: USER    NEWDPF about 0.015000 0.083000 0.031000
DOCKED: USER    NEWDPF tran0 -7.969981 -13.699682 1.201468
DOCKED: USER    NEWDPF quaternion0 0.423709 0.301913 -0.592531 -0.615001
DOCKED: USER    NEWDPF axisangle0 0.537343 0.382883 -0.751441 -104.096031
DOCKED: USER    NEWDPF quat0 0.537343 0.382883 -0.751441 -104.096031
DOCKED: USER    NEWDPF dihe0 10.23 -157.99 72.18 9.57 -40.21 -121.99 
DOCKED: USER  keepresnum = 1 
DOCKED: USER  
DOCKED: REMARK  6 active torsions:
DOCKED: REMARK  status: ('A' for Active; 'I' for Inactive)
DOCKED: REMARK    1  A    between atoms: P_1  and  O_3 
DOCKED: REMARK    2  A    between atoms: P_2  and  O_4 
DOCKED: REMARK    3  A    between atoms: O_3  and  C_13 
DOCKED: REMARK    4  A    between atoms: O_4  and  C_14 
DOCKED: REMARK    5  A    between atoms: C_13  and  C_14 
DOCKED: REMARK    6  A    between atoms: C_13  and  C_15 
DOCKED: USER                              x       y       z     vdW  Elec       q    Type
DOCKED: USER                           _______ _______ _______ _____ _____    ______ ____
DOCKED: ROOT
DOCKED: ATOM      1  C   UNL d   1      -8.357 -13.485   1.705 -0.21 +0.20    +0.193 C 
DOCKED: ENDROOT
DOCKED: BRANCH   1   2
DOCKED: ATOM      2  O   UNL d   1      -7.608 -12.472   2.458 -0.85 -0.46    -0.356 OA
DOCKED: BRANCH   2   3
DOCKED: ATOM      3  P   UNL d   1      -7.294 -12.593   4.067 -0.49 -0.02    -0.014 P 
DOCKED: ATOM      4  O   UNL d   1      -7.514 -14.079   4.390 -0.31 -0.82    -0.577 OA
DOCKED: ATOM      5  O   UNL d   1      -8.301 -11.705   4.793 -0.19 -0.27    -0.577 OA
DOCKED: ATOM      6  O   UNL d   1      -5.843 -12.180   4.296 -0.39 -0.93    -0.638 OA
DOCKED: ENDBRANCH   2   3
DOCKED: ENDBRANCH   1   2
DOCKED: BRANCH   1   7
DOCKED: ATOM      7  C   UNL d   1      -7.592 -13.786   0.364 -0.15 +0.24    +0.201 C 
DOCKED: BRANCH   7   8
DOCKED: ATOM      8  O   UNL d   1      -6.149 -13.793   0.449 -0.34 -0.74    -0.364 OA
DOCKED: BRANCH   8   9
DOCKED: ATOM      9  P   UNL d   1      -5.272 -14.882  -0.434 -0.05 -0.03    -0.015 P 
DOCKED: ATOM     10  O   UNL d   1      -4.791 -15.925   0.582 -0.40 -1.31    -0.577 OA
DOCKED: ATOM     11  O   UNL d   1      -4.107 -14.114  -1.059 -0.01 -1.33    -0.577 OA
DOCKED: ATOM     12  O   UNL d   1      -6.216 -15.485  -1.473 -0.50 -1.47    -0.638 OA
DOCKED: ENDBRANCH   8   9
DOCKED: ENDBRANCH   7   8
DOCKED: ENDBRANCH   1   7
DOCKED: BRANCH   1  13
DOCKED: ATOM     13  C   UNL d   1      -9.794 -12.945   1.355 -0.19 +0.05    +0.073 C 
DOCKED: ATOM     14  O   UNL d   1      -9.894 -11.928   0.583 -0.61 -0.33    -0.547 OA
DOCKED: ATOM     15  O   UNL d   1     -10.793 -13.604   1.821 -0.28 -0.30    -0.547 OA
DOCKED: ENDBRANCH   1  13
DOCKED: TORSDOF 6
DOCKED: TER
DOCKED: ENDMDL
________________________________________________________________________________


	BEGINNING GENETIC ALGORITHM DOCKING 82 of 100
Run: 82 Seed: 189426380 347585881 [ Run 82 of 100 GA/GALS ]
Beginning LAMARCKIAN GENETIC ALGORITHM (LGA), with a maximum of 25000000 energy evaluations.

Final-Value: -9.920


	FINAL GENETIC ALGORITHM DOCKED STATE
	_______________________________________________


Detailed state:  trans -7.793 -13.149 1.178 quatxyzw -0.676855 -0.003883 0.409716 0.611543 center 0.015 0.083 0.031 ntor 6 82.5239 35.5635 167.8526 95.5055 -32.7930 -20.0436
State:	 -7.793 -13.149   1.178  -0.855 -0.005  0.518 104.598     82.52   35.56  167.85   95.51  -32.79  -20.04

DOCKED: MODEL       82
DOCKED: USER    Run = 82
DOCKED: USER    DPF = D:/Protein_go_brrr/autodock/final/AncA/2_3_BPG/dock.dpf
DOCKED: USER  
DOCKED: USER    Estimated Free Energy of Binding    =  -10.25 kcal/mol  [=(1)+(2)+(3)-(4)]
DOCKED: USER    Estimated Inhibition Constant, Ki   =   30.86 nM (nanomolar)  [Temperature = 298.15 K]
DOCKED: USER    
DOCKED: USER    (1) Final Intermolecular Energy     =  -12.04 kcal/mol
DOCKED: USER        vdW + Hbond + desolv Energy     =   -4.92 kcal/mol
DOCKED: USER        Electrostatic Energy            =   -7.11 kcal/mol
DOCKED: USER    (2) Final Total Internal Energy     =   +2.12 kcal/mol
DOCKED: USER    (3) Torsional Free Energy           =   +1.79 kcal/mol
DOCKED: USER    (4) Unbound System's Energy  [=(2)] =   +2.12 kcal/mol
DOCKED: USER    
DOCKED: USER    
DOCKED: USER    NEWDPF move 2_3_BPG_opt.pdbqt
DOCKED: USER    NEWDPF about 0.015000 0.083000 0.031000
DOCKED: USER    NEWDPF tran0 -7.793066 -13.149143 1.177798
DOCKED: USER    NEWDPF quaternion0 -0.676855 -0.003883 0.409716 0.611543
DOCKED: USER    NEWDPF axisangle0 -0.855467 -0.004907 0.517834 104.597623
DOCKED: USER    NEWDPF quat0 -0.855467 -0.004907 0.517834 104.597623
DOCKED: USER    NEWDPF dihe0 82.52 35.56 167.85 95.51 -32.79 -20.04 
DOCKED: USER  keepresnum = 1 
DOCKED: USER  
DOCKED: REMARK  6 active torsions:
DOCKED: REMARK  status: ('A' for Active; 'I' for Inactive)
DOCKED: REMARK    1  A    between atoms: P_1  and  O_3 
DOCKED: REMARK    2  A    between atoms: P_2  and  O_4 
DOCKED: REMARK    3  A    between atoms: O_3  and  C_13 
DOCKED: REMARK    4  A    between atoms: O_4  and  C_14 
DOCKED: REMARK    5  A    between atoms: C_13  and  C_14 
DOCKED: REMARK    6  A    between atoms: C_13  and  C_15 
DOCKED: USER                              x       y       z     vdW  Elec       q    Type
DOCKED: USER                           _______ _______ _______ _____ _____    ______ ____
DOCKED: ROOT
DOCKED: ATOM      1  C   UNL d   1      -8.391 -12.857   1.256 -0.24 +0.18    +0.193 C 
DOCKED: ENDROOT
DOCKED: BRANCH   1   2
DOCKED: ATOM      2  O   UNL d   1      -8.331 -12.003   2.448 -0.73 -0.32    -0.356 OA
DOCKED: BRANCH   2   3
DOCKED: ATOM      3  P   UNL d   1      -7.494 -12.405   3.805 -0.60 -0.02    -0.014 P 
DOCKED: ATOM      4  O   UNL d   1      -8.293 -11.765   4.951 -0.19 -0.27    -0.577 OA
DOCKED: ATOM      5  O   UNL d   1      -6.102 -11.788   3.677 -0.46 -0.77    -0.577 OA
DOCKED: ATOM      6  O   UNL d   1      -7.477 -13.926   3.915 -0.32 -1.08    -0.638 OA
DOCKED: ENDBRANCH   2   3
DOCKED: ENDBRANCH   1   2
DOCKED: BRANCH   1   7
DOCKED: ATOM      7  C   UNL d   1      -6.932 -13.317   0.890 -0.14 +0.32    +0.201 C 
DOCKED: BRANCH   7   8
DOCKED: ATOM      8  O   UNL d   1      -6.792 -14.691   0.467 -0.34 -0.65    -0.364 OA
DOCKED: BRANCH   8   9
DOCKED: ATOM      9  P   UNL d   1      -5.595 -15.114  -0.595 -0.07 -0.03    -0.015 P 
DOCKED: ATOM     10  O   UNL d   1      -5.018 -13.785  -1.095 -0.05 -1.31    -0.577 OA
DOCKED: ATOM     11  O   UNL d   1      -6.258 -15.909  -1.720 -0.48 -1.30    -0.577 OA
DOCKED: ATOM     12  O   UNL d   1      -4.566 -15.929   0.187 -0.46 -1.27    -0.638 OA
DOCKED: ENDBRANCH   8   9
DOCKED: ENDBRANCH   7   8
DOCKED: ENDBRANCH   1   7
DOCKED: BRANCH   1  13
DOCKED: ATOM     13  C   UNL d   1      -8.985 -12.049   0.042 -0.32 +0.05    +0.073 C 
DOCKED: ATOM     14  O   UNL d   1      -8.421 -12.163  -1.102 -0.03 -0.37    -0.547 OA
DOCKED: ATOM     15  O   UNL d   1     -10.049 -11.365   0.262 -0.50 -0.27    -0.547 OA
DOCKED: ENDBRANCH   1  13
DOCKED: TORSDOF 6
DOCKED: TER
DOCKED: ENDMDL
________________________________________________________________________________


	BEGINNING GENETIC ALGORITHM DOCKING 83 of 100
Run: 83 Seed: 1779970682 479271512 [ Run 83 of 100 GA/GALS ]
Beginning LAMARCKIAN GENETIC ALGORITHM (LGA), with a maximum of 25000000 energy evaluations.

Final-Value: -10.341


	FINAL GENETIC ALGORITHM DOCKED STATE
	_______________________________________________


Detailed state:  trans -7.822 -13.060 1.143 quatxyzw 0.593464 0.213221 -0.459675 -0.625328 center 0.015 0.083 0.031 ntor 6 -20.1703 179.7612 -25.3752 51.0094 -26.6948 -61.6975
State:	 -7.822 -13.060   1.143   0.760  0.273 -0.589 -102.587    -20.17  179.76  -25.38   51.01  -26.69  -61.70

DOCKED: MODEL       83
DOCKED: USER    Run = 83
DOCKED: USER    DPF = D:/Protein_go_brrr/autodock/final/AncA/2_3_BPG/dock.dpf
DOCKED: USER  
DOCKED: USER    Estimated Free Energy of Binding    =  -10.59 kcal/mol  [=(1)+(2)+(3)-(4)]
DOCKED: USER    Estimated Inhibition Constant, Ki   =   17.18 nM (nanomolar)  [Temperature = 298.15 K]
DOCKED: USER    
DOCKED: USER    (1) Final Intermolecular Energy     =  -12.38 kcal/mol
DOCKED: USER        vdW + Hbond + desolv Energy     =   -4.94 kcal/mol
DOCKED: USER        Electrostatic Energy            =   -7.44 kcal/mol
DOCKED: USER    (2) Final Total Internal Energy     =   +2.04 kcal/mol
DOCKED: USER    (3) Torsional Free Energy           =   +1.79 kcal/mol
DOCKED: USER    (4) Unbound System's Energy  [=(2)] =   +2.04 kcal/mol
DOCKED: USER    
DOCKED: USER    
DOCKED: USER    NEWDPF move 2_3_BPG_opt.pdbqt
DOCKED: USER    NEWDPF about 0.015000 0.083000 0.031000
DOCKED: USER    NEWDPF tran0 -7.822475 -13.059968 1.143060
DOCKED: USER    NEWDPF quaternion0 0.593464 0.213221 -0.459675 -0.625328
DOCKED: USER    NEWDPF axisangle0 0.760499 0.273234 -0.589054 -102.587395
DOCKED: USER    NEWDPF quat0 0.760499 0.273234 -0.589054 -102.587395
DOCKED: USER    NEWDPF dihe0 -20.17 179.76 -25.38 51.01 -26.69 -61.70 
DOCKED: USER  keepresnum = 1 
DOCKED: USER  
DOCKED: REMARK  6 active torsions:
DOCKED: REMARK  status: ('A' for Active; 'I' for Inactive)
DOCKED: REMARK    1  A    between atoms: P_1  and  O_3 
DOCKED: REMARK    2  A    between atoms: P_2  and  O_4 
DOCKED: REMARK    3  A    between atoms: O_3  and  C_13 
DOCKED: REMARK    4  A    between atoms: O_4  and  C_14 
DOCKED: REMARK    5  A    between atoms: C_13  and  C_14 
DOCKED: REMARK    6  A    between atoms: C_13  and  C_15 
DOCKED: USER                              x       y       z     vdW  Elec       q    Type
DOCKED: USER                           _______ _______ _______ _____ _____    ______ ____
DOCKED: ROOT
DOCKED: ATOM      1  C   UNL d   1      -8.392 -12.919   1.468 -0.25 +0.18    +0.193 C 
DOCKED: ENDROOT
DOCKED: BRANCH   1   2
DOCKED: ATOM      2  O   UNL d   1      -8.063 -12.079   2.625 -0.78 -0.36    -0.356 OA
DOCKED: BRANCH   2   3
DOCKED: ATOM      3  P   UNL d   1      -7.500 -12.683   4.048 -0.55 -0.02    -0.014 P 
DOCKED: ATOM      4  O   UNL d   1      -7.539 -14.207   3.859 -0.25 -0.97    -0.577 OA
DOCKED: ATOM      5  O   UNL d   1      -8.462 -12.228   5.143 -0.17 -0.30    -0.577 OA
DOCKED: ATOM      6  O   UNL d   1      -6.074 -12.179   4.242 -0.50 -0.91    -0.638 OA
DOCKED: ENDBRANCH   2   3
DOCKED: ENDBRANCH   1   2
DOCKED: BRANCH   1   7
DOCKED: ATOM      7  C   UNL d   1      -7.126 -13.017   0.539 -0.20 +0.26    +0.201 C 
DOCKED: BRANCH   7   8
DOCKED: ATOM      8  O   UNL d   1      -6.316 -14.202   0.700 -0.24 -0.83    -0.364 OA
DOCKED: BRANCH   8   9
DOCKED: ATOM      9  P   UNL d   1      -5.348 -14.721  -0.537 -0.06 -0.03    -0.015 P 
DOCKED: ATOM     10  O   UNL d   1      -4.257 -15.563   0.135 -0.42 -1.20    -0.577 OA
DOCKED: ATOM     11  O   UNL d   1      -4.775 -13.473  -1.208 -0.03 -1.27    -0.577 OA
DOCKED: ATOM     12  O   UNL d   1      -6.221 -15.556  -1.473 -0.51 -1.44    -0.638 OA
DOCKED: ENDBRANCH   8   9
DOCKED: ENDBRANCH   7   8
DOCKED: ENDBRANCH   1   7
DOCKED: BRANCH   1  13
DOCKED: ATOM     13  C   UNL d   1      -9.570 -12.271   0.648 -0.32 +0.05    +0.073 C 
DOCKED: ATOM     14  O   UNL d   1      -9.647 -10.994   0.595 -0.31 -0.25    -0.547 OA
DOCKED: ATOM     15  O   UNL d   1     -10.354 -13.072   0.023 -0.36 -0.36    -0.547 OA
DOCKED: ENDBRANCH   1  13
DOCKED: TORSDOF 6
DOCKED: TER
DOCKED: ENDMDL
________________________________________________________________________________


	BEGINNING GENETIC ALGORITHM DOCKING 84 of 100
Run: 84 Seed: 1558663602 1008594125 [ Run 84 of 100 GA/GALS ]
Beginning LAMARCKIAN GENETIC ALGORITHM (LGA), with a maximum of 25000000 energy evaluations.

Final-Value: -10.152


	FINAL GENETIC ALGORITHM DOCKED STATE
	_______________________________________________


Detailed state:  trans -5.647 -13.223 -0.380 quatxyzw -0.238867 -0.953436 -0.102808 -0.152753 center 0.015 0.083 0.031 ntor 6 177.3012 89.2334 22.8201 15.5528 -25.8456 86.5295
State:	 -5.647 -13.223  -0.380  -0.242 -0.965 -0.104 -162.427    177.30   89.23   22.82   15.55  -25.85   86.53

DOCKED: MODEL       84
DOCKED: USER    Run = 84
DOCKED: USER    DPF = D:/Protein_go_brrr/autodock/final/AncA/2_3_BPG/dock.dpf
DOCKED: USER  
DOCKED: USER    Estimated Free Energy of Binding    =  -10.53 kcal/mol  [=(1)+(2)+(3)-(4)]
DOCKED: USER    Estimated Inhibition Constant, Ki   =   18.98 nM (nanomolar)  [Temperature = 298.15 K]
DOCKED: USER    
DOCKED: USER    (1) Final Intermolecular Energy     =  -12.32 kcal/mol
DOCKED: USER        vdW + Hbond + desolv Energy     =   -4.39 kcal/mol
DOCKED: USER        Electrostatic Energy            =   -7.94 kcal/mol
DOCKED: USER    (2) Final Total Internal Energy     =   +2.17 kcal/mol
DOCKED: USER    (3) Torsional Free Energy           =   +1.79 kcal/mol
DOCKED: USER    (4) Unbound System's Energy  [=(2)] =   +2.17 kcal/mol
DOCKED: USER    
DOCKED: USER    
DOCKED: USER    NEWDPF move 2_3_BPG_opt.pdbqt
DOCKED: USER    NEWDPF about 0.015000 0.083000 0.031000
DOCKED: USER    NEWDPF tran0 -5.646572 -13.223266 -0.379604
DOCKED: USER    NEWDPF quaternion0 -0.238867 -0.953436 -0.102808 -0.152753
DOCKED: USER    NEWDPF axisangle0 -0.241703 -0.964758 -0.104029 -162.426984
DOCKED: USER    NEWDPF quat0 -0.241703 -0.964758 -0.104029 -162.426984
DOCKED: USER    NEWDPF dihe0 177.30 89.23 22.82 15.55 -25.85 86.53 
DOCKED: USER  keepresnum = 1 
DOCKED: USER  
DOCKED: REMARK  6 active torsions:
DOCKED: REMARK  status: ('A' for Active; 'I' for Inactive)
DOCKED: REMARK    1  A    between atoms: P_1  and  O_3 
DOCKED: REMARK    2  A    between atoms: P_2  and  O_4 
DOCKED: REMARK    3  A    between atoms: O_3  and  C_13 
DOCKED: REMARK    4  A    between atoms: O_4  and  C_14 
DOCKED: REMARK    5  A    between atoms: C_13  and  C_14 
DOCKED: REMARK    6  A    between atoms: C_13  and  C_15 
DOCKED: USER                              x       y       z     vdW  Elec       q    Type
DOCKED: USER                           _______ _______ _______ _____ _____    ______ ____
DOCKED: ROOT
DOCKED: ATOM      1  C   UNL d   1      -5.329 -13.717  -0.704 -0.15 +0.38    +0.193 C 
DOCKED: ENDROOT
DOCKED: BRANCH   1   2
DOCKED: ATOM      2  O   UNL d   1      -3.904 -13.645  -0.364 -0.13 -0.65    -0.356 OA
DOCKED: BRANCH   2   3
DOCKED: ATOM      3  P   UNL d   1      -2.726 -13.341  -1.471 -0.22 -0.02    -0.014 P 
DOCKED: ATOM      4  O   UNL d   1      -2.231 -14.733  -1.894 -0.03 -1.03    -0.577 OA
DOCKED: ATOM      5  O   UNL d   1      -1.631 -12.548  -0.760 -0.04 -0.51    -0.577 OA
DOCKED: ATOM      6  O   UNL d   1      -3.358 -12.592  -2.639 -0.54 -1.35    -0.638 OA
DOCKED: ENDBRANCH   2   3
DOCKED: ENDBRANCH   1   2
DOCKED: BRANCH   1   7
DOCKED: ATOM      7  C   UNL d   1      -6.127 -12.765   0.262 -0.19 +0.30    +0.201 C 
DOCKED: BRANCH   7   8
DOCKED: ATOM      8  O   UNL d   1      -7.037 -13.415   1.177 -0.20 -0.61    -0.364 OA
DOCKED: BRANCH   8   9
DOCKED: ATOM      9  P   UNL d   1      -7.494 -12.653   2.573 -0.37 -0.02    -0.015 P 
DOCKED: ATOM     10  O   UNL d   1      -7.879 -13.783   3.536 -0.31 -0.80    -0.577 OA
DOCKED: ATOM     11  O   UNL d   1      -8.689 -11.766   2.226 -0.50 -0.45    -0.577 OA
DOCKED: ATOM     12  O   UNL d   1      -6.286 -11.862   3.071 -0.56 -0.97    -0.638 OA
DOCKED: ENDBRANCH   8   9
DOCKED: ENDBRANCH   7   8
DOCKED: ENDBRANCH   1   7
DOCKED: BRANCH   1  13
DOCKED: ATOM     13  C   UNL d   1      -5.856 -15.187  -0.512 -0.12 +0.15    +0.073 C 
DOCKED: ATOM     14  O   UNL d   1      -6.500 -15.737  -1.474 -0.59 -1.05    -0.547 OA
DOCKED: ATOM     15  O   UNL d   1      -5.551 -15.777   0.587 -0.44 -1.28    -0.547 OA
DOCKED: ENDBRANCH   1  13
DOCKED: TORSDOF 6
DOCKED: TER
DOCKED: ENDMDL
________________________________________________________________________________


	BEGINNING GENETIC ALGORITHM DOCKING 85 of 100
Run: 85 Seed: 1024416540 806937344 [ Run 85 of 100 GA/GALS ]
Beginning LAMARCKIAN GENETIC ALGORITHM (LGA), with a maximum of 25000000 energy evaluations.

Final-Value: -10.118


	FINAL GENETIC ALGORITHM DOCKED STATE
	_______________________________________________


Detailed state:  trans -6.410 -13.048 -0.766 quatxyzw -0.694903 -0.525478 0.484278 -0.080362 center 0.015 0.083 0.031 ntor 6 -29.5420 63.7544 17.8713 50.4560 -18.9697 -153.8104
State:	 -6.410 -13.048  -0.766  -0.697 -0.527  0.486 -170.781    -29.54   63.75   17.87   50.46  -18.97 -153.81

DOCKED: MODEL       85
DOCKED: USER    Run = 85
DOCKED: USER    DPF = D:/Protein_go_brrr/autodock/final/AncA/2_3_BPG/dock.dpf
DOCKED: USER  
DOCKED: USER    Estimated Free Energy of Binding    =  -10.66 kcal/mol  [=(1)+(2)+(3)-(4)]
DOCKED: USER    Estimated Inhibition Constant, Ki   =   15.30 nM (nanomolar)  [Temperature = 298.15 K]
DOCKED: USER    
DOCKED: USER    (1) Final Intermolecular Energy     =  -12.45 kcal/mol
DOCKED: USER        vdW + Hbond + desolv Energy     =   -4.38 kcal/mol
DOCKED: USER        Electrostatic Energy            =   -8.07 kcal/mol
DOCKED: USER    (2) Final Total Internal Energy     =   +2.33 kcal/mol
DOCKED: USER    (3) Torsional Free Energy           =   +1.79 kcal/mol
DOCKED: USER    (4) Unbound System's Energy  [=(2)] =   +2.33 kcal/mol
DOCKED: USER    
DOCKED: USER    
DOCKED: USER    NEWDPF move 2_3_BPG_opt.pdbqt
DOCKED: USER    NEWDPF about 0.015000 0.083000 0.031000
DOCKED: USER    NEWDPF tran0 -6.409799 -13.047697 -0.766483
DOCKED: USER    NEWDPF quaternion0 -0.694903 -0.525478 0.484278 -0.080362
DOCKED: USER    NEWDPF axisangle0 -0.697158 -0.527183 0.485849 -170.781215
DOCKED: USER    NEWDPF quat0 -0.697158 -0.527183 0.485849 -170.781215
DOCKED: USER    NEWDPF dihe0 -29.54 63.75 17.87 50.46 -18.97 -153.81 
DOCKED: USER  keepresnum = 1 
DOCKED: USER  
DOCKED: REMARK  6 active torsions:
DOCKED: REMARK  status: ('A' for Active; 'I' for Inactive)
DOCKED: REMARK    1  A    between atoms: P_1  and  O_3 
DOCKED: REMARK    2  A    between atoms: P_2  and  O_4 
DOCKED: REMARK    3  A    between atoms: O_3  and  C_13 
DOCKED: REMARK    4  A    between atoms: O_4  and  C_14 
DOCKED: REMARK    5  A    between atoms: C_13  and  C_14 
DOCKED: REMARK    6  A    between atoms: C_13  and  C_15 
DOCKED: USER                              x       y       z     vdW  Elec       q    Type
DOCKED: USER                           _______ _______ _______ _____ _____    ______ ____
DOCKED: ROOT
DOCKED: ATOM      1  C   UNL d   1      -6.671 -13.423  -0.276 -0.20 +0.27    +0.193 C 
DOCKED: ENDROOT
DOCKED: BRANCH   1   2
DOCKED: ATOM      2  O   UNL d   1      -5.641 -14.363   0.180 -0.58 -0.81    -0.356 OA
DOCKED: BRANCH   2   3
DOCKED: ATOM      3  P   UNL d   1      -5.306 -15.777  -0.589 -0.10 -0.03    -0.014 P 
DOCKED: ATOM      4  O   UNL d   1      -5.569 -16.860   0.468 -0.15 -0.87    -0.577 OA
DOCKED: ATOM      5  O   UNL d   1      -3.834 -15.733  -0.994 -0.02 -1.19    -0.577 OA
DOCKED: ATOM      6  O   UNL d   1      -6.258 -15.907  -1.773 -0.45 -1.47    -0.638 OA
DOCKED: ENDBRANCH   2   3
DOCKED: ENDBRANCH   1   2
DOCKED: BRANCH   1   7
DOCKED: ATOM      7  C   UNL d   1      -5.999 -12.351  -1.211 -0.22 +0.25    +0.201 C 
DOCKED: BRANCH   7   8
DOCKED: ATOM      8  O   UNL d   1      -4.606 -12.572  -1.524 -0.37 -0.63    -0.364 OA
DOCKED: BRANCH   8   9
DOCKED: ATOM      9  P   UNL d   1      -3.900 -11.765  -2.783 -0.35 -0.02    -0.015 P 
DOCKED: ATOM     10  O   UNL d   1      -2.654 -12.587  -3.136 -0.50 -0.95    -0.577 OA
DOCKED: ATOM     11  O   UNL d   1      -3.537 -10.371  -2.271 -0.04 -0.39    -0.577 OA
DOCKED: ATOM     12  O   UNL d   1      -4.912 -11.738  -3.927 -0.18 -0.84    -0.638 OA
DOCKED: ENDBRANCH   8   9
DOCKED: ENDBRANCH   7   8
DOCKED: ENDBRANCH   1   7
DOCKED: BRANCH   1  13
DOCKED: ATOM     13  C   UNL d   1      -7.312 -12.684   0.958 -0.20 +0.09    +0.073 C 
DOCKED: ATOM     14  O   UNL d   1      -6.628 -12.591   2.037 -0.61 -1.03    -0.547 OA
DOCKED: ATOM     15  O   UNL d   1      -8.471 -12.159   0.785 -0.41 -0.45    -0.547 OA
DOCKED: ENDBRANCH   1  13
DOCKED: TORSDOF 6
DOCKED: TER
DOCKED: ENDMDL
________________________________________________________________________________


	BEGINNING GENETIC ALGORITHM DOCKING 86 of 100
Run: 86 Seed: 1685981252 319442743 [ Run 86 of 100 GA/GALS ]
Beginning LAMARCKIAN GENETIC ALGORITHM (LGA), with a maximum of 25000000 energy evaluations.

Final-Value: -10.144


	FINAL GENETIC ALGORITHM DOCKED STATE
	_______________________________________________


Detailed state:  trans -6.411 -12.849 -0.743 quatxyzw -0.665571 -0.563673 0.485293 -0.061471 center 0.015 0.083 0.031 ntor 6 147.5423 81.4667 70.5020 29.7351 -54.7135 179.9858
State:	 -6.411 -12.849  -0.743  -0.667 -0.565  0.486 -172.951    147.54   81.47   70.50   29.74  -54.71  179.99

DOCKED: MODEL       86
DOCKED: USER    Run = 86
DOCKED: USER    DPF = D:/Protein_go_brrr/autodock/final/AncA/2_3_BPG/dock.dpf
DOCKED: USER  
DOCKED: USER    Estimated Free Energy of Binding    =  -10.79 kcal/mol  [=(1)+(2)+(3)-(4)]
DOCKED: USER    Estimated Inhibition Constant, Ki   =   12.23 nM (nanomolar)  [Temperature = 298.15 K]
DOCKED: USER    
DOCKED: USER    (1) Final Intermolecular Energy     =  -12.58 kcal/mol
DOCKED: USER        vdW + Hbond + desolv Energy     =   -4.56 kcal/mol
DOCKED: USER        Electrostatic Energy            =   -8.02 kcal/mol
DOCKED: USER    (2) Final Total Internal Energy     =   +2.44 kcal/mol
DOCKED: USER    (3) Torsional Free Energy           =   +1.79 kcal/mol
DOCKED: USER    (4) Unbound System's Energy  [=(2)] =   +2.44 kcal/mol
DOCKED: USER    
DOCKED: USER    
DOCKED: USER    NEWDPF move 2_3_BPG_opt.pdbqt
DOCKED: USER    NEWDPF about 0.015000 0.083000 0.031000
DOCKED: USER    NEWDPF tran0 -6.410593 -12.848750 -0.743263
DOCKED: USER    NEWDPF quaternion0 -0.665571 -0.563673 0.485293 -0.061471
DOCKED: USER    NEWDPF axisangle0 -0.666832 -0.564741 0.486212 -172.951471
DOCKED: USER    NEWDPF quat0 -0.666832 -0.564741 0.486212 -172.951471
DOCKED: USER    NEWDPF dihe0 147.54 81.47 70.50 29.74 -54.71 179.99 
DOCKED: USER  keepresnum = 1 
DOCKED: USER  
DOCKED: REMARK  6 active torsions:
DOCKED: REMARK  status: ('A' for Active; 'I' for Inactive)
DOCKED: REMARK    1  A    between atoms: P_1  and  O_3 
DOCKED: REMARK    2  A    between atoms: P_2  and  O_4 
DOCKED: REMARK    3  A    between atoms: O_3  and  C_13 
DOCKED: REMARK    4  A    between atoms: O_4  and  C_14 
DOCKED: REMARK    5  A    between atoms: C_13  and  C_14 
DOCKED: REMARK    6  A    between atoms: C_13  and  C_15 
DOCKED: USER                              x       y       z     vdW  Elec       q    Type
DOCKED: USER                           _______ _______ _______ _____ _____    ______ ____
DOCKED: ROOT
DOCKED: ATOM      1  C   UNL d   1      -6.630 -13.255  -0.258 -0.21 +0.27    +0.193 C 
DOCKED: ENDROOT
DOCKED: BRANCH   1   2
DOCKED: ATOM      2  O   UNL d   1      -5.507 -14.091   0.181 -0.52 -0.80    -0.356 OA
DOCKED: BRANCH   2   3
DOCKED: ATOM      3  P   UNL d   1      -5.322 -15.663  -0.268 -0.13 -0.03    -0.014 P 
DOCKED: ATOM      4  O   UNL d   1      -5.773 -16.468   0.961 -0.26 -1.10    -0.577 OA
DOCKED: ATOM      5  O   UNL d   1      -3.839 -15.876  -0.566 -0.09 -1.05    -0.577 OA
DOCKED: ATOM      6  O   UNL d   1      -6.227 -15.919  -1.469 -0.53 -1.31    -0.638 OA
DOCKED: ENDBRANCH   2   3
DOCKED: ENDBRANCH   1   2
DOCKED: BRANCH   1   7
DOCKED: ATOM      7  C   UNL d   1      -6.075 -12.107  -1.179 -0.17 +0.23    +0.201 C 
DOCKED: BRANCH   7   8
DOCKED: ATOM      8  O   UNL d   1      -4.668 -11.812  -1.039 -0.20 -0.42    -0.364 OA
DOCKED: BRANCH   8   9
DOCKED: ATOM      9  P   UNL d   1      -3.693 -11.765  -2.376 -0.40 -0.02    -0.015 P 
DOCKED: ATOM     10  O   UNL d   1      -2.839 -13.035  -2.291 -0.42 -1.13    -0.577 OA
DOCKED: ATOM     11  O   UNL d   1      -2.845 -10.498  -2.264 -0.04 -0.38    -0.577 OA
DOCKED: ATOM     12  O   UNL d   1      -4.607 -11.768  -3.600 -0.35 -0.91    -0.638 OA
DOCKED: ENDBRANCH   8   9
DOCKED: ENDBRANCH   7   8
DOCKED: ENDBRANCH   1   7
DOCKED: BRANCH   1  13
DOCKED: ATOM     13  C   UNL d   1      -7.338 -12.604   0.989 -0.18 +0.09    +0.073 C 
DOCKED: ATOM     14  O   UNL d   1      -8.545 -12.194   0.862 -0.42 -0.45    -0.547 OA
DOCKED: ATOM     15  O   UNL d   1      -6.675 -12.580   2.088 -0.66 -1.02    -0.547 OA
DOCKED: ENDBRANCH   1  13
DOCKED: TORSDOF 6
DOCKED: TER
DOCKED: ENDMDL
________________________________________________________________________________


	BEGINNING GENETIC ALGORITHM DOCKING 87 of 100
Run: 87 Seed: 1344964161 826340958 [ Run 87 of 100 GA/GALS ]
Beginning LAMARCKIAN GENETIC ALGORITHM (LGA), with a maximum of 25000000 energy evaluations.

Final-Value: -10.289


	FINAL GENETIC ALGORITHM DOCKED STATE
	_______________________________________________


Detailed state:  trans -5.708 -12.712 -0.209 quatxyzw -0.042062 -0.414243 -0.233839 0.878608 center 0.015 0.083 0.031 ntor 6 -164.0265 -33.1116 -42.1946 23.6685 -54.3801 -8.6431
State:	 -5.708 -12.712  -0.209  -0.088 -0.867 -0.490 57.050   -164.03  -33.11  -42.19   23.67  -54.38   -8.64

DOCKED: MODEL       87
DOCKED: USER    Run = 87
DOCKED: USER    DPF = D:/Protein_go_brrr/autodock/final/AncA/2_3_BPG/dock.dpf
DOCKED: USER  
DOCKED: USER    Estimated Free Energy of Binding    =  -10.49 kcal/mol  [=(1)+(2)+(3)-(4)]
DOCKED: USER    Estimated Inhibition Constant, Ki   =   20.54 nM (nanomolar)  [Temperature = 298.15 K]
DOCKED: USER    
DOCKED: USER    (1) Final Intermolecular Energy     =  -12.28 kcal/mol
DOCKED: USER        vdW + Hbond + desolv Energy     =   -4.77 kcal/mol
DOCKED: USER        Electrostatic Energy            =   -7.51 kcal/mol
DOCKED: USER    (2) Final Total Internal Energy     =   +1.99 kcal/mol
DOCKED: USER    (3) Torsional Free Energy           =   +1.79 kcal/mol
DOCKED: USER    (4) Unbound System's Energy  [=(2)] =   +1.99 kcal/mol
DOCKED: USER    
DOCKED: USER    
DOCKED: USER    NEWDPF move 2_3_BPG_opt.pdbqt
DOCKED: USER    NEWDPF about 0.015000 0.083000 0.031000
DOCKED: USER    NEWDPF tran0 -5.708129 -12.712153 -0.208738
DOCKED: USER    NEWDPF quaternion0 -0.042062 -0.414243 -0.233839 0.878608
DOCKED: USER    NEWDPF axisangle0 -0.088081 -0.867447 -0.489670 57.050114
DOCKED: USER    NEWDPF quat0 -0.088081 -0.867447 -0.489670 57.050114
DOCKED: USER    NEWDPF dihe0 -164.03 -33.11 -42.19 23.67 -54.38 -8.64 
DOCKED: USER  keepresnum = 1 
DOCKED: USER  
DOCKED: REMARK  6 active torsions:
DOCKED: REMARK  status: ('A' for Active; 'I' for Inactive)
DOCKED: REMARK    1  A    between atoms: P_1  and  O_3 
DOCKED: REMARK    2  A    between atoms: P_2  and  O_4 
DOCKED: REMARK    3  A    between atoms: O_3  and  C_13 
DOCKED: REMARK    4  A    between atoms: O_4  and  C_14 
DOCKED: REMARK    5  A    between atoms: C_13  and  C_14 
DOCKED: REMARK    6  A    between atoms: C_13  and  C_15 
DOCKED: USER                              x       y       z     vdW  Elec       q    Type
DOCKED: USER                           _______ _______ _______ _____ _____    ______ ____
DOCKED: ROOT
DOCKED: ATOM      1  C   UNL d   1      -5.842 -13.239   0.184 -0.15 +0.34    +0.193 C 
DOCKED: ENDROOT
DOCKED: BRANCH   1   2
DOCKED: ATOM      2  O   UNL d   1      -7.198 -13.076   0.721 -0.27 -0.48    -0.356 OA
DOCKED: BRANCH   2   3
DOCKED: ATOM      3  P   UNL d   1      -7.508 -12.716   2.295 -0.33 -0.02    -0.014 P 
DOCKED: ATOM      4  O   UNL d   1      -8.716 -11.768   2.240 -0.49 -0.44    -0.577 OA
DOCKED: ATOM      5  O   UNL d   1      -6.270 -12.015   2.851 -0.57 -0.98    -0.577 OA
DOCKED: ATOM      6  O   UNL d   1      -7.847 -14.015   3.018 -0.18 -0.97    -0.638 OA
DOCKED: ENDBRANCH   2   3
DOCKED: ENDBRANCH   1   2
DOCKED: BRANCH   1   7
DOCKED: ATOM      7  C   UNL d   1      -5.620 -12.178  -0.956 -0.23 +0.25    +0.201 C 
DOCKED: BRANCH   7   8
DOCKED: ATOM      8  O   UNL d   1      -4.259 -11.732  -1.146 -0.21 -0.41    -0.364 OA
DOCKED: BRANCH   8   9
DOCKED: ATOM      9  P   UNL d   1      -3.577 -11.763  -2.653 -0.39 -0.02    -0.015 P 
DOCKED: ATOM     10  O   UNL d   1      -2.761 -10.469  -2.749 -0.04 -0.37    -0.577 OA
DOCKED: ATOM     11  O   UNL d   1      -4.726 -11.790  -3.661 -0.33 -0.83    -0.577 OA
DOCKED: ATOM     12  O   UNL d   1      -2.692 -13.007  -2.722 -0.38 -1.27    -0.638 OA
DOCKED: ENDBRANCH   8   9
DOCKED: ENDBRANCH   7   8
DOCKED: ENDBRANCH   1   7
DOCKED: BRANCH   1  13
DOCKED: ATOM     13  C   UNL d   1      -5.674 -14.679  -0.429 -0.13 +0.15    +0.073 C 
DOCKED: ATOM     14  O   UNL d   1      -4.911 -15.514   0.173 -0.59 -1.23    -0.547 OA
DOCKED: ATOM     15  O   UNL d   1      -6.369 -14.953  -1.473 -0.50 -1.23    -0.547 OA
DOCKED: ENDBRANCH   1  13
DOCKED: TORSDOF 6
DOCKED: TER
DOCKED: ENDMDL
________________________________________________________________________________


	BEGINNING GENETIC ALGORITHM DOCKING 88 of 100
Run: 88 Seed: 617856653 38874417 [ Run 88 of 100 GA/GALS ]
Beginning LAMARCKIAN GENETIC ALGORITHM (LGA), with a maximum of 25000000 energy evaluations.

Final-Value: -9.759


	FINAL GENETIC ALGORITHM DOCKED STATE
	_______________________________________________


Detailed state:  trans -5.765 -13.174 0.091 quatxyzw -0.316796 0.000541 -0.856508 0.407472 center 0.015 0.083 0.031 ntor 6 131.3209 -15.7905 91.0896 22.2610 56.1082 -15.0353
State:	 -5.765 -13.174   0.091  -0.347  0.001 -0.938 131.908    131.32  -15.79   91.09   22.26   56.11  -15.04

DOCKED: MODEL       88
DOCKED: USER    Run = 88
DOCKED: USER    DPF = D:/Protein_go_brrr/autodock/final/AncA/2_3_BPG/dock.dpf
DOCKED: USER  
DOCKED: USER    Estimated Free Energy of Binding    =  -10.20 kcal/mol  [=(1)+(2)+(3)-(4)]
DOCKED: USER    Estimated Inhibition Constant, Ki   =   33.48 nM (nanomolar)  [Temperature = 298.15 K]
DOCKED: USER    
DOCKED: USER    (1) Final Intermolecular Energy     =  -11.99 kcal/mol
DOCKED: USER        vdW + Hbond + desolv Energy     =   -3.88 kcal/mol
DOCKED: USER        Electrostatic Energy            =   -8.11 kcal/mol
DOCKED: USER    (2) Final Total Internal Energy     =   +2.23 kcal/mol
DOCKED: USER    (3) Torsional Free Energy           =   +1.79 kcal/mol
DOCKED: USER    (4) Unbound System's Energy  [=(2)] =   +2.23 kcal/mol
DOCKED: USER    
DOCKED: USER    
DOCKED: USER    NEWDPF move 2_3_BPG_opt.pdbqt
DOCKED: USER    NEWDPF about 0.015000 0.083000 0.031000
DOCKED: USER    NEWDPF tran0 -5.764692 -13.173969 0.091151
DOCKED: USER    NEWDPF quaternion0 -0.316796 0.000541 -0.856508 0.407472
DOCKED: USER    NEWDPF axisangle0 -0.346900 0.000593 -0.937902 131.907728
DOCKED: USER    NEWDPF quat0 -0.346900 0.000593 -0.937902 131.907728
DOCKED: USER    NEWDPF dihe0 131.32 -15.79 91.09 22.26 56.11 -15.04 
DOCKED: USER  keepresnum = 1 
DOCKED: USER  
DOCKED: REMARK  6 active torsions:
DOCKED: REMARK  status: ('A' for Active; 'I' for Inactive)
DOCKED: REMARK    1  A    between atoms: P_1  and  O_3 
DOCKED: REMARK    2  A    between atoms: P_2  and  O_4 
DOCKED: REMARK    3  A    between atoms: O_3  and  C_13 
DOCKED: REMARK    4  A    between atoms: O_4  and  C_14 
DOCKED: REMARK    5  A    between atoms: C_13  and  C_14 
DOCKED: REMARK    6  A    between atoms: C_13  and  C_15 
DOCKED: USER                              x       y       z     vdW  Elec       q    Type
DOCKED: USER                           _______ _______ _______ _____ _____    ______ ____
DOCKED: ROOT
DOCKED: ATOM      1  C   UNL d   1      -5.223 -13.399  -0.233 -0.15 +0.35    +0.193 C 
DOCKED: ENDROOT
DOCKED: BRANCH   1   2
DOCKED: ATOM      2  O   UNL d   1      -5.638 -14.497  -1.112 -0.27 -0.85    -0.356 OA
DOCKED: BRANCH   2   3
DOCKED: ATOM      3  P   UNL d   1      -5.228 -16.068  -0.849 +0.11 -0.03    -0.014 P 
DOCKED: ATOM      4  O   UNL d   1      -6.254 -16.873  -1.662 -0.27 -0.89    -0.577 OA
DOCKED: ATOM      5  O   UNL d   1      -5.371 -16.328   0.650 -0.39 -1.13    -0.577 OA
DOCKED: ATOM      6  O   UNL d   1      -3.811 -16.279  -1.370 +0.01 -1.32    -0.638 OA
DOCKED: ENDBRANCH   2   3
DOCKED: ENDBRANCH   1   2
DOCKED: BRANCH   1   7
DOCKED: ATOM      7  C   UNL d   1      -6.508 -12.673   0.310 -0.20 +0.27    +0.201 C 
DOCKED: BRANCH   7   8
DOCKED: ATOM      8  O   UNL d   1      -6.429 -12.180   1.666 -0.53 -0.58    -0.364 OA
DOCKED: BRANCH   8   9
DOCKED: ATOM      9  P   UNL d   1      -7.499 -12.715   2.808 -0.36 -0.02    -0.015 P 
DOCKED: ATOM     10  O   UNL d   1      -8.716 -11.791   2.678 -0.32 -0.42    -0.577 OA
DOCKED: ATOM     11  O   UNL d   1      -6.813 -12.569   4.166 -0.72 -0.86    -0.577 OA
DOCKED: ATOM     12  O   UNL d   1      -7.840 -14.164   2.463 -0.06 -0.97    -0.638 OA
DOCKED: ENDBRANCH   8   9
DOCKED: ENDBRANCH   7   8
DOCKED: ENDBRANCH   1   7
DOCKED: BRANCH   1  13
DOCKED: ATOM     13  C   UNL d   1      -4.360 -12.358  -1.040 -0.31 +0.10    +0.073 C 
DOCKED: ATOM     14  O   UNL d   1      -3.829 -11.380  -0.406 -0.05 -0.52    -0.547 OA
DOCKED: ATOM     15  O   UNL d   1      -4.186 -12.592  -2.291 -0.40 -1.25    -0.547 OA
DOCKED: ENDBRANCH   1  13
DOCKED: TORSDOF 6
DOCKED: TER
DOCKED: ENDMDL
________________________________________________________________________________


	BEGINNING GENETIC ALGORITHM DOCKING 89 of 100
Run: 89 Seed: 1174784527 687511289 [ Run 89 of 100 GA/GALS ]
Beginning LAMARCKIAN GENETIC ALGORITHM (LGA), with a maximum of 25000000 energy evaluations.

Final-Value: -10.005


	FINAL GENETIC ALGORITHM DOCKED STATE
	_______________________________________________


Detailed state:  trans -7.654 -13.299 0.421 quatxyzw 0.546908 0.090295 -0.650322 -0.519443 center 0.015 0.083 0.031 ntor 6 40.5683 -144.1593 180.0000 17.4319 -33.5926 -133.0587
State:	 -7.654 -13.299   0.421   0.640  0.106 -0.761 -117.410     40.57 -144.16  180.00   17.43  -33.59 -133.06

DOCKED: MODEL       89
DOCKED: USER    Run = 89
DOCKED: USER    DPF = D:/Protein_go_brrr/autodock/final/AncA/2_3_BPG/dock.dpf
DOCKED: USER  
DOCKED: USER    Estimated Free Energy of Binding    =  -10.37 kcal/mol  [=(1)+(2)+(3)-(4)]
DOCKED: USER    Estimated Inhibition Constant, Ki   =   25.08 nM (nanomolar)  [Temperature = 298.15 K]
DOCKED: USER    
DOCKED: USER    (1) Final Intermolecular Energy     =  -12.16 kcal/mol
DOCKED: USER        vdW + Hbond + desolv Energy     =   -4.56 kcal/mol
DOCKED: USER        Electrostatic Energy            =   -7.60 kcal/mol
DOCKED: USER    (2) Final Total Internal Energy     =   +2.15 kcal/mol
DOCKED: USER    (3) Torsional Free Energy           =   +1.79 kcal/mol
DOCKED: USER    (4) Unbound System's Energy  [=(2)] =   +2.15 kcal/mol
DOCKED: USER    
DOCKED: USER    
DOCKED: USER    NEWDPF move 2_3_BPG_opt.pdbqt
DOCKED: USER    NEWDPF about 0.015000 0.083000 0.031000
DOCKED: USER    NEWDPF tran0 -7.653682 -13.298819 0.421245
DOCKED: USER    NEWDPF quaternion0 0.546908 0.090295 -0.650322 -0.519443
DOCKED: USER    NEWDPF axisangle0 0.640028 0.105670 -0.761050 -117.410266
DOCKED: USER    NEWDPF quat0 0.640028 0.105670 -0.761050 -117.410266
DOCKED: USER    NEWDPF dihe0 40.57 -144.16 180.00 17.43 -33.59 -133.06 
DOCKED: USER  keepresnum = 1 
DOCKED: USER  
DOCKED: REMARK  6 active torsions:
DOCKED: REMARK  status: ('A' for Active; 'I' for Inactive)
DOCKED: REMARK    1  A    between atoms: P_1  and  O_3 
DOCKED: REMARK    2  A    between atoms: P_2  and  O_4 
DOCKED: REMARK    3  A    between atoms: O_3  and  C_13 
DOCKED: REMARK    4  A    between atoms: O_4  and  C_14 
DOCKED: REMARK    5  A    between atoms: C_13  and  C_14 
DOCKED: REMARK    6  A    between atoms: C_13  and  C_15 
DOCKED: USER                              x       y       z     vdW  Elec       q    Type
DOCKED: USER                           _______ _______ _______ _____ _____    ______ ____
DOCKED: ROOT
DOCKED: ATOM      1  C   UNL d   1      -8.034 -12.886   0.788 -0.21 +0.19    +0.193 C 
DOCKED: ENDROOT
DOCKED: BRANCH   1   2
DOCKED: ATOM      2  O   UNL d   1      -7.163 -12.194   1.745 -0.74 -0.51    -0.356 OA
DOCKED: BRANCH   2   3
DOCKED: ATOM      3  P   UNL d   1      -7.274 -12.393   3.374 -0.38 -0.02    -0.014 P 
DOCKED: ATOM      4  O   UNL d   1      -7.741 -13.847   3.551 -0.32 -0.89    -0.577 OA
DOCKED: ATOM      5  O   UNL d   1      -8.319 -11.402   3.881 -0.13 -0.34    -0.577 OA
DOCKED: ATOM      6  O   UNL d   1      -5.888 -12.174   3.971 -0.41 -1.04    -0.638 OA
DOCKED: ENDBRANCH   2   3
DOCKED: ENDBRANCH   1   2
DOCKED: BRANCH   1   7
DOCKED: ATOM      7  C   UNL d   1      -7.133 -13.631  -0.265 -0.17 +0.26    +0.201 C 
DOCKED: BRANCH   7   8
DOCKED: ATOM      8  O   UNL d   1      -5.814 -14.007   0.187 -0.49 -0.76    -0.364 OA
DOCKED: BRANCH   8   9
DOCKED: ATOM      9  P   UNL d   1      -5.079 -15.356  -0.429 -0.06 -0.03    -0.015 P 
DOCKED: ATOM     10  O   UNL d   1      -6.060 -15.903  -1.472 -0.48 -1.27    -0.577 OA
DOCKED: ATOM     11  O   UNL d   1      -4.883 -16.327   0.735 -0.32 -1.18    -0.577 OA
DOCKED: ATOM     12  O   UNL d   1      -3.763 -14.904  -1.060 +0.05 -1.45    -0.638 OA
DOCKED: ENDBRANCH   8   9
DOCKED: ENDBRANCH   7   8
DOCKED: ENDBRANCH   1   7
DOCKED: BRANCH   1  13
DOCKED: ATOM     13  C   UNL d   1      -8.939 -11.844   0.031 -0.32 +0.05    +0.073 C 
DOCKED: ATOM     14  O   UNL d   1      -8.539 -11.395  -1.100 -0.02 -0.30    -0.547 OA
DOCKED: ATOM     15  O   UNL d   1     -10.067 -11.553   0.570 -0.54 -0.30    -0.547 OA
DOCKED: ENDBRANCH   1  13
DOCKED: TORSDOF 6
DOCKED: TER
DOCKED: ENDMDL
________________________________________________________________________________


	BEGINNING GENETIC ALGORITHM DOCKING 90 of 100
Run: 90 Seed: 1035049652 1205378825 [ Run 90 of 100 GA/GALS ]
Beginning LAMARCKIAN GENETIC ALGORITHM (LGA), with a maximum of 25000000 energy evaluations.

Final-Value: -9.834


	FINAL GENETIC ALGORITHM DOCKED STATE
	_______________________________________________


Detailed state:  trans -6.386 -13.142 -0.208 quatxyzw -0.321225 -0.231142 -0.885676 0.242830 center 0.015 0.083 0.031 ntor 6 -122.5388 -83.7486 -112.4387 29.4560 -77.1927 -86.2441
State:	 -6.386 -13.142  -0.208  -0.331 -0.238 -0.913 151.893   -122.54  -83.75 -112.44   29.46  -77.19  -86.24

DOCKED: MODEL       90
DOCKED: USER    Run = 90
DOCKED: USER    DPF = D:/Protein_go_brrr/autodock/final/AncA/2_3_BPG/dock.dpf
DOCKED: USER  
DOCKED: USER    Estimated Free Energy of Binding    =  -10.24 kcal/mol  [=(1)+(2)+(3)-(4)]
DOCKED: USER    Estimated Inhibition Constant, Ki   =   31.23 nM (nanomolar)  [Temperature = 298.15 K]
DOCKED: USER    
DOCKED: USER    (1) Final Intermolecular Energy     =  -12.03 kcal/mol
DOCKED: USER        vdW + Hbond + desolv Energy     =   -4.11 kcal/mol
DOCKED: USER        Electrostatic Energy            =   -7.92 kcal/mol
DOCKED: USER    (2) Final Total Internal Energy     =   +2.19 kcal/mol
DOCKED: USER    (3) Torsional Free Energy           =   +1.79 kcal/mol
DOCKED: USER    (4) Unbound System's Energy  [=(2)] =   +2.19 kcal/mol
DOCKED: USER    
DOCKED: USER    
DOCKED: USER    NEWDPF move 2_3_BPG_opt.pdbqt
DOCKED: USER    NEWDPF about 0.015000 0.083000 0.031000
DOCKED: USER    NEWDPF tran0 -6.385909 -13.141959 -0.207505
DOCKED: USER    NEWDPF quaternion0 -0.321225 -0.231142 -0.885676 0.242830
DOCKED: USER    NEWDPF axisangle0 -0.331136 -0.238274 -0.913003 151.892788
DOCKED: USER    NEWDPF quat0 -0.331136 -0.238274 -0.913003 151.892788
DOCKED: USER    NEWDPF dihe0 -122.54 -83.75 -112.44 29.46 -77.19 -86.24 
DOCKED: USER  keepresnum = 1 
DOCKED: USER  
DOCKED: REMARK  6 active torsions:
DOCKED: REMARK  status: ('A' for Active; 'I' for Inactive)
DOCKED: REMARK    1  A    between atoms: P_1  and  O_3 
DOCKED: REMARK    2  A    between atoms: P_2  and  O_4 
DOCKED: REMARK    3  A    between atoms: O_3  and  C_13 
DOCKED: REMARK    4  A    between atoms: O_4  and  C_14 
DOCKED: REMARK    5  A    between atoms: C_13  and  C_14 
DOCKED: REMARK    6  A    between atoms: C_13  and  C_15 
DOCKED: USER                              x       y       z     vdW  Elec       q    Type
DOCKED: USER                           _______ _______ _______ _____ _____    ______ ____
DOCKED: ROOT
DOCKED: ATOM      1  C   UNL d   1      -5.839 -13.216  -0.588 -0.22 +0.31    +0.193 C 
DOCKED: ENDROOT
DOCKED: BRANCH   1   2
DOCKED: ATOM      2  O   UNL d   1      -5.792 -14.605  -1.058 -0.41 -0.81    -0.356 OA
DOCKED: BRANCH   2   3
DOCKED: ATOM      3  P   UNL d   1      -4.795 -15.743  -0.413 -0.12 -0.03    -0.014 P 
DOCKED: ATOM      4  O   UNL d   1      -5.639 -16.415   0.682 -0.34 -1.06    -0.577 OA
DOCKED: ATOM      5  O   UNL d   1      -3.592 -15.010   0.175 -0.22 -1.12    -0.577 OA
DOCKED: ATOM      6  O   UNL d   1      -4.427 -16.727  -1.518 -0.03 -1.26    -0.638 OA
DOCKED: ENDBRANCH   2   3
DOCKED: ENDBRANCH   1   2
DOCKED: BRANCH   1   7
DOCKED: ATOM      7  C   UNL d   1      -7.249 -12.947   0.056 -0.19 +0.23    +0.201 C 
DOCKED: BRANCH   7   8
DOCKED: ATOM      8  O   UNL d   1      -7.478 -13.553   1.347 -0.18 -0.53    -0.364 OA
DOCKED: BRANCH   8   9
DOCKED: ATOM      9  P   UNL d   1      -7.474 -12.621   2.713 -0.38 -0.02    -0.015 P 
DOCKED: ATOM     10  O   UNL d   1      -8.744 -11.766   2.617 -0.33 -0.42    -0.577 OA
DOCKED: ATOM     11  O   UNL d   1      -6.207 -11.768   2.667 -0.44 -0.86    -0.577 OA
DOCKED: ATOM     12  O   UNL d   1      -7.513 -13.572   3.909 -0.45 -1.00    -0.638 OA
DOCKED: ENDBRANCH   8   9
DOCKED: ENDBRANCH   7   8
DOCKED: ENDBRANCH   1   7
DOCKED: BRANCH   1  13
DOCKED: ATOM     13  C   UNL d   1      -5.641 -12.229  -1.799 -0.29 +0.10    +0.073 C 
DOCKED: ATOM     14  O   UNL d   1      -4.494 -12.181  -2.366 -0.46 -0.96    -0.547 OA
DOCKED: ATOM     15  O   UNL d   1      -6.672 -11.572  -2.189 -0.05 -0.49    -0.547 OA
DOCKED: ENDBRANCH   1  13
DOCKED: TORSDOF 6
DOCKED: TER
DOCKED: ENDMDL
________________________________________________________________________________


	BEGINNING GENETIC ALGORITHM DOCKING 91 of 100
Run: 91 Seed: 1347274103 1787117961 [ Run 91 of 100 GA/GALS ]
Beginning LAMARCKIAN GENETIC ALGORITHM (LGA), with a maximum of 25000000 energy evaluations.

Final-Value: -9.989


	FINAL GENETIC ALGORITHM DOCKED STATE
	_______________________________________________


Detailed state:  trans -6.817 -13.440 0.430 quatxyzw 0.302204 0.512669 0.793958 -0.124398 center 0.015 0.083 0.031 ntor 6 161.5347 -52.7258 173.0434 -26.6262 71.0598 -37.2349
State:	 -6.817 -13.440   0.430   0.305  0.517  0.800 -165.708    161.53  -52.73  173.04  -26.63   71.06  -37.23

DOCKED: MODEL       91
DOCKED: USER    Run = 91
DOCKED: USER    DPF = D:/Protein_go_brrr/autodock/final/AncA/2_3_BPG/dock.dpf
DOCKED: USER  
DOCKED: USER    Estimated Free Energy of Binding    =  -10.50 kcal/mol  [=(1)+(2)+(3)-(4)]
DOCKED: USER    Estimated Inhibition Constant, Ki   =   20.15 nM (nanomolar)  [Temperature = 298.15 K]
DOCKED: USER    
DOCKED: USER    (1) Final Intermolecular Energy     =  -12.29 kcal/mol
DOCKED: USER        vdW + Hbond + desolv Energy     =   -3.97 kcal/mol
DOCKED: USER        Electrostatic Energy            =   -8.32 kcal/mol
DOCKED: USER    (2) Final Total Internal Energy     =   +2.30 kcal/mol
DOCKED: USER    (3) Torsional Free Energy           =   +1.79 kcal/mol
DOCKED: USER    (4) Unbound System's Energy  [=(2)] =   +2.30 kcal/mol
DOCKED: USER    
DOCKED: USER    
DOCKED: USER    NEWDPF move 2_3_BPG_opt.pdbqt
DOCKED: USER    NEWDPF about 0.015000 0.083000 0.031000
DOCKED: USER    NEWDPF tran0 -6.817079 -13.439822 0.429944
DOCKED: USER    NEWDPF quaternion0 0.302204 0.512669 0.793958 -0.124398
DOCKED: USER    NEWDPF axisangle0 0.304570 0.516682 0.800173 -165.707965
DOCKED: USER    NEWDPF quat0 0.304570 0.516682 0.800173 -165.707965
DOCKED: USER    NEWDPF dihe0 161.53 -52.73 173.04 -26.63 71.06 -37.23 
DOCKED: USER  keepresnum = 1 
DOCKED: USER  
DOCKED: REMARK  6 active torsions:
DOCKED: REMARK  status: ('A' for Active; 'I' for Inactive)
DOCKED: REMARK    1  A    between atoms: P_1  and  O_3 
DOCKED: REMARK    2  A    between atoms: P_2  and  O_4 
DOCKED: REMARK    3  A    between atoms: O_3  and  C_13 
DOCKED: REMARK    4  A    between atoms: O_4  and  C_14 
DOCKED: REMARK    5  A    between atoms: C_13  and  C_14 
DOCKED: REMARK    6  A    between atoms: C_13  and  C_15 
DOCKED: USER                              x       y       z     vdW  Elec       q    Type
DOCKED: USER                           _______ _______ _______ _____ _____    ______ ____
DOCKED: ROOT
DOCKED: ATOM      1  C   UNL d   1      -6.335 -13.530  -0.027 -0.19 +0.31    +0.193 C 
DOCKED: ENDROOT
DOCKED: BRANCH   1   2
DOCKED: ATOM      2  O   UNL d   1      -5.810 -14.892   0.125 -0.66 -0.78    -0.356 OA
DOCKED: BRANCH   2   3
DOCKED: ATOM      3  P   UNL d   1      -4.331 -15.356  -0.423 -0.11 -0.03    -0.014 P 
DOCKED: ATOM      4  O   UNL d   1      -3.614 -15.902   0.822 -0.10 -1.11    -0.577 OA
DOCKED: ATOM      5  O   UNL d   1      -3.638 -14.108  -0.968 -0.07 -1.20    -0.577 OA
DOCKED: ATOM      6  O   UNL d   1      -4.537 -16.443  -1.472 +0.03 -1.40    -0.638 OA
DOCKED: ENDBRANCH   2   3
DOCKED: ENDBRANCH   1   2
DOCKED: BRANCH   1   7
DOCKED: ATOM      7  C   UNL d   1      -7.649 -13.397   0.827 -0.19 +0.25    +0.201 C 
DOCKED: BRANCH   7   8
DOCKED: ATOM      8  O   UNL d   1      -7.646 -12.358   1.831 -0.82 -0.46    -0.364 OA
DOCKED: BRANCH   8   9
DOCKED: ATOM      9  P   UNL d   1      -7.501 -12.751   3.431 -0.39 -0.02    -0.015 P 
DOCKED: ATOM     10  O   UNL d   1      -7.517 -14.284   3.469 -0.17 -1.07    -0.577 OA
DOCKED: ATOM     11  O   UNL d   1      -8.709 -12.150   4.149 -0.12 -0.35    -0.577 OA
DOCKED: ATOM     12  O   UNL d   1      -6.171 -12.178   3.918 -0.57 -1.01    -0.638 OA
DOCKED: ENDBRANCH   8   9
DOCKED: ENDBRANCH   7   8
DOCKED: ENDBRANCH   1   7
DOCKED: BRANCH   1  13
DOCKED: ATOM     13  C   UNL d   1      -6.684 -13.252  -1.536 -0.23 +0.11    +0.073 C 
DOCKED: ATOM     14  O   UNL d   1      -6.493 -12.074  -2.001 -0.06 -0.60    -0.547 OA
DOCKED: ATOM     15  O   UNL d   1      -7.085 -14.251  -2.235 -0.35 -0.96    -0.547 OA
DOCKED: ENDBRANCH   1  13
DOCKED: TORSDOF 6
DOCKED: TER
DOCKED: ENDMDL
________________________________________________________________________________


	BEGINNING GENETIC ALGORITHM DOCKING 92 of 100
Run: 92 Seed: 1251183923 889515013 [ Run 92 of 100 GA/GALS ]
Beginning LAMARCKIAN GENETIC ALGORITHM (LGA), with a maximum of 25000000 energy evaluations.

Final-Value: -10.271


	FINAL GENETIC ALGORITHM DOCKED STATE
	_______________________________________________


Detailed state:  trans -8.250 -13.624 1.059 quatxyzw 0.519550 0.041380 -0.669253 -0.529581 center 0.015 0.083 0.031 ntor 6 110.4611 -135.7763 -176.1847 35.9975 -0.8860 -159.7276
State:	 -8.250 -13.624   1.059   0.612  0.049 -0.789 -116.046    110.46 -135.78 -176.18   36.00   -0.89 -159.73

DOCKED: MODEL       92
DOCKED: USER    Run = 92
DOCKED: USER    DPF = D:/Protein_go_brrr/autodock/final/AncA/2_3_BPG/dock.dpf
DOCKED: USER  
DOCKED: USER    Estimated Free Energy of Binding    =  -10.66 kcal/mol  [=(1)+(2)+(3)-(4)]
DOCKED: USER    Estimated Inhibition Constant, Ki   =   15.37 nM (nanomolar)  [Temperature = 298.15 K]
DOCKED: USER    
DOCKED: USER    (1) Final Intermolecular Energy     =  -12.45 kcal/mol
DOCKED: USER        vdW + Hbond + desolv Energy     =   -4.92 kcal/mol
DOCKED: USER        Electrostatic Energy            =   -7.53 kcal/mol
DOCKED: USER    (2) Final Total Internal Energy     =   +2.18 kcal/mol
DOCKED: USER    (3) Torsional Free Energy           =   +1.79 kcal/mol
DOCKED: USER    (4) Unbound System's Energy  [=(2)] =   +2.18 kcal/mol
DOCKED: USER    
DOCKED: USER    
DOCKED: USER    NEWDPF move 2_3_BPG_opt.pdbqt
DOCKED: USER    NEWDPF about 0.015000 0.083000 0.031000
DOCKED: USER    NEWDPF tran0 -8.250085 -13.624239 1.058620
DOCKED: USER    NEWDPF quaternion0 0.519550 0.041380 -0.669253 -0.529581
DOCKED: USER    NEWDPF axisangle0 0.612489 0.048782 -0.788972 -116.045635
DOCKED: USER    NEWDPF quat0 0.612489 0.048782 -0.788972 -116.045635
DOCKED: USER    NEWDPF dihe0 110.46 -135.78 -176.18 36.00 -0.89 -159.73 
DOCKED: USER  keepresnum = 1 
DOCKED: USER  
DOCKED: REMARK  6 active torsions:
DOCKED: REMARK  status: ('A' for Active; 'I' for Inactive)
DOCKED: REMARK    1  A    between atoms: P_1  and  O_3 
DOCKED: REMARK    2  A    between atoms: P_2  and  O_4 
DOCKED: REMARK    3  A    between atoms: O_3  and  C_13 
DOCKED: REMARK    4  A    between atoms: O_4  and  C_14 
DOCKED: REMARK    5  A    between atoms: C_13  and  C_14 
DOCKED: REMARK    6  A    between atoms: C_13  and  C_15 
DOCKED: USER                              x       y       z     vdW  Elec       q    Type
DOCKED: USER                           _______ _______ _______ _____ _____    ______ ____
DOCKED: ROOT
DOCKED: ATOM      1  C   UNL d   1      -8.604 -13.154   1.380 -0.23 +0.17    +0.193 C 
DOCKED: ENDROOT
DOCKED: BRANCH   1   2
DOCKED: ATOM      2  O   UNL d   1      -7.691 -12.414   2.257 -0.85 -0.44    -0.356 OA
DOCKED: BRANCH   2   3
DOCKED: ATOM      3  P   UNL d   1      -7.500 -12.754   3.855 -0.48 -0.02    -0.014 P 
DOCKED: ATOM      4  O   UNL d   1      -7.509 -14.289   3.923 -0.23 -0.97    -0.577 OA
DOCKED: ATOM      5  O   UNL d   1      -8.694 -12.151   4.592 -0.15 -0.32    -0.577 OA
DOCKED: ATOM      6  O   UNL d   1      -6.158 -12.182   4.301 -0.54 -0.88    -0.638 OA
DOCKED: ENDBRANCH   2   3
DOCKED: ENDBRANCH   1   2
DOCKED: BRANCH   1   7
DOCKED: ATOM      7  C   UNL d   1      -7.753 -14.056   0.411 -0.13 +0.24    +0.201 C 
DOCKED: BRANCH   7   8
DOCKED: ATOM      8  O   UNL d   1      -6.320 -13.972   0.569 -0.34 -0.75    -0.364 OA
DOCKED: BRANCH   8   9
DOCKED: ATOM      9  P   UNL d   1      -5.323 -14.835  -0.431 -0.06 -0.03    -0.015 P 
DOCKED: ATOM     10  O   UNL d   1      -6.254 -15.467  -1.473 -0.55 -1.31    -0.577 OA
DOCKED: ATOM     11  O   UNL d   1      -4.631 -15.890   0.431 -0.42 -1.26    -0.577 OA
DOCKED: ATOM     12  O   UNL d   1      -4.347 -13.842  -1.061 -0.03 -1.44    -0.638 OA
DOCKED: ENDBRANCH   8   9
DOCKED: ENDBRANCH   7   8
DOCKED: ENDBRANCH   1   7
DOCKED: BRANCH   1  13
DOCKED: ATOM     13  C   UNL d   1      -9.456 -12.151   0.517 -0.34 +0.05    +0.073 C 
DOCKED: ATOM     14  O   UNL d   1     -10.075 -12.601  -0.511 -0.35 -0.31    -0.547 OA
DOCKED: ATOM     15  O   UNL d   1      -9.531 -10.940   0.936 -0.22 -0.26    -0.547 OA
DOCKED: ENDBRANCH   1  13
DOCKED: TORSDOF 6
DOCKED: TER
DOCKED: ENDMDL
________________________________________________________________________________


	BEGINNING GENETIC ALGORITHM DOCKING 93 of 100
Run: 93 Seed: 1871534416 1431630657 [ Run 93 of 100 GA/GALS ]
Beginning LAMARCKIAN GENETIC ALGORITHM (LGA), with a maximum of 25000000 energy evaluations.

Final-Value: -9.840


	FINAL GENETIC ALGORITHM DOCKED STATE
	_______________________________________________


Detailed state:  trans -8.246 -14.191 1.499 quatxyzw -0.365960 -0.059838 0.689163 0.622532 center 0.015 0.083 0.031 ntor 6 -66.7364 -138.0373 134.8115 27.9825 -23.3252 165.7733
State:	 -8.246 -14.191   1.499  -0.468 -0.076  0.881 102.997    -66.74 -138.04  134.81   27.98  -23.33  165.77

DOCKED: MODEL       93
DOCKED: USER    Run = 93
DOCKED: USER    DPF = D:/Protein_go_brrr/autodock/final/AncA/2_3_BPG/dock.dpf
DOCKED: USER  
DOCKED: USER    Estimated Free Energy of Binding    =  -10.22 kcal/mol  [=(1)+(2)+(3)-(4)]
DOCKED: USER    Estimated Inhibition Constant, Ki   =   32.48 nM (nanomolar)  [Temperature = 298.15 K]
DOCKED: USER    
DOCKED: USER    (1) Final Intermolecular Energy     =  -12.01 kcal/mol
DOCKED: USER        vdW + Hbond + desolv Energy     =   -4.46 kcal/mol
DOCKED: USER        Electrostatic Energy            =   -7.54 kcal/mol
DOCKED: USER    (2) Final Total Internal Energy     =   +2.17 kcal/mol
DOCKED: USER    (3) Torsional Free Energy           =   +1.79 kcal/mol
DOCKED: USER    (4) Unbound System's Energy  [=(2)] =   +2.17 kcal/mol
DOCKED: USER    
DOCKED: USER    
DOCKED: USER    NEWDPF move 2_3_BPG_opt.pdbqt
DOCKED: USER    NEWDPF about 0.015000 0.083000 0.031000
DOCKED: USER    NEWDPF tran0 -8.245630 -14.190804 1.498570
DOCKED: USER    NEWDPF quaternion0 -0.365960 -0.059838 0.689163 0.622532
DOCKED: USER    NEWDPF axisangle0 -0.467625 -0.076461 0.880614 102.997390
DOCKED: USER    NEWDPF quat0 -0.467625 -0.076461 0.880614 102.997390
DOCKED: USER    NEWDPF dihe0 -66.74 -138.04 134.81 27.98 -23.33 165.77 
DOCKED: USER  keepresnum = 1 
DOCKED: USER  
DOCKED: REMARK  6 active torsions:
DOCKED: REMARK  status: ('A' for Active; 'I' for Inactive)
DOCKED: REMARK    1  A    between atoms: P_1  and  O_3 
DOCKED: REMARK    2  A    between atoms: P_2  and  O_4 
DOCKED: REMARK    3  A    between atoms: O_3  and  C_13 
DOCKED: REMARK    4  A    between atoms: O_4  and  C_14 
DOCKED: REMARK    5  A    between atoms: C_13  and  C_14 
DOCKED: REMARK    6  A    between atoms: C_13  and  C_15 
DOCKED: USER                              x       y       z     vdW  Elec       q    Type
DOCKED: USER                           _______ _______ _______ _____ _____    ______ ____
DOCKED: ROOT
DOCKED: ATOM      1  C   UNL d   1      -8.592 -13.696   1.789 -0.19 +0.19    +0.193 C 
DOCKED: ENDROOT
DOCKED: BRANCH   1   2
DOCKED: ATOM      2  O   UNL d   1      -7.641 -12.669   2.228 -0.79 -0.47    -0.356 OA
DOCKED: BRANCH   2   3
DOCKED: ATOM      3  P   UNL d   1      -7.199 -12.460   3.799 -0.41 -0.02    -0.014 P 
DOCKED: ATOM      4  O   UNL d   1      -7.110 -13.886   4.364 -0.35 -1.05    -0.577 OA
DOCKED: ATOM      5  O   UNL d   1      -8.306 -11.655   4.477 -0.19 -0.30    -0.577 OA
DOCKED: ATOM      6  O   UNL d   1      -5.842 -11.764   3.818 -0.28 -0.83    -0.638 OA
DOCKED: ENDBRANCH   2   3
DOCKED: ENDBRANCH   1   2
DOCKED: BRANCH   1   7
DOCKED: ATOM      7  C   UNL d   1      -7.839 -14.715   0.857 -0.09 +0.25    +0.201 C 
DOCKED: BRANCH   7   8
DOCKED: ATOM      8  O   UNL d   1      -6.806 -14.156   0.016 -0.21 -0.57    -0.364 OA
DOCKED: BRANCH   8   9
DOCKED: ATOM      9  P   UNL d   1      -5.630 -15.134  -0.615 -0.08 -0.03    -0.015 P 
DOCKED: ATOM     10  O   UNL d   1      -5.222 -16.060   0.537 -0.45 -1.24    -0.577 OA
DOCKED: ATOM     11  O   UNL d   1      -4.481 -14.225  -1.051 +0.03 -1.40    -0.577 OA
DOCKED: ATOM     12  O   UNL d   1      -6.258 -15.904  -1.776 -0.45 -1.48    -0.638 OA
DOCKED: ENDBRANCH   8   9
DOCKED: ENDBRANCH   7   8
DOCKED: ENDBRANCH   1   7
DOCKED: BRANCH   1  13
DOCKED: ATOM     13  C   UNL d   1      -9.762 -13.033   0.970 -0.16 +0.05    +0.073 C 
DOCKED: ATOM     14  O   UNL d   1      -9.890 -11.759   1.009 -0.57 -0.32    -0.547 OA
DOCKED: ATOM     15  O   UNL d   1     -10.488 -13.814   0.255 -0.28 -0.31    -0.547 OA
DOCKED: ENDBRANCH   1  13
DOCKED: TORSDOF 6
DOCKED: TER
DOCKED: ENDMDL
________________________________________________________________________________


	BEGINNING GENETIC ALGORITHM DOCKING 94 of 100
Run: 94 Seed: 2035855479 2057024466 [ Run 94 of 100 GA/GALS ]
Beginning LAMARCKIAN GENETIC ALGORITHM (LGA), with a maximum of 25000000 energy evaluations.

Final-Value: -9.810


	FINAL GENETIC ALGORITHM DOCKED STATE
	_______________________________________________


Detailed state:  trans -7.140 -13.118 0.718 quatxyzw -0.628236 -0.184300 0.439105 0.615255 center 0.015 0.083 0.031 ntor 6 66.8453 -173.3833 9.3171 32.3363 69.5171 -6.6492
State:	 -7.140 -13.118   0.718  -0.797 -0.234  0.557 104.059     66.85 -173.38    9.32   32.34   69.52   -6.65

DOCKED: MODEL       94
DOCKED: USER    Run = 94
DOCKED: USER    DPF = D:/Protein_go_brrr/autodock/final/AncA/2_3_BPG/dock.dpf
DOCKED: USER  
DOCKED: USER    Estimated Free Energy of Binding    =  -10.29 kcal/mol  [=(1)+(2)+(3)-(4)]
DOCKED: USER    Estimated Inhibition Constant, Ki   =   28.82 nM (nanomolar)  [Temperature = 298.15 K]
DOCKED: USER    
DOCKED: USER    (1) Final Intermolecular Energy     =  -12.08 kcal/mol
DOCKED: USER        vdW + Hbond + desolv Energy     =   -4.59 kcal/mol
DOCKED: USER        Electrostatic Energy            =   -7.49 kcal/mol
DOCKED: USER    (2) Final Total Internal Energy     =   +2.27 kcal/mol
DOCKED: USER    (3) Torsional Free Energy           =   +1.79 kcal/mol
DOCKED: USER    (4) Unbound System's Energy  [=(2)] =   +2.27 kcal/mol
DOCKED: USER    
DOCKED: USER    
DOCKED: USER    NEWDPF move 2_3_BPG_opt.pdbqt
DOCKED: USER    NEWDPF about 0.015000 0.083000 0.031000
DOCKED: USER    NEWDPF tran0 -7.140243 -13.117751 0.717907
DOCKED: USER    NEWDPF quaternion0 -0.628236 -0.184300 0.439105 0.615255
DOCKED: USER    NEWDPF axisangle0 -0.796923 -0.233787 0.557008 104.059096
DOCKED: USER    NEWDPF quat0 -0.796923 -0.233787 0.557008 104.059096
DOCKED: USER    NEWDPF dihe0 66.85 -173.38 9.32 32.34 69.52 -6.65 
DOCKED: USER  keepresnum = 1 
DOCKED: USER  
DOCKED: REMARK  6 active torsions:
DOCKED: REMARK  status: ('A' for Active; 'I' for Inactive)
DOCKED: REMARK    1  A    between atoms: P_1  and  O_3 
DOCKED: REMARK    2  A    between atoms: P_2  and  O_4 
DOCKED: REMARK    3  A    between atoms: O_3  and  C_13 
DOCKED: REMARK    4  A    between atoms: O_4  and  C_14 
DOCKED: REMARK    5  A    between atoms: C_13  and  C_14 
DOCKED: REMARK    6  A    between atoms: C_13  and  C_15 
DOCKED: USER                              x       y       z     vdW  Elec       q    Type
DOCKED: USER                           _______ _______ _______ _____ _____    ______ ____
DOCKED: ROOT
DOCKED: ATOM      1  C   UNL d   1      -7.732 -12.969   0.997 -0.22 +0.22    +0.193 C 
DOCKED: ENDROOT
DOCKED: BRANCH   1   2
DOCKED: ATOM      2  O   UNL d   1      -7.480 -12.183   2.210 -0.88 -0.47    -0.356 OA
DOCKED: BRANCH   2   3
DOCKED: ATOM      3  P   UNL d   1      -7.505 -12.827   3.723 -0.41 -0.02    -0.014 P 
DOCKED: ATOM      4  O   UNL d   1      -7.765 -14.325   3.499 -0.17 -0.90    -0.577 OA
DOCKED: ATOM      5  O   UNL d   1      -8.656 -12.164   4.478 -0.14 -0.33    -0.577 OA
DOCKED: ATOM      6  O   UNL d   1      -6.141 -12.584   4.361 -0.49 -1.11    -0.638 OA
DOCKED: ENDBRANCH   2   3
DOCKED: ENDBRANCH   1   2
DOCKED: BRANCH   1   7
DOCKED: ATOM      7  C   UNL d   1      -6.392 -13.077   0.179 -0.21 +0.30    +0.201 C 
DOCKED: BRANCH   7   8
DOCKED: ATOM      8  O   UNL d   1      -6.259 -14.244  -0.662 -0.29 -0.65    -0.364 OA
DOCKED: BRANCH   8   9
DOCKED: ATOM      9  P   UNL d   1      -5.219 -15.459  -0.237 -0.12 -0.03    -0.015 P 
DOCKED: ATOM     10  O   UNL d   1      -5.126 -16.356  -1.477 -0.12 -1.30    -0.577 OA
DOCKED: ATOM     11  O   UNL d   1      -5.847 -16.189   0.950 -0.28 -1.23    -0.577 OA
DOCKED: ATOM     12  O   UNL d   1      -3.879 -14.808   0.102 -0.26 -1.33    -0.638 OA
DOCKED: ENDBRANCH   8   9
DOCKED: ENDBRANCH   7   8
DOCKED: ENDBRANCH   1   7
DOCKED: BRANCH   1  13
DOCKED: ATOM     13  C   UNL d   1      -8.811 -12.252   0.103 -0.31 +0.05    +0.073 C 
DOCKED: ATOM     14  O   UNL d   1      -8.489 -11.910  -1.088 -0.03 -0.35    -0.547 OA
DOCKED: ATOM     15  O   UNL d   1      -9.983 -12.109   0.608 -0.65 -0.35    -0.547 OA
DOCKED: ENDBRANCH   1  13
DOCKED: TORSDOF 6
DOCKED: TER
DOCKED: ENDMDL
________________________________________________________________________________


	BEGINNING GENETIC ALGORITHM DOCKING 95 of 100
Run: 95 Seed: 1249764363 418576865 [ Run 95 of 100 GA/GALS ]
Beginning LAMARCKIAN GENETIC ALGORITHM (LGA), with a maximum of 25000000 energy evaluations.

Final-Value: -9.832


	FINAL GENETIC ALGORITHM DOCKED STATE
	_______________________________________________


Detailed state:  trans -6.847 -13.058 -0.292 quatxyzw -0.810990 -0.504480 0.295137 -0.026254 center 0.015 0.083 0.031 ntor 6 -173.4547 -77.2637 175.3777 68.6823 2.8077 -61.1107
State:	 -6.847 -13.058  -0.292  -0.811 -0.505  0.295 -176.991   -173.45  -77.26  175.38   68.68    2.81  -61.11

DOCKED: MODEL       95
DOCKED: USER    Run = 95
DOCKED: USER    DPF = D:/Protein_go_brrr/autodock/final/AncA/2_3_BPG/dock.dpf
DOCKED: USER  
DOCKED: USER    Estimated Free Energy of Binding    =  -10.30 kcal/mol  [=(1)+(2)+(3)-(4)]
DOCKED: USER    Estimated Inhibition Constant, Ki   =   28.31 nM (nanomolar)  [Temperature = 298.15 K]
DOCKED: USER    
DOCKED: USER    (1) Final Intermolecular Energy     =  -12.09 kcal/mol
DOCKED: USER        vdW + Hbond + desolv Energy     =   -4.67 kcal/mol
DOCKED: USER        Electrostatic Energy            =   -7.42 kcal/mol
DOCKED: USER    (2) Final Total Internal Energy     =   +2.25 kcal/mol
DOCKED: USER    (3) Torsional Free Energy           =   +1.79 kcal/mol
DOCKED: USER    (4) Unbound System's Energy  [=(2)] =   +2.25 kcal/mol
DOCKED: USER    
DOCKED: USER    
DOCKED: USER    NEWDPF move 2_3_BPG_opt.pdbqt
DOCKED: USER    NEWDPF about 0.015000 0.083000 0.031000
DOCKED: USER    NEWDPF tran0 -6.846560 -13.057874 -0.291517
DOCKED: USER    NEWDPF quaternion0 -0.810990 -0.504480 0.295137 -0.026254
DOCKED: USER    NEWDPF axisangle0 -0.811270 -0.504654 0.295239 -176.991122
DOCKED: USER    NEWDPF quat0 -0.811270 -0.504654 0.295239 -176.991122
DOCKED: USER    NEWDPF dihe0 -173.45 -77.26 175.38 68.68 2.81 -61.11 
DOCKED: USER  keepresnum = 1 
DOCKED: USER  
DOCKED: REMARK  6 active torsions:
DOCKED: REMARK  status: ('A' for Active; 'I' for Inactive)
DOCKED: REMARK    1  A    between atoms: P_1  and  O_3 
DOCKED: REMARK    2  A    between atoms: P_2  and  O_4 
DOCKED: REMARK    3  A    between atoms: O_3  and  C_13 
DOCKED: REMARK    4  A    between atoms: O_4  and  C_14 
DOCKED: REMARK    5  A    between atoms: C_13  and  C_14 
DOCKED: REMARK    6  A    between atoms: C_13  and  C_15 
DOCKED: USER                              x       y       z     vdW  Elec       q    Type
DOCKED: USER                           _______ _______ _______ _____ _____    ______ ____
DOCKED: ROOT
DOCKED: ATOM      1  C   UNL d   1      -7.330 -13.417   0.003 -0.18 +0.23    +0.193 C 
DOCKED: ENDROOT
DOCKED: BRANCH   1   2
DOCKED: ATOM      2  O   UNL d   1      -6.697 -14.519   0.736 -0.31 -0.71    -0.356 OA
DOCKED: BRANCH   2   3
DOCKED: ATOM      3  P   UNL d   1      -5.839 -15.716   0.004 -0.01 -0.03    -0.014 P 
DOCKED: ATOM      4  O   UNL d   1      -4.371 -15.293   0.171 -0.46 -1.28    -0.577 OA
DOCKED: ATOM      5  O   UNL d   1      -6.254 -15.736  -1.466 -0.55 -1.23    -0.577 OA
DOCKED: ATOM      6  O   UNL d   1      -6.132 -17.022   0.736 -0.06 -0.86    -0.638 OA
DOCKED: ENDBRANCH   2   3
DOCKED: ENDBRANCH   1   2
DOCKED: BRANCH   1   7
DOCKED: ATOM      7  C   UNL d   1      -6.214 -12.404  -0.447 -0.18 +0.24    +0.201 C 
DOCKED: BRANCH   7   8
DOCKED: ATOM      8  O   UNL d   1      -5.753 -12.538  -1.810 -0.18 -0.56    -0.364 OA
DOCKED: BRANCH   8   9
DOCKED: ATOM      9  P   UNL d   1      -4.483 -11.626  -2.350 -0.42 -0.02    -0.015 P 
DOCKED: ATOM     10  O   UNL d   1      -4.104 -10.729  -1.166 -0.07 -0.44    -0.577 OA
DOCKED: ATOM     11  O   UNL d   1      -4.992 -10.814  -3.541 -0.11 -0.48    -0.577 OA
DOCKED: ATOM     12  O   UNL d   1      -3.359 -12.592  -2.722 -0.54 -1.37    -0.638 OA
DOCKED: ENDBRANCH   8   9
DOCKED: ENDBRANCH   7   8
DOCKED: ENDBRANCH   1   7
DOCKED: BRANCH   1  13
DOCKED: ATOM     13  C   UNL d   1      -8.349 -12.663   0.936 -0.29 +0.07    +0.073 C 
DOCKED: ATOM     14  O   UNL d   1      -9.581 -12.624   0.590 -0.57 -0.36    -0.547 OA
DOCKED: ATOM     15  O   UNL d   1      -7.888 -12.182   2.033 -0.72 -0.62    -0.547 OA
DOCKED: ENDBRANCH   1  13
DOCKED: TORSDOF 6
DOCKED: TER
DOCKED: ENDMDL
________________________________________________________________________________


	BEGINNING GENETIC ALGORITHM DOCKING 96 of 100
Run: 96 Seed: 1501511217 49290229 [ Run 96 of 100 GA/GALS ]
Beginning LAMARCKIAN GENETIC ALGORITHM (LGA), with a maximum of 25000000 energy evaluations.

Final-Value: -10.057


	FINAL GENETIC ALGORITHM DOCKED STATE
	_______________________________________________


Detailed state:  trans -7.005 -13.025 0.468 quatxyzw -0.585779 -0.249681 0.316833 0.702951 center 0.015 0.083 0.031 ntor 6 -95.2131 170.8202 -167.3941 39.7076 -112.0906 -58.2308
State:	 -7.005 -13.025   0.468  -0.824 -0.351  0.445 90.672    -95.21  170.82 -167.39   39.71 -112.09  -58.23

DOCKED: MODEL       96
DOCKED: USER    Run = 96
DOCKED: USER    DPF = D:/Protein_go_brrr/autodock/final/AncA/2_3_BPG/dock.dpf
DOCKED: USER  
DOCKED: USER    Estimated Free Energy of Binding    =  -10.64 kcal/mol  [=(1)+(2)+(3)-(4)]
DOCKED: USER    Estimated Inhibition Constant, Ki   =   15.78 nM (nanomolar)  [Temperature = 298.15 K]
DOCKED: USER    
DOCKED: USER    (1) Final Intermolecular Energy     =  -12.43 kcal/mol
DOCKED: USER        vdW + Hbond + desolv Energy     =   -4.63 kcal/mol
DOCKED: USER        Electrostatic Energy            =   -7.80 kcal/mol
DOCKED: USER    (2) Final Total Internal Energy     =   +2.38 kcal/mol
DOCKED: USER    (3) Torsional Free Energy           =   +1.79 kcal/mol
DOCKED: USER    (4) Unbound System's Energy  [=(2)] =   +2.38 kcal/mol
DOCKED: USER    
DOCKED: USER    
DOCKED: USER    NEWDPF move 2_3_BPG_opt.pdbqt
DOCKED: USER    NEWDPF about 0.015000 0.083000 0.031000
DOCKED: USER    NEWDPF tran0 -7.004526 -13.025419 0.467705
DOCKED: USER    NEWDPF quaternion0 -0.585779 -0.249681 0.316833 0.702951
DOCKED: USER    NEWDPF axisangle0 -0.823603 -0.351051 0.445467 90.671586
DOCKED: USER    NEWDPF quat0 -0.823603 -0.351051 0.445467 90.671586
DOCKED: USER    NEWDPF dihe0 -95.21 170.82 -167.39 39.71 -112.09 -58.23 
DOCKED: USER  keepresnum = 1 
DOCKED: USER  
DOCKED: REMARK  6 active torsions:
DOCKED: REMARK  status: ('A' for Active; 'I' for Inactive)
DOCKED: REMARK    1  A    between atoms: P_1  and  O_3 
DOCKED: REMARK    2  A    between atoms: P_2  and  O_4 
DOCKED: REMARK    3  A    between atoms: O_3  and  C_13 
DOCKED: REMARK    4  A    between atoms: O_4  and  C_14 
DOCKED: REMARK    5  A    between atoms: C_13  and  C_14 
DOCKED: REMARK    6  A    between atoms: C_13  and  C_15 
DOCKED: USER                              x       y       z     vdW  Elec       q    Type
DOCKED: USER                           _______ _______ _______ _____ _____    ______ ____
DOCKED: ROOT
DOCKED: ATOM      1  C   UNL d   1      -7.632 -13.062   0.701 -0.21 +0.22    +0.193 C 
DOCKED: ENDROOT
DOCKED: BRANCH   1   2
DOCKED: ATOM      2  O   UNL d   1      -7.738 -12.180   1.869 -0.82 -0.43    -0.356 OA
DOCKED: BRANCH   2   3
DOCKED: ATOM      3  P   UNL d   1      -7.499 -12.694   3.413 -0.43 -0.02    -0.014 P 
DOCKED: ATOM      4  O   UNL d   1      -7.510 -14.227   3.312 -0.15 -1.09    -0.577 OA
DOCKED: ATOM      5  O   UNL d   1      -8.669 -12.177   4.248 -0.13 -0.35    -0.577 OA
DOCKED: ATOM      6  O   UNL d   1      -6.143 -12.173   3.877 -0.55 -1.02    -0.638 OA
DOCKED: ENDBRANCH   2   3
DOCKED: ENDBRANCH   1   2
DOCKED: BRANCH   1   7
DOCKED: ATOM      7  C   UNL d   1      -6.269 -12.772  -0.029 -0.22 +0.28    +0.201 C 
DOCKED: BRANCH   7   8
DOCKED: ATOM      8  O   UNL d   1      -5.204 -13.715   0.224 -0.33 -0.79    -0.364 OA
DOCKED: BRANCH   8   9
DOCKED: ATOM      9  P   UNL d   1      -5.282 -15.243  -0.405 -0.06 -0.03    -0.015 P 
DOCKED: ATOM     10  O   UNL d   1      -6.380 -15.178  -1.474 -0.54 -1.28    -0.577 OA
DOCKED: ATOM     11  O   UNL d   1      -5.657 -16.179   0.743 -0.34 -1.20    -0.577 OA
DOCKED: ATOM     12  O   UNL d   1      -3.913 -15.553  -1.007 +0.00 -1.39    -0.638 OA
DOCKED: ENDBRANCH   8   9
DOCKED: ENDBRANCH   7   8
DOCKED: ENDBRANCH   1   7
DOCKED: BRANCH   1  13
DOCKED: ATOM     13  C   UNL d   1      -8.812 -12.776  -0.301 -0.26 +0.05    +0.073 C 
DOCKED: ATOM     14  O   UNL d   1      -9.985 -12.580   0.175 -0.58 -0.36    -0.547 OA
DOCKED: ATOM     15  O   UNL d   1      -8.511 -12.693  -1.546 -0.02 -0.39    -0.547 OA
DOCKED: ENDBRANCH   1  13
DOCKED: TORSDOF 6
DOCKED: TER
DOCKED: ENDMDL
________________________________________________________________________________


	BEGINNING GENETIC ALGORITHM DOCKING 97 of 100
Run: 97 Seed: 499830025 1304392846 [ Run 97 of 100 GA/GALS ]
Beginning LAMARCKIAN GENETIC ALGORITHM (LGA), with a maximum of 25000000 energy evaluations.

Final-Value: -9.931


	FINAL GENETIC ALGORITHM DOCKED STATE
	_______________________________________________


Detailed state:  trans -5.529 -12.858 0.054 quatxyzw -0.346535 -0.034835 -0.837003 0.422049 center 0.015 0.083 0.031 ntor 6 -79.7610 -4.8977 -90.0294 33.0210 -56.9458 -101.6481
State:	 -5.529 -12.858   0.054  -0.382 -0.038 -0.923 130.072    -79.76   -4.90  -90.03   33.02  -56.95 -101.65

DOCKED: MODEL       97
DOCKED: USER    Run = 97
DOCKED: USER    DPF = D:/Protein_go_brrr/autodock/final/AncA/2_3_BPG/dock.dpf
DOCKED: USER  
DOCKED: USER    Estimated Free Energy of Binding    =  -10.43 kcal/mol  [=(1)+(2)+(3)-(4)]
DOCKED: USER    Estimated Inhibition Constant, Ki   =   22.57 nM (nanomolar)  [Temperature = 298.15 K]
DOCKED: USER    
DOCKED: USER    (1) Final Intermolecular Energy     =  -12.22 kcal/mol
DOCKED: USER        vdW + Hbond + desolv Energy     =   -4.17 kcal/mol
DOCKED: USER        Electrostatic Energy            =   -8.05 kcal/mol
DOCKED: USER    (2) Final Total Internal Energy     =   +2.29 kcal/mol
DOCKED: USER    (3) Torsional Free Energy           =   +1.79 kcal/mol
DOCKED: USER    (4) Unbound System's Energy  [=(2)] =   +2.29 kcal/mol
DOCKED: USER    
DOCKED: USER    
DOCKED: USER    NEWDPF move 2_3_BPG_opt.pdbqt
DOCKED: USER    NEWDPF about 0.015000 0.083000 0.031000
DOCKED: USER    NEWDPF tran0 -5.529417 -12.857605 0.054193
DOCKED: USER    NEWDPF quaternion0 -0.346535 -0.034835 -0.837003 0.422049
DOCKED: USER    NEWDPF axisangle0 -0.382248 -0.038425 -0.923261 130.071903
DOCKED: USER    NEWDPF quat0 -0.382248 -0.038425 -0.923261 130.071903
DOCKED: USER    NEWDPF dihe0 -79.76 -4.90 -90.03 33.02 -56.95 -101.65 
DOCKED: USER  keepresnum = 1 
DOCKED: USER  
DOCKED: REMARK  6 active torsions:
DOCKED: REMARK  status: ('A' for Active; 'I' for Inactive)
DOCKED: REMARK    1  A    between atoms: P_1  and  O_3 
DOCKED: REMARK    2  A    between atoms: P_2  and  O_4 
DOCKED: REMARK    3  A    between atoms: O_3  and  C_13 
DOCKED: REMARK    4  A    between atoms: O_4  and  C_14 
DOCKED: REMARK    5  A    between atoms: C_13  and  C_14 
DOCKED: REMARK    6  A    between atoms: C_13  and  C_15 
DOCKED: USER                              x       y       z     vdW  Elec       q    Type
DOCKED: USER                           _______ _______ _______ _____ _____    ______ ____
DOCKED: ROOT
DOCKED: ATOM      1  C   UNL d   1      -5.023 -13.107  -0.308 -0.12 +0.33    +0.193 C 
DOCKED: ENDROOT
DOCKED: BRANCH   1   2
DOCKED: ATOM      2  O   UNL d   1      -5.536 -14.236  -1.093 -0.25 -0.83    -0.356 OA
DOCKED: BRANCH   2   3
DOCKED: ATOM      3  P   UNL d   1      -5.341 -15.807  -0.649 -0.09 -0.03    -0.014 P 
DOCKED: ATOM      4  O   UNL d   1      -6.224 -16.595  -1.630 -0.38 -0.99    -0.577 OA
DOCKED: ATOM      5  O   UNL d   1      -5.844 -15.937   0.788 -0.35 -1.30    -0.577 OA
DOCKED: ATOM      6  O   UNL d   1      -3.867 -16.164  -0.812 -0.04 -1.15    -0.638 OA
DOCKED: ENDBRANCH   2   3
DOCKED: ENDBRANCH   1   2
DOCKED: BRANCH   1   7
DOCKED: ATOM      7  C   UNL d   1      -6.241 -12.332   0.317 -0.03 +0.26    +0.201 C 
DOCKED: BRANCH   7   8
DOCKED: ATOM      8  O   UNL d   1      -7.118 -13.110   1.161 -0.34 -0.55    -0.364 OA
DOCKED: BRANCH   8   9
DOCKED: ATOM      9  P   UNL d   1      -7.454 -12.603   2.700 -0.37 -0.02    -0.015 P 
DOCKED: ATOM     10  O   UNL d   1      -8.731 -11.763   2.573 -0.36 -0.42    -0.577 OA
DOCKED: ATOM     11  O   UNL d   1      -6.263 -11.765   3.163 -0.60 -0.82    -0.577 OA
DOCKED: ATOM     12  O   UNL d   1      -7.672 -13.854   3.550 -0.30 -1.03    -0.638 OA
DOCKED: ENDBRANCH   8   9
DOCKED: ENDBRANCH   7   8
DOCKED: ENDBRANCH   1   7
DOCKED: BRANCH   1  13
DOCKED: ATOM     13  C   UNL d   1      -4.222 -12.122  -1.238 -0.32 +0.10    +0.073 C 
DOCKED: ATOM     14  O   UNL d   1      -3.683 -12.589  -2.303 -0.54 -1.15    -0.547 OA
DOCKED: ATOM     15  O   UNL d   1      -4.210 -10.883  -0.902 -0.09 -0.44    -0.547 OA
DOCKED: ENDBRANCH   1  13
DOCKED: TORSDOF 6
DOCKED: TER
DOCKED: ENDMDL
________________________________________________________________________________


	BEGINNING GENETIC ALGORITHM DOCKING 98 of 100
Run: 98 Seed: 266797562 608665234 [ Run 98 of 100 GA/GALS ]
Beginning LAMARCKIAN GENETIC ALGORITHM (LGA), with a maximum of 25000000 energy evaluations.

Final-Value: -10.152


	FINAL GENETIC ALGORITHM DOCKED STATE
	_______________________________________________


Detailed state:  trans -5.502 -12.860 -0.028 quatxyzw -0.269488 -0.489924 -0.828247 0.036838 center 0.015 0.083 0.031 ntor 6 65.2782 -27.5450 -141.5080 -175.0736 2.9004 -59.8841
State:	 -5.502 -12.860  -0.028  -0.270 -0.490 -0.829 175.778     65.28  -27.54 -141.51 -175.07    2.90  -59.88

DOCKED: MODEL       98
DOCKED: USER    Run = 98
DOCKED: USER    DPF = D:/Protein_go_brrr/autodock/final/AncA/2_3_BPG/dock.dpf
DOCKED: USER  
DOCKED: USER    Estimated Free Energy of Binding    =  -10.82 kcal/mol  [=(1)+(2)+(3)-(4)]
DOCKED: USER    Estimated Inhibition Constant, Ki   =   11.75 nM (nanomolar)  [Temperature = 298.15 K]
DOCKED: USER    
DOCKED: USER    (1) Final Intermolecular Energy     =  -12.61 kcal/mol
DOCKED: USER        vdW + Hbond + desolv Energy     =   -4.06 kcal/mol
DOCKED: USER        Electrostatic Energy            =   -8.55 kcal/mol
DOCKED: USER    (2) Final Total Internal Energy     =   +2.46 kcal/mol
DOCKED: USER    (3) Torsional Free Energy           =   +1.79 kcal/mol
DOCKED: USER    (4) Unbound System's Energy  [=(2)] =   +2.46 kcal/mol
DOCKED: USER    
DOCKED: USER    
DOCKED: USER    NEWDPF move 2_3_BPG_opt.pdbqt
DOCKED: USER    NEWDPF about 0.015000 0.083000 0.031000
DOCKED: USER    NEWDPF tran0 -5.501740 -12.860468 -0.027873
DOCKED: USER    NEWDPF quaternion0 -0.269488 -0.489924 -0.828247 0.036838
DOCKED: USER    NEWDPF axisangle0 -0.269671 -0.490257 -0.828810 175.777665
DOCKED: USER    NEWDPF quat0 -0.269671 -0.490257 -0.828810 175.777665
DOCKED: USER    NEWDPF dihe0 65.28 -27.54 -141.51 -175.07 2.90 -59.88 
DOCKED: USER  keepresnum = 1 
DOCKED: USER  
DOCKED: REMARK  6 active torsions:
DOCKED: REMARK  status: ('A' for Active; 'I' for Inactive)
DOCKED: REMARK    1  A    between atoms: P_1  and  O_3 
DOCKED: REMARK    2  A    between atoms: P_2  and  O_4 
DOCKED: REMARK    3  A    between atoms: O_3  and  C_13 
DOCKED: REMARK    4  A    between atoms: O_4  and  C_14 
DOCKED: REMARK    5  A    between atoms: C_13  and  C_14 
DOCKED: REMARK    6  A    between atoms: C_13  and  C_15 
DOCKED: USER                              x       y       z     vdW  Elec       q    Type
DOCKED: USER                           _______ _______ _______ _____ _____    ______ ____
DOCKED: ROOT
DOCKED: ATOM      1  C   UNL d   1      -5.021 -12.816  -0.493 -0.18 +0.30    +0.193 C 
DOCKED: ENDROOT
DOCKED: BRANCH   1   2
DOCKED: ATOM      2  O   UNL d   1      -4.275 -14.079  -0.501 -0.24 -0.74    -0.356 OA
DOCKED: BRANCH   2   3
DOCKED: ATOM      3  P   UNL d   1      -4.993 -15.551  -0.646 -0.04 -0.03    -0.014 P 
DOCKED: ATOM      4  O   UNL d   1      -3.959 -16.410  -1.391 -0.01 -1.18    -0.577 OA
DOCKED: ATOM      5  O   UNL d   1      -6.261 -15.356  -1.474 -0.54 -1.32    -0.577 OA
DOCKED: ATOM      6  O   UNL d   1      -5.259 -16.086   0.757 -0.20 -1.47    -0.638 OA
DOCKED: ENDBRANCH   2   3
DOCKED: ENDBRANCH   1   2
DOCKED: BRANCH   1   7
DOCKED: ATOM      7  C   UNL d   1      -6.321 -13.003   0.373 -0.19 +0.31    +0.201 C 
DOCKED: BRANCH   7   8
DOCKED: ATOM      8  O   UNL d   1      -6.255 -12.500   1.726 -0.42 -0.69    -0.364 OA
DOCKED: BRANCH   8   9
DOCKED: ATOM      9  P   UNL d   1      -7.506 -12.771   2.774 -0.33 -0.02    -0.015 P 
DOCKED: ATOM     10  O   UNL d   1      -7.941 -14.218   2.509 -0.08 -0.83    -0.577 OA
DOCKED: ATOM     11  O   UNL d   1      -8.607 -11.771   2.423 -0.46 -0.46    -0.577 OA
DOCKED: ATOM     12  O   UNL d   1      -6.958 -12.586   4.188 -0.68 -0.89    -0.638 OA
DOCKED: ENDBRANCH   8   9
DOCKED: ENDBRANCH   7   8
DOCKED: ENDBRANCH   1   7
DOCKED: BRANCH   1  13
DOCKED: ATOM     13  C   UNL d   1      -5.443 -12.429  -1.959 -0.18 +0.12    +0.073 C 
DOCKED: ATOM     14  O   UNL d   1      -6.691 -12.326  -2.229 -0.07 -0.64    -0.547 OA
DOCKED: ATOM     15  O   UNL d   1      -4.498 -12.175  -2.790 -0.45 -1.03    -0.547 OA
DOCKED: ENDBRANCH   1  13
DOCKED: TORSDOF 6
DOCKED: TER
DOCKED: ENDMDL
________________________________________________________________________________


	BEGINNING GENETIC ALGORITHM DOCKING 99 of 100
Run: 99 Seed: 732863333 1820745846 [ Run 99 of 100 GA/GALS ]
Beginning LAMARCKIAN GENETIC ALGORITHM (LGA), with a maximum of 25000000 energy evaluations.

Final-Value: -10.049


	FINAL GENETIC ALGORITHM DOCKED STATE
	_______________________________________________


Detailed state:  trans -5.924 -12.455 -0.486 quatxyzw 0.041648 -0.460226 -0.264496 0.846463 center 0.015 0.083 0.031 ntor 6 -166.2765 -35.9879 -73.9683 5.9297 57.7852 62.0593
State:	 -5.924 -12.455  -0.486   0.078 -0.864 -0.497 64.342   -166.28  -35.99  -73.97    5.93   57.79   62.06

DOCKED: MODEL       99
DOCKED: USER    Run = 99
DOCKED: USER    DPF = D:/Protein_go_brrr/autodock/final/AncA/2_3_BPG/dock.dpf
DOCKED: USER  
DOCKED: USER    Estimated Free Energy of Binding    =  -10.40 kcal/mol  [=(1)+(2)+(3)-(4)]
DOCKED: USER    Estimated Inhibition Constant, Ki   =   23.72 nM (nanomolar)  [Temperature = 298.15 K]
DOCKED: USER    
DOCKED: USER    (1) Final Intermolecular Energy     =  -12.19 kcal/mol
DOCKED: USER        vdW + Hbond + desolv Energy     =   -4.58 kcal/mol
DOCKED: USER        Electrostatic Energy            =   -7.61 kcal/mol
DOCKED: USER    (2) Final Total Internal Energy     =   +2.14 kcal/mol
DOCKED: USER    (3) Torsional Free Energy           =   +1.79 kcal/mol
DOCKED: USER    (4) Unbound System's Energy  [=(2)] =   +2.14 kcal/mol
DOCKED: USER    
DOCKED: USER    
DOCKED: USER    NEWDPF move 2_3_BPG_opt.pdbqt
DOCKED: USER    NEWDPF about 0.015000 0.083000 0.031000
DOCKED: USER    NEWDPF tran0 -5.924110 -12.455268 -0.485966
DOCKED: USER    NEWDPF quaternion0 0.041648 -0.460226 -0.264496 0.846463
DOCKED: USER    NEWDPF axisangle0 0.078221 -0.864359 -0.496754 64.341954
DOCKED: USER    NEWDPF quat0 0.078221 -0.864359 -0.496754 64.341954
DOCKED: USER    NEWDPF dihe0 -166.28 -35.99 -73.97 5.93 57.79 62.06 
DOCKED: USER  keepresnum = 1 
DOCKED: USER  
DOCKED: REMARK  6 active torsions:
DOCKED: REMARK  status: ('A' for Active; 'I' for Inactive)
DOCKED: REMARK    1  A    between atoms: P_1  and  O_3 
DOCKED: REMARK    2  A    between atoms: P_2  and  O_4 
DOCKED: REMARK    3  A    between atoms: O_3  and  C_13 
DOCKED: REMARK    4  A    between atoms: O_4  and  C_14 
DOCKED: REMARK    5  A    between atoms: C_13  and  C_14 
DOCKED: REMARK    6  A    between atoms: C_13  and  C_15 
DOCKED: USER                              x       y       z     vdW  Elec       q    Type
DOCKED: USER                           _______ _______ _______ _____ _____    ______ ____
DOCKED: ROOT
DOCKED: ATOM      1  C   UNL d   1      -5.958 -12.933  -0.017 -0.21 +0.29    +0.193 C 
DOCKED: ENDROOT
DOCKED: BRANCH   1   2
DOCKED: ATOM      2  O   UNL d   1      -7.291 -12.881   0.594 -0.32 -0.44    -0.356 OA
DOCKED: BRANCH   2   3
DOCKED: ATOM      3  P   UNL d   1      -7.537 -12.756   2.215 -0.32 -0.02    -0.014 P 
DOCKED: ATOM      4  O   UNL d   1      -8.717 -11.782   2.349 -0.45 -0.44    -0.577 OA
DOCKED: ATOM      5  O   UNL d   1      -6.260 -12.179   2.823 -0.58 -1.07    -0.577 OA
DOCKED: ATOM      6  O   UNL d   1      -7.891 -14.141   2.746 -0.11 -0.95    -0.638 OA
DOCKED: ENDBRANCH   2   3
DOCKED: ENDBRANCH   1   2
DOCKED: BRANCH   1   7
DOCKED: ATOM      7  C   UNL d   1      -5.956 -12.027  -1.303 -0.17 +0.23    +0.201 C 
DOCKED: BRANCH   7   8
DOCKED: ATOM      8  O   UNL d   1      -5.267 -12.566  -2.453 -0.20 -0.74    -0.364 OA
DOCKED: BRANCH   8   9
DOCKED: ATOM      9  P   UNL d   1      -3.972 -11.762  -3.096 -0.31 -0.02    -0.015 P 
DOCKED: ATOM     10  O   UNL d   1      -2.750 -12.610  -2.721 -0.54 -0.97    -0.577 OA
DOCKED: ATOM     11  O   UNL d   1      -3.932 -10.383  -2.439 -0.05 -0.41    -0.577 OA
DOCKED: ATOM     12  O   UNL d   1      -4.185 -11.699  -4.607 -0.14 -0.75    -0.638 OA
DOCKED: ENDBRANCH   8   9
DOCKED: ENDBRANCH   7   8
DOCKED: ENDBRANCH   1   7
DOCKED: BRANCH   1  13
DOCKED: ATOM     13  C   UNL d   1      -5.615 -14.410  -0.441 -0.15 +0.15    +0.073 C 
DOCKED: ATOM     14  O   UNL d   1      -4.677 -15.022   0.180 -0.53 -1.32    -0.547 OA
DOCKED: ATOM     15  O   UNL d   1      -6.349 -14.940  -1.351 -0.50 -1.19    -0.547 OA
DOCKED: ENDBRANCH   1  13
DOCKED: TORSDOF 6
DOCKED: TER
DOCKED: ENDMDL
________________________________________________________________________________


	BEGINNING GENETIC ALGORITHM DOCKING 100 of 100
Run: 100 Seed: 1211076912 1778668089 [ Run 100 of 100 GA/GALS ]
Beginning LAMARCKIAN GENETIC ALGORITHM (LGA), with a maximum of 25000000 energy evaluations.

Final-Value: -10.234


	FINAL GENETIC ALGORITHM DOCKED STATE
	_______________________________________________


Detailed state:  trans -6.492 -12.918 -0.722 quatxyzw -0.650423 -0.563557 0.505223 -0.064054 center 0.015 0.083 0.031 ntor 6 -35.9151 85.4683 -55.8600 29.8584 -50.2266 -176.9108
State:	 -6.492 -12.918  -0.722  -0.652 -0.565  0.506 -172.655    -35.92   85.47  -55.86   29.86  -50.23 -176.91

DOCKED: MODEL      100
DOCKED: USER    Run = 100
DOCKED: USER    DPF = D:/Protein_go_brrr/autodock/final/AncA/2_3_BPG/dock.dpf
DOCKED: USER  
DOCKED: USER    Estimated Free Energy of Binding    =  -10.83 kcal/mol  [=(1)+(2)+(3)-(4)]
DOCKED: USER    Estimated Inhibition Constant, Ki   =   11.60 nM (nanomolar)  [Temperature = 298.15 K]
DOCKED: USER    
DOCKED: USER    (1) Final Intermolecular Energy     =  -12.62 kcal/mol
DOCKED: USER        vdW + Hbond + desolv Energy     =   -4.46 kcal/mol
DOCKED: USER        Electrostatic Energy            =   -8.16 kcal/mol
DOCKED: USER    (2) Final Total Internal Energy     =   +2.38 kcal/mol
DOCKED: USER    (3) Torsional Free Energy           =   +1.79 kcal/mol
DOCKED: USER    (4) Unbound System's Energy  [=(2)] =   +2.38 kcal/mol
DOCKED: USER    
DOCKED: USER    
DOCKED: USER    NEWDPF move 2_3_BPG_opt.pdbqt
DOCKED: USER    NEWDPF about 0.015000 0.083000 0.031000
DOCKED: USER    NEWDPF tran0 -6.491732 -12.917591 -0.721965
DOCKED: USER    NEWDPF quaternion0 -0.650423 -0.563557 0.505223 -0.064054
DOCKED: USER    NEWDPF axisangle0 -0.651762 -0.564717 0.506262 -172.654885
DOCKED: USER    NEWDPF quat0 -0.651762 -0.564717 0.506262 -172.654885
DOCKED: USER    NEWDPF dihe0 -35.92 85.47 -55.86 29.86 -50.23 -176.91 
DOCKED: USER  keepresnum = 1 
DOCKED: USER  
DOCKED: REMARK  6 active torsions:
DOCKED: REMARK  status: ('A' for Active; 'I' for Inactive)
DOCKED: REMARK    1  A    between atoms: P_1  and  O_3 
DOCKED: REMARK    2  A    between atoms: P_2  and  O_4 
DOCKED: REMARK    3  A    between atoms: O_3  and  C_13 
DOCKED: REMARK    4  A    between atoms: O_4  and  C_14 
DOCKED: REMARK    5  A    between atoms: C_13  and  C_14 
DOCKED: REMARK    6  A    between atoms: C_13  and  C_15 
DOCKED: USER                              x       y       z     vdW  Elec       q    Type
DOCKED: USER                           _______ _______ _______ _____ _____    ______ ____
DOCKED: ROOT
DOCKED: ATOM      1  C   UNL d   1      -6.683 -13.319  -0.220 -0.20 +0.27    +0.193 C 
DOCKED: ENDROOT
DOCKED: BRANCH   1   2
DOCKED: ATOM      2  O   UNL d   1      -5.527 -14.129   0.183 -0.52 -0.80    -0.356 OA
DOCKED: BRANCH   2   3
DOCKED: ATOM      3  P   UNL d   1      -5.333 -15.703  -0.250 -0.14 -0.03    -0.014 P 
DOCKED: ATOM      4  O   UNL d   1      -5.815 -16.499   0.973 -0.26 -1.08    -0.577 OA
DOCKED: ATOM      5  O   UNL d   1      -3.845 -15.921  -0.511 -0.09 -1.04    -0.577 OA
DOCKED: ATOM      6  O   UNL d   1      -6.210 -15.968  -1.470 -0.52 -1.30    -0.638 OA
DOCKED: ENDBRANCH   2   3
DOCKED: ENDBRANCH   1   2
DOCKED: BRANCH   1   7
DOCKED: ATOM      7  C   UNL d   1      -6.188 -12.178  -1.184 -0.20 +0.23    +0.201 C 
DOCKED: BRANCH   7   8
DOCKED: ATOM      8  O   UNL d   1      -4.770 -11.906  -1.163 -0.20 -0.44    -0.364 OA
DOCKED: BRANCH   8   9
DOCKED: ATOM      9  P   UNL d   1      -3.931 -11.761  -2.581 -0.37 -0.02    -0.015 P 
DOCKED: ATOM     10  O   UNL d   1      -3.216 -10.408  -2.486 -0.04 -0.39    -0.577 OA
DOCKED: ATOM     11  O   UNL d   1      -4.959 -11.786  -3.712 -0.24 -0.80    -0.577 OA
DOCKED: ATOM     12  O   UNL d   1      -2.946 -12.928  -2.644 -0.40 -1.37    -0.638 OA
DOCKED: ENDBRANCH   8   9
DOCKED: ENDBRANCH   7   8
DOCKED: ENDBRANCH   1   7
DOCKED: BRANCH   1  13
DOCKED: ATOM     13  C   UNL d   1      -7.346 -12.658   1.045 -0.19 +0.09    +0.073 C 
DOCKED: ATOM     14  O   UNL d   1      -6.665 -12.592   2.128 -0.65 -1.03    -0.547 OA
DOCKED: ATOM     15  O   UNL d   1      -8.520 -12.161   0.895 -0.44 -0.45    -0.547 OA
DOCKED: ENDBRANCH   1  13
DOCKED: TORSDOF 6
DOCKED: TER
DOCKED: ENDMDL
________________________________________________________________________________

DPF> analysis                             # perform a ranked cluster analysis


		CLUSTER ANALYSIS OF CONFORMATIONS
		_________________________________

Number of conformations = 100

RMSD cluster analysis will be performed using the ligand atoms only (15 / 15 total atoms).

Outputting structurally similar clusters, ranked in order of increasing energy.


________________________________________________________________________________

Number of distinct conformational clusters found = 3,  out of 100 runs,
Using an rmsd-tolerance of 2.0 A


	CLUSTERING HISTOGRAM
	____________________

________________________________________________________________________________
     |           |     |           |     |                                    
Clus | Lowest    | Run | Mean      | Num | Histogram                          
-ter | Binding   |     | Binding   | in  |                                    
Rank | Energy    |     | Energy    | Clus|    5    10   15   20   25   30   35
_____|___________|_____|___________|_____|____:____|____:____|____:____|____:___
   1 |    -11.05 |  28 |    -10.43 |  70 |######################################################################
   2 |    -10.84 |  46 |    -10.49 |  29 |#############################
   3 |     -9.54 |  29 |     -9.54 |   1 |#
_____|___________|_____|___________|_____|______________________________________


Number of multi-member conformational clusters found = 2, out of 100 runs.

	RMSD TABLE
	__________

_____________________________________________________________________
     |      |      |           |         |                 |
Rank | Sub- | Run  | Binding   | Cluster | Reference       | Grep
     | Rank |      | Energy    | RMSD    | RMSD            | Pattern
_____|______|______|___________|_________|_________________|___________
   1      1     28      -11.05      0.00     13.48           RANKING
   1      2     40      -11.02      0.16     13.47           RANKING
   1      3     63      -11.01      0.19     13.46           RANKING
   1      4     77      -10.97      1.51     13.29           RANKING
   1      5     26      -10.88      1.63     12.89           RANKING
   1      6     51      -10.87      0.49     13.57           RANKING
   1      7     53      -10.86      1.66     12.70           RANKING
   1      8     65      -10.86      1.79     12.76           RANKING
   1      9      3      -10.84      1.92     12.65           RANKING
   1     10     98      -10.82      1.67     13.06           RANKING
   1     11     44      -10.81      1.54     13.15           RANKING
   1     12     33      -10.81      1.83     12.54           RANKING
   1     13     20      -10.80      1.92     12.67           RANKING
   1     14     30      -10.80      1.73     12.85           RANKING
   1     15     15      -10.76      1.62     13.28           RANKING
   1     16     48      -10.69      0.70     13.51           RANKING
   1     17     81      -10.69      0.72     13.66           RANKING
   1     18     62      -10.68      0.67     13.48           RANKING
   1     19     27      -10.67      0.67     13.53           RANKING
   1     20     92      -10.66      0.65     13.51           RANKING
   1     21     58      -10.66      0.45     13.50           RANKING
   1     22     96      -10.64      0.96     13.45           RANKING
   1     23     47      -10.62      1.55     13.14           RANKING
   1     24     83      -10.59      0.61     13.43           RANKING
   1     25     70      -10.57      1.28     13.28           RANKING
   1     26      8      -10.56      1.70     12.85           RANKING
   1     27     69      -10.55      1.98     12.38           RANKING
   1     28     84      -10.53      1.77     12.83           RANKING
   1     29     19      -10.53      1.37     13.33           RANKING
   1     30      1      -10.53      0.74     13.61           RANKING
   1     31     68      -10.52      1.34     13.37           RANKING
   1     32     91      -10.50      1.32     13.36           RANKING
   1     33     24      -10.46      1.96     13.02           RANKING
   1     34     64      -10.44      0.79     13.63           RANKING
   1     35     61      -10.44      1.96     12.61           RANKING
   1     36     50      -10.43      1.33     13.43           RANKING
   1     37     97      -10.43      1.75     12.93           RANKING
   1     38      9      -10.43      0.95     13.43           RANKING
   1     39     49      -10.41      1.48     13.47           RANKING
   1     40     14      -10.37      1.76     13.21           RANKING
   1     41     89      -10.37      0.91     13.28           RANKING
   1     42     75      -10.32      1.65     13.05           RANKING
   1     43     37      -10.30      1.79     13.38           RANKING
   1     44     39      -10.29      0.78     13.52           RANKING
   1     45     94      -10.29      1.00     13.51           RANKING
   1     46     16      -10.29      1.37     13.30           RANKING
   1     47     79      -10.28      1.68     13.46           RANKING
   1     48     71      -10.26      1.82     13.01           RANKING
   1     49     38      -10.25      1.48     13.30           RANKING
   1     50     82      -10.25      0.97     13.36           RANKING
   1     51     90      -10.24      1.72     13.11           RANKING
   1     52     41      -10.24      1.65     13.15           RANKING
   1     53     93      -10.22      0.80     13.79           RANKING
   1     54     18      -10.21      1.70     13.12           RANKING
   1     55     35      -10.20      1.74     13.17           RANKING
   1     56     88      -10.20      1.71     13.13           RANKING
   1     57     67      -10.16      1.72     13.31           RANKING
   1     58     45      -10.16      1.42     13.44           RANKING
   1     59     78      -10.15      1.51     13.33           RANKING
   1     60     42      -10.12      1.70     13.36           RANKING
   1     61     36      -10.11      1.08     13.67           RANKING
   1     62     13      -10.11      1.38     13.39           RANKING
   1     63     23       -9.92      1.57     13.31           RANKING
   1     64     21       -9.92      1.58     13.46           RANKING
   1     65     60       -9.89      1.52     14.41           RANKING
   1     66     66       -9.84      1.58     13.29           RANKING
   1     67     74       -9.83      1.53     13.58           RANKING
   1     68     10       -9.80      1.58     13.39           RANKING
   1     69     80       -9.77      1.54     13.34           RANKING
   1     70     76       -9.74      1.55     13.44           RANKING
   2      1     46      -10.84      0.00     12.67           RANKING
   2      2     34      -10.84      1.73     12.45           RANKING
   2      3    100      -10.83      0.20     12.70           RANKING
   2      4     86      -10.79      0.30     12.64           RANKING
   2      5      7      -10.79      0.69     12.73           RANKING
   2      6     32      -10.78      1.70     12.51           RANKING
   2      7     54      -10.75      0.27     12.58           RANKING
   2      8     72      -10.73      0.27     12.66           RANKING
   2      9     31      -10.70      0.53     12.72           RANKING
   2     10     85      -10.66      0.47     12.76           RANKING
   2     11     55      -10.66      0.61     12.69           RANKING
   2     12     73      -10.58      0.38     12.71           RANKING
   2     13     22      -10.54      0.51     12.71           RANKING
   2     14     87      -10.49      1.59     12.30           RANKING
   2     15     12      -10.47      0.42     12.70           RANKING
   2     16      5      -10.45      0.74     12.77           RANKING
   2     17      6      -10.42      0.75     12.61           RANKING
   2     18     59      -10.41      1.69     12.45           RANKING
   2     19     11      -10.40      0.68     12.64           RANKING
   2     20     99      -10.40      1.61     12.31           RANKING
   2     21     17      -10.40      0.87     12.87           RANKING
   2     22     57      -10.39      1.55     12.44           RANKING
   2     23     25      -10.39      0.78     12.81           RANKING
   2     24      4      -10.38      0.90     12.89           RANKING
   2     25     95      -10.30      0.99     12.93           RANKING
   2     26      2      -10.18      0.98     12.89           RANKING
   2     27     43      -10.12      0.55     12.81           RANKING
   2     28     56      -10.10      0.99     13.00           RANKING
   2     29     52       -9.53      1.95     12.55           RANKING
   3      1     29       -9.54      0.00     16.27           RANKING
_______________________________________________________________________



	INFORMATION ENTROPY ANALYSIS FOR THIS CLUSTERING
	________________________________________________


Information entropy for this clustering = 0.14  (rmstol = 2.00 Angstrom)

_______________________________________________________________________


	STATISTICAL MECHANICAL ANALYSIS
	_______________________________


Partition function, Q =   101.78            at Temperature, T = 298.15 K
Free energy,        A ~ -2738.92 kcal/mol   at Temperature, T = 298.15 K
Internal energy,    U =   -10.44 kcal/mol   at Temperature, T = 298.15 K
Entropy,            S =     9.15 kcal/mol/K at Temperature, T = 298.15 K

_______________________________________________________________________


	LOWEST ENERGY DOCKED CONFORMATION from EACH CLUSTER
	___________________________________________________



Keeping original residue number (specified in the input PDBQ file) for outputting.

MODEL       28
USER    Run = 28
USER    Cluster Rank = 1
USER    Number of conformations in this cluster = 70
USER  
USER    RMSD from reference structure       = 13.480 A
USER  
USER    Estimated Free Energy of Binding    =  -11.05 kcal/mol  [=(1)+(2)+(3)-(4)]
USER    Estimated Inhibition Constant, Ki   =    7.99 nM (nanomolar)  [Temperature = 298.15 K]
USER    
USER    (1) Final Intermolecular Energy     =  -12.84 kcal/mol
USER        vdW + Hbond + desolv Energy     =   -5.09 kcal/mol
USER        Electrostatic Energy            =   -7.74 kcal/mol
USER    (2) Final Total Internal Energy     =   +2.16 kcal/mol
USER    (3) Torsional Free Energy           =   +1.79 kcal/mol
USER    (4) Unbound System's Energy  [=(2)] =   +2.16 kcal/mol
USER    
USER    
USER  
USER    DPF = D:/Protein_go_brrr/autodock/final/AncA/2_3_BPG/dock.dpf
USER    NEWDPF move	2_3_BPG_opt.pdbqt
USER    NEWDPF about	0.015000 0.083000 0.031000
USER    NEWDPF tran0	-7.639694 -13.087508 0.816348
USER    NEWDPF axisangle0	-0.718514 -0.429551 0.547014 96.381506
USER    NEWDPF quaternion0	-0.535558 -0.320173 0.407727 0.666653
USER    NEWDPF dihe0	159.34 178.06 57.81 33.57 -72.02 -82.17 
USER  
USER                              x       y       z    vdW   Elec        q     RMS 
ATOM      1  C   UNL d   1      -8.188 -13.090   1.202 -0.23 +0.20    +0.193    13.480
ATOM      2  O   UNL d   1      -7.960 -12.177   2.328 -0.84 -0.39    -0.356    13.480
ATOM      3  P   UNL d   1      -7.496 -12.685   3.821 -0.50 -0.02    -0.014    13.480
ATOM      4  O   UNL d   1      -7.538 -14.219   3.735 -0.23 -1.00    -0.577    13.480
ATOM      5  O   UNL d   1      -8.521 -12.150   4.820 -0.17 -0.31    -0.577    13.480
ATOM      6  O   UNL d   1      -6.080 -12.177   4.073 -0.51 -0.97    -0.638    13.480
ATOM      7  C   UNL d   1      -7.045 -12.880   0.142 -0.20 +0.24    +0.201    13.480
ATOM      8  O   UNL d   1      -5.771 -13.482   0.460 -0.27 -0.75    -0.364    13.480
ATOM      9  P   UNL d   1      -5.218 -14.768  -0.421 -0.05 -0.03    -0.015    13.480
ATOM     10  O   UNL d   1      -5.057 -15.906   0.593 -0.44 -1.35    -0.577    13.480
ATOM     11  O   UNL d   1      -3.878 -14.349  -1.027 -0.00 -1.31    -0.577    13.480
ATOM     12  O   UNL d   1      -6.279 -15.083  -1.474 -0.49 -1.50    -0.638    13.480
ATOM     13  C   UNL d   1      -9.572 -12.772   0.521 -0.28 +0.05    +0.073    13.480
ATOM     14  O   UNL d   1     -10.239 -13.740   0.012 -0.30 -0.32    -0.547    13.480
ATOM     15  O   UNL d   1      -9.981 -11.556   0.574 -0.58 -0.30    -0.547    13.480
TER
ENDMDL
MODEL       46
USER    Run = 46
USER    Cluster Rank = 2
USER    Number of conformations in this cluster = 29
USER  
USER    RMSD from reference structure       = 12.674 A
USER  
USER    Estimated Free Energy of Binding    =  -10.84 kcal/mol  [=(1)+(2)+(3)-(4)]
USER    Estimated Inhibition Constant, Ki   =   11.24 nM (nanomolar)  [Temperature = 298.15 K]
USER    
USER    (1) Final Intermolecular Energy     =  -12.63 kcal/mol
USER        vdW + Hbond + desolv Energy     =   -4.37 kcal/mol
USER        Electrostatic Energy            =   -8.26 kcal/mol
USER    (2) Final Total Internal Energy     =   +2.46 kcal/mol
USER    (3) Torsional Free Energy           =   +1.79 kcal/mol
USER    (4) Unbound System's Energy  [=(2)] =   +2.46 kcal/mol
USER    
USER    
USER  
USER    DPF = D:/Protein_go_brrr/autodock/final/AncA/2_3_BPG/dock.dpf
USER    NEWDPF move	2_3_BPG_opt.pdbqt
USER    NEWDPF about	0.015000 0.083000 0.031000
USER    NEWDPF tran0	-6.577026 -12.884666 -0.730869
USER    NEWDPF axisangle0	0.634559 0.568498 -0.523589 173.415048
USER    NEWDPF quaternion0	0.633512 0.567559 -0.522724 0.057433
USER    NEWDPF dihe0	142.91 -35.36 59.86 29.89 -56.43 179.09 
USER  
USER                              x       y       z    vdW   Elec        q     RMS 
ATOM      1  C   UNL d   1      -6.739 -13.281  -0.215 -0.20 +0.26    +0.193    12.674
ATOM      2  O   UNL d   1      -5.545 -14.043   0.168 -0.51 -0.78    -0.356    12.674
ATOM      3  P   UNL d   1      -5.311 -15.619  -0.237 -0.13 -0.03    -0.014    12.674
ATOM      4  O   UNL d   1      -3.817 -15.709  -0.585 -0.09 -1.08    -0.577    12.674
ATOM      5  O   UNL d   1      -6.189 -15.909  -1.453 -0.53 -1.20    -0.577    12.674
ATOM      6  O   UNL d   1      -5.655 -16.474   0.978 -0.25 -1.24    -0.638    12.674
ATOM      7  C   UNL d   1      -6.313 -12.147  -1.219 -0.18 +0.22    +0.201    12.674
ATOM      8  O   UNL d   1      -4.921 -11.764  -1.185 -0.19 -0.42    -0.364    12.674
ATOM      9  P   UNL d   1      -4.026 -11.764  -2.577 -0.37 -0.02    -0.015    12.674
ATOM     10  O   UNL d   1      -2.918 -12.797  -2.339 -0.50 -1.06    -0.577    12.674
ATOM     11  O   UNL d   1      -3.464 -10.352  -2.745 -0.05 -0.39    -0.577    12.674
ATOM     12  O   UNL d   1      -4.961 -12.175  -3.714 -0.10 -1.14    -0.638    12.674
ATOM     13  C   UNL d   1      -7.383 -12.613   1.057 -0.18 +0.09    +0.073    12.674
ATOM     14  O   UNL d   1      -8.588 -12.186   0.978 -0.45 -0.45    -0.547    12.674
ATOM     15  O   UNL d   1      -6.674 -12.594   2.127 -0.65 -1.03    -0.547    12.674
TER
ENDMDL
MODEL       29
USER    Run = 29
USER    Cluster Rank = 3
USER    Number of conformations in this cluster = 1
USER  
USER    RMSD from reference structure       = 16.274 A
USER  
USER    Estimated Free Energy of Binding    =   -9.54 kcal/mol  [=(1)+(2)+(3)-(4)]
USER    Estimated Inhibition Constant, Ki   =  101.60 nM (nanomolar)  [Temperature = 298.15 K]
USER    
USER    (1) Final Intermolecular Energy     =  -11.33 kcal/mol
USER        vdW + Hbond + desolv Energy     =   -2.80 kcal/mol
USER        Electrostatic Energy            =   -8.53 kcal/mol
USER    (2) Final Total Internal Energy     =   +2.12 kcal/mol
USER    (3) Torsional Free Energy           =   +1.79 kcal/mol
USER    (4) Unbound System's Energy  [=(2)] =   +2.12 kcal/mol
USER    
USER    
USER  
USER    DPF = D:/Protein_go_brrr/autodock/final/AncA/2_3_BPG/dock.dpf
USER    NEWDPF move	2_3_BPG_opt.pdbqt
USER    NEWDPF about	0.015000 0.083000 0.031000
USER    NEWDPF tran0	-4.029497 -17.921690 -3.063261
USER    NEWDPF axisangle0	-0.484337 0.538897 -0.689208 134.795177
USER    NEWDPF quaternion0	-0.447137 0.497506 -0.636273 0.384334
USER    NEWDPF dihe0	169.05 -51.23 160.91 29.70 -33.94 75.71 
USER  
USER                              x       y       z    vdW   Elec        q     RMS 
ATOM      1  C   UNL d   1      -3.542 -17.973  -3.521 -0.07 +0.27    +0.193    16.274
ATOM      2  O   UNL d   1      -4.088 -17.559  -4.818 -0.15 -0.58    -0.356    16.274
ATOM      3  P   UNL d   1      -4.524 -18.621  -5.995 -0.26 -0.02    -0.014    16.274
ATOM      4  O   UNL d   1      -5.987 -18.268  -6.307 -0.08 -0.80    -0.577    16.274
ATOM      5  O   UNL d   1      -4.398 -20.025  -5.407 -0.01 -0.61    -0.577    16.274
ATOM      6  O   UNL d   1      -3.622 -18.384  -7.202 -0.45 -1.16    -0.638    16.274
ATOM      7  C   UNL d   1      -4.570 -17.586  -2.394 +0.01 +0.33    +0.201    16.274
ATOM      8  O   UNL d   1      -4.054 -16.764  -1.325 -0.08 -0.65    -0.364    16.274
ATOM      9  P   UNL d   1      -5.046 -15.691  -0.550 -0.08 -0.03    -0.015    16.274
ATOM     10  O   UNL d   1      -6.258 -15.528  -1.476 -0.55 -1.29    -0.577    16.274
ATOM     11  O   UNL d   1      -4.263 -14.387  -0.400 -0.24 -1.23    -0.577    16.274
ATOM     12  O   UNL d   1      -5.428 -16.317   0.791 -0.33 -1.31    -0.638    16.274
ATOM     13  C   UNL d   1      -2.185 -17.226  -3.243 -0.07 +0.10    +0.073    16.274
ATOM     14  O   UNL d   1      -1.209 -17.895  -2.751 +0.00 -0.44    -0.547    16.274
ATOM     15  O   UNL d   1      -2.117 -15.992  -3.588 -0.44 -1.10    -0.547    16.274
TER
ENDMDL


AVSFLD: # AVS field file
AVSFLD: #
AVSFLD: # Created by AutoDock
AVSFLD: #
AVSFLD: ndim=2           # number of dimensions in the field
AVSFLD: nspace=1         # number of physical coordinates
AVSFLD: veclen=7         # vector size
AVSFLD: dim1=15          # atoms
AVSFLD: dim2=3           # conformations
AVSFLD: data=Real       # data type (byte,integer,Real,double)
AVSFLD: field=uniform    # field coordinate layout
AVSFLD: label= x y z vdW Elec q RMS
AVSFLD: variable 1 file = D:/Protein_go_brrr/autodock/final/AncA/2_3_BPG/dock.dlg.pdb filetype = ascii offset = 5 stride = 12
AVSFLD: variable 2 file = D:/Protein_go_brrr/autodock/final/AncA/2_3_BPG/dock.dlg.pdb filetype = ascii offset = 6 stride = 12
AVSFLD: variable 3 file = D:/Protein_go_brrr/autodock/final/AncA/2_3_BPG/dock.dlg.pdb filetype = ascii offset = 7 stride = 12
AVSFLD: variable 4 file = D:/Protein_go_brrr/autodock/final/AncA/2_3_BPG/dock.dlg.pdb filetype = ascii offset = 8 stride = 12
AVSFLD: variable 5 file = D:/Protein_go_brrr/autodock/final/AncA/2_3_BPG/dock.dlg.pdb filetype = ascii offset = 9 stride = 12
AVSFLD: variable 6 file = D:/Protein_go_brrr/autodock/final/AncA/2_3_BPG/dock.dlg.pdb filetype = ascii offset = 10 stride = 12
AVSFLD: variable 7 file = D:/Protein_go_brrr/autodock/final/AncA/2_3_BPG/dock.dlg.pdb filetype = ascii offset = 11 stride = 12
AVSFLD: # end of file

>>> Closing the docking parameter file (DPF)...
This docking finished at:			2:41 09" a.m., 09/30/2025


________________________________________________________________________________

D:/autodockScripts/autodock4.exe: Successful Completion on "ACER"

Real= 10h 23m 14.18s,  CPU= 57.95s,  System= 1m 19.81s
________________________________________________________________________________

