          AutoDock 4.2 Release 4.2.6   
         (C) 1989-2012 The Scripps Research Institute
        AutoDock comes with ABSOLUTELY NO WARRANTY.
        AutoDock is free software, and you are welcome
        to redistribute it under certain conditions;
        for details type 'autodock4 -C'

                     main.cc  $Revision: 1.213 $

                   Compiled on Jul 18 2014 at 15:34:58


This file was created at:			0:47 04" a.m., 09/29/2025
                   on host:		"ACER"
Current Working Directory = "D:\Protein_go_brrr\autodock\final\6BB5\2_3_BPG"

      ________________________________________________________________

                   SETTING UP DEFAULT PARAMETER LIBRARY
      ________________________________________________________________


Random number generator was seeded with values 104272, 1759099624.
Docking parameter file (DPF) used for this docking:		D:/Protein_go_brrr/autodock/final/6BB5/2_3_BPG/dock.dpf
DPF> autodock_parameter_version 4.2       # used by autodock to validate parameter set

	Autodock parameter version 4.2.
DPF> outlev 1                             # diagnostic output level

Output Level = 1  ADT-COMPATIBLE OUTPUT DURING DOCKING.
DPF> intelec                              # calculate internal electrostatics

Electrostatic energies will be calculated for all non-bonds between moving atoms.
DPF> seed pid time                        # seeds for random generator

Random number generator was seeded with values 104272, 1759099624.
DPF> ligand_types P C OA                  # atoms types in ligand

DPF> fld opt_6BB5.maps.fld                # grid_data_file

Opening Grid Map Dimensions file:		opt_6BB5.maps.fld
Grid Point Spacing =				0.625 Angstroms

Even Number of User-specified Grid Points =	126 x-points
						126 y-points
						126 z-points

Coordinates of Central Grid Point of Maps =	(23.343, 33.533, 11.432)
Macromolecule file used to create Grid Maps =	opt_6BB5.pdbqt
Grid Parameter file used to create Grid Maps =	D:/Protein_go_brrr/autodock/final/6BB5/2_3_BPG/grid.gpf
Minimum coordinates in grid = (-16.032, -5.842, -27.943)
Maximum coordinates in grid = (62.718, 72.908, 50.807)

DPF> map opt_6BB5.P.map                   # atom-specific affinity map

DPF> map opt_6BB5.C.map                   # atom-specific affinity map

DPF> map opt_6BB5.OA.map                  # atom-specific affinity map

DPF> elecmap opt_6BB5.e.map               # electrostatics map

DPF> desolvmap opt_6BB5.d.map             # desolvation map

DPF> move 2_3_BPG_opt.pdbqt               # small molecule

1,4-interactions will be _ignored_ in the non-bonded internal energy calculation.

Ligand PDBQT file = "2_3_BPG_opt.pdbqt"

INPUT LIGAND PDBQT FILE:
________________________

INPUT-LIGAND-PDBQT: REMARK  6 active torsions:
INPUT-LIGAND-PDBQT: REMARK  status: ('A' for Active; 'I' for Inactive)
INPUT-LIGAND-PDBQT: REMARK    1  A    between atoms: P_1  and  O_3 
INPUT-LIGAND-PDBQT: REMARK    2  A    between atoms: P_2  and  O_4 
INPUT-LIGAND-PDBQT: REMARK    3  A    between atoms: O_3  and  C_13 
INPUT-LIGAND-PDBQT: REMARK    4  A    between atoms: O_4  and  C_14 
INPUT-LIGAND-PDBQT: REMARK    5  A    between atoms: C_13  and  C_14 
INPUT-LIGAND-PDBQT: REMARK    6  A    between atoms: C_13  and  C_15 
INPUT-LIGAND-PDBQT: ROOT
INPUT-LIGAND-PDBQT: ATOM      1  C   UNL d   1      -0.571  -0.229   0.124  0.00  0.00     0.193 C 
INPUT-LIGAND-PDBQT: ENDROOT
INPUT-LIGAND-PDBQT: BRANCH   1   2
INPUT-LIGAND-PDBQT: ATOM      2  O   UNL d   1      -1.621   0.569  -0.519  0.00  0.00    -0.356 OA
INPUT-LIGAND-PDBQT: BRANCH   2   3
INPUT-LIGAND-PDBQT: ATOM      3  P   UNL d   1      -3.039   0.957   0.218  0.00  0.00    -0.014 P 
INPUT-LIGAND-PDBQT: ATOM      4  O   UNL d   1      -3.756   1.871  -0.788  0.00  0.00    -0.577 OA
INPUT-LIGAND-PDBQT: ATOM      5  O   UNL d   1      -2.691   1.702   1.505  0.00  0.00    -0.577 OA
INPUT-LIGAND-PDBQT: ATOM      6  O   UNL d   1      -3.816  -0.334   0.454  0.00  0.00    -0.638 OA
INPUT-LIGAND-PDBQT: ENDBRANCH   2   3
INPUT-LIGAND-PDBQT: ENDBRANCH   1   2
INPUT-LIGAND-PDBQT: BRANCH   1   7
INPUT-LIGAND-PDBQT: ATOM      7  C   UNL d   1       0.831   0.324  -0.327  0.00  0.00     0.201 C 
INPUT-LIGAND-PDBQT: BRANCH   7   8
INPUT-LIGAND-PDBQT: ATOM      8  O   UNL d   1       1.946  -0.012   0.528  0.00  0.00    -0.364 OA
INPUT-LIGAND-PDBQT: BRANCH   8   9
INPUT-LIGAND-PDBQT: ATOM      9  P   UNL d   1       3.455   0.578   0.194  0.00  0.00    -0.015 P 
INPUT-LIGAND-PDBQT: ATOM     10  O   UNL d   1       4.367  -0.029   1.267  0.00  0.00    -0.577 OA
INPUT-LIGAND-PDBQT: ATOM     11  O   UNL d   1       3.374   2.100   0.308  0.00  0.00    -0.577 OA
INPUT-LIGAND-PDBQT: ATOM     12  O   UNL d   1       3.825   0.102  -1.210  0.00  0.00    -0.638 OA
INPUT-LIGAND-PDBQT: ENDBRANCH   8   9
INPUT-LIGAND-PDBQT: ENDBRANCH   7   8
INPUT-LIGAND-PDBQT: ENDBRANCH   1   7
INPUT-LIGAND-PDBQT: BRANCH   1  13
INPUT-LIGAND-PDBQT: ATOM     13  C   UNL d   1      -0.687  -1.734  -0.323  0.00  0.00     0.073 C 
INPUT-LIGAND-PDBQT: ATOM     14  O   UNL d   1      -0.704  -2.000  -1.576  0.00  0.00    -0.547 OA
INPUT-LIGAND-PDBQT: ATOM     15  O   UNL d   1      -0.694  -2.619   0.607  0.00  0.00    -0.547 OA
INPUT-LIGAND-PDBQT: ENDBRANCH   1  13
INPUT-LIGAND-PDBQT: TORSDOF 6
________________________________________________________________________________

Total charge on ligand                               =	-4.960 e
REMARK  6 active torsions:
REMARK  status: ('A' for Active; 'I' for Inactive)
REMARK    1  A    between atoms: P_1  and  O_3 
REMARK    2  A    between atoms: P_2  and  O_4 
REMARK    3  A    between atoms: O_3  and  C_13 
REMARK    4  A    between atoms: O_4  and  C_14 
REMARK    5  A    between atoms: C_13  and  C_14 
REMARK    6  A    between atoms: C_13  and  C_15 


Number of Rotatable Bonds in Small Molecule =	6 torsions
Number of atoms in ligand:  15

Number of non-hydrogen atoms in ligand:  15

Number of vibrational degrees of freedom of ligand:  39


Number of torsional degrees of freedom = 6
Estimated loss of torsional free energy upon binding = +1.7898 kcal/mol


DPF> about 0.015 0.083 0.031            # small molecule center

Small molecule center of rotation =	(+0.015, +0.083, +0.031)

DPF> tran0 random                         # initial coordinates/A or random

Initial translation =			(8.157, 33.150, 34.106) Angstroms
DPF> quaternion0 random                   # initial orientation

Each run will begin with a new, random initial orientation.
Initial quaternion,  (x,y,z,w) =	( -0.259, 0.088, -0.595, -0.756 ),
DPF> dihe0 random                         # initial dihedrals (relative) or random

DPF> torsdof 6                            # torsional degrees of freedom

Number of torsional degrees of freedom = 6
Free energy coefficient for torsional degrees of freedom = 0.2983, the factory default value.

Estimated loss of torsional free energy upon binding = +1.7898 kcal/mol

DPF> rmstol 2.0                           # cluster_tolerance/A

Maximum RMS tolerance for conformational cluster analysis = 2.00 Angstroms
DPF> extnrg 1000.0                        # external grid energy

External grid energy (beyond grid map walls) = 1000.00

DPF> e0max 0.0 10000                      # max initial energy; max number of retries

Using user-specified maximum number of retries for simanneal initialization, 10000 retries.
If the simanneal initial energy is greater than e0max, 0.000,
then a new, random initial state will be created.

DPF> ga_pop_size 150                      # number of individuals in population

A population of 150 individuals will be used
DPF> ga_num_evals 25000000                # maximum number of energy evaluations

There will be at most 25000000 function evaluations used.
DPF> ga_num_generations 27000             # maximum number of generations

The GA will run for at most 27000 generations.
DPF> ga_elitism 1                         # number of top individuals to survive to next generation

The 1 best will be preserved each GA generation.
DPF> ga_mutation_rate 0.02                # rate of gene mutation

The mutation rate is 0.020000.
DPF> ga_crossover_rate 0.8                # rate of crossover

The crossover rate is 0.800000.
DPF> ga_window_size 10                    # 

The GA's selection window is 10 generations.
DPF> ga_cauchy_alpha 0.0                  # Alpha parameter of Cauchy distribution

The alpha parameter (for the Cauchy distribution) is being set to 0.000000.
DPF> ga_cauchy_beta 1.0                   # Beta parameter Cauchy distribution

The beta parameter (for the Cauchy distribution) is being set to 1.000000.
DPF> set_ga                               # set the above parameters for GA or LGA

DPF> sw_max_its 300                       # iterations of Solis & Wets local search

Solis & Wets algorithms will perform at most 300 iterations.
DPF> sw_max_succ 4                        # consecutive successes before changing rho

Solis & Wets algorithms expand rho every 4 in a row successes.
DPF> sw_max_fail 4                        # consecutive failures before changing rho

Solis & Wets algorithms contract rho every 4 in a row failures.
DPF> sw_rho 1.0                           # size of local search space to sample

rho is set to 1.000000.
DPF> sw_lb_rho 0.01                       # lower bound on rho

rho will never get smaller than 0.010000.
DPF> ls_search_freq 0.06                  # probability of performing local search on individual

Local search will be performed with frequency 0.060000.
DPF> set_psw1                             # set the above pseudo-Solis & Wets parameters

Creating a new Local Search object using the pseudo-Solis-Wets algorithm (pSW1) with the current settings.

DPF> unbound_model bound                  # state of unbound ligand

DPF> ga_run 100                           # do this many hybrid GA-LS runs

centering ligand on specified point: 0.015 0.083 0.031
Furthest true ligand atom from "about" center is 4.525 Angstroms (maxrad).
Number of requested GA dockings = 100 runs
Unbound model to be used is 'same as bound' [AutoDock 4.2 default].

	BEGINNING GENETIC ALGORITHM DOCKING 1 of 100
Run: 1 Seed: 130039695 1024057780 [ Run 1 of 100 GA/GALS ]
Beginning LAMARCKIAN GENETIC ALGORITHM (LGA), with a maximum of 25000000 energy evaluations.

Final-Value: -6.729


	FINAL GENETIC ALGORITHM DOCKED STATE
	_______________________________________________


Detailed state:  trans 44.904 24.676 18.574 quatxyzw -0.311639 -0.376791 0.317828 0.812339 center 0.015 0.083 0.031 ntor 6 -168.3849 172.0136 -135.7051 21.3327 -53.6330 -56.6362
State:	 44.904  24.676  18.574  -0.534 -0.646  0.545 71.350   -168.38  172.01 -135.71   21.33  -53.63  -56.64

DOCKED: MODEL        1
DOCKED: USER    Run = 1
DOCKED: USER    DPF = D:/Protein_go_brrr/autodock/final/6BB5/2_3_BPG/dock.dpf
DOCKED: USER  
DOCKED: USER    Estimated Free Energy of Binding    =   -6.89 kcal/mol  [=(1)+(2)+(3)-(4)]
DOCKED: USER    Estimated Inhibition Constant, Ki   =    8.97 uM (micromolar)  [Temperature = 298.15 K]
DOCKED: USER    
DOCKED: USER    (1) Final Intermolecular Energy     =   -8.68 kcal/mol
DOCKED: USER        vdW + Hbond + desolv Energy     =   -3.42 kcal/mol
DOCKED: USER        Electrostatic Energy            =   -5.26 kcal/mol
DOCKED: USER    (2) Final Total Internal Energy     =   +1.95 kcal/mol
DOCKED: USER    (3) Torsional Free Energy           =   +1.79 kcal/mol
DOCKED: USER    (4) Unbound System's Energy  [=(2)] =   +1.95 kcal/mol
DOCKED: USER    
DOCKED: USER    
DOCKED: USER    NEWDPF move 2_3_BPG_opt.pdbqt
DOCKED: USER    NEWDPF about 0.015000 0.083000 0.031000
DOCKED: USER    NEWDPF tran0 44.904088 24.676065 18.573735
DOCKED: USER    NEWDPF quaternion0 -0.311639 -0.376791 0.317828 0.812339
DOCKED: USER    NEWDPF axisangle0 -0.534374 -0.646092 0.544987 71.349780
DOCKED: USER    NEWDPF quat0 -0.534374 -0.646092 0.544987 71.349780
DOCKED: USER    NEWDPF dihe0 -168.38 172.01 -135.71 21.33 -53.63 -56.64 
DOCKED: USER  keepresnum = 1 
DOCKED: USER  
DOCKED: REMARK  6 active torsions:
DOCKED: REMARK  status: ('A' for Active; 'I' for Inactive)
DOCKED: REMARK    1  A    between atoms: P_1  and  O_3 
DOCKED: REMARK    2  A    between atoms: P_2  and  O_4 
DOCKED: REMARK    3  A    between atoms: O_3  and  C_13 
DOCKED: REMARK    4  A    between atoms: O_4  and  C_14 
DOCKED: REMARK    5  A    between atoms: C_13  and  C_14 
DOCKED: REMARK    6  A    between atoms: C_13  and  C_15 
DOCKED: USER                              x       y       z     vdW  Elec       q    Type
DOCKED: USER                           _______ _______ _______ _____ _____    ______ ____
DOCKED: ROOT
DOCKED: ATOM      1  C   UNL d   1      44.407  24.583  19.014 -0.16 +0.08    +0.193 C 
DOCKED: ENDROOT
DOCKED: BRANCH   1   2
DOCKED: ATOM      2  O   UNL d   1      44.200  25.840  19.742 -0.10 -0.21    -0.356 OA
DOCKED: BRANCH   2   3
DOCKED: ATOM      3  P   UNL d   1      44.564  26.031  21.334 -0.26 -0.02    -0.014 P 
DOCKED: ATOM      4  O   UNL d   1      44.818  24.604  21.843 -0.03 -0.45    -0.577 OA
DOCKED: ATOM      5  O   UNL d   1      43.343  26.657  22.005 -0.76 -1.05    -0.577 OA
DOCKED: ATOM      6  O   UNL d   1      45.819  26.892  21.432 -0.26 -1.09    -0.638 OA
DOCKED: ENDBRANCH   2   3
DOCKED: ENDBRANCH   1   2
DOCKED: BRANCH   1   7
DOCKED: ATOM      7  C   UNL d   1      45.356  24.859  17.790 -0.13 +0.09    +0.201 C 
DOCKED: BRANCH   7   8
DOCKED: ATOM      8  O   UNL d   1      46.729  24.436  17.949 -0.05 -0.21    -0.364 OA
DOCKED: BRANCH   8   9
DOCKED: ATOM      9  P   UNL d   1      47.452  23.510  16.785 -0.22 -0.02    -0.015 P 
DOCKED: ATOM     10  O   UNL d   1      47.097  24.190  15.457 -0.15 -0.53    -0.577 OA
DOCKED: ATOM     11  O   UNL d   1      46.847  22.110  16.889 -0.10 -0.62    -0.577 OA
DOCKED: ATOM     12  O   UNL d   1      48.955  23.534  17.058 -0.59 -1.00    -0.638 OA
DOCKED: ENDBRANCH   8   9
DOCKED: ENDBRANCH   7   8
DOCKED: ENDBRANCH   1   7
DOCKED: BRANCH   1  13
DOCKED: ATOM     13  C   UNL d   1      43.032  24.041  18.473 -0.36 +0.02    +0.073 C 
DOCKED: ATOM     14  O   UNL d   1      42.584  22.936  18.941 -0.17 -0.14    -0.547 OA
DOCKED: ATOM     15  O   UNL d   1      42.404  24.780  17.631 -0.07 -0.13    -0.547 OA
DOCKED: ENDBRANCH   1  13
DOCKED: TORSDOF 6
DOCKED: TER
DOCKED: ENDMDL
________________________________________________________________________________


	BEGINNING GENETIC ALGORITHM DOCKING 2 of 100
Run: 2 Seed: 659611905 1063288016 [ Run 2 of 100 GA/GALS ]
Beginning LAMARCKIAN GENETIC ALGORITHM (LGA), with a maximum of 25000000 energy evaluations.

Final-Value: -7.052


	FINAL GENETIC ALGORITHM DOCKED STATE
	_______________________________________________


Detailed state:  trans 2.520 43.301 -0.820 quatxyzw 0.477881 -0.160133 -0.405556 0.762569 center 0.015 0.083 0.031 ntor 6 -44.1259 8.9885 -58.5939 6.0175 11.6326 -32.7057
State:	  2.520  43.301  -0.820   0.739 -0.248 -0.627 80.618    -44.13    8.99  -58.59    6.02   11.63  -32.71

DOCKED: MODEL        2
DOCKED: USER    Run = 2
DOCKED: USER    DPF = D:/Protein_go_brrr/autodock/final/6BB5/2_3_BPG/dock.dpf
DOCKED: USER  
DOCKED: USER    Estimated Free Energy of Binding    =   -7.27 kcal/mol  [=(1)+(2)+(3)-(4)]
DOCKED: USER    Estimated Inhibition Constant, Ki   =    4.65 uM (micromolar)  [Temperature = 298.15 K]
DOCKED: USER    
DOCKED: USER    (1) Final Intermolecular Energy     =   -9.06 kcal/mol
DOCKED: USER        vdW + Hbond + desolv Energy     =   -3.42 kcal/mol
DOCKED: USER        Electrostatic Energy            =   -5.64 kcal/mol
DOCKED: USER    (2) Final Total Internal Energy     =   +2.01 kcal/mol
DOCKED: USER    (3) Torsional Free Energy           =   +1.79 kcal/mol
DOCKED: USER    (4) Unbound System's Energy  [=(2)] =   +2.01 kcal/mol
DOCKED: USER    
DOCKED: USER    
DOCKED: USER    NEWDPF move 2_3_BPG_opt.pdbqt
DOCKED: USER    NEWDPF about 0.015000 0.083000 0.031000
DOCKED: USER    NEWDPF tran0 2.520127 43.300577 -0.820288
DOCKED: USER    NEWDPF quaternion0 0.477881 -0.160133 -0.405556 0.762569
DOCKED: USER    NEWDPF axisangle0 0.738717 -0.247537 -0.626915 80.617608
DOCKED: USER    NEWDPF quat0 0.738717 -0.247537 -0.626915 80.617608
DOCKED: USER    NEWDPF dihe0 -44.13 8.99 -58.59 6.02 11.63 -32.71 
DOCKED: USER  keepresnum = 1 
DOCKED: USER  
DOCKED: REMARK  6 active torsions:
DOCKED: REMARK  status: ('A' for Active; 'I' for Inactive)
DOCKED: REMARK    1  A    between atoms: P_1  and  O_3 
DOCKED: REMARK    2  A    between atoms: P_2  and  O_4 
DOCKED: REMARK    3  A    between atoms: O_3  and  C_13 
DOCKED: REMARK    4  A    between atoms: O_4  and  C_14 
DOCKED: REMARK    5  A    between atoms: C_13  and  C_14 
DOCKED: REMARK    6  A    between atoms: C_13  and  C_15 
DOCKED: USER                              x       y       z     vdW  Elec       q    Type
DOCKED: USER                           _______ _______ _______ _____ _____    ______ ____
DOCKED: ROOT
DOCKED: ATOM      1  C   UNL d   1       2.384  43.041  -0.217 -0.23 +0.15    +0.193 C 
DOCKED: ENDROOT
DOCKED: BRANCH   1   2
DOCKED: ATOM      2  O   UNL d   1       1.210  42.171  -0.348 -0.07 -0.44    -0.356 OA
DOCKED: BRANCH   2   3
DOCKED: ATOM      3  P   UNL d   1      -0.134  42.322   0.587 -0.01 -0.02    -0.014 P 
DOCKED: ATOM      4  O   UNL d   1      -1.020  41.135   0.179 -0.43 -0.82    -0.577 OA
DOCKED: ATOM      5  O   UNL d   1      -0.785  43.657   0.233 +0.02 -0.33    -0.577 OA
DOCKED: ATOM      6  O   UNL d   1       0.295  42.223   2.048 -0.21 -0.94    -0.638 OA
DOCKED: ENDBRANCH   2   3
DOCKED: ENDBRANCH   1   2
DOCKED: BRANCH   1   7
DOCKED: ATOM      7  C   UNL d   1       2.891  43.425  -1.656 -0.18 +0.12    +0.201 C 
DOCKED: BRANCH   7   8
DOCKED: ATOM      8  O   UNL d   1       3.047  44.838  -1.914 -0.17 -0.28    -0.364 OA
DOCKED: BRANCH   8   9
DOCKED: ATOM      9  P   UNL d   1       3.217  45.384  -3.466 -0.32 -0.01    -0.015 P 
DOCKED: ATOM     10  O   UNL d   1       2.087  46.404  -3.655 -0.01 -0.69    -0.577 OA
DOCKED: ATOM     11  O   UNL d   1       3.054  44.174  -4.385 -0.02 -0.29    -0.577 OA
DOCKED: ATOM     12  O   UNL d   1       4.597  46.032  -3.568 -0.61 -0.99    -0.638 OA
DOCKED: ENDBRANCH   8   9
DOCKED: ENDBRANCH   7   8
DOCKED: ENDBRANCH   1   7
DOCKED: BRANCH   1  13
DOCKED: ATOM     13  C   UNL d   1       3.538  42.280   0.537 -0.51 +0.06    +0.073 C 
DOCKED: ATOM     14  O   UNL d   1       3.402  41.025   0.756 -0.48 -0.91    -0.547 OA
DOCKED: ATOM     15  O   UNL d   1       4.585  42.960   0.836 -0.19 -0.26    -0.547 OA
DOCKED: ENDBRANCH   1  13
DOCKED: TORSDOF 6
DOCKED: TER
DOCKED: ENDMDL
________________________________________________________________________________


	BEGINNING GENETIC ALGORITHM DOCKING 3 of 100
Run: 3 Seed: 1692052820 1722746459 [ Run 3 of 100 GA/GALS ]
Beginning LAMARCKIAN GENETIC ALGORITHM (LGA), with a maximum of 25000000 energy evaluations.

Final-Value: -6.802


	FINAL GENETIC ALGORITHM DOCKED STATE
	_______________________________________________


Detailed state:  trans 45.941 24.734 19.012 quatxyzw -0.564990 -0.775432 -0.041102 -0.278931 center 0.015 0.083 0.031 ntor 6 -168.4190 -178.9073 -23.6285 22.1678 -31.1450 -9.2810
State:	 45.941  24.734  19.012  -0.588 -0.807 -0.043 -147.607   -168.42 -178.91  -23.63   22.17  -31.15   -9.28

DOCKED: MODEL        3
DOCKED: USER    Run = 3
DOCKED: USER    DPF = D:/Protein_go_brrr/autodock/final/6BB5/2_3_BPG/dock.dpf
DOCKED: USER  
DOCKED: USER    Estimated Free Energy of Binding    =   -6.93 kcal/mol  [=(1)+(2)+(3)-(4)]
DOCKED: USER    Estimated Inhibition Constant, Ki   =    8.27 uM (micromolar)  [Temperature = 298.15 K]
DOCKED: USER    
DOCKED: USER    (1) Final Intermolecular Energy     =   -8.72 kcal/mol
DOCKED: USER        vdW + Hbond + desolv Energy     =   -3.04 kcal/mol
DOCKED: USER        Electrostatic Energy            =   -5.68 kcal/mol
DOCKED: USER    (2) Final Total Internal Energy     =   +1.92 kcal/mol
DOCKED: USER    (3) Torsional Free Energy           =   +1.79 kcal/mol
DOCKED: USER    (4) Unbound System's Energy  [=(2)] =   +1.92 kcal/mol
DOCKED: USER    
DOCKED: USER    
DOCKED: USER    NEWDPF move 2_3_BPG_opt.pdbqt
DOCKED: USER    NEWDPF about 0.015000 0.083000 0.031000
DOCKED: USER    NEWDPF tran0 45.940947 24.733987 19.011952
DOCKED: USER    NEWDPF quaternion0 -0.564990 -0.775432 -0.041102 -0.278931
DOCKED: USER    NEWDPF axisangle0 -0.588340 -0.807480 -0.042801 -147.607164
DOCKED: USER    NEWDPF quat0 -0.588340 -0.807480 -0.042801 -147.607164
DOCKED: USER    NEWDPF dihe0 -168.42 -178.91 -23.63 22.17 -31.15 -9.28 
DOCKED: USER  keepresnum = 1 
DOCKED: USER  
DOCKED: REMARK  6 active torsions:
DOCKED: REMARK  status: ('A' for Active; 'I' for Inactive)
DOCKED: REMARK    1  A    between atoms: P_1  and  O_3 
DOCKED: REMARK    2  A    between atoms: P_2  and  O_4 
DOCKED: REMARK    3  A    between atoms: O_3  and  C_13 
DOCKED: REMARK    4  A    between atoms: O_4  and  C_14 
DOCKED: REMARK    5  A    between atoms: C_13  and  C_14 
DOCKED: REMARK    6  A    between atoms: C_13  and  C_15 
DOCKED: USER                              x       y       z     vdW  Elec       q    Type
DOCKED: USER                           _______ _______ _______ _____ _____    ______ ____
DOCKED: ROOT
DOCKED: ATOM      1  C   UNL d   1      45.745  24.157  18.731 -0.09 +0.09    +0.193 C 
DOCKED: ENDROOT
DOCKED: BRANCH   1   2
DOCKED: ATOM      2  O   UNL d   1      46.927  23.304  18.569 -0.03 -0.21    -0.356 OA
DOCKED: BRANCH   2   3
DOCKED: ATOM      3  P   UNL d   1      47.585  22.941  17.105 -0.11 -0.02    -0.014 P 
DOCKED: ATOM      4  O   UNL d   1      46.650  23.615  16.088 -0.11 -0.51    -0.577 OA
DOCKED: ATOM      5  O   UNL d   1      47.565  21.421  16.965 -0.06 -0.87    -0.577 OA
DOCKED: ATOM      6  O   UNL d   1      48.987  23.538  17.058 -0.59 -1.00    -0.638 OA
DOCKED: ENDBRANCH   2   3
DOCKED: ENDBRANCH   1   2
DOCKED: BRANCH   1   7
DOCKED: ATOM      7  C   UNL d   1      46.128  25.381  19.643 -0.05 +0.11    +0.201 C 
DOCKED: BRANCH   7   8
DOCKED: ATOM      8  O   UNL d   1      45.400  26.604  19.396 -0.05 -0.22    -0.364 OA
DOCKED: BRANCH   8   9
DOCKED: ATOM      9  P   UNL d   1      45.164  27.692  20.619 -0.06 -0.02    -0.015 P 
DOCKED: ATOM     10  O   UNL d   1      44.881  29.026  19.918 -0.06 -0.46    -0.577 OA
DOCKED: ATOM     11  O   UNL d   1      46.458  27.737  21.431 -0.56 -0.97    -0.577 OA
DOCKED: ATOM     12  O   UNL d   1      43.965  27.204  21.432 -0.40 -1.18    -0.638 OA
DOCKED: ENDBRANCH   8   9
DOCKED: ENDBRANCH   7   8
DOCKED: ENDBRANCH   1   7
DOCKED: BRANCH   1  13
DOCKED: ATOM     13  C   UNL d   1      44.588  23.350  19.430 -0.19 +0.03    +0.073 C 
DOCKED: ATOM     14  O   UNL d   1      43.519  23.116  18.766 -0.14 -0.18    -0.547 OA
DOCKED: ATOM     15  O   UNL d   1      44.816  22.916  20.617 -0.55 -0.28    -0.547 OA
DOCKED: ENDBRANCH   1  13
DOCKED: TORSDOF 6
DOCKED: TER
DOCKED: ENDMDL
________________________________________________________________________________


	BEGINNING GENETIC ALGORITHM DOCKING 4 of 100
Run: 4 Seed: 1986711624 1301495787 [ Run 4 of 100 GA/GALS ]
Beginning LAMARCKIAN GENETIC ALGORITHM (LGA), with a maximum of 25000000 energy evaluations.

Final-Value: -7.442


	FINAL GENETIC ALGORITHM DOCKED STATE
	_______________________________________________


Detailed state:  trans 45.523 24.812 19.063 quatxyzw -0.117018 0.415409 -0.226505 -0.873177 center 0.015 0.083 0.031 ntor 6 -173.2228 94.6427 -160.7529 7.7821 -39.2517 -36.5267
State:	 45.523  24.812  19.063  -0.240  0.852 -0.465 -58.340   -173.22   94.64 -160.75    7.78  -39.25  -36.53

DOCKED: MODEL        4
DOCKED: USER    Run = 4
DOCKED: USER    DPF = D:/Protein_go_brrr/autodock/final/6BB5/2_3_BPG/dock.dpf
DOCKED: USER  
DOCKED: USER    Estimated Free Energy of Binding    =   -7.59 kcal/mol  [=(1)+(2)+(3)-(4)]
DOCKED: USER    Estimated Inhibition Constant, Ki   =    2.75 uM (micromolar)  [Temperature = 298.15 K]
DOCKED: USER    
DOCKED: USER    (1) Final Intermolecular Energy     =   -9.38 kcal/mol
DOCKED: USER        vdW + Hbond + desolv Energy     =   -3.71 kcal/mol
DOCKED: USER        Electrostatic Energy            =   -5.66 kcal/mol
DOCKED: USER    (2) Final Total Internal Energy     =   +1.93 kcal/mol
DOCKED: USER    (3) Torsional Free Energy           =   +1.79 kcal/mol
DOCKED: USER    (4) Unbound System's Energy  [=(2)] =   +1.93 kcal/mol
DOCKED: USER    
DOCKED: USER    
DOCKED: USER    NEWDPF move 2_3_BPG_opt.pdbqt
DOCKED: USER    NEWDPF about 0.015000 0.083000 0.031000
DOCKED: USER    NEWDPF tran0 45.522649 24.811644 19.063172
DOCKED: USER    NEWDPF quaternion0 -0.117018 0.415409 -0.226505 -0.873177
DOCKED: USER    NEWDPF axisangle0 -0.240083 0.852290 -0.464717 -58.340163
DOCKED: USER    NEWDPF quat0 -0.240083 0.852290 -0.464717 -58.340163
DOCKED: USER    NEWDPF dihe0 -173.22 94.64 -160.75 7.78 -39.25 -36.53 
DOCKED: USER  keepresnum = 1 
DOCKED: USER  
DOCKED: REMARK  6 active torsions:
DOCKED: REMARK  status: ('A' for Active; 'I' for Inactive)
DOCKED: REMARK    1  A    between atoms: P_1  and  O_3 
DOCKED: REMARK    2  A    between atoms: P_2  and  O_4 
DOCKED: REMARK    3  A    between atoms: O_3  and  C_13 
DOCKED: REMARK    4  A    between atoms: O_4  and  C_14 
DOCKED: REMARK    5  A    between atoms: C_13  and  C_14 
DOCKED: REMARK    6  A    between atoms: C_13  and  C_15 
DOCKED: USER                              x       y       z     vdW  Elec       q    Type
DOCKED: USER                           _______ _______ _______ _____ _____    ______ ____
DOCKED: ROOT
DOCKED: ATOM      1  C   UNL d   1      45.178  24.830  19.638 -0.10 +0.10    +0.193 C 
DOCKED: ENDROOT
DOCKED: BRANCH   1   2
DOCKED: ATOM      2  O   UNL d   1      44.336  26.032  19.627 -0.09 -0.21    -0.356 OA
DOCKED: BRANCH   2   3
DOCKED: ATOM      3  P   UNL d   1      44.380  27.175  20.808 -0.20 -0.02    -0.014 P 
DOCKED: ATOM      4  O   UNL d   1      43.345  26.700  21.840 -0.68 -0.99    -0.577 OA
DOCKED: ATOM      5  O   UNL d   1      43.968  28.501  20.170 -0.19 -0.53    -0.577 OA
DOCKED: ATOM      6  O   UNL d   1      45.787  27.194  21.395 -0.24 -1.20    -0.638 OA
DOCKED: ENDBRANCH   2   3
DOCKED: ENDBRANCH   1   2
DOCKED: BRANCH   1   7
DOCKED: ATOM      7  C   UNL d   1      45.767  24.613  18.195 -0.10 +0.09    +0.201 C 
DOCKED: BRANCH   7   8
DOCKED: ATOM      8  O   UNL d   1      47.207  24.558  18.103 -0.04 -0.21    -0.364 OA
DOCKED: BRANCH   8   9
DOCKED: ATOM      9  P   UNL d   1      47.931  23.533  17.025 -0.13 -0.02    -0.015 P 
DOCKED: ATOM     10  O   UNL d   1      46.857  23.242  15.969 -0.17 -0.64    -0.577 OA
DOCKED: ATOM     11  O   UNL d   1      48.325  22.276  17.799 -0.34 -0.74    -0.577 OA
DOCKED: ATOM     12  O   UNL d   1      49.130  24.273  16.435 -0.40 -0.86    -0.638 OA
DOCKED: ENDBRANCH   8   9
DOCKED: ENDBRANCH   7   8
DOCKED: ENDBRANCH   1   7
DOCKED: BRANCH   1  13
DOCKED: ATOM     13  C   UNL d   1      44.317  23.571  20.026 -0.23 +0.03    +0.073 C 
DOCKED: ATOM     14  O   UNL d   1      44.637  22.912  21.077 -0.59 -0.29    -0.547 OA
DOCKED: ATOM     15  O   UNL d   1      43.296  23.315  19.292 -0.21 -0.19    -0.547 OA
DOCKED: ENDBRANCH   1  13
DOCKED: TORSDOF 6
DOCKED: TER
DOCKED: ENDMDL
________________________________________________________________________________


	BEGINNING GENETIC ALGORITHM DOCKING 5 of 100
Run: 5 Seed: 1143102740 256730018 [ Run 5 of 100 GA/GALS ]
Beginning LAMARCKIAN GENETIC ALGORITHM (LGA), with a maximum of 25000000 energy evaluations.

Final-Value: -6.966


	FINAL GENETIC ALGORITHM DOCKED STATE
	_______________________________________________


Detailed state:  trans 45.765 24.476 19.667 quatxyzw 0.436554 -0.497144 0.237153 0.711356 center 0.015 0.083 0.031 ntor 6 -144.1021 74.4232 -78.2984 -12.4215 -38.7435 -64.7719
State:	 45.765  24.476  19.667   0.621 -0.707  0.337 89.309   -144.10   74.42  -78.30  -12.42  -38.74  -64.77

DOCKED: MODEL        5
DOCKED: USER    Run = 5
DOCKED: USER    DPF = D:/Protein_go_brrr/autodock/final/6BB5/2_3_BPG/dock.dpf
DOCKED: USER  
DOCKED: USER    Estimated Free Energy of Binding    =   -7.24 kcal/mol  [=(1)+(2)+(3)-(4)]
DOCKED: USER    Estimated Inhibition Constant, Ki   =    4.94 uM (micromolar)  [Temperature = 298.15 K]
DOCKED: USER    
DOCKED: USER    (1) Final Intermolecular Energy     =   -9.03 kcal/mol
DOCKED: USER        vdW + Hbond + desolv Energy     =   -3.03 kcal/mol
DOCKED: USER        Electrostatic Energy            =   -6.00 kcal/mol
DOCKED: USER    (2) Final Total Internal Energy     =   +2.06 kcal/mol
DOCKED: USER    (3) Torsional Free Energy           =   +1.79 kcal/mol
DOCKED: USER    (4) Unbound System's Energy  [=(2)] =   +2.06 kcal/mol
DOCKED: USER    
DOCKED: USER    
DOCKED: USER    NEWDPF move 2_3_BPG_opt.pdbqt
DOCKED: USER    NEWDPF about 0.015000 0.083000 0.031000
DOCKED: USER    NEWDPF tran0 45.764540 24.476164 19.667202
DOCKED: USER    NEWDPF quaternion0 0.436554 -0.497144 0.237153 0.711356
DOCKED: USER    NEWDPF axisangle0 0.621135 -0.707344 0.337425 89.309288
DOCKED: USER    NEWDPF quat0 0.621135 -0.707344 0.337425 89.309288
DOCKED: USER    NEWDPF dihe0 -144.10 74.42 -78.30 -12.42 -38.74 -64.77 
DOCKED: USER  keepresnum = 1 
DOCKED: USER  
DOCKED: REMARK  6 active torsions:
DOCKED: REMARK  status: ('A' for Active; 'I' for Inactive)
DOCKED: REMARK    1  A    between atoms: P_1  and  O_3 
DOCKED: REMARK    2  A    between atoms: P_2  and  O_4 
DOCKED: REMARK    3  A    between atoms: O_3  and  C_13 
DOCKED: REMARK    4  A    between atoms: O_4  and  C_14 
DOCKED: REMARK    5  A    between atoms: C_13  and  C_14 
DOCKED: REMARK    6  A    between atoms: C_13  and  C_15 
DOCKED: USER                              x       y       z     vdW  Elec       q    Type
DOCKED: USER                           _______ _______ _______ _____ _____    ______ ____
DOCKED: ROOT
DOCKED: ATOM      1  C   UNL d   1      45.649  24.806  20.239 -0.08 +0.11    +0.193 C 
DOCKED: ENDROOT
DOCKED: BRANCH   1   2
DOCKED: ATOM      2  O   UNL d   1      44.571  25.772  20.001 -0.08 -0.23    -0.356 OA
DOCKED: BRANCH   2   3
DOCKED: ATOM      3  P   UNL d   1      44.511  27.253  20.715 -0.21 -0.02    -0.014 P 
DOCKED: ATOM      4  O   UNL d   1      43.345  27.151  21.710 -0.57 -1.11    -0.577 OA
DOCKED: ATOM      5  O   UNL d   1      44.225  28.274  19.616 -0.06 -0.41    -0.577 OA
DOCKED: ATOM      6  O   UNL d   1      45.838  27.485  21.430 -0.23 -1.30    -0.638 OA
DOCKED: ENDBRANCH   2   3
DOCKED: ENDBRANCH   1   2
DOCKED: BRANCH   1   7
DOCKED: ATOM      7  C   UNL d   1      45.735  23.831  19.008 -0.09 +0.09    +0.201 C 
DOCKED: BRANCH   7   8
DOCKED: ATOM      8  O   UNL d   1      46.693  24.187  17.987 -0.04 -0.21    -0.364 OA
DOCKED: BRANCH   8   9
DOCKED: ATOM      9  P   UNL d   1      47.525  23.005  17.182 -0.15 -0.02    -0.015 P 
DOCKED: ATOM     10  O   UNL d   1      46.857  22.914  15.805 -0.18 -0.72    -0.577 OA
DOCKED: ATOM     11  O   UNL d   1      47.356  21.715  17.984 -0.04 -0.50    -0.577 OA
DOCKED: ATOM     12  O   UNL d   1      48.979  23.464  17.085 -0.55 -1.03    -0.638 OA
DOCKED: ENDBRANCH   8   9
DOCKED: ENDBRANCH   7   8
DOCKED: ENDBRANCH   1   7
DOCKED: BRANCH   1  13
DOCKED: ATOM     13  C   UNL d   1      45.340  23.961  21.531 -0.17 +0.04    +0.073 C 
DOCKED: ATOM     14  O   UNL d   1      45.771  24.390  22.659 +0.00 -0.42    -0.547 OA
DOCKED: ATOM     15  O   UNL d   1      44.613  22.914  21.382 -0.58 -0.28    -0.547 OA
DOCKED: ENDBRANCH   1  13
DOCKED: TORSDOF 6
DOCKED: TER
DOCKED: ENDMDL
________________________________________________________________________________


	BEGINNING GENETIC ALGORITHM DOCKING 6 of 100
Run: 6 Seed: 714366891 1588165182 [ Run 6 of 100 GA/GALS ]
Beginning LAMARCKIAN GENETIC ALGORITHM (LGA), with a maximum of 25000000 energy evaluations.

Final-Value: -6.069


	FINAL GENETIC ALGORITHM DOCKED STATE
	_______________________________________________


Detailed state:  trans 2.832 43.194 -1.683 quatxyzw -0.359977 0.738112 -0.506949 -0.261935 center 0.015 0.083 0.031 ntor 6 -25.6250 -43.4244 148.1274 66.0191 12.1938 70.7329
State:	  2.832  43.194  -1.683  -0.373  0.765 -0.525 -149.630    -25.63  -43.42  148.13   66.02   12.19   70.73

DOCKED: MODEL        6
DOCKED: USER    Run = 6
DOCKED: USER    DPF = D:/Protein_go_brrr/autodock/final/6BB5/2_3_BPG/dock.dpf
DOCKED: USER  
DOCKED: USER    Estimated Free Energy of Binding    =   -6.34 kcal/mol  [=(1)+(2)+(3)-(4)]
DOCKED: USER    Estimated Inhibition Constant, Ki   =   22.64 uM (micromolar)  [Temperature = 298.15 K]
DOCKED: USER    
DOCKED: USER    (1) Final Intermolecular Energy     =   -8.13 kcal/mol
DOCKED: USER        vdW + Hbond + desolv Energy     =   -2.66 kcal/mol
DOCKED: USER        Electrostatic Energy            =   -5.47 kcal/mol
DOCKED: USER    (2) Final Total Internal Energy     =   +2.06 kcal/mol
DOCKED: USER    (3) Torsional Free Energy           =   +1.79 kcal/mol
DOCKED: USER    (4) Unbound System's Energy  [=(2)] =   +2.06 kcal/mol
DOCKED: USER    
DOCKED: USER    
DOCKED: USER    NEWDPF move 2_3_BPG_opt.pdbqt
DOCKED: USER    NEWDPF about 0.015000 0.083000 0.031000
DOCKED: USER    NEWDPF tran0 2.831822 43.194466 -1.682830
DOCKED: USER    NEWDPF quaternion0 -0.359977 0.738112 -0.506949 -0.261935
DOCKED: USER    NEWDPF axisangle0 -0.373001 0.764815 -0.525289 -149.630217
DOCKED: USER    NEWDPF quat0 -0.373001 0.764815 -0.525289 -149.630217
DOCKED: USER    NEWDPF dihe0 -25.63 -43.42 148.13 66.02 12.19 70.73 
DOCKED: USER  keepresnum = 1 
DOCKED: USER  
DOCKED: REMARK  6 active torsions:
DOCKED: REMARK  status: ('A' for Active; 'I' for Inactive)
DOCKED: REMARK    1  A    between atoms: P_1  and  O_3 
DOCKED: REMARK    2  A    between atoms: P_2  and  O_4 
DOCKED: REMARK    3  A    between atoms: O_3  and  C_13 
DOCKED: REMARK    4  A    between atoms: O_4  and  C_14 
DOCKED: REMARK    5  A    between atoms: C_13  and  C_14 
DOCKED: REMARK    6  A    between atoms: C_13  and  C_15 
DOCKED: USER                              x       y       z     vdW  Elec       q    Type
DOCKED: USER                           _______ _______ _______ _____ _____    ______ ____
DOCKED: ROOT
DOCKED: ATOM      1  C   UNL d   1       3.338  43.539  -1.410 -0.24 +0.11    +0.193 C 
DOCKED: ENDROOT
DOCKED: BRANCH   1   2
DOCKED: ATOM      2  O   UNL d   1       3.277  44.916  -1.911 -0.18 -0.29    -0.356 OA
DOCKED: BRANCH   2   3
DOCKED: ATOM      3  P   UNL d   1       3.530  45.317  -3.486 -0.36 -0.01    -0.014 P 
DOCKED: ATOM      4  O   UNL d   1       2.366  46.258  -3.834 -0.03 -0.71    -0.577 OA
DOCKED: ATOM      5  O   UNL d   1       3.470  44.024  -4.297 -0.04 -0.29    -0.577 OA
DOCKED: ATOM      6  O   UNL d   1       4.875  46.031  -3.579 -0.60 -0.89    -0.638 OA
DOCKED: ENDBRANCH   2   3
DOCKED: ENDBRANCH   1   2
DOCKED: BRANCH   1   7
DOCKED: ATOM      7  C   UNL d   1       2.006  42.799  -1.801 -0.09 +0.13    +0.201 C 
DOCKED: BRANCH   7   8
DOCKED: ATOM      8  O   UNL d   1       1.332  42.104  -0.729 -0.05 -0.40    -0.364 OA
DOCKED: BRANCH   8   9
DOCKED: ATOM      9  P   UNL d   1       0.154  40.995  -1.070 +0.06 -0.02    -0.015 P 
DOCKED: ATOM     10  O   UNL d   1      -0.474  41.472  -2.386 +0.01 -0.32    -0.577 OA
DOCKED: ATOM     11  O   UNL d   1      -0.844  41.034   0.086 -0.32 -0.93    -0.577 OA
DOCKED: ATOM     12  O   UNL d   1       0.842  39.638  -1.221 -0.09 -1.17    -0.638 OA
DOCKED: ENDBRANCH   8   9
DOCKED: ENDBRANCH   7   8
DOCKED: ENDBRANCH   1   7
DOCKED: BRANCH   1  13
DOCKED: ATOM     13  C   UNL d   1       3.472  43.540   0.158 -0.46 +0.05    +0.073 C 
DOCKED: ATOM     14  O   UNL d   1       2.983  44.526   0.813 -0.06 -0.34    -0.547 OA
DOCKED: ATOM     15  O   UNL d   1       4.015  42.509   0.697 -0.22 -0.38    -0.547 OA
DOCKED: ENDBRANCH   1  13
DOCKED: TORSDOF 6
DOCKED: TER
DOCKED: ENDMDL
________________________________________________________________________________


	BEGINNING GENETIC ALGORITHM DOCKING 7 of 100
Run: 7 Seed: 2000340005 1253465477 [ Run 7 of 100 GA/GALS ]
Beginning LAMARCKIAN GENETIC ALGORITHM (LGA), with a maximum of 25000000 energy evaluations.

Final-Value: -7.076


	FINAL GENETIC ALGORITHM DOCKED STATE
	_______________________________________________


Detailed state:  trans 45.749 24.901 18.557 quatxyzw 0.512101 0.832473 0.064368 0.201491 center 0.015 0.083 0.031 ntor 6 -172.3412 -49.0800 44.2427 3.5725 -12.6756 44.3530
State:	 45.749  24.901  18.557   0.523  0.850  0.066 156.752   -172.34  -49.08   44.24    3.57  -12.68   44.35

DOCKED: MODEL        7
DOCKED: USER    Run = 7
DOCKED: USER    DPF = D:/Protein_go_brrr/autodock/final/6BB5/2_3_BPG/dock.dpf
DOCKED: USER  
DOCKED: USER    Estimated Free Energy of Binding    =   -7.34 kcal/mol  [=(1)+(2)+(3)-(4)]
DOCKED: USER    Estimated Inhibition Constant, Ki   =    4.16 uM (micromolar)  [Temperature = 298.15 K]
DOCKED: USER    
DOCKED: USER    (1) Final Intermolecular Energy     =   -9.13 kcal/mol
DOCKED: USER        vdW + Hbond + desolv Energy     =   -3.18 kcal/mol
DOCKED: USER        Electrostatic Energy            =   -5.95 kcal/mol
DOCKED: USER    (2) Final Total Internal Energy     =   +2.05 kcal/mol
DOCKED: USER    (3) Torsional Free Energy           =   +1.79 kcal/mol
DOCKED: USER    (4) Unbound System's Energy  [=(2)] =   +2.05 kcal/mol
DOCKED: USER    
DOCKED: USER    
DOCKED: USER    NEWDPF move 2_3_BPG_opt.pdbqt
DOCKED: USER    NEWDPF about 0.015000 0.083000 0.031000
DOCKED: USER    NEWDPF tran0 45.749019 24.900812 18.556881
DOCKED: USER    NEWDPF quaternion0 0.512101 0.832473 0.064368 0.201491
DOCKED: USER    NEWDPF axisangle0 0.522824 0.849904 0.065716 156.751646
DOCKED: USER    NEWDPF quat0 0.522824 0.849904 0.065716 156.751646
DOCKED: USER    NEWDPF dihe0 -172.34 -49.08 44.24 3.57 -12.68 44.35 
DOCKED: USER  keepresnum = 1 
DOCKED: USER  
DOCKED: REMARK  6 active torsions:
DOCKED: REMARK  status: ('A' for Active; 'I' for Inactive)
DOCKED: REMARK    1  A    between atoms: P_1  and  O_3 
DOCKED: REMARK    2  A    between atoms: P_2  and  O_4 
DOCKED: REMARK    3  A    between atoms: O_3  and  C_13 
DOCKED: REMARK    4  A    between atoms: O_4  and  C_14 
DOCKED: REMARK    5  A    between atoms: C_13  and  C_14 
DOCKED: REMARK    6  A    between atoms: C_13  and  C_15 
DOCKED: USER                              x       y       z     vdW  Elec       q    Type
DOCKED: USER                           _______ _______ _______ _____ _____    ______ ____
DOCKED: ROOT
DOCKED: ATOM      1  C   UNL d   1      45.681  24.300  18.268 -0.10 +0.09    +0.193 C 
DOCKED: ENDROOT
DOCKED: BRANCH   1   2
DOCKED: ATOM      2  O   UNL d   1      46.969  23.603  18.353 -0.03 -0.22    -0.356 OA
DOCKED: BRANCH   2   3
DOCKED: ATOM      3  P   UNL d   1      47.711  22.916  17.056 -0.05 -0.02    -0.014 P 
DOCKED: ATOM      4  O   UNL d   1      49.126  23.517  17.061 -0.56 -0.92    -0.577 OA
DOCKED: ATOM      5  O   UNL d   1      46.928  23.334  15.813 -0.19 -0.66    -0.577 OA
DOCKED: ATOM      6  O   UNL d   1      47.744  21.407  17.276 -0.08 -0.89    -0.638 OA
DOCKED: ENDBRANCH   2   3
DOCKED: ENDBRANCH   1   2
DOCKED: BRANCH   1   7
DOCKED: ATOM      7  C   UNL d   1      45.735  25.576  19.186 -0.07 +0.11    +0.201 C 
DOCKED: BRANCH   7   8
DOCKED: ATOM      8  O   UNL d   1      44.461  26.073  19.651 -0.08 -0.22    -0.364 OA
DOCKED: BRANCH   8   9
DOCKED: ATOM      9  P   UNL d   1      44.403  27.255  20.807 -0.19 -0.02    -0.015 P 
DOCKED: ATOM     10  O   UNL d   1      43.356  26.773  21.818 -0.64 -1.02    -0.577 OA
DOCKED: ATOM     11  O   UNL d   1      43.970  28.543  20.106 -0.17 -0.51    -0.577 OA
DOCKED: ATOM     12  O   UNL d   1      45.797  27.350  21.425 -0.23 -1.27    -0.638 OA
DOCKED: ENDBRANCH   8   9
DOCKED: ENDBRANCH   7   8
DOCKED: ENDBRANCH   1   7
DOCKED: BRANCH   1  13
DOCKED: ATOM     13  C   UNL d   1      44.525  23.361  18.778 -0.22 +0.03    +0.073 C 
DOCKED: ATOM     14  O   UNL d   1      43.591  23.042  17.961 -0.05 -0.16    -0.547 OA
DOCKED: ATOM     15  O   UNL d   1      44.623  22.914  19.977 -0.51 -0.27    -0.547 OA
DOCKED: ENDBRANCH   1  13
DOCKED: TORSDOF 6
DOCKED: TER
DOCKED: ENDMDL
________________________________________________________________________________


	BEGINNING GENETIC ALGORITHM DOCKING 8 of 100
Run: 8 Seed: 1011856579 1663812204 [ Run 8 of 100 GA/GALS ]
Beginning LAMARCKIAN GENETIC ALGORITHM (LGA), with a maximum of 25000000 energy evaluations.

Final-Value: -6.873


	FINAL GENETIC ALGORITHM DOCKED STATE
	_______________________________________________


Detailed state:  trans 3.245 42.575 -1.463 quatxyzw -0.663273 -0.378532 0.507172 -0.399449 center 0.015 0.083 0.031 ntor 6 101.3606 63.5730 -150.9933 19.6382 35.9335 11.2965
State:	  3.245  42.575  -1.463  -0.723 -0.413  0.553 -132.913    101.36   63.57 -150.99   19.64   35.93   11.30

DOCKED: MODEL        8
DOCKED: USER    Run = 8
DOCKED: USER    DPF = D:/Protein_go_brrr/autodock/final/6BB5/2_3_BPG/dock.dpf
DOCKED: USER  
DOCKED: USER    Estimated Free Energy of Binding    =   -7.22 kcal/mol  [=(1)+(2)+(3)-(4)]
DOCKED: USER    Estimated Inhibition Constant, Ki   =    5.13 uM (micromolar)  [Temperature = 298.15 K]
DOCKED: USER    
DOCKED: USER    (1) Final Intermolecular Energy     =   -9.01 kcal/mol
DOCKED: USER        vdW + Hbond + desolv Energy     =   -3.65 kcal/mol
DOCKED: USER        Electrostatic Energy            =   -5.36 kcal/mol
DOCKED: USER    (2) Final Total Internal Energy     =   +2.13 kcal/mol
DOCKED: USER    (3) Torsional Free Energy           =   +1.79 kcal/mol
DOCKED: USER    (4) Unbound System's Energy  [=(2)] =   +2.13 kcal/mol
DOCKED: USER    
DOCKED: USER    
DOCKED: USER    NEWDPF move 2_3_BPG_opt.pdbqt
DOCKED: USER    NEWDPF about 0.015000 0.083000 0.031000
DOCKED: USER    NEWDPF tran0 3.245233 42.574760 -1.462789
DOCKED: USER    NEWDPF quaternion0 -0.663273 -0.378532 0.507172 -0.399449
DOCKED: USER    NEWDPF axisangle0 -0.723500 -0.412904 0.553225 -132.912550
DOCKED: USER    NEWDPF quat0 -0.723500 -0.412904 0.553225 -132.912550
DOCKED: USER    NEWDPF dihe0 101.36 63.57 -150.99 19.64 35.93 11.30 
DOCKED: USER  keepresnum = 1 
DOCKED: USER  
DOCKED: REMARK  6 active torsions:
DOCKED: REMARK  status: ('A' for Active; 'I' for Inactive)
DOCKED: REMARK    1  A    between atoms: P_1  and  O_3 
DOCKED: REMARK    2  A    between atoms: P_2  and  O_4 
DOCKED: REMARK    3  A    between atoms: O_3  and  C_13 
DOCKED: REMARK    4  A    between atoms: O_4  and  C_14 
DOCKED: REMARK    5  A    between atoms: C_13  and  C_14 
DOCKED: REMARK    6  A    between atoms: C_13  and  C_15 
DOCKED: USER                              x       y       z     vdW  Elec       q    Type
DOCKED: USER                           _______ _______ _______ _____ _____    ______ ____
DOCKED: ROOT
DOCKED: ATOM      1  C   UNL d   1       3.008  42.180  -0.976 -0.22 +0.15    +0.193 C 
DOCKED: ENDROOT
DOCKED: BRANCH   1   2
DOCKED: ATOM      2  O   UNL d   1       3.503  40.818  -1.209 -0.18 -0.30    -0.356 OA
DOCKED: BRANCH   2   3
DOCKED: ATOM      3  P   UNL d   1       2.528  39.561  -1.624 -0.13 -0.02    -0.014 P 
DOCKED: ATOM      4  O   UNL d   1       2.727  38.534  -0.498 -0.60 -1.02    -0.577 OA
DOCKED: ATOM      5  O   UNL d   1       3.024  39.027  -2.966 +0.01 -0.25    -0.577 OA
DOCKED: ATOM      6  O   UNL d   1       1.092  40.073  -1.667 -0.18 -0.78    -0.638 OA
DOCKED: ENDBRANCH   2   3
DOCKED: ENDBRANCH   1   2
DOCKED: BRANCH   1   7
DOCKED: ATOM      7  C   UNL d   1       3.780  43.168  -1.926 -0.01 +0.10    +0.201 C 
DOCKED: BRANCH   7   8
DOCKED: ATOM      8  O   UNL d   1       3.274  44.520  -1.975 -0.18 -0.25    -0.364 OA
DOCKED: BRANCH   8   9
DOCKED: ATOM      9  P   UNL d   1       3.235  45.340  -3.412 -0.32 -0.01    -0.015 P 
DOCKED: ATOM     10  O   UNL d   1       3.017  44.262  -4.480 -0.02 -0.30    -0.577 OA
DOCKED: ATOM     11  O   UNL d   1       4.589  46.031  -3.567 -0.65 -0.89    -0.577 OA
DOCKED: ATOM     12  O   UNL d   1       2.067  46.321  -3.340 +0.05 -0.76    -0.638 OA
DOCKED: ENDBRANCH   8   9
DOCKED: ENDBRANCH   7   8
DOCKED: ENDBRANCH   1   7
DOCKED: BRANCH   1  13
DOCKED: ATOM     13  C   UNL d   1       3.275  42.603   0.517 -0.49 +0.06    +0.073 C 
DOCKED: ATOM     14  O   UNL d   1       3.371  43.850   0.791 -0.16 -0.34    -0.547 OA
DOCKED: ATOM     15  O   UNL d   1       3.317  41.662   1.390 -0.58 -0.74    -0.547 OA
DOCKED: ENDBRANCH   1  13
DOCKED: TORSDOF 6
DOCKED: TER
DOCKED: ENDMDL
________________________________________________________________________________


	BEGINNING GENETIC ALGORITHM DOCKING 9 of 100
Run: 9 Seed: 861065127 1477937156 [ Run 9 of 100 GA/GALS ]
Beginning LAMARCKIAN GENETIC ALGORITHM (LGA), with a maximum of 25000000 energy evaluations.

Final-Value: -7.506


	FINAL GENETIC ALGORITHM DOCKED STATE
	_______________________________________________


Detailed state:  trans 45.563 25.020 19.154 quatxyzw 0.077144 -0.374757 0.212314 0.899182 center 0.015 0.083 0.031 ntor 6 -179.8834 92.1017 -42.8143 18.1090 -14.6659 6.3437
State:	 45.563  25.020  19.154   0.176 -0.856  0.485 51.898   -179.88   92.10  -42.81   18.11  -14.67    6.34

DOCKED: MODEL        9
DOCKED: USER    Run = 9
DOCKED: USER    DPF = D:/Protein_go_brrr/autodock/final/6BB5/2_3_BPG/dock.dpf
DOCKED: USER  
DOCKED: USER    Estimated Free Energy of Binding    =   -7.64 kcal/mol  [=(1)+(2)+(3)-(4)]
DOCKED: USER    Estimated Inhibition Constant, Ki   =    2.53 uM (micromolar)  [Temperature = 298.15 K]
DOCKED: USER    
DOCKED: USER    (1) Final Intermolecular Energy     =   -9.43 kcal/mol
DOCKED: USER        vdW + Hbond + desolv Energy     =   -3.51 kcal/mol
DOCKED: USER        Electrostatic Energy            =   -5.91 kcal/mol
DOCKED: USER    (2) Final Total Internal Energy     =   +1.92 kcal/mol
DOCKED: USER    (3) Torsional Free Energy           =   +1.79 kcal/mol
DOCKED: USER    (4) Unbound System's Energy  [=(2)] =   +1.92 kcal/mol
DOCKED: USER    
DOCKED: USER    
DOCKED: USER    NEWDPF move 2_3_BPG_opt.pdbqt
DOCKED: USER    NEWDPF about 0.015000 0.083000 0.031000
DOCKED: USER    NEWDPF tran0 45.563117 25.019951 19.154397
DOCKED: USER    NEWDPF quaternion0 0.077144 -0.374757 0.212314 0.899182
DOCKED: USER    NEWDPF axisangle0 0.176299 -0.856442 0.485207 51.898492
DOCKED: USER    NEWDPF quat0 0.176299 -0.856442 0.485207 51.898492
DOCKED: USER    NEWDPF dihe0 -179.88 92.10 -42.81 18.11 -14.67 6.34 
DOCKED: USER  keepresnum = 1 
DOCKED: USER  
DOCKED: REMARK  6 active torsions:
DOCKED: REMARK  status: ('A' for Active; 'I' for Inactive)
DOCKED: REMARK    1  A    between atoms: P_1  and  O_3 
DOCKED: REMARK    2  A    between atoms: P_2  and  O_4 
DOCKED: REMARK    3  A    between atoms: O_3  and  C_13 
DOCKED: REMARK    4  A    between atoms: O_4  and  C_14 
DOCKED: REMARK    5  A    between atoms: C_13  and  C_14 
DOCKED: REMARK    6  A    between atoms: C_13  and  C_15 
DOCKED: USER                              x       y       z     vdW  Elec       q    Type
DOCKED: USER                           _______ _______ _______ _____ _____    ______ ____
DOCKED: ROOT
DOCKED: ATOM      1  C   UNL d   1      45.159  24.996  19.689 -0.11 +0.10    +0.193 C 
DOCKED: ENDROOT
DOCKED: BRANCH   1   2
DOCKED: ATOM      2  O   UNL d   1      44.303  26.187  19.670 -0.10 -0.22    -0.356 OA
DOCKED: BRANCH   2   3
DOCKED: ATOM      3  P   UNL d   1      44.379  27.372  20.807 -0.14 -0.02    -0.014 P 
DOCKED: ATOM      4  O   UNL d   1      43.344  26.956  21.864 -0.63 -1.11    -0.577 OA
DOCKED: ATOM      5  O   UNL d   1      43.989  28.681  20.124 -0.15 -0.51    -0.577 OA
DOCKED: ATOM      6  O   UNL d   1      45.792  27.383  21.381 -0.23 -1.25    -0.638 OA
DOCKED: ENDBRANCH   2   3
DOCKED: ENDBRANCH   1   2
DOCKED: BRANCH   1   7
DOCKED: ATOM      7  C   UNL d   1      45.901  24.885  18.306 -0.09 +0.10    +0.201 C 
DOCKED: BRANCH   7   8
DOCKED: ATOM      8  O   UNL d   1      47.014  23.965  18.260 -0.03 -0.22    -0.364 OA
DOCKED: BRANCH   8   9
DOCKED: ATOM      9  P   UNL d   1      47.686  23.548  16.807 -0.20 -0.02    -0.015 P 
DOCKED: ATOM     10  O   UNL d   1      49.198  23.523  17.059 -0.55 -0.92    -0.577 OA
DOCKED: ATOM     11  O   UNL d   1      47.292  24.633  15.805 -0.13 -0.48    -0.577 OA
DOCKED: ATOM     12  O   UNL d   1      47.143  22.168  16.438 -0.16 -0.93    -0.638 OA
DOCKED: ENDBRANCH   8   9
DOCKED: ENDBRANCH   7   8
DOCKED: ENDBRANCH   1   7
DOCKED: BRANCH   1  13
DOCKED: ATOM     13  C   UNL d   1      44.283  23.704  19.895 -0.24 +0.03    +0.073 C 
DOCKED: ATOM     14  O   UNL d   1      44.583  22.908  20.853 -0.62 -0.29    -0.547 OA
DOCKED: ATOM     15  O   UNL d   1      43.269  23.558  19.121 -0.15 -0.18    -0.547 OA
DOCKED: ENDBRANCH   1  13
DOCKED: TORSDOF 6
DOCKED: TER
DOCKED: ENDMDL
________________________________________________________________________________


	BEGINNING GENETIC ALGORITHM DOCKING 10 of 100
Run: 10 Seed: 769934347 1384879822 [ Run 10 of 100 GA/GALS ]
Beginning LAMARCKIAN GENETIC ALGORITHM (LGA), with a maximum of 25000000 energy evaluations.

Final-Value: -6.865


	FINAL GENETIC ALGORITHM DOCKED STATE
	_______________________________________________


Detailed state:  trans 2.536 43.134 -0.920 quatxyzw 0.550992 -0.020247 -0.385349 0.739935 center 0.015 0.083 0.031 ntor 6 -36.9345 -4.5945 -58.0434 14.2113 28.3630 -31.6090
State:	  2.536  43.134  -0.920   0.819 -0.030 -0.573 84.548    -36.93   -4.59  -58.04   14.21   28.36  -31.61

DOCKED: MODEL       10
DOCKED: USER    Run = 10
DOCKED: USER    DPF = D:/Protein_go_brrr/autodock/final/6BB5/2_3_BPG/dock.dpf
DOCKED: USER  
DOCKED: USER    Estimated Free Energy of Binding    =   -7.11 kcal/mol  [=(1)+(2)+(3)-(4)]
DOCKED: USER    Estimated Inhibition Constant, Ki   =    6.18 uM (micromolar)  [Temperature = 298.15 K]
DOCKED: USER    
DOCKED: USER    (1) Final Intermolecular Energy     =   -8.90 kcal/mol
DOCKED: USER        vdW + Hbond + desolv Energy     =   -3.34 kcal/mol
DOCKED: USER        Electrostatic Energy            =   -5.55 kcal/mol
DOCKED: USER    (2) Final Total Internal Energy     =   +2.03 kcal/mol
DOCKED: USER    (3) Torsional Free Energy           =   +1.79 kcal/mol
DOCKED: USER    (4) Unbound System's Energy  [=(2)] =   +2.03 kcal/mol
DOCKED: USER    
DOCKED: USER    
DOCKED: USER    NEWDPF move 2_3_BPG_opt.pdbqt
DOCKED: USER    NEWDPF about 0.015000 0.083000 0.031000
DOCKED: USER    NEWDPF tran0 2.536214 43.133520 -0.920399
DOCKED: USER    NEWDPF quaternion0 0.550992 -0.020247 -0.385349 0.739935
DOCKED: USER    NEWDPF axisangle0 0.819102 -0.030099 -0.572858 84.548245
DOCKED: USER    NEWDPF quat0 0.819102 -0.030099 -0.572858 84.548245
DOCKED: USER    NEWDPF dihe0 -36.93 -4.59 -58.04 14.21 28.36 -31.61 
DOCKED: USER  keepresnum = 1 
DOCKED: USER  
DOCKED: REMARK  6 active torsions:
DOCKED: REMARK  status: ('A' for Active; 'I' for Inactive)
DOCKED: REMARK    1  A    between atoms: P_1  and  O_3 
DOCKED: REMARK    2  A    between atoms: P_2  and  O_4 
DOCKED: REMARK    3  A    between atoms: O_3  and  C_13 
DOCKED: REMARK    4  A    between atoms: O_4  and  C_14 
DOCKED: REMARK    5  A    between atoms: C_13  and  C_14 
DOCKED: REMARK    6  A    between atoms: C_13  and  C_15 
DOCKED: USER                              x       y       z     vdW  Elec       q    Type
DOCKED: USER                           _______ _______ _______ _____ _____    ______ ____
DOCKED: ROOT
DOCKED: ATOM      1  C   UNL d   1       2.273  42.860  -0.368 -0.20 +0.16    +0.193 C 
DOCKED: ENDROOT
DOCKED: BRANCH   1   2
DOCKED: ATOM      2  O   UNL d   1       1.317  41.827  -0.781 -0.05 -0.44    -0.356 OA
DOCKED: BRANCH   2   3
DOCKED: ATOM      3  P   UNL d   1      -0.288  41.888  -0.426 -0.03 -0.02    -0.014 P 
DOCKED: ATOM      4  O   UNL d   1      -0.904  40.738  -1.238 -0.04 -0.53    -0.577 OA
DOCKED: ATOM      5  O   UNL d   1      -0.804  43.247  -0.897 +0.02 -0.31    -0.577 OA
DOCKED: ATOM      6  O   UNL d   1      -0.448  41.664   1.074 -0.47 -1.16    -0.638 OA
DOCKED: ENDBRANCH   2   3
DOCKED: ENDBRANCH   1   2
DOCKED: BRANCH   1   7
DOCKED: ATOM      7  C   UNL d   1       3.108  43.306  -1.624 -0.19 +0.12    +0.201 C 
DOCKED: BRANCH   7   8
DOCKED: ATOM      8  O   UNL d   1       3.152  44.728  -1.879 -0.18 -0.27    -0.364 OA
DOCKED: BRANCH   8   9
DOCKED: ATOM      9  P   UNL d   1       3.270  45.289  -3.431 -0.33 -0.01    -0.015 P 
DOCKED: ATOM     10  O   UNL d   1       2.071  46.229  -3.607 -0.02 -0.64    -0.577 OA
DOCKED: ATOM     11  O   UNL d   1       3.182  44.073  -4.353 -0.02 -0.29    -0.577 OA
DOCKED: ATOM     12  O   UNL d   1       4.602  46.030  -3.543 -0.59 -0.99    -0.638 OA
DOCKED: ENDBRANCH   8   9
DOCKED: ENDBRANCH   7   8
DOCKED: ENDBRANCH   1   7
DOCKED: BRANCH   1  13
DOCKED: ATOM     13  C   UNL d   1       3.260  42.281   0.713 -0.51 +0.07    +0.073 C 
DOCKED: ATOM     14  O   UNL d   1       3.344  41.009   0.845 -0.52 -0.96    -0.547 OA
DOCKED: ATOM     15  O   UNL d   1       3.975  43.127   1.362 -0.21 -0.29    -0.547 OA
DOCKED: ENDBRANCH   1  13
DOCKED: TORSDOF 6
DOCKED: TER
DOCKED: ENDMDL
________________________________________________________________________________


	BEGINNING GENETIC ALGORITHM DOCKING 11 of 100
Run: 11 Seed: 741317282 1339811902 [ Run 11 of 100 GA/GALS ]
Beginning LAMARCKIAN GENETIC ALGORITHM (LGA), with a maximum of 25000000 energy evaluations.

Final-Value: -7.318


	FINAL GENETIC ALGORITHM DOCKED STATE
	_______________________________________________


Detailed state:  trans 45.322 24.676 18.925 quatxyzw -0.138345 0.471649 -0.298963 -0.817942 center 0.015 0.083 0.031 ntor 6 -2.5574 -14.3843 -90.5383 -12.0242 -36.9628 -59.7324
State:	 45.322  24.676  18.925  -0.240  0.820 -0.520 -70.241     -2.56  -14.38  -90.54  -12.02  -36.96  -59.73

DOCKED: MODEL       11
DOCKED: USER    Run = 11
DOCKED: USER    DPF = D:/Protein_go_brrr/autodock/final/6BB5/2_3_BPG/dock.dpf
DOCKED: USER  
DOCKED: USER    Estimated Free Energy of Binding    =   -7.50 kcal/mol  [=(1)+(2)+(3)-(4)]
DOCKED: USER    Estimated Inhibition Constant, Ki   =    3.18 uM (micromolar)  [Temperature = 298.15 K]
DOCKED: USER    
DOCKED: USER    (1) Final Intermolecular Energy     =   -9.29 kcal/mol
DOCKED: USER        vdW + Hbond + desolv Energy     =   -3.64 kcal/mol
DOCKED: USER        Electrostatic Energy            =   -5.65 kcal/mol
DOCKED: USER    (2) Final Total Internal Energy     =   +1.97 kcal/mol
DOCKED: USER    (3) Torsional Free Energy           =   +1.79 kcal/mol
DOCKED: USER    (4) Unbound System's Energy  [=(2)] =   +1.97 kcal/mol
DOCKED: USER    
DOCKED: USER    
DOCKED: USER    NEWDPF move 2_3_BPG_opt.pdbqt
DOCKED: USER    NEWDPF about 0.015000 0.083000 0.031000
DOCKED: USER    NEWDPF tran0 45.322038 24.675790 18.925297
DOCKED: USER    NEWDPF quaternion0 -0.138345 0.471649 -0.298963 -0.817942
DOCKED: USER    NEWDPF axisangle0 -0.240474 0.819830 -0.519665 -70.241401
DOCKED: USER    NEWDPF quat0 -0.240474 0.819830 -0.519665 -70.241401
DOCKED: USER    NEWDPF dihe0 -2.56 -14.38 -90.54 -12.02 -36.96 -59.73 
DOCKED: USER  keepresnum = 1 
DOCKED: USER  
DOCKED: REMARK  6 active torsions:
DOCKED: REMARK  status: ('A' for Active; 'I' for Inactive)
DOCKED: REMARK    1  A    between atoms: P_1  and  O_3 
DOCKED: REMARK    2  A    between atoms: P_2  and  O_4 
DOCKED: REMARK    3  A    between atoms: O_3  and  C_13 
DOCKED: REMARK    4  A    between atoms: O_4  and  C_14 
DOCKED: REMARK    5  A    between atoms: C_13  and  C_14 
DOCKED: REMARK    6  A    between atoms: C_13  and  C_15 
DOCKED: USER                              x       y       z     vdW  Elec       q    Type
DOCKED: USER                           _______ _______ _______ _____ _____    ______ ____
DOCKED: ROOT
DOCKED: ATOM      1  C   UNL d   1      45.069  24.789  19.536 -0.11 +0.10    +0.193 C 
DOCKED: ENDROOT
DOCKED: BRANCH   1   2
DOCKED: ATOM      2  O   UNL d   1      44.411  26.101  19.521 -0.09 -0.20    -0.356 OA
DOCKED: BRANCH   2   3
DOCKED: ATOM      3  P   UNL d   1      44.413  27.127  20.806 -0.21 -0.02    -0.014 P 
DOCKED: ATOM      4  O   UNL d   1      44.051  28.494  20.206 -0.17 -0.54    -0.577 OA
DOCKED: ATOM      5  O   UNL d   1      45.827  27.124  21.385 -0.28 -1.05    -0.577 OA
DOCKED: ATOM      6  O   UNL d   1      43.352  26.649  21.792 -0.63 -1.05    -0.638 OA
DOCKED: ENDBRANCH   2   3
DOCKED: ENDBRANCH   1   2
DOCKED: BRANCH   1   7
DOCKED: ATOM      7  C   UNL d   1      45.410  24.379  18.056 -0.12 +0.09    +0.201 C 
DOCKED: BRANCH   7   8
DOCKED: ATOM      8  O   UNL d   1      46.775  24.600  17.638 -0.06 -0.21    -0.364 OA
DOCKED: BRANCH   8   9
DOCKED: ATOM      9  P   UNL d   1      47.495  23.561  16.572 -0.21 -0.02    -0.015 P 
DOCKED: ATOM     10  O   UNL d   1      47.226  24.161  15.186 -0.13 -0.58    -0.577 OA
DOCKED: ATOM     11  O   UNL d   1      46.818  22.202  16.747 -0.12 -0.63    -0.577 OA
DOCKED: ATOM     12  O   UNL d   1      48.986  23.534  16.905 -0.50 -1.10    -0.638 OA
DOCKED: ENDBRANCH   8   9
DOCKED: ENDBRANCH   7   8
DOCKED: ENDBRANCH   1   7
DOCKED: BRANCH   1  13
DOCKED: ATOM     13  C   UNL d   1      44.104  23.708  20.150 -0.25 +0.03    +0.073 C 
DOCKED: ATOM     14  O   UNL d   1      42.915  23.614  19.682 -0.17 -0.19    -0.547 OA
DOCKED: ATOM     15  O   UNL d   1      44.593  22.934  21.049 -0.60 -0.29    -0.547 OA
DOCKED: ENDBRANCH   1  13
DOCKED: TORSDOF 6
DOCKED: TER
DOCKED: ENDMDL
________________________________________________________________________________


	BEGINNING GENETIC ALGORITHM DOCKING 12 of 100
Run: 12 Seed: 80197951 2060455244 [ Run 12 of 100 GA/GALS ]
Beginning LAMARCKIAN GENETIC ALGORITHM (LGA), with a maximum of 25000000 energy evaluations.

Final-Value: -6.812


	FINAL GENETIC ALGORITHM DOCKED STATE
	_______________________________________________


Detailed state:  trans 45.224 24.266 18.462 quatxyzw 0.581784 0.702609 0.256483 0.319507 center 0.015 0.083 0.031 ntor 6 -134.0933 -179.9114 132.0431 39.9995 -16.0188 27.0276
State:	 45.224  24.266  18.462   0.614  0.741  0.271 142.734   -134.09 -179.91  132.04   40.00  -16.02   27.03

DOCKED: MODEL       12
DOCKED: USER    Run = 12
DOCKED: USER    DPF = D:/Protein_go_brrr/autodock/final/6BB5/2_3_BPG/dock.dpf
DOCKED: USER  
DOCKED: USER    Estimated Free Energy of Binding    =   -7.08 kcal/mol  [=(1)+(2)+(3)-(4)]
DOCKED: USER    Estimated Inhibition Constant, Ki   =    6.43 uM (micromolar)  [Temperature = 298.15 K]
DOCKED: USER    
DOCKED: USER    (1) Final Intermolecular Energy     =   -8.87 kcal/mol
DOCKED: USER        vdW + Hbond + desolv Energy     =   -3.22 kcal/mol
DOCKED: USER        Electrostatic Energy            =   -5.65 kcal/mol
DOCKED: USER    (2) Final Total Internal Energy     =   +2.06 kcal/mol
DOCKED: USER    (3) Torsional Free Energy           =   +1.79 kcal/mol
DOCKED: USER    (4) Unbound System's Energy  [=(2)] =   +2.06 kcal/mol
DOCKED: USER    
DOCKED: USER    
DOCKED: USER    NEWDPF move 2_3_BPG_opt.pdbqt
DOCKED: USER    NEWDPF about 0.015000 0.083000 0.031000
DOCKED: USER    NEWDPF tran0 45.224422 24.266003 18.462289
DOCKED: USER    NEWDPF quaternion0 0.581784 0.702609 0.256483 0.319507
DOCKED: USER    NEWDPF axisangle0 0.613966 0.741474 0.270670 142.733812
DOCKED: USER    NEWDPF quat0 0.613966 0.741474 0.270670 142.733812
DOCKED: USER    NEWDPF dihe0 -134.09 -179.91 132.04 40.00 -16.02 27.03 
DOCKED: USER  keepresnum = 1 
DOCKED: USER  
DOCKED: REMARK  6 active torsions:
DOCKED: REMARK  status: ('A' for Active; 'I' for Inactive)
DOCKED: REMARK    1  A    between atoms: P_1  and  O_3 
DOCKED: REMARK    2  A    between atoms: P_2  and  O_4 
DOCKED: REMARK    3  A    between atoms: O_3  and  C_13 
DOCKED: REMARK    4  A    between atoms: O_4  and  C_14 
DOCKED: REMARK    5  A    between atoms: C_13  and  C_14 
DOCKED: REMARK    6  A    between atoms: C_13  and  C_15 
DOCKED: USER                              x       y       z     vdW  Elec       q    Type
DOCKED: USER                           _______ _______ _______ _____ _____    ______ ____
DOCKED: ROOT
DOCKED: ATOM      1  C   UNL d   1      44.974  23.891  17.966 -0.14 +0.08    +0.193 C 
DOCKED: ENDROOT
DOCKED: BRANCH   1   2
DOCKED: ATOM      2  O   UNL d   1      45.979  22.887  17.599 -0.07 -0.21    -0.356 OA
DOCKED: BRANCH   2   3
DOCKED: ATOM      3  P   UNL d   1      47.093  23.116  16.411 -0.27 -0.02    -0.014 P 
DOCKED: ATOM      4  O   UNL d   1      46.731  24.481  15.806 -0.12 -0.42    -0.577 OA
DOCKED: ATOM      5  O   UNL d   1      46.913  21.987  15.399 -0.06 -0.92    -0.577 OA
DOCKED: ATOM      6  O   UNL d   1      48.474  23.139  17.058 -0.54 -1.08    -0.638 OA
DOCKED: ENDBRANCH   2   3
DOCKED: ENDBRANCH   1   2
DOCKED: BRANCH   1   7
DOCKED: ATOM      7  C   UNL d   1      45.418  24.583  19.307 -0.09 +0.10    +0.201 C 
DOCKED: BRANCH   7   8
DOCKED: ATOM      8  O   UNL d   1      44.465  25.500  19.889 -0.08 -0.21    -0.364 OA
DOCKED: BRANCH   8   9
DOCKED: ATOM      9  P   UNL d   1      44.671  26.038  21.440 -0.22 -0.02    -0.015 P 
DOCKED: ATOM     10  O   UNL d   1      45.015  24.784  22.254 -0.01 -0.52    -0.577 OA
DOCKED: ATOM     11  O   UNL d   1      43.344  26.656  21.878 -0.71 -0.99    -0.577 OA
DOCKED: ATOM     12  O   UNL d   1      45.822  27.042  21.420 -0.26 -1.15    -0.638 OA
DOCKED: ENDBRANCH   8   9
DOCKED: ENDBRANCH   7   8
DOCKED: ENDBRANCH   1   7
DOCKED: BRANCH   1  13
DOCKED: ATOM     13  C   UNL d   1      43.578  23.200  18.193 -0.31 +0.02    +0.073 C 
DOCKED: ATOM     14  O   UNL d   1      42.865  22.910  17.169 -0.07 -0.11    -0.547 OA
DOCKED: ATOM     15  O   UNL d   1      43.262  22.908  19.403 -0.28 -0.20    -0.547 OA
DOCKED: ENDBRANCH   1  13
DOCKED: TORSDOF 6
DOCKED: TER
DOCKED: ENDMDL
________________________________________________________________________________


	BEGINNING GENETIC ALGORITHM DOCKING 13 of 100
Run: 13 Seed: 871098485 382763606 [ Run 13 of 100 GA/GALS ]
Beginning LAMARCKIAN GENETIC ALGORITHM (LGA), with a maximum of 25000000 energy evaluations.

Final-Value: -6.115


	FINAL GENETIC ALGORITHM DOCKED STATE
	_______________________________________________


Detailed state:  trans 44.841 25.441 22.134 quatxyzw 0.090747 0.412688 0.216689 -0.880057 center 0.015 0.083 0.031 ntor 6 -165.9856 62.0690 -179.8688 41.1818 19.0119 -22.6526
State:	 44.841  25.441  22.134   0.191  0.869  0.456 -56.702   -165.99   62.07 -179.87   41.18   19.01  -22.65

DOCKED: MODEL       13
DOCKED: USER    Run = 13
DOCKED: USER    DPF = D:/Protein_go_brrr/autodock/final/6BB5/2_3_BPG/dock.dpf
DOCKED: USER  
DOCKED: USER    Estimated Free Energy of Binding    =   -6.33 kcal/mol  [=(1)+(2)+(3)-(4)]
DOCKED: USER    Estimated Inhibition Constant, Ki   =   22.87 uM (micromolar)  [Temperature = 298.15 K]
DOCKED: USER    
DOCKED: USER    (1) Final Intermolecular Energy     =   -8.12 kcal/mol
DOCKED: USER        vdW + Hbond + desolv Energy     =   -3.15 kcal/mol
DOCKED: USER        Electrostatic Energy            =   -4.97 kcal/mol
DOCKED: USER    (2) Final Total Internal Energy     =   +2.01 kcal/mol
DOCKED: USER    (3) Torsional Free Energy           =   +1.79 kcal/mol
DOCKED: USER    (4) Unbound System's Energy  [=(2)] =   +2.01 kcal/mol
DOCKED: USER    
DOCKED: USER    
DOCKED: USER    NEWDPF move 2_3_BPG_opt.pdbqt
DOCKED: USER    NEWDPF about 0.015000 0.083000 0.031000
DOCKED: USER    NEWDPF tran0 44.840611 25.441104 22.133839
DOCKED: USER    NEWDPF quaternion0 0.090747 0.412688 0.216689 -0.880057
DOCKED: USER    NEWDPF axisangle0 0.191098 0.869057 0.456313 -56.701609
DOCKED: USER    NEWDPF quat0 0.191098 0.869057 0.456313 -56.701609
DOCKED: USER    NEWDPF dihe0 -165.99 62.07 -179.87 41.18 19.01 -22.65 
DOCKED: USER  keepresnum = 1 
DOCKED: USER  
DOCKED: REMARK  6 active torsions:
DOCKED: REMARK  status: ('A' for Active; 'I' for Inactive)
DOCKED: REMARK    1  A    between atoms: P_1  and  O_3 
DOCKED: REMARK    2  A    between atoms: P_2  and  O_4 
DOCKED: REMARK    3  A    between atoms: O_3  and  C_13 
DOCKED: REMARK    4  A    between atoms: O_4  and  C_14 
DOCKED: REMARK    5  A    between atoms: C_13  and  C_14 
DOCKED: REMARK    6  A    between atoms: C_13  and  C_15 
DOCKED: USER                              x       y       z     vdW  Elec       q    Type
DOCKED: USER                           _______ _______ _______ _____ _____    ______ ____
DOCKED: ROOT
DOCKED: ATOM      1  C   UNL d   1      44.676  24.898  22.491 -0.16 +0.20    +0.193 C 
DOCKED: ENDROOT
DOCKED: BRANCH   1   2
DOCKED: ATOM      2  O   UNL d   1      43.345  25.116  23.069 -0.27 -0.37    -0.356 OA
DOCKED: BRANCH   2   3
DOCKED: ATOM      3  P   UNL d   1      43.104  25.784  24.552 -0.29 -0.02    -0.014 P 
DOCKED: ATOM      4  O   UNL d   1      42.307  24.721  25.325 -0.12 -0.33    -0.577 OA
DOCKED: ATOM      5  O   UNL d   1      42.289  27.059  24.348 -0.32 -0.81    -0.577 OA
DOCKED: ATOM      6  O   UNL d   1      44.469  26.031  25.186 -0.05 -1.10    -0.638 OA
DOCKED: ENDBRANCH   2   3
DOCKED: ENDBRANCH   1   2
DOCKED: BRANCH   1   7
DOCKED: ATOM      7  C   UNL d   1      44.954  26.021  21.425 -0.13 +0.26    +0.201 C 
DOCKED: BRANCH   7   8
DOCKED: ATOM      8  O   UNL d   1      46.275  26.604  21.453 -0.34 -0.50    -0.364 OA
DOCKED: BRANCH   8   9
DOCKED: ATOM      9  P   UNL d   1      46.535  28.104  20.806 -0.13 -0.02    -0.015 P 
DOCKED: ATOM     10  O   UNL d   1      45.155  28.578  20.333 -0.11 -0.61    -0.577 OA
DOCKED: ATOM     11  O   UNL d   1      47.507  27.925  19.640 +0.00 -0.31    -0.577 OA
DOCKED: ATOM     12  O   UNL d   1      47.094  28.987  21.921 -0.39 -0.88    -0.638 OA
DOCKED: ENDBRANCH   8   9
DOCKED: ENDBRANCH   7   8
DOCKED: ENDBRANCH   1   7
DOCKED: BRANCH   1  13
DOCKED: ATOM     13  C   UNL d   1      44.729  23.498  21.773 -0.21 +0.04    +0.073 C 
DOCKED: ATOM     14  O   UNL d   1      45.471  22.581  22.276 -0.12 -0.23    -0.547 OA
DOCKED: ATOM     15  O   UNL d   1      43.969  23.337  20.752 -0.53 -0.28    -0.547 OA
DOCKED: ENDBRANCH   1  13
DOCKED: TORSDOF 6
DOCKED: TER
DOCKED: ENDMDL
________________________________________________________________________________


	BEGINNING GENETIC ALGORITHM DOCKING 14 of 100
Run: 14 Seed: 1461656172 14850730 [ Run 14 of 100 GA/GALS ]
Beginning LAMARCKIAN GENETIC ALGORITHM (LGA), with a maximum of 25000000 energy evaluations.

Final-Value: -6.654


	FINAL GENETIC ALGORITHM DOCKED STATE
	_______________________________________________


Detailed state:  trans 45.315 24.571 18.735 quatxyzw -0.248314 -0.323442 0.360956 0.838711 center 0.015 0.083 0.031 ntor 6 -177.3902 -179.5655 111.2875 10.2088 21.7400 40.3873
State:	 45.315  24.571  18.735  -0.456 -0.594  0.663 65.991   -177.39 -179.57  111.29   10.21   21.74   40.39

DOCKED: MODEL       14
DOCKED: USER    Run = 14
DOCKED: USER    DPF = D:/Protein_go_brrr/autodock/final/6BB5/2_3_BPG/dock.dpf
DOCKED: USER  
DOCKED: USER    Estimated Free Energy of Binding    =   -6.84 kcal/mol  [=(1)+(2)+(3)-(4)]
DOCKED: USER    Estimated Inhibition Constant, Ki   =    9.63 uM (micromolar)  [Temperature = 298.15 K]
DOCKED: USER    
DOCKED: USER    (1) Final Intermolecular Energy     =   -8.63 kcal/mol
DOCKED: USER        vdW + Hbond + desolv Energy     =   -2.80 kcal/mol
DOCKED: USER        Electrostatic Energy            =   -5.83 kcal/mol
DOCKED: USER    (2) Final Total Internal Energy     =   +1.98 kcal/mol
DOCKED: USER    (3) Torsional Free Energy           =   +1.79 kcal/mol
DOCKED: USER    (4) Unbound System's Energy  [=(2)] =   +1.98 kcal/mol
DOCKED: USER    
DOCKED: USER    
DOCKED: USER    NEWDPF move 2_3_BPG_opt.pdbqt
DOCKED: USER    NEWDPF about 0.015000 0.083000 0.031000
DOCKED: USER    NEWDPF tran0 45.314896 24.571034 18.735133
DOCKED: USER    NEWDPF quaternion0 -0.248314 -0.323442 0.360956 0.838711
DOCKED: USER    NEWDPF axisangle0 -0.455977 -0.593933 0.662819 65.991483
DOCKED: USER    NEWDPF quat0 -0.455977 -0.593933 0.662819 65.991483
DOCKED: USER    NEWDPF dihe0 -177.39 -179.57 111.29 10.21 21.74 40.39 
DOCKED: USER  keepresnum = 1 
DOCKED: USER  
DOCKED: REMARK  6 active torsions:
DOCKED: REMARK  status: ('A' for Active; 'I' for Inactive)
DOCKED: REMARK    1  A    between atoms: P_1  and  O_3 
DOCKED: REMARK    2  A    between atoms: P_2  and  O_4 
DOCKED: REMARK    3  A    between atoms: O_3  and  C_13 
DOCKED: REMARK    4  A    between atoms: O_4  and  C_14 
DOCKED: REMARK    5  A    between atoms: C_13  and  C_14 
DOCKED: REMARK    6  A    between atoms: C_13  and  C_15 
DOCKED: USER                              x       y       z     vdW  Elec       q    Type
DOCKED: USER                           _______ _______ _______ _____ _____    ______ ____
DOCKED: ROOT
DOCKED: ATOM      1  C   UNL d   1      44.799  24.579  19.163 -0.13 +0.09    +0.193 C 
DOCKED: ENDROOT
DOCKED: BRANCH   1   2
DOCKED: ATOM      2  O   UNL d   1      44.620  25.956  19.638 -0.07 -0.21    -0.356 OA
DOCKED: BRANCH   2   3
DOCKED: ATOM      3  P   UNL d   1      44.676  26.377  21.226 +0.01 -0.02    -0.014 P 
DOCKED: ATOM      4  O   UNL d   1      44.846  25.044  21.971 -0.03 -0.57    -0.577 OA
DOCKED: ATOM      5  O   UNL d   1      43.344  27.043  21.565 -0.58 -0.99    -0.577 OA
DOCKED: ATOM      6  O   UNL d   1      45.881  27.290  21.430 -0.29 -1.23    -0.638 OA
DOCKED: ENDBRANCH   2   3
DOCKED: ENDBRANCH   1   2
DOCKED: BRANCH   1   7
DOCKED: ATOM      7  C   UNL d   1      45.802  24.589  17.951 -0.11 +0.10    +0.201 C 
DOCKED: BRANCH   7   8
DOCKED: ATOM      8  O   UNL d   1      45.759  23.432  17.088 -0.08 -0.20    -0.364 OA
DOCKED: BRANCH   8   9
DOCKED: ATOM      9  P   UNL d   1      47.088  23.012  16.197 -0.20 -0.02    -0.015 P 
DOCKED: ATOM     10  O   UNL d   1      47.265  24.149  15.183 -0.13 -0.59    -0.577 OA
DOCKED: ATOM     11  O   UNL d   1      46.765  21.683  15.513 -0.08 -0.85    -0.577 OA
DOCKED: ATOM     12  O   UNL d   1      48.268  22.916  17.163 -0.51 -1.04    -0.638 OA
DOCKED: ENDBRANCH   8   9
DOCKED: ENDBRANCH   7   8
DOCKED: ENDBRANCH   1   7
DOCKED: BRANCH   1  13
DOCKED: ATOM     13  C   UNL d   1      43.422  23.994  18.673 -0.33 +0.02    +0.073 C 
DOCKED: ATOM     14  O   UNL d   1      42.996  22.908  19.202 -0.22 -0.17    -0.547 OA
DOCKED: ATOM     15  O   UNL d   1      42.771  24.683  17.807 -0.06 -0.14    -0.547 OA
DOCKED: ENDBRANCH   1  13
DOCKED: TORSDOF 6
DOCKED: TER
DOCKED: ENDMDL
________________________________________________________________________________


	BEGINNING GENETIC ALGORITHM DOCKING 15 of 100
Run: 15 Seed: 64293571 1099195771 [ Run 15 of 100 GA/GALS ]
Beginning LAMARCKIAN GENETIC ALGORITHM (LGA), with a maximum of 25000000 energy evaluations.

Final-Value: -6.775


	FINAL GENETIC ALGORITHM DOCKED STATE
	_______________________________________________


Detailed state:  trans 44.676 24.596 18.624 quatxyzw 0.340403 0.339047 -0.376984 -0.791869 center 0.015 0.083 0.031 ntor 6 -177.3180 178.4951 -152.8528 23.8298 -29.0591 -52.6674
State:	 44.676  24.596  18.624   0.557  0.555 -0.617 -75.279   -177.32  178.50 -152.85   23.83  -29.06  -52.67

DOCKED: MODEL       15
DOCKED: USER    Run = 15
DOCKED: USER    DPF = D:/Protein_go_brrr/autodock/final/6BB5/2_3_BPG/dock.dpf
DOCKED: USER  
DOCKED: USER    Estimated Free Energy of Binding    =   -6.90 kcal/mol  [=(1)+(2)+(3)-(4)]
DOCKED: USER    Estimated Inhibition Constant, Ki   =    8.78 uM (micromolar)  [Temperature = 298.15 K]
DOCKED: USER    
DOCKED: USER    (1) Final Intermolecular Energy     =   -8.69 kcal/mol
DOCKED: USER        vdW + Hbond + desolv Energy     =   -3.48 kcal/mol
DOCKED: USER        Electrostatic Energy            =   -5.21 kcal/mol
DOCKED: USER    (2) Final Total Internal Energy     =   +1.91 kcal/mol
DOCKED: USER    (3) Torsional Free Energy           =   +1.79 kcal/mol
DOCKED: USER    (4) Unbound System's Energy  [=(2)] =   +1.91 kcal/mol
DOCKED: USER    
DOCKED: USER    
DOCKED: USER    NEWDPF move 2_3_BPG_opt.pdbqt
DOCKED: USER    NEWDPF about 0.015000 0.083000 0.031000
DOCKED: USER    NEWDPF tran0 44.676008 24.596031 18.624407
DOCKED: USER    NEWDPF quaternion0 0.340403 0.339047 -0.376984 -0.791869
DOCKED: USER    NEWDPF axisangle0 0.557407 0.555185 -0.617306 -75.279015
DOCKED: USER    NEWDPF quat0 0.557407 0.555185 -0.617306 -75.279015
DOCKED: USER    NEWDPF dihe0 -177.32 178.50 -152.85 23.83 -29.06 -52.67 
DOCKED: USER  keepresnum = 1 
DOCKED: USER  
DOCKED: REMARK  6 active torsions:
DOCKED: REMARK  status: ('A' for Active; 'I' for Inactive)
DOCKED: REMARK    1  A    between atoms: P_1  and  O_3 
DOCKED: REMARK    2  A    between atoms: P_2  and  O_4 
DOCKED: REMARK    3  A    between atoms: O_3  and  C_13 
DOCKED: REMARK    4  A    between atoms: O_4  and  C_14 
DOCKED: REMARK    5  A    between atoms: C_13  and  C_14 
DOCKED: REMARK    6  A    between atoms: C_13  and  C_15 
DOCKED: USER                              x       y       z     vdW  Elec       q    Type
DOCKED: USER                           _______ _______ _______ _____ _____    ______ ____
DOCKED: ROOT
DOCKED: ATOM      1  C   UNL d   1      44.159  24.586  19.051 -0.18 +0.08    +0.193 C 
DOCKED: ENDROOT
DOCKED: BRANCH   1   2
DOCKED: ATOM      2  O   UNL d   1      44.129  25.868  19.764 -0.11 -0.21    -0.356 OA
DOCKED: BRANCH   2   3
DOCKED: ATOM      3  P   UNL d   1      44.533  26.027  21.351 -0.27 -0.02    -0.014 P 
DOCKED: ATOM      4  O   UNL d   1      44.764  24.587  21.834 -0.03 -0.44    -0.577 OA
DOCKED: ATOM      5  O   UNL d   1      43.342  26.673  22.057 -0.77 -1.08    -0.577 OA
DOCKED: ATOM      6  O   UNL d   1      45.810  26.857  21.431 -0.25 -1.08    -0.638 OA
DOCKED: ENDBRANCH   2   3
DOCKED: ENDBRANCH   1   2
DOCKED: BRANCH   1   7
DOCKED: ATOM      7  C   UNL d   1      45.172  24.698  17.852 -0.13 +0.09    +0.201 C 
DOCKED: BRANCH   7   8
DOCKED: ATOM      8  O   UNL d   1      46.424  23.997  18.017 -0.04 -0.20    -0.364 OA
DOCKED: BRANCH   8   9
DOCKED: ATOM      9  P   UNL d   1      47.270  23.487  16.690 -0.25 -0.02    -0.015 P 
DOCKED: ATOM     10  O   UNL d   1      46.920  24.491  15.584 -0.07 -0.45    -0.577 OA
DOCKED: ATOM     11  O   UNL d   1      46.776  22.079  16.359 -0.12 -0.70    -0.577 OA
DOCKED: ATOM     12  O   UNL d   1      48.753  23.531  17.056 -0.60 -0.96    -0.638 OA
DOCKED: ENDBRANCH   8   9
DOCKED: ENDBRANCH   7   8
DOCKED: ENDBRANCH   1   7
DOCKED: BRANCH   1  13
DOCKED: ATOM     13  C   UNL d   1      42.731  24.255  18.476 -0.39 +0.02    +0.073 C 
DOCKED: ATOM     14  O   UNL d   1      42.180  23.147  18.808 -0.18 -0.12    -0.547 OA
DOCKED: ATOM     15  O   UNL d   1      42.173  25.155  17.751 -0.09 -0.12    -0.547 OA
DOCKED: ENDBRANCH   1  13
DOCKED: TORSDOF 6
DOCKED: TER
DOCKED: ENDMDL
________________________________________________________________________________


	BEGINNING GENETIC ALGORITHM DOCKING 16 of 100
Run: 16 Seed: 598990004 24176334 [ Run 16 of 100 GA/GALS ]
Beginning LAMARCKIAN GENETIC ALGORITHM (LGA), with a maximum of 25000000 energy evaluations.

Final-Value: -6.591


	FINAL GENETIC ALGORITHM DOCKED STATE
	_______________________________________________


Detailed state:  trans 45.486 24.121 19.089 quatxyzw 0.046210 -0.470512 0.416263 0.776665 center 0.015 0.083 0.031 ntor 6 15.5181 -159.9758 -79.8564 -21.5892 -32.9220 -97.3910
State:	 45.486  24.121  19.089   0.073 -0.747  0.661 78.088     15.52 -159.98  -79.86  -21.59  -32.92  -97.39

DOCKED: MODEL       16
DOCKED: USER    Run = 16
DOCKED: USER    DPF = D:/Protein_go_brrr/autodock/final/6BB5/2_3_BPG/dock.dpf
DOCKED: USER  
DOCKED: USER    Estimated Free Energy of Binding    =   -6.85 kcal/mol  [=(1)+(2)+(3)-(4)]
DOCKED: USER    Estimated Inhibition Constant, Ki   =    9.51 uM (micromolar)  [Temperature = 298.15 K]
DOCKED: USER    
DOCKED: USER    (1) Final Intermolecular Energy     =   -8.64 kcal/mol
DOCKED: USER        vdW + Hbond + desolv Energy     =   -2.94 kcal/mol
DOCKED: USER        Electrostatic Energy            =   -5.70 kcal/mol
DOCKED: USER    (2) Final Total Internal Energy     =   +2.05 kcal/mol
DOCKED: USER    (3) Torsional Free Energy           =   +1.79 kcal/mol
DOCKED: USER    (4) Unbound System's Energy  [=(2)] =   +2.05 kcal/mol
DOCKED: USER    
DOCKED: USER    
DOCKED: USER    NEWDPF move 2_3_BPG_opt.pdbqt
DOCKED: USER    NEWDPF about 0.015000 0.083000 0.031000
DOCKED: USER    NEWDPF tran0 45.485570 24.120767 19.089168
DOCKED: USER    NEWDPF quaternion0 0.046210 -0.470512 0.416263 0.776665
DOCKED: USER    NEWDPF axisangle0 0.073360 -0.746946 0.660825 78.087620
DOCKED: USER    NEWDPF quat0 0.073360 -0.746946 0.660825 78.087620
DOCKED: USER    NEWDPF dihe0 15.52 -159.98 -79.86 -21.59 -32.92 -97.39 
DOCKED: USER  keepresnum = 1 
DOCKED: USER  
DOCKED: REMARK  6 active torsions:
DOCKED: REMARK  status: ('A' for Active; 'I' for Inactive)
DOCKED: REMARK    1  A    between atoms: P_1  and  O_3 
DOCKED: REMARK    2  A    between atoms: P_2  and  O_4 
DOCKED: REMARK    3  A    between atoms: O_3  and  C_13 
DOCKED: REMARK    4  A    between atoms: O_4  and  C_14 
DOCKED: REMARK    5  A    between atoms: C_13  and  C_14 
DOCKED: REMARK    6  A    between atoms: C_13  and  C_15 
DOCKED: USER                              x       y       z     vdW  Elec       q    Type
DOCKED: USER                           _______ _______ _______ _____ _____    ______ ____
DOCKED: ROOT
DOCKED: ATOM      1  C   UNL d   1      45.245  24.293  19.691 -0.11 +0.09    +0.193 C 
DOCKED: ENDROOT
DOCKED: BRANCH   1   2
DOCKED: ATOM      2  O   UNL d   1      45.011  25.741  19.693 -0.05 -0.21    -0.356 OA
DOCKED: BRANCH   2   3
DOCKED: ATOM      3  P   UNL d   1      45.029  26.657  21.058 +0.08 -0.02    -0.014 P 
DOCKED: ATOM      4  O   UNL d   1      45.719  25.769  22.106 -0.02 -0.81    -0.577 OA
DOCKED: ATOM      5  O   UNL d   1      43.575  26.941  21.432 -0.50 -0.92    -0.577 OA
DOCKED: ATOM      6  O   UNL d   1      45.840  27.916  20.770 -0.42 -0.85    -0.638 OA
DOCKED: ENDBRANCH   2   3
DOCKED: ENDBRANCH   1   2
DOCKED: BRANCH   1   7
DOCKED: ATOM      7  C   UNL d   1      45.527  23.829  18.215 -0.11 +0.09    +0.201 C 
DOCKED: BRANCH   7   8
DOCKED: ATOM      8  O   UNL d   1      46.698  24.398  17.587 -0.07 -0.22    -0.364 OA
DOCKED: BRANCH   8   9
DOCKED: ATOM      9  P   UNL d   1      47.524  23.540  16.439 -0.18 -0.02    -0.015 P 
DOCKED: ATOM     10  O   UNL d   1      47.094  24.150  15.100 -0.13 -0.55    -0.577 OA
DOCKED: ATOM     11  O   UNL d   1      47.084  22.082  16.570 -0.17 -0.77    -0.577 OA
DOCKED: ATOM     12  O   UNL d   1      49.014  23.742  16.710 -0.39 -1.09    -0.638 OA
DOCKED: ENDBRANCH   8   9
DOCKED: ENDBRANCH   7   8
DOCKED: ENDBRANCH   1   7
DOCKED: BRANCH   1  13
DOCKED: ATOM     13  C   UNL d   1      43.969  23.539  20.222 -0.23 +0.03    +0.073 C 
DOCKED: ATOM     14  O   UNL d   1      42.914  23.537  19.495 -0.20 -0.18    -0.547 OA
DOCKED: ATOM     15  O   UNL d   1      44.085  22.911  21.335 -0.42 -0.29    -0.547 OA
DOCKED: ENDBRANCH   1  13
DOCKED: TORSDOF 6
DOCKED: TER
DOCKED: ENDMDL
________________________________________________________________________________


	BEGINNING GENETIC ALGORITHM DOCKING 17 of 100
Run: 17 Seed: 55432164 1462601280 [ Run 17 of 100 GA/GALS ]
Beginning LAMARCKIAN GENETIC ALGORITHM (LGA), with a maximum of 25000000 energy evaluations.

Final-Value: -6.488


	FINAL GENETIC ALGORITHM DOCKED STATE
	_______________________________________________


Detailed state:  trans 3.228 42.568 -0.901 quatxyzw -0.743513 -0.328848 0.393293 -0.429381 center 0.015 0.083 0.031 ntor 6 -75.4755 -79.4800 -70.0214 40.2983 56.0695 -4.3274
State:	  3.228  42.568  -0.901  -0.823 -0.364  0.435 -129.143    -75.48  -79.48  -70.02   40.30   56.07   -4.33

DOCKED: MODEL       17
DOCKED: USER    Run = 17
DOCKED: USER    DPF = D:/Protein_go_brrr/autodock/final/6BB5/2_3_BPG/dock.dpf
DOCKED: USER  
DOCKED: USER    Estimated Free Energy of Binding    =   -6.89 kcal/mol  [=(1)+(2)+(3)-(4)]
DOCKED: USER    Estimated Inhibition Constant, Ki   =    8.89 uM (micromolar)  [Temperature = 298.15 K]
DOCKED: USER    
DOCKED: USER    (1) Final Intermolecular Energy     =   -8.68 kcal/mol
DOCKED: USER        vdW + Hbond + desolv Energy     =   -3.50 kcal/mol
DOCKED: USER        Electrostatic Energy            =   -5.18 kcal/mol
DOCKED: USER    (2) Final Total Internal Energy     =   +2.19 kcal/mol
DOCKED: USER    (3) Torsional Free Energy           =   +1.79 kcal/mol
DOCKED: USER    (4) Unbound System's Energy  [=(2)] =   +2.19 kcal/mol
DOCKED: USER    
DOCKED: USER    
DOCKED: USER    NEWDPF move 2_3_BPG_opt.pdbqt
DOCKED: USER    NEWDPF about 0.015000 0.083000 0.031000
DOCKED: USER    NEWDPF tran0 3.228080 42.567609 -0.901276
DOCKED: USER    NEWDPF quaternion0 -0.743513 -0.328848 0.393293 -0.429381
DOCKED: USER    NEWDPF axisangle0 -0.823268 -0.364123 0.435481 -129.143463
DOCKED: USER    NEWDPF quat0 -0.823268 -0.364123 0.435481 -129.143463
DOCKED: USER    NEWDPF dihe0 -75.48 -79.48 -70.02 40.30 56.07 -4.33 
DOCKED: USER  keepresnum = 1 
DOCKED: USER  
DOCKED: REMARK  6 active torsions:
DOCKED: REMARK  status: ('A' for Active; 'I' for Inactive)
DOCKED: REMARK    1  A    between atoms: P_1  and  O_3 
DOCKED: REMARK    2  A    between atoms: P_2  and  O_4 
DOCKED: REMARK    3  A    between atoms: O_3  and  C_13 
DOCKED: REMARK    4  A    between atoms: O_4  and  C_14 
DOCKED: REMARK    5  A    between atoms: C_13  and  C_14 
DOCKED: REMARK    6  A    between atoms: C_13  and  C_15 
DOCKED: USER                              x       y       z     vdW  Elec       q    Type
DOCKED: USER                           _______ _______ _______ _____ _____    ______ ____
DOCKED: ROOT
DOCKED: ATOM      1  C   UNL d   1       2.822  42.248  -0.474 -0.25 +0.17    +0.193 C 
DOCKED: ENDROOT
DOCKED: BRANCH   1   2
DOCKED: ATOM      2  O   UNL d   1       3.003  40.804  -0.665 -0.20 -0.47    -0.356 OA
DOCKED: BRANCH   2   3
DOCKED: ATOM      3  P   UNL d   1       2.084  39.908  -1.694 -0.15 -0.02    -0.014 P 
DOCKED: ATOM      4  O   UNL d   1       2.919  39.827  -2.981 +0.02 -0.27    -0.577 OA
DOCKED: ATOM      5  O   UNL d   1       0.780  40.671  -1.917 -0.03 -0.55    -0.577 OA
DOCKED: ATOM      6  O   UNL d   1       1.883  38.532  -1.069 -0.58 -1.05    -0.638 OA
DOCKED: ENDBRANCH   2   3
DOCKED: ENDBRANCH   1   2
DOCKED: BRANCH   1   7
DOCKED: ATOM      7  C   UNL d   1       3.962  43.006  -1.249 +0.01 +0.11    +0.201 C 
DOCKED: BRANCH   7   8
DOCKED: ATOM      8  O   UNL d   1       3.661  44.362  -1.645 -0.20 -0.24    -0.364 OA
DOCKED: BRANCH   8   9
DOCKED: ATOM      9  P   UNL d   1       3.702  44.789  -3.243 -0.42 -0.01    -0.015 P 
DOCKED: ATOM     10  O   UNL d   1       2.244  45.084  -3.616 -0.02 -0.41    -0.577 OA
DOCKED: ATOM     11  O   UNL d   1       4.256  43.588  -4.011 -0.08 -0.26    -0.577 OA
DOCKED: ATOM     12  O   UNL d   1       4.586  46.030  -3.356 -0.44 -1.00    -0.638 OA
DOCKED: ENDBRANCH   8   9
DOCKED: ENDBRANCH   7   8
DOCKED: ENDBRANCH   1   7
DOCKED: BRANCH   1  13
DOCKED: ATOM     13  C   UNL d   1       2.927  42.607   1.055 -0.48 +0.07    +0.073 C 
DOCKED: ATOM     14  O   UNL d   1       2.718  41.681   1.916 -0.51 -0.93    -0.547 OA
DOCKED: ATOM     15  O   UNL d   1       3.282  43.805   1.349 -0.17 -0.33    -0.547 OA
DOCKED: ENDBRANCH   1  13
DOCKED: TORSDOF 6
DOCKED: TER
DOCKED: ENDMDL
________________________________________________________________________________


	BEGINNING GENETIC ALGORITHM DOCKING 18 of 100
Run: 18 Seed: 61008263 20560350 [ Run 18 of 100 GA/GALS ]
Beginning LAMARCKIAN GENETIC ALGORITHM (LGA), with a maximum of 25000000 energy evaluations.

Final-Value: -6.489


	FINAL GENETIC ALGORITHM DOCKED STATE
	_______________________________________________


Detailed state:  trans 45.787 24.238 19.280 quatxyzw 0.292144 0.793100 -0.452191 0.284899 center 0.015 0.083 0.031 ntor 6 169.1161 -49.6198 -139.0210 29.4904 -20.2813 54.9509
State:	 45.787  24.238  19.280   0.305  0.827 -0.472 146.894    169.12  -49.62 -139.02   29.49  -20.28   54.95

DOCKED: MODEL       18
DOCKED: USER    Run = 18
DOCKED: USER    DPF = D:/Protein_go_brrr/autodock/final/6BB5/2_3_BPG/dock.dpf
DOCKED: USER  
DOCKED: USER    Estimated Free Energy of Binding    =   -6.71 kcal/mol  [=(1)+(2)+(3)-(4)]
DOCKED: USER    Estimated Inhibition Constant, Ki   =   12.13 uM (micromolar)  [Temperature = 298.15 K]
DOCKED: USER    
DOCKED: USER    (1) Final Intermolecular Energy     =   -8.50 kcal/mol
DOCKED: USER        vdW + Hbond + desolv Energy     =   -2.50 kcal/mol
DOCKED: USER        Electrostatic Energy            =   -6.00 kcal/mol
DOCKED: USER    (2) Final Total Internal Energy     =   +2.01 kcal/mol
DOCKED: USER    (3) Torsional Free Energy           =   +1.79 kcal/mol
DOCKED: USER    (4) Unbound System's Energy  [=(2)] =   +2.01 kcal/mol
DOCKED: USER    
DOCKED: USER    
DOCKED: USER    NEWDPF move 2_3_BPG_opt.pdbqt
DOCKED: USER    NEWDPF about 0.015000 0.083000 0.031000
DOCKED: USER    NEWDPF tran0 45.787485 24.237629 19.279621
DOCKED: USER    NEWDPF quaternion0 0.292144 0.793100 -0.452191 0.284899
DOCKED: USER    NEWDPF axisangle0 0.304774 0.827389 -0.471741 146.894344
DOCKED: USER    NEWDPF quat0 0.304774 0.827389 -0.471741 146.894344
DOCKED: USER    NEWDPF dihe0 169.12 -49.62 -139.02 29.49 -20.28 54.95 
DOCKED: USER  keepresnum = 1 
DOCKED: USER  
DOCKED: REMARK  6 active torsions:
DOCKED: REMARK  status: ('A' for Active; 'I' for Inactive)
DOCKED: REMARK    1  A    between atoms: P_1  and  O_3 
DOCKED: REMARK    2  A    between atoms: P_2  and  O_4 
DOCKED: REMARK    3  A    between atoms: O_3  and  C_13 
DOCKED: REMARK    4  A    between atoms: O_4  and  C_14 
DOCKED: REMARK    5  A    between atoms: C_13  and  C_14 
DOCKED: REMARK    6  A    between atoms: C_13  and  C_15 
DOCKED: USER                              x       y       z     vdW  Elec       q    Type
DOCKED: USER                           _______ _______ _______ _____ _____    ______ ____
DOCKED: ROOT
DOCKED: ATOM      1  C   UNL d   1      46.048  23.633  19.405 -0.08 +0.09    +0.193 C 
DOCKED: ENDROOT
DOCKED: BRANCH   1   2
DOCKED: ATOM      2  O   UNL d   1      47.373  23.565  18.779 -0.02 -0.21    -0.356 OA
DOCKED: BRANCH   2   3
DOCKED: ATOM      3  P   UNL d   1      47.666  22.765  17.373 -0.09 -0.02    -0.014 P 
DOCKED: ATOM      4  O   UNL d   1      48.342  23.810  16.471 -0.50 -0.88    -0.577 OA
DOCKED: ATOM      5  O   UNL d   1      46.316  22.328  16.810 -0.04 -0.48    -0.577 OA
DOCKED: ATOM      6  O   UNL d   1      48.603  21.601  17.680 -0.17 -0.94    -0.638 OA
DOCKED: ENDBRANCH   2   3
DOCKED: ENDBRANCH   1   2
DOCKED: BRANCH   1   7
DOCKED: ATOM      7  C   UNL d   1      45.549  25.125  19.373 -0.08 +0.10    +0.201 C 
DOCKED: BRANCH   7   8
DOCKED: ATOM      8  O   UNL d   1      44.757  25.549  20.505 -0.08 -0.27    -0.364 OA
DOCKED: BRANCH   8   9
DOCKED: ATOM      9  P   UNL d   1      44.537  27.161  20.805 -0.21 -0.02    -0.015 P 
DOCKED: ATOM     10  O   UNL d   1      44.254  27.787  19.434 -0.04 -0.38    -0.577 OA
DOCKED: ATOM     11  O   UNL d   1      45.839  27.683  21.413 -0.21 -1.21    -0.577 OA
DOCKED: ATOM     12  O   UNL d   1      43.343  27.285  21.750 -0.52 -1.31    -0.638 OA
DOCKED: ENDBRANCH   8   9
DOCKED: ENDBRANCH   7   8
DOCKED: ENDBRANCH   1   7
DOCKED: BRANCH   1  13
DOCKED: ATOM     13  C   UNL d   1      46.135  23.163  20.905 -0.12 +0.03    +0.073 C 
DOCKED: ATOM     14  O   UNL d   1      45.219  22.390  21.359 -0.36 -0.25    -0.547 OA
DOCKED: ATOM     15  O   UNL d   1      47.166  23.535  21.573 +0.02 -0.25    -0.547 OA
DOCKED: ENDBRANCH   1  13
DOCKED: TORSDOF 6
DOCKED: TER
DOCKED: ENDMDL
________________________________________________________________________________


	BEGINNING GENETIC ALGORITHM DOCKING 19 of 100
Run: 19 Seed: 1807469047 1689869941 [ Run 19 of 100 GA/GALS ]
Beginning LAMARCKIAN GENETIC ALGORITHM (LGA), with a maximum of 25000000 energy evaluations.

Final-Value: -6.149


	FINAL GENETIC ALGORITHM DOCKED STATE
	_______________________________________________


Detailed state:  trans 45.057 24.932 18.580 quatxyzw 0.534915 -0.117639 -0.471620 -0.691087 center 0.015 0.083 0.031 ntor 6 175.9099 -162.4004 -104.5903 57.7163 -4.2398 34.6122
State:	 45.057  24.932  18.580   0.740 -0.163 -0.653 -92.568    175.91 -162.40 -104.59   57.72   -4.24   34.61

DOCKED: MODEL       19
DOCKED: USER    Run = 19
DOCKED: USER    DPF = D:/Protein_go_brrr/autodock/final/6BB5/2_3_BPG/dock.dpf
DOCKED: USER  
DOCKED: USER    Estimated Free Energy of Binding    =   -6.30 kcal/mol  [=(1)+(2)+(3)-(4)]
DOCKED: USER    Estimated Inhibition Constant, Ki   =   23.92 uM (micromolar)  [Temperature = 298.15 K]
DOCKED: USER    
DOCKED: USER    (1) Final Intermolecular Energy     =   -8.09 kcal/mol
DOCKED: USER        vdW + Hbond + desolv Energy     =   -2.66 kcal/mol
DOCKED: USER        Electrostatic Energy            =   -5.44 kcal/mol
DOCKED: USER    (2) Final Total Internal Energy     =   +1.95 kcal/mol
DOCKED: USER    (3) Torsional Free Energy           =   +1.79 kcal/mol
DOCKED: USER    (4) Unbound System's Energy  [=(2)] =   +1.95 kcal/mol
DOCKED: USER    
DOCKED: USER    
DOCKED: USER    NEWDPF move 2_3_BPG_opt.pdbqt
DOCKED: USER    NEWDPF about 0.015000 0.083000 0.031000
DOCKED: USER    NEWDPF tran0 45.057140 24.931832 18.579821
DOCKED: USER    NEWDPF quaternion0 0.534915 -0.117639 -0.471620 -0.691087
DOCKED: USER    NEWDPF axisangle0 0.740089 -0.162761 -0.652516 -92.567586
DOCKED: USER    NEWDPF quat0 0.740089 -0.162761 -0.652516 -92.567586
DOCKED: USER    NEWDPF dihe0 175.91 -162.40 -104.59 57.72 -4.24 34.61 
DOCKED: USER  keepresnum = 1 
DOCKED: USER  
DOCKED: REMARK  6 active torsions:
DOCKED: REMARK  status: ('A' for Active; 'I' for Inactive)
DOCKED: REMARK    1  A    between atoms: P_1  and  O_3 
DOCKED: REMARK    2  A    between atoms: P_2  and  O_4 
DOCKED: REMARK    3  A    between atoms: O_3  and  C_13 
DOCKED: REMARK    4  A    between atoms: O_4  and  C_14 
DOCKED: REMARK    5  A    between atoms: C_13  and  C_14 
DOCKED: REMARK    6  A    between atoms: C_13  and  C_15 
DOCKED: USER                              x       y       z     vdW  Elec       q    Type
DOCKED: USER                           _______ _______ _______ _____ _____    ______ ____
DOCKED: ROOT
DOCKED: ATOM      1  C   UNL d   1      44.522  25.334  18.552 -0.14 +0.08    +0.193 C 
DOCKED: ENDROOT
DOCKED: BRANCH   1   2
DOCKED: ATOM      2  O   UNL d   1      44.817  26.541  19.332 -0.07 -0.21    -0.356 OA
DOCKED: BRANCH   2   3
DOCKED: ATOM      3  P   UNL d   1      44.835  26.571  20.977 -0.08 -0.02    -0.014 P 
DOCKED: ATOM      4  O   UNL d   1      44.842  25.090  21.387 -0.02 -0.49    -0.577 OA
DOCKED: ATOM      5  O   UNL d   1      43.558  27.275  21.431 -0.53 -1.02    -0.577 OA
DOCKED: ATOM      6  O   UNL d   1      46.110  27.281  21.421 -0.37 -1.14    -0.638 OA
DOCKED: ENDBRANCH   2   3
DOCKED: ENDBRANCH   1   2
DOCKED: BRANCH   1   7
DOCKED: ATOM      7  C   UNL d   1      45.853  24.518  18.362 -0.09 +0.10    +0.201 C 
DOCKED: BRANCH   7   8
DOCKED: ATOM      8  O   UNL d   1      45.817  23.476  17.362 -0.07 -0.20    -0.364 OA
DOCKED: BRANCH   8   9
DOCKED: ATOM      9  P   UNL d   1      47.168  22.572  17.056 -0.19 -0.02    -0.015 P 
DOCKED: ATOM     10  O   UNL d   1      47.245  21.566  18.211 -0.01 -0.44    -0.577 OA
DOCKED: ATOM     11  O   UNL d   1      48.357  23.533  17.057 -0.64 -0.79    -0.577 OA
DOCKED: ATOM     12  O   UNL d   1      46.955  21.885  15.708 -0.06 -1.01    -0.638 OA
DOCKED: ENDBRANCH   8   9
DOCKED: ENDBRANCH   7   8
DOCKED: ENDBRANCH   1   7
DOCKED: BRANCH   1  13
DOCKED: ATOM     13  C   UNL d   1      43.967  25.731  17.133 -0.27 +0.02    +0.073 C 
DOCKED: ATOM     14  O   UNL d   1      42.891  25.174  16.720 -0.04 -0.14    -0.547 OA
DOCKED: ATOM     15  O   UNL d   1      44.601  26.648  16.495 -0.05 -0.17    -0.547 OA
DOCKED: ENDBRANCH   1  13
DOCKED: TORSDOF 6
DOCKED: TER
DOCKED: ENDMDL
________________________________________________________________________________


	BEGINNING GENETIC ALGORITHM DOCKING 20 of 100
Run: 20 Seed: 510683852 1927221036 [ Run 20 of 100 GA/GALS ]
Beginning LAMARCKIAN GENETIC ALGORITHM (LGA), with a maximum of 25000000 energy evaluations.

Final-Value: -6.694


	FINAL GENETIC ALGORITHM DOCKED STATE
	_______________________________________________


Detailed state:  trans 45.307 24.525 18.981 quatxyzw 0.376390 0.232711 -0.254989 -0.859743 center 0.015 0.083 0.031 ntor 6 -158.5421 163.0878 173.0618 47.1712 -54.3742 -19.3750
State:	 45.307  24.525  18.981   0.737  0.456 -0.499 -61.425   -158.54  163.09  173.06   47.17  -54.37  -19.38

DOCKED: MODEL       20
DOCKED: USER    Run = 20
DOCKED: USER    DPF = D:/Protein_go_brrr/autodock/final/6BB5/2_3_BPG/dock.dpf
DOCKED: USER  
DOCKED: USER    Estimated Free Energy of Binding    =   -6.86 kcal/mol  [=(1)+(2)+(3)-(4)]
DOCKED: USER    Estimated Inhibition Constant, Ki   =    9.35 uM (micromolar)  [Temperature = 298.15 K]
DOCKED: USER    
DOCKED: USER    (1) Final Intermolecular Energy     =   -8.65 kcal/mol
DOCKED: USER        vdW + Hbond + desolv Energy     =   -3.05 kcal/mol
DOCKED: USER        Electrostatic Energy            =   -5.60 kcal/mol
DOCKED: USER    (2) Final Total Internal Energy     =   +1.96 kcal/mol
DOCKED: USER    (3) Torsional Free Energy           =   +1.79 kcal/mol
DOCKED: USER    (4) Unbound System's Energy  [=(2)] =   +1.96 kcal/mol
DOCKED: USER    
DOCKED: USER    
DOCKED: USER    NEWDPF move 2_3_BPG_opt.pdbqt
DOCKED: USER    NEWDPF about 0.015000 0.083000 0.031000
DOCKED: USER    NEWDPF tran0 45.306948 24.525031 18.980647
DOCKED: USER    NEWDPF quaternion0 0.376390 0.232711 -0.254989 -0.859743
DOCKED: USER    NEWDPF axisangle0 0.736968 0.455645 -0.499265 -61.424622
DOCKED: USER    NEWDPF quat0 0.736968 0.455645 -0.499265 -61.424622
DOCKED: USER    NEWDPF dihe0 -158.54 163.09 173.06 47.17 -54.37 -19.38 
DOCKED: USER  keepresnum = 1 
DOCKED: USER  
DOCKED: REMARK  6 active torsions:
DOCKED: REMARK  status: ('A' for Active; 'I' for Inactive)
DOCKED: REMARK    1  A    between atoms: P_1  and  O_3 
DOCKED: REMARK    2  A    between atoms: P_2  and  O_4 
DOCKED: REMARK    3  A    between atoms: O_3  and  C_13 
DOCKED: REMARK    4  A    between atoms: O_4  and  C_14 
DOCKED: REMARK    5  A    between atoms: C_13  and  C_14 
DOCKED: REMARK    6  A    between atoms: C_13  and  C_15 
DOCKED: USER                              x       y       z     vdW  Elec       q    Type
DOCKED: USER                           _______ _______ _______ _____ _____    ______ ____
DOCKED: ROOT
DOCKED: ATOM      1  C   UNL d   1      44.689  24.425  19.219 -0.15 +0.09    +0.193 C 
DOCKED: ENDROOT
DOCKED: BRANCH   1   2
DOCKED: ATOM      2  O   UNL d   1      44.245  25.662  19.872 -0.10 -0.21    -0.356 OA
DOCKED: BRANCH   2   3
DOCKED: ATOM      3  P   UNL d   1      44.600  26.037  21.433 -0.24 -0.02    -0.014 P 
DOCKED: ATOM      4  O   UNL d   1      44.939  24.687  22.084 -0.02 -0.48    -0.577 OA
DOCKED: ATOM      5  O   UNL d   1      43.347  26.658  22.046 -0.77 -1.07    -0.577 OA
DOCKED: ATOM      6  O   UNL d   1      45.804  26.975  21.429 -0.25 -1.13    -0.638 OA
DOCKED: ENDBRANCH   2   3
DOCKED: ENDBRANCH   1   2
DOCKED: BRANCH   1   7
DOCKED: ATOM      7  C   UNL d   1      46.002  24.726  18.407 -0.08 +0.10    +0.201 C 
DOCKED: BRANCH   7   8
DOCKED: ATOM      8  O   UNL d   1      47.023  23.705  18.458 -0.03 -0.22    -0.364 OA
DOCKED: BRANCH   8   9
DOCKED: ATOM      9  P   UNL d   1      47.687  23.125  17.059 -0.12 -0.02    -0.015 P 
DOCKED: ATOM     10  O   UNL d   1      46.900  23.805  15.932 -0.16 -0.55    -0.577 OA
DOCKED: ATOM     11  O   UNL d   1      47.486  21.610  17.063 -0.13 -0.81    -0.577 OA
DOCKED: ATOM     12  O   UNL d   1      49.160  23.533  17.056 -0.55 -1.01    -0.638 OA
DOCKED: ENDBRANCH   8   9
DOCKED: ENDBRANCH   7   8
DOCKED: ENDBRANCH   1   7
DOCKED: BRANCH   1  13
DOCKED: ATOM     13  C   UNL d   1      43.584  23.915  18.221 -0.30 +0.02    +0.073 C 
DOCKED: ATOM     14  O   UNL d   1      42.869  22.908  18.562 -0.14 -0.14    -0.547 OA
DOCKED: ATOM     15  O   UNL d   1      43.422  24.587  17.138 -0.02 -0.16    -0.547 OA
DOCKED: ENDBRANCH   1  13
DOCKED: TORSDOF 6
DOCKED: TER
DOCKED: ENDMDL
________________________________________________________________________________


	BEGINNING GENETIC ALGORITHM DOCKING 21 of 100
Run: 21 Seed: 1874973239 956079106 [ Run 21 of 100 GA/GALS ]
Beginning LAMARCKIAN GENETIC ALGORITHM (LGA), with a maximum of 25000000 energy evaluations.

Final-Value: -6.677


	FINAL GENETIC ALGORITHM DOCKED STATE
	_______________________________________________


Detailed state:  trans 2.487 43.248 -0.992 quatxyzw -0.770490 -0.404442 0.235370 -0.432865 center 0.015 0.083 0.031 ntor 6 79.4731 -134.6439 170.0181 -160.1142 -95.1755 -89.6131
State:	  2.487  43.248  -0.992  -0.855 -0.449  0.261 -128.701     79.47 -134.64  170.02 -160.11  -95.18  -89.61

DOCKED: MODEL       21
DOCKED: USER    Run = 21
DOCKED: USER    DPF = D:/Protein_go_brrr/autodock/final/6BB5/2_3_BPG/dock.dpf
DOCKED: USER  
DOCKED: USER    Estimated Free Energy of Binding    =   -7.38 kcal/mol  [=(1)+(2)+(3)-(4)]
DOCKED: USER    Estimated Inhibition Constant, Ki   =    3.92 uM (micromolar)  [Temperature = 298.15 K]
DOCKED: USER    
DOCKED: USER    (1) Final Intermolecular Energy     =   -9.17 kcal/mol
DOCKED: USER        vdW + Hbond + desolv Energy     =   -3.33 kcal/mol
DOCKED: USER        Electrostatic Energy            =   -5.84 kcal/mol
DOCKED: USER    (2) Final Total Internal Energy     =   +2.49 kcal/mol
DOCKED: USER    (3) Torsional Free Energy           =   +1.79 kcal/mol
DOCKED: USER    (4) Unbound System's Energy  [=(2)] =   +2.49 kcal/mol
DOCKED: USER    
DOCKED: USER    
DOCKED: USER    NEWDPF move 2_3_BPG_opt.pdbqt
DOCKED: USER    NEWDPF about 0.015000 0.083000 0.031000
DOCKED: USER    NEWDPF tran0 2.486560 43.248421 -0.992204
DOCKED: USER    NEWDPF quaternion0 -0.770490 -0.404442 0.235370 -0.432865
DOCKED: USER    NEWDPF axisangle0 -0.854715 -0.448653 0.261099 -128.700930
DOCKED: USER    NEWDPF quat0 -0.854715 -0.448653 0.261099 -128.700930
DOCKED: USER    NEWDPF dihe0 79.47 -134.64 170.02 -160.11 -95.18 -89.61 
DOCKED: USER  keepresnum = 1 
DOCKED: USER  
DOCKED: REMARK  6 active torsions:
DOCKED: REMARK  status: ('A' for Active; 'I' for Inactive)
DOCKED: REMARK    1  A    between atoms: P_1  and  O_3 
DOCKED: REMARK    2  A    between atoms: P_2  and  O_4 
DOCKED: REMARK    3  A    between atoms: O_3  and  C_13 
DOCKED: REMARK    4  A    between atoms: O_4  and  C_14 
DOCKED: REMARK    5  A    between atoms: C_13  and  C_14 
DOCKED: REMARK    6  A    between atoms: C_13  and  C_15 
DOCKED: USER                              x       y       z     vdW  Elec       q    Type
DOCKED: USER                           _______ _______ _______ _____ _____    ______ ____
DOCKED: ROOT
DOCKED: ATOM      1  C   UNL d   1       1.960  42.901  -0.765 -0.14 +0.15    +0.193 C 
DOCKED: ENDROOT
DOCKED: BRANCH   1   2
DOCKED: ATOM      2  O   UNL d   1       2.163  41.488  -1.105 -0.08 -0.39    -0.356 OA
DOCKED: BRANCH   2   3
DOCKED: ATOM      3  P   UNL d   1       3.342  40.559  -0.435 -0.29 -0.02    -0.014 P 
DOCKED: ATOM      4  O   UNL d   1       3.343  40.953   1.050 -0.52 -1.07    -0.577 OA
DOCKED: ATOM      5  O   UNL d   1       4.656  40.934  -1.117 -0.05 -0.29    -0.577 OA
DOCKED: ATOM      6  O   UNL d   1       2.955  39.096  -0.626 -0.40 -1.09    -0.638 OA
DOCKED: ENDBRANCH   2   3
DOCKED: ENDBRANCH   1   2
DOCKED: BRANCH   1   7
DOCKED: ATOM      7  C   UNL d   1       3.301  43.681  -1.025 -0.26 +0.12    +0.201 C 
DOCKED: BRANCH   7   8
DOCKED: ATOM      8  O   UNL d   1       3.681  43.839  -2.410 -0.15 -0.20    -0.364 OA
DOCKED: BRANCH   8   9
DOCKED: ATOM      9  P   UNL d   1       3.129  45.134  -3.279 -0.31 -0.01    -0.015 P 
DOCKED: ATOM     10  O   UNL d   1       2.106  45.820  -2.365 +0.02 -0.56    -0.577 OA
DOCKED: ATOM     11  O   UNL d   1       2.480  44.577  -4.545 -0.00 -0.31    -0.577 OA
DOCKED: ATOM     12  O   UNL d   1       4.332  46.030  -3.567 -0.54 -1.02    -0.638 OA
DOCKED: ENDBRANCH   8   9
DOCKED: ENDBRANCH   7   8
DOCKED: ENDBRANCH   1   7
DOCKED: BRANCH   1  13
DOCKED: ATOM     13  C   UNL d   1       1.582  43.041   0.757 -0.26 +0.07    +0.073 C 
DOCKED: ATOM     14  O   UNL d   1       2.185  43.928   1.457 -0.09 -0.37    -0.547 OA
DOCKED: ATOM     15  O   UNL d   1       0.636  42.291   1.193 -0.25 -0.85    -0.547 OA
DOCKED: ENDBRANCH   1  13
DOCKED: TORSDOF 6
DOCKED: TER
DOCKED: ENDMDL
________________________________________________________________________________


	BEGINNING GENETIC ALGORITHM DOCKING 22 of 100
Run: 22 Seed: 1810839812 1664349201 [ Run 22 of 100 GA/GALS ]
Beginning LAMARCKIAN GENETIC ALGORITHM (LGA), with a maximum of 25000000 energy evaluations.

Final-Value: -6.631


	FINAL GENETIC ALGORITHM DOCKED STATE
	_______________________________________________


Detailed state:  trans 46.050 24.332 19.244 quatxyzw 0.512018 0.746430 -0.181256 0.384481 center 0.015 0.083 0.031 ntor 6 160.5860 -38.1385 -26.6701 51.6730 29.9485 46.2101
State:	 46.050  24.332  19.244   0.555  0.809 -0.196 134.777    160.59  -38.14  -26.67   51.67   29.95   46.21

DOCKED: MODEL       22
DOCKED: USER    Run = 22
DOCKED: USER    DPF = D:/Protein_go_brrr/autodock/final/6BB5/2_3_BPG/dock.dpf
DOCKED: USER  
DOCKED: USER    Estimated Free Energy of Binding    =   -6.82 kcal/mol  [=(1)+(2)+(3)-(4)]
DOCKED: USER    Estimated Inhibition Constant, Ki   =   10.08 uM (micromolar)  [Temperature = 298.15 K]
DOCKED: USER    
DOCKED: USER    (1) Final Intermolecular Energy     =   -8.61 kcal/mol
DOCKED: USER        vdW + Hbond + desolv Energy     =   -2.73 kcal/mol
DOCKED: USER        Electrostatic Energy            =   -5.88 kcal/mol
DOCKED: USER    (2) Final Total Internal Energy     =   +1.98 kcal/mol
DOCKED: USER    (3) Torsional Free Energy           =   +1.79 kcal/mol
DOCKED: USER    (4) Unbound System's Energy  [=(2)] =   +1.98 kcal/mol
DOCKED: USER    
DOCKED: USER    
DOCKED: USER    NEWDPF move 2_3_BPG_opt.pdbqt
DOCKED: USER    NEWDPF about 0.015000 0.083000 0.031000
DOCKED: USER    NEWDPF tran0 46.049780 24.331692 19.244485
DOCKED: USER    NEWDPF quaternion0 0.512018 0.746430 -0.181256 0.384481
DOCKED: USER    NEWDPF axisangle0 0.554653 0.808583 -0.196349 134.776894
DOCKED: USER    NEWDPF quat0 0.554653 0.808583 -0.196349 134.776894
DOCKED: USER    NEWDPF dihe0 160.59 -38.14 -26.67 51.67 29.95 46.21 
DOCKED: USER  keepresnum = 1 
DOCKED: USER  
DOCKED: REMARK  6 active torsions:
DOCKED: REMARK  status: ('A' for Active; 'I' for Inactive)
DOCKED: REMARK    1  A    between atoms: P_1  and  O_3 
DOCKED: REMARK    2  A    between atoms: P_2  and  O_4 
DOCKED: REMARK    3  A    between atoms: O_3  and  C_13 
DOCKED: REMARK    4  A    between atoms: O_4  and  C_14 
DOCKED: REMARK    5  A    between atoms: C_13  and  C_14 
DOCKED: REMARK    6  A    between atoms: C_13  and  C_15 
DOCKED: USER                              x       y       z     vdW  Elec       q    Type
DOCKED: USER                           _______ _______ _______ _____ _____    ______ ____
DOCKED: ROOT
DOCKED: ATOM      1  C   UNL d   1      45.890  23.686  19.165 -0.09 +0.09    +0.193 C 
DOCKED: ENDROOT
DOCKED: BRANCH   1   2
DOCKED: ATOM      2  O   UNL d   1      47.066  22.985  18.638 -0.03 -0.22    -0.356 OA
DOCKED: BRANCH   2   3
DOCKED: ATOM      3  P   UNL d   1      47.491  23.003  17.049 -0.13 -0.02    -0.014 P 
DOCKED: ATOM      4  O   UNL d   1      49.017  23.184  17.063 -0.43 -1.10    -0.577 OA
DOCKED: ATOM      5  O   UNL d   1      46.789  24.198  16.407 -0.11 -0.44    -0.577 OA
DOCKED: ATOM      6  O   UNL d   1      47.091  21.663  16.439 -0.09 -0.91    -0.638 OA
DOCKED: ENDBRANCH   2   3
DOCKED: ENDBRANCH   1   2
DOCKED: BRANCH   1   7
DOCKED: ATOM      7  C   UNL d   1      46.325  25.124  19.630 -0.05 +0.11    +0.201 C 
DOCKED: BRANCH   7   8
DOCKED: ATOM      8  O   UNL d   1      45.510  25.728  20.658 -0.06 -0.30    -0.364 OA
DOCKED: BRANCH   8   9
DOCKED: ATOM      9  P   UNL d   1      45.283  27.366  20.682 -0.11 -0.02    -0.015 P 
DOCKED: ATOM     10  O   UNL d   1      43.961  27.575  21.429 -0.30 -1.14    -0.577 OA
DOCKED: ATOM     11  O   UNL d   1      45.195  27.825  19.226 -0.01 -0.36    -0.577 OA
DOCKED: ATOM     12  O   UNL d   1      46.468  27.975  21.430 -0.56 -1.09    -0.638 OA
DOCKED: ENDBRANCH   8   9
DOCKED: ENDBRANCH   7   8
DOCKED: ENDBRANCH   1   7
DOCKED: BRANCH   1  13
DOCKED: ATOM     13  C   UNL d   1      45.309  22.909  20.405 -0.14 +0.03    +0.073 C 
DOCKED: ATOM     14  O   UNL d   1      44.042  22.911  20.589 -0.51 -0.31    -0.547 OA
DOCKED: ATOM     15  O   UNL d   1      46.147  22.260  21.130 -0.11 -0.22    -0.547 OA
DOCKED: ENDBRANCH   1  13
DOCKED: TORSDOF 6
DOCKED: TER
DOCKED: ENDMDL
________________________________________________________________________________


	BEGINNING GENETIC ALGORITHM DOCKING 23 of 100
Run: 23 Seed: 1941087574 656336697 [ Run 23 of 100 GA/GALS ]
Beginning LAMARCKIAN GENETIC ALGORITHM (LGA), with a maximum of 25000000 energy evaluations.

Final-Value: -6.650


	FINAL GENETIC ALGORITHM DOCKED STATE
	_______________________________________________


Detailed state:  trans 3.183 42.385 -0.819 quatxyzw 0.720891 0.400995 -0.454987 0.335420 center 0.015 0.083 0.031 ntor 6 102.4211 -72.6492 -63.9591 38.2069 38.4918 -7.5201
State:	  3.183  42.385  -0.819   0.765  0.426 -0.483 140.804    102.42  -72.65  -63.96   38.21   38.49   -7.52

DOCKED: MODEL       23
DOCKED: USER    Run = 23
DOCKED: USER    DPF = D:/Protein_go_brrr/autodock/final/6BB5/2_3_BPG/dock.dpf
DOCKED: USER  
DOCKED: USER    Estimated Free Energy of Binding    =   -6.97 kcal/mol  [=(1)+(2)+(3)-(4)]
DOCKED: USER    Estimated Inhibition Constant, Ki   =    7.83 uM (micromolar)  [Temperature = 298.15 K]
DOCKED: USER    
DOCKED: USER    (1) Final Intermolecular Energy     =   -8.76 kcal/mol
DOCKED: USER        vdW + Hbond + desolv Energy     =   -3.57 kcal/mol
DOCKED: USER        Electrostatic Energy            =   -5.19 kcal/mol
DOCKED: USER    (2) Final Total Internal Energy     =   +2.11 kcal/mol
DOCKED: USER    (3) Torsional Free Energy           =   +1.79 kcal/mol
DOCKED: USER    (4) Unbound System's Energy  [=(2)] =   +2.11 kcal/mol
DOCKED: USER    
DOCKED: USER    
DOCKED: USER    NEWDPF move 2_3_BPG_opt.pdbqt
DOCKED: USER    NEWDPF about 0.015000 0.083000 0.031000
DOCKED: USER    NEWDPF tran0 3.182646 42.385118 -0.818904
DOCKED: USER    NEWDPF quaternion0 0.720891 0.400995 -0.454987 0.335420
DOCKED: USER    NEWDPF axisangle0 0.765221 0.425653 -0.482965 140.803872
DOCKED: USER    NEWDPF quat0 0.765221 0.425653 -0.482965 140.803872
DOCKED: USER    NEWDPF dihe0 102.42 -72.65 -63.96 38.21 38.49 -7.52 
DOCKED: USER  keepresnum = 1 
DOCKED: USER  
DOCKED: REMARK  6 active torsions:
DOCKED: REMARK  status: ('A' for Active; 'I' for Inactive)
DOCKED: REMARK    1  A    between atoms: P_1  and  O_3 
DOCKED: REMARK    2  A    between atoms: P_2  and  O_4 
DOCKED: REMARK    3  A    between atoms: O_3  and  C_13 
DOCKED: REMARK    4  A    between atoms: O_4  and  C_14 
DOCKED: REMARK    5  A    between atoms: C_13  and  C_14 
DOCKED: REMARK    6  A    between atoms: C_13  and  C_15 
DOCKED: USER                              x       y       z     vdW  Elec       q    Type
DOCKED: USER                           _______ _______ _______ _____ _____    ______ ____
DOCKED: ROOT
DOCKED: ATOM      1  C   UNL d   1       2.857  42.020  -0.361 -0.25 +0.19    +0.193 C 
DOCKED: ENDROOT
DOCKED: BRANCH   1   2
DOCKED: ATOM      2  O   UNL d   1       3.392  40.654  -0.400 -0.34 -0.45    -0.356 OA
DOCKED: BRANCH   2   3
DOCKED: ATOM      3  P   UNL d   1       2.720  39.446  -1.291 -0.07 -0.02    -0.014 P 
DOCKED: ATOM      4  O   UNL d   1       3.645  39.310  -2.510 -0.01 -0.27    -0.577 OA
DOCKED: ATOM      5  O   UNL d   1       1.321  39.907  -1.696 -0.27 -0.71    -0.577 OA
DOCKED: ATOM      6  O   UNL d   1       2.720  38.179  -0.443 -0.54 -1.01    -0.638 OA
DOCKED: ENDBRANCH   2   3
DOCKED: ENDBRANCH   1   2
DOCKED: BRANCH   1   7
DOCKED: ATOM      7  C   UNL d   1       3.795  42.954  -1.210 -0.05 +0.11    +0.201 C 
DOCKED: BRANCH   7   8
DOCKED: ATOM      8  O   UNL d   1       3.164  44.108  -1.806 -0.16 -0.23    -0.364 OA
DOCKED: BRANCH   8   9
DOCKED: ATOM      9  P   UNL d   1       3.542  44.555  -3.354 -0.38 -0.01    -0.015 P 
DOCKED: ATOM     10  O   UNL d   1       2.227  44.440  -4.135 +0.01 -0.30    -0.577 OA
DOCKED: ATOM     11  O   UNL d   1       4.593  43.566  -3.858 -0.08 -0.26    -0.577 OA
DOCKED: ATOM     12  O   UNL d   1       4.053  45.994  -3.297 -0.25 -1.04    -0.638 OA
DOCKED: ENDBRANCH   8   9
DOCKED: ENDBRANCH   7   8
DOCKED: ENDBRANCH   1   7
DOCKED: BRANCH   1  13
DOCKED: ATOM     13  C   UNL d   1       2.829  42.547   1.122 -0.47 +0.08    +0.073 C 
DOCKED: ATOM     14  O   UNL d   1       2.846  43.812   1.322 -0.14 -0.36    -0.547 OA
DOCKED: ATOM     15  O   UNL d   1       2.725  41.667   2.051 -0.55 -0.92    -0.547 OA
DOCKED: ENDBRANCH   1  13
DOCKED: TORSDOF 6
DOCKED: TER
DOCKED: ENDMDL
________________________________________________________________________________


	BEGINNING GENETIC ALGORITHM DOCKING 24 of 100
Run: 24 Seed: 189421108 614784448 [ Run 24 of 100 GA/GALS ]
Beginning LAMARCKIAN GENETIC ALGORITHM (LGA), with a maximum of 25000000 energy evaluations.

Final-Value: -6.206


	FINAL GENETIC ALGORITHM DOCKED STATE
	_______________________________________________


Detailed state:  trans 3.172 43.142 -1.961 quatxyzw -0.481759 0.563212 -0.541721 -0.396533 center 0.015 0.083 0.031 ntor 6 156.4546 -1.5005 -91.1280 42.1419 -17.3719 6.0484
State:	  3.172  43.142  -1.961  -0.525  0.614 -0.590 -133.277    156.45   -1.50  -91.13   42.14  -17.37    6.05

DOCKED: MODEL       24
DOCKED: USER    Run = 24
DOCKED: USER    DPF = D:/Protein_go_brrr/autodock/final/6BB5/2_3_BPG/dock.dpf
DOCKED: USER  
DOCKED: USER    Estimated Free Energy of Binding    =   -6.34 kcal/mol  [=(1)+(2)+(3)-(4)]
DOCKED: USER    Estimated Inhibition Constant, Ki   =   22.54 uM (micromolar)  [Temperature = 298.15 K]
DOCKED: USER    
DOCKED: USER    (1) Final Intermolecular Energy     =   -8.13 kcal/mol
DOCKED: USER        vdW + Hbond + desolv Energy     =   -2.99 kcal/mol
DOCKED: USER        Electrostatic Energy            =   -5.14 kcal/mol
DOCKED: USER    (2) Final Total Internal Energy     =   +1.92 kcal/mol
DOCKED: USER    (3) Torsional Free Energy           =   +1.79 kcal/mol
DOCKED: USER    (4) Unbound System's Energy  [=(2)] =   +1.92 kcal/mol
DOCKED: USER    
DOCKED: USER    
DOCKED: USER    NEWDPF move 2_3_BPG_opt.pdbqt
DOCKED: USER    NEWDPF about 0.015000 0.083000 0.031000
DOCKED: USER    NEWDPF tran0 3.172275 43.141818 -1.961059
DOCKED: USER    NEWDPF quaternion0 -0.481759 0.563212 -0.541721 -0.396533
DOCKED: USER    NEWDPF axisangle0 -0.524780 0.613508 -0.590097 -133.276781
DOCKED: USER    NEWDPF quat0 -0.524780 0.613508 -0.590097 -133.276781
DOCKED: USER    NEWDPF dihe0 156.45 -1.50 -91.13 42.14 -17.37 6.05 
DOCKED: USER  keepresnum = 1 
DOCKED: USER  
DOCKED: REMARK  6 active torsions:
DOCKED: REMARK  status: ('A' for Active; 'I' for Inactive)
DOCKED: REMARK    1  A    between atoms: P_1  and  O_3 
DOCKED: REMARK    2  A    between atoms: P_2  and  O_4 
DOCKED: REMARK    3  A    between atoms: O_3  and  C_13 
DOCKED: REMARK    4  A    between atoms: O_4  and  C_14 
DOCKED: REMARK    5  A    between atoms: C_13  and  C_14 
DOCKED: REMARK    6  A    between atoms: C_13  and  C_15 
DOCKED: USER                              x       y       z     vdW  Elec       q    Type
DOCKED: USER                           _______ _______ _______ _____ _____    ______ ____
DOCKED: ROOT
DOCKED: ATOM      1  C   UNL d   1       3.427  43.706  -1.705 -0.19 +0.11    +0.193 C 
DOCKED: ENDROOT
DOCKED: BRANCH   1   2
DOCKED: ATOM      2  O   UNL d   1       2.947  44.833  -2.512 -0.16 -0.27    -0.356 OA
DOCKED: BRANCH   2   3
DOCKED: ATOM      3  P   UNL d   1       3.749  45.408  -3.828 -0.39 -0.01    -0.014 P 
DOCKED: ATOM      4  O   UNL d   1       2.808  46.472  -4.415 -0.13 -0.81    -0.577 OA
DOCKED: ATOM      5  O   UNL d   1       3.941  44.236  -4.788 -0.09 -0.31    -0.577 OA
DOCKED: ATOM      6  O   UNL d   1       5.060  46.023  -3.349 -0.45 -0.84    -0.638 OA
DOCKED: ENDBRANCH   2   3
DOCKED: ENDBRANCH   1   2
DOCKED: BRANCH   1   7
DOCKED: ATOM      7  C   UNL d   1       2.618  42.418  -2.103 -0.11 +0.12    +0.201 C 
DOCKED: BRANCH   7   8
DOCKED: ATOM      8  O   UNL d   1       3.169  41.161  -1.651 -0.10 -0.26    -0.364 OA
DOCKED: BRANCH   8   9
DOCKED: ATOM      9  P   UNL d   1       2.249  39.788  -1.694 -0.18 -0.02    -0.015 P 
DOCKED: ATOM     10  O   UNL d   1       2.530  39.161  -3.064 +0.02 -0.27    -0.577 OA
DOCKED: ATOM     11  O   UNL d   1       0.790  40.224  -1.554 -0.10 -0.76    -0.577 OA
DOCKED: ATOM     12  O   UNL d   1       2.718  38.894  -0.546 -0.46 -1.21    -0.638 OA
DOCKED: ENDBRANCH   8   9
DOCKED: ENDBRANCH   7   8
DOCKED: ENDBRANCH   1   7
DOCKED: BRANCH   1  13
DOCKED: ATOM     13  C   UNL d   1       3.190  43.998  -0.176 -0.39 +0.05    +0.073 C 
DOCKED: ATOM     14  O   UNL d   1       4.001  43.491   0.676 -0.20 -0.30    -0.547 OA
DOCKED: ATOM     15  O   UNL d   1       2.223  44.788   0.123 -0.06 -0.35    -0.547 OA
DOCKED: ENDBRANCH   1  13
DOCKED: TORSDOF 6
DOCKED: TER
DOCKED: ENDMDL
________________________________________________________________________________


	BEGINNING GENETIC ALGORITHM DOCKING 25 of 100
Run: 25 Seed: 1026646183 1163759326 [ Run 25 of 100 GA/GALS ]
Beginning LAMARCKIAN GENETIC ALGORITHM (LGA), with a maximum of 25000000 energy evaluations.

Final-Value: -6.278


	FINAL GENETIC ALGORITHM DOCKED STATE
	_______________________________________________


Detailed state:  trans 46.623 25.545 19.823 quatxyzw -0.918557 0.207946 0.336133 0.005105 center 0.015 0.083 0.031 ntor 6 134.1861 9.6443 154.4307 5.9673 2.8328 -0.8945
State:	 46.623  25.545  19.823  -0.919  0.208  0.336 179.415    134.19    9.64  154.43    5.97    2.83   -0.89

DOCKED: MODEL       25
DOCKED: USER    Run = 25
DOCKED: USER    DPF = D:/Protein_go_brrr/autodock/final/6BB5/2_3_BPG/dock.dpf
DOCKED: USER  
DOCKED: USER    Estimated Free Energy of Binding    =   -6.53 kcal/mol  [=(1)+(2)+(3)-(4)]
DOCKED: USER    Estimated Inhibition Constant, Ki   =   16.33 uM (micromolar)  [Temperature = 298.15 K]
DOCKED: USER    
DOCKED: USER    (1) Final Intermolecular Energy     =   -8.32 kcal/mol
DOCKED: USER        vdW + Hbond + desolv Energy     =   -2.77 kcal/mol
DOCKED: USER        Electrostatic Energy            =   -5.55 kcal/mol
DOCKED: USER    (2) Final Total Internal Energy     =   +2.04 kcal/mol
DOCKED: USER    (3) Torsional Free Energy           =   +1.79 kcal/mol
DOCKED: USER    (4) Unbound System's Energy  [=(2)] =   +2.04 kcal/mol
DOCKED: USER    
DOCKED: USER    
DOCKED: USER    NEWDPF move 2_3_BPG_opt.pdbqt
DOCKED: USER    NEWDPF about 0.015000 0.083000 0.031000
DOCKED: USER    NEWDPF tran0 46.623038 25.545086 19.823373
DOCKED: USER    NEWDPF quaternion0 -0.918557 0.207946 0.336133 0.005105
DOCKED: USER    NEWDPF axisangle0 -0.918569 0.207949 0.336137 179.415026
DOCKED: USER    NEWDPF quat0 -0.918569 0.207949 0.336137 179.415026
DOCKED: USER    NEWDPF dihe0 134.19 9.64 154.43 5.97 2.83 -0.89 
DOCKED: USER  keepresnum = 1 
DOCKED: USER  
DOCKED: REMARK  6 active torsions:
DOCKED: REMARK  status: ('A' for Active; 'I' for Inactive)
DOCKED: REMARK    1  A    between atoms: P_1  and  O_3 
DOCKED: REMARK    2  A    between atoms: P_2  and  O_4 
DOCKED: REMARK    3  A    between atoms: O_3  and  C_13 
DOCKED: REMARK    4  A    between atoms: O_4  and  C_14 
DOCKED: REMARK    5  A    between atoms: C_13  and  C_14 
DOCKED: REMARK    6  A    between atoms: C_13  and  C_15 
DOCKED: USER                              x       y       z     vdW  Elec       q    Type
DOCKED: USER                           _______ _______ _______ _____ _____    ______ ____
DOCKED: ROOT
DOCKED: ATOM      1  C   UNL d   1      46.281  26.068  20.065 -0.07 +0.13    +0.193 C 
DOCKED: ENDROOT
DOCKED: BRANCH   1   2
DOCKED: ATOM      2  O   UNL d   1      45.655  25.660  21.328 -0.08 -0.36    -0.356 OA
DOCKED: BRANCH   2   3
DOCKED: ATOM      3  P   UNL d   1      44.047  25.820  21.632 -0.25 -0.02    -0.014 P 
DOCKED: ATOM      4  O   UNL d   1      43.891  25.402  23.103 -0.22 -0.79    -0.577 OA
DOCKED: ATOM      5  O   UNL d   1      43.312  24.863  20.696 -0.05 -0.31    -0.577 OA
DOCKED: ATOM      6  O   UNL d   1      43.671  27.283  21.423 -0.47 -1.15    -0.638 OA
DOCKED: ENDBRANCH   2   3
DOCKED: ENDBRANCH   1   2
DOCKED: BRANCH   1   7
DOCKED: ATOM      7  C   UNL d   1      47.315  24.964  19.634 -0.02 +0.10    +0.201 C 
DOCKED: BRANCH   7   8
DOCKED: ATOM      8  O   UNL d   1      47.663  24.940  18.232 -0.03 -0.21    -0.364 OA
DOCKED: BRANCH   8   9
DOCKED: ATOM      9  P   UNL d   1      48.627  23.733  17.638 -0.15 -0.02    -0.015 P 
DOCKED: ATOM     10  O   UNL d   1      49.415  23.219  18.849 -0.01 -0.41    -0.577 OA
DOCKED: ATOM     11  O   UNL d   1      49.540  24.368  16.590 -0.29 -0.71    -0.577 OA
DOCKED: ATOM     12  O   UNL d   1      47.703  22.663  17.058 -0.43 -0.90    -0.638 OA
DOCKED: ENDBRANCH   8   9
DOCKED: ENDBRANCH   7   8
DOCKED: ENDBRANCH   1   7
DOCKED: BRANCH   1  13
DOCKED: ATOM     13  C   UNL d   1      47.048  27.429  20.258 -0.09 +0.05    +0.073 C 
DOCKED: ATOM     14  O   UNL d   1      47.525  28.014  19.223 +0.00 -0.26    -0.547 OA
DOCKED: ATOM     15  O   UNL d   1      47.093  27.909  21.448 -0.59 -0.70    -0.547 OA
DOCKED: ENDBRANCH   1  13
DOCKED: TORSDOF 6
DOCKED: TER
DOCKED: ENDMDL
________________________________________________________________________________


	BEGINNING GENETIC ALGORITHM DOCKING 26 of 100
Run: 26 Seed: 1537679584 1880103062 [ Run 26 of 100 GA/GALS ]
Beginning LAMARCKIAN GENETIC ALGORITHM (LGA), with a maximum of 25000000 energy evaluations.

Final-Value: -7.110


	FINAL GENETIC ALGORITHM DOCKED STATE
	_______________________________________________


Detailed state:  trans 45.622 24.841 19.447 quatxyzw -0.243336 0.431206 -0.241705 -0.834522 center 0.015 0.083 0.031 ntor 6 -138.2556 86.8034 -140.8076 3.7206 -8.8774 -19.8044
State:	 45.622  24.841  19.447  -0.442  0.783 -0.439 -66.868   -138.26   86.80 -140.81    3.72   -8.88  -19.80

DOCKED: MODEL       26
DOCKED: USER    Run = 26
DOCKED: USER    DPF = D:/Protein_go_brrr/autodock/final/6BB5/2_3_BPG/dock.dpf
DOCKED: USER  
DOCKED: USER    Estimated Free Energy of Binding    =   -7.31 kcal/mol  [=(1)+(2)+(3)-(4)]
DOCKED: USER    Estimated Inhibition Constant, Ki   =    4.35 uM (micromolar)  [Temperature = 298.15 K]
DOCKED: USER    
DOCKED: USER    (1) Final Intermolecular Energy     =   -9.10 kcal/mol
DOCKED: USER        vdW + Hbond + desolv Energy     =   -3.05 kcal/mol
DOCKED: USER        Electrostatic Energy            =   -6.06 kcal/mol
DOCKED: USER    (2) Final Total Internal Energy     =   +1.99 kcal/mol
DOCKED: USER    (3) Torsional Free Energy           =   +1.79 kcal/mol
DOCKED: USER    (4) Unbound System's Energy  [=(2)] =   +1.99 kcal/mol
DOCKED: USER    
DOCKED: USER    
DOCKED: USER    NEWDPF move 2_3_BPG_opt.pdbqt
DOCKED: USER    NEWDPF about 0.015000 0.083000 0.031000
DOCKED: USER    NEWDPF tran0 45.621934 24.840685 19.446582
DOCKED: USER    NEWDPF quaternion0 -0.243336 0.431206 -0.241705 -0.834522
DOCKED: USER    NEWDPF axisangle0 -0.441647 0.782625 -0.438687 -66.867744
DOCKED: USER    NEWDPF quat0 -0.441647 0.782625 -0.438687 -66.867744
DOCKED: USER    NEWDPF dihe0 -138.26 86.80 -140.81 3.72 -8.88 -19.80 
DOCKED: USER  keepresnum = 1 
DOCKED: USER  
DOCKED: REMARK  6 active torsions:
DOCKED: REMARK  status: ('A' for Active; 'I' for Inactive)
DOCKED: REMARK    1  A    between atoms: P_1  and  O_3 
DOCKED: REMARK    2  A    between atoms: P_2  and  O_4 
DOCKED: REMARK    3  A    between atoms: O_3  and  C_13 
DOCKED: REMARK    4  A    between atoms: O_4  and  C_14 
DOCKED: REMARK    5  A    between atoms: C_13  and  C_14 
DOCKED: REMARK    6  A    between atoms: C_13  and  C_15 
DOCKED: USER                              x       y       z     vdW  Elec       q    Type
DOCKED: USER                           _______ _______ _______ _____ _____    ______ ____
DOCKED: ROOT
DOCKED: ATOM      1  C   UNL d   1      45.340  24.980  20.039 -0.10 +0.11    +0.193 C 
DOCKED: ENDROOT
DOCKED: BRANCH   1   2
DOCKED: ATOM      2  O   UNL d   1      44.419  26.107  19.853 -0.10 -0.23    -0.356 OA
DOCKED: BRANCH   2   3
DOCKED: ATOM      3  P   UNL d   1      44.445  27.458  20.789 -0.11 -0.02    -0.014 P 
DOCKED: ATOM      4  O   UNL d   1      43.352  27.216  21.842 -0.54 -1.22    -0.577 OA
DOCKED: ATOM      5  O   UNL d   1      44.104  28.642  19.886 -0.11 -0.46    -0.577 OA
DOCKED: ATOM      6  O   UNL d   1      45.826  27.561  21.430 -0.20 -1.32    -0.638 OA
DOCKED: ENDBRANCH   2   3
DOCKED: ENDBRANCH   1   2
DOCKED: BRANCH   1   7
DOCKED: ATOM      7  C   UNL d   1      45.786  24.454  18.625 -0.08 +0.10    +0.201 C 
DOCKED: BRANCH   7   8
DOCKED: ATOM      8  O   UNL d   1      47.177  24.084  18.500 -0.02 -0.21    -0.364 OA
DOCKED: BRANCH   8   9
DOCKED: ATOM      9  P   UNL d   1      47.727  23.384  17.106 -0.19 -0.02    -0.015 P 
DOCKED: ATOM     10  O   UNL d   1      47.040  24.156  15.973 -0.16 -0.51    -0.577 OA
DOCKED: ATOM     11  O   UNL d   1      47.295  21.918  17.142 -0.14 -0.71    -0.577 OA
DOCKED: ATOM     12  O   UNL d   1      49.245  23.559  17.082 -0.51 -0.99    -0.638 OA
DOCKED: ENDBRANCH   8   9
DOCKED: ENDBRANCH   7   8
DOCKED: ENDBRANCH   1   7
DOCKED: BRANCH   1  13
DOCKED: ATOM     13  C   UNL d   1      44.615  23.812  20.806 -0.22 +0.04    +0.073 C 
DOCKED: ATOM     14  O   UNL d   1      44.578  23.851  22.085 -0.08 -0.33    -0.547 OA
DOCKED: ATOM     15  O   UNL d   1      44.042  22.912  20.090 -0.48 -0.29    -0.547 OA
DOCKED: ENDBRANCH   1  13
DOCKED: TORSDOF 6
DOCKED: TER
DOCKED: ENDMDL
________________________________________________________________________________


	BEGINNING GENETIC ALGORITHM DOCKING 27 of 100
Run: 27 Seed: 1187234715 801627045 [ Run 27 of 100 GA/GALS ]
Beginning LAMARCKIAN GENETIC ALGORITHM (LGA), with a maximum of 25000000 energy evaluations.

Final-Value: -6.911


	FINAL GENETIC ALGORITHM DOCKED STATE
	_______________________________________________


Detailed state:  trans 46.254 24.576 19.727 quatxyzw 0.423407 -0.434839 0.178417 0.774473 center 0.015 0.083 0.031 ntor 6 -166.3512 82.8072 -87.2354 -7.7735 -8.5831 -48.0222
State:	 46.254  24.576  19.727   0.669 -0.687  0.282 78.485   -166.35   82.81  -87.24   -7.77   -8.58  -48.02

DOCKED: MODEL       27
DOCKED: USER    Run = 27
DOCKED: USER    DPF = D:/Protein_go_brrr/autodock/final/6BB5/2_3_BPG/dock.dpf
DOCKED: USER  
DOCKED: USER    Estimated Free Energy of Binding    =   -7.09 kcal/mol  [=(1)+(2)+(3)-(4)]
DOCKED: USER    Estimated Inhibition Constant, Ki   =    6.39 uM (micromolar)  [Temperature = 298.15 K]
DOCKED: USER    
DOCKED: USER    (1) Final Intermolecular Energy     =   -8.88 kcal/mol
DOCKED: USER        vdW + Hbond + desolv Energy     =   -2.84 kcal/mol
DOCKED: USER        Electrostatic Energy            =   -6.04 kcal/mol
DOCKED: USER    (2) Final Total Internal Energy     =   +1.97 kcal/mol
DOCKED: USER    (3) Torsional Free Energy           =   +1.79 kcal/mol
DOCKED: USER    (4) Unbound System's Energy  [=(2)] =   +1.97 kcal/mol
DOCKED: USER    
DOCKED: USER    
DOCKED: USER    NEWDPF move 2_3_BPG_opt.pdbqt
DOCKED: USER    NEWDPF about 0.015000 0.083000 0.031000
DOCKED: USER    NEWDPF tran0 46.254258 24.576310 19.726794
DOCKED: USER    NEWDPF quaternion0 0.423407 -0.434839 0.178417 0.774473
DOCKED: USER    NEWDPF axisangle0 0.669305 -0.687376 0.282035 78.485383
DOCKED: USER    NEWDPF quat0 0.669305 -0.687376 0.282035 78.485383
DOCKED: USER    NEWDPF dihe0 -166.35 82.81 -87.24 -7.77 -8.58 -48.02 
DOCKED: USER  keepresnum = 1 
DOCKED: USER  
DOCKED: REMARK  6 active torsions:
DOCKED: REMARK  status: ('A' for Active; 'I' for Inactive)
DOCKED: REMARK    1  A    between atoms: P_1  and  O_3 
DOCKED: REMARK    2  A    between atoms: P_2  and  O_4 
DOCKED: REMARK    3  A    between atoms: O_3  and  C_13 
DOCKED: REMARK    4  A    between atoms: O_4  and  C_14 
DOCKED: REMARK    5  A    between atoms: C_13  and  C_14 
DOCKED: REMARK    6  A    between atoms: C_13  and  C_15 
DOCKED: USER                              x       y       z     vdW  Elec       q    Type
DOCKED: USER                           _______ _______ _______ _____ _____    ______ ____
DOCKED: ROOT
DOCKED: ATOM      1  C   UNL d   1      46.033  24.820  20.310 -0.06 +0.11    +0.193 C 
DOCKED: ENDROOT
DOCKED: BRANCH   1   2
DOCKED: ATOM      2  O   UNL d   1      44.843  25.636  20.043 -0.07 -0.23    -0.356 OA
DOCKED: BRANCH   2   3
DOCKED: ATOM      3  P   UNL d   1      44.535  27.061  20.804 -0.23 -0.02    -0.014 P 
DOCKED: ATOM      4  O   UNL d   1      43.492  26.705  21.875 -0.52 -1.06    -0.577 OA
DOCKED: ATOM      5  O   UNL d   1      43.964  28.018  19.760 -0.10 -0.44    -0.577 OA
DOCKED: ATOM      6  O   UNL d   1      45.836  27.551  21.432 -0.21 -1.32    -0.638 OA
DOCKED: ENDBRANCH   2   3
DOCKED: ENDBRANCH   1   2
DOCKED: BRANCH   1   7
DOCKED: ATOM      7  C   UNL d   1      46.392  24.010  19.011 -0.06 +0.10    +0.201 C 
DOCKED: BRANCH   7   8
DOCKED: ATOM      8  O   UNL d   1      47.614  24.398  18.344 -0.03 -0.22    -0.364 OA
DOCKED: BRANCH   8   9
DOCKED: ATOM      9  P   UNL d   1      48.164  23.530  17.048 -0.05 -0.02    -0.015 P 
DOCKED: ATOM     10  O   UNL d   1      47.625  24.267  15.816 -0.22 -0.62    -0.577 OA
DOCKED: ATOM     11  O   UNL d   1      47.579  22.123  17.173 -0.25 -0.79    -0.577 OA
DOCKED: ATOM     12  O   UNL d   1      49.691  23.550  17.106 -0.41 -0.98    -0.638 OA
DOCKED: ENDBRANCH   8   9
DOCKED: ENDBRANCH   7   8
DOCKED: ENDBRANCH   1   7
DOCKED: BRANCH   1  13
DOCKED: ATOM     13  C   UNL d   1      45.737  23.802  21.474 -0.14 +0.04    +0.073 C 
DOCKED: ATOM     14  O   UNL d   1      46.351  23.952  22.589 +0.01 -0.33    -0.547 OA
DOCKED: ATOM     15  O   UNL d   1      44.842  22.909  21.253 -0.51 -0.27    -0.547 OA
DOCKED: ENDBRANCH   1  13
DOCKED: TORSDOF 6
DOCKED: TER
DOCKED: ENDMDL
________________________________________________________________________________


	BEGINNING GENETIC ALGORITHM DOCKING 28 of 100
Run: 28 Seed: 933574665 582629296 [ Run 28 of 100 GA/GALS ]
Beginning LAMARCKIAN GENETIC ALGORITHM (LGA), with a maximum of 25000000 energy evaluations.

Final-Value: -7.073


	FINAL GENETIC ALGORITHM DOCKED STATE
	_______________________________________________


Detailed state:  trans 45.716 24.992 19.392 quatxyzw 0.060706 -0.388382 0.088274 0.915249 center 0.015 0.083 0.031 ntor 6 -175.9555 57.9857 -174.2032 50.6892 -34.1281 16.7005
State:	 45.716  24.992  19.392   0.151 -0.964  0.219 47.518   -175.96   57.99 -174.20   50.69  -34.13   16.70

DOCKED: MODEL       28
DOCKED: USER    Run = 28
DOCKED: USER    DPF = D:/Protein_go_brrr/autodock/final/6BB5/2_3_BPG/dock.dpf
DOCKED: USER  
DOCKED: USER    Estimated Free Energy of Binding    =   -7.23 kcal/mol  [=(1)+(2)+(3)-(4)]
DOCKED: USER    Estimated Inhibition Constant, Ki   =    4.99 uM (micromolar)  [Temperature = 298.15 K]
DOCKED: USER    
DOCKED: USER    (1) Final Intermolecular Energy     =   -9.02 kcal/mol
DOCKED: USER        vdW + Hbond + desolv Energy     =   -3.18 kcal/mol
DOCKED: USER        Electrostatic Energy            =   -5.84 kcal/mol
DOCKED: USER    (2) Final Total Internal Energy     =   +1.95 kcal/mol
DOCKED: USER    (3) Torsional Free Energy           =   +1.79 kcal/mol
DOCKED: USER    (4) Unbound System's Energy  [=(2)] =   +1.95 kcal/mol
DOCKED: USER    
DOCKED: USER    
DOCKED: USER    NEWDPF move 2_3_BPG_opt.pdbqt
DOCKED: USER    NEWDPF about 0.015000 0.083000 0.031000
DOCKED: USER    NEWDPF tran0 45.716248 24.991889 19.392045
DOCKED: USER    NEWDPF quaternion0 0.060706 -0.388382 0.088274 0.915249
DOCKED: USER    NEWDPF axisangle0 0.150678 -0.963997 0.219103 47.517639
DOCKED: USER    NEWDPF quat0 0.150678 -0.963997 0.219103 47.517639
DOCKED: USER    NEWDPF dihe0 -175.96 57.99 -174.20 50.69 -34.13 16.70 
DOCKED: USER  keepresnum = 1 
DOCKED: USER  
DOCKED: REMARK  6 active torsions:
DOCKED: REMARK  status: ('A' for Active; 'I' for Inactive)
DOCKED: REMARK    1  A    between atoms: P_1  and  O_3 
DOCKED: REMARK    2  A    between atoms: P_2  and  O_4 
DOCKED: REMARK    3  A    between atoms: O_3  and  C_13 
DOCKED: REMARK    4  A    between atoms: O_4  and  C_14 
DOCKED: REMARK    5  A    between atoms: C_13  and  C_14 
DOCKED: REMARK    6  A    between atoms: C_13  and  C_15 
DOCKED: USER                              x       y       z     vdW  Elec       q    Type
DOCKED: USER                           _______ _______ _______ _____ _____    ______ ____
DOCKED: ROOT
DOCKED: ATOM      1  C   UNL d   1      45.348  24.813  19.923 -0.10 +0.11    +0.193 C 
DOCKED: ENDROOT
DOCKED: BRANCH   1   2
DOCKED: ATOM      2  O   UNL d   1      44.258  25.785  20.070 -0.11 -0.23    -0.356 OA
DOCKED: BRANCH   2   3
DOCKED: ATOM      3  P   UNL d   1      44.443  27.244  20.806 -0.19 -0.02    -0.014 P 
DOCKED: ATOM      4  O   UNL d   1      43.345  27.273  21.881 -0.54 -1.26    -0.577 OA
DOCKED: ATOM      5  O   UNL d   1      44.217  28.318  19.744 -0.09 -0.44    -0.577 OA
DOCKED: ATOM      6  O   UNL d   1      45.835  27.286  21.426 -0.27 -1.25    -0.638 OA
DOCKED: ENDBRANCH   2   3
DOCKED: ENDBRANCH   1   2
DOCKED: BRANCH   1   7
DOCKED: ATOM      7  C   UNL d   1      46.043  25.042  18.530 -0.08 +0.10    +0.201 C 
DOCKED: BRANCH   7   8
DOCKED: ATOM      8  O   UNL d   1      47.199  24.219  18.260 -0.03 -0.22    -0.364 OA
DOCKED: BRANCH   8   9
DOCKED: ATOM      9  P   UNL d   1      47.552  23.769  16.708 -0.25 -0.02    -0.015 P 
DOCKED: ATOM     10  O   UNL d   1      46.578  24.564  15.830 -0.11 -0.39    -0.577 OA
DOCKED: ATOM     11  O   UNL d   1      47.308  22.263  16.613 -0.17 -0.88    -0.577 OA
DOCKED: ATOM     12  O   UNL d   1      49.007  24.156  16.446 -0.48 -0.90    -0.638 OA
DOCKED: ENDBRANCH   8   9
DOCKED: ENDBRANCH   7   8
DOCKED: ENDBRANCH   1   7
DOCKED: BRANCH   1  13
DOCKED: ATOM     13  C   UNL d   1      44.774  23.348  19.965 -0.12 +0.03    +0.073 C 
DOCKED: ATOM     14  O   UNL d   1      45.219  22.543  20.857 -0.40 -0.26    -0.547 OA
DOCKED: ATOM     15  O   UNL d   1      43.837  23.065  19.134 -0.24 -0.21    -0.547 OA
DOCKED: ENDBRANCH   1  13
DOCKED: TORSDOF 6
DOCKED: TER
DOCKED: ENDMDL
________________________________________________________________________________


	BEGINNING GENETIC ALGORITHM DOCKING 29 of 100
Run: 29 Seed: 1281592501 685896013 [ Run 29 of 100 GA/GALS ]
Beginning LAMARCKIAN GENETIC ALGORITHM (LGA), with a maximum of 25000000 energy evaluations.

Final-Value: -6.992


	FINAL GENETIC ALGORITHM DOCKED STATE
	_______________________________________________


Detailed state:  trans 46.166 24.598 19.604 quatxyzw -0.331449 0.418909 -0.263815 -0.803155 center 0.015 0.083 0.031 ntor 6 26.4207 -16.0266 -116.5872 -19.6229 5.7274 -40.0545
State:	 46.166  24.598  19.604  -0.556  0.703 -0.443 -73.135     26.42  -16.03 -116.59  -19.62    5.73  -40.05

DOCKED: MODEL       29
DOCKED: USER    Run = 29
DOCKED: USER    DPF = D:/Protein_go_brrr/autodock/final/6BB5/2_3_BPG/dock.dpf
DOCKED: USER  
DOCKED: USER    Estimated Free Energy of Binding    =   -7.24 kcal/mol  [=(1)+(2)+(3)-(4)]
DOCKED: USER    Estimated Inhibition Constant, Ki   =    4.96 uM (micromolar)  [Temperature = 298.15 K]
DOCKED: USER    
DOCKED: USER    (1) Final Intermolecular Energy     =   -9.03 kcal/mol
DOCKED: USER        vdW + Hbond + desolv Energy     =   -2.89 kcal/mol
DOCKED: USER        Electrostatic Energy            =   -6.14 kcal/mol
DOCKED: USER    (2) Final Total Internal Energy     =   +2.03 kcal/mol
DOCKED: USER    (3) Torsional Free Energy           =   +1.79 kcal/mol
DOCKED: USER    (4) Unbound System's Energy  [=(2)] =   +2.03 kcal/mol
DOCKED: USER    
DOCKED: USER    
DOCKED: USER    NEWDPF move 2_3_BPG_opt.pdbqt
DOCKED: USER    NEWDPF about 0.015000 0.083000 0.031000
DOCKED: USER    NEWDPF tran0 46.165574 24.598477 19.603991
DOCKED: USER    NEWDPF quaternion0 -0.331449 0.418909 -0.263815 -0.803155
DOCKED: USER    NEWDPF axisangle0 -0.556338 0.703139 -0.442813 -73.135081
DOCKED: USER    NEWDPF quat0 -0.556338 0.703139 -0.442813 -73.135081
DOCKED: USER    NEWDPF dihe0 26.42 -16.03 -116.59 -19.62 5.73 -40.05 
DOCKED: USER  keepresnum = 1 
DOCKED: USER  
DOCKED: REMARK  6 active torsions:
DOCKED: REMARK  status: ('A' for Active; 'I' for Inactive)
DOCKED: REMARK    1  A    between atoms: P_1  and  O_3 
DOCKED: REMARK    2  A    between atoms: P_2  and  O_4 
DOCKED: REMARK    3  A    between atoms: O_3  and  C_13 
DOCKED: REMARK    4  A    between atoms: O_4  and  C_14 
DOCKED: REMARK    5  A    between atoms: C_13  and  C_14 
DOCKED: REMARK    6  A    between atoms: C_13  and  C_15 
DOCKED: USER                              x       y       z     vdW  Elec       q    Type
DOCKED: USER                           _______ _______ _______ _____ _____    ______ ____
DOCKED: ROOT
DOCKED: ATOM      1  C   UNL d   1      45.900  24.838  20.171 -0.07 +0.11    +0.193 C 
DOCKED: ENDROOT
DOCKED: BRANCH   1   2
DOCKED: ATOM      2  O   UNL d   1      44.936  25.886  19.816 -0.06 -0.23    -0.356 OA
DOCKED: BRANCH   2   3
DOCKED: ATOM      3  P   UNL d   1      44.568  27.147  20.807 -0.21 -0.02    -0.014 P 
DOCKED: ATOM      4  O   UNL d   1      43.965  28.206  19.871 -0.12 -0.46    -0.577 OA
DOCKED: ATOM      5  O   UNL d   1      45.876  27.628  21.431 -0.24 -1.20    -0.577 OA
DOCKED: ATOM      6  O   UNL d   1      43.549  26.659  21.831 -0.46 -1.14    -0.638 OA
DOCKED: ENDBRANCH   2   3
DOCKED: ENDBRANCH   1   2
DOCKED: BRANCH   1   7
DOCKED: ATOM      7  C   UNL d   1      46.313  24.069  18.862 -0.06 +0.10    +0.201 C 
DOCKED: BRANCH   7   8
DOCKED: ATOM      8  O   UNL d   1      47.716  24.114  18.521 -0.03 -0.23    -0.364 OA
DOCKED: BRANCH   8   9
DOCKED: ATOM      9  P   UNL d   1      48.235  23.531  17.062 -0.05 -0.02    -0.015 P 
DOCKED: ATOM     10  O   UNL d   1      47.611  24.463  16.016 -0.17 -0.55    -0.577 OA
DOCKED: ATOM     11  O   UNL d   1      47.707  22.102  16.940 -0.24 -0.95    -0.577 OA
DOCKED: ATOM     12  O   UNL d   1      49.761  23.607  17.062 -0.39 -0.96    -0.638 OA
DOCKED: ENDBRANCH   8   9
DOCKED: ENDBRANCH   7   8
DOCKED: ENDBRANCH   1   7
DOCKED: BRANCH   1  13
DOCKED: ATOM     13  C   UNL d   1      45.242  23.816  21.171 -0.18 +0.04    +0.073 C 
DOCKED: ATOM     14  O   UNL d   1      44.472  22.908  20.698 -0.59 -0.30    -0.547 OA
DOCKED: ATOM     15  O   UNL d   1      45.572  23.916  22.407 -0.01 -0.34    -0.547 OA
DOCKED: ENDBRANCH   1  13
DOCKED: TORSDOF 6
DOCKED: TER
DOCKED: ENDMDL
________________________________________________________________________________


	BEGINNING GENETIC ALGORITHM DOCKING 30 of 100
Run: 30 Seed: 1212223917 1352582156 [ Run 30 of 100 GA/GALS ]
Beginning LAMARCKIAN GENETIC ALGORITHM (LGA), with a maximum of 25000000 energy evaluations.

Final-Value: -7.172


	FINAL GENETIC ALGORITHM DOCKED STATE
	_______________________________________________


Detailed state:  trans 45.713 24.671 19.328 quatxyzw 0.129814 -0.360117 0.260807 0.886253 center 0.015 0.083 0.031 ntor 6 -176.7064 -138.1275 -67.6153 3.5677 -7.8642 -42.6743
State:	 45.713  24.671  19.328   0.280 -0.777  0.563 55.188   -176.71 -138.13  -67.62    3.57   -7.86  -42.67

DOCKED: MODEL       30
DOCKED: USER    Run = 30
DOCKED: USER    DPF = D:/Protein_go_brrr/autodock/final/6BB5/2_3_BPG/dock.dpf
DOCKED: USER  
DOCKED: USER    Estimated Free Energy of Binding    =   -7.30 kcal/mol  [=(1)+(2)+(3)-(4)]
DOCKED: USER    Estimated Inhibition Constant, Ki   =    4.45 uM (micromolar)  [Temperature = 298.15 K]
DOCKED: USER    
DOCKED: USER    (1) Final Intermolecular Energy     =   -9.09 kcal/mol
DOCKED: USER        vdW + Hbond + desolv Energy     =   -3.66 kcal/mol
DOCKED: USER        Electrostatic Energy            =   -5.43 kcal/mol
DOCKED: USER    (2) Final Total Internal Energy     =   +1.92 kcal/mol
DOCKED: USER    (3) Torsional Free Energy           =   +1.79 kcal/mol
DOCKED: USER    (4) Unbound System's Energy  [=(2)] =   +1.92 kcal/mol
DOCKED: USER    
DOCKED: USER    
DOCKED: USER    NEWDPF move 2_3_BPG_opt.pdbqt
DOCKED: USER    NEWDPF about 0.015000 0.083000 0.031000
DOCKED: USER    NEWDPF tran0 45.713086 24.671240 19.328375
DOCKED: USER    NEWDPF quaternion0 0.129814 -0.360117 0.260807 0.886253
DOCKED: USER    NEWDPF axisangle0 0.280253 -0.777451 0.563052 55.187875
DOCKED: USER    NEWDPF quat0 0.280253 -0.777451 0.563052 55.187875
DOCKED: USER    NEWDPF dihe0 -176.71 -138.13 -67.62 3.57 -7.86 -42.67 
DOCKED: USER  keepresnum = 1 
DOCKED: USER  
DOCKED: REMARK  6 active torsions:
DOCKED: REMARK  status: ('A' for Active; 'I' for Inactive)
DOCKED: REMARK    1  A    between atoms: P_1  and  O_3 
DOCKED: REMARK    2  A    between atoms: P_2  and  O_4 
DOCKED: REMARK    3  A    between atoms: O_3  and  C_13 
DOCKED: REMARK    4  A    between atoms: O_4  and  C_14 
DOCKED: REMARK    5  A    between atoms: C_13  and  C_14 
DOCKED: REMARK    6  A    between atoms: C_13  and  C_15 
DOCKED: USER                              x       y       z     vdW  Elec       q    Type
DOCKED: USER                           _______ _______ _______ _____ _____    ______ ____
DOCKED: ROOT
DOCKED: ATOM      1  C   UNL d   1      45.309  24.742  19.859 -0.10 +0.10    +0.193 C 
DOCKED: ENDROOT
DOCKED: BRANCH   1   2
DOCKED: ATOM      2  O   UNL d   1      44.515  25.961  19.670 -0.08 -0.21    -0.356 OA
DOCKED: BRANCH   2   3
DOCKED: ATOM      3  P   UNL d   1      44.390  27.142  20.807 -0.21 -0.02    -0.014 P 
DOCKED: ATOM      4  O   UNL d   1      45.792  27.223  21.431 -0.26 -1.12    -0.577 OA
DOCKED: ATOM      5  O   UNL d   1      43.348  26.683  21.825 -0.68 -0.98    -0.577 OA
DOCKED: ATOM      6  O   UNL d   1      44.017  28.440  20.099 -0.14 -0.57    -0.638 OA
DOCKED: ENDBRANCH   2   3
DOCKED: ENDBRANCH   1   2
DOCKED: BRANCH   1   7
DOCKED: ATOM      7  C   UNL d   1      46.043  24.403  18.509 -0.08 +0.10    +0.201 C 
DOCKED: BRANCH   7   8
DOCKED: ATOM      8  O   UNL d   1      47.486  24.438  18.549 -0.02 -0.21    -0.364 OA
DOCKED: BRANCH   8   9
DOCKED: ATOM      9  P   UNL d   1      48.365  23.984  17.223 -0.18 -0.02    -0.015 P 
DOCKED: ATOM     10  O   UNL d   1      49.080  25.259  16.762 -0.09 -0.43    -0.577 OA
DOCKED: ATOM     11  O   UNL d   1      47.369  23.479  16.180 -0.31 -0.73    -0.577 OA
DOCKED: ATOM     12  O   UNL d   1      49.349  22.908  17.681 -0.46 -0.89    -0.638 OA
DOCKED: ENDBRANCH   8   9
DOCKED: ENDBRANCH   7   8
DOCKED: ENDBRANCH   1   7
DOCKED: BRANCH   1  13
DOCKED: ATOM     13  C   UNL d   1      44.369  23.538  20.238 -0.23 +0.03    +0.073 C 
DOCKED: ATOM     14  O   UNL d   1      44.593  22.907  21.331 -0.59 -0.28    -0.547 OA
DOCKED: ATOM     15  O   UNL d   1      43.383  23.298  19.451 -0.25 -0.20    -0.547 OA
DOCKED: ENDBRANCH   1  13
DOCKED: TORSDOF 6
DOCKED: TER
DOCKED: ENDMDL
________________________________________________________________________________


	BEGINNING GENETIC ALGORITHM DOCKING 31 of 100
Run: 31 Seed: 1079021716 1565923193 [ Run 31 of 100 GA/GALS ]
Beginning LAMARCKIAN GENETIC ALGORITHM (LGA), with a maximum of 25000000 energy evaluations.

Final-Value: -7.135


	FINAL GENETIC ALGORITHM DOCKED STATE
	_______________________________________________


Detailed state:  trans 45.579 24.894 19.073 quatxyzw 0.008330 -0.331310 0.278657 0.901396 center 0.015 0.083 0.031 ntor 6 -178.8133 -11.7521 -125.2808 9.5037 13.7316 -3.2040
State:	 45.579  24.894  19.073   0.019 -0.765  0.644 51.316   -178.81  -11.75 -125.28    9.50   13.73   -3.20

DOCKED: MODEL       31
DOCKED: USER    Run = 31
DOCKED: USER    DPF = D:/Protein_go_brrr/autodock/final/6BB5/2_3_BPG/dock.dpf
DOCKED: USER  
DOCKED: USER    Estimated Free Energy of Binding    =   -7.27 kcal/mol  [=(1)+(2)+(3)-(4)]
DOCKED: USER    Estimated Inhibition Constant, Ki   =    4.67 uM (micromolar)  [Temperature = 298.15 K]
DOCKED: USER    
DOCKED: USER    (1) Final Intermolecular Energy     =   -9.06 kcal/mol
DOCKED: USER        vdW + Hbond + desolv Energy     =   -3.43 kcal/mol
DOCKED: USER        Electrostatic Energy            =   -5.63 kcal/mol
DOCKED: USER    (2) Final Total Internal Energy     =   +1.93 kcal/mol
DOCKED: USER    (3) Torsional Free Energy           =   +1.79 kcal/mol
DOCKED: USER    (4) Unbound System's Energy  [=(2)] =   +1.93 kcal/mol
DOCKED: USER    
DOCKED: USER    
DOCKED: USER    NEWDPF move 2_3_BPG_opt.pdbqt
DOCKED: USER    NEWDPF about 0.015000 0.083000 0.031000
DOCKED: USER    NEWDPF tran0 45.578646 24.893839 19.073426
DOCKED: USER    NEWDPF quaternion0 0.008330 -0.331310 0.278657 0.901396
DOCKED: USER    NEWDPF axisangle0 0.019238 -0.765157 0.643556 51.315647
DOCKED: USER    NEWDPF quat0 0.019238 -0.765157 0.643556 51.315647
DOCKED: USER    NEWDPF dihe0 -178.81 -11.75 -125.28 9.50 13.73 -3.20 
DOCKED: USER  keepresnum = 1 
DOCKED: USER  
DOCKED: REMARK  6 active torsions:
DOCKED: REMARK  status: ('A' for Active; 'I' for Inactive)
DOCKED: REMARK    1  A    between atoms: P_1  and  O_3 
DOCKED: REMARK    2  A    between atoms: P_2  and  O_4 
DOCKED: REMARK    3  A    between atoms: O_3  and  C_13 
DOCKED: REMARK    4  A    between atoms: O_4  and  C_14 
DOCKED: REMARK    5  A    between atoms: C_13  and  C_14 
DOCKED: REMARK    6  A    between atoms: C_13  and  C_15 
DOCKED: USER                              x       y       z     vdW  Elec       q    Type
DOCKED: USER                           _______ _______ _______ _____ _____    ______ ____
DOCKED: ROOT
DOCKED: ATOM      1  C   UNL d   1      45.113  24.912  19.556 -0.11 +0.10    +0.193 C 
DOCKED: ENDROOT
DOCKED: BRANCH   1   2
DOCKED: ATOM      2  O   UNL d   1      44.466  26.228  19.517 -0.09 -0.21    -0.356 OA
DOCKED: BRANCH   2   3
DOCKED: ATOM      3  P   UNL d   1      44.416  27.248  20.806 -0.19 -0.02    -0.014 P 
DOCKED: ATOM      4  O   UNL d   1      44.027  28.608  20.204 -0.16 -0.54    -0.577 OA
DOCKED: ATOM      5  O   UNL d   1      45.819  27.283  21.410 -0.28 -1.12    -0.577 OA
DOCKED: ATOM      6  O   UNL d   1      43.351  26.737  21.770 -0.61 -1.08    -0.638 OA
DOCKED: ENDBRANCH   2   3
DOCKED: ENDBRANCH   1   2
DOCKED: BRANCH   1   7
DOCKED: ATOM      7  C   UNL d   1      45.993  24.744  18.262 -0.09 +0.10    +0.201 C 
DOCKED: BRANCH   7   8
DOCKED: ATOM      8  O   UNL d   1      47.083  23.800  18.360 -0.03 -0.22    -0.364 OA
DOCKED: BRANCH   8   9
DOCKED: ATOM      9  P   UNL d   1      48.309  23.832  17.250 -0.15 -0.02    -0.015 P 
DOCKED: ATOM     10  O   UNL d   1      48.874  25.256  17.319 -0.05 -0.39    -0.577 OA
DOCKED: ATOM     11  O   UNL d   1      47.685  23.530  15.887 -0.39 -0.88    -0.577 OA
DOCKED: ATOM     12  O   UNL d   1      49.336  22.786  17.682 -0.43 -0.92    -0.638 OA
DOCKED: ENDBRANCH   8   9
DOCKED: ENDBRANCH   7   8
DOCKED: ENDBRANCH   1   7
DOCKED: BRANCH   1  13
DOCKED: ATOM     13  C   UNL d   1      44.024  23.776  19.576 -0.27 +0.03    +0.073 C 
DOCKED: ATOM     14  O   UNL d   1      44.061  22.910  20.520 -0.51 -0.31    -0.547 OA
DOCKED: ATOM     15  O   UNL d   1      43.115  23.823  18.670 -0.09 -0.16    -0.547 OA
DOCKED: ENDBRANCH   1  13
DOCKED: TORSDOF 6
DOCKED: TER
DOCKED: ENDMDL
________________________________________________________________________________


	BEGINNING GENETIC ALGORITHM DOCKING 32 of 100
Run: 32 Seed: 1127386983 343400291 [ Run 32 of 100 GA/GALS ]
Beginning LAMARCKIAN GENETIC ALGORITHM (LGA), with a maximum of 25000000 energy evaluations.

Final-Value: -7.020


	FINAL GENETIC ALGORITHM DOCKED STATE
	_______________________________________________


Detailed state:  trans 45.381 24.871 18.342 quatxyzw 0.517697 0.838530 -0.026065 0.167864 center 0.015 0.083 0.031 ntor 6 172.7062 -125.0988 26.4389 34.0214 -24.9514 65.2094
State:	 45.381  24.871  18.342   0.525  0.851 -0.026 160.673    172.71 -125.10   26.44   34.02  -24.95   65.21

DOCKED: MODEL       32
DOCKED: USER    Run = 32
DOCKED: USER    DPF = D:/Protein_go_brrr/autodock/final/6BB5/2_3_BPG/dock.dpf
DOCKED: USER  
DOCKED: USER    Estimated Free Energy of Binding    =   -7.30 kcal/mol  [=(1)+(2)+(3)-(4)]
DOCKED: USER    Estimated Inhibition Constant, Ki   =    4.44 uM (micromolar)  [Temperature = 298.15 K]
DOCKED: USER    
DOCKED: USER    (1) Final Intermolecular Energy     =   -9.09 kcal/mol
DOCKED: USER        vdW + Hbond + desolv Energy     =   -3.51 kcal/mol
DOCKED: USER        Electrostatic Energy            =   -5.58 kcal/mol
DOCKED: USER    (2) Final Total Internal Energy     =   +2.07 kcal/mol
DOCKED: USER    (3) Torsional Free Energy           =   +1.79 kcal/mol
DOCKED: USER    (4) Unbound System's Energy  [=(2)] =   +2.07 kcal/mol
DOCKED: USER    
DOCKED: USER    
DOCKED: USER    NEWDPF move 2_3_BPG_opt.pdbqt
DOCKED: USER    NEWDPF about 0.015000 0.083000 0.031000
DOCKED: USER    NEWDPF tran0 45.380836 24.870863 18.342487
DOCKED: USER    NEWDPF quaternion0 0.517697 0.838530 -0.026065 0.167864
DOCKED: USER    NEWDPF axisangle0 0.525148 0.850600 -0.026440 160.672743
DOCKED: USER    NEWDPF quat0 0.525148 0.850600 -0.026440 160.672743
DOCKED: USER    NEWDPF dihe0 172.71 -125.10 26.44 34.02 -24.95 65.21 
DOCKED: USER  keepresnum = 1 
DOCKED: USER  
DOCKED: REMARK  6 active torsions:
DOCKED: REMARK  status: ('A' for Active; 'I' for Inactive)
DOCKED: REMARK    1  A    between atoms: P_1  and  O_3 
DOCKED: REMARK    2  A    between atoms: P_2  and  O_4 
DOCKED: REMARK    3  A    between atoms: O_3  and  C_13 
DOCKED: REMARK    4  A    between atoms: O_4  and  C_14 
DOCKED: REMARK    5  A    between atoms: C_13  and  C_14 
DOCKED: REMARK    6  A    between atoms: C_13  and  C_15 
DOCKED: USER                              x       y       z     vdW  Elec       q    Type
DOCKED: USER                           _______ _______ _______ _____ _____    ______ ____
DOCKED: ROOT
DOCKED: ATOM      1  C   UNL d   1      45.323  24.225  18.174 -0.12 +0.09    +0.193 C 
DOCKED: ENDROOT
DOCKED: BRANCH   1   2
DOCKED: ATOM      2  O   UNL d   1      46.635  23.589  18.339 -0.03 -0.20    -0.356 OA
DOCKED: BRANCH   2   3
DOCKED: ATOM      3  P   UNL d   1      47.677  23.333  17.093 -0.19 -0.02    -0.014 P 
DOCKED: ATOM      4  O   UNL d   1      47.783  24.699  16.395 -0.14 -0.49    -0.577 OA
DOCKED: ATOM      5  O   UNL d   1      47.044  22.285  16.181 -0.18 -0.84    -0.577 OA
DOCKED: ATOM      6  O   UNL d   1      49.016  22.900  17.680 -0.51 -0.88    -0.638 OA
DOCKED: ENDBRANCH   2   3
DOCKED: ENDBRANCH   1   2
DOCKED: BRANCH   1   7
DOCKED: ATOM      7  C   UNL d   1      45.366  25.651  18.835 -0.09 +0.10    +0.201 C 
DOCKED: BRANCH   7   8
DOCKED: ATOM      8  O   UNL d   1      44.228  26.002  19.653 -0.10 -0.21    -0.364 OA
DOCKED: BRANCH   8   9
DOCKED: ATOM      9  P   UNL d   1      44.366  27.179  20.807 -0.20 -0.02    -0.015 P 
DOCKED: ATOM     10  O   UNL d   1      43.345  26.802  21.886 -0.67 -1.06    -0.577 OA
DOCKED: ATOM     11  O   UNL d   1      44.019  28.506  20.133 -0.17 -0.52    -0.577 OA
DOCKED: ATOM     12  O   UNL d   1      45.800  27.131  21.331 -0.25 -1.13    -0.638 OA
DOCKED: ENDBRANCH   8   9
DOCKED: ENDBRANCH   7   8
DOCKED: ENDBRANCH   1   7
DOCKED: BRANCH   1  13
DOCKED: ATOM     13  C   UNL d   1      44.215  23.369  18.893 -0.24 +0.03    +0.073 C 
DOCKED: ATOM     14  O   UNL d   1      43.126  23.125  18.263 -0.09 -0.15    -0.547 OA
DOCKED: ATOM     15  O   UNL d   1      44.498  22.908  20.057 -0.53 -0.28    -0.547 OA
DOCKED: ENDBRANCH   1  13
DOCKED: TORSDOF 6
DOCKED: TER
DOCKED: ENDMDL
________________________________________________________________________________


	BEGINNING GENETIC ALGORITHM DOCKING 33 of 100
Run: 33 Seed: 1174314108 259938751 [ Run 33 of 100 GA/GALS ]
Beginning LAMARCKIAN GENETIC ALGORITHM (LGA), with a maximum of 25000000 energy evaluations.

Final-Value: -6.716


	FINAL GENETIC ALGORITHM DOCKED STATE
	_______________________________________________


Detailed state:  trans 46.340 24.716 19.719 quatxyzw -0.038138 0.173095 -0.331574 -0.926630 center 0.015 0.083 0.031 ntor 6 168.0764 -14.1239 14.8927 18.1900 17.9900 116.1916
State:	 46.340  24.716  19.719  -0.101  0.460 -0.882 -44.169    168.08  -14.12   14.89   18.19   17.99  116.19

DOCKED: MODEL       33
DOCKED: USER    Run = 33
DOCKED: USER    DPF = D:/Protein_go_brrr/autodock/final/6BB5/2_3_BPG/dock.dpf
DOCKED: USER  
DOCKED: USER    Estimated Free Energy of Binding    =   -7.02 kcal/mol  [=(1)+(2)+(3)-(4)]
DOCKED: USER    Estimated Inhibition Constant, Ki   =    7.18 uM (micromolar)  [Temperature = 298.15 K]
DOCKED: USER    
DOCKED: USER    (1) Final Intermolecular Energy     =   -8.81 kcal/mol
DOCKED: USER        vdW + Hbond + desolv Energy     =   -3.04 kcal/mol
DOCKED: USER        Electrostatic Energy            =   -5.77 kcal/mol
DOCKED: USER    (2) Final Total Internal Energy     =   +2.09 kcal/mol
DOCKED: USER    (3) Torsional Free Energy           =   +1.79 kcal/mol
DOCKED: USER    (4) Unbound System's Energy  [=(2)] =   +2.09 kcal/mol
DOCKED: USER    
DOCKED: USER    
DOCKED: USER    NEWDPF move 2_3_BPG_opt.pdbqt
DOCKED: USER    NEWDPF about 0.015000 0.083000 0.031000
DOCKED: USER    NEWDPF tran0 46.340456 24.715709 19.719444
DOCKED: USER    NEWDPF quaternion0 -0.038138 0.173095 -0.331574 -0.926630
DOCKED: USER    NEWDPF axisangle0 -0.101438 0.460390 -0.881902 -44.169242
DOCKED: USER    NEWDPF quat0 -0.101438 0.460390 -0.881902 -44.169242
DOCKED: USER    NEWDPF dihe0 168.08 -14.12 14.89 18.19 17.99 116.19 
DOCKED: USER  keepresnum = 1 
DOCKED: USER  
DOCKED: REMARK  6 active torsions:
DOCKED: REMARK  status: ('A' for Active; 'I' for Inactive)
DOCKED: REMARK    1  A    between atoms: P_1  and  O_3 
DOCKED: REMARK    2  A    between atoms: P_2  and  O_4 
DOCKED: REMARK    3  A    between atoms: O_3  and  C_13 
DOCKED: REMARK    4  A    between atoms: O_4  and  C_14 
DOCKED: REMARK    5  A    between atoms: C_13  and  C_14 
DOCKED: REMARK    6  A    between atoms: C_13  and  C_15 
DOCKED: USER                              x       y       z     vdW  Elec       q    Type
DOCKED: USER                           _______ _______ _______ _____ _____    ______ ____
DOCKED: ROOT
DOCKED: ATOM      1  C   UNL d   1      45.763  24.837  20.038 -0.07 +0.11    +0.193 C 
DOCKED: ENDROOT
DOCKED: BRANCH   1   2
DOCKED: ATOM      2  O   UNL d   1      45.264  26.145  19.597 -0.05 -0.22    -0.356 OA
DOCKED: BRANCH   2   3
DOCKED: ATOM      3  P   UNL d   1      45.140  27.446  20.595 -0.13 -0.02    -0.014 P 
DOCKED: ATOM      4  O   UNL d   1      45.038  28.649  19.644 -0.04 -0.41    -0.577 OA
DOCKED: ATOM      5  O   UNL d   1      46.416  27.498  21.432 -0.52 -0.96    -0.577 OA
DOCKED: ATOM      6  O   UNL d   1      43.873  27.282  21.428 -0.43 -1.19    -0.638 OA
DOCKED: ENDBRANCH   2   3
DOCKED: ENDBRANCH   1   2
DOCKED: BRANCH   1   7
DOCKED: ATOM      7  C   UNL d   1      46.949  24.407  19.098 -0.04 +0.11    +0.201 C 
DOCKED: BRANCH   7   8
DOCKED: ATOM      8  O   UNL d   1      46.572  23.757  17.864 -0.05 -0.22    -0.364 OA
DOCKED: BRANCH   8   9
DOCKED: ATOM      9  P   UNL d   1      47.664  22.812  17.057 -0.02 -0.02    -0.015 P 
DOCKED: ATOM     10  O   UNL d   1      47.094  22.665  15.641 -0.18 -0.88    -0.577 OA
DOCKED: ATOM     11  O   UNL d   1      47.723  21.473  17.790 -0.06 -0.61    -0.577 OA
DOCKED: ATOM     12  O   UNL d   1      48.998  23.558  17.063 -0.57 -0.99    -0.638 OA
DOCKED: ENDBRANCH   8   9
DOCKED: ENDBRANCH   7   8
DOCKED: ENDBRANCH   1   7
DOCKED: BRANCH   1  13
DOCKED: ATOM     13  C   UNL d   1      44.620  23.760  19.932 -0.22 +0.03    +0.073 C 
DOCKED: ATOM     14  O   UNL d   1      44.491  22.910  20.882 -0.59 -0.30    -0.547 OA
DOCKED: ATOM     15  O   UNL d   1      43.837  23.839  18.918 -0.07 -0.20    -0.547 OA
DOCKED: ENDBRANCH   1  13
DOCKED: TORSDOF 6
DOCKED: TER
DOCKED: ENDMDL
________________________________________________________________________________


	BEGINNING GENETIC ALGORITHM DOCKING 34 of 100
Run: 34 Seed: 371873842 1411093259 [ Run 34 of 100 GA/GALS ]
Beginning LAMARCKIAN GENETIC ALGORITHM (LGA), with a maximum of 25000000 energy evaluations.

Final-Value: -7.009


	FINAL GENETIC ALGORITHM DOCKED STATE
	_______________________________________________


Detailed state:  trans 45.709 24.792 19.264 quatxyzw -0.000101 -0.280308 0.304737 0.910254 center 0.015 0.083 0.031 ntor 6 180.0000 -1.8510 138.2880 8.2640 -20.0706 16.0836
State:	 45.709  24.792  19.264  -0.000 -0.677  0.736 48.919    180.00   -1.85  138.29    8.26  -20.07   16.08

DOCKED: MODEL       34
DOCKED: USER    Run = 34
DOCKED: USER    DPF = D:/Protein_go_brrr/autodock/final/6BB5/2_3_BPG/dock.dpf
DOCKED: USER  
DOCKED: USER    Estimated Free Energy of Binding    =   -7.19 kcal/mol  [=(1)+(2)+(3)-(4)]
DOCKED: USER    Estimated Inhibition Constant, Ki   =    5.34 uM (micromolar)  [Temperature = 298.15 K]
DOCKED: USER    
DOCKED: USER    (1) Final Intermolecular Energy     =   -8.98 kcal/mol
DOCKED: USER        vdW + Hbond + desolv Energy     =   -3.10 kcal/mol
DOCKED: USER        Electrostatic Energy            =   -5.88 kcal/mol
DOCKED: USER    (2) Final Total Internal Energy     =   +1.97 kcal/mol
DOCKED: USER    (3) Torsional Free Energy           =   +1.79 kcal/mol
DOCKED: USER    (4) Unbound System's Energy  [=(2)] =   +1.97 kcal/mol
DOCKED: USER    
DOCKED: USER    
DOCKED: USER    NEWDPF move 2_3_BPG_opt.pdbqt
DOCKED: USER    NEWDPF about 0.015000 0.083000 0.031000
DOCKED: USER    NEWDPF tran0 45.709255 24.791967 19.264341
DOCKED: USER    NEWDPF quaternion0 -0.000101 -0.280308 0.304737 0.910254
DOCKED: USER    NEWDPF axisangle0 -0.000244 -0.676991 0.735991 48.919034
DOCKED: USER    NEWDPF quat0 -0.000244 -0.676991 0.735991 48.919034
DOCKED: USER    NEWDPF dihe0 180.00 -1.85 138.29 8.26 -20.07 16.08 
DOCKED: USER  keepresnum = 1 
DOCKED: USER  
DOCKED: REMARK  6 active torsions:
DOCKED: REMARK  status: ('A' for Active; 'I' for Inactive)
DOCKED: REMARK    1  A    between atoms: P_1  and  O_3 
DOCKED: REMARK    2  A    between atoms: P_2  and  O_4 
DOCKED: REMARK    3  A    between atoms: O_3  and  C_13 
DOCKED: REMARK    4  A    between atoms: O_4  and  C_14 
DOCKED: REMARK    5  A    between atoms: C_13  and  C_14 
DOCKED: REMARK    6  A    between atoms: C_13  and  C_15 
DOCKED: USER                              x       y       z     vdW  Elec       q    Type
DOCKED: USER                           _______ _______ _______ _____ _____    ______ ____
DOCKED: ROOT
DOCKED: ATOM      1  C   UNL d   1      45.199  24.847  19.695 -0.10 +0.10    +0.193 C 
DOCKED: ENDROOT
DOCKED: BRANCH   1   2
DOCKED: ATOM      2  O   UNL d   1      44.623  26.189  19.553 -0.08 -0.21    -0.356 OA
DOCKED: BRANCH   2   3
DOCKED: ATOM      3  P   UNL d   1      44.464  27.241  20.807 -0.19 -0.02    -0.014 P 
DOCKED: ATOM      4  O   UNL d   1      43.966  28.541  20.156 -0.18 -0.53    -0.577 OA
DOCKED: ATOM      5  O   UNL d   1      45.849  27.418  21.427 -0.26 -1.16    -0.577 OA
DOCKED: ATOM      6  O   UNL d   1      43.434  26.668  21.775 -0.55 -1.08    -0.638 OA
DOCKED: ENDBRANCH   2   3
DOCKED: ENDBRANCH   1   2
DOCKED: BRANCH   1   7
DOCKED: ATOM      7  C   UNL d   1      46.197  24.597  18.505 -0.08 +0.10    +0.201 C 
DOCKED: BRANCH   7   8
DOCKED: ATOM      8  O   UNL d   1      46.929  23.353  18.548 -0.03 -0.22    -0.364 OA
DOCKED: BRANCH   8   9
DOCKED: ATOM      9  P   UNL d   1      47.673  22.780  17.185 -0.04 -0.02    -0.015 P 
DOCKED: ATOM     10  O   UNL d   1      46.696  23.081  16.042 -0.13 -0.61    -0.577 OA
DOCKED: ATOM     11  O   UNL d   1      47.874  21.278  17.385 -0.05 -0.79    -0.577 OA
DOCKED: ATOM     12  O   UNL d   1      48.987  23.545  17.034 -0.57 -1.01    -0.638 OA
DOCKED: ENDBRANCH   8   9
DOCKED: ENDBRANCH   7   8
DOCKED: ENDBRANCH   1   7
DOCKED: BRANCH   1  13
DOCKED: ATOM     13  C   UNL d   1      44.059  23.762  19.634 -0.26 +0.03    +0.073 C 
DOCKED: ATOM     14  O   UNL d   1      43.972  22.913  20.589 -0.50 -0.31    -0.547 OA
DOCKED: ATOM     15  O   UNL d   1      43.237  23.835  18.651 -0.08 -0.17    -0.547 OA
DOCKED: ENDBRANCH   1  13
DOCKED: TORSDOF 6
DOCKED: TER
DOCKED: ENDMDL
________________________________________________________________________________


	BEGINNING GENETIC ALGORITHM DOCKING 35 of 100
Run: 35 Seed: 973208230 1252380561 [ Run 35 of 100 GA/GALS ]
Beginning LAMARCKIAN GENETIC ALGORITHM (LGA), with a maximum of 25000000 energy evaluations.

Final-Value: -6.261


	FINAL GENETIC ALGORITHM DOCKED STATE
	_______________________________________________


Detailed state:  trans 46.889 25.470 19.847 quatxyzw -0.842171 0.366378 0.116629 -0.378038 center 0.015 0.083 0.031 ntor 6 81.7310 -78.7762 107.8101 -5.5629 -51.9307 -69.7070
State:	 46.889  25.470  19.847  -0.910  0.396  0.126 -135.576     81.73  -78.78  107.81   -5.56  -51.93  -69.71

DOCKED: MODEL       35
DOCKED: USER    Run = 35
DOCKED: USER    DPF = D:/Protein_go_brrr/autodock/final/6BB5/2_3_BPG/dock.dpf
DOCKED: USER  
DOCKED: USER    Estimated Free Energy of Binding    =   -6.67 kcal/mol  [=(1)+(2)+(3)-(4)]
DOCKED: USER    Estimated Inhibition Constant, Ki   =   12.98 uM (micromolar)  [Temperature = 298.15 K]
DOCKED: USER    
DOCKED: USER    (1) Final Intermolecular Energy     =   -8.46 kcal/mol
DOCKED: USER        vdW + Hbond + desolv Energy     =   -2.77 kcal/mol
DOCKED: USER        Electrostatic Energy            =   -5.69 kcal/mol
DOCKED: USER    (2) Final Total Internal Energy     =   +2.20 kcal/mol
DOCKED: USER    (3) Torsional Free Energy           =   +1.79 kcal/mol
DOCKED: USER    (4) Unbound System's Energy  [=(2)] =   +2.20 kcal/mol
DOCKED: USER    
DOCKED: USER    
DOCKED: USER    NEWDPF move 2_3_BPG_opt.pdbqt
DOCKED: USER    NEWDPF about 0.015000 0.083000 0.031000
DOCKED: USER    NEWDPF tran0 46.889062 25.469917 19.846720
DOCKED: USER    NEWDPF quaternion0 -0.842171 0.366378 0.116629 -0.378038
DOCKED: USER    NEWDPF axisangle0 -0.909678 0.395747 0.125978 -135.575626
DOCKED: USER    NEWDPF quat0 -0.909678 0.395747 0.125978 -135.575626
DOCKED: USER    NEWDPF dihe0 81.73 -78.78 107.81 -5.56 -51.93 -69.71 
DOCKED: USER  keepresnum = 1 
DOCKED: USER  
DOCKED: REMARK  6 active torsions:
DOCKED: REMARK  status: ('A' for Active; 'I' for Inactive)
DOCKED: REMARK    1  A    between atoms: P_1  and  O_3 
DOCKED: REMARK    2  A    between atoms: P_2  and  O_4 
DOCKED: REMARK    3  A    between atoms: O_3  and  C_13 
DOCKED: REMARK    4  A    between atoms: O_4  and  C_14 
DOCKED: REMARK    5  A    between atoms: C_13  and  C_14 
DOCKED: REMARK    6  A    between atoms: C_13  and  C_15 
DOCKED: USER                              x       y       z     vdW  Elec       q    Type
DOCKED: USER                           _______ _______ _______ _____ _____    ______ ____
DOCKED: ROOT
DOCKED: ATOM      1  C   UNL d   1      46.704  25.986  20.232 -0.05 +0.13    +0.193 C 
DOCKED: ENDROOT
DOCKED: BRANCH   1   2
DOCKED: ATOM      2  O   UNL d   1      45.350  25.721  20.731 -0.07 -0.30    -0.356 OA
DOCKED: BRANCH   2   3
DOCKED: ATOM      3  P   UNL d   1      44.174  26.869  20.805 -0.28 -0.02    -0.014 P 
DOCKED: ATOM      4  O   UNL d   1      43.349  26.654  19.526 +0.05 -0.31    -0.577 OA
DOCKED: ATOM      5  O   UNL d   1      44.869  28.229  20.803 -0.17 -0.82    -0.577 OA
DOCKED: ATOM      6  O   UNL d   1      43.343  26.613  22.057 -0.72 -1.16    -0.638 OA
DOCKED: ENDBRANCH   2   3
DOCKED: ENDBRANCH   1   2
DOCKED: BRANCH   1   7
DOCKED: ATOM      7  C   UNL d   1      47.265  24.672  19.573 -0.02 +0.10    +0.201 C 
DOCKED: BRANCH   7   8
DOCKED: ATOM      8  O   UNL d   1      46.992  24.507  18.164 -0.03 -0.21    -0.364 OA
DOCKED: BRANCH   8   9
DOCKED: ATOM      9  P   UNL d   1      48.213  24.103  17.124 -0.23 -0.02    -0.015 P 
DOCKED: ATOM     10  O   UNL d   1      49.103  25.349  17.050 -0.07 -0.39    -0.577 OA
DOCKED: ATOM     11  O   UNL d   1      47.565  23.784  15.778 -0.29 -0.76    -0.577 OA
DOCKED: ATOM     12  O   UNL d   1      48.947  22.909  17.733 -0.48 -0.85    -0.638 OA
DOCKED: ENDBRANCH   8   9
DOCKED: ENDBRANCH   7   8
DOCKED: ENDBRANCH   1   7
DOCKED: BRANCH   1  13
DOCKED: ATOM     13  C   UNL d   1      47.648  26.395  21.424 -0.06 +0.06    +0.073 C 
DOCKED: ATOM     14  O   UNL d   1      48.816  25.873  21.486 +0.01 -0.28    -0.547 OA
DOCKED: ATOM     15  O   UNL d   1      47.207  27.287  22.236 -0.36 -0.85    -0.547 OA
DOCKED: ENDBRANCH   1  13
DOCKED: TORSDOF 6
DOCKED: TER
DOCKED: ENDMDL
________________________________________________________________________________


	BEGINNING GENETIC ALGORITHM DOCKING 36 of 100
Run: 36 Seed: 676970699 636499719 [ Run 36 of 100 GA/GALS ]
Beginning LAMARCKIAN GENETIC ALGORITHM (LGA), with a maximum of 25000000 energy evaluations.

Final-Value: -6.849


	FINAL GENETIC ALGORITHM DOCKED STATE
	_______________________________________________


Detailed state:  trans 3.074 42.601 -1.885 quatxyzw -0.062839 -0.607750 -0.196948 0.766748 center 0.015 0.083 0.031 ntor 6 109.2613 -102.5285 81.3345 0.5722 27.1898 -24.6922
State:	  3.074  42.601  -1.885  -0.098 -0.947 -0.307 79.874    109.26 -102.53   81.33    0.57   27.19  -24.69

DOCKED: MODEL       36
DOCKED: USER    Run = 36
DOCKED: USER    DPF = D:/Protein_go_brrr/autodock/final/6BB5/2_3_BPG/dock.dpf
DOCKED: USER  
DOCKED: USER    Estimated Free Energy of Binding    =   -7.23 kcal/mol  [=(1)+(2)+(3)-(4)]
DOCKED: USER    Estimated Inhibition Constant, Ki   =    5.04 uM (micromolar)  [Temperature = 298.15 K]
DOCKED: USER    
DOCKED: USER    (1) Final Intermolecular Energy     =   -9.02 kcal/mol
DOCKED: USER        vdW + Hbond + desolv Energy     =   -3.46 kcal/mol
DOCKED: USER        Electrostatic Energy            =   -5.56 kcal/mol
DOCKED: USER    (2) Final Total Internal Energy     =   +2.17 kcal/mol
DOCKED: USER    (3) Torsional Free Energy           =   +1.79 kcal/mol
DOCKED: USER    (4) Unbound System's Energy  [=(2)] =   +2.17 kcal/mol
DOCKED: USER    
DOCKED: USER    
DOCKED: USER    NEWDPF move 2_3_BPG_opt.pdbqt
DOCKED: USER    NEWDPF about 0.015000 0.083000 0.031000
DOCKED: USER    NEWDPF tran0 3.074211 42.601131 -1.884511
DOCKED: USER    NEWDPF quaternion0 -0.062839 -0.607750 -0.196948 0.766748
DOCKED: USER    NEWDPF axisangle0 -0.097888 -0.946728 -0.306797 79.874438
DOCKED: USER    NEWDPF quat0 -0.097888 -0.946728 -0.306797 79.874438
DOCKED: USER    NEWDPF dihe0 109.26 -102.53 81.33 0.57 27.19 -24.69 
DOCKED: USER  keepresnum = 1 
DOCKED: USER  
DOCKED: REMARK  6 active torsions:
DOCKED: REMARK  status: ('A' for Active; 'I' for Inactive)
DOCKED: REMARK    1  A    between atoms: P_1  and  O_3 
DOCKED: REMARK    2  A    between atoms: P_2  and  O_4 
DOCKED: REMARK    3  A    between atoms: O_3  and  C_13 
DOCKED: REMARK    4  A    between atoms: O_4  and  C_14 
DOCKED: REMARK    5  A    between atoms: C_13  and  C_14 
DOCKED: REMARK    6  A    between atoms: C_13  and  C_15 
DOCKED: USER                              x       y       z     vdW  Elec       q    Type
DOCKED: USER                           _______ _______ _______ _____ _____    ______ ____
DOCKED: ROOT
DOCKED: ATOM      1  C   UNL d   1       3.126  42.107  -1.434 -0.19 +0.13    +0.193 C 
DOCKED: ENDROOT
DOCKED: BRANCH   1   2
DOCKED: ATOM      2  O   UNL d   1       2.138  42.348  -0.376 -0.08 -0.37    -0.356 OA
DOCKED: BRANCH   2   3
DOCKED: ATOM      3  P   UNL d   1       2.498  42.285   1.227 -0.43 -0.02    -0.014 P 
DOCKED: ATOM      4  O   UNL d   1       3.305  43.566   1.489 -0.16 -0.35    -0.577 OA
DOCKED: ATOM      5  O   UNL d   1       3.343  41.033   1.452 -0.61 -1.08    -0.577 OA
DOCKED: ATOM      6  O   UNL d   1       1.186  42.281   2.005 -0.10 -0.97    -0.638 OA
DOCKED: ENDBRANCH   2   3
DOCKED: ENDBRANCH   1   2
DOCKED: BRANCH   1   7
DOCKED: ATOM      7  C   UNL d   1       2.827  43.079  -2.635 -0.12 +0.10    +0.201 C 
DOCKED: BRANCH   7   8
DOCKED: ATOM      8  O   UNL d   1       3.973  43.752  -3.201 -0.16 -0.18    -0.364 OA
DOCKED: BRANCH   8   9
DOCKED: ATOM      9  P   UNL d   1       3.804  45.253  -3.877 -0.39 -0.01    -0.015 P 
DOCKED: ATOM     10  O   UNL d   1       3.645  44.998  -5.380 -0.04 -0.35    -0.577 OA
DOCKED: ATOM     11  O   UNL d   1       5.082  46.030  -3.561 -0.62 -0.74    -0.577 OA
DOCKED: ATOM     12  O   UNL d   1       2.553  45.884  -3.266 -0.04 -0.73    -0.638 OA
DOCKED: ENDBRANCH   8   9
DOCKED: ENDBRANCH   7   8
DOCKED: ENDBRANCH   1   7
DOCKED: BRANCH   1  13
DOCKED: ATOM     13  C   UNL d   1       3.017  40.623  -1.947 -0.20 +0.05    +0.073 C 
DOCKED: ATOM     14  O   UNL d   1       3.553  40.324  -3.072 +0.01 -0.21    -0.547 OA
DOCKED: ATOM     15  O   UNL d   1       2.444  39.778  -1.169 -0.32 -0.82    -0.547 OA
DOCKED: ENDBRANCH   1  13
DOCKED: TORSDOF 6
DOCKED: TER
DOCKED: ENDMDL
________________________________________________________________________________


	BEGINNING GENETIC ALGORITHM DOCKING 37 of 100
Run: 37 Seed: 1878565467 1698435191 [ Run 37 of 100 GA/GALS ]
Beginning LAMARCKIAN GENETIC ALGORITHM (LGA), with a maximum of 25000000 energy evaluations.

Final-Value: -6.748


	FINAL GENETIC ALGORITHM DOCKED STATE
	_______________________________________________


Detailed state:  trans 45.184 24.952 18.443 quatxyzw 0.580875 0.749791 0.213858 0.233799 center 0.015 0.083 0.031 ntor 6 179.6848 -165.2749 51.3471 24.6368 4.5843 35.1159
State:	 45.184  24.952  18.443   0.597  0.771  0.220 152.958    179.68 -165.27   51.35   24.64    4.58   35.12

DOCKED: MODEL       37
DOCKED: USER    Run = 37
DOCKED: USER    DPF = D:/Protein_go_brrr/autodock/final/6BB5/2_3_BPG/dock.dpf
DOCKED: USER  
DOCKED: USER    Estimated Free Energy of Binding    =   -6.89 kcal/mol  [=(1)+(2)+(3)-(4)]
DOCKED: USER    Estimated Inhibition Constant, Ki   =    8.86 uM (micromolar)  [Temperature = 298.15 K]
DOCKED: USER    
DOCKED: USER    (1) Final Intermolecular Energy     =   -8.68 kcal/mol
DOCKED: USER        vdW + Hbond + desolv Energy     =   -3.11 kcal/mol
DOCKED: USER        Electrostatic Energy            =   -5.57 kcal/mol
DOCKED: USER    (2) Final Total Internal Energy     =   +1.93 kcal/mol
DOCKED: USER    (3) Torsional Free Energy           =   +1.79 kcal/mol
DOCKED: USER    (4) Unbound System's Energy  [=(2)] =   +1.93 kcal/mol
DOCKED: USER    
DOCKED: USER    
DOCKED: USER    NEWDPF move 2_3_BPG_opt.pdbqt
DOCKED: USER    NEWDPF about 0.015000 0.083000 0.031000
DOCKED: USER    NEWDPF tran0 45.184132 24.951557 18.443343
DOCKED: USER    NEWDPF quaternion0 0.580875 0.749791 0.213858 0.233799
DOCKED: USER    NEWDPF axisangle0 0.597433 0.771164 0.219954 152.958353
DOCKED: USER    NEWDPF quat0 0.597433 0.771164 0.219954 152.958353
DOCKED: USER    NEWDPF dihe0 179.68 -165.27 51.35 24.64 4.58 35.12 
DOCKED: USER  keepresnum = 1 
DOCKED: USER  
DOCKED: REMARK  6 active torsions:
DOCKED: REMARK  status: ('A' for Active; 'I' for Inactive)
DOCKED: REMARK    1  A    between atoms: P_1  and  O_3 
DOCKED: REMARK    2  A    between atoms: P_2  and  O_4 
DOCKED: REMARK    3  A    between atoms: O_3  and  C_13 
DOCKED: REMARK    4  A    between atoms: O_4  and  C_14 
DOCKED: REMARK    5  A    between atoms: C_13  and  C_14 
DOCKED: REMARK    6  A    between atoms: C_13  and  C_15 
DOCKED: USER                              x       y       z     vdW  Elec       q    Type
DOCKED: USER                           _______ _______ _______ _____ _____    ______ ____
DOCKED: ROOT
DOCKED: ATOM      1  C   UNL d   1      44.998  24.482  18.003 -0.14 +0.08    +0.193 C 
DOCKED: ENDROOT
DOCKED: BRANCH   1   2
DOCKED: ATOM      2  O   UNL d   1      46.065  23.478  17.927 -0.05 -0.20    -0.356 OA
DOCKED: BRANCH   2   3
DOCKED: ATOM      3  P   UNL d   1      47.070  23.324  16.634 -0.29 -0.01    -0.014 P 
DOCKED: ATOM      4  O   UNL d   1      46.794  24.574  15.784 -0.12 -0.42    -0.577 OA
DOCKED: ATOM      5  O   UNL d   1      46.670  22.046  15.900 -0.09 -0.73    -0.577 OA
DOCKED: ATOM      6  O   UNL d   1      48.505  23.305  17.152 -0.53 -0.97    -0.638 OA
DOCKED: ENDBRANCH   2   3
DOCKED: ENDBRANCH   1   2
DOCKED: BRANCH   1   7
DOCKED: ATOM      7  C   UNL d   1      45.279  25.425  19.230 -0.09 +0.10    +0.201 C 
DOCKED: BRANCH   7   8
DOCKED: ATOM      8  O   UNL d   1      44.175  26.257  19.651 -0.11 -0.22    -0.364 OA
DOCKED: BRANCH   8   9
DOCKED: ATOM      9  P   UNL d   1      44.406  27.420  20.804 -0.12 -0.02    -0.015 P 
DOCKED: ATOM     10  O   UNL d   1      43.343  27.139  21.873 -0.58 -1.20    -0.577 OA
DOCKED: ATOM     11  O   UNL d   1      44.187  28.772  20.124 -0.12 -0.51    -0.577 OA
DOCKED: ATOM     12  O   UNL d   1      45.824  27.245  21.345 -0.27 -1.18    -0.638 OA
DOCKED: ENDBRANCH   8   9
DOCKED: ENDBRANCH   7   8
DOCKED: ENDBRANCH   1   7
DOCKED: BRANCH   1  13
DOCKED: ATOM     13  C   UNL d   1      43.607  23.776  18.217 -0.30 +0.02    +0.073 C 
DOCKED: ATOM     14  O   UNL d   1      42.652  24.050  17.408 -0.06 -0.12    -0.547 OA
DOCKED: ATOM     15  O   UNL d   1      43.533  22.910  19.162 -0.26 -0.20    -0.547 OA
DOCKED: ENDBRANCH   1  13
DOCKED: TORSDOF 6
DOCKED: TER
DOCKED: ENDMDL
________________________________________________________________________________


	BEGINNING GENETIC ALGORITHM DOCKING 38 of 100
Run: 38 Seed: 2074743948 1289760969 [ Run 38 of 100 GA/GALS ]
Beginning LAMARCKIAN GENETIC ALGORITHM (LGA), with a maximum of 25000000 energy evaluations.

Final-Value: -6.401


	FINAL GENETIC ALGORITHM DOCKED STATE
	_______________________________________________


Detailed state:  trans 46.606 25.161 20.152 quatxyzw -0.868635 0.299458 0.171786 -0.355371 center 0.015 0.083 0.031 ntor 6 -138.8066 -58.5696 -109.1419 -7.5156 -6.4544 -30.9970
State:	 46.606  25.161  20.152  -0.929  0.320  0.184 -138.368   -138.81  -58.57 -109.14   -7.52   -6.45  -31.00

DOCKED: MODEL       38
DOCKED: USER    Run = 38
DOCKED: USER    DPF = D:/Protein_go_brrr/autodock/final/6BB5/2_3_BPG/dock.dpf
DOCKED: USER  
DOCKED: USER    Estimated Free Energy of Binding    =   -6.64 kcal/mol  [=(1)+(2)+(3)-(4)]
DOCKED: USER    Estimated Inhibition Constant, Ki   =   13.46 uM (micromolar)  [Temperature = 298.15 K]
DOCKED: USER    
DOCKED: USER    (1) Final Intermolecular Energy     =   -8.43 kcal/mol
DOCKED: USER        vdW + Hbond + desolv Energy     =   -2.89 kcal/mol
DOCKED: USER        Electrostatic Energy            =   -5.55 kcal/mol
DOCKED: USER    (2) Final Total Internal Energy     =   +2.03 kcal/mol
DOCKED: USER    (3) Torsional Free Energy           =   +1.79 kcal/mol
DOCKED: USER    (4) Unbound System's Energy  [=(2)] =   +2.03 kcal/mol
DOCKED: USER    
DOCKED: USER    
DOCKED: USER    NEWDPF move 2_3_BPG_opt.pdbqt
DOCKED: USER    NEWDPF about 0.015000 0.083000 0.031000
DOCKED: USER    NEWDPF tran0 46.605508 25.160885 20.152086
DOCKED: USER    NEWDPF quaternion0 -0.868635 0.299458 0.171786 -0.355371
DOCKED: USER    NEWDPF axisangle0 -0.929294 0.320370 0.183782 -138.367647
DOCKED: USER    NEWDPF quat0 -0.929294 0.320370 0.183782 -138.367647
DOCKED: USER    NEWDPF dihe0 -138.81 -58.57 -109.14 -7.52 -6.45 -31.00 
DOCKED: USER  keepresnum = 1 
DOCKED: USER  
DOCKED: REMARK  6 active torsions:
DOCKED: REMARK  status: ('A' for Active; 'I' for Inactive)
DOCKED: REMARK    1  A    between atoms: P_1  and  O_3 
DOCKED: REMARK    2  A    between atoms: P_2  and  O_4 
DOCKED: REMARK    3  A    between atoms: O_3  and  C_13 
DOCKED: REMARK    4  A    between atoms: O_4  and  C_14 
DOCKED: REMARK    5  A    between atoms: C_13  and  C_14 
DOCKED: REMARK    6  A    between atoms: C_13  and  C_15 
DOCKED: USER                              x       y       z     vdW  Elec       q    Type
DOCKED: USER                           _______ _______ _______ _____ _____    ______ ____
DOCKED: ROOT
DOCKED: ATOM      1  C   UNL d   1      46.352  25.638  20.548 -0.06 +0.14    +0.193 C 
DOCKED: ENDROOT
DOCKED: BRANCH   1   2
DOCKED: ATOM      2  O   UNL d   1      45.094  25.140  21.117 -0.07 -0.29    -0.356 OA
DOCKED: BRANCH   2   3
DOCKED: ATOM      3  P   UNL d   1      43.753  26.073  21.298 -0.34 -0.02    -0.014 P 
DOCKED: ATOM      4  O   UNL d   1      42.698  25.406  20.401 -0.09 -0.27    -0.577 OA
DOCKED: ATOM      5  O   UNL d   1      44.106  27.474  20.803 -0.32 -0.76    -0.577 OA
DOCKED: ATOM      6  O   UNL d   1      43.345  26.033  22.767 -0.52 -1.07    -0.638 OA
DOCKED: ENDBRANCH   2   3
DOCKED: ENDBRANCH   1   2
DOCKED: BRANCH   1   7
DOCKED: ATOM      7  C   UNL d   1      47.103  24.441  19.857 -0.02 +0.10    +0.201 C 
DOCKED: BRANCH   7   8
DOCKED: ATOM      8  O   UNL d   1      47.528  24.666  18.495 -0.02 -0.21    -0.364 OA
DOCKED: BRANCH   8   9
DOCKED: ATOM      9  P   UNL d   1      48.400  23.509  17.697 -0.17 -0.02    -0.015 P 
DOCKED: ATOM     10  O   UNL d   1      47.394  22.395  17.383 -0.18 -0.65    -0.577 OA
DOCKED: ATOM     11  O   UNL d   1      49.495  23.036  18.653 -0.04 -0.47    -0.577 OA
DOCKED: ATOM     12  O   UNL d   1      48.953  24.156  16.428 -0.49 -0.90    -0.638 OA
DOCKED: ENDBRANCH   8   9
DOCKED: ENDBRANCH   7   8
DOCKED: ENDBRANCH   1   7
DOCKED: BRANCH   1  13
DOCKED: ATOM     13  C   UNL d   1      47.268  26.218  21.690 -0.06 +0.07    +0.073 C 
DOCKED: ATOM     14  O   UNL d   1      47.093  27.432  22.057 -0.49 -0.87    -0.547 OA
DOCKED: ATOM     15  O   UNL d   1      48.104  25.408  22.233 +0.01 -0.34    -0.547 OA
DOCKED: ENDBRANCH   1  13
DOCKED: TORSDOF 6
DOCKED: TER
DOCKED: ENDMDL
________________________________________________________________________________


	BEGINNING GENETIC ALGORITHM DOCKING 39 of 100
Run: 39 Seed: 1030399723 131433509 [ Run 39 of 100 GA/GALS ]
Beginning LAMARCKIAN GENETIC ALGORITHM (LGA), with a maximum of 25000000 energy evaluations.

Final-Value: -6.778


	FINAL GENETIC ALGORITHM DOCKED STATE
	_______________________________________________


Detailed state:  trans 44.648 24.655 18.607 quatxyzw -0.381402 -0.294085 0.392210 0.783720 center 0.015 0.083 0.031 ntor 6 -180.0000 180.0000 180.0000 29.4561 -14.7323 -27.5549
State:	 44.648  24.655  18.607  -0.614 -0.473  0.631 76.795   -180.00  180.00  180.00   29.46  -14.73  -27.55

DOCKED: MODEL       39
DOCKED: USER    Run = 39
DOCKED: USER    DPF = D:/Protein_go_brrr/autodock/final/6BB5/2_3_BPG/dock.dpf
DOCKED: USER  
DOCKED: USER    Estimated Free Energy of Binding    =   -6.88 kcal/mol  [=(1)+(2)+(3)-(4)]
DOCKED: USER    Estimated Inhibition Constant, Ki   =    9.02 uM (micromolar)  [Temperature = 298.15 K]
DOCKED: USER    
DOCKED: USER    (1) Final Intermolecular Energy     =   -8.67 kcal/mol
DOCKED: USER        vdW + Hbond + desolv Energy     =   -3.41 kcal/mol
DOCKED: USER        Electrostatic Energy            =   -5.27 kcal/mol
DOCKED: USER    (2) Final Total Internal Energy     =   +1.89 kcal/mol
DOCKED: USER    (3) Torsional Free Energy           =   +1.79 kcal/mol
DOCKED: USER    (4) Unbound System's Energy  [=(2)] =   +1.89 kcal/mol
DOCKED: USER    
DOCKED: USER    
DOCKED: USER    NEWDPF move 2_3_BPG_opt.pdbqt
DOCKED: USER    NEWDPF about 0.015000 0.083000 0.031000
DOCKED: USER    NEWDPF tran0 44.648225 24.655116 18.606863
DOCKED: USER    NEWDPF quaternion0 -0.381402 -0.294085 0.392210 0.783720
DOCKED: USER    NEWDPF axisangle0 -0.614061 -0.473480 0.631463 76.795042
DOCKED: USER    NEWDPF quat0 -0.614061 -0.473480 0.631463 76.795042
DOCKED: USER    NEWDPF dihe0 -180.00 180.00 180.00 29.46 -14.73 -27.55 
DOCKED: USER  keepresnum = 1 
DOCKED: USER  
DOCKED: REMARK  6 active torsions:
DOCKED: REMARK  status: ('A' for Active; 'I' for Inactive)
DOCKED: REMARK    1  A    between atoms: P_1  and  O_3 
DOCKED: REMARK    2  A    between atoms: P_2  and  O_4 
DOCKED: REMARK    3  A    between atoms: O_3  and  C_13 
DOCKED: REMARK    4  A    between atoms: O_4  and  C_14 
DOCKED: REMARK    5  A    between atoms: C_13  and  C_14 
DOCKED: REMARK    6  A    between atoms: C_13  and  C_15 
DOCKED: USER                              x       y       z     vdW  Elec       q    Type
DOCKED: USER                           _______ _______ _______ _____ _____    ______ ____
DOCKED: ROOT
DOCKED: ATOM      1  C   UNL d   1      44.097  24.682  18.988 -0.18 +0.08    +0.193 C 
DOCKED: ENDROOT
DOCKED: BRANCH   1   2
DOCKED: ATOM      2  O   UNL d   1      44.117  25.945  19.734 -0.11 -0.21    -0.356 OA
DOCKED: BRANCH   2   3
DOCKED: ATOM      3  P   UNL d   1      44.524  26.047  21.324 -0.26 -0.02    -0.014 P 
DOCKED: ATOM      4  O   UNL d   1      44.735  24.589  21.760 -0.03 -0.44    -0.577 OA
DOCKED: ATOM      5  O   UNL d   1      43.344  26.686  22.053 -0.76 -1.08    -0.577 OA
DOCKED: ATOM      6  O   UNL d   1      45.813  26.855  21.429 -0.25 -1.08    -0.638 OA
DOCKED: ENDBRANCH   2   3
DOCKED: ENDBRANCH   1   2
DOCKED: BRANCH   1   7
DOCKED: ATOM      7  C   UNL d   1      45.216  24.730  17.883 -0.13 +0.09    +0.201 C 
DOCKED: BRANCH   7   8
DOCKED: ATOM      8  O   UNL d   1      46.076  23.571  17.806 -0.05 -0.20    -0.364 OA
DOCKED: BRANCH   8   9
DOCKED: ATOM      9  P   UNL d   1      47.091  23.377  16.514 -0.31 -0.02    -0.015 P 
DOCKED: ATOM     10  O   UNL d   1      46.886  24.629  15.653 -0.07 -0.43    -0.577 OA
DOCKED: ATOM     11  O   UNL d   1      46.651  22.106  15.788 -0.08 -0.73    -0.577 OA
DOCKED: ATOM     12  O   UNL d   1      48.513  23.288  17.068 -0.56 -1.02    -0.638 OA
DOCKED: ENDBRANCH   8   9
DOCKED: ENDBRANCH   7   8
DOCKED: ENDBRANCH   1   7
DOCKED: BRANCH   1  13
DOCKED: ATOM     13  C   UNL d   1      42.702  24.493  18.284 -0.38 +0.02    +0.073 C 
DOCKED: ATOM     14  O   UNL d   1      42.053  23.409  18.493 -0.15 -0.11    -0.547 OA
DOCKED: ATOM     15  O   UNL d   1      42.265  25.477  17.584 -0.07 -0.13    -0.547 OA
DOCKED: ENDBRANCH   1  13
DOCKED: TORSDOF 6
DOCKED: TER
DOCKED: ENDMDL
________________________________________________________________________________


	BEGINNING GENETIC ALGORITHM DOCKING 40 of 100
Run: 40 Seed: 579881657 1645017010 [ Run 40 of 100 GA/GALS ]
Beginning LAMARCKIAN GENETIC ALGORITHM (LGA), with a maximum of 25000000 energy evaluations.

Final-Value: -7.115


	FINAL GENETIC ALGORITHM DOCKED STATE
	_______________________________________________


Detailed state:  trans 45.747 24.721 19.317 quatxyzw -0.266165 0.447677 -0.253908 -0.815029 center 0.015 0.083 0.031 ntor 6 26.1420 -22.3000 163.2705 -12.4559 12.2632 11.0811
State:	 45.747  24.721  19.317  -0.459  0.773 -0.438 -70.820     26.14  -22.30  163.27  -12.46   12.26   11.08

DOCKED: MODEL       40
DOCKED: USER    Run = 40
DOCKED: USER    DPF = D:/Protein_go_brrr/autodock/final/6BB5/2_3_BPG/dock.dpf
DOCKED: USER  
DOCKED: USER    Estimated Free Energy of Binding    =   -7.36 kcal/mol  [=(1)+(2)+(3)-(4)]
DOCKED: USER    Estimated Inhibition Constant, Ki   =    4.02 uM (micromolar)  [Temperature = 298.15 K]
DOCKED: USER    
DOCKED: USER    (1) Final Intermolecular Energy     =   -9.15 kcal/mol
DOCKED: USER        vdW + Hbond + desolv Energy     =   -3.05 kcal/mol
DOCKED: USER        Electrostatic Energy            =   -6.10 kcal/mol
DOCKED: USER    (2) Final Total Internal Energy     =   +2.04 kcal/mol
DOCKED: USER    (3) Torsional Free Energy           =   +1.79 kcal/mol
DOCKED: USER    (4) Unbound System's Energy  [=(2)] =   +2.04 kcal/mol
DOCKED: USER    
DOCKED: USER    
DOCKED: USER    NEWDPF move 2_3_BPG_opt.pdbqt
DOCKED: USER    NEWDPF about 0.015000 0.083000 0.031000
DOCKED: USER    NEWDPF tran0 45.747227 24.720823 19.317431
DOCKED: USER    NEWDPF quaternion0 -0.266165 0.447677 -0.253908 -0.815029
DOCKED: USER    NEWDPF axisangle0 -0.459364 0.772630 -0.438210 -70.819505
DOCKED: USER    NEWDPF quat0 -0.459364 0.772630 -0.438210 -70.819505
DOCKED: USER    NEWDPF dihe0 26.14 -22.30 163.27 -12.46 12.26 11.08 
DOCKED: USER  keepresnum = 1 
DOCKED: USER  
DOCKED: REMARK  6 active torsions:
DOCKED: REMARK  status: ('A' for Active; 'I' for Inactive)
DOCKED: REMARK    1  A    between atoms: P_1  and  O_3 
DOCKED: REMARK    2  A    between atoms: P_2  and  O_4 
DOCKED: REMARK    3  A    between atoms: O_3  and  C_13 
DOCKED: REMARK    4  A    between atoms: O_4  and  C_14 
DOCKED: REMARK    5  A    between atoms: C_13  and  C_14 
DOCKED: REMARK    6  A    between atoms: C_13  and  C_15 
DOCKED: USER                              x       y       z     vdW  Elec       q    Type
DOCKED: USER                           _______ _______ _______ _____ _____    ______ ____
DOCKED: ROOT
DOCKED: ATOM      1  C   UNL d   1      45.497  24.895  19.915 -0.09 +0.11    +0.193 C 
DOCKED: ENDROOT
DOCKED: BRANCH   1   2
DOCKED: ATOM      2  O   UNL d   1      44.588  26.029  19.717 -0.08 -0.22    -0.356 OA
DOCKED: BRANCH   2   3
DOCKED: ATOM      3  P   UNL d   1      44.419  27.251  20.805 -0.19 -0.02    -0.014 P 
DOCKED: ATOM      4  O   UNL d   1      43.963  28.453  19.963 -0.14 -0.48    -0.577 OA
DOCKED: ATOM      5  O   UNL d   1      45.791  27.492  21.431 -0.21 -1.19    -0.577 OA
DOCKED: ATOM      6  O   UNL d   1      43.353  26.839  21.815 -0.59 -1.15    -0.638 OA
DOCKED: ENDBRANCH   2   3
DOCKED: ENDBRANCH   1   2
DOCKED: BRANCH   1   7
DOCKED: ATOM      7  C   UNL d   1      45.864  24.290  18.509 -0.09 +0.10    +0.201 C 
DOCKED: BRANCH   7   8
DOCKED: ATOM      8  O   UNL d   1      46.916  23.300  18.503 -0.03 -0.22    -0.364 OA
DOCKED: BRANCH   8   9
DOCKED: ATOM      9  P   UNL d   1      47.646  22.874  17.081 -0.06 -0.02    -0.015 P 
DOCKED: ATOM     10  O   UNL d   1      46.730  23.425  15.982 -0.13 -0.57    -0.577 OA
DOCKED: ATOM     11  O   UNL d   1      47.715  21.348  17.056 -0.11 -0.87    -0.577 OA
DOCKED: ATOM     12  O   UNL d   1      49.023  23.536  17.066 -0.58 -1.00    -0.638 OA
DOCKED: ENDBRANCH   8   9
DOCKED: ENDBRANCH   7   8
DOCKED: ENDBRANCH   1   7
DOCKED: BRANCH   1  13
DOCKED: ATOM     13  C   UNL d   1      44.792  23.780  20.774 -0.21 +0.04    +0.073 C 
DOCKED: ATOM     14  O   UNL d   1      43.969  22.989  20.193 -0.49 -0.29    -0.547 OA
DOCKED: ATOM     15  O   UNL d   1      45.136  23.691  22.008 -0.06 -0.31    -0.547 OA
DOCKED: ENDBRANCH   1  13
DOCKED: TORSDOF 6
DOCKED: TER
DOCKED: ENDMDL
________________________________________________________________________________


	BEGINNING GENETIC ALGORITHM DOCKING 41 of 100
Run: 41 Seed: 96246751 169069803 [ Run 41 of 100 GA/GALS ]
Beginning LAMARCKIAN GENETIC ALGORITHM (LGA), with a maximum of 25000000 energy evaluations.

Final-Value: -6.527


	FINAL GENETIC ALGORITHM DOCKED STATE
	_______________________________________________


Detailed state:  trans 45.381 24.994 18.302 quatxyzw 0.562002 0.692783 0.410737 0.188417 center 0.015 0.083 0.031 ntor 6 -179.6942 -155.4703 62.2184 23.1076 20.5077 37.2018
State:	 45.381  24.994  18.302   0.572  0.705  0.418 158.279   -179.69 -155.47   62.22   23.11   20.51   37.20

DOCKED: MODEL       41
DOCKED: USER    Run = 41
DOCKED: USER    DPF = D:/Protein_go_brrr/autodock/final/6BB5/2_3_BPG/dock.dpf
DOCKED: USER  
DOCKED: USER    Estimated Free Energy of Binding    =   -6.68 kcal/mol  [=(1)+(2)+(3)-(4)]
DOCKED: USER    Estimated Inhibition Constant, Ki   =   12.68 uM (micromolar)  [Temperature = 298.15 K]
DOCKED: USER    
DOCKED: USER    (1) Final Intermolecular Energy     =   -8.47 kcal/mol
DOCKED: USER        vdW + Hbond + desolv Energy     =   -2.90 kcal/mol
DOCKED: USER        Electrostatic Energy            =   -5.57 kcal/mol
DOCKED: USER    (2) Final Total Internal Energy     =   +1.94 kcal/mol
DOCKED: USER    (3) Torsional Free Energy           =   +1.79 kcal/mol
DOCKED: USER    (4) Unbound System's Energy  [=(2)] =   +1.94 kcal/mol
DOCKED: USER    
DOCKED: USER    
DOCKED: USER    NEWDPF move 2_3_BPG_opt.pdbqt
DOCKED: USER    NEWDPF about 0.015000 0.083000 0.031000
DOCKED: USER    NEWDPF tran0 45.381094 24.994068 18.302196
DOCKED: USER    NEWDPF quaternion0 0.562002 0.692783 0.410737 0.188417
DOCKED: USER    NEWDPF axisangle0 0.572252 0.705417 0.418228 158.279186
DOCKED: USER    NEWDPF quat0 0.572252 0.705417 0.418228 158.279186
DOCKED: USER    NEWDPF dihe0 -179.69 -155.47 62.22 23.11 20.51 37.20 
DOCKED: USER  keepresnum = 1 
DOCKED: USER  
DOCKED: REMARK  6 active torsions:
DOCKED: REMARK  status: ('A' for Active; 'I' for Inactive)
DOCKED: REMARK    1  A    between atoms: P_1  and  O_3 
DOCKED: REMARK    2  A    between atoms: P_2  and  O_4 
DOCKED: REMARK    3  A    between atoms: O_3  and  C_13 
DOCKED: REMARK    4  A    between atoms: O_4  and  C_14 
DOCKED: REMARK    5  A    between atoms: C_13  and  C_14 
DOCKED: REMARK    6  A    between atoms: C_13  and  C_15 
DOCKED: USER                              x       y       z     vdW  Elec       q    Type
DOCKED: USER                           _______ _______ _______ _____ _____    ______ ____
DOCKED: ROOT
DOCKED: ATOM      1  C   UNL d   1      45.283  24.691  17.712 -0.14 +0.08    +0.193 C 
DOCKED: ENDROOT
DOCKED: BRANCH   1   2
DOCKED: ATOM      2  O   UNL d   1      46.211  23.559  17.619 -0.06 -0.21    -0.356 OA
DOCKED: BRANCH   2   3
DOCKED: ATOM      3  P   UNL d   1      47.507  23.535  16.607 -0.21 -0.02    -0.014 P 
DOCKED: ATOM      4  O   UNL d   1      47.770  25.014  16.286 -0.05 -0.44    -0.577 OA
DOCKED: ATOM      5  O   UNL d   1      47.093  22.755  15.360 -0.15 -0.88    -0.577 OA
DOCKED: ATOM      6  O   UNL d   1      48.678  22.906  17.355 -0.44 -1.06    -0.638 OA
DOCKED: ENDBRANCH   2   3
DOCKED: ENDBRANCH   1   2
DOCKED: BRANCH   1   7
DOCKED: ATOM      7  C   UNL d   1      45.292  25.231  19.190 -0.09 +0.10    +0.201 C 
DOCKED: BRANCH   7   8
DOCKED: ATOM      8  O   UNL d   1      44.184  26.083  19.557 -0.10 -0.21    -0.364 OA
DOCKED: BRANCH   8   9
DOCKED: ATOM      9  P   UNL d   1      44.341  27.156  20.806 -0.21 -0.02    -0.015 P 
DOCKED: ATOM     10  O   UNL d   1      43.343  26.679  21.869 -0.70 -0.99    -0.577 OA
DOCKED: ATOM     11  O   UNL d   1      43.975  28.535  20.258 -0.18 -0.56    -0.577 OA
DOCKED: ATOM     12  O   UNL d   1      45.786  27.070  21.296 -0.24 -1.09    -0.638 OA
DOCKED: ENDBRANCH   8   9
DOCKED: ENDBRANCH   7   8
DOCKED: ENDBRANCH   1   7
DOCKED: BRANCH   1  13
DOCKED: ATOM     13  C   UNL d   1      43.823  24.224  17.355 -0.27 +0.02    +0.073 C 
DOCKED: ATOM     14  O   UNL d   1      43.186  24.854  16.440 -0.03 -0.14    -0.547 OA
DOCKED: ATOM     15  O   UNL d   1      43.377  23.186  17.967 -0.06 -0.15    -0.547 OA
DOCKED: ENDBRANCH   1  13
DOCKED: TORSDOF 6
DOCKED: TER
DOCKED: ENDMDL
________________________________________________________________________________


	BEGINNING GENETIC ALGORITHM DOCKING 42 of 100
Run: 42 Seed: 828842311 230463228 [ Run 42 of 100 GA/GALS ]
Beginning LAMARCKIAN GENETIC ALGORITHM (LGA), with a maximum of 25000000 energy evaluations.

Final-Value: -6.318


	FINAL GENETIC ALGORITHM DOCKED STATE
	_______________________________________________


Detailed state:  trans 46.371 26.319 19.789 quatxyzw -0.904066 -0.032907 0.418536 0.080056 center 0.015 0.083 0.031 ntor 6 157.9985 13.0277 -158.2107 1.7884 -47.0954 -75.1433
State:	 46.371  26.319  19.789  -0.907 -0.033  0.420 170.816    158.00   13.03 -158.21    1.79  -47.10  -75.14

DOCKED: MODEL       42
DOCKED: USER    Run = 42
DOCKED: USER    DPF = D:/Protein_go_brrr/autodock/final/6BB5/2_3_BPG/dock.dpf
DOCKED: USER  
DOCKED: USER    Estimated Free Energy of Binding    =   -6.53 kcal/mol  [=(1)+(2)+(3)-(4)]
DOCKED: USER    Estimated Inhibition Constant, Ki   =   16.26 uM (micromolar)  [Temperature = 298.15 K]
DOCKED: USER    
DOCKED: USER    (1) Final Intermolecular Energy     =   -8.32 kcal/mol
DOCKED: USER        vdW + Hbond + desolv Energy     =   -3.01 kcal/mol
DOCKED: USER        Electrostatic Energy            =   -5.32 kcal/mol
DOCKED: USER    (2) Final Total Internal Energy     =   +2.01 kcal/mol
DOCKED: USER    (3) Torsional Free Energy           =   +1.79 kcal/mol
DOCKED: USER    (4) Unbound System's Energy  [=(2)] =   +2.01 kcal/mol
DOCKED: USER    
DOCKED: USER    
DOCKED: USER    NEWDPF move 2_3_BPG_opt.pdbqt
DOCKED: USER    NEWDPF about 0.015000 0.083000 0.031000
DOCKED: USER    NEWDPF tran0 46.371252 26.318962 19.789395
DOCKED: USER    NEWDPF quaternion0 -0.904066 -0.032907 0.418536 0.080056
DOCKED: USER    NEWDPF axisangle0 -0.906977 -0.033013 0.419884 170.816411
DOCKED: USER    NEWDPF quat0 -0.906977 -0.033013 0.419884 170.816411
DOCKED: USER    NEWDPF dihe0 158.00 13.03 -158.21 1.79 -47.10 -75.14 
DOCKED: USER  keepresnum = 1 
DOCKED: USER  
DOCKED: REMARK  6 active torsions:
DOCKED: REMARK  status: ('A' for Active; 'I' for Inactive)
DOCKED: REMARK    1  A    between atoms: P_1  and  O_3 
DOCKED: REMARK    2  A    between atoms: P_2  and  O_4 
DOCKED: REMARK    3  A    between atoms: O_3  and  C_13 
DOCKED: REMARK    4  A    between atoms: O_4  and  C_14 
DOCKED: REMARK    5  A    between atoms: C_13  and  C_14 
DOCKED: REMARK    6  A    between atoms: C_13  and  C_15 
DOCKED: USER                              x       y       z     vdW  Elec       q    Type
DOCKED: USER                           _______ _______ _______ _____ _____    ______ ____
DOCKED: ROOT
DOCKED: ATOM      1  C   UNL d   1      45.882  26.615  20.140 -0.10 +0.15    +0.193 C 
DOCKED: ENDROOT
DOCKED: BRANCH   1   2
DOCKED: ATOM      2  O   UNL d   1      45.787  25.947  21.443 -0.12 -0.42    -0.356 OA
DOCKED: BRANCH   2   3
DOCKED: ATOM      3  P   UNL d   1      44.369  25.411  22.081 -0.30 -0.02    -0.014 P 
DOCKED: ATOM      4  O   UNL d   1      44.725  25.007  23.520 -0.01 -0.70    -0.577 OA
DOCKED: ATOM      5  O   UNL d   1      43.927  24.206  21.252 -0.06 -0.33    -0.577 OA
DOCKED: ATOM      6  O   UNL d   1      43.373  26.566  22.054 -0.67 -1.14    -0.638 OA
DOCKED: ENDBRANCH   2   3
DOCKED: ENDBRANCH   1   2
DOCKED: BRANCH   1   7
DOCKED: ATOM      7  C   UNL d   1      47.199  26.137  19.424 -0.04 +0.11    +0.201 C 
DOCKED: BRANCH   7   8
DOCKED: ATOM      8  O   UNL d   1      47.103  24.896  18.690 -0.02 -0.19    -0.364 OA
DOCKED: BRANCH   8   9
DOCKED: ATOM      9  P   UNL d   1      47.776  24.769  17.184 -0.27 -0.01    -0.015 P 
DOCKED: ATOM     10  O   UNL d   1      48.878  25.835  17.148 -0.05 -0.33    -0.577 OA
DOCKED: ATOM     11  O   UNL d   1      46.667  25.060  16.174 -0.07 -0.34    -0.577 OA
DOCKED: ATOM     12  O   UNL d   1      48.342  23.354  17.061 -0.60 -0.94    -0.638 OA
DOCKED: ENDBRANCH   8   9
DOCKED: ENDBRANCH   7   8
DOCKED: ENDBRANCH   1   7
DOCKED: BRANCH   1  13
DOCKED: ATOM     13  C   UNL d   1      45.953  28.175  20.337 -0.14 +0.07    +0.073 C 
DOCKED: ATOM     14  O   UNL d   1      45.441  28.928  19.436 -0.03 -0.34    -0.547 OA
DOCKED: ATOM     15  O   UNL d   1      46.469  28.601  21.432 -0.53 -0.89    -0.547 OA
DOCKED: ENDBRANCH   1  13
DOCKED: TORSDOF 6
DOCKED: TER
DOCKED: ENDMDL
________________________________________________________________________________


	BEGINNING GENETIC ALGORITHM DOCKING 43 of 100
Run: 43 Seed: 657243034 498159827 [ Run 43 of 100 GA/GALS ]
Beginning LAMARCKIAN GENETIC ALGORITHM (LGA), with a maximum of 25000000 energy evaluations.

Final-Value: -6.926


	FINAL GENETIC ALGORITHM DOCKED STATE
	_______________________________________________


Detailed state:  trans 46.074 24.672 19.588 quatxyzw 0.255515 -0.373292 0.195695 0.870097 center 0.015 0.083 0.031 ntor 6 -173.9892 -28.9368 -88.8875 4.1486 12.9643 1.6638
State:	 46.074  24.672  19.588   0.518 -0.757  0.397 59.060   -173.99  -28.94  -88.89    4.15   12.96    1.66

DOCKED: MODEL       43
DOCKED: USER    Run = 43
DOCKED: USER    DPF = D:/Protein_go_brrr/autodock/final/6BB5/2_3_BPG/dock.dpf
DOCKED: USER  
DOCKED: USER    Estimated Free Energy of Binding    =   -7.06 kcal/mol  [=(1)+(2)+(3)-(4)]
DOCKED: USER    Estimated Inhibition Constant, Ki   =    6.71 uM (micromolar)  [Temperature = 298.15 K]
DOCKED: USER    
DOCKED: USER    (1) Final Intermolecular Energy     =   -8.85 kcal/mol
DOCKED: USER        vdW + Hbond + desolv Energy     =   -3.04 kcal/mol
DOCKED: USER        Electrostatic Energy            =   -5.81 kcal/mol
DOCKED: USER    (2) Final Total Internal Energy     =   +1.92 kcal/mol
DOCKED: USER    (3) Torsional Free Energy           =   +1.79 kcal/mol
DOCKED: USER    (4) Unbound System's Energy  [=(2)] =   +1.92 kcal/mol
DOCKED: USER    
DOCKED: USER    
DOCKED: USER    NEWDPF move 2_3_BPG_opt.pdbqt
DOCKED: USER    NEWDPF about 0.015000 0.083000 0.031000
DOCKED: USER    NEWDPF tran0 46.073558 24.671510 19.588471
DOCKED: USER    NEWDPF quaternion0 0.255515 -0.373292 0.195695 0.870097
DOCKED: USER    NEWDPF axisangle0 0.518411 -0.757368 0.397044 59.060239
DOCKED: USER    NEWDPF quat0 0.518411 -0.757368 0.397044 59.060239
DOCKED: USER    NEWDPF dihe0 -173.99 -28.94 -88.89 4.15 12.96 1.66 
DOCKED: USER  keepresnum = 1 
DOCKED: USER  
DOCKED: REMARK  6 active torsions:
DOCKED: REMARK  status: ('A' for Active; 'I' for Inactive)
DOCKED: REMARK    1  A    between atoms: P_1  and  O_3 
DOCKED: REMARK    2  A    between atoms: P_2  and  O_4 
DOCKED: REMARK    3  A    between atoms: O_3  and  C_13 
DOCKED: REMARK    4  A    between atoms: O_4  and  C_14 
DOCKED: REMARK    5  A    between atoms: C_13  and  C_14 
DOCKED: REMARK    6  A    between atoms: C_13  and  C_15 
DOCKED: USER                              x       y       z     vdW  Elec       q    Type
DOCKED: USER                           _______ _______ _______ _____ _____    ______ ____
DOCKED: ROOT
DOCKED: ATOM      1  C   UNL d   1      45.719  24.763  20.150 -0.08 +0.11    +0.193 C 
DOCKED: ENDROOT
DOCKED: BRANCH   1   2
DOCKED: ATOM      2  O   UNL d   1      44.679  25.762  19.876 -0.07 -0.22    -0.356 OA
DOCKED: BRANCH   2   3
DOCKED: ATOM      3  P   UNL d   1      44.441  27.096  20.807 -0.22 -0.02    -0.014 P 
DOCKED: ATOM      4  O   UNL d   1      43.967  28.173  19.819 -0.11 -0.45    -0.577 OA
DOCKED: ATOM      5  O   UNL d   1      45.787  27.459  21.431 -0.21 -1.18    -0.577 OA
DOCKED: ATOM      6  O   UNL d   1      43.363  26.766  21.835 -0.60 -1.13    -0.638 OA
DOCKED: ENDBRANCH   2   3
DOCKED: ENDBRANCH   1   2
DOCKED: BRANCH   1   7
DOCKED: ATOM      7  C   UNL d   1      46.367  24.322  18.786 -0.06 +0.10    +0.201 C 
DOCKED: BRANCH   7   8
DOCKED: ATOM      8  O   UNL d   1      47.660  23.685  18.880 -0.02 -0.22    -0.364 OA
DOCKED: BRANCH   8   9
DOCKED: ATOM      9  P   UNL d   1      48.612  23.537  17.535 -0.07 -0.02    -0.015 P 
DOCKED: ATOM     10  O   UNL d   1      49.524  24.769  17.554 -0.06 -0.43    -0.577 OA
DOCKED: ATOM     11  O   UNL d   1      47.678  23.537  16.326 -0.48 -0.79    -0.577 OA
DOCKED: ATOM     12  O   UNL d   1      49.401  22.236  17.682 -0.27 -1.03    -0.638 OA
DOCKED: ENDBRANCH   8   9
DOCKED: ENDBRANCH   7   8
DOCKED: ENDBRANCH   1   7
DOCKED: BRANCH   1  13
DOCKED: ATOM     13  C   UNL d   1      45.083  23.498  20.839 -0.19 +0.04    +0.073 C 
DOCKED: ATOM     14  O   UNL d   1      45.501  23.161  22.002 -0.09 -0.26    -0.547 OA
DOCKED: ATOM     15  O   UNL d   1      44.129  22.911  20.212 -0.51 -0.29    -0.547 OA
DOCKED: ENDBRANCH   1  13
DOCKED: TORSDOF 6
DOCKED: TER
DOCKED: ENDMDL
________________________________________________________________________________


	BEGINNING GENETIC ALGORITHM DOCKING 44 of 100
Run: 44 Seed: 2111733883 2043012511 [ Run 44 of 100 GA/GALS ]
Beginning LAMARCKIAN GENETIC ALGORITHM (LGA), with a maximum of 25000000 energy evaluations.

Final-Value: -6.713


	FINAL GENETIC ALGORITHM DOCKED STATE
	_______________________________________________


Detailed state:  trans 46.159 24.698 19.146 quatxyzw -0.505926 -0.766007 0.229464 -0.323449 center 0.015 0.083 0.031 ntor 6 -178.9055 -43.5121 -58.9972 40.6467 -44.1569 3.4427
State:	 46.159  24.698  19.146  -0.535 -0.810  0.242 -142.257   -178.91  -43.51  -59.00   40.65  -44.16    3.44

DOCKED: MODEL       44
DOCKED: USER    Run = 44
DOCKED: USER    DPF = D:/Protein_go_brrr/autodock/final/6BB5/2_3_BPG/dock.dpf
DOCKED: USER  
DOCKED: USER    Estimated Free Energy of Binding    =   -6.87 kcal/mol  [=(1)+(2)+(3)-(4)]
DOCKED: USER    Estimated Inhibition Constant, Ki   =    9.24 uM (micromolar)  [Temperature = 298.15 K]
DOCKED: USER    
DOCKED: USER    (1) Final Intermolecular Energy     =   -8.66 kcal/mol
DOCKED: USER        vdW + Hbond + desolv Energy     =   -2.89 kcal/mol
DOCKED: USER        Electrostatic Energy            =   -5.77 kcal/mol
DOCKED: USER    (2) Final Total Internal Energy     =   +1.94 kcal/mol
DOCKED: USER    (3) Torsional Free Energy           =   +1.79 kcal/mol
DOCKED: USER    (4) Unbound System's Energy  [=(2)] =   +1.94 kcal/mol
DOCKED: USER    
DOCKED: USER    
DOCKED: USER    NEWDPF move 2_3_BPG_opt.pdbqt
DOCKED: USER    NEWDPF about 0.015000 0.083000 0.031000
DOCKED: USER    NEWDPF tran0 46.159393 24.698343 19.146036
DOCKED: USER    NEWDPF quaternion0 -0.505926 -0.766007 0.229464 -0.323449
DOCKED: USER    NEWDPF axisangle0 -0.534666 -0.809522 0.242499 -142.256695
DOCKED: USER    NEWDPF quat0 -0.534666 -0.809522 0.242499 -142.256695
DOCKED: USER    NEWDPF dihe0 -178.91 -43.51 -59.00 40.65 -44.16 3.44 
DOCKED: USER  keepresnum = 1 
DOCKED: USER  
DOCKED: REMARK  6 active torsions:
DOCKED: REMARK  status: ('A' for Active; 'I' for Inactive)
DOCKED: REMARK    1  A    between atoms: P_1  and  O_3 
DOCKED: REMARK    2  A    between atoms: P_2  and  O_4 
DOCKED: REMARK    3  A    between atoms: O_3  and  C_13 
DOCKED: REMARK    4  A    between atoms: O_4  and  C_14 
DOCKED: REMARK    5  A    between atoms: C_13  and  C_14 
DOCKED: REMARK    6  A    between atoms: C_13  and  C_15 
DOCKED: USER                              x       y       z     vdW  Elec       q    Type
DOCKED: USER                           _______ _______ _______ _____ _____    ______ ____
DOCKED: ROOT
DOCKED: ATOM      1  C   UNL d   1      46.060  24.035  19.140 -0.07 +0.09    +0.193 C 
DOCKED: ENDROOT
DOCKED: BRANCH   1   2
DOCKED: ATOM      2  O   UNL d   1      47.320  23.387  18.762 -0.02 -0.22    -0.356 OA
DOCKED: BRANCH   2   3
DOCKED: ATOM      3  P   UNL d   1      47.716  23.018  17.209 -0.11 -0.02    -0.014 P 
DOCKED: ATOM      4  O   UNL d   1      49.155  23.534  17.048 -0.56 -0.92    -0.577 OA
DOCKED: ATOM      5  O   UNL d   1      46.745  23.772  16.303 -0.12 -0.49    -0.577 OA
DOCKED: ATOM      6  O   UNL d   1      47.644  21.503  17.052 -0.12 -0.95    -0.638 OA
DOCKED: ENDBRANCH   2   3
DOCKED: ENDBRANCH   1   2
DOCKED: BRANCH   1   7
DOCKED: ATOM      7  C   UNL d   1      46.343  25.553  19.443 -0.05 +0.11    +0.201 C 
DOCKED: BRANCH   7   8
DOCKED: ATOM      8  O   UNL d   1      45.188  26.420  19.454 -0.05 -0.22    -0.364 OA
DOCKED: BRANCH   8   9
DOCKED: ATOM      9  P   UNL d   1      45.046  27.598  20.608 -0.10 -0.02    -0.015 P 
DOCKED: ATOM     10  O   UNL d   1      44.894  28.907  19.824 -0.06 -0.44    -0.577 OA
DOCKED: ATOM     11  O   UNL d   1      46.333  27.572  21.432 -0.48 -1.00    -0.577 OA
DOCKED: ATOM     12  O   UNL d   1      43.801  27.274  21.432 -0.45 -1.18    -0.638 OA
DOCKED: ENDBRANCH   8   9
DOCKED: ENDBRANCH   7   8
DOCKED: ENDBRANCH   1   7
DOCKED: BRANCH   1  13
DOCKED: ATOM     13  C   UNL d   1      45.474  23.363  20.437 -0.16 +0.04    +0.073 C 
DOCKED: ATOM     14  O   UNL d   1      44.277  22.909  20.403 -0.54 -0.29    -0.547 OA
DOCKED: ATOM     15  O   UNL d   1      46.264  23.253  21.443 -0.02 -0.26    -0.547 OA
DOCKED: ENDBRANCH   1  13
DOCKED: TORSDOF 6
DOCKED: TER
DOCKED: ENDMDL
________________________________________________________________________________


	BEGINNING GENETIC ALGORITHM DOCKING 45 of 100
Run: 45 Seed: 1354123933 1019567355 [ Run 45 of 100 GA/GALS ]
Beginning LAMARCKIAN GENETIC ALGORITHM (LGA), with a maximum of 25000000 energy evaluations.

Final-Value: -6.685


	FINAL GENETIC ALGORITHM DOCKED STATE
	_______________________________________________


Detailed state:  trans 3.280 42.700 -1.566 quatxyzw 0.087261 0.522522 0.017262 -0.847973 center 0.015 0.083 0.031 ntor 6 -160.3419 67.4392 -29.2899 -22.7649 -6.6124 -142.5671
State:	  3.280  42.700  -1.566   0.165  0.986  0.033 -64.016   -160.34   67.44  -29.29  -22.76   -6.61 -142.57

DOCKED: MODEL       45
DOCKED: USER    Run = 45
DOCKED: USER    DPF = D:/Protein_go_brrr/autodock/final/6BB5/2_3_BPG/dock.dpf
DOCKED: USER  
DOCKED: USER    Estimated Free Energy of Binding    =   -7.12 kcal/mol  [=(1)+(2)+(3)-(4)]
DOCKED: USER    Estimated Inhibition Constant, Ki   =    6.02 uM (micromolar)  [Temperature = 298.15 K]
DOCKED: USER    
DOCKED: USER    (1) Final Intermolecular Energy     =   -8.91 kcal/mol
DOCKED: USER        vdW + Hbond + desolv Energy     =   -3.10 kcal/mol
DOCKED: USER        Electrostatic Energy            =   -5.82 kcal/mol
DOCKED: USER    (2) Final Total Internal Energy     =   +2.23 kcal/mol
DOCKED: USER    (3) Torsional Free Energy           =   +1.79 kcal/mol
DOCKED: USER    (4) Unbound System's Energy  [=(2)] =   +2.23 kcal/mol
DOCKED: USER    
DOCKED: USER    
DOCKED: USER    NEWDPF move 2_3_BPG_opt.pdbqt
DOCKED: USER    NEWDPF about 0.015000 0.083000 0.031000
DOCKED: USER    NEWDPF tran0 3.279808 42.700288 -1.566415
DOCKED: USER    NEWDPF quaternion0 0.087261 0.522522 0.017262 -0.847973
DOCKED: USER    NEWDPF axisangle0 0.164631 0.985817 0.032568 -64.016274
DOCKED: USER    NEWDPF quat0 0.164631 0.985817 0.032568 -64.016274
DOCKED: USER    NEWDPF dihe0 -160.34 67.44 -29.29 -22.76 -6.61 -142.57 
DOCKED: USER  keepresnum = 1 
DOCKED: USER  
DOCKED: REMARK  6 active torsions:
DOCKED: REMARK  status: ('A' for Active; 'I' for Inactive)
DOCKED: REMARK    1  A    between atoms: P_1  and  O_3 
DOCKED: REMARK    2  A    between atoms: P_2  and  O_4 
DOCKED: REMARK    3  A    between atoms: O_3  and  C_13 
DOCKED: REMARK    4  A    between atoms: O_4  and  C_14 
DOCKED: REMARK    5  A    between atoms: C_13  and  C_14 
DOCKED: REMARK    6  A    between atoms: C_13  and  C_15 
DOCKED: USER                              x       y       z     vdW  Elec       q    Type
DOCKED: USER                           _______ _______ _______ _____ _____    ______ ____
DOCKED: ROOT
DOCKED: ATOM      1  C   UNL d   1       3.078  42.311  -1.060 -0.21 +0.14    +0.193 C 
DOCKED: ENDROOT
DOCKED: BRANCH   1   2
DOCKED: ATOM      2  O   UNL d   1       2.079  43.053  -0.282 -0.09 -0.29    -0.356 OA
DOCKED: BRANCH   2   3
DOCKED: ATOM      3  P   UNL d   1       1.767  42.756   1.305 -0.31 -0.02    -0.014 P 
DOCKED: ATOM      4  O   UNL d   1       0.305  42.283   1.326 -0.34 -0.87    -0.577 OA
DOCKED: ATOM      5  O   UNL d   1       1.943  44.074   2.055 +0.01 -0.37    -0.577 OA
DOCKED: ATOM      6  O   UNL d   1       2.717  41.658   1.774 -0.41 -1.11    -0.638 OA
DOCKED: ENDBRANCH   2   3
DOCKED: ENDBRANCH   1   2
DOCKED: BRANCH   1   7
DOCKED: ATOM      7  C   UNL d   1       3.346  43.082  -2.404 -0.16 +0.10    +0.201 C 
DOCKED: BRANCH   7   8
DOCKED: ATOM      8  O   UNL d   1       2.909  44.459  -2.439 -0.13 -0.24    -0.364 OA
DOCKED: BRANCH   8   9
DOCKED: ATOM      9  P   UNL d   1       3.218  45.394  -3.768 -0.34 -0.01    -0.015 P 
DOCKED: ATOM     10  O   UNL d   1       2.103  46.446  -3.784 -0.02 -0.70    -0.577 OA
DOCKED: ATOM     11  O   UNL d   1       3.152  44.473  -4.986 -0.03 -0.30    -0.577 OA
DOCKED: ATOM     12  O   UNL d   1       4.597  46.022  -3.567 -0.61 -0.98    -0.638 OA
DOCKED: ENDBRANCH   8   9
DOCKED: ENDBRANCH   7   8
DOCKED: ENDBRANCH   1   7
DOCKED: BRANCH   1  13
DOCKED: ATOM     13  C   UNL d   1       2.534  40.873  -1.403 -0.18 +0.08    +0.073 C 
DOCKED: ATOM     14  O   UNL d   1       3.026  39.869  -0.779 -0.27 -0.82    -0.547 OA
DOCKED: ATOM     15  O   UNL d   1       1.575  40.801  -2.253 -0.00 -0.42    -0.547 OA
DOCKED: ENDBRANCH   1  13
DOCKED: TORSDOF 6
DOCKED: TER
DOCKED: ENDMDL
________________________________________________________________________________


	BEGINNING GENETIC ALGORITHM DOCKING 46 of 100
Run: 46 Seed: 1547127071 1895505975 [ Run 46 of 100 GA/GALS ]
Beginning LAMARCKIAN GENETIC ALGORITHM (LGA), with a maximum of 25000000 energy evaluations.

Final-Value: -7.093


	FINAL GENETIC ALGORITHM DOCKED STATE
	_______________________________________________


Detailed state:  trans 45.802 24.562 19.618 quatxyzw -0.365795 0.465990 -0.225078 -0.773555 center 0.015 0.083 0.031 ntor 6 -156.9674 -45.7998 -37.9676 -2.6707 13.8367 -10.9433
State:	 45.802  24.562  19.618  -0.577  0.735 -0.355 -78.652   -156.97  -45.80  -37.97   -2.67   13.84  -10.94

DOCKED: MODEL       46
DOCKED: USER    Run = 46
DOCKED: USER    DPF = D:/Protein_go_brrr/autodock/final/6BB5/2_3_BPG/dock.dpf
DOCKED: USER  
DOCKED: USER    Estimated Free Energy of Binding    =   -7.26 kcal/mol  [=(1)+(2)+(3)-(4)]
DOCKED: USER    Estimated Inhibition Constant, Ki   =    4.76 uM (micromolar)  [Temperature = 298.15 K]
DOCKED: USER    
DOCKED: USER    (1) Final Intermolecular Energy     =   -9.05 kcal/mol
DOCKED: USER        vdW + Hbond + desolv Energy     =   -2.99 kcal/mol
DOCKED: USER        Electrostatic Energy            =   -6.06 kcal/mol
DOCKED: USER    (2) Final Total Internal Energy     =   +1.96 kcal/mol
DOCKED: USER    (3) Torsional Free Energy           =   +1.79 kcal/mol
DOCKED: USER    (4) Unbound System's Energy  [=(2)] =   +1.96 kcal/mol
DOCKED: USER    
DOCKED: USER    
DOCKED: USER    NEWDPF move 2_3_BPG_opt.pdbqt
DOCKED: USER    NEWDPF about 0.015000 0.083000 0.031000
DOCKED: USER    NEWDPF tran0 45.802385 24.562034 19.618239
DOCKED: USER    NEWDPF quaternion0 -0.365795 0.465990 -0.225078 -0.773555
DOCKED: USER    NEWDPF axisangle0 -0.577210 0.735314 -0.355165 -78.651535
DOCKED: USER    NEWDPF quat0 -0.577210 0.735314 -0.355165 -78.651535
DOCKED: USER    NEWDPF dihe0 -156.97 -45.80 -37.97 -2.67 13.84 -10.94 
DOCKED: USER  keepresnum = 1 
DOCKED: USER  
DOCKED: REMARK  6 active torsions:
DOCKED: REMARK  status: ('A' for Active; 'I' for Inactive)
DOCKED: REMARK    1  A    between atoms: P_1  and  O_3 
DOCKED: REMARK    2  A    between atoms: P_2  and  O_4 
DOCKED: REMARK    3  A    between atoms: O_3  and  C_13 
DOCKED: REMARK    4  A    between atoms: O_4  and  C_14 
DOCKED: REMARK    5  A    between atoms: C_13  and  C_14 
DOCKED: REMARK    6  A    between atoms: C_13  and  C_15 
DOCKED: USER                              x       y       z     vdW  Elec       q    Type
DOCKED: USER                           _______ _______ _______ _____ _____    ______ ____
DOCKED: ROOT
DOCKED: ATOM      1  C   UNL d   1      45.610  24.802  20.214 -0.08 +0.11    +0.193 C 
DOCKED: ENDROOT
DOCKED: BRANCH   1   2
DOCKED: ATOM      2  O   UNL d   1      44.559  25.800  19.987 -0.09 -0.23    -0.356 OA
DOCKED: BRANCH   2   3
DOCKED: ATOM      3  P   UNL d   1      44.522  27.260  20.743 -0.20 -0.02    -0.014 P 
DOCKED: ATOM      4  O   UNL d   1      44.317  28.275  19.608 -0.06 -0.41    -0.577 OA
DOCKED: ATOM      5  O   UNL d   1      45.874  27.449  21.428 -0.27 -1.15    -0.577 OA
DOCKED: ATOM      6  O   UNL d   1      43.345  27.259  21.713 -0.52 -1.28    -0.638 OA
DOCKED: ENDBRANCH   2   3
DOCKED: ENDBRANCH   1   2
DOCKED: BRANCH   1   7
DOCKED: ATOM      7  C   UNL d   1      45.866  24.024  18.871 -0.08 +0.10    +0.201 C 
DOCKED: BRANCH   7   8
DOCKED: ATOM      8  O   UNL d   1      47.217  23.558  18.659 -0.02 -0.22    -0.364 OA
DOCKED: BRANCH   8   9
DOCKED: ATOM      9  P   UNL d   1      47.713  23.110  17.146 -0.12 -0.02    -0.015 P 
DOCKED: ATOM     10  O   UNL d   1      49.178  23.555  17.059 -0.55 -0.90    -0.577 OA
DOCKED: ATOM     11  O   UNL d   1      46.829  23.857  16.148 -0.14 -0.51    -0.577 OA
DOCKED: ATOM     12  O   UNL d   1      47.568  21.592  17.055 -0.12 -0.93    -0.638 OA
DOCKED: ENDBRANCH   8   9
DOCKED: ENDBRANCH   7   8
DOCKED: ENDBRANCH   1   7
DOCKED: BRANCH   1  13
DOCKED: ATOM     13  C   UNL d   1      45.150  23.773  21.313 -0.19 +0.04    +0.073 C 
DOCKED: ATOM     14  O   UNL d   1      45.631  23.884  22.494 -0.01 -0.34    -0.547 OA
DOCKED: ATOM     15  O   UNL d   1      44.260  22.914  20.969 -0.53 -0.30    -0.547 OA
DOCKED: ENDBRANCH   1  13
DOCKED: TORSDOF 6
DOCKED: TER
DOCKED: ENDMDL
________________________________________________________________________________


	BEGINNING GENETIC ALGORITHM DOCKING 47 of 100
Run: 47 Seed: 817110421 1811574389 [ Run 47 of 100 GA/GALS ]
Beginning LAMARCKIAN GENETIC ALGORITHM (LGA), with a maximum of 25000000 energy evaluations.

Final-Value: -6.343


	FINAL GENETIC ALGORITHM DOCKED STATE
	_______________________________________________


Detailed state:  trans 46.654 26.216 19.281 quatxyzw -0.927812 0.046678 0.357589 -0.095482 center 0.015 0.083 0.031 ntor 6 159.3143 33.6839 167.8380 -21.0590 -23.4401 -95.7120
State:	 46.654  26.216  19.281  -0.932  0.047  0.359 -169.042    159.31   33.68  167.84  -21.06  -23.44  -95.71

DOCKED: MODEL       47
DOCKED: USER    Run = 47
DOCKED: USER    DPF = D:/Protein_go_brrr/autodock/final/6BB5/2_3_BPG/dock.dpf
DOCKED: USER  
DOCKED: USER    Estimated Free Energy of Binding    =   -6.68 kcal/mol  [=(1)+(2)+(3)-(4)]
DOCKED: USER    Estimated Inhibition Constant, Ki   =   12.64 uM (micromolar)  [Temperature = 298.15 K]
DOCKED: USER    
DOCKED: USER    (1) Final Intermolecular Energy     =   -8.47 kcal/mol
DOCKED: USER        vdW + Hbond + desolv Energy     =   -2.93 kcal/mol
DOCKED: USER        Electrostatic Energy            =   -5.55 kcal/mol
DOCKED: USER    (2) Final Total Internal Energy     =   +2.13 kcal/mol
DOCKED: USER    (3) Torsional Free Energy           =   +1.79 kcal/mol
DOCKED: USER    (4) Unbound System's Energy  [=(2)] =   +2.13 kcal/mol
DOCKED: USER    
DOCKED: USER    
DOCKED: USER    NEWDPF move 2_3_BPG_opt.pdbqt
DOCKED: USER    NEWDPF about 0.015000 0.083000 0.031000
DOCKED: USER    NEWDPF tran0 46.654200 26.216072 19.281110
DOCKED: USER    NEWDPF quaternion0 -0.927812 0.046678 0.357589 -0.095482
DOCKED: USER    NEWDPF axisangle0 -0.932070 0.046892 0.359230 -169.041884
DOCKED: USER    NEWDPF quat0 -0.932070 0.046892 0.359230 -169.041884
DOCKED: USER    NEWDPF dihe0 159.31 33.68 167.84 -21.06 -23.44 -95.71 
DOCKED: USER  keepresnum = 1 
DOCKED: USER  
DOCKED: REMARK  6 active torsions:
DOCKED: REMARK  status: ('A' for Active; 'I' for Inactive)
DOCKED: REMARK    1  A    between atoms: P_1  and  O_3 
DOCKED: REMARK    2  A    between atoms: P_2  and  O_4 
DOCKED: REMARK    3  A    between atoms: O_3  and  C_13 
DOCKED: REMARK    4  A    between atoms: O_4  and  C_14 
DOCKED: REMARK    5  A    between atoms: C_13  and  C_14 
DOCKED: REMARK    6  A    between atoms: C_13  and  C_15 
DOCKED: USER                              x       y       z     vdW  Elec       q    Type
DOCKED: USER                           _______ _______ _______ _____ _____    ______ ____
DOCKED: ROOT
DOCKED: ATOM      1  C   UNL d   1      46.208  26.551  19.653 -0.08 +0.12    +0.193 C 
DOCKED: ENDROOT
DOCKED: BRANCH   1   2
DOCKED: ATOM      2  O   UNL d   1      45.728  25.655  20.711 -0.05 -0.29    -0.356 OA
DOCKED: BRANCH   2   3
DOCKED: ATOM      3  P   UNL d   1      44.252  25.803  21.419 -0.33 -0.02    -0.014 P 
DOCKED: ATOM      4  O   UNL d   1      44.454  25.263  22.843 -0.08 -0.76    -0.577 OA
DOCKED: ATOM      5  O   UNL d   1      43.279  24.937  20.622 -0.05 -0.31    -0.577 OA
DOCKED: ATOM      6  O   UNL d   1      43.880  27.283  21.429 -0.43 -1.19    -0.638 OA
DOCKED: ENDBRANCH   2   3
DOCKED: ENDBRANCH   1   2
DOCKED: BRANCH   1   7
DOCKED: ATOM      7  C   UNL d   1      47.455  25.890  18.958 -0.04 +0.10    +0.201 C 
DOCKED: BRANCH   7   8
DOCKED: ATOM      8  O   UNL d   1      47.205  24.647  18.265 -0.03 -0.21    -0.364 OA
DOCKED: BRANCH   8   9
DOCKED: ATOM      9  P   UNL d   1      48.257  24.119  17.103 -0.23 -0.02    -0.015 P 
DOCKED: ATOM     10  O   UNL d   1      49.206  25.299  16.858 -0.08 -0.42    -0.577 OA
DOCKED: ATOM     11  O   UNL d   1      47.424  23.789  15.865 -0.27 -0.71    -0.577 OA
DOCKED: ATOM     12  O   UNL d   1      48.988  22.904  17.673 -0.51 -0.89    -0.638 OA
DOCKED: ENDBRANCH   8   9
DOCKED: ENDBRANCH   7   8
DOCKED: ENDBRANCH   1   7
DOCKED: BRANCH   1  13
DOCKED: ATOM     13  C   UNL d   1      46.648  27.930  20.271 -0.12 +0.06    +0.073 C 
DOCKED: ATOM     14  O   UNL d   1      46.482  28.993  19.576 -0.02 -0.32    -0.547 OA
DOCKED: ATOM     15  O   UNL d   1      47.094  27.913  21.475 -0.59 -0.71    -0.547 OA
DOCKED: ENDBRANCH   1  13
DOCKED: TORSDOF 6
DOCKED: TER
DOCKED: ENDMDL
________________________________________________________________________________


	BEGINNING GENETIC ALGORITHM DOCKING 48 of 100
Run: 48 Seed: 1668348429 954621726 [ Run 48 of 100 GA/GALS ]
Beginning LAMARCKIAN GENETIC ALGORITHM (LGA), with a maximum of 25000000 energy evaluations.

Final-Value: -6.714


	FINAL GENETIC ALGORITHM DOCKED STATE
	_______________________________________________


Detailed state:  trans 2.730 43.335 -1.076 quatxyzw -0.522935 0.002040 0.337272 -0.782805 center 0.015 0.083 0.031 ntor 6 -30.6263 -76.7355 -152.9507 -12.2418 7.1243 -56.5178
State:	  2.730  43.335  -1.076  -0.840  0.003  0.542 -76.964    -30.63  -76.74 -152.95  -12.24    7.12  -56.52

DOCKED: MODEL       48
DOCKED: USER    Run = 48
DOCKED: USER    DPF = D:/Protein_go_brrr/autodock/final/6BB5/2_3_BPG/dock.dpf
DOCKED: USER  
DOCKED: USER    Estimated Free Energy of Binding    =   -6.95 kcal/mol  [=(1)+(2)+(3)-(4)]
DOCKED: USER    Estimated Inhibition Constant, Ki   =    8.04 uM (micromolar)  [Temperature = 298.15 K]
DOCKED: USER    
DOCKED: USER    (1) Final Intermolecular Energy     =   -8.74 kcal/mol
DOCKED: USER        vdW + Hbond + desolv Energy     =   -3.04 kcal/mol
DOCKED: USER        Electrostatic Energy            =   -5.70 kcal/mol
DOCKED: USER    (2) Final Total Internal Energy     =   +2.03 kcal/mol
DOCKED: USER    (3) Torsional Free Energy           =   +1.79 kcal/mol
DOCKED: USER    (4) Unbound System's Energy  [=(2)] =   +2.03 kcal/mol
DOCKED: USER    
DOCKED: USER    
DOCKED: USER    NEWDPF move 2_3_BPG_opt.pdbqt
DOCKED: USER    NEWDPF about 0.015000 0.083000 0.031000
DOCKED: USER    NEWDPF tran0 2.730262 43.335128 -1.075687
DOCKED: USER    NEWDPF quaternion0 -0.522935 0.002040 0.337272 -0.782805
DOCKED: USER    NEWDPF axisangle0 -0.840369 0.003278 0.542005 -76.963843
DOCKED: USER    NEWDPF quat0 -0.840369 0.003278 0.542005 -76.963843
DOCKED: USER    NEWDPF dihe0 -30.63 -76.74 -152.95 -12.24 7.12 -56.52 
DOCKED: USER  keepresnum = 1 
DOCKED: USER  
DOCKED: REMARK  6 active torsions:
DOCKED: REMARK  status: ('A' for Active; 'I' for Inactive)
DOCKED: REMARK    1  A    between atoms: P_1  and  O_3 
DOCKED: REMARK    2  A    between atoms: P_2  and  O_4 
DOCKED: REMARK    3  A    between atoms: O_3  and  C_13 
DOCKED: REMARK    4  A    between atoms: O_4  and  C_14 
DOCKED: REMARK    5  A    between atoms: C_13  and  C_14 
DOCKED: REMARK    6  A    between atoms: C_13  and  C_15 
DOCKED: USER                              x       y       z     vdW  Elec       q    Type
DOCKED: USER                           _______ _______ _______ _____ _____    ______ ____
DOCKED: ROOT
DOCKED: ATOM      1  C   UNL d   1       2.410  43.033  -0.570 -0.20 +0.15    +0.193 C 
DOCKED: ENDROOT
DOCKED: BRANCH   1   2
DOCKED: ATOM      2  O   UNL d   1       1.401  42.133  -1.140 -0.04 -0.33    -0.356 OA
DOCKED: BRANCH   2   3
DOCKED: ATOM      3  P   UNL d   1      -0.064  41.864  -0.443 +0.01 -0.02    -0.014 P 
DOCKED: ATOM      4  O   UNL d   1      -1.030  42.772  -1.220 +0.01 -0.31    -0.577 OA
DOCKED: ATOM      5  O   UNL d   1       0.047  42.283   1.021 -0.39 -0.81    -0.577 OA
DOCKED: ATOM      6  O   UNL d   1      -0.410  40.390  -0.629 +0.02 -1.07    -0.638 OA
DOCKED: ENDBRANCH   2   3
DOCKED: ENDBRANCH   1   2
DOCKED: BRANCH   1   7
DOCKED: ATOM      7  C   UNL d   1       3.358  43.525  -1.725 -0.21 +0.11    +0.201 C 
DOCKED: BRANCH   7   8
DOCKED: ATOM      8  O   UNL d   1       3.125  44.869  -2.202 -0.17 -0.29    -0.364 OA
DOCKED: BRANCH   8   9
DOCKED: ATOM      9  P   UNL d   1       3.882  45.406  -3.572 -0.41 -0.02    -0.015 P 
DOCKED: ATOM     10  O   UNL d   1       4.093  44.152  -4.429 -0.07 -0.31    -0.577 OA
DOCKED: ATOM     11  O   UNL d   1       5.207  46.028  -3.134 -0.37 -0.73    -0.577 OA
DOCKED: ATOM     12  O   UNL d   1       2.943  46.408  -4.242 -0.12 -0.97    -0.638 OA
DOCKED: ENDBRANCH   8   9
DOCKED: ENDBRANCH   7   8
DOCKED: ENDBRANCH   1   7
DOCKED: BRANCH   1  13
DOCKED: ATOM     13  C   UNL d   1       3.275  42.266   0.499 -0.48 +0.07    +0.073 C 
DOCKED: ATOM     14  O   UNL d   1       3.344  40.989   0.427 -0.39 -0.86    -0.547 OA
DOCKED: ATOM     15  O   UNL d   1       3.917  42.980   1.350 -0.22 -0.31    -0.547 OA
DOCKED: ENDBRANCH   1  13
DOCKED: TORSDOF 6
DOCKED: TER
DOCKED: ENDMDL
________________________________________________________________________________


	BEGINNING GENETIC ALGORITHM DOCKING 49 of 100
Run: 49 Seed: 1970740869 130086358 [ Run 49 of 100 GA/GALS ]
Beginning LAMARCKIAN GENETIC ALGORITHM (LGA), with a maximum of 25000000 energy evaluations.

Final-Value: -7.112


	FINAL GENETIC ALGORITHM DOCKED STATE
	_______________________________________________


Detailed state:  trans 45.308 25.021 18.955 quatxyzw -0.037041 -0.352164 0.278139 0.892887 center 0.015 0.083 0.031 ntor 6 176.2784 -34.5987 -152.4265 23.1285 -26.2769 -16.5325
State:	 45.308  25.021  18.955  -0.082 -0.782  0.618 53.523    176.28  -34.60 -152.43   23.13  -26.28  -16.53

DOCKED: MODEL       49
DOCKED: USER    Run = 49
DOCKED: USER    DPF = D:/Protein_go_brrr/autodock/final/6BB5/2_3_BPG/dock.dpf
DOCKED: USER  
DOCKED: USER    Estimated Free Energy of Binding    =   -7.21 kcal/mol  [=(1)+(2)+(3)-(4)]
DOCKED: USER    Estimated Inhibition Constant, Ki   =    5.19 uM (micromolar)  [Temperature = 298.15 K]
DOCKED: USER    
DOCKED: USER    (1) Final Intermolecular Energy     =   -9.00 kcal/mol
DOCKED: USER        vdW + Hbond + desolv Energy     =   -3.25 kcal/mol
DOCKED: USER        Electrostatic Energy            =   -5.75 kcal/mol
DOCKED: USER    (2) Final Total Internal Energy     =   +1.89 kcal/mol
DOCKED: USER    (3) Torsional Free Energy           =   +1.79 kcal/mol
DOCKED: USER    (4) Unbound System's Energy  [=(2)] =   +1.89 kcal/mol
DOCKED: USER    
DOCKED: USER    
DOCKED: USER    NEWDPF move 2_3_BPG_opt.pdbqt
DOCKED: USER    NEWDPF about 0.015000 0.083000 0.031000
DOCKED: USER    NEWDPF tran0 45.307917 25.021061 18.954705
DOCKED: USER    NEWDPF quaternion0 -0.037041 -0.352164 0.278139 0.892887
DOCKED: USER    NEWDPF axisangle0 -0.082262 -0.782098 0.617702 53.523423
DOCKED: USER    NEWDPF quat0 -0.082262 -0.782098 0.617702 53.523423
DOCKED: USER    NEWDPF dihe0 176.28 -34.60 -152.43 23.13 -26.28 -16.53 
DOCKED: USER  keepresnum = 1 
DOCKED: USER  
DOCKED: REMARK  6 active torsions:
DOCKED: REMARK  status: ('A' for Active; 'I' for Inactive)
DOCKED: REMARK    1  A    between atoms: P_1  and  O_3 
DOCKED: REMARK    2  A    between atoms: P_2  and  O_4 
DOCKED: REMARK    3  A    between atoms: O_3  and  C_13 
DOCKED: REMARK    4  A    between atoms: O_4  and  C_14 
DOCKED: REMARK    5  A    between atoms: C_13  and  C_14 
DOCKED: REMARK    6  A    between atoms: C_13  and  C_15 
DOCKED: USER                              x       y       z     vdW  Elec       q    Type
DOCKED: USER                           _______ _______ _______ _____ _____    ______ ____
DOCKED: ROOT
DOCKED: ATOM      1  C   UNL d   1      44.851  25.010  19.445 -0.12 +0.10    +0.193 C 
DOCKED: ENDROOT
DOCKED: BRANCH   1   2
DOCKED: ATOM      2  O   UNL d   1      44.250  26.345  19.542 -0.10 -0.21    -0.356 OA
DOCKED: BRANCH   2   3
DOCKED: ATOM      3  P   UNL d   1      44.528  27.371  20.796 -0.15 -0.02    -0.014 P 
DOCKED: ATOM      4  O   UNL d   1      44.620  28.759  20.143 -0.08 -0.53    -0.577 OA
DOCKED: ATOM      5  O   UNL d   1      45.855  26.961  21.432 -0.29 -1.01    -0.577 OA
DOCKED: ATOM      6  O   UNL d   1      43.343  27.280  21.752 -0.52 -1.31    -0.638 OA
DOCKED: ENDBRANCH   2   3
DOCKED: ENDBRANCH   1   2
DOCKED: BRANCH   1   7
DOCKED: ATOM      7  C   UNL d   1      45.703  24.934  18.125 -0.11 +0.09    +0.201 C 
DOCKED: BRANCH   7   8
DOCKED: ATOM      8  O   UNL d   1      46.932  24.179  18.210 -0.03 -0.21    -0.364 OA
DOCKED: BRANCH   8   9
DOCKED: ATOM      9  P   UNL d   1      47.610  23.540  16.843 -0.21 -0.02    -0.015 P 
DOCKED: ATOM     10  O   UNL d   1      47.202  24.493  15.713 -0.12 -0.49    -0.577 OA
DOCKED: ATOM     11  O   UNL d   1      47.012  22.146  16.658 -0.15 -0.72    -0.577 OA
DOCKED: ATOM     12  O   UNL d   1      49.123  23.519  17.057 -0.55 -1.01    -0.638 OA
DOCKED: ENDBRANCH   8   9
DOCKED: ENDBRANCH   7   8
DOCKED: ENDBRANCH   1   7
DOCKED: BRANCH   1  13
DOCKED: ATOM     13  C   UNL d   1      43.723  23.913  19.381 -0.30 +0.03    +0.073 C 
DOCKED: ATOM     14  O   UNL d   1      43.798  22.912  20.176 -0.42 -0.29    -0.547 OA
DOCKED: ATOM     15  O   UNL d   1      42.751  24.125  18.570 -0.10 -0.15    -0.547 OA
DOCKED: ENDBRANCH   1  13
DOCKED: TORSDOF 6
DOCKED: TER
DOCKED: ENDMDL
________________________________________________________________________________


	BEGINNING GENETIC ALGORITHM DOCKING 50 of 100
Run: 50 Seed: 1053326056 1204220204 [ Run 50 of 100 GA/GALS ]
Beginning LAMARCKIAN GENETIC ALGORITHM (LGA), with a maximum of 25000000 energy evaluations.

Final-Value: -6.818


	FINAL GENETIC ALGORITHM DOCKED STATE
	_______________________________________________


Detailed state:  trans 3.369 42.295 -1.737 quatxyzw 0.687788 0.361759 -0.492119 0.392297 center 0.015 0.083 0.031 ntor 6 103.8308 65.1879 -48.7668 13.1618 36.0234 19.2963
State:	  3.369  42.295  -1.737   0.748  0.393 -0.535 133.805    103.83   65.19  -48.77   13.16   36.02   19.30

DOCKED: MODEL       50
DOCKED: USER    Run = 50
DOCKED: USER    DPF = D:/Protein_go_brrr/autodock/final/6BB5/2_3_BPG/dock.dpf
DOCKED: USER  
DOCKED: USER    Estimated Free Energy of Binding    =   -7.20 kcal/mol  [=(1)+(2)+(3)-(4)]
DOCKED: USER    Estimated Inhibition Constant, Ki   =    5.27 uM (micromolar)  [Temperature = 298.15 K]
DOCKED: USER    
DOCKED: USER    (1) Final Intermolecular Energy     =   -8.99 kcal/mol
DOCKED: USER        vdW + Hbond + desolv Energy     =   -3.80 kcal/mol
DOCKED: USER        Electrostatic Energy            =   -5.19 kcal/mol
DOCKED: USER    (2) Final Total Internal Energy     =   +2.17 kcal/mol
DOCKED: USER    (3) Torsional Free Energy           =   +1.79 kcal/mol
DOCKED: USER    (4) Unbound System's Energy  [=(2)] =   +2.17 kcal/mol
DOCKED: USER    
DOCKED: USER    
DOCKED: USER    NEWDPF move 2_3_BPG_opt.pdbqt
DOCKED: USER    NEWDPF about 0.015000 0.083000 0.031000
DOCKED: USER    NEWDPF tran0 3.368502 42.295290 -1.736635
DOCKED: USER    NEWDPF quaternion0 0.687788 0.361759 -0.492119 0.392297
DOCKED: USER    NEWDPF axisangle0 0.747727 0.393285 -0.535006 133.804962
DOCKED: USER    NEWDPF quat0 0.747727 0.393285 -0.535006 133.804962
DOCKED: USER    NEWDPF dihe0 103.83 65.19 -48.77 13.16 36.02 19.30 
DOCKED: USER  keepresnum = 1 
DOCKED: USER  
DOCKED: REMARK  6 active torsions:
DOCKED: REMARK  status: ('A' for Active; 'I' for Inactive)
DOCKED: REMARK    1  A    between atoms: P_1  and  O_3 
DOCKED: REMARK    2  A    between atoms: P_2  and  O_4 
DOCKED: REMARK    3  A    between atoms: O_3  and  C_13 
DOCKED: REMARK    4  A    between atoms: O_4  and  C_14 
DOCKED: REMARK    5  A    between atoms: C_13  and  C_14 
DOCKED: REMARK    6  A    between atoms: C_13  and  C_15 
DOCKED: USER                              x       y       z     vdW  Elec       q    Type
DOCKED: USER                           _______ _______ _______ _____ _____    ______ ____
DOCKED: ROOT
DOCKED: ATOM      1  C   UNL d   1       3.096  41.929  -1.246 -0.21 +0.14    +0.193 C 
DOCKED: ENDROOT
DOCKED: BRANCH   1   2
DOCKED: ATOM      2  O   UNL d   1       3.536  40.539  -1.414 -0.17 -0.28    -0.356 OA
DOCKED: BRANCH   2   3
DOCKED: ATOM      3  P   UNL d   1       2.499  39.289  -1.671 -0.18 -0.01    -0.014 P 
DOCKED: ATOM      4  O   UNL d   1       2.719  38.357  -0.469 -0.58 -0.97    -0.577 OA
DOCKED: ATOM      5  O   UNL d   1       2.910  38.621  -2.982 +0.01 -0.25    -0.577 OA
DOCKED: ATOM      6  O   UNL d   1       1.081  39.849  -1.693 -0.26 -0.78    -0.638 OA
DOCKED: ENDBRANCH   2   3
DOCKED: ENDBRANCH   1   2
DOCKED: BRANCH   1   7
DOCKED: ATOM      7  C   UNL d   1       3.947  42.847  -2.199 +0.01 +0.09    +0.201 C 
DOCKED: BRANCH   7   8
DOCKED: ATOM      8  O   UNL d   1       3.619  44.254  -2.177 -0.18 -0.23    -0.364 OA
DOCKED: BRANCH   8   9
DOCKED: ATOM      9  P   UNL d   1       3.621  45.129  -3.581 -0.39 -0.01    -0.015 P 
DOCKED: ATOM     10  O   UNL d   1       2.316  45.934  -3.550 -0.07 -0.61    -0.577 OA
DOCKED: ATOM     11  O   UNL d   1       3.644  44.124  -4.732 -0.06 -0.29    -0.577 OA
DOCKED: ATOM     12  O   UNL d   1       4.853  46.031  -3.549 -0.59 -0.90    -0.638 OA
DOCKED: ENDBRANCH   8   9
DOCKED: ENDBRANCH   7   8
DOCKED: ENDBRANCH   1   7
DOCKED: BRANCH   1  13
DOCKED: ATOM     13  C   UNL d   1       3.328  42.392   0.240 -0.46 +0.06    +0.073 C 
DOCKED: ATOM     14  O   UNL d   1       3.424  43.646   0.482 -0.15 -0.34    -0.547 OA
DOCKED: ATOM     15  O   UNL d   1       3.344  41.476   1.140 -0.52 -0.80    -0.547 OA
DOCKED: ENDBRANCH   1  13
DOCKED: TORSDOF 6
DOCKED: TER
DOCKED: ENDMDL
________________________________________________________________________________


	BEGINNING GENETIC ALGORITHM DOCKING 51 of 100
Run: 51 Seed: 1343742866 1532180295 [ Run 51 of 100 GA/GALS ]
Beginning LAMARCKIAN GENETIC ALGORITHM (LGA), with a maximum of 25000000 energy evaluations.

Final-Value: -6.664


	FINAL GENETIC ALGORITHM DOCKED STATE
	_______________________________________________


Detailed state:  trans 3.020 42.581 -1.740 quatxyzw -0.075754 -0.600988 -0.197091 0.770863 center 0.015 0.083 0.031 ntor 6 106.9115 18.1630 74.4767 8.1694 14.0905 -22.7734
State:	  3.020  42.581  -1.740  -0.119 -0.943 -0.309 79.137    106.91   18.16   74.48    8.17   14.09  -22.77

DOCKED: MODEL       51
DOCKED: USER    Run = 51
DOCKED: USER    DPF = D:/Protein_go_brrr/autodock/final/6BB5/2_3_BPG/dock.dpf
DOCKED: USER  
DOCKED: USER    Estimated Free Energy of Binding    =   -6.98 kcal/mol  [=(1)+(2)+(3)-(4)]
DOCKED: USER    Estimated Inhibition Constant, Ki   =    7.63 uM (micromolar)  [Temperature = 298.15 K]
DOCKED: USER    
DOCKED: USER    (1) Final Intermolecular Energy     =   -8.77 kcal/mol
DOCKED: USER        vdW + Hbond + desolv Energy     =   -3.34 kcal/mol
DOCKED: USER        Electrostatic Energy            =   -5.43 kcal/mol
DOCKED: USER    (2) Final Total Internal Energy     =   +2.11 kcal/mol
DOCKED: USER    (3) Torsional Free Energy           =   +1.79 kcal/mol
DOCKED: USER    (4) Unbound System's Energy  [=(2)] =   +2.11 kcal/mol
DOCKED: USER    
DOCKED: USER    
DOCKED: USER    NEWDPF move 2_3_BPG_opt.pdbqt
DOCKED: USER    NEWDPF about 0.015000 0.083000 0.031000
DOCKED: USER    NEWDPF tran0 3.019599 42.581099 -1.740116
DOCKED: USER    NEWDPF quaternion0 -0.075754 -0.600988 -0.197091 0.770863
DOCKED: USER    NEWDPF axisangle0 -0.118924 -0.943465 -0.309405 79.137051
DOCKED: USER    NEWDPF quat0 -0.118924 -0.943465 -0.309405 79.137051
DOCKED: USER    NEWDPF dihe0 106.91 18.16 74.48 8.17 14.09 -22.77 
DOCKED: USER  keepresnum = 1 
DOCKED: USER  
DOCKED: REMARK  6 active torsions:
DOCKED: REMARK  status: ('A' for Active; 'I' for Inactive)
DOCKED: REMARK    1  A    between atoms: P_1  and  O_3 
DOCKED: REMARK    2  A    between atoms: P_2  and  O_4 
DOCKED: REMARK    3  A    between atoms: O_3  and  C_13 
DOCKED: REMARK    4  A    between atoms: O_4  and  C_14 
DOCKED: REMARK    5  A    between atoms: C_13  and  C_14 
DOCKED: REMARK    6  A    between atoms: C_13  and  C_15 
DOCKED: USER                              x       y       z     vdW  Elec       q    Type
DOCKED: USER                           _______ _______ _______ _____ _____    ______ ____
DOCKED: ROOT
DOCKED: ATOM      1  C   UNL d   1       3.058  42.077  -1.300 -0.20 +0.14    +0.193 C 
DOCKED: ENDROOT
DOCKED: BRANCH   1   2
DOCKED: ATOM      2  O   UNL d   1       2.063  42.312  -0.248 -0.09 -0.39    -0.356 OA
DOCKED: BRANCH   2   3
DOCKED: ATOM      3  P   UNL d   1       2.441  42.385   1.351 -0.43 -0.02    -0.014 P 
DOCKED: ATOM      4  O   UNL d   1       1.087  42.279   2.070 -0.13 -0.87    -0.577 OA
DOCKED: ATOM      5  O   UNL d   1       3.103  43.740   1.598 -0.12 -0.35    -0.577 OA
DOCKED: ATOM      6  O   UNL d   1       3.343  41.200   1.677 -0.44 -1.07    -0.638 OA
DOCKED: ENDBRANCH   2   3
DOCKED: ENDBRANCH   1   2
DOCKED: BRANCH   1   7
DOCKED: ATOM      7  C   UNL d   1       2.789  43.080  -2.482 -0.12 +0.10    +0.201 C 
DOCKED: BRANCH   7   8
DOCKED: ATOM      8  O   UNL d   1       3.957  43.712  -3.050 -0.15 -0.18    -0.364 OA
DOCKED: BRANCH   8   9
DOCKED: ATOM      9  P   UNL d   1       3.796  45.070  -3.981 -0.39 -0.01    -0.015 P 
DOCKED: ATOM     10  O   UNL d   1       3.967  44.587  -5.426 -0.07 -0.32    -0.577 OA
DOCKED: ATOM     11  O   UNL d   1       4.909  46.031  -3.564 -0.63 -0.80    -0.577 OA
DOCKED: ATOM     12  O   UNL d   1       2.397  45.629  -3.724 -0.05 -0.59    -0.638 OA
DOCKED: ENDBRANCH   8   9
DOCKED: ENDBRANCH   7   8
DOCKED: ENDBRANCH   1   7
DOCKED: BRANCH   1  13
DOCKED: ATOM     13  C   UNL d   1       2.927  40.606  -1.848 -0.20 +0.06    +0.073 C 
DOCKED: ATOM     14  O   UNL d   1       3.431  40.334  -2.994 +0.01 -0.23    -0.547 OA
DOCKED: ATOM     15  O   UNL d   1       2.373  39.744  -1.075 -0.34 -0.89    -0.547 OA
DOCKED: ENDBRANCH   1  13
DOCKED: TORSDOF 6
DOCKED: TER
DOCKED: ENDMDL
________________________________________________________________________________


	BEGINNING GENETIC ALGORITHM DOCKING 52 of 100
Run: 52 Seed: 46700019 2065883733 [ Run 52 of 100 GA/GALS ]
Beginning LAMARCKIAN GENETIC ALGORITHM (LGA), with a maximum of 25000000 energy evaluations.

Final-Value: -6.422


	FINAL GENETIC ALGORITHM DOCKED STATE
	_______________________________________________


Detailed state:  trans 45.368 24.645 18.626 quatxyzw 0.360790 0.841427 -0.335587 0.221837 center 0.015 0.083 0.031 ntor 6 143.3536 -118.0005 -112.3243 39.7799 29.3715 139.6237
State:	 45.368  24.645  18.626   0.370  0.863 -0.344 154.366    143.35 -118.00 -112.32   39.78   29.37  139.62

DOCKED: MODEL       52
DOCKED: USER    Run = 52
DOCKED: USER    DPF = D:/Protein_go_brrr/autodock/final/6BB5/2_3_BPG/dock.dpf
DOCKED: USER  
DOCKED: USER    Estimated Free Energy of Binding    =   -6.70 kcal/mol  [=(1)+(2)+(3)-(4)]
DOCKED: USER    Estimated Inhibition Constant, Ki   =   12.27 uM (micromolar)  [Temperature = 298.15 K]
DOCKED: USER    
DOCKED: USER    (1) Final Intermolecular Energy     =   -8.49 kcal/mol
DOCKED: USER        vdW + Hbond + desolv Energy     =   -2.89 kcal/mol
DOCKED: USER        Electrostatic Energy            =   -5.60 kcal/mol
DOCKED: USER    (2) Final Total Internal Energy     =   +2.07 kcal/mol
DOCKED: USER    (3) Torsional Free Energy           =   +1.79 kcal/mol
DOCKED: USER    (4) Unbound System's Energy  [=(2)] =   +2.07 kcal/mol
DOCKED: USER    
DOCKED: USER    
DOCKED: USER    NEWDPF move 2_3_BPG_opt.pdbqt
DOCKED: USER    NEWDPF about 0.015000 0.083000 0.031000
DOCKED: USER    NEWDPF tran0 45.368437 24.645429 18.625602
DOCKED: USER    NEWDPF quaternion0 0.360790 0.841427 -0.335587 0.221837
DOCKED: USER    NEWDPF axisangle0 0.370010 0.862928 -0.344163 154.366055
DOCKED: USER    NEWDPF quat0 0.370010 0.862928 -0.344163 154.366055
DOCKED: USER    NEWDPF dihe0 143.35 -118.00 -112.32 39.78 29.37 139.62 
DOCKED: USER  keepresnum = 1 
DOCKED: USER  
DOCKED: REMARK  6 active torsions:
DOCKED: REMARK  status: ('A' for Active; 'I' for Inactive)
DOCKED: REMARK    1  A    between atoms: P_1  and  O_3 
DOCKED: REMARK    2  A    between atoms: P_2  and  O_4 
DOCKED: REMARK    3  A    between atoms: O_3  and  C_13 
DOCKED: REMARK    4  A    between atoms: O_4  and  C_14 
DOCKED: REMARK    5  A    between atoms: C_13  and  C_14 
DOCKED: REMARK    6  A    between atoms: C_13  and  C_15 
DOCKED: USER                              x       y       z     vdW  Elec       q    Type
DOCKED: USER                           _______ _______ _______ _____ _____    ______ ____
DOCKED: ROOT
DOCKED: ATOM      1  C   UNL d   1      45.544  24.004  18.712 -0.10 +0.09    +0.193 C 
DOCKED: ENDROOT
DOCKED: BRANCH   1   2
DOCKED: ATOM      2  O   UNL d   1      46.979  23.881  18.431 -0.03 -0.21    -0.356 OA
DOCKED: BRANCH   2   3
DOCKED: ATOM      3  P   UNL d   1      47.578  23.490  16.950 -0.21 -0.02    -0.014 P 
DOCKED: ATOM      4  O   UNL d   1      47.028  24.579  16.015 -0.12 -0.44    -0.577 OA
DOCKED: ATOM      5  O   UNL d   1      47.031  22.111  16.590 -0.16 -0.75    -0.577 OA
DOCKED: ATOM      6  O   UNL d   1      49.100  23.538  17.031 -0.54 -1.02    -0.638 OA
DOCKED: ENDBRANCH   2   3
DOCKED: ENDBRANCH   1   2
DOCKED: BRANCH   1   7
DOCKED: ATOM      7  C   UNL d   1      45.176  25.531  18.800 -0.10 +0.10    +0.201 C 
DOCKED: BRANCH   7   8
DOCKED: ATOM      8  O   UNL d   1      45.849  26.283  19.834 -0.04 -0.25    -0.364 OA
DOCKED: BRANCH   8   9
DOCKED: ATOM      9  P   UNL d   1      45.081  27.548  20.573 -0.12 -0.02    -0.015 P 
DOCKED: ATOM     10  O   UNL d   1      43.978  26.904  21.422 -0.39 -0.97    -0.577 OA
DOCKED: ATOM     11  O   UNL d   1      44.506  28.430  19.465 -0.05 -0.38    -0.577 OA
DOCKED: ATOM     12  O   UNL d   1      46.120  28.268  21.432 -0.32 -1.23    -0.638 OA
DOCKED: ENDBRANCH   8   9
DOCKED: ENDBRANCH   7   8
DOCKED: ENDBRANCH   1   7
DOCKED: BRANCH   1  13
DOCKED: ATOM     13  C   UNL d   1      45.204  23.323  20.090 -0.16 +0.03    +0.073 C 
DOCKED: ATOM     14  O   UNL d   1      43.981  23.039  20.346 -0.49 -0.29    -0.547 OA
DOCKED: ATOM     15  O   UNL d   1      46.192  23.033  20.856 -0.05 -0.25    -0.547 OA
DOCKED: ENDBRANCH   1  13
DOCKED: TORSDOF 6
DOCKED: TER
DOCKED: ENDMDL
________________________________________________________________________________


	BEGINNING GENETIC ALGORITHM DOCKING 53 of 100
Run: 53 Seed: 1667245960 1135935164 [ Run 53 of 100 GA/GALS ]
Beginning LAMARCKIAN GENETIC ALGORITHM (LGA), with a maximum of 25000000 energy evaluations.

Final-Value: -6.894


	FINAL GENETIC ALGORITHM DOCKED STATE
	_______________________________________________


Detailed state:  trans 2.854 42.705 -1.471 quatxyzw -0.647545 -0.283383 0.534751 -0.463057 center 0.015 0.083 0.031 ntor 6 104.2401 35.7789 -30.4394 32.1926 20.6503 4.5239
State:	  2.854  42.705  -1.471  -0.731 -0.320  0.603 -124.831    104.24   35.78  -30.44   32.19   20.65    4.52

DOCKED: MODEL       53
DOCKED: USER    Run = 53
DOCKED: USER    DPF = D:/Protein_go_brrr/autodock/final/6BB5/2_3_BPG/dock.dpf
DOCKED: USER  
DOCKED: USER    Estimated Free Energy of Binding    =   -7.17 kcal/mol  [=(1)+(2)+(3)-(4)]
DOCKED: USER    Estimated Inhibition Constant, Ki   =    5.57 uM (micromolar)  [Temperature = 298.15 K]
DOCKED: USER    
DOCKED: USER    (1) Final Intermolecular Energy     =   -8.96 kcal/mol
DOCKED: USER        vdW + Hbond + desolv Energy     =   -3.41 kcal/mol
DOCKED: USER        Electrostatic Energy            =   -5.55 kcal/mol
DOCKED: USER    (2) Final Total Internal Energy     =   +2.06 kcal/mol
DOCKED: USER    (3) Torsional Free Energy           =   +1.79 kcal/mol
DOCKED: USER    (4) Unbound System's Energy  [=(2)] =   +2.06 kcal/mol
DOCKED: USER    
DOCKED: USER    
DOCKED: USER    NEWDPF move 2_3_BPG_opt.pdbqt
DOCKED: USER    NEWDPF about 0.015000 0.083000 0.031000
DOCKED: USER    NEWDPF tran0 2.854181 42.704699 -1.471448
DOCKED: USER    NEWDPF quaternion0 -0.647545 -0.283383 0.534751 -0.463057
DOCKED: USER    NEWDPF axisangle0 -0.730592 -0.319726 0.603332 -124.830910
DOCKED: USER    NEWDPF quat0 -0.730592 -0.319726 0.603332 -124.830910
DOCKED: USER    NEWDPF dihe0 104.24 35.78 -30.44 32.19 20.65 4.52 
DOCKED: USER  keepresnum = 1 
DOCKED: USER  
DOCKED: REMARK  6 active torsions:
DOCKED: REMARK  status: ('A' for Active; 'I' for Inactive)
DOCKED: REMARK    1  A    between atoms: P_1  and  O_3 
DOCKED: REMARK    2  A    between atoms: P_2  and  O_4 
DOCKED: REMARK    3  A    between atoms: O_3  and  C_13 
DOCKED: REMARK    4  A    between atoms: O_4  and  C_14 
DOCKED: REMARK    5  A    between atoms: C_13  and  C_14 
DOCKED: REMARK    6  A    between atoms: C_13  and  C_15 
DOCKED: USER                              x       y       z     vdW  Elec       q    Type
DOCKED: USER                           _______ _______ _______ _____ _____    ______ ____
DOCKED: ROOT
DOCKED: ATOM      1  C   UNL d   1       2.649  42.355  -0.938 -0.19 +0.15    +0.193 C 
DOCKED: ENDROOT
DOCKED: BRANCH   1   2
DOCKED: ATOM      2  O   UNL d   1       2.880  40.931  -1.207 -0.14 -0.36    -0.356 OA
DOCKED: BRANCH   2   3
DOCKED: ATOM      3  P   UNL d   1       1.694  39.901  -1.695 -0.08 -0.02    -0.014 P 
DOCKED: ATOM      4  O   UNL d   1       2.093  38.545  -1.093 -0.61 -0.90    -0.577 OA
DOCKED: ATOM      5  O   UNL d   1       1.724  39.868  -3.222 +0.02 -0.29    -0.577 OA
DOCKED: ATOM      6  O   UNL d   1       0.371  40.400  -1.124 -0.03 -1.00    -0.638 OA
DOCKED: ENDBRANCH   2   3
DOCKED: ENDBRANCH   1   2
DOCKED: BRANCH   1   7
DOCKED: ATOM      7  C   UNL d   1       3.383  43.203  -2.040 -0.17 +0.11    +0.201 C 
DOCKED: BRANCH   7   8
DOCKED: ATOM      8  O   UNL d   1       2.978  44.586  -2.147 -0.15 -0.26    -0.364 OA
DOCKED: BRANCH   8   9
DOCKED: ATOM      9  P   UNL d   1       3.200  45.409  -3.564 -0.33 -0.01    -0.015 P 
DOCKED: ATOM     10  O   UNL d   1       2.094  46.471  -3.586 -0.00 -0.73    -0.577 OA
DOCKED: ATOM     11  O   UNL d   1       3.041  44.396  -4.698 -0.02 -0.30    -0.577 OA
DOCKED: ATOM     12  O   UNL d   1       4.594  46.033  -3.510 -0.57 -0.99    -0.638 OA
DOCKED: ENDBRANCH   8   9
DOCKED: ENDBRANCH   7   8
DOCKED: ENDBRANCH   1   7
DOCKED: BRANCH   1  13
DOCKED: ATOM     13  C   UNL d   1       3.237  42.740   0.471 -0.48 +0.06    +0.073 C 
DOCKED: ATOM     14  O   UNL d   1       3.520  43.969   0.700 -0.15 -0.33    -0.547 OA
DOCKED: ATOM     15  O   UNL d   1       3.341  41.798   1.336 -0.50 -0.69    -0.547 OA
DOCKED: ENDBRANCH   1  13
DOCKED: TORSDOF 6
DOCKED: TER
DOCKED: ENDMDL
________________________________________________________________________________


	BEGINNING GENETIC ALGORITHM DOCKING 54 of 100
Run: 54 Seed: 1784570532 1497801818 [ Run 54 of 100 GA/GALS ]
Beginning LAMARCKIAN GENETIC ALGORITHM (LGA), with a maximum of 25000000 energy evaluations.

Final-Value: -6.379


	FINAL GENETIC ALGORITHM DOCKED STATE
	_______________________________________________


Detailed state:  trans 45.432 24.702 18.110 quatxyzw -0.647656 -0.622423 -0.392589 -0.197497 center 0.015 0.083 0.031 ntor 6 -178.4985 -71.7571 150.5824 27.4211 -25.1881 3.3914
State:	 45.432  24.702  18.110  -0.661 -0.635 -0.400 -157.219   -178.50  -71.76  150.58   27.42  -25.19    3.39

DOCKED: MODEL       54
DOCKED: USER    Run = 54
DOCKED: USER    DPF = D:/Protein_go_brrr/autodock/final/6BB5/2_3_BPG/dock.dpf
DOCKED: USER  
DOCKED: USER    Estimated Free Energy of Binding    =   -6.49 kcal/mol  [=(1)+(2)+(3)-(4)]
DOCKED: USER    Estimated Inhibition Constant, Ki   =   17.46 uM (micromolar)  [Temperature = 298.15 K]
DOCKED: USER    
DOCKED: USER    (1) Final Intermolecular Energy     =   -8.28 kcal/mol
DOCKED: USER        vdW + Hbond + desolv Energy     =   -2.75 kcal/mol
DOCKED: USER        Electrostatic Energy            =   -5.53 kcal/mol
DOCKED: USER    (2) Final Total Internal Energy     =   +1.90 kcal/mol
DOCKED: USER    (3) Torsional Free Energy           =   +1.79 kcal/mol
DOCKED: USER    (4) Unbound System's Energy  [=(2)] =   +1.90 kcal/mol
DOCKED: USER    
DOCKED: USER    
DOCKED: USER    NEWDPF move 2_3_BPG_opt.pdbqt
DOCKED: USER    NEWDPF about 0.015000 0.083000 0.031000
DOCKED: USER    NEWDPF tran0 45.432399 24.702154 18.110313
DOCKED: USER    NEWDPF quaternion0 -0.647656 -0.622423 -0.392589 -0.197497
DOCKED: USER    NEWDPF axisangle0 -0.660669 -0.634929 -0.400477 -157.218798
DOCKED: USER    NEWDPF quat0 -0.660669 -0.634929 -0.400477 -157.218798
DOCKED: USER    NEWDPF dihe0 -178.50 -71.76 150.58 27.42 -25.19 3.39 
DOCKED: USER  keepresnum = 1 
DOCKED: USER  
DOCKED: REMARK  6 active torsions:
DOCKED: REMARK  status: ('A' for Active; 'I' for Inactive)
DOCKED: REMARK    1  A    between atoms: P_1  and  O_3 
DOCKED: REMARK    2  A    between atoms: P_2  and  O_4 
DOCKED: REMARK    3  A    between atoms: O_3  and  C_13 
DOCKED: REMARK    4  A    between atoms: O_4  and  C_14 
DOCKED: REMARK    5  A    between atoms: C_13  and  C_14 
DOCKED: REMARK    6  A    between atoms: C_13  and  C_15 
DOCKED: USER                              x       y       z     vdW  Elec       q    Type
DOCKED: USER                           _______ _______ _______ _____ _____    ______ ____
DOCKED: ROOT
DOCKED: ATOM      1  C   UNL d   1      45.206  24.436  17.539 -0.15 +0.08    +0.193 C 
DOCKED: ENDROOT
DOCKED: BRANCH   1   2
DOCKED: ATOM      2  O   UNL d   1      45.891  23.156  17.327 -0.08 -0.21    -0.356 OA
DOCKED: BRANCH   2   3
DOCKED: ATOM      3  P   UNL d   1      47.092  22.947  16.223 -0.19 -0.02    -0.014 P 
DOCKED: ATOM      4  O   UNL d   1      48.380  22.907  17.062 -0.54 -1.04    -0.577 OA
DOCKED: ATOM      5  O   UNL d   1      47.066  24.156  15.291 -0.15 -0.54    -0.577 OA
DOCKED: ATOM      6  O   UNL d   1      46.849  21.622  15.508 -0.05 -1.00    -0.638 OA
DOCKED: ENDBRANCH   2   3
DOCKED: ENDBRANCH   1   2
DOCKED: BRANCH   1   7
DOCKED: ATOM      7  C   UNL d   1      45.502  24.931  19.002 -0.08 +0.10    +0.201 C 
DOCKED: BRANCH   7   8
DOCKED: ATOM      8  O   UNL d   1      45.238  26.328  19.260 -0.04 -0.21    -0.364 OA
DOCKED: BRANCH   8   9
DOCKED: ATOM      9  P   UNL d   1      44.977  26.851  20.807 -0.21 -0.02    -0.015 P 
DOCKED: ATOM     10  O   UNL d   1      44.407  25.635  21.548 -0.08 -0.65    -0.577 OA
DOCKED: ATOM     11  O   UNL d   1      43.967  27.996  20.727 -0.35 -0.76    -0.577 OA
DOCKED: ATOM     12  O   UNL d   1      46.329  27.285  21.372 -0.44 -1.02    -0.638 OA
DOCKED: ENDBRANCH   8   9
DOCKED: ENDBRANCH   7   8
DOCKED: ENDBRANCH   1   7
DOCKED: BRANCH   1  13
DOCKED: ATOM     13  C   UNL d   1      43.651  24.249  17.375 -0.28 +0.02    +0.073 C 
DOCKED: ATOM     14  O   UNL d   1      43.032  24.989  16.532 -0.04 -0.14    -0.547 OA
DOCKED: ATOM     15  O   UNL d   1      43.102  23.311  18.059 -0.08 -0.14    -0.547 OA
DOCKED: ENDBRANCH   1  13
DOCKED: TORSDOF 6
DOCKED: TER
DOCKED: ENDMDL
________________________________________________________________________________


	BEGINNING GENETIC ALGORITHM DOCKING 55 of 100
Run: 55 Seed: 2091191573 1035145967 [ Run 55 of 100 GA/GALS ]
Beginning LAMARCKIAN GENETIC ALGORITHM (LGA), with a maximum of 25000000 energy evaluations.

Final-Value: -6.632


	FINAL GENETIC ALGORITHM DOCKED STATE
	_______________________________________________


Detailed state:  trans 45.619 24.949 18.671 quatxyzw -0.536257 -0.776337 -0.234467 -0.233997 center 0.015 0.083 0.031 ntor 6 -168.7516 -135.4526 104.3356 23.2013 -10.4755 -16.7540
State:	 45.619  24.949  18.671  -0.552 -0.799 -0.241 -152.935   -168.75 -135.45  104.34   23.20  -10.48  -16.75

DOCKED: MODEL       55
DOCKED: USER    Run = 55
DOCKED: USER    DPF = D:/Protein_go_brrr/autodock/final/6BB5/2_3_BPG/dock.dpf
DOCKED: USER  
DOCKED: USER    Estimated Free Energy of Binding    =   -6.75 kcal/mol  [=(1)+(2)+(3)-(4)]
DOCKED: USER    Estimated Inhibition Constant, Ki   =   11.33 uM (micromolar)  [Temperature = 298.15 K]
DOCKED: USER    
DOCKED: USER    (1) Final Intermolecular Energy     =   -8.54 kcal/mol
DOCKED: USER        vdW + Hbond + desolv Energy     =   -2.88 kcal/mol
DOCKED: USER        Electrostatic Energy            =   -5.65 kcal/mol
DOCKED: USER    (2) Final Total Internal Energy     =   +1.90 kcal/mol
DOCKED: USER    (3) Torsional Free Energy           =   +1.79 kcal/mol
DOCKED: USER    (4) Unbound System's Energy  [=(2)] =   +1.90 kcal/mol
DOCKED: USER    
DOCKED: USER    
DOCKED: USER    NEWDPF move 2_3_BPG_opt.pdbqt
DOCKED: USER    NEWDPF about 0.015000 0.083000 0.031000
DOCKED: USER    NEWDPF tran0 45.618752 24.949130 18.670655
DOCKED: USER    NEWDPF quaternion0 -0.536257 -0.776337 -0.234467 -0.233997
DOCKED: USER    NEWDPF axisangle0 -0.551570 -0.798506 -0.241162 -152.934944
DOCKED: USER    NEWDPF quat0 -0.551570 -0.798506 -0.241162 -152.934944
DOCKED: USER    NEWDPF dihe0 -168.75 -135.45 104.34 23.20 -10.48 -16.75 
DOCKED: USER  keepresnum = 1 
DOCKED: USER  
DOCKED: REMARK  6 active torsions:
DOCKED: REMARK  status: ('A' for Active; 'I' for Inactive)
DOCKED: REMARK    1  A    between atoms: P_1  and  O_3 
DOCKED: REMARK    2  A    between atoms: P_2  and  O_4 
DOCKED: REMARK    3  A    between atoms: O_3  and  C_13 
DOCKED: REMARK    4  A    between atoms: O_4  and  C_14 
DOCKED: REMARK    5  A    between atoms: C_13  and  C_14 
DOCKED: REMARK    6  A    between atoms: C_13  and  C_15 
DOCKED: USER                              x       y       z     vdW  Elec       q    Type
DOCKED: USER                           _______ _______ _______ _____ _____    ______ ____
DOCKED: ROOT
DOCKED: ATOM      1  C   UNL d   1      45.499  24.484  18.203 -0.11 +0.09    +0.193 C 
DOCKED: ENDROOT
DOCKED: BRANCH   1   2
DOCKED: ATOM      2  O   UNL d   1      46.654  23.581  18.149 -0.04 -0.21    -0.356 OA
DOCKED: BRANCH   2   3
DOCKED: ATOM      3  P   UNL d   1      47.717  23.548  16.894 -0.21 -0.02    -0.014 P 
DOCKED: ATOM      4  O   UNL d   1      47.921  25.026  16.526 -0.10 -0.44    -0.577 OA
DOCKED: ATOM      5  O   UNL d   1      47.052  22.772  15.759 -0.20 -0.83    -0.577 OA
DOCKED: ATOM      6  O   UNL d   1      49.011  22.910  17.390 -0.41 -1.11    -0.638 OA
DOCKED: ENDBRANCH   2   3
DOCKED: ENDBRANCH   1   2
DOCKED: BRANCH   1   7
DOCKED: ATOM      7  C   UNL d   1      45.629  25.395  19.479 -0.08 +0.11    +0.201 C 
DOCKED: BRANCH   7   8
DOCKED: ATOM      8  O   UNL d   1      45.189  26.762  19.325 -0.06 -0.22    -0.364 OA
DOCKED: BRANCH   8   9
DOCKED: ATOM      9  P   UNL d   1      45.106  27.760  20.642 -0.04 -0.02    -0.015 P 
DOCKED: ATOM     10  O   UNL d   1      43.879  27.281  21.428 -0.46 -1.08    -0.577 OA
DOCKED: ATOM     11  O   UNL d   1      44.925  29.183  20.113 -0.05 -0.49    -0.577 OA
DOCKED: ATOM     12  O   UNL d   1      46.401  27.575  21.431 -0.50 -1.08    -0.638 OA
DOCKED: ENDBRANCH   8   9
DOCKED: ENDBRANCH   7   8
DOCKED: ENDBRANCH   1   7
DOCKED: BRANCH   1  13
DOCKED: ATOM     13  C   UNL d   1      44.167  23.652  18.310 -0.25 +0.03    +0.073 C 
DOCKED: ATOM     14  O   UNL d   1      43.331  23.708  17.341 -0.03 -0.15    -0.547 OA
DOCKED: ATOM     15  O   UNL d   1      44.027  22.908  19.347 -0.34 -0.23    -0.547 OA
DOCKED: ENDBRANCH   1  13
DOCKED: TORSDOF 6
DOCKED: TER
DOCKED: ENDMDL
________________________________________________________________________________


	BEGINNING GENETIC ALGORITHM DOCKING 56 of 100
Run: 56 Seed: 1714948256 683285409 [ Run 56 of 100 GA/GALS ]
Beginning LAMARCKIAN GENETIC ALGORITHM (LGA), with a maximum of 25000000 energy evaluations.

Final-Value: -6.722


	FINAL GENETIC ALGORITHM DOCKED STATE
	_______________________________________________


Detailed state:  trans 45.836 24.863 19.085 quatxyzw 0.013908 -0.312558 0.389736 0.866152 center 0.015 0.083 0.031 ntor 6 176.5340 -8.9268 -84.1032 -0.8906 5.5069 -34.0854
State:	 45.836  24.863  19.085   0.028 -0.625  0.780 59.971    176.53   -8.93  -84.10   -0.89    5.51  -34.09

DOCKED: MODEL       56
DOCKED: USER    Run = 56
DOCKED: USER    DPF = D:/Protein_go_brrr/autodock/final/6BB5/2_3_BPG/dock.dpf
DOCKED: USER  
DOCKED: USER    Estimated Free Energy of Binding    =   -6.88 kcal/mol  [=(1)+(2)+(3)-(4)]
DOCKED: USER    Estimated Inhibition Constant, Ki   =    9.06 uM (micromolar)  [Temperature = 298.15 K]
DOCKED: USER    
DOCKED: USER    (1) Final Intermolecular Energy     =   -8.67 kcal/mol
DOCKED: USER        vdW + Hbond + desolv Energy     =   -3.04 kcal/mol
DOCKED: USER        Electrostatic Energy            =   -5.63 kcal/mol
DOCKED: USER    (2) Final Total Internal Energy     =   +1.95 kcal/mol
DOCKED: USER    (3) Torsional Free Energy           =   +1.79 kcal/mol
DOCKED: USER    (4) Unbound System's Energy  [=(2)] =   +1.95 kcal/mol
DOCKED: USER    
DOCKED: USER    
DOCKED: USER    NEWDPF move 2_3_BPG_opt.pdbqt
DOCKED: USER    NEWDPF about 0.015000 0.083000 0.031000
DOCKED: USER    NEWDPF tran0 45.836092 24.862679 19.085091
DOCKED: USER    NEWDPF quaternion0 0.013908 -0.312558 0.389736 0.866152
DOCKED: USER    NEWDPF axisangle0 0.027829 -0.625390 0.779816 59.970906
DOCKED: USER    NEWDPF quat0 0.027829 -0.625390 0.779816 59.970906
DOCKED: USER    NEWDPF dihe0 176.53 -8.93 -84.10 -0.89 5.51 -34.09 
DOCKED: USER  keepresnum = 1 
DOCKED: USER  
DOCKED: REMARK  6 active torsions:
DOCKED: REMARK  status: ('A' for Active; 'I' for Inactive)
DOCKED: REMARK    1  A    between atoms: P_1  and  O_3 
DOCKED: REMARK    2  A    between atoms: P_2  and  O_4 
DOCKED: REMARK    3  A    between atoms: O_3  and  C_13 
DOCKED: REMARK    4  A    between atoms: O_4  and  C_14 
DOCKED: REMARK    5  A    between atoms: C_13  and  C_14 
DOCKED: REMARK    6  A    between atoms: C_13  and  C_15 
DOCKED: USER                              x       y       z     vdW  Elec       q    Type
DOCKED: USER                           _______ _______ _______ _____ _____    ______ ____
DOCKED: ROOT
DOCKED: ATOM      1  C   UNL d   1      45.386  25.026  19.554 -0.09 +0.10    +0.193 C 
DOCKED: ENDROOT
DOCKED: BRANCH   1   2
DOCKED: ATOM      2  O   UNL d   1      45.037  26.440  19.381 -0.06 -0.21    -0.356 OA
DOCKED: BRANCH   2   3
DOCKED: ATOM      3  P   UNL d   1      44.972  27.514  20.625 -0.12 -0.02    -0.014 P 
DOCKED: ATOM      4  O   UNL d   1      44.904  28.888  19.942 -0.06 -0.47    -0.577 OA
DOCKED: ATOM      5  O   UNL d   1      46.258  27.350  21.432 -0.44 -0.99    -0.577 OA
DOCKED: ATOM      6  O   UNL d   1      43.709  27.225  21.430 -0.46 -1.14    -0.638 OA
DOCKED: ENDBRANCH   2   3
DOCKED: ENDBRANCH   1   2
DOCKED: BRANCH   1   7
DOCKED: ATOM      7  C   UNL d   1      46.208  24.551  18.300 -0.08 +0.10    +0.201 C 
DOCKED: BRANCH   7   8
DOCKED: ATOM      8  O   UNL d   1      47.493  23.953  18.577 -0.02 -0.22    -0.364 OA
DOCKED: BRANCH   8   9
DOCKED: ATOM      9  P   UNL d   1      48.534  23.610  17.338 -0.02 -0.02    -0.015 P 
DOCKED: ATOM     10  O   UNL d   1      49.516  24.787  17.306 -0.08 -0.46    -0.577 OA
DOCKED: ATOM     11  O   UNL d   1      47.697  23.530  16.062 -0.43 -0.85    -0.577 OA
DOCKED: ATOM     12  O   UNL d   1      49.228  22.293  17.682 -0.32 -1.01    -0.638 OA
DOCKED: ENDBRANCH   8   9
DOCKED: ENDBRANCH   7   8
DOCKED: ENDBRANCH   1   7
DOCKED: BRANCH   1  13
DOCKED: ATOM     13  C   UNL d   1      44.078  24.156  19.659 -0.26 +0.03    +0.073 C 
DOCKED: ATOM     14  O   UNL d   1      43.970  23.330  20.632 -0.52 -0.28    -0.547 OA
DOCKED: ATOM     15  O   UNL d   1      43.161  24.376  18.788 -0.07 -0.18    -0.547 OA
DOCKED: ENDBRANCH   1  13
DOCKED: TORSDOF 6
DOCKED: TER
DOCKED: ENDMDL
________________________________________________________________________________


	BEGINNING GENETIC ALGORITHM DOCKING 57 of 100
Run: 57 Seed: 878501149 1135146670 [ Run 57 of 100 GA/GALS ]
Beginning LAMARCKIAN GENETIC ALGORITHM (LGA), with a maximum of 25000000 energy evaluations.

Final-Value: -6.613


	FINAL GENETIC ALGORITHM DOCKED STATE
	_______________________________________________


Detailed state:  trans 45.012 24.276 19.116 quatxyzw -0.427908 -0.095901 0.356372 0.825043 center 0.015 0.083 0.031 ntor 6 174.7822 178.6200 128.5719 54.8498 -38.0797 34.9522
State:	 45.012  24.276  19.116  -0.757 -0.170  0.631 68.814    174.78  178.62  128.57   54.85  -38.08   34.95

DOCKED: MODEL       57
DOCKED: USER    Run = 57
DOCKED: USER    DPF = D:/Protein_go_brrr/autodock/final/6BB5/2_3_BPG/dock.dpf
DOCKED: USER  
DOCKED: USER    Estimated Free Energy of Binding    =   -6.85 kcal/mol  [=(1)+(2)+(3)-(4)]
DOCKED: USER    Estimated Inhibition Constant, Ki   =    9.52 uM (micromolar)  [Temperature = 298.15 K]
DOCKED: USER    
DOCKED: USER    (1) Final Intermolecular Energy     =   -8.64 kcal/mol
DOCKED: USER        vdW + Hbond + desolv Energy     =   -3.20 kcal/mol
DOCKED: USER        Electrostatic Energy            =   -5.43 kcal/mol
DOCKED: USER    (2) Final Total Internal Energy     =   +2.03 kcal/mol
DOCKED: USER    (3) Torsional Free Energy           =   +1.79 kcal/mol
DOCKED: USER    (4) Unbound System's Energy  [=(2)] =   +2.03 kcal/mol
DOCKED: USER    
DOCKED: USER    
DOCKED: USER    NEWDPF move 2_3_BPG_opt.pdbqt
DOCKED: USER    NEWDPF about 0.015000 0.083000 0.031000
DOCKED: USER    NEWDPF tran0 45.012200 24.275736 19.115808
DOCKED: USER    NEWDPF quaternion0 -0.427908 -0.095901 0.356372 0.825043
DOCKED: USER    NEWDPF axisangle0 -0.757266 -0.169716 0.630670 68.814224
DOCKED: USER    NEWDPF quat0 -0.757266 -0.169716 0.630670 68.814224
DOCKED: USER    NEWDPF dihe0 174.78 178.62 128.57 54.85 -38.08 34.95 
DOCKED: USER  keepresnum = 1 
DOCKED: USER  
DOCKED: REMARK  6 active torsions:
DOCKED: REMARK  status: ('A' for Active; 'I' for Inactive)
DOCKED: REMARK    1  A    between atoms: P_1  and  O_3 
DOCKED: REMARK    2  A    between atoms: P_2  and  O_4 
DOCKED: REMARK    3  A    between atoms: O_3  and  C_13 
DOCKED: REMARK    4  A    between atoms: O_4  and  C_14 
DOCKED: REMARK    5  A    between atoms: C_13  and  C_14 
DOCKED: REMARK    6  A    between atoms: C_13  and  C_15 
DOCKED: USER                              x       y       z     vdW  Elec       q    Type
DOCKED: USER                           _______ _______ _______ _____ _____    ______ ____
DOCKED: ROOT
DOCKED: ATOM      1  C   UNL d   1      44.363  24.382  19.246 -0.18 +0.08    +0.193 C 
DOCKED: ENDROOT
DOCKED: BRANCH   1   2
DOCKED: ATOM      2  O   UNL d   1      44.228  25.714  19.845 -0.10 -0.21    -0.356 OA
DOCKED: BRANCH   2   3
DOCKED: ATOM      3  P   UNL d   1      44.596  26.039  21.415 -0.24 -0.02    -0.014 P 
DOCKED: ATOM      4  O   UNL d   1      44.931  24.668  22.022 -0.02 -0.48    -0.577 OA
DOCKED: ATOM      5  O   UNL d   1      43.351  26.648  22.055 -0.76 -1.07    -0.577 OA
DOCKED: ATOM      6  O   UNL d   1      45.805  26.969  21.432 -0.25 -1.13    -0.638 OA
DOCKED: ENDBRANCH   2   3
DOCKED: ENDBRANCH   1   2
DOCKED: BRANCH   1   7
DOCKED: ATOM      7  C   UNL d   1      45.820  24.232  18.671 -0.08 +0.10    +0.201 C 
DOCKED: BRANCH   7   8
DOCKED: ATOM      8  O   UNL d   1      46.031  23.123  17.769 -0.06 -0.21    -0.364 OA
DOCKED: BRANCH   8   9
DOCKED: ATOM      9  P   UNL d   1      47.074  23.278  16.494 -0.29 -0.02    -0.015 P 
DOCKED: ATOM     10  O   UNL d   1      46.674  24.590  15.808 -0.12 -0.40    -0.577 OA
DOCKED: ATOM     11  O   UNL d   1      46.852  22.068  15.587 -0.07 -0.86    -0.577 OA
DOCKED: ATOM     12  O   UNL d   1      48.487  23.341  17.072 -0.57 -0.98    -0.638 OA
DOCKED: ENDBRANCH   8   9
DOCKED: ENDBRANCH   7   8
DOCKED: ENDBRANCH   1   7
DOCKED: BRANCH   1  13
DOCKED: ATOM     13  C   UNL d   1      43.336  24.215  18.064 -0.32 +0.02    +0.073 C 
DOCKED: ATOM     14  O   UNL d   1      42.615  23.157  18.026 -0.11 -0.12    -0.547 OA
DOCKED: ATOM     15  O   UNL d   1      43.237  25.191  17.236 -0.03 -0.15    -0.547 OA
DOCKED: ENDBRANCH   1  13
DOCKED: TORSDOF 6
DOCKED: TER
DOCKED: ENDMDL
________________________________________________________________________________


	BEGINNING GENETIC ALGORITHM DOCKING 58 of 100
Run: 58 Seed: 1437243723 428268840 [ Run 58 of 100 GA/GALS ]
Beginning LAMARCKIAN GENETIC ALGORITHM (LGA), with a maximum of 25000000 energy evaluations.

Final-Value: -6.408


	FINAL GENETIC ALGORITHM DOCKED STATE
	_______________________________________________


Detailed state:  trans 44.768 25.056 21.891 quatxyzw 0.058639 -0.745842 -0.187197 -0.636583 center 0.015 0.083 0.031 ntor 6 179.7287 178.2352 13.3178 59.8299 53.1189 -4.7004
State:	 44.768  25.056  21.891   0.076 -0.967 -0.243 -100.925    179.73  178.24   13.32   59.83   53.12   -4.70

DOCKED: MODEL       58
DOCKED: USER    Run = 58
DOCKED: USER    DPF = D:/Protein_go_brrr/autodock/final/6BB5/2_3_BPG/dock.dpf
DOCKED: USER  
DOCKED: USER    Estimated Free Energy of Binding    =   -6.82 kcal/mol  [=(1)+(2)+(3)-(4)]
DOCKED: USER    Estimated Inhibition Constant, Ki   =   10.04 uM (micromolar)  [Temperature = 298.15 K]
DOCKED: USER    
DOCKED: USER    (1) Final Intermolecular Energy     =   -8.61 kcal/mol
DOCKED: USER        vdW + Hbond + desolv Energy     =   -3.28 kcal/mol
DOCKED: USER        Electrostatic Energy            =   -5.33 kcal/mol
DOCKED: USER    (2) Final Total Internal Energy     =   +2.20 kcal/mol
DOCKED: USER    (3) Torsional Free Energy           =   +1.79 kcal/mol
DOCKED: USER    (4) Unbound System's Energy  [=(2)] =   +2.20 kcal/mol
DOCKED: USER    
DOCKED: USER    
DOCKED: USER    NEWDPF move 2_3_BPG_opt.pdbqt
DOCKED: USER    NEWDPF about 0.015000 0.083000 0.031000
DOCKED: USER    NEWDPF tran0 44.767784 25.056146 21.891433
DOCKED: USER    NEWDPF quaternion0 0.058639 -0.745842 -0.187197 -0.636583
DOCKED: USER    NEWDPF axisangle0 0.076035 -0.967109 -0.242732 -100.924982
DOCKED: USER    NEWDPF quat0 0.076035 -0.967109 -0.242732 -100.924982
DOCKED: USER    NEWDPF dihe0 179.73 178.24 13.32 59.83 53.12 -4.70 
DOCKED: USER  keepresnum = 1 
DOCKED: USER  
DOCKED: REMARK  6 active torsions:
DOCKED: REMARK  status: ('A' for Active; 'I' for Inactive)
DOCKED: REMARK    1  A    between atoms: P_1  and  O_3 
DOCKED: REMARK    2  A    between atoms: P_2  and  O_4 
DOCKED: REMARK    3  A    between atoms: O_3  and  C_13 
DOCKED: REMARK    4  A    between atoms: O_4  and  C_14 
DOCKED: REMARK    5  A    between atoms: C_13  and  C_14 
DOCKED: REMARK    6  A    between atoms: C_13  and  C_15 
DOCKED: USER                              x       y       z     vdW  Elec       q    Type
DOCKED: USER                           _______ _______ _______ _____ _____    ______ ____
DOCKED: ROOT
DOCKED: ATOM      1  C   UNL d   1      44.737  24.978  21.226 -0.18 +0.15    +0.193 C 
DOCKED: ENDROOT
DOCKED: BRANCH   1   2
DOCKED: ATOM      2  O   UNL d   1      45.674  25.925  20.612 -0.06 -0.30    -0.356 OA
DOCKED: BRANCH   2   3
DOCKED: ATOM      3  P   UNL d   1      45.406  27.546  20.545 -0.12 -0.02    -0.014 P 
DOCKED: ATOM      4  O   UNL d   1      43.984  27.722  21.101 -0.31 -0.96    -0.577 OA
DOCKED: ATOM      5  O   UNL d   1      45.491  27.960  19.078 -0.00 -0.33    -0.577 OA
DOCKED: ATOM      6  O   UNL d   1      46.441  28.232  21.431 -0.52 -1.09    -0.638 OA
DOCKED: ENDBRANCH   2   3
DOCKED: ENDBRANCH   1   2
DOCKED: BRANCH   1   7
DOCKED: ATOM      7  C   UNL d   1      45.003  24.940  22.776 -0.11 +0.22    +0.201 C 
DOCKED: BRANCH   7   8
DOCKED: ATOM      8  O   UNL d   1      43.883  24.541  23.598 -0.14 -0.31    -0.364 OA
DOCKED: BRANCH   8   9
DOCKED: ATOM      9  P   UNL d   1      43.349  25.533  24.809 -0.38 -0.02    -0.015 P 
DOCKED: ATOM     10  O   UNL d   1      42.458  24.647  25.687 -0.10 -0.33    -0.577 OA
DOCKED: ATOM     11  O   UNL d   1      42.557  26.660  24.146 -0.49 -0.90    -0.577 OA
DOCKED: ATOM     12  O   UNL d   1      44.582  26.031  25.562 -0.14 -0.95    -0.638 OA
DOCKED: ENDBRANCH   8   9
DOCKED: ENDBRANCH   7   8
DOCKED: ENDBRANCH   1   7
DOCKED: BRANCH   1  13
DOCKED: ATOM     13  C   UNL d   1      44.966  23.535  20.639 -0.20 +0.04    +0.073 C 
DOCKED: ATOM     14  O   UNL d   1      43.962  22.909  20.149 -0.48 -0.30    -0.547 OA
DOCKED: ATOM     15  O   UNL d   1      46.171  23.094  20.631 -0.04 -0.25    -0.547 OA
DOCKED: ENDBRANCH   1  13
DOCKED: TORSDOF 6
DOCKED: TER
DOCKED: ENDMDL
________________________________________________________________________________


	BEGINNING GENETIC ALGORITHM DOCKING 59 of 100
Run: 59 Seed: 924437203 1752237158 [ Run 59 of 100 GA/GALS ]
Beginning LAMARCKIAN GENETIC ALGORITHM (LGA), with a maximum of 25000000 energy evaluations.

Final-Value: -6.328


	FINAL GENETIC ALGORITHM DOCKED STATE
	_______________________________________________


Detailed state:  trans 45.438 25.071 18.584 quatxyzw -0.313724 -0.160729 0.457981 0.816086 center 0.015 0.083 0.031 ntor 6 -169.7506 -18.8546 -168.2140 25.8413 -8.2255 -11.1231
State:	 45.438  25.071  18.584  -0.543 -0.278  0.792 70.610   -169.75  -18.85 -168.21   25.84   -8.23  -11.12

DOCKED: MODEL       59
DOCKED: USER    Run = 59
DOCKED: USER    DPF = D:/Protein_go_brrr/autodock/final/6BB5/2_3_BPG/dock.dpf
DOCKED: USER  
DOCKED: USER    Estimated Free Energy of Binding    =   -6.43 kcal/mol  [=(1)+(2)+(3)-(4)]
DOCKED: USER    Estimated Inhibition Constant, Ki   =   19.28 uM (micromolar)  [Temperature = 298.15 K]
DOCKED: USER    
DOCKED: USER    (1) Final Intermolecular Energy     =   -8.22 kcal/mol
DOCKED: USER        vdW + Hbond + desolv Energy     =   -2.64 kcal/mol
DOCKED: USER        Electrostatic Energy            =   -5.59 kcal/mol
DOCKED: USER    (2) Final Total Internal Energy     =   +1.89 kcal/mol
DOCKED: USER    (3) Torsional Free Energy           =   +1.79 kcal/mol
DOCKED: USER    (4) Unbound System's Energy  [=(2)] =   +1.89 kcal/mol
DOCKED: USER    
DOCKED: USER    
DOCKED: USER    NEWDPF move 2_3_BPG_opt.pdbqt
DOCKED: USER    NEWDPF about 0.015000 0.083000 0.031000
DOCKED: USER    NEWDPF tran0 45.438068 25.071120 18.584437
DOCKED: USER    NEWDPF quaternion0 -0.313724 -0.160729 0.457981 0.816086
DOCKED: USER    NEWDPF axisangle0 -0.542840 -0.278111 0.792451 70.610172
DOCKED: USER    NEWDPF quat0 -0.542840 -0.278111 0.792451 70.610172
DOCKED: USER    NEWDPF dihe0 -169.75 -18.85 -168.21 25.84 -8.23 -11.12 
DOCKED: USER  keepresnum = 1 
DOCKED: USER  
DOCKED: REMARK  6 active torsions:
DOCKED: REMARK  status: ('A' for Active; 'I' for Inactive)
DOCKED: REMARK    1  A    between atoms: P_1  and  O_3 
DOCKED: REMARK    2  A    between atoms: P_2  and  O_4 
DOCKED: REMARK    3  A    between atoms: O_3  and  C_13 
DOCKED: REMARK    4  A    between atoms: O_4  and  C_14 
DOCKED: REMARK    5  A    between atoms: C_13  and  C_14 
DOCKED: REMARK    6  A    between atoms: C_13  and  C_15 
DOCKED: USER                              x       y       z     vdW  Elec       q    Type
DOCKED: USER                           _______ _______ _______ _____ _____    ______ ____
DOCKED: ROOT
DOCKED: ATOM      1  C   UNL d   1      44.861  25.269  18.863 -0.12 +0.09    +0.193 C 
DOCKED: ENDROOT
DOCKED: BRANCH   1   2
DOCKED: ATOM      2  O   UNL d   1      44.999  26.678  19.248 -0.07 -0.21    -0.356 OA
DOCKED: BRANCH   2   3
DOCKED: ATOM      3  P   UNL d   1      45.163  27.176  20.806 -0.12 -0.02    -0.014 P 
DOCKED: ATOM      4  O   UNL d   1      45.841  28.551  20.700 -0.34 -0.71    -0.577 OA
DOCKED: ATOM      5  O   UNL d   1      46.059  26.161  21.514 -0.11 -0.72    -0.577 OA
DOCKED: ATOM      6  O   UNL d   1      43.769  27.285  21.416 -0.45 -1.17    -0.638 OA
DOCKED: ENDBRANCH   2   3
DOCKED: ENDBRANCH   1   2
DOCKED: BRANCH   1   7
DOCKED: ATOM      7  C   UNL d   1      46.083  24.872  17.955 -0.11 +0.10    +0.201 C 
DOCKED: BRANCH   7   8
DOCKED: ATOM      8  O   UNL d   1      46.523  23.499  18.055 -0.04 -0.22    -0.364 OA
DOCKED: BRANCH   8   9
DOCKED: ATOM      9  P   UNL d   1      47.714  22.935  17.055 -0.05 -0.02    -0.015 P 
DOCKED: ATOM     10  O   UNL d   1      48.343  24.189  16.436 -0.44 -0.71    -0.577 OA
DOCKED: ATOM     11  O   UNL d   1      47.036  22.058  16.004 -0.13 -0.89    -0.577 OA
DOCKED: ATOM     12  O   UNL d   1      48.707  22.166  17.926 -0.24 -0.83    -0.638 OA
DOCKED: ENDBRANCH   8   9
DOCKED: ENDBRANCH   7   8
DOCKED: ENDBRANCH   1   7
DOCKED: BRANCH   1  13
DOCKED: ATOM     13  C   UNL d   1      43.534  25.061  18.041 -0.28 +0.02    +0.073 C 
DOCKED: ATOM     14  O   UNL d   1      42.620  24.314  18.537 -0.10 -0.15    -0.547 OA
DOCKED: ATOM     15  O   UNL d   1      43.422  25.713  16.941 -0.04 -0.15    -0.547 OA
DOCKED: ENDBRANCH   1  13
DOCKED: TORSDOF 6
DOCKED: TER
DOCKED: ENDMDL
________________________________________________________________________________


	BEGINNING GENETIC ALGORITHM DOCKING 60 of 100
Run: 60 Seed: 2030784133 884519055 [ Run 60 of 100 GA/GALS ]
Beginning LAMARCKIAN GENETIC ALGORITHM (LGA), with a maximum of 25000000 energy evaluations.

Final-Value: -6.932


	FINAL GENETIC ALGORITHM DOCKED STATE
	_______________________________________________


Detailed state:  trans 3.259 42.937 -1.602 quatxyzw 0.054750 -0.559251 -0.134562 0.816170 center 0.015 0.083 0.031 ntor 6 -29.0403 48.1915 -56.8899 -26.1671 -28.9466 -93.3890
State:	  3.259  42.937  -1.602   0.095 -0.968 -0.233 70.593    -29.04   48.19  -56.89  -26.17  -28.95  -93.39

DOCKED: MODEL       60
DOCKED: USER    Run = 60
DOCKED: USER    DPF = D:/Protein_go_brrr/autodock/final/6BB5/2_3_BPG/dock.dpf
DOCKED: USER  
DOCKED: USER    Estimated Free Energy of Binding    =   -7.30 kcal/mol  [=(1)+(2)+(3)-(4)]
DOCKED: USER    Estimated Inhibition Constant, Ki   =    4.46 uM (micromolar)  [Temperature = 298.15 K]
DOCKED: USER    
DOCKED: USER    (1) Final Intermolecular Energy     =   -9.09 kcal/mol
DOCKED: USER        vdW + Hbond + desolv Energy     =   -3.46 kcal/mol
DOCKED: USER        Electrostatic Energy            =   -5.63 kcal/mol
DOCKED: USER    (2) Final Total Internal Energy     =   +2.16 kcal/mol
DOCKED: USER    (3) Torsional Free Energy           =   +1.79 kcal/mol
DOCKED: USER    (4) Unbound System's Energy  [=(2)] =   +2.16 kcal/mol
DOCKED: USER    
DOCKED: USER    
DOCKED: USER    NEWDPF move 2_3_BPG_opt.pdbqt
DOCKED: USER    NEWDPF about 0.015000 0.083000 0.031000
DOCKED: USER    NEWDPF tran0 3.258659 42.937468 -1.601854
DOCKED: USER    NEWDPF quaternion0 0.054750 -0.559251 -0.134562 0.816170
DOCKED: USER    NEWDPF axisangle0 0.094754 -0.967878 -0.232882 70.593474
DOCKED: USER    NEWDPF quat0 0.094754 -0.967878 -0.232882 70.593474
DOCKED: USER    NEWDPF dihe0 -29.04 48.19 -56.89 -26.17 -28.95 -93.39 
DOCKED: USER  keepresnum = 1 
DOCKED: USER  
DOCKED: REMARK  6 active torsions:
DOCKED: REMARK  status: ('A' for Active; 'I' for Inactive)
DOCKED: REMARK    1  A    between atoms: P_1  and  O_3 
DOCKED: REMARK    2  A    between atoms: P_2  and  O_4 
DOCKED: REMARK    3  A    between atoms: O_3  and  C_13 
DOCKED: REMARK    4  A    between atoms: O_4  and  C_14 
DOCKED: REMARK    5  A    between atoms: C_13  and  C_14 
DOCKED: REMARK    6  A    between atoms: C_13  and  C_15 
DOCKED: USER                              x       y       z     vdW  Elec       q    Type
DOCKED: USER                           _______ _______ _______ _____ _____    ______ ____
DOCKED: ROOT
DOCKED: ATOM      1  C   UNL d   1       3.232  42.568  -1.043 -0.23 +0.13    +0.193 C 
DOCKED: ENDROOT
DOCKED: BRANCH   1   2
DOCKED: ATOM      2  O   UNL d   1       2.075  43.012  -0.257 -0.09 -0.30    -0.356 OA
DOCKED: BRANCH   2   3
DOCKED: ATOM      3  P   UNL d   1       1.929  42.753   1.360 -0.36 -0.02    -0.014 P 
DOCKED: ATOM      4  O   UNL d   1       0.477  42.287   1.544 -0.28 -0.88    -0.577 OA
DOCKED: ATOM      5  O   UNL d   1       2.183  44.088   2.057 -0.00 -0.36    -0.577 OA
DOCKED: ATOM      6  O   UNL d   1       2.921  41.664   1.754 -0.43 -1.02    -0.638 OA
DOCKED: ENDBRANCH   2   3
DOCKED: ENDBRANCH   1   2
DOCKED: BRANCH   1   7
DOCKED: ATOM      7  C   UNL d   1       3.145  43.212  -2.476 -0.15 +0.10    +0.201 C 
DOCKED: BRANCH   7   8
DOCKED: ATOM      8  O   UNL d   1       3.283  44.649  -2.531 -0.18 -0.26    -0.364 OA
DOCKED: BRANCH   8   9
DOCKED: ATOM      9  P   UNL d   1       3.843  45.377  -3.907 -0.40 -0.01    -0.015 P 
DOCKED: ATOM     10  O   UNL d   1       2.772  46.410  -4.275 -0.13 -0.81    -0.577 OA
DOCKED: ATOM     11  O   UNL d   1       3.971  44.284  -4.969 -0.09 -0.31    -0.577 OA
DOCKED: ATOM     12  O   UNL d   1       5.178  46.033  -3.559 -0.58 -0.79    -0.638 OA
DOCKED: ENDBRANCH   8   9
DOCKED: ENDBRANCH   7   8
DOCKED: ENDBRANCH   1   7
DOCKED: BRANCH   1  13
DOCKED: ATOM     13  C   UNL d   1       3.214  41.001  -1.192 -0.29 +0.07    +0.073 C 
DOCKED: ATOM     14  O   UNL d   1       2.091  40.391  -1.096 -0.17 -0.86    -0.547 OA
DOCKED: ATOM     15  O   UNL d   1       4.330  40.429  -1.467 -0.10 -0.30    -0.547 OA
DOCKED: ENDBRANCH   1  13
DOCKED: TORSDOF 6
DOCKED: TER
DOCKED: ENDMDL
________________________________________________________________________________


	BEGINNING GENETIC ALGORITHM DOCKING 61 of 100
Run: 61 Seed: 1767575734 2114694672 [ Run 61 of 100 GA/GALS ]
Beginning LAMARCKIAN GENETIC ALGORITHM (LGA), with a maximum of 25000000 energy evaluations.

Final-Value: -6.314


	FINAL GENETIC ALGORITHM DOCKED STATE
	_______________________________________________


Detailed state:  trans 46.477 25.941 19.657 quatxyzw -0.928489 0.121326 0.350962 0.003690 center 0.015 0.083 0.031 ntor 6 133.6301 16.7464 -157.3521 -1.9748 -5.6286 -32.3944
State:	 46.477  25.941  19.657  -0.928  0.121  0.351 179.577    133.63   16.75 -157.35   -1.97   -5.63  -32.39

DOCKED: MODEL       61
DOCKED: USER    Run = 61
DOCKED: USER    DPF = D:/Protein_go_brrr/autodock/final/6BB5/2_3_BPG/dock.dpf
DOCKED: USER  
DOCKED: USER    Estimated Free Energy of Binding    =   -6.58 kcal/mol  [=(1)+(2)+(3)-(4)]
DOCKED: USER    Estimated Inhibition Constant, Ki   =   15.03 uM (micromolar)  [Temperature = 298.15 K]
DOCKED: USER    
DOCKED: USER    (1) Final Intermolecular Energy     =   -8.37 kcal/mol
DOCKED: USER        vdW + Hbond + desolv Energy     =   -2.75 kcal/mol
DOCKED: USER        Electrostatic Energy            =   -5.62 kcal/mol
DOCKED: USER    (2) Final Total Internal Energy     =   +2.06 kcal/mol
DOCKED: USER    (3) Torsional Free Energy           =   +1.79 kcal/mol
DOCKED: USER    (4) Unbound System's Energy  [=(2)] =   +2.06 kcal/mol
DOCKED: USER    
DOCKED: USER    
DOCKED: USER    NEWDPF move 2_3_BPG_opt.pdbqt
DOCKED: USER    NEWDPF about 0.015000 0.083000 0.031000
DOCKED: USER    NEWDPF tran0 46.477479 25.941259 19.657042
DOCKED: USER    NEWDPF quaternion0 -0.928489 0.121326 0.350962 0.003690
DOCKED: USER    NEWDPF axisangle0 -0.928495 0.121326 0.350964 179.577200
DOCKED: USER    NEWDPF quat0 -0.928495 0.121326 0.350964 179.577200
DOCKED: USER    NEWDPF dihe0 133.63 16.75 -157.35 -1.97 -5.63 -32.39 
DOCKED: USER  keepresnum = 1 
DOCKED: USER  
DOCKED: REMARK  6 active torsions:
DOCKED: REMARK  status: ('A' for Active; 'I' for Inactive)
DOCKED: REMARK    1  A    between atoms: P_1  and  O_3 
DOCKED: REMARK    2  A    between atoms: P_2  and  O_4 
DOCKED: REMARK    3  A    between atoms: O_3  and  C_13 
DOCKED: REMARK    4  A    between atoms: O_4  and  C_14 
DOCKED: REMARK    5  A    between atoms: C_13  and  C_14 
DOCKED: REMARK    6  A    between atoms: C_13  and  C_15 
DOCKED: USER                              x       y       z     vdW  Elec       q    Type
DOCKED: USER                           _______ _______ _______ _____ _____    ______ ____
DOCKED: ROOT
DOCKED: ATOM      1  C   UNL d   1      46.062  26.385  19.940 -0.09 +0.14    +0.193 C 
DOCKED: ENDROOT
DOCKED: BRANCH   1   2
DOCKED: ATOM      2  O   UNL d   1      45.543  25.799  21.181 -0.09 -0.37    -0.356 OA
DOCKED: BRANCH   2   3
DOCKED: ATOM      3  P   UNL d   1      43.955  25.845  21.606 -0.28 -0.02    -0.014 P 
DOCKED: ATOM      4  O   UNL d   1      43.942  25.420  23.083 -0.21 -0.81    -0.577 OA
DOCKED: ATOM      5  O   UNL d   1      43.222  24.836  20.725 -0.01 -0.31    -0.577 OA
DOCKED: ATOM      6  O   UNL d   1      43.462  27.277  21.432 -0.52 -1.11    -0.638 OA
DOCKED: ENDBRANCH   2   3
DOCKED: ENDBRANCH   1   2
DOCKED: BRANCH   1   7
DOCKED: ATOM      7  C   UNL d   1      47.248  25.493  19.418 -0.03 +0.11    +0.201 C 
DOCKED: BRANCH   7   8
DOCKED: ATOM      8  O   UNL d   1      47.146  25.047  18.048 -0.04 -0.20    -0.364 OA
DOCKED: BRANCH   8   9
DOCKED: ATOM      9  P   UNL d   1      48.366  24.157  17.372 -0.22 -0.01    -0.015 P 
DOCKED: ATOM     10  O   UNL d   1      49.069  23.480  18.555 -0.04 -0.45    -0.577 OA
DOCKED: ATOM     11  O   UNL d   1      49.286  25.139  16.648 -0.10 -0.47    -0.577 OA
DOCKED: ATOM     12  O   UNL d   1      47.717  23.141  16.433 -0.43 -1.03    -0.638 OA
DOCKED: ENDBRANCH   8   9
DOCKED: ENDBRANCH   7   8
DOCKED: ENDBRANCH   1   7
DOCKED: BRANCH   1  13
DOCKED: ATOM     13  C   UNL d   1      46.605  27.837  20.214 -0.12 +0.06    +0.073 C 
DOCKED: ATOM     14  O   UNL d   1      46.965  28.553  19.215 -0.01 -0.28    -0.547 OA
DOCKED: ATOM     15  O   UNL d   1      46.594  28.243  21.431 -0.56 -0.87    -0.547 OA
DOCKED: ENDBRANCH   1  13
DOCKED: TORSDOF 6
DOCKED: TER
DOCKED: ENDMDL
________________________________________________________________________________


	BEGINNING GENETIC ALGORITHM DOCKING 62 of 100
Run: 62 Seed: 1464640510 721780777 [ Run 62 of 100 GA/GALS ]
Beginning LAMARCKIAN GENETIC ALGORITHM (LGA), with a maximum of 25000000 energy evaluations.

Final-Value: -7.387


	FINAL GENETIC ALGORITHM DOCKED STATE
	_______________________________________________


Detailed state:  trans 45.444 24.860 19.147 quatxyzw 0.160072 -0.447833 0.185643 0.859860 center 0.015 0.083 0.031 ntor 6 -177.9028 80.6043 -140.5080 16.2203 -16.5861 -9.7414
State:	 45.444  24.860  19.147   0.314 -0.877  0.364 61.398   -177.90   80.60 -140.51   16.22  -16.59   -9.74

DOCKED: MODEL       62
DOCKED: USER    Run = 62
DOCKED: USER    DPF = D:/Protein_go_brrr/autodock/final/6BB5/2_3_BPG/dock.dpf
DOCKED: USER  
DOCKED: USER    Estimated Free Energy of Binding    =   -7.50 kcal/mol  [=(1)+(2)+(3)-(4)]
DOCKED: USER    Estimated Inhibition Constant, Ki   =    3.18 uM (micromolar)  [Temperature = 298.15 K]
DOCKED: USER    
DOCKED: USER    (1) Final Intermolecular Energy     =   -9.29 kcal/mol
DOCKED: USER        vdW + Hbond + desolv Energy     =   -3.30 kcal/mol
DOCKED: USER        Electrostatic Energy            =   -5.99 kcal/mol
DOCKED: USER    (2) Final Total Internal Energy     =   +1.90 kcal/mol
DOCKED: USER    (3) Torsional Free Energy           =   +1.79 kcal/mol
DOCKED: USER    (4) Unbound System's Energy  [=(2)] =   +1.90 kcal/mol
DOCKED: USER    
DOCKED: USER    
DOCKED: USER    NEWDPF move 2_3_BPG_opt.pdbqt
DOCKED: USER    NEWDPF about 0.015000 0.083000 0.031000
DOCKED: USER    NEWDPF tran0 45.443565 24.859964 19.147441
DOCKED: USER    NEWDPF quaternion0 0.160072 -0.447833 0.185643 0.859860
DOCKED: USER    NEWDPF axisangle0 0.313540 -0.877192 0.363629 61.398237
DOCKED: USER    NEWDPF quat0 0.313540 -0.877192 0.363629 61.398237
DOCKED: USER    NEWDPF dihe0 -177.90 80.60 -140.51 16.22 -16.59 -9.74 
DOCKED: USER  keepresnum = 1 
DOCKED: USER  
DOCKED: REMARK  6 active torsions:
DOCKED: REMARK  status: ('A' for Active; 'I' for Inactive)
DOCKED: REMARK    1  A    between atoms: P_1  and  O_3 
DOCKED: REMARK    2  A    between atoms: P_2  and  O_4 
DOCKED: REMARK    3  A    between atoms: O_3  and  C_13 
DOCKED: REMARK    4  A    between atoms: O_4  and  C_14 
DOCKED: REMARK    5  A    between atoms: C_13  and  C_14 
DOCKED: REMARK    6  A    between atoms: C_13  and  C_15 
DOCKED: USER                              x       y       z     vdW  Elec       q    Type
DOCKED: USER                           _______ _______ _______ _____ _____    ______ ____
DOCKED: ROOT
DOCKED: ATOM      1  C   UNL d   1      45.155  24.867  19.753 -0.11 +0.10    +0.193 C 
DOCKED: ENDROOT
DOCKED: BRANCH   1   2
DOCKED: ATOM      2  O   UNL d   1      44.206  25.984  19.794 -0.11 -0.22    -0.356 OA
DOCKED: BRANCH   2   3
DOCKED: ATOM      3  P   UNL d   1      44.369  27.270  20.807 -0.18 -0.02    -0.014 P 
DOCKED: ATOM      4  O   UNL d   1      43.343  27.013  21.921 -0.62 -1.17    -0.577 OA
DOCKED: ATOM      5  O   UNL d   1      44.024  28.524  20.005 -0.15 -0.49    -0.577 OA
DOCKED: ATOM      6  O   UNL d   1      45.795  27.267  21.347 -0.25 -1.19    -0.638 OA
DOCKED: ENDBRANCH   2   3
DOCKED: ENDBRANCH   1   2
DOCKED: BRANCH   1   7
DOCKED: ATOM      7  C   UNL d   1      45.621  24.655  18.265 -0.10 +0.09    +0.201 C 
DOCKED: BRANCH   7   8
DOCKED: ATOM      8  O   UNL d   1      46.958  24.136  18.091 -0.04 -0.22    -0.364 OA
DOCKED: BRANCH   8   9
DOCKED: ATOM      9  P   UNL d   1      47.439  23.560  16.617 -0.23 -0.02    -0.015 P 
DOCKED: ATOM     10  O   UNL d   1      46.876  24.557  15.596 -0.06 -0.44    -0.577 OA
DOCKED: ATOM     11  O   UNL d   1      46.823  22.171  16.458 -0.14 -0.70    -0.577 OA
DOCKED: ATOM     12  O   UNL d   1      48.967  23.541  16.616 -0.34 -1.27    -0.638 OA
DOCKED: ENDBRANCH   8   9
DOCKED: ENDBRANCH   7   8
DOCKED: ENDBRANCH   1   7
DOCKED: BRANCH   1  13
DOCKED: ATOM     13  C   UNL d   1      44.458  23.547  20.255 -0.22 +0.03    +0.073 C 
DOCKED: ATOM     14  O   UNL d   1      44.990  22.908  21.229 -0.46 -0.27    -0.547 OA
DOCKED: ATOM     15  O   UNL d   1      43.351  23.223  19.692 -0.29 -0.22    -0.547 OA
DOCKED: ENDBRANCH   1  13
DOCKED: TORSDOF 6
DOCKED: TER
DOCKED: ENDMDL
________________________________________________________________________________


	BEGINNING GENETIC ALGORITHM DOCKING 63 of 100
Run: 63 Seed: 980731630 1269539710 [ Run 63 of 100 GA/GALS ]
Beginning LAMARCKIAN GENETIC ALGORITHM (LGA), with a maximum of 25000000 energy evaluations.

Final-Value: -6.798


	FINAL GENETIC ALGORITHM DOCKED STATE
	_______________________________________________


Detailed state:  trans 45.183 24.882 18.694 quatxyzw 0.044631 0.411663 -0.413354 -0.810974 center 0.015 0.083 0.031 ntor 6 -7.6328 -21.9257 -56.0323 -7.5198 17.7989 -18.9408
State:	 45.183  24.882  18.694   0.076  0.704 -0.706 -71.617     -7.63  -21.93  -56.03   -7.52   17.80  -18.94

DOCKED: MODEL       63
DOCKED: USER    Run = 63
DOCKED: USER    DPF = D:/Protein_go_brrr/autodock/final/6BB5/2_3_BPG/dock.dpf
DOCKED: USER  
DOCKED: USER    Estimated Free Energy of Binding    =   -6.97 kcal/mol  [=(1)+(2)+(3)-(4)]
DOCKED: USER    Estimated Inhibition Constant, Ki   =    7.79 uM (micromolar)  [Temperature = 298.15 K]
DOCKED: USER    
DOCKED: USER    (1) Final Intermolecular Energy     =   -8.76 kcal/mol
DOCKED: USER        vdW + Hbond + desolv Energy     =   -3.04 kcal/mol
DOCKED: USER        Electrostatic Energy            =   -5.72 kcal/mol
DOCKED: USER    (2) Final Total Internal Energy     =   +1.96 kcal/mol
DOCKED: USER    (3) Torsional Free Energy           =   +1.79 kcal/mol
DOCKED: USER    (4) Unbound System's Energy  [=(2)] =   +1.96 kcal/mol
DOCKED: USER    
DOCKED: USER    
DOCKED: USER    NEWDPF move 2_3_BPG_opt.pdbqt
DOCKED: USER    NEWDPF about 0.015000 0.083000 0.031000
DOCKED: USER    NEWDPF tran0 45.183148 24.881731 18.694054
DOCKED: USER    NEWDPF quaternion0 0.044631 0.411663 -0.413354 -0.810974
DOCKED: USER    NEWDPF axisangle0 0.076282 0.703600 -0.706490 -71.617496
DOCKED: USER    NEWDPF quat0 0.076282 0.703600 -0.706490 -71.617496
DOCKED: USER    NEWDPF dihe0 -7.63 -21.93 -56.03 -7.52 17.80 -18.94 
DOCKED: USER  keepresnum = 1 
DOCKED: USER  
DOCKED: REMARK  6 active torsions:
DOCKED: REMARK  status: ('A' for Active; 'I' for Inactive)
DOCKED: REMARK    1  A    between atoms: P_1  and  O_3 
DOCKED: REMARK    2  A    between atoms: P_2  and  O_4 
DOCKED: REMARK    3  A    between atoms: O_3  and  C_13 
DOCKED: REMARK    4  A    between atoms: O_4  and  C_14 
DOCKED: REMARK    5  A    between atoms: C_13  and  C_14 
DOCKED: REMARK    6  A    between atoms: C_13  and  C_15 
DOCKED: USER                              x       y       z     vdW  Elec       q    Type
DOCKED: USER                           _______ _______ _______ _____ _____    ______ ____
DOCKED: ROOT
DOCKED: ATOM      1  C   UNL d   1      44.834  25.011  19.252 -0.12 +0.09    +0.193 C 
DOCKED: ENDROOT
DOCKED: BRANCH   1   2
DOCKED: ATOM      2  O   UNL d   1      44.657  26.463  19.355 -0.08 -0.21    -0.356 OA
DOCKED: BRANCH   2   3
DOCKED: ATOM      3  P   UNL d   1      44.770  27.288  20.774 -0.17 -0.02    -0.014 P 
DOCKED: ATOM      4  O   UNL d   1      45.182  28.709  20.359 -0.09 -0.61    -0.577 OA
DOCKED: ATOM      5  O   UNL d   1      45.855  26.609  21.607 -0.12 -0.98    -0.577 OA
DOCKED: ATOM      6  O   UNL d   1      43.396  27.274  21.437 -0.53 -1.10    -0.638 OA
DOCKED: ENDBRANCH   2   3
DOCKED: ENDBRANCH   1   2
DOCKED: BRANCH   1   7
DOCKED: ATOM      7  C   UNL d   1      45.388  24.670  17.819 -0.13 +0.09    +0.201 C 
DOCKED: BRANCH   7   8
DOCKED: ATOM      8  O   UNL d   1      46.391  23.632  17.762 -0.05 -0.22    -0.364 OA
DOCKED: BRANCH   8   9
DOCKED: ATOM      9  P   UNL d   1      47.406  23.530  16.459 -0.22 -0.02    -0.015 P 
DOCKED: ATOM     10  O   UNL d   1      48.820  23.532  17.054 -0.61 -0.88    -0.577 OA
DOCKED: ATOM     11  O   UNL d   1      47.149  24.764  15.596 -0.01 -0.44    -0.577 OA
DOCKED: ATOM     12  O   UNL d   1      47.088  22.219  15.741 -0.10 -1.06    -0.638 OA
DOCKED: ENDBRANCH   8   9
DOCKED: ENDBRANCH   7   8
DOCKED: ENDBRANCH   1   7
DOCKED: BRANCH   1  13
DOCKED: ATOM     13  C   UNL d   1      43.451  24.284  19.443 -0.33 +0.03    +0.073 C 
DOCKED: ATOM     14  O   UNL d   1      42.431  24.734  18.812 -0.12 -0.15    -0.547 OA
DOCKED: ATOM     15  O   UNL d   1      43.442  23.233  20.180 -0.35 -0.25    -0.547 OA
DOCKED: ENDBRANCH   1  13
DOCKED: TORSDOF 6
DOCKED: TER
DOCKED: ENDMDL
________________________________________________________________________________


	BEGINNING GENETIC ALGORITHM DOCKING 64 of 100
Run: 64 Seed: 1424646190 1218263493 [ Run 64 of 100 GA/GALS ]
Beginning LAMARCKIAN GENETIC ALGORITHM (LGA), with a maximum of 25000000 energy evaluations.

Final-Value: -7.025


	FINAL GENETIC ALGORITHM DOCKED STATE
	_______________________________________________


Detailed state:  trans 45.540 24.700 18.722 quatxyzw 0.460865 0.829019 0.080933 0.306237 center 0.015 0.083 0.031 ntor 6 42.0120 -134.4938 178.4287 34.1718 -2.3410 14.7624
State:	 45.540  24.700  18.722   0.484  0.871  0.085 144.335     42.01 -134.49  178.43   34.17   -2.34   14.76

DOCKED: MODEL       64
DOCKED: USER    Run = 64
DOCKED: USER    DPF = D:/Protein_go_brrr/autodock/final/6BB5/2_3_BPG/dock.dpf
DOCKED: USER  
DOCKED: USER    Estimated Free Energy of Binding    =   -7.22 kcal/mol  [=(1)+(2)+(3)-(4)]
DOCKED: USER    Estimated Inhibition Constant, Ki   =    5.06 uM (micromolar)  [Temperature = 298.15 K]
DOCKED: USER    
DOCKED: USER    (1) Final Intermolecular Energy     =   -9.01 kcal/mol
DOCKED: USER        vdW + Hbond + desolv Energy     =   -3.38 kcal/mol
DOCKED: USER        Electrostatic Energy            =   -5.63 kcal/mol
DOCKED: USER    (2) Final Total Internal Energy     =   +1.99 kcal/mol
DOCKED: USER    (3) Torsional Free Energy           =   +1.79 kcal/mol
DOCKED: USER    (4) Unbound System's Energy  [=(2)] =   +1.99 kcal/mol
DOCKED: USER    
DOCKED: USER    
DOCKED: USER    NEWDPF move 2_3_BPG_opt.pdbqt
DOCKED: USER    NEWDPF about 0.015000 0.083000 0.031000
DOCKED: USER    NEWDPF tran0 45.539857 24.700138 18.721658
DOCKED: USER    NEWDPF quaternion0 0.460865 0.829019 0.080933 0.306237
DOCKED: USER    NEWDPF axisangle0 0.484124 0.870859 0.085017 144.334793
DOCKED: USER    NEWDPF quat0 0.484124 0.870859 0.085017 144.334793
DOCKED: USER    NEWDPF dihe0 42.01 -134.49 178.43 34.17 -2.34 14.76 
DOCKED: USER  keepresnum = 1 
DOCKED: USER  
DOCKED: REMARK  6 active torsions:
DOCKED: REMARK  status: ('A' for Active; 'I' for Inactive)
DOCKED: REMARK    1  A    between atoms: P_1  and  O_3 
DOCKED: REMARK    2  A    between atoms: P_2  and  O_4 
DOCKED: REMARK    3  A    between atoms: O_3  and  C_13 
DOCKED: REMARK    4  A    between atoms: O_4  and  C_14 
DOCKED: REMARK    5  A    between atoms: C_13  and  C_14 
DOCKED: REMARK    6  A    between atoms: C_13  and  C_15 
DOCKED: USER                              x       y       z     vdW  Elec       q    Type
DOCKED: USER                           _______ _______ _______ _____ _____    ______ ____
DOCKED: ROOT
DOCKED: ATOM      1  C   UNL d   1      45.473  24.145  18.352 -0.11 +0.09    +0.193 C 
DOCKED: ENDROOT
DOCKED: BRANCH   1   2
DOCKED: ATOM      2  O   UNL d   1      46.808  23.575  18.137 -0.04 -0.22    -0.356 OA
DOCKED: BRANCH   2   3
DOCKED: ATOM      3  P   UNL d   1      47.682  23.818  16.765 -0.24 -0.02    -0.014 P 
DOCKED: ATOM      4  O   UNL d   1      47.469  25.303  16.433 -0.07 -0.37    -0.577 OA
DOCKED: ATOM      5  O   UNL d   1      47.094  22.911  15.687 -0.23 -0.82    -0.577 OA
DOCKED: ATOM      6  O   UNL d   1      49.144  23.519  17.080 -0.54 -1.00    -0.638 OA
DOCKED: ENDBRANCH   2   3
DOCKED: ENDBRANCH   1   2
DOCKED: BRANCH   1   7
DOCKED: ATOM      7  C   UNL d   1      45.575  25.270  19.447 -0.08 +0.11    +0.201 C 
DOCKED: BRANCH   7   8
DOCKED: ATOM      8  O   UNL d   1      44.367  26.025  19.689 -0.09 -0.22    -0.364 OA
DOCKED: BRANCH   8   9
DOCKED: ATOM      9  P   UNL d   1      44.362  27.245  20.806 -0.19 -0.02    -0.015 P 
DOCKED: ATOM     10  O   UNL d   1      45.792  27.287  21.358 -0.27 -1.09    -0.577 OA
DOCKED: ATOM     11  O   UNL d   1      43.346  26.860  21.882 -0.65 -1.08    -0.577 OA
DOCKED: ATOM     12  O   UNL d   1      43.993  28.532  20.068 -0.13 -0.56    -0.638 OA
DOCKED: ENDBRANCH   8   9
DOCKED: ENDBRANCH   7   8
DOCKED: ENDBRANCH   1   7
DOCKED: BRANCH   1  13
DOCKED: ATOM     13  C   UNL d   1      44.487  23.030  18.865 -0.21 +0.03    +0.073 C 
DOCKED: ATOM     14  O   UNL d   1      44.296  22.915  20.126 -0.52 -0.28    -0.547 OA
DOCKED: ATOM     15  O   UNL d   1      43.878  22.336  17.973 -0.02 -0.17    -0.547 OA
DOCKED: ENDBRANCH   1  13
DOCKED: TORSDOF 6
DOCKED: TER
DOCKED: ENDMDL
________________________________________________________________________________


	BEGINNING GENETIC ALGORITHM DOCKING 65 of 100
Run: 65 Seed: 57532839 813195239 [ Run 65 of 100 GA/GALS ]
Beginning LAMARCKIAN GENETIC ALGORITHM (LGA), with a maximum of 25000000 energy evaluations.

Final-Value: -7.143


	FINAL GENETIC ALGORITHM DOCKED STATE
	_______________________________________________


Detailed state:  trans 3.297 42.494 -1.427 quatxyzw -0.023589 -0.520517 -0.031717 0.852936 center 0.015 0.083 0.031 ntor 6 -164.7495 59.7631 24.2471 -20.0769 15.8398 -89.3648
State:	  3.297  42.494  -1.427  -0.045 -0.997 -0.061 62.935   -164.75   59.76   24.25  -20.08   15.84  -89.36

DOCKED: MODEL       65
DOCKED: USER    Run = 65
DOCKED: USER    DPF = D:/Protein_go_brrr/autodock/final/6BB5/2_3_BPG/dock.dpf
DOCKED: USER  
DOCKED: USER    Estimated Free Energy of Binding    =   -7.52 kcal/mol  [=(1)+(2)+(3)-(4)]
DOCKED: USER    Estimated Inhibition Constant, Ki   =    3.07 uM (micromolar)  [Temperature = 298.15 K]
DOCKED: USER    
DOCKED: USER    (1) Final Intermolecular Energy     =   -9.31 kcal/mol
DOCKED: USER        vdW + Hbond + desolv Energy     =   -3.67 kcal/mol
DOCKED: USER        Electrostatic Energy            =   -5.65 kcal/mol
DOCKED: USER    (2) Final Total Internal Energy     =   +2.17 kcal/mol
DOCKED: USER    (3) Torsional Free Energy           =   +1.79 kcal/mol
DOCKED: USER    (4) Unbound System's Energy  [=(2)] =   +2.17 kcal/mol
DOCKED: USER    
DOCKED: USER    
DOCKED: USER    NEWDPF move 2_3_BPG_opt.pdbqt
DOCKED: USER    NEWDPF about 0.015000 0.083000 0.031000
DOCKED: USER    NEWDPF tran0 3.297023 42.494433 -1.427493
DOCKED: USER    NEWDPF quaternion0 -0.023589 -0.520517 -0.031717 0.852936
DOCKED: USER    NEWDPF axisangle0 -0.045188 -0.997129 -0.060759 62.935118
DOCKED: USER    NEWDPF quat0 -0.045188 -0.997129 -0.060759 62.935118
DOCKED: USER    NEWDPF dihe0 -164.75 59.76 24.25 -20.08 15.84 -89.36 
DOCKED: USER  keepresnum = 1 
DOCKED: USER  
DOCKED: REMARK  6 active torsions:
DOCKED: REMARK  status: ('A' for Active; 'I' for Inactive)
DOCKED: REMARK    1  A    between atoms: P_1  and  O_3 
DOCKED: REMARK    2  A    between atoms: P_2  and  O_4 
DOCKED: REMARK    3  A    between atoms: O_3  and  C_13 
DOCKED: REMARK    4  A    between atoms: O_4  and  C_14 
DOCKED: REMARK    5  A    between atoms: C_13  and  C_14 
DOCKED: REMARK    6  A    between atoms: C_13  and  C_15 
DOCKED: USER                              x       y       z     vdW  Elec       q    Type
DOCKED: USER                           _______ _______ _______ _____ _____    ______ ____
DOCKED: ROOT
DOCKED: ATOM      1  C   UNL d   1       3.122  42.137  -0.888 -0.24 +0.15    +0.193 C 
DOCKED: ENDROOT
DOCKED: BRANCH   1   2
DOCKED: ATOM      2  O   UNL d   1       2.047  42.854  -0.193 -0.09 -0.32    -0.356 OA
DOCKED: BRANCH   2   3
DOCKED: ATOM      3  P   UNL d   1       1.776  42.727   1.424 -0.30 -0.02    -0.014 P 
DOCKED: ATOM      4  O   UNL d   1       0.308  42.286   1.533 -0.33 -0.86    -0.577 OA
DOCKED: ATOM      5  O   UNL d   1       1.993  44.113   2.029 +0.00 -0.36    -0.577 OA
DOCKED: ATOM      6  O   UNL d   1       2.722  41.667   1.978 -0.46 -1.08    -0.638 OA
DOCKED: ENDBRANCH   2   3
DOCKED: ENDBRANCH   1   2
DOCKED: BRANCH   1   7
DOCKED: ATOM      7  C   UNL d   1       3.344  42.801  -2.297 -0.15 +0.10    +0.201 C 
DOCKED: BRANCH   7   8
DOCKED: ATOM      8  O   UNL d   1       3.936  44.119  -2.286 -0.19 -0.22    -0.364 OA
DOCKED: BRANCH   8   9
DOCKED: ATOM      9  P   UNL d   1       3.797  45.103  -3.609 -0.41 -0.01    -0.015 P 
DOCKED: ATOM     10  O   UNL d   1       5.015  46.031  -3.545 -0.62 -0.77    -0.577 OA
DOCKED: ATOM     11  O   UNL d   1       2.484  45.871  -3.457 -0.08 -0.64    -0.577 OA
DOCKED: ATOM     12  O   UNL d   1       3.824  44.203  -4.844 -0.06 -0.33    -0.638 OA
DOCKED: ENDBRANCH   8   9
DOCKED: ENDBRANCH   7   8
DOCKED: ENDBRANCH   1   7
DOCKED: BRANCH   1  13
DOCKED: ATOM     13  C   UNL d   1       2.716  40.630  -1.100 -0.21 +0.09    +0.073 C 
DOCKED: ATOM     14  O   UNL d   1       3.345  39.729  -0.442 -0.46 -0.83    -0.547 OA
DOCKED: ATOM     15  O   UNL d   1       1.724  40.399  -1.882 -0.08 -0.55    -0.547 OA
DOCKED: ENDBRANCH   1  13
DOCKED: TORSDOF 6
DOCKED: TER
DOCKED: ENDMDL
________________________________________________________________________________


	BEGINNING GENETIC ALGORITHM DOCKING 66 of 100
Run: 66 Seed: 1690189887 202518640 [ Run 66 of 100 GA/GALS ]
Beginning LAMARCKIAN GENETIC ALGORITHM (LGA), with a maximum of 25000000 energy evaluations.

Final-Value: -6.101


	FINAL GENETIC ALGORITHM DOCKED STATE
	_______________________________________________


Detailed state:  trans 46.606 25.008 19.882 quatxyzw 0.668737 -0.468425 -0.117918 0.565212 center 0.015 0.083 0.031 ntor 6 64.9736 41.6437 15.6458 24.5799 -12.6965 -17.7052
State:	 46.606  25.008  19.882   0.811 -0.568 -0.143 111.166     64.97   41.64   15.65   24.58  -12.70  -17.71

DOCKED: MODEL       66
DOCKED: USER    Run = 66
DOCKED: USER    DPF = D:/Protein_go_brrr/autodock/final/6BB5/2_3_BPG/dock.dpf
DOCKED: USER  
DOCKED: USER    Estimated Free Energy of Binding    =   -6.32 kcal/mol  [=(1)+(2)+(3)-(4)]
DOCKED: USER    Estimated Inhibition Constant, Ki   =   23.31 uM (micromolar)  [Temperature = 298.15 K]
DOCKED: USER    
DOCKED: USER    (1) Final Intermolecular Energy     =   -8.11 kcal/mol
DOCKED: USER        vdW + Hbond + desolv Energy     =   -2.58 kcal/mol
DOCKED: USER        Electrostatic Energy            =   -5.53 kcal/mol
DOCKED: USER    (2) Final Total Internal Energy     =   +2.01 kcal/mol
DOCKED: USER    (3) Torsional Free Energy           =   +1.79 kcal/mol
DOCKED: USER    (4) Unbound System's Energy  [=(2)] =   +2.01 kcal/mol
DOCKED: USER    
DOCKED: USER    
DOCKED: USER    NEWDPF move 2_3_BPG_opt.pdbqt
DOCKED: USER    NEWDPF about 0.015000 0.083000 0.031000
DOCKED: USER    NEWDPF tran0 46.605632 25.007564 19.881671
DOCKED: USER    NEWDPF quaternion0 0.668737 -0.468425 -0.117918 0.565212
DOCKED: USER    NEWDPF axisangle0 0.810643 -0.567825 -0.142940 111.165939
DOCKED: USER    NEWDPF quat0 0.810643 -0.567825 -0.142940 111.165939
DOCKED: USER    NEWDPF dihe0 64.97 41.64 15.65 24.58 -12.70 -17.71 
DOCKED: USER  keepresnum = 1 
DOCKED: USER  
DOCKED: REMARK  6 active torsions:
DOCKED: REMARK  status: ('A' for Active; 'I' for Inactive)
DOCKED: REMARK    1  A    between atoms: P_1  and  O_3 
DOCKED: REMARK    2  A    between atoms: P_2  and  O_4 
DOCKED: REMARK    3  A    between atoms: O_3  and  C_13 
DOCKED: REMARK    4  A    between atoms: O_4  and  C_14 
DOCKED: REMARK    5  A    between atoms: C_13  and  C_14 
DOCKED: REMARK    6  A    between atoms: C_13  and  C_15 
DOCKED: USER                              x       y       z     vdW  Elec       q    Type
DOCKED: USER                           _______ _______ _______ _____ _____    ______ ____
DOCKED: ROOT
DOCKED: ATOM      1  C   UNL d   1      46.565  25.353  20.455 -0.05 +0.12    +0.193 C 
DOCKED: ENDROOT
DOCKED: BRANCH   1   2
DOCKED: ATOM      2  O   UNL d   1      45.159  25.376  20.876 -0.07 -0.29    -0.356 OA
DOCKED: BRANCH   2   3
DOCKED: ATOM      3  P   UNL d   1      44.214  26.719  20.794 -0.31 -0.02    -0.014 P 
DOCKED: ATOM      4  O   UNL d   1      43.343  26.652  22.058 -0.77 -1.07    -0.577 OA
DOCKED: ATOM      5  O   UNL d   1      43.372  26.604  19.525 +0.04 -0.31    -0.577 OA
DOCKED: ATOM      6  O   UNL d   1      45.128  27.940  20.808 -0.26 -0.93    -0.638 OA
DOCKED: ENDBRANCH   2   3
DOCKED: ENDBRANCH   1   2
DOCKED: BRANCH   1   7
DOCKED: ATOM      7  C   UNL d   1      46.725  24.314  19.285 -0.04 +0.10    +0.201 C 
DOCKED: BRANCH   7   8
DOCKED: ATOM      8  O   UNL d   1      47.635  24.689  18.228 -0.03 -0.22    -0.364 OA
DOCKED: BRANCH   8   9
DOCKED: ATOM      9  P   UNL d   1      48.067  23.586  17.073 -0.13 -0.02    -0.015 P 
DOCKED: ATOM     10  O   UNL d   1      49.336  24.158  16.429 -0.43 -0.83    -0.577 OA
DOCKED: ATOM     11  O   UNL d   1      46.909  23.505  16.079 -0.17 -0.59    -0.577 OA
DOCKED: ATOM     12  O   UNL d   1      48.333  22.263  17.790 -0.33 -0.82    -0.638 OA
DOCKED: ENDBRANCH   8   9
DOCKED: ENDBRANCH   7   8
DOCKED: ENDBRANCH   1   7
DOCKED: BRANCH   1  13
DOCKED: ATOM     13  C   UNL d   1      47.480  24.906  21.655 -0.03 +0.04    +0.073 C 
DOCKED: ATOM     14  O   UNL d   1      48.174  23.836  21.529 +0.02 -0.24    -0.547 OA
DOCKED: ATOM     15  O   UNL d   1      47.525  25.684  22.675 -0.02 -0.48    -0.547 OA
DOCKED: ENDBRANCH   1  13
DOCKED: TORSDOF 6
DOCKED: TER
DOCKED: ENDMDL
________________________________________________________________________________


	BEGINNING GENETIC ALGORITHM DOCKING 67 of 100
Run: 67 Seed: 839686896 324511519 [ Run 67 of 100 GA/GALS ]
Beginning LAMARCKIAN GENETIC ALGORITHM (LGA), with a maximum of 25000000 energy evaluations.

Final-Value: -6.933


	FINAL GENETIC ALGORITHM DOCKED STATE
	_______________________________________________


Detailed state:  trans 44.696 24.458 18.711 quatxyzw 0.297826 0.362829 -0.411054 -0.781467 center 0.015 0.083 0.031 ntor 6 166.1285 -50.1426 -161.5124 12.9357 -6.7525 -45.8733
State:	 44.696  24.458  18.711   0.477  0.582 -0.659 -77.210    166.13  -50.14 -161.51   12.94   -6.75  -45.87

DOCKED: MODEL       67
DOCKED: USER    Run = 67
DOCKED: USER    DPF = D:/Protein_go_brrr/autodock/final/6BB5/2_3_BPG/dock.dpf
DOCKED: USER  
DOCKED: USER    Estimated Free Energy of Binding    =   -7.06 kcal/mol  [=(1)+(2)+(3)-(4)]
DOCKED: USER    Estimated Inhibition Constant, Ki   =    6.73 uM (micromolar)  [Temperature = 298.15 K]
DOCKED: USER    
DOCKED: USER    (1) Final Intermolecular Energy     =   -8.85 kcal/mol
DOCKED: USER        vdW + Hbond + desolv Energy     =   -3.46 kcal/mol
DOCKED: USER        Electrostatic Energy            =   -5.39 kcal/mol
DOCKED: USER    (2) Final Total Internal Energy     =   +1.91 kcal/mol
DOCKED: USER    (3) Torsional Free Energy           =   +1.79 kcal/mol
DOCKED: USER    (4) Unbound System's Energy  [=(2)] =   +1.91 kcal/mol
DOCKED: USER    
DOCKED: USER    
DOCKED: USER    NEWDPF move 2_3_BPG_opt.pdbqt
DOCKED: USER    NEWDPF about 0.015000 0.083000 0.031000
DOCKED: USER    NEWDPF tran0 44.695793 24.458418 18.711311
DOCKED: USER    NEWDPF quaternion0 0.297826 0.362829 -0.411054 -0.781467
DOCKED: USER    NEWDPF axisangle0 0.477325 0.581505 -0.658796 -77.209907
DOCKED: USER    NEWDPF quat0 0.477325 0.581505 -0.658796 -77.209907
DOCKED: USER    NEWDPF dihe0 166.13 -50.14 -161.51 12.94 -6.75 -45.87 
DOCKED: USER  keepresnum = 1 
DOCKED: USER  
DOCKED: REMARK  6 active torsions:
DOCKED: REMARK  status: ('A' for Active; 'I' for Inactive)
DOCKED: REMARK    1  A    between atoms: P_1  and  O_3 
DOCKED: REMARK    2  A    between atoms: P_2  and  O_4 
DOCKED: REMARK    3  A    between atoms: O_3  and  C_13 
DOCKED: REMARK    4  A    between atoms: O_4  and  C_14 
DOCKED: REMARK    5  A    between atoms: C_13  and  C_14 
DOCKED: REMARK    6  A    between atoms: C_13  and  C_15 
DOCKED: USER                              x       y       z     vdW  Elec       q    Type
DOCKED: USER                           _______ _______ _______ _____ _____    ______ ____
DOCKED: ROOT
DOCKED: ATOM      1  C   UNL d   1      44.224  24.486  19.187 -0.18 +0.08    +0.193 C 
DOCKED: ENDROOT
DOCKED: BRANCH   1   2
DOCKED: ATOM      2  O   UNL d   1      44.283  25.812  19.813 -0.10 -0.21    -0.356 OA
DOCKED: BRANCH   2   3
DOCKED: ATOM      3  P   UNL d   1      44.597  26.042  21.411 -0.24 -0.02    -0.014 P 
DOCKED: ATOM      4  O   UNL d   1      45.784  27.017  21.432 -0.26 -1.04    -0.577 OA
DOCKED: ATOM      5  O   UNL d   1      44.975  24.684  21.998 -0.02 -0.48    -0.577 OA
DOCKED: ATOM      6  O   UNL d   1      43.356  26.656  22.051 -0.72 -1.18    -0.638 OA
DOCKED: ENDBRANCH   2   3
DOCKED: ENDBRANCH   1   2
DOCKED: BRANCH   1   7
DOCKED: ATOM      7  C   UNL d   1      45.113  24.501  17.889 -0.13 +0.09    +0.201 C 
DOCKED: BRANCH   7   8
DOCKED: ATOM      8  O   UNL d   1      46.290  23.663  17.921 -0.05 -0.21    -0.364 OA
DOCKED: BRANCH   8   9
DOCKED: ATOM      9  P   UNL d   1      47.249  23.528  16.580 -0.27 -0.02    -0.015 P 
DOCKED: ATOM     10  O   UNL d   1      46.926  24.766  15.733 -0.09 -0.41    -0.577 OA
DOCKED: ATOM     11  O   UNL d   1      46.848  22.233  15.874 -0.12 -0.81    -0.577 OA
DOCKED: ATOM     12  O   UNL d   1      48.699  23.524  17.061 -0.60 -0.95    -0.638 OA
DOCKED: ENDBRANCH   8   9
DOCKED: ENDBRANCH   7   8
DOCKED: ENDBRANCH   1   7
DOCKED: BRANCH   1  13
DOCKED: ATOM     13  C   UNL d   1      42.742  24.147  18.779 -0.40 +0.02    +0.073 C 
DOCKED: ATOM     14  O   UNL d   1      42.317  22.952  18.956 -0.18 -0.13    -0.547 OA
DOCKED: ATOM     15  O   UNL d   1      42.020  25.118  18.348 -0.10 -0.12    -0.547 OA
DOCKED: ENDBRANCH   1  13
DOCKED: TORSDOF 6
DOCKED: TER
DOCKED: ENDMDL
________________________________________________________________________________


	BEGINNING GENETIC ALGORITHM DOCKING 68 of 100
Run: 68 Seed: 299373939 641911543 [ Run 68 of 100 GA/GALS ]
Beginning LAMARCKIAN GENETIC ALGORITHM (LGA), with a maximum of 25000000 energy evaluations.

Final-Value: -6.679


	FINAL GENETIC ALGORITHM DOCKED STATE
	_______________________________________________


Detailed state:  trans 45.819 24.632 19.117 quatxyzw 0.026861 -0.349134 0.474360 0.807692 center 0.015 0.083 0.031 ntor 6 -11.6654 10.0026 -113.5850 -19.9704 -29.9436 -97.3344
State:	 45.819  24.632  19.117   0.046 -0.592  0.805 72.258    -11.67   10.00 -113.59  -19.97  -29.94  -97.33

DOCKED: MODEL       68
DOCKED: USER    Run = 68
DOCKED: USER    DPF = D:/Protein_go_brrr/autodock/final/6BB5/2_3_BPG/dock.dpf
DOCKED: USER  
DOCKED: USER    Estimated Free Energy of Binding    =   -6.97 kcal/mol  [=(1)+(2)+(3)-(4)]
DOCKED: USER    Estimated Inhibition Constant, Ki   =    7.82 uM (micromolar)  [Temperature = 298.15 K]
DOCKED: USER    
DOCKED: USER    (1) Final Intermolecular Energy     =   -8.76 kcal/mol
DOCKED: USER        vdW + Hbond + desolv Energy     =   -3.18 kcal/mol
DOCKED: USER        Electrostatic Energy            =   -5.58 kcal/mol
DOCKED: USER    (2) Final Total Internal Energy     =   +2.08 kcal/mol
DOCKED: USER    (3) Torsional Free Energy           =   +1.79 kcal/mol
DOCKED: USER    (4) Unbound System's Energy  [=(2)] =   +2.08 kcal/mol
DOCKED: USER    
DOCKED: USER    
DOCKED: USER    NEWDPF move 2_3_BPG_opt.pdbqt
DOCKED: USER    NEWDPF about 0.015000 0.083000 0.031000
DOCKED: USER    NEWDPF tran0 45.818922 24.632067 19.117251
DOCKED: USER    NEWDPF quaternion0 0.026861 -0.349134 0.474360 0.807692
DOCKED: USER    NEWDPF axisangle0 0.045557 -0.592149 0.804540 72.257839
DOCKED: USER    NEWDPF quat0 0.045557 -0.592149 0.804540 72.257839
DOCKED: USER    NEWDPF dihe0 -11.67 10.00 -113.59 -19.97 -29.94 -97.33 
DOCKED: USER  keepresnum = 1 
DOCKED: USER  
DOCKED: REMARK  6 active torsions:
DOCKED: REMARK  status: ('A' for Active; 'I' for Inactive)
DOCKED: REMARK    1  A    between atoms: P_1  and  O_3 
DOCKED: REMARK    2  A    between atoms: P_2  and  O_4 
DOCKED: REMARK    3  A    between atoms: O_3  and  C_13 
DOCKED: REMARK    4  A    between atoms: O_4  and  C_14 
DOCKED: REMARK    5  A    between atoms: C_13  and  C_14 
DOCKED: REMARK    6  A    between atoms: C_13  and  C_15 
DOCKED: USER                              x       y       z     vdW  Elec       q    Type
DOCKED: USER                           _______ _______ _______ _____ _____    ______ ____
DOCKED: ROOT
DOCKED: ATOM      1  C   UNL d   1      45.461  24.894  19.620 -0.09 +0.10    +0.193 C 
DOCKED: ENDROOT
DOCKED: BRANCH   1   2
DOCKED: ATOM      2  O   UNL d   1      45.357  26.341  19.401 -0.05 -0.21    -0.356 OA
DOCKED: BRANCH   2   3
DOCKED: ATOM      3  P   UNL d   1      45.174  27.428  20.622 -0.12 -0.02    -0.014 P 
DOCKED: ATOM      4  O   UNL d   1      44.960  28.772  19.909 -0.06 -0.47    -0.577 OA
DOCKED: ATOM      5  O   UNL d   1      46.468  27.421  21.432 -0.53 -0.92    -0.577 OA
DOCKED: ATOM      6  O   UNL d   1      43.947  27.023  21.432 -0.38 -1.12    -0.638 OA
DOCKED: ENDBRANCH   2   3
DOCKED: ENDBRANCH   1   2
DOCKED: BRANCH   1   7
DOCKED: ATOM      7  C   UNL d   1      46.038  24.227  18.317 -0.09 +0.10    +0.201 C 
DOCKED: BRANCH   7   8
DOCKED: ATOM      8  O   UNL d   1      47.367  24.642  17.932 -0.05 -0.22    -0.364 OA
DOCKED: BRANCH   8   9
DOCKED: ATOM      9  P   UNL d   1      48.333  23.623  17.057 -0.05 -0.02    -0.015 P 
DOCKED: ATOM     10  O   UNL d   1      47.671  23.531  15.677 -0.29 -0.90    -0.577 OA
DOCKED: ATOM     11  O   UNL d   1      48.333  22.277  17.782 -0.35 -0.75    -0.577 OA
DOCKED: ATOM     12  O   UNL d   1      49.719  24.264  16.988 -0.23 -0.71    -0.638 OA
DOCKED: ENDBRANCH   8   9
DOCKED: ENDBRANCH   7   8
DOCKED: ENDBRANCH   1   7
DOCKED: BRANCH   1  13
DOCKED: ATOM     13  C   UNL d   1      44.037  24.288  19.909 -0.27 +0.03    +0.073 C 
DOCKED: ATOM     14  O   UNL d   1      43.046  24.695  19.207 -0.09 -0.19    -0.547 OA
DOCKED: ATOM     15  O   UNL d   1      43.966  23.366  20.799 -0.53 -0.28    -0.547 OA
DOCKED: ENDBRANCH   1  13
DOCKED: TORSDOF 6
DOCKED: TER
DOCKED: ENDMDL
________________________________________________________________________________


	BEGINNING GENETIC ALGORITHM DOCKING 69 of 100
Run: 69 Seed: 1486564937 803820995 [ Run 69 of 100 GA/GALS ]
Beginning LAMARCKIAN GENETIC ALGORITHM (LGA), with a maximum of 25000000 energy evaluations.

Final-Value: -6.837


	FINAL GENETIC ALGORITHM DOCKED STATE
	_______________________________________________


Detailed state:  trans 2.831 43.255 -0.923 quatxyzw 0.527860 0.365918 -0.470651 0.604942 center 0.015 0.083 0.031 ntor 6 -82.3807 67.5919 12.5316 5.7954 -39.4396 -128.2312
State:	  2.831  43.255  -0.923   0.663  0.460 -0.591 105.551    -82.38   67.59   12.53    5.80  -39.44 -128.23

DOCKED: MODEL       69
DOCKED: USER    Run = 69
DOCKED: USER    DPF = D:/Protein_go_brrr/autodock/final/6BB5/2_3_BPG/dock.dpf
DOCKED: USER  
DOCKED: USER    Estimated Free Energy of Binding    =   -7.24 kcal/mol  [=(1)+(2)+(3)-(4)]
DOCKED: USER    Estimated Inhibition Constant, Ki   =    4.92 uM (micromolar)  [Temperature = 298.15 K]
DOCKED: USER    
DOCKED: USER    (1) Final Intermolecular Energy     =   -9.03 kcal/mol
DOCKED: USER        vdW + Hbond + desolv Energy     =   -3.48 kcal/mol
DOCKED: USER        Electrostatic Energy            =   -5.55 kcal/mol
DOCKED: USER    (2) Final Total Internal Energy     =   +2.19 kcal/mol
DOCKED: USER    (3) Torsional Free Energy           =   +1.79 kcal/mol
DOCKED: USER    (4) Unbound System's Energy  [=(2)] =   +2.19 kcal/mol
DOCKED: USER    
DOCKED: USER    
DOCKED: USER    NEWDPF move 2_3_BPG_opt.pdbqt
DOCKED: USER    NEWDPF about 0.015000 0.083000 0.031000
DOCKED: USER    NEWDPF tran0 2.831486 43.254754 -0.922541
DOCKED: USER    NEWDPF quaternion0 0.527860 0.365918 -0.470651 0.604942
DOCKED: USER    NEWDPF axisangle0 0.662916 0.459541 -0.591070 105.550661
DOCKED: USER    NEWDPF quat0 0.662916 0.459541 -0.591070 105.550661
DOCKED: USER    NEWDPF dihe0 -82.38 67.59 12.53 5.80 -39.44 -128.23 
DOCKED: USER  keepresnum = 1 
DOCKED: USER  
DOCKED: REMARK  6 active torsions:
DOCKED: REMARK  status: ('A' for Active; 'I' for Inactive)
DOCKED: REMARK    1  A    between atoms: P_1  and  O_3 
DOCKED: REMARK    2  A    between atoms: P_2  and  O_4 
DOCKED: REMARK    3  A    between atoms: O_3  and  C_13 
DOCKED: REMARK    4  A    between atoms: O_4  and  C_14 
DOCKED: REMARK    5  A    between atoms: C_13  and  C_14 
DOCKED: REMARK    6  A    between atoms: C_13  and  C_15 
DOCKED: USER                              x       y       z     vdW  Elec       q    Type
DOCKED: USER                           _______ _______ _______ _____ _____    ______ ____
DOCKED: ROOT
DOCKED: ATOM      1  C   UNL d   1       2.632  42.722  -0.568 -0.22 +0.15    +0.193 C 
DOCKED: ENDROOT
DOCKED: BRANCH   1   2
DOCKED: ATOM      2  O   UNL d   1       2.786  41.529  -1.408 -0.09 -0.30    -0.356 OA
DOCKED: BRANCH   2   3
DOCKED: ATOM      3  P   UNL d   1       1.568  40.462  -1.694 -0.13 -0.02    -0.014 P 
DOCKED: ATOM      4  O   UNL d   1       2.057  39.146  -1.070 -0.48 -1.06    -0.577 OA
DOCKED: ATOM      5  O   UNL d   1       1.416  40.344  -3.209 +0.02 -0.29    -0.577 OA
DOCKED: ATOM      6  O   UNL d   1       0.314  40.981  -0.997 +0.00 -0.91    -0.638 OA
DOCKED: ENDBRANCH   2   3
DOCKED: ENDBRANCH   1   2
DOCKED: BRANCH   1   7
DOCKED: ATOM      7  C   UNL d   1       3.360  43.929  -1.266 -0.25 +0.12    +0.201 C 
DOCKED: BRANCH   7   8
DOCKED: ATOM      8  O   UNL d   1       3.379  43.903  -2.711 -0.13 -0.21    -0.364 OA
DOCKED: BRANCH   8   9
DOCKED: ATOM      9  P   UNL d   1       3.244  45.312  -3.568 -0.34 -0.01    -0.015 P 
DOCKED: ATOM     10  O   UNL d   1       2.927  44.876  -5.003 -0.03 -0.33    -0.577 OA
DOCKED: ATOM     11  O   UNL d   1       4.593  46.024  -3.471 -0.57 -0.89    -0.577 OA
DOCKED: ATOM     12  O   UNL d   1       2.100  46.111  -2.945 +0.04 -0.71    -0.638 OA
DOCKED: ENDBRANCH   8   9
DOCKED: ENDBRANCH   7   8
DOCKED: ENDBRANCH   1   7
DOCKED: BRANCH   1  13
DOCKED: ATOM     13  C   UNL d   1       3.294  42.480   0.840 -0.53 +0.07    +0.073 C 
DOCKED: ATOM     14  O   UNL d   1       3.344  41.283   1.294 -0.59 -0.89    -0.547 OA
DOCKED: ATOM     15  O   UNL d   1       3.806  43.501   1.426 -0.18 -0.28    -0.547 OA
DOCKED: ENDBRANCH   1  13
DOCKED: TORSDOF 6
DOCKED: TER
DOCKED: ENDMDL
________________________________________________________________________________


	BEGINNING GENETIC ALGORITHM DOCKING 70 of 100
Run: 70 Seed: 373722547 889285569 [ Run 70 of 100 GA/GALS ]
Beginning LAMARCKIAN GENETIC ALGORITHM (LGA), with a maximum of 25000000 energy evaluations.

Final-Value: -7.124


	FINAL GENETIC ALGORITHM DOCKED STATE
	_______________________________________________


Detailed state:  trans 45.749 24.418 19.360 quatxyzw 0.145406 -0.384726 0.354821 0.839610 center 0.015 0.083 0.031 ntor 6 -5.9761 -3.4301 -35.1117 -12.6080 -17.1478 -71.0095
State:	 45.749  24.418  19.360   0.268 -0.708  0.653 65.802     -5.98   -3.43  -35.11  -12.61  -17.15  -71.01

DOCKED: MODEL       70
DOCKED: USER    Run = 70
DOCKED: USER    DPF = D:/Protein_go_brrr/autodock/final/6BB5/2_3_BPG/dock.dpf
DOCKED: USER  
DOCKED: USER    Estimated Free Energy of Binding    =   -7.32 kcal/mol  [=(1)+(2)+(3)-(4)]
DOCKED: USER    Estimated Inhibition Constant, Ki   =    4.31 uM (micromolar)  [Temperature = 298.15 K]
DOCKED: USER    
DOCKED: USER    (1) Final Intermolecular Energy     =   -9.11 kcal/mol
DOCKED: USER        vdW + Hbond + desolv Energy     =   -3.38 kcal/mol
DOCKED: USER        Electrostatic Energy            =   -5.73 kcal/mol
DOCKED: USER    (2) Final Total Internal Energy     =   +1.99 kcal/mol
DOCKED: USER    (3) Torsional Free Energy           =   +1.79 kcal/mol
DOCKED: USER    (4) Unbound System's Energy  [=(2)] =   +1.99 kcal/mol
DOCKED: USER    
DOCKED: USER    
DOCKED: USER    NEWDPF move 2_3_BPG_opt.pdbqt
DOCKED: USER    NEWDPF about 0.015000 0.083000 0.031000
DOCKED: USER    NEWDPF tran0 45.748967 24.417663 19.360287
DOCKED: USER    NEWDPF quaternion0 0.145406 -0.384726 0.354821 0.839610
DOCKED: USER    NEWDPF axisangle0 0.267688 -0.708273 0.653217 65.802050
DOCKED: USER    NEWDPF quat0 0.267688 -0.708273 0.653217 65.802050
DOCKED: USER    NEWDPF dihe0 -5.98 -3.43 -35.11 -12.61 -17.15 -71.01 
DOCKED: USER  keepresnum = 1 
DOCKED: USER  
DOCKED: REMARK  6 active torsions:
DOCKED: REMARK  status: ('A' for Active; 'I' for Inactive)
DOCKED: REMARK    1  A    between atoms: P_1  and  O_3 
DOCKED: REMARK    2  A    between atoms: P_2  and  O_4 
DOCKED: REMARK    3  A    between atoms: O_3  and  C_13 
DOCKED: REMARK    4  A    between atoms: O_4  and  C_14 
DOCKED: REMARK    5  A    between atoms: C_13  and  C_14 
DOCKED: REMARK    6  A    between atoms: C_13  and  C_15 
DOCKED: USER                              x       y       z     vdW  Elec       q    Type
DOCKED: USER                           _______ _______ _______ _____ _____    ______ ____
DOCKED: ROOT
DOCKED: ATOM      1  C   UNL d   1      45.403  24.609  19.901 -0.10 +0.10    +0.193 C 
DOCKED: ENDROOT
DOCKED: BRANCH   1   2
DOCKED: ATOM      2  O   UNL d   1      44.832  25.934  19.633 -0.06 -0.21    -0.356 OA
DOCKED: BRANCH   2   3
DOCKED: ATOM      3  P   UNL d   1      44.662  27.094  20.786 -0.21 -0.02    -0.014 P 
DOCKED: ATOM      4  O   UNL d   1      44.213  28.343  20.011 -0.13 -0.50    -0.577 OA
DOCKED: ATOM      5  O   UNL d   1      46.031  27.296  21.431 -0.36 -1.06    -0.577 OA
DOCKED: ATOM      6  O   UNL d   1      43.591  26.629  21.767 -0.42 -1.10    -0.638 OA
DOCKED: ENDBRANCH   2   3
DOCKED: ENDBRANCH   1   2
DOCKED: BRANCH   1   7
DOCKED: ATOM      7  C   UNL d   1      45.966  24.021  18.556 -0.08 +0.10    +0.201 C 
DOCKED: BRANCH   7   8
DOCKED: ATOM      8  O   UNL d   1      47.336  24.359  18.244 -0.03 -0.22    -0.364 OA
DOCKED: BRANCH   8   9
DOCKED: ATOM      9  P   UNL d   1      48.146  23.534  17.061 -0.09 -0.02    -0.015 P 
DOCKED: ATOM     10  O   UNL d   1      49.094  24.564  16.435 -0.27 -0.66    -0.577 OA
DOCKED: ATOM     11  O   UNL d   1      47.098  23.042  16.063 -0.24 -0.75    -0.577 OA
DOCKED: ATOM     12  O   UNL d   1      48.904  22.396  17.742 -0.36 -0.94    -0.638 OA
DOCKED: ENDBRANCH   8   9
DOCKED: ENDBRANCH   7   8
DOCKED: ENDBRANCH   1   7
DOCKED: BRANCH   1  13
DOCKED: ATOM     13  C   UNL d   1      44.287  23.642  20.447 -0.22 +0.04    +0.073 C 
DOCKED: ATOM     14  O   UNL d   1      43.167  23.590  19.828 -0.23 -0.20    -0.547 OA
DOCKED: ATOM     15  O   UNL d   1      44.594  22.908  21.454 -0.57 -0.28    -0.547 OA
DOCKED: ENDBRANCH   1  13
DOCKED: TORSDOF 6
DOCKED: TER
DOCKED: ENDMDL
________________________________________________________________________________


	BEGINNING GENETIC ALGORITHM DOCKING 71 of 100
Run: 71 Seed: 965118374 965389875 [ Run 71 of 100 GA/GALS ]
Beginning LAMARCKIAN GENETIC ALGORITHM (LGA), with a maximum of 25000000 energy evaluations.

Final-Value: -6.442


	FINAL GENETIC ALGORITHM DOCKED STATE
	_______________________________________________


Detailed state:  trans 3.507 42.279 -1.267 quatxyzw 0.348391 0.779481 0.193998 -0.483113 center 0.015 0.083 0.031 ntor 6 124.9523 -130.9565 -137.2663 163.9213 -60.7292 -50.3167
State:	  3.507  42.279  -1.267   0.398  0.890  0.222 -122.222    124.95 -130.96 -137.27  163.92  -60.73  -50.32

DOCKED: MODEL       71
DOCKED: USER    Run = 71
DOCKED: USER    DPF = D:/Protein_go_brrr/autodock/final/6BB5/2_3_BPG/dock.dpf
DOCKED: USER  
DOCKED: USER    Estimated Free Energy of Binding    =   -6.96 kcal/mol  [=(1)+(2)+(3)-(4)]
DOCKED: USER    Estimated Inhibition Constant, Ki   =    7.89 uM (micromolar)  [Temperature = 298.15 K]
DOCKED: USER    
DOCKED: USER    (1) Final Intermolecular Energy     =   -8.75 kcal/mol
DOCKED: USER        vdW + Hbond + desolv Energy     =   -3.37 kcal/mol
DOCKED: USER        Electrostatic Energy            =   -5.38 kcal/mol
DOCKED: USER    (2) Final Total Internal Energy     =   +2.31 kcal/mol
DOCKED: USER    (3) Torsional Free Energy           =   +1.79 kcal/mol
DOCKED: USER    (4) Unbound System's Energy  [=(2)] =   +2.31 kcal/mol
DOCKED: USER    
DOCKED: USER    
DOCKED: USER    NEWDPF move 2_3_BPG_opt.pdbqt
DOCKED: USER    NEWDPF about 0.015000 0.083000 0.031000
DOCKED: USER    NEWDPF tran0 3.506961 42.278541 -1.267004
DOCKED: USER    NEWDPF quaternion0 0.348391 0.779481 0.193998 -0.483113
DOCKED: USER    NEWDPF axisangle0 0.397907 0.890268 0.221571 -122.222185
DOCKED: USER    NEWDPF quat0 0.397907 0.890268 0.221571 -122.222185
DOCKED: USER    NEWDPF dihe0 124.95 -130.96 -137.27 163.92 -60.73 -50.32 
DOCKED: USER  keepresnum = 1 
DOCKED: USER  
DOCKED: REMARK  6 active torsions:
DOCKED: REMARK  status: ('A' for Active; 'I' for Inactive)
DOCKED: REMARK    1  A    between atoms: P_1  and  O_3 
DOCKED: REMARK    2  A    between atoms: P_2  and  O_4 
DOCKED: REMARK    3  A    between atoms: O_3  and  C_13 
DOCKED: REMARK    4  A    between atoms: O_4  and  C_14 
DOCKED: REMARK    5  A    between atoms: C_13  and  C_14 
DOCKED: REMARK    6  A    between atoms: C_13  and  C_15 
DOCKED: USER                              x       y       z     vdW  Elec       q    Type
DOCKED: USER                           _______ _______ _______ _____ _____    ______ ____
DOCKED: ROOT
DOCKED: ATOM      1  C   UNL d   1       3.649  41.634  -1.147 -0.24 +0.13    +0.193 C 
DOCKED: ENDROOT
DOCKED: BRANCH   1   2
DOCKED: ATOM      2  O   UNL d   1       3.666  41.434   0.306 -0.38 -0.40    -0.356 OA
DOCKED: BRANCH   2   3
DOCKED: ATOM      3  P   UNL d   1       2.719  42.284   1.347 -0.55 -0.02    -0.014 P 
DOCKED: ATOM      4  O   UNL d   1       1.331  42.284   0.688 -0.07 -0.87    -0.577 OA
DOCKED: ATOM      5  O   UNL d   1       3.298  43.695   1.437 -0.15 -0.35    -0.577 OA
DOCKED: ATOM      6  O   UNL d   1       2.705  41.547   2.682 -0.03 -0.96    -0.638 OA
DOCKED: ENDBRANCH   2   3
DOCKED: ENDBRANCH   1   2
DOCKED: BRANCH   1   7
DOCKED: ATOM      7  C   UNL d   1       3.038  43.051  -1.453 -0.19 +0.12    +0.201 C 
DOCKED: BRANCH   7   8
DOCKED: ATOM      8  O   UNL d   1       3.965  44.046  -1.939 -0.18 -0.21    -0.364 OA
DOCKED: BRANCH   8   9
DOCKED: ATOM      9  P   UNL d   1       3.703  44.784  -3.396 -0.41 -0.01    -0.015 P 
DOCKED: ATOM     10  O   UNL d   1       2.213  45.147  -3.397 -0.03 -0.43    -0.577 OA
DOCKED: ATOM     11  O   UNL d   1       4.042  43.763  -4.481 -0.10 -0.28    -0.577 OA
DOCKED: ATOM     12  O   UNL d   1       4.595  46.024  -3.442 -0.51 -0.99    -0.638 OA
DOCKED: ENDBRANCH   8   9
DOCKED: ENDBRANCH   7   8
DOCKED: ENDBRANCH   1   7
DOCKED: BRANCH   1  13
DOCKED: ATOM     13  C   UNL d   1       2.750  40.539  -1.832 -0.19 +0.06    +0.073 C 
DOCKED: ATOM     14  O   UNL d   1       2.600  40.579  -3.104 +0.02 -0.26    -0.547 OA
DOCKED: ATOM     15  O   UNL d   1       2.268  39.623  -1.073 -0.37 -0.93    -0.547 OA
DOCKED: ENDBRANCH   1  13
DOCKED: TORSDOF 6
DOCKED: TER
DOCKED: ENDMDL
________________________________________________________________________________


	BEGINNING GENETIC ALGORITHM DOCKING 72 of 100
Run: 72 Seed: 1466675361 536603834 [ Run 72 of 100 GA/GALS ]
Beginning LAMARCKIAN GENETIC ALGORITHM (LGA), with a maximum of 25000000 energy evaluations.

Final-Value: -6.958


	FINAL GENETIC ALGORITHM DOCKED STATE
	_______________________________________________


Detailed state:  trans 46.035 24.516 19.832 quatxyzw -0.419732 0.449899 -0.183924 -0.766543 center 0.015 0.083 0.031 ntor 6 -168.3635 64.5039 -0.0641 5.7017 -15.6090 -59.5300
State:	 46.035  24.516  19.832  -0.654  0.701 -0.286 -79.911   -168.36   64.50   -0.06    5.70  -15.61  -59.53

DOCKED: MODEL       72
DOCKED: USER    Run = 72
DOCKED: USER    DPF = D:/Protein_go_brrr/autodock/final/6BB5/2_3_BPG/dock.dpf
DOCKED: USER  
DOCKED: USER    Estimated Free Energy of Binding    =   -7.11 kcal/mol  [=(1)+(2)+(3)-(4)]
DOCKED: USER    Estimated Inhibition Constant, Ki   =    6.13 uM (micromolar)  [Temperature = 298.15 K]
DOCKED: USER    
DOCKED: USER    (1) Final Intermolecular Energy     =   -8.90 kcal/mol
DOCKED: USER        vdW + Hbond + desolv Energy     =   -3.14 kcal/mol
DOCKED: USER        Electrostatic Energy            =   -5.76 kcal/mol
DOCKED: USER    (2) Final Total Internal Energy     =   +1.94 kcal/mol
DOCKED: USER    (3) Torsional Free Energy           =   +1.79 kcal/mol
DOCKED: USER    (4) Unbound System's Energy  [=(2)] =   +1.94 kcal/mol
DOCKED: USER    
DOCKED: USER    
DOCKED: USER    NEWDPF move 2_3_BPG_opt.pdbqt
DOCKED: USER    NEWDPF about 0.015000 0.083000 0.031000
DOCKED: USER    NEWDPF tran0 46.035240 24.515891 19.831937
DOCKED: USER    NEWDPF quaternion0 -0.419732 0.449899 -0.183924 -0.766543
DOCKED: USER    NEWDPF axisangle0 -0.653592 0.700567 -0.286399 -79.911145
DOCKED: USER    NEWDPF quat0 -0.653592 0.700567 -0.286399 -79.911145
DOCKED: USER    NEWDPF dihe0 -168.36 64.50 -0.06 5.70 -15.61 -59.53 
DOCKED: USER  keepresnum = 1 
DOCKED: USER  
DOCKED: REMARK  6 active torsions:
DOCKED: REMARK  status: ('A' for Active; 'I' for Inactive)
DOCKED: REMARK    1  A    between atoms: P_1  and  O_3 
DOCKED: REMARK    2  A    between atoms: P_2  and  O_4 
DOCKED: REMARK    3  A    between atoms: O_3  and  C_13 
DOCKED: REMARK    4  A    between atoms: O_4  and  C_14 
DOCKED: REMARK    5  A    between atoms: C_13  and  C_14 
DOCKED: REMARK    6  A    between atoms: C_13  and  C_15 
DOCKED: USER                              x       y       z     vdW  Elec       q    Type
DOCKED: USER                           _______ _______ _______ _____ _____    ______ ____
DOCKED: ROOT
DOCKED: ATOM      1  C   UNL d   1      45.834  24.766  20.421 -0.07 +0.11    +0.193 C 
DOCKED: ENDROOT
DOCKED: BRANCH   1   2
DOCKED: ATOM      2  O   UNL d   1      44.661  25.614  20.181 -0.08 -0.24    -0.356 OA
DOCKED: BRANCH   2   3
DOCKED: ATOM      3  P   UNL d   1      44.556  27.174  20.691 -0.23 -0.02    -0.014 P 
DOCKED: ATOM      4  O   UNL d   1      43.343  27.188  21.634 -0.57 -1.08    -0.577 OA
DOCKED: ATOM      5  O   UNL d   1      44.316  28.039  19.455 -0.04 -0.38    -0.577 OA
DOCKED: ATOM      6  O   UNL d   1      45.845  27.516  21.431 -0.23 -1.31    -0.638 OA
DOCKED: ENDBRANCH   2   3
DOCKED: ENDBRANCH   1   2
DOCKED: BRANCH   1   7
DOCKED: ATOM      7  C   UNL d   1      46.140  23.946  19.113 -0.07 +0.10    +0.201 C 
DOCKED: BRANCH   7   8
DOCKED: ATOM      8  O   UNL d   1      47.202  24.461  18.280 -0.03 -0.21    -0.364 OA
DOCKED: BRANCH   8   9
DOCKED: ATOM      9  P   UNL d   1      47.823  23.534  17.058 -0.20 -0.02    -0.015 P 
DOCKED: ATOM     10  O   UNL d   1      48.945  24.381  16.446 -0.39 -0.72    -0.577 OA
DOCKED: ATOM     11  O   UNL d   1      46.687  23.287  16.066 -0.12 -0.57    -0.577 OA
DOCKED: ATOM     12  O   UNL d   1      48.353  22.249  17.692 -0.38 -0.87    -0.638 OA
DOCKED: ENDBRANCH   8   9
DOCKED: ENDBRANCH   7   8
DOCKED: ENDBRANCH   1   7
DOCKED: BRANCH   1  13
DOCKED: ATOM     13  C   UNL d   1      45.540  23.756  21.592 -0.16 +0.04    +0.073 C 
DOCKED: ATOM     14  O   UNL d   1      46.212  23.865  22.677 +0.01 -0.32    -0.547 OA
DOCKED: ATOM     15  O   UNL d   1      44.589  22.913  21.409 -0.58 -0.28    -0.547 OA
DOCKED: ENDBRANCH   1  13
DOCKED: TORSDOF 6
DOCKED: TER
DOCKED: ENDMDL
________________________________________________________________________________


	BEGINNING GENETIC ALGORITHM DOCKING 73 of 100
Run: 73 Seed: 1928682162 498902705 [ Run 73 of 100 GA/GALS ]
Beginning LAMARCKIAN GENETIC ALGORITHM (LGA), with a maximum of 25000000 energy evaluations.

Final-Value: -6.459


	FINAL GENETIC ALGORITHM DOCKED STATE
	_______________________________________________


Detailed state:  trans 46.511 25.073 20.079 quatxyzw -0.873773 0.349402 0.226007 -0.251713 center 0.015 0.083 0.031 ntor 6 -101.6487 39.6690 -49.9605 6.1346 11.2575 -1.6229
State:	 46.511  25.073  20.079  -0.903  0.361  0.234 -150.842   -101.65   39.67  -49.96    6.13   11.26   -1.62

DOCKED: MODEL       73
DOCKED: USER    Run = 73
DOCKED: USER    DPF = D:/Protein_go_brrr/autodock/final/6BB5/2_3_BPG/dock.dpf
DOCKED: USER  
DOCKED: USER    Estimated Free Energy of Binding    =   -6.80 kcal/mol  [=(1)+(2)+(3)-(4)]
DOCKED: USER    Estimated Inhibition Constant, Ki   =   10.33 uM (micromolar)  [Temperature = 298.15 K]
DOCKED: USER    
DOCKED: USER    (1) Final Intermolecular Energy     =   -8.59 kcal/mol
DOCKED: USER        vdW + Hbond + desolv Energy     =   -2.97 kcal/mol
DOCKED: USER        Electrostatic Energy            =   -5.62 kcal/mol
DOCKED: USER    (2) Final Total Internal Energy     =   +2.13 kcal/mol
DOCKED: USER    (3) Torsional Free Energy           =   +1.79 kcal/mol
DOCKED: USER    (4) Unbound System's Energy  [=(2)] =   +2.13 kcal/mol
DOCKED: USER    
DOCKED: USER    
DOCKED: USER    NEWDPF move 2_3_BPG_opt.pdbqt
DOCKED: USER    NEWDPF about 0.015000 0.083000 0.031000
DOCKED: USER    NEWDPF tran0 46.511097 25.073340 20.079068
DOCKED: USER    NEWDPF quaternion0 -0.873773 0.349402 0.226007 -0.251713
DOCKED: USER    NEWDPF axisangle0 -0.902843 0.361026 0.233526 -150.842163
DOCKED: USER    NEWDPF quat0 -0.902843 0.361026 0.233526 -150.842163
DOCKED: USER    NEWDPF dihe0 -101.65 39.67 -49.96 6.13 11.26 -1.62 
DOCKED: USER  keepresnum = 1 
DOCKED: USER  
DOCKED: REMARK  6 active torsions:
DOCKED: REMARK  status: ('A' for Active; 'I' for Inactive)
DOCKED: REMARK    1  A    between atoms: P_1  and  O_3 
DOCKED: REMARK    2  A    between atoms: P_2  and  O_4 
DOCKED: REMARK    3  A    between atoms: O_3  and  C_13 
DOCKED: REMARK    4  A    between atoms: O_4  and  C_14 
DOCKED: REMARK    5  A    between atoms: C_13  and  C_14 
DOCKED: REMARK    6  A    between atoms: C_13  and  C_15 
DOCKED: USER                              x       y       z     vdW  Elec       q    Type
DOCKED: USER                           _______ _______ _______ _____ _____    ______ ____
DOCKED: ROOT
DOCKED: ATOM      1  C   UNL d   1      46.334  25.616  20.430 -0.06 +0.13    +0.193 C 
DOCKED: ENDROOT
DOCKED: BRANCH   1   2
DOCKED: ATOM      2  O   UNL d   1      45.210  25.252  21.300 -0.07 -0.31    -0.356 OA
DOCKED: BRANCH   2   3
DOCKED: ATOM      3  P   UNL d   1      43.784  26.070  21.324 -0.35 -0.02    -0.014 P 
DOCKED: ATOM      4  O   UNL d   1      43.342  26.027  22.795 -0.55 -0.97    -0.577 OA
DOCKED: ATOM      5  O   UNL d   1      42.812  25.311  20.423 -0.07 -0.28    -0.577 OA
DOCKED: ATOM      6  O   UNL d   1      44.053  27.498  20.861 -0.31 -0.88    -0.638 OA
DOCKED: ENDBRANCH   2   3
DOCKED: ENDBRANCH   1   2
DOCKED: BRANCH   1   7
DOCKED: ATOM      7  C   UNL d   1      46.948  24.302  19.821 -0.03 +0.10    +0.201 C 
DOCKED: BRANCH   7   8
DOCKED: ATOM      8  O   UNL d   1      47.703  24.466  18.600 -0.02 -0.21    -0.364 OA
DOCKED: BRANCH   8   9
DOCKED: ATOM      9  P   UNL d   1      48.092  23.146  17.682 -0.16 -0.02    -0.015 P 
DOCKED: ATOM     10  O   UNL d   1      47.717  23.533  16.247 -0.49 -0.82    -0.577 OA
DOCKED: ATOM     11  O   UNL d   1      47.249  21.980  18.198 -0.02 -0.44    -0.577 OA
DOCKED: ATOM     12  O   UNL d   1      49.594  22.914  17.840 -0.33 -0.83    -0.638 OA
DOCKED: ENDBRANCH   8   9
DOCKED: ENDBRANCH   7   8
DOCKED: ENDBRANCH   1   7
DOCKED: BRANCH   1  13
DOCKED: ATOM     13  C   UNL d   1      47.446  26.354  21.265 -0.06 +0.06    +0.073 C 
DOCKED: ATOM     14  O   UNL d   1      47.093  27.304  22.049 -0.48 -0.85    -0.547 OA
DOCKED: ATOM     15  O   UNL d   1      48.646  25.910  21.156 +0.02 -0.29    -0.547 OA
DOCKED: ENDBRANCH   1  13
DOCKED: TORSDOF 6
DOCKED: TER
DOCKED: ENDMDL
________________________________________________________________________________


	BEGINNING GENETIC ALGORITHM DOCKING 74 of 100
Run: 74 Seed: 1509901144 1813018531 [ Run 74 of 100 GA/GALS ]
Beginning LAMARCKIAN GENETIC ALGORITHM (LGA), with a maximum of 25000000 energy evaluations.

Final-Value: -7.114


	FINAL GENETIC ALGORITHM DOCKED STATE
	_______________________________________________


Detailed state:  trans 45.799 24.653 19.529 quatxyzw 0.383822 -0.520969 0.100407 0.755772 center 0.015 0.083 0.031 ntor 6 -179.5929 51.0287 -34.5855 16.7949 30.7706 12.0061
State:	 45.799  24.653  19.529   0.586 -0.796  0.153 81.814   -179.59   51.03  -34.59   16.79   30.77   12.01

DOCKED: MODEL       74
DOCKED: USER    Run = 74
DOCKED: USER    DPF = D:/Protein_go_brrr/autodock/final/6BB5/2_3_BPG/dock.dpf
DOCKED: USER  
DOCKED: USER    Estimated Free Energy of Binding    =   -7.27 kcal/mol  [=(1)+(2)+(3)-(4)]
DOCKED: USER    Estimated Inhibition Constant, Ki   =    4.69 uM (micromolar)  [Temperature = 298.15 K]
DOCKED: USER    
DOCKED: USER    (1) Final Intermolecular Energy     =   -9.06 kcal/mol
DOCKED: USER        vdW + Hbond + desolv Energy     =   -3.07 kcal/mol
DOCKED: USER        Electrostatic Energy            =   -5.99 kcal/mol
DOCKED: USER    (2) Final Total Internal Energy     =   +1.95 kcal/mol
DOCKED: USER    (3) Torsional Free Energy           =   +1.79 kcal/mol
DOCKED: USER    (4) Unbound System's Energy  [=(2)] =   +1.95 kcal/mol
DOCKED: USER    
DOCKED: USER    
DOCKED: USER    NEWDPF move 2_3_BPG_opt.pdbqt
DOCKED: USER    NEWDPF about 0.015000 0.083000 0.031000
DOCKED: USER    NEWDPF tran0 45.799108 24.652560 19.528508
DOCKED: USER    NEWDPF quaternion0 0.383822 -0.520969 0.100407 0.755772
DOCKED: USER    NEWDPF axisangle0 0.586135 -0.795572 0.153332 81.814311
DOCKED: USER    NEWDPF quat0 0.586135 -0.795572 0.153332 81.814311
DOCKED: USER    NEWDPF dihe0 -179.59 51.03 -34.59 16.79 30.77 12.01 
DOCKED: USER  keepresnum = 1 
DOCKED: USER  
DOCKED: REMARK  6 active torsions:
DOCKED: REMARK  status: ('A' for Active; 'I' for Inactive)
DOCKED: REMARK    1  A    between atoms: P_1  and  O_3 
DOCKED: REMARK    2  A    between atoms: P_2  and  O_4 
DOCKED: REMARK    3  A    between atoms: O_3  and  C_13 
DOCKED: REMARK    4  A    between atoms: O_4  and  C_14 
DOCKED: REMARK    5  A    between atoms: C_13  and  C_14 
DOCKED: REMARK    6  A    between atoms: C_13  and  C_15 
DOCKED: USER                              x       y       z     vdW  Elec       q    Type
DOCKED: USER                           _______ _______ _______ _____ _____    ______ ____
DOCKED: ROOT
DOCKED: ATOM      1  C   UNL d   1      45.701  24.806  20.174 -0.08 +0.11    +0.193 C 
DOCKED: ENDROOT
DOCKED: BRANCH   1   2
DOCKED: ATOM      2  O   UNL d   1      44.488  25.627  20.269 -0.10 -0.25    -0.356 OA
DOCKED: BRANCH   2   3
DOCKED: ATOM      3  P   UNL d   1      44.494  27.191  20.774 -0.21 -0.02    -0.014 P 
DOCKED: ATOM      4  O   UNL d   1      43.345  27.269  21.792 -0.55 -1.21    -0.577 OA
DOCKED: ATOM      5  O   UNL d   1      44.220  28.063  19.551 -0.05 -0.39    -0.577 OA
DOCKED: ATOM      6  O   UNL d   1      45.842  27.470  21.430 -0.23 -1.30    -0.638 OA
DOCKED: ENDBRANCH   2   3
DOCKED: ENDBRANCH   1   2
DOCKED: BRANCH   1   7
DOCKED: ATOM      7  C   UNL d   1      45.786  24.197  18.726 -0.08 +0.10    +0.201 C 
DOCKED: BRANCH   7   8
DOCKED: ATOM      8  O   UNL d   1      47.018  23.517  18.400 -0.03 -0.22    -0.364 OA
DOCKED: BRANCH   8   9
DOCKED: ATOM      9  P   UNL d   1      47.613  23.570  16.857 -0.22 -0.02    -0.015 P 
DOCKED: ATOM     10  O   UNL d   1      49.137  23.534  17.015 -0.54 -0.93    -0.577 OA
DOCKED: ATOM     11  O   UNL d   1      47.134  24.884  16.240 -0.09 -0.40    -0.577 OA
DOCKED: ATOM     12  O   UNL d   1      47.082  22.337  16.126 -0.17 -0.95    -0.638 OA
DOCKED: ENDBRANCH   8   9
DOCKED: ENDBRANCH   7   8
DOCKED: ENDBRANCH   1   7
DOCKED: BRANCH   1  13
DOCKED: ATOM     13  C   UNL d   1      45.637  23.626  21.214 -0.15 +0.04    +0.073 C 
DOCKED: ATOM     14  O   UNL d   1      46.609  23.484  22.037 +0.01 -0.26    -0.547 OA
DOCKED: ATOM     15  O   UNL d   1      44.573  22.909  21.216 -0.59 -0.28    -0.547 OA
DOCKED: ENDBRANCH   1  13
DOCKED: TORSDOF 6
DOCKED: TER
DOCKED: ENDMDL
________________________________________________________________________________


	BEGINNING GENETIC ALGORITHM DOCKING 75 of 100
Run: 75 Seed: 269425483 1090377068 [ Run 75 of 100 GA/GALS ]
Beginning LAMARCKIAN GENETIC ALGORITHM (LGA), with a maximum of 25000000 energy evaluations.

Final-Value: -6.506


	FINAL GENETIC ALGORITHM DOCKED STATE
	_______________________________________________


Detailed state:  trans 46.084 24.820 19.506 quatxyzw -0.067030 -0.170576 0.363126 0.913537 center 0.015 0.083 0.031 ntor 6 166.0410 145.8945 103.0464 5.5138 -24.6852 52.0588
State:	 46.084  24.820  19.506  -0.165 -0.419  0.893 48.002    166.04  145.89  103.05    5.51  -24.69   52.06

DOCKED: MODEL       75
DOCKED: USER    Run = 75
DOCKED: USER    DPF = D:/Protein_go_brrr/autodock/final/6BB5/2_3_BPG/dock.dpf
DOCKED: USER  
DOCKED: USER    Estimated Free Energy of Binding    =   -6.82 kcal/mol  [=(1)+(2)+(3)-(4)]
DOCKED: USER    Estimated Inhibition Constant, Ki   =    9.96 uM (micromolar)  [Temperature = 298.15 K]
DOCKED: USER    
DOCKED: USER    (1) Final Intermolecular Energy     =   -8.61 kcal/mol
DOCKED: USER        vdW + Hbond + desolv Energy     =   -2.57 kcal/mol
DOCKED: USER        Electrostatic Energy            =   -6.05 kcal/mol
DOCKED: USER    (2) Final Total Internal Energy     =   +2.11 kcal/mol
DOCKED: USER    (3) Torsional Free Energy           =   +1.79 kcal/mol
DOCKED: USER    (4) Unbound System's Energy  [=(2)] =   +2.11 kcal/mol
DOCKED: USER    
DOCKED: USER    
DOCKED: USER    NEWDPF move 2_3_BPG_opt.pdbqt
DOCKED: USER    NEWDPF about 0.015000 0.083000 0.031000
DOCKED: USER    NEWDPF tran0 46.084085 24.820143 19.506054
DOCKED: USER    NEWDPF quaternion0 -0.067030 -0.170576 0.363126 0.913537
DOCKED: USER    NEWDPF axisangle0 -0.164792 -0.419357 0.892739 48.002302
DOCKED: USER    NEWDPF quat0 -0.164792 -0.419357 0.892739 48.002302
DOCKED: USER    NEWDPF dihe0 166.04 145.89 103.05 5.51 -24.69 52.06 
DOCKED: USER  keepresnum = 1 
DOCKED: USER  
DOCKED: REMARK  6 active torsions:
DOCKED: REMARK  status: ('A' for Active; 'I' for Inactive)
DOCKED: REMARK    1  A    between atoms: P_1  and  O_3 
DOCKED: REMARK    2  A    between atoms: P_2  and  O_4 
DOCKED: REMARK    3  A    between atoms: O_3  and  C_13 
DOCKED: REMARK    4  A    between atoms: O_4  and  C_14 
DOCKED: REMARK    5  A    between atoms: C_13  and  C_14 
DOCKED: REMARK    6  A    between atoms: C_13  and  C_15 
DOCKED: USER                              x       y       z     vdW  Elec       q    Type
DOCKED: USER                           _______ _______ _______ _____ _____    ______ ____
DOCKED: ROOT
DOCKED: ATOM      1  C   UNL d   1      45.497  24.946  19.804 -0.09 +0.11    +0.193 C 
DOCKED: ENDROOT
DOCKED: BRANCH   1   2
DOCKED: ATOM      2  O   UNL d   1      45.164  26.357  19.582 -0.05 -0.23    -0.356 OA
DOCKED: BRANCH   2   3
DOCKED: ATOM      3  P   UNL d   1      44.789  27.399  20.798 -0.12 -0.02    -0.014 P 
DOCKED: ATOM      4  O   UNL d   1      43.957  26.559  21.779 -0.17 -1.08    -0.577 OA
DOCKED: ATOM      5  O   UNL d   1      43.964  28.530  20.187 -0.19 -0.53    -0.577 OA
DOCKED: ATOM      6  O   UNL d   1      46.093  27.872  21.432 -0.31 -1.28    -0.638 OA
DOCKED: ENDBRANCH   2   3
DOCKED: ENDBRANCH   1   2
DOCKED: BRANCH   1   7
DOCKED: ATOM      7  C   UNL d   1      46.709  24.561  18.878 -0.05 +0.10    +0.201 C 
DOCKED: BRANCH   7   8
DOCKED: ATOM      8  O   UNL d   1      46.737  23.193  18.413 -0.03 -0.22    -0.364 OA
DOCKED: BRANCH   8   9
DOCKED: ATOM      9  P   UNL d   1      47.599  22.795  17.058 -0.04 -0.02    -0.015 P 
DOCKED: ATOM     10  O   UNL d   1      46.763  23.321  15.885 -0.14 -0.60    -0.577 OA
DOCKED: ATOM     11  O   UNL d   1      47.718  21.272  17.037 -0.08 -0.87    -0.577 OA
DOCKED: ATOM     12  O   UNL d   1      48.951  23.500  17.160 -0.54 -0.97    -0.638 OA
DOCKED: ENDBRANCH   8   9
DOCKED: ENDBRANCH   7   8
DOCKED: ENDBRANCH   1   7
DOCKED: BRANCH   1  13
DOCKED: ATOM     13  C   UNL d   1      44.268  24.036  19.431 -0.24 +0.03    +0.073 C 
DOCKED: ATOM     14  O   UNL d   1      44.005  23.028  20.177 -0.49 -0.29    -0.547 OA
DOCKED: ATOM     15  O   UNL d   1      43.557  24.400  18.426 -0.03 -0.18    -0.547 OA
DOCKED: ENDBRANCH   1  13
DOCKED: TORSDOF 6
DOCKED: TER
DOCKED: ENDMDL
________________________________________________________________________________


	BEGINNING GENETIC ALGORITHM DOCKING 76 of 100
Run: 76 Seed: 1929219245 308748323 [ Run 76 of 100 GA/GALS ]
Beginning LAMARCKIAN GENETIC ALGORITHM (LGA), with a maximum of 25000000 energy evaluations.

Final-Value: -7.224


	FINAL GENETIC ALGORITHM DOCKED STATE
	_______________________________________________


Detailed state:  trans 45.722 24.708 19.438 quatxyzw -0.263373 0.478581 -0.109524 -0.830421 center 0.015 0.083 0.031 ntor 6 168.9394 56.8383 -140.1204 26.8715 -22.8653 -20.8102
State:	 45.722  24.708  19.438  -0.473  0.859 -0.197 -67.716    168.94   56.84 -140.12   26.87  -22.87  -20.81

DOCKED: MODEL       76
DOCKED: USER    Run = 76
DOCKED: USER    DPF = D:/Protein_go_brrr/autodock/final/6BB5/2_3_BPG/dock.dpf
DOCKED: USER  
DOCKED: USER    Estimated Free Energy of Binding    =   -7.33 kcal/mol  [=(1)+(2)+(3)-(4)]
DOCKED: USER    Estimated Inhibition Constant, Ki   =    4.25 uM (micromolar)  [Temperature = 298.15 K]
DOCKED: USER    
DOCKED: USER    (1) Final Intermolecular Energy     =   -9.12 kcal/mol
DOCKED: USER        vdW + Hbond + desolv Energy     =   -3.22 kcal/mol
DOCKED: USER        Electrostatic Energy            =   -5.90 kcal/mol
DOCKED: USER    (2) Final Total Internal Energy     =   +1.89 kcal/mol
DOCKED: USER    (3) Torsional Free Energy           =   +1.79 kcal/mol
DOCKED: USER    (4) Unbound System's Energy  [=(2)] =   +1.89 kcal/mol
DOCKED: USER    
DOCKED: USER    
DOCKED: USER    NEWDPF move 2_3_BPG_opt.pdbqt
DOCKED: USER    NEWDPF about 0.015000 0.083000 0.031000
DOCKED: USER    NEWDPF tran0 45.721784 24.708401 19.437573
DOCKED: USER    NEWDPF quaternion0 -0.263373 0.478581 -0.109524 -0.830421
DOCKED: USER    NEWDPF axisangle0 -0.472727 0.859002 -0.196583 -67.715928
DOCKED: USER    NEWDPF quat0 -0.472727 0.859002 -0.196583 -67.715928
DOCKED: USER    NEWDPF dihe0 168.94 56.84 -140.12 26.87 -22.87 -20.81 
DOCKED: USER  keepresnum = 1 
DOCKED: USER  
DOCKED: REMARK  6 active torsions:
DOCKED: REMARK  status: ('A' for Active; 'I' for Inactive)
DOCKED: REMARK    1  A    between atoms: P_1  and  O_3 
DOCKED: REMARK    2  A    between atoms: P_2  and  O_4 
DOCKED: REMARK    3  A    between atoms: O_3  and  C_13 
DOCKED: REMARK    4  A    between atoms: O_4  and  C_14 
DOCKED: REMARK    5  A    between atoms: C_13  and  C_14 
DOCKED: REMARK    6  A    between atoms: C_13  and  C_15 
DOCKED: USER                              x       y       z     vdW  Elec       q    Type
DOCKED: USER                           _______ _______ _______ _____ _____    ______ ____
DOCKED: ROOT
DOCKED: ATOM      1  C   UNL d   1      45.519  24.732  20.076 -0.09 +0.11    +0.193 C 
DOCKED: ENDROOT
DOCKED: BRANCH   1   2
DOCKED: ATOM      2  O   UNL d   1      44.371  25.642  20.158 -0.10 -0.23    -0.356 OA
DOCKED: BRANCH   2   3
DOCKED: ATOM      3  P   UNL d   1      44.464  27.157  20.792 -0.21 -0.02    -0.014 P 
DOCKED: ATOM      4  O   UNL d   1      43.344  27.202  21.843 -0.57 -1.21    -0.577 OA
DOCKED: ATOM      5  O   UNL d   1      44.204  28.141  19.652 -0.07 -0.42    -0.577 OA
DOCKED: ATOM      6  O   UNL d   1      45.839  27.318  21.431 -0.26 -1.26    -0.638 OA
DOCKED: ENDBRANCH   2   3
DOCKED: ENDBRANCH   1   2
DOCKED: BRANCH   1   7
DOCKED: ATOM      7  C   UNL d   1      45.822  24.437  18.561 -0.08 +0.10    +0.201 C 
DOCKED: BRANCH   7   8
DOCKED: ATOM      8  O   UNL d   1      47.218  24.415  18.190 -0.04 -0.22    -0.364 OA
DOCKED: BRANCH   8   9
DOCKED: ATOM      9  P   UNL d   1      47.695  23.656  16.799 -0.21 -0.02    -0.015 P 
DOCKED: ATOM     10  O   UNL d   1      46.646  24.047  15.752 -0.09 -0.47    -0.577 OA
DOCKED: ATOM     11  O   UNL d   1      47.685  22.154  17.085 -0.31 -0.87    -0.577 OA
DOCKED: ATOM     12  O   UNL d   1      49.083  24.189  16.448 -0.45 -0.89    -0.638 OA
DOCKED: ENDBRANCH   8   9
DOCKED: ENDBRANCH   7   8
DOCKED: ENDBRANCH   1   7
DOCKED: BRANCH   1  13
DOCKED: ATOM     13  C   UNL d   1      45.184  23.374  20.798 -0.17 +0.04    +0.073 C 
DOCKED: ATOM     14  O   UNL d   1      46.078  22.842  21.545 -0.06 -0.24    -0.547 OA
DOCKED: ATOM     15  O   UNL d   1      43.998  22.909  20.641 -0.51 -0.31    -0.547 OA
DOCKED: ENDBRANCH   1  13
DOCKED: TORSDOF 6
DOCKED: TER
DOCKED: ENDMDL
________________________________________________________________________________


	BEGINNING GENETIC ALGORITHM DOCKING 77 of 100
Run: 77 Seed: 2129379292 1545117078 [ Run 77 of 100 GA/GALS ]
Beginning LAMARCKIAN GENETIC ALGORITHM (LGA), with a maximum of 25000000 energy evaluations.

Final-Value: -7.378


	FINAL GENETIC ALGORITHM DOCKED STATE
	_______________________________________________


Detailed state:  trans 45.626 24.807 19.138 quatxyzw 0.163443 -0.424979 0.201931 0.867123 center 0.015 0.083 0.031 ntor 6 -178.2629 -30.4154 -157.7038 7.6674 -36.4050 -32.5282
State:	 45.626  24.807  19.138   0.328 -0.853  0.405 59.748   -178.26  -30.42 -157.70    7.67  -36.40  -32.53

DOCKED: MODEL       77
DOCKED: USER    Run = 77
DOCKED: USER    DPF = D:/Protein_go_brrr/autodock/final/6BB5/2_3_BPG/dock.dpf
DOCKED: USER  
DOCKED: USER    Estimated Free Energy of Binding    =   -7.50 kcal/mol  [=(1)+(2)+(3)-(4)]
DOCKED: USER    Estimated Inhibition Constant, Ki   =    3.17 uM (micromolar)  [Temperature = 298.15 K]
DOCKED: USER    
DOCKED: USER    (1) Final Intermolecular Energy     =   -9.29 kcal/mol
DOCKED: USER        vdW + Hbond + desolv Energy     =   -3.55 kcal/mol
DOCKED: USER        Electrostatic Energy            =   -5.74 kcal/mol
DOCKED: USER    (2) Final Total Internal Energy     =   +1.91 kcal/mol
DOCKED: USER    (3) Torsional Free Energy           =   +1.79 kcal/mol
DOCKED: USER    (4) Unbound System's Energy  [=(2)] =   +1.91 kcal/mol
DOCKED: USER    
DOCKED: USER    
DOCKED: USER    NEWDPF move 2_3_BPG_opt.pdbqt
DOCKED: USER    NEWDPF about 0.015000 0.083000 0.031000
DOCKED: USER    NEWDPF tran0 45.625567 24.806536 19.138186
DOCKED: USER    NEWDPF quaternion0 0.163443 -0.424979 0.201931 0.867123
DOCKED: USER    NEWDPF axisangle0 0.328138 -0.853212 0.405408 59.747889
DOCKED: USER    NEWDPF quat0 0.328138 -0.853212 0.405408 59.747889
DOCKED: USER    NEWDPF dihe0 -178.26 -30.42 -157.70 7.67 -36.40 -32.53 
DOCKED: USER  keepresnum = 1 
DOCKED: USER  
DOCKED: REMARK  6 active torsions:
DOCKED: REMARK  status: ('A' for Active; 'I' for Inactive)
DOCKED: REMARK    1  A    between atoms: P_1  and  O_3 
DOCKED: REMARK    2  A    between atoms: P_2  and  O_4 
DOCKED: REMARK    3  A    between atoms: O_3  and  C_13 
DOCKED: REMARK    4  A    between atoms: O_4  and  C_14 
DOCKED: REMARK    5  A    between atoms: C_13  and  C_14 
DOCKED: REMARK    6  A    between atoms: C_13  and  C_15 
DOCKED: USER                              x       y       z     vdW  Elec       q    Type
DOCKED: USER                           _______ _______ _______ _____ _____    ______ ____
DOCKED: ROOT
DOCKED: ATOM      1  C   UNL d   1      45.308  24.834  19.728 -0.10 +0.10    +0.193 C 
DOCKED: ENDROOT
DOCKED: BRANCH   1   2
DOCKED: ATOM      2  O   UNL d   1      44.375  25.966  19.693 -0.09 -0.21    -0.356 OA
DOCKED: BRANCH   2   3
DOCKED: ATOM      3  P   UNL d   1      44.382  27.176  20.806 -0.20 -0.02    -0.014 P 
DOCKED: ATOM      4  O   UNL d   1      43.991  28.431  20.010 -0.15 -0.49    -0.577 OA
DOCKED: ATOM      5  O   UNL d   1      45.804  27.279  21.353 -0.27 -1.09    -0.577 OA
DOCKED: ATOM      6  O   UNL d   1      43.343  26.843  21.872 -0.62 -1.18    -0.638 OA
DOCKED: ENDBRANCH   2   3
DOCKED: ENDBRANCH   1   2
DOCKED: BRANCH   1   7
DOCKED: ATOM      7  C   UNL d   1      45.844  24.576  18.271 -0.09 +0.10    +0.201 C 
DOCKED: BRANCH   7   8
DOCKED: ATOM      8  O   UNL d   1      47.281  24.534  18.127 -0.04 -0.22    -0.364 OA
DOCKED: BRANCH   8   9
DOCKED: ATOM      9  P   UNL d   1      47.972  23.533  17.005 -0.08 -0.02    -0.015 P 
DOCKED: ATOM     10  O   UNL d   1      46.888  23.314  15.944 -0.17 -0.64    -0.577 OA
DOCKED: ATOM     11  O   UNL d   1      48.335  22.236  17.728 -0.36 -0.77    -0.577 OA
DOCKED: ATOM     12  O   UNL d   1      49.190  24.263  16.440 -0.40 -0.86    -0.638 OA
DOCKED: ENDBRANCH   8   9
DOCKED: ENDBRANCH   7   8
DOCKED: ENDBRANCH   1   7
DOCKED: BRANCH   1  13
DOCKED: ATOM     13  C   UNL d   1      44.566  23.539  20.229 -0.22 +0.03    +0.073 C 
DOCKED: ATOM     14  O   UNL d   1      45.043  22.914  21.240 -0.44 -0.27    -0.547 OA
DOCKED: ATOM     15  O   UNL d   1      43.479  23.219  19.625 -0.30 -0.22    -0.547 OA
DOCKED: ENDBRANCH   1  13
DOCKED: TORSDOF 6
DOCKED: TER
DOCKED: ENDMDL
________________________________________________________________________________


	BEGINNING GENETIC ALGORITHM DOCKING 78 of 100
Run: 78 Seed: 568148483 1801063734 [ Run 78 of 100 GA/GALS ]
Beginning LAMARCKIAN GENETIC ALGORITHM (LGA), with a maximum of 25000000 energy evaluations.

Final-Value: -7.142


	FINAL GENETIC ALGORITHM DOCKED STATE
	_______________________________________________


Detailed state:  trans 45.772 24.578 19.467 quatxyzw -0.145264 0.346728 -0.284358 -0.881941 center 0.015 0.083 0.031 ntor 6 180.0000 -13.9632 -91.8259 1.5836 18.0305 5.1996
State:	 45.772  24.578  19.467  -0.308  0.736 -0.603 -56.245    180.00  -13.96  -91.83    1.58   18.03    5.20

DOCKED: MODEL       78
DOCKED: USER    Run = 78
DOCKED: USER    DPF = D:/Protein_go_brrr/autodock/final/6BB5/2_3_BPG/dock.dpf
DOCKED: USER  
DOCKED: USER    Estimated Free Energy of Binding    =   -7.30 kcal/mol  [=(1)+(2)+(3)-(4)]
DOCKED: USER    Estimated Inhibition Constant, Ki   =    4.49 uM (micromolar)  [Temperature = 298.15 K]
DOCKED: USER    
DOCKED: USER    (1) Final Intermolecular Energy     =   -9.09 kcal/mol
DOCKED: USER        vdW + Hbond + desolv Energy     =   -3.38 kcal/mol
DOCKED: USER        Electrostatic Energy            =   -5.71 kcal/mol
DOCKED: USER    (2) Final Total Internal Energy     =   +1.94 kcal/mol
DOCKED: USER    (3) Torsional Free Energy           =   +1.79 kcal/mol
DOCKED: USER    (4) Unbound System's Energy  [=(2)] =   +1.94 kcal/mol
DOCKED: USER    
DOCKED: USER    
DOCKED: USER    NEWDPF move 2_3_BPG_opt.pdbqt
DOCKED: USER    NEWDPF about 0.015000 0.083000 0.031000
DOCKED: USER    NEWDPF tran0 45.772308 24.578459 19.466983
DOCKED: USER    NEWDPF quaternion0 -0.145264 0.346728 -0.284358 -0.881941
DOCKED: USER    NEWDPF axisangle0 -0.308179 0.735589 -0.603270 -56.245320
DOCKED: USER    NEWDPF quat0 -0.308179 0.735589 -0.603270 -56.245320
DOCKED: USER    NEWDPF dihe0 180.00 -13.96 -91.83 1.58 18.03 5.20 
DOCKED: USER  keepresnum = 1 
DOCKED: USER  
DOCKED: REMARK  6 active torsions:
DOCKED: REMARK  status: ('A' for Active; 'I' for Inactive)
DOCKED: REMARK    1  A    between atoms: P_1  and  O_3 
DOCKED: REMARK    2  A    between atoms: P_2  and  O_4 
DOCKED: REMARK    3  A    between atoms: O_3  and  C_13 
DOCKED: REMARK    4  A    between atoms: O_4  and  C_14 
DOCKED: REMARK    5  A    between atoms: C_13  and  C_14 
DOCKED: REMARK    6  A    between atoms: C_13  and  C_15 
DOCKED: USER                              x       y       z     vdW  Elec       q    Type
DOCKED: USER                           _______ _______ _______ _____ _____    ______ ____
DOCKED: ROOT
DOCKED: ATOM      1  C   UNL d   1      45.361  24.689  19.985 -0.10 +0.10    +0.193 C 
DOCKED: ENDROOT
DOCKED: BRANCH   1   2
DOCKED: ATOM      2  O   UNL d   1      44.607  25.918  19.717 -0.08 -0.22    -0.356 OA
DOCKED: BRANCH   2   3
DOCKED: ATOM      3  P   UNL d   1      44.458  27.141  20.807 -0.21 -0.02    -0.014 P 
DOCKED: ATOM      4  O   UNL d   1      44.017  28.350  19.967 -0.14 -0.48    -0.577 OA
DOCKED: ATOM      5  O   UNL d   1      45.835  27.362  21.431 -0.27 -1.15    -0.577 OA
DOCKED: ATOM      6  O   UNL d   1      43.389  26.743  21.819 -0.58 -1.12    -0.638 OA
DOCKED: ENDBRANCH   2   3
DOCKED: ENDBRANCH   1   2
DOCKED: BRANCH   1   7
DOCKED: ATOM      7  C   UNL d   1      46.108  24.258  18.669 -0.07 +0.10    +0.201 C 
DOCKED: BRANCH   7   8
DOCKED: ATOM      8  O   UNL d   1      47.159  23.279  18.832 -0.02 -0.21    -0.364 OA
DOCKED: BRANCH   8   9
DOCKED: ATOM      9  P   UNL d   1      48.337  23.128  17.681 -0.13 -0.02    -0.015 P 
DOCKED: ATOM     10  O   UNL d   1      49.449  24.088  18.121 -0.06 -0.46    -0.577 OA
DOCKED: ATOM     11  O   UNL d   1      47.716  23.546  16.349 -0.50 -0.80    -0.577 OA
DOCKED: ATOM     12  O   UNL d   1      48.797  21.671  17.695 -0.18 -0.98    -0.638 OA
DOCKED: ENDBRANCH   8   9
DOCKED: ENDBRANCH   7   8
DOCKED: ENDBRANCH   1   7
DOCKED: BRANCH   1  13
DOCKED: ATOM     13  C   UNL d   1      44.379  23.534  20.408 -0.22 +0.04    +0.073 C 
DOCKED: ATOM     14  O   UNL d   1      44.602  22.913  21.506 -0.55 -0.28    -0.547 OA
DOCKED: ATOM     15  O   UNL d   1      43.364  23.325  19.649 -0.28 -0.21    -0.547 OA
DOCKED: ENDBRANCH   1  13
DOCKED: TORSDOF 6
DOCKED: TER
DOCKED: ENDMDL
________________________________________________________________________________


	BEGINNING GENETIC ALGORITHM DOCKING 79 of 100
Run: 79 Seed: 2135060035 63646060 [ Run 79 of 100 GA/GALS ]
Beginning LAMARCKIAN GENETIC ALGORITHM (LGA), with a maximum of 25000000 energy evaluations.

Final-Value: -7.394


	FINAL GENETIC ALGORITHM DOCKED STATE
	_______________________________________________


Detailed state:  trans 45.659 24.811 19.311 quatxyzw -0.150547 0.400356 -0.205436 -0.880254 center 0.015 0.083 0.031 ntor 6 -170.0257 -39.6478 -147.0160 16.9223 -18.6449 -16.1447
State:	 45.659  24.811  19.311  -0.317  0.844 -0.433 -56.654   -170.03  -39.65 -147.02   16.92  -18.64  -16.14

DOCKED: MODEL       79
DOCKED: USER    Run = 79
DOCKED: USER    DPF = D:/Protein_go_brrr/autodock/final/6BB5/2_3_BPG/dock.dpf
DOCKED: USER  
DOCKED: USER    Estimated Free Energy of Binding    =   -7.49 kcal/mol  [=(1)+(2)+(3)-(4)]
DOCKED: USER    Estimated Inhibition Constant, Ki   =    3.22 uM (micromolar)  [Temperature = 298.15 K]
DOCKED: USER    
DOCKED: USER    (1) Final Intermolecular Energy     =   -9.28 kcal/mol
DOCKED: USER        vdW + Hbond + desolv Energy     =   -3.39 kcal/mol
DOCKED: USER        Electrostatic Energy            =   -5.90 kcal/mol
DOCKED: USER    (2) Final Total Internal Energy     =   +1.89 kcal/mol
DOCKED: USER    (3) Torsional Free Energy           =   +1.79 kcal/mol
DOCKED: USER    (4) Unbound System's Energy  [=(2)] =   +1.89 kcal/mol
DOCKED: USER    
DOCKED: USER    
DOCKED: USER    NEWDPF move 2_3_BPG_opt.pdbqt
DOCKED: USER    NEWDPF about 0.015000 0.083000 0.031000
DOCKED: USER    NEWDPF tran0 45.659450 24.810821 19.311294
DOCKED: USER    NEWDPF quaternion0 -0.150547 0.400356 -0.205436 -0.880254
DOCKED: USER    NEWDPF axisangle0 -0.317274 0.843737 -0.432949 -56.654011
DOCKED: USER    NEWDPF quat0 -0.317274 0.843737 -0.432949 -56.654011
DOCKED: USER    NEWDPF dihe0 -170.03 -39.65 -147.02 16.92 -18.64 -16.14 
DOCKED: USER  keepresnum = 1 
DOCKED: USER  
DOCKED: REMARK  6 active torsions:
DOCKED: REMARK  status: ('A' for Active; 'I' for Inactive)
DOCKED: REMARK    1  A    between atoms: P_1  and  O_3 
DOCKED: REMARK    2  A    between atoms: P_2  and  O_4 
DOCKED: REMARK    3  A    between atoms: O_3  and  C_13 
DOCKED: REMARK    4  A    between atoms: O_4  and  C_14 
DOCKED: REMARK    5  A    between atoms: C_13  and  C_14 
DOCKED: REMARK    6  A    between atoms: C_13  and  C_15 
DOCKED: USER                              x       y       z     vdW  Elec       q    Type
DOCKED: USER                           _______ _______ _______ _____ _____    ______ ____
DOCKED: ROOT
DOCKED: ATOM      1  C   UNL d   1      45.307  24.831  19.881 -0.10 +0.11    +0.193 C 
DOCKED: ENDROOT
DOCKED: BRANCH   1   2
DOCKED: ATOM      2  O   UNL d   1      44.382  25.967  19.806 -0.10 -0.22    -0.356 OA
DOCKED: BRANCH   2   3
DOCKED: ATOM      3  P   UNL d   1      44.469  27.271  20.804 -0.19 -0.02    -0.014 P 
DOCKED: ATOM      4  O   UNL d   1      44.268  28.479  19.876 -0.10 -0.47    -0.577 OA
DOCKED: ATOM      5  O   UNL d   1      45.863  27.269  21.430 -0.30 -1.12    -0.577 OA
DOCKED: ATOM      6  O   UNL d   1      43.344  27.158  21.827 -0.54 -1.31    -0.638 OA
DOCKED: ENDBRANCH   2   3
DOCKED: ENDBRANCH   1   2
DOCKED: BRANCH   1   7
DOCKED: ATOM      7  C   UNL d   1      45.929  24.591  18.456 -0.08 +0.10    +0.201 C 
DOCKED: BRANCH   7   8
DOCKED: ATOM      8  O   UNL d   1      47.314  24.181  18.434 -0.03 -0.22    -0.364 OA
DOCKED: BRANCH   8   9
DOCKED: ATOM      9  P   UNL d   1      47.965  23.533  17.058 -0.15 -0.02    -0.015 P 
DOCKED: ATOM     10  O   UNL d   1      47.283  24.279  15.904 -0.18 -0.54    -0.577 OA
DOCKED: ATOM     11  O   UNL d   1      47.618  22.044  17.059 -0.26 -0.85    -0.577 OA
DOCKED: ATOM     12  O   UNL d   1      49.469  23.797  17.103 -0.39 -0.88    -0.638 OA
DOCKED: ENDBRANCH   8   9
DOCKED: ENDBRANCH   7   8
DOCKED: ENDBRANCH   1   7
DOCKED: BRANCH   1  13
DOCKED: ATOM     13  C   UNL d   1      44.532  23.532  20.319 -0.22 +0.04    +0.073 C 
DOCKED: ATOM     14  O   UNL d   1      44.842  22.982  21.433 -0.45 -0.27    -0.547 OA
DOCKED: ATOM     15  O   UNL d   1      43.582  23.135  19.552 -0.31 -0.22    -0.547 OA
DOCKED: ENDBRANCH   1  13
DOCKED: TORSDOF 6
DOCKED: TER
DOCKED: ENDMDL
________________________________________________________________________________


	BEGINNING GENETIC ALGORITHM DOCKING 80 of 100
Run: 80 Seed: 1120071216 528968511 [ Run 80 of 100 GA/GALS ]
Beginning LAMARCKIAN GENETIC ALGORITHM (LGA), with a maximum of 25000000 energy evaluations.

Final-Value: -7.274


	FINAL GENETIC ALGORITHM DOCKED STATE
	_______________________________________________


Detailed state:  trans 45.672 24.891 19.114 quatxyzw -0.083715 0.371274 -0.273824 -0.883271 center 0.015 0.083 0.031 ntor 6 -6.6878 -131.8129 -146.2460 -0.5690 -19.0552 -25.6611
State:	 45.672  24.891  19.114  -0.179  0.792 -0.584 -55.921     -6.69 -131.81 -146.25   -0.57  -19.06  -25.66

DOCKED: MODEL       80
DOCKED: USER    Run = 80
DOCKED: USER    DPF = D:/Protein_go_brrr/autodock/final/6BB5/2_3_BPG/dock.dpf
DOCKED: USER  
DOCKED: USER    Estimated Free Energy of Binding    =   -7.41 kcal/mol  [=(1)+(2)+(3)-(4)]
DOCKED: USER    Estimated Inhibition Constant, Ki   =    3.70 uM (micromolar)  [Temperature = 298.15 K]
DOCKED: USER    
DOCKED: USER    (1) Final Intermolecular Energy     =   -9.20 kcal/mol
DOCKED: USER        vdW + Hbond + desolv Energy     =   -3.44 kcal/mol
DOCKED: USER        Electrostatic Energy            =   -5.76 kcal/mol
DOCKED: USER    (2) Final Total Internal Energy     =   +1.93 kcal/mol
DOCKED: USER    (3) Torsional Free Energy           =   +1.79 kcal/mol
DOCKED: USER    (4) Unbound System's Energy  [=(2)] =   +1.93 kcal/mol
DOCKED: USER    
DOCKED: USER    
DOCKED: USER    NEWDPF move 2_3_BPG_opt.pdbqt
DOCKED: USER    NEWDPF about 0.015000 0.083000 0.031000
DOCKED: USER    NEWDPF tran0 45.672080 24.891078 19.113931
DOCKED: USER    NEWDPF quaternion0 -0.083715 0.371274 -0.273824 -0.883271
DOCKED: USER    NEWDPF axisangle0 -0.178548 0.791861 -0.584018 -55.920999
DOCKED: USER    NEWDPF quat0 -0.178548 0.791861 -0.584018 -55.920999
DOCKED: USER    NEWDPF dihe0 -6.69 -131.81 -146.25 -0.57 -19.06 -25.66 
DOCKED: USER  keepresnum = 1 
DOCKED: USER  
DOCKED: REMARK  6 active torsions:
DOCKED: REMARK  status: ('A' for Active; 'I' for Inactive)
DOCKED: REMARK    1  A    between atoms: P_1  and  O_3 
DOCKED: REMARK    2  A    between atoms: P_2  and  O_4 
DOCKED: REMARK    3  A    between atoms: O_3  and  C_13 
DOCKED: REMARK    4  A    between atoms: O_4  and  C_14 
DOCKED: REMARK    5  A    between atoms: C_13  and  C_14 
DOCKED: REMARK    6  A    between atoms: C_13  and  C_15 
DOCKED: USER                              x       y       z     vdW  Elec       q    Type
DOCKED: USER                           _______ _______ _______ _____ _____    ______ ____
DOCKED: ROOT
DOCKED: ATOM      1  C   UNL d   1      45.269  24.945  19.647 -0.10 +0.10    +0.193 C 
DOCKED: ENDROOT
DOCKED: BRANCH   1   2
DOCKED: ATOM      2  O   UNL d   1      44.551  26.221  19.551 -0.08 -0.21    -0.356 OA
DOCKED: BRANCH   2   3
DOCKED: ATOM      3  P   UNL d   1      44.406  27.272  20.807 -0.18 -0.02    -0.014 P 
DOCKED: ATOM      4  O   UNL d   1      45.811  27.325  21.426 -0.26 -1.14    -0.577 OA
DOCKED: ATOM      5  O   UNL d   1      43.386  26.680  21.777 -0.62 -0.97    -0.577 OA
DOCKED: ATOM      6  O   UNL d   1      43.992  28.627  20.242 -0.11 -0.61    -0.638 OA
DOCKED: ENDBRANCH   2   3
DOCKED: ENDBRANCH   1   2
DOCKED: BRANCH   1   7
DOCKED: ATOM      7  C   UNL d   1      45.991  24.667  18.277 -0.09 +0.10    +0.201 C 
DOCKED: BRANCH   7   8
DOCKED: ATOM      8  O   UNL d   1      47.367  24.235  18.366 -0.03 -0.22    -0.364 OA
DOCKED: BRANCH   8   9
DOCKED: ATOM      9  P   UNL d   1      48.104  23.540  17.058 -0.10 -0.02    -0.015 P 
DOCKED: ATOM     10  O   UNL d   1      47.536  24.279  15.841 -0.21 -0.59    -0.577 OA
DOCKED: ATOM     11  O   UNL d   1      47.716  22.062  17.061 -0.30 -0.89    -0.577 OA
DOCKED: ATOM     12  O   UNL d   1      49.607  23.764  17.215 -0.34 -0.85    -0.638 OA
DOCKED: ENDBRANCH   8   9
DOCKED: ENDBRANCH   7   8
DOCKED: ENDBRANCH   1   7
DOCKED: BRANCH   1  13
DOCKED: ATOM     13  C   UNL d   1      44.255  23.775  19.929 -0.24 +0.03    +0.073 C 
DOCKED: ATOM     14  O   UNL d   1      43.186  23.709  19.225 -0.15 -0.18    -0.547 OA
DOCKED: ATOM     15  O   UNL d   1      44.594  22.911  20.816 -0.62 -0.29    -0.547 OA
DOCKED: ENDBRANCH   1  13
DOCKED: TORSDOF 6
DOCKED: TER
DOCKED: ENDMDL
________________________________________________________________________________


	BEGINNING GENETIC ALGORITHM DOCKING 81 of 100
Run: 81 Seed: 1579970143 1798600075 [ Run 81 of 100 GA/GALS ]
Beginning LAMARCKIAN GENETIC ALGORITHM (LGA), with a maximum of 25000000 energy evaluations.

Final-Value: -6.466


	FINAL GENETIC ALGORITHM DOCKED STATE
	_______________________________________________


Detailed state:  trans 44.872 24.813 18.699 quatxyzw -0.520322 -0.136971 0.338411 0.771999 center 0.015 0.083 0.031 ntor 6 -168.5716 49.8718 176.2170 58.9062 -48.4030 -16.1543
State:	 44.872  24.813  18.699  -0.819 -0.215  0.532 78.933   -168.57   49.87  176.22   58.91  -48.40  -16.15

DOCKED: MODEL       81
DOCKED: USER    Run = 81
DOCKED: USER    DPF = D:/Protein_go_brrr/autodock/final/6BB5/2_3_BPG/dock.dpf
DOCKED: USER  
DOCKED: USER    Estimated Free Energy of Binding    =   -6.62 kcal/mol  [=(1)+(2)+(3)-(4)]
DOCKED: USER    Estimated Inhibition Constant, Ki   =   14.12 uM (micromolar)  [Temperature = 298.15 K]
DOCKED: USER    
DOCKED: USER    (1) Final Intermolecular Energy     =   -8.41 kcal/mol
DOCKED: USER        vdW + Hbond + desolv Energy     =   -3.11 kcal/mol
DOCKED: USER        Electrostatic Energy            =   -5.30 kcal/mol
DOCKED: USER    (2) Final Total Internal Energy     =   +1.94 kcal/mol
DOCKED: USER    (3) Torsional Free Energy           =   +1.79 kcal/mol
DOCKED: USER    (4) Unbound System's Energy  [=(2)] =   +1.94 kcal/mol
DOCKED: USER    
DOCKED: USER    
DOCKED: USER    NEWDPF move 2_3_BPG_opt.pdbqt
DOCKED: USER    NEWDPF about 0.015000 0.083000 0.031000
DOCKED: USER    NEWDPF tran0 44.872444 24.812933 18.698660
DOCKED: USER    NEWDPF quaternion0 -0.520322 -0.136971 0.338411 0.771999
DOCKED: USER    NEWDPF axisangle0 -0.818600 -0.215490 0.532407 78.932579
DOCKED: USER    NEWDPF quat0 -0.818600 -0.215490 0.532407 78.932579
DOCKED: USER    NEWDPF dihe0 -168.57 49.87 176.22 58.91 -48.40 -16.15 
DOCKED: USER  keepresnum = 1 
DOCKED: USER  
DOCKED: REMARK  6 active torsions:
DOCKED: REMARK  status: ('A' for Active; 'I' for Inactive)
DOCKED: REMARK    1  A    between atoms: P_1  and  O_3 
DOCKED: REMARK    2  A    between atoms: P_2  and  O_4 
DOCKED: REMARK    3  A    between atoms: O_3  and  C_13 
DOCKED: REMARK    4  A    between atoms: O_4  and  C_14 
DOCKED: REMARK    5  A    between atoms: C_13  and  C_14 
DOCKED: REMARK    6  A    between atoms: C_13  and  C_15 
DOCKED: USER                              x       y       z     vdW  Elec       q    Type
DOCKED: USER                           _______ _______ _______ _____ _____    ______ ____
DOCKED: ROOT
DOCKED: ATOM      1  C   UNL d   1      44.222  24.881  18.846 -0.17 +0.08    +0.193 C 
DOCKED: ENDROOT
DOCKED: BRANCH   1   2
DOCKED: ATOM      2  O   UNL d   1      44.073  26.039  19.735 -0.12 -0.21    -0.356 OA
DOCKED: BRANCH   2   3
DOCKED: ATOM      3  P   UNL d   1      44.525  26.028  21.316 -0.27 -0.02    -0.014 P 
DOCKED: ATOM      4  O   UNL d   1      43.342  26.672  22.056 -0.77 -1.08    -0.577 OA
DOCKED: ATOM      5  O   UNL d   1      45.789  26.876  21.431 -0.26 -0.99    -0.577 OA
DOCKED: ATOM      6  O   UNL d   1      44.726  24.576  21.738 -0.01 -0.48    -0.638 OA
DOCKED: ENDBRANCH   2   3
DOCKED: ENDBRANCH   1   2
DOCKED: BRANCH   1   7
DOCKED: ATOM      7  C   UNL d   1      45.682  24.879  18.259 -0.10 +0.09    +0.201 C 
DOCKED: BRANCH   7   8
DOCKED: ATOM      8  O   UNL d   1      46.291  23.580  18.090 -0.04 -0.20    -0.364 OA
DOCKED: BRANCH   8   9
DOCKED: ATOM      9  P   UNL d   1      47.093  23.217  16.689 -0.28 -0.02    -0.015 P 
DOCKED: ATOM     10  O   UNL d   1      46.945  24.464  15.810 -0.14 -0.46    -0.577 OA
DOCKED: ATOM     11  O   UNL d   1      46.396  22.002  16.078 -0.05 -0.59    -0.577 OA
DOCKED: ATOM     12  O   UNL d   1      48.550  22.946  17.061 -0.47 -1.19    -0.638 OA
DOCKED: ENDBRANCH   8   9
DOCKED: ENDBRANCH   7   8
DOCKED: ENDBRANCH   1   7
DOCKED: BRANCH   1  13
DOCKED: ATOM     13  C   UNL d   1      43.199  24.980  17.654 -0.31 +0.02    +0.073 C 
DOCKED: ATOM     14  O   UNL d   1      42.274  24.098  17.567 -0.09 -0.11    -0.547 OA
DOCKED: ATOM     15  O   UNL d   1      43.318  25.987  16.867 -0.04 -0.15    -0.547 OA
DOCKED: ENDBRANCH   1  13
DOCKED: TORSDOF 6
DOCKED: TER
DOCKED: ENDMDL
________________________________________________________________________________


	BEGINNING GENETIC ALGORITHM DOCKING 82 of 100
Run: 82 Seed: 2146396475 1504329357 [ Run 82 of 100 GA/GALS ]
Beginning LAMARCKIAN GENETIC ALGORITHM (LGA), with a maximum of 25000000 energy evaluations.

Final-Value: -6.639


	FINAL GENETIC ALGORITHM DOCKED STATE
	_______________________________________________


Detailed state:  trans 45.068 24.191 18.533 quatxyzw -0.541573 -0.656626 -0.471150 -0.231427 center 0.015 0.083 0.031 ntor 6 168.6830 180.0000 165.8113 13.8414 6.9081 -1.2978
State:	 45.068  24.191  18.533  -0.557 -0.675 -0.484 -153.238    168.68  180.00  165.81   13.84    6.91   -1.30

DOCKED: MODEL       82
DOCKED: USER    Run = 82
DOCKED: USER    DPF = D:/Protein_go_brrr/autodock/final/6BB5/2_3_BPG/dock.dpf
DOCKED: USER  
DOCKED: USER    Estimated Free Energy of Binding    =   -6.76 kcal/mol  [=(1)+(2)+(3)-(4)]
DOCKED: USER    Estimated Inhibition Constant, Ki   =   11.02 uM (micromolar)  [Temperature = 298.15 K]
DOCKED: USER    
DOCKED: USER    (1) Final Intermolecular Energy     =   -8.55 kcal/mol
DOCKED: USER        vdW + Hbond + desolv Energy     =   -2.90 kcal/mol
DOCKED: USER        Electrostatic Energy            =   -5.65 kcal/mol
DOCKED: USER    (2) Final Total Internal Energy     =   +1.91 kcal/mol
DOCKED: USER    (3) Torsional Free Energy           =   +1.79 kcal/mol
DOCKED: USER    (4) Unbound System's Energy  [=(2)] =   +1.91 kcal/mol
DOCKED: USER    
DOCKED: USER    
DOCKED: USER    NEWDPF move 2_3_BPG_opt.pdbqt
DOCKED: USER    NEWDPF about 0.015000 0.083000 0.031000
DOCKED: USER    NEWDPF tran0 45.068406 24.191423 18.532713
DOCKED: USER    NEWDPF quaternion0 -0.541573 -0.656626 -0.471150 -0.231427
DOCKED: USER    NEWDPF axisangle0 -0.556686 -0.674949 -0.484297 -153.237743
DOCKED: USER    NEWDPF quat0 -0.556686 -0.674949 -0.484297 -153.237743
DOCKED: USER    NEWDPF dihe0 168.68 180.00 165.81 13.84 6.91 -1.30 
DOCKED: USER  keepresnum = 1 
DOCKED: USER  
DOCKED: REMARK  6 active torsions:
DOCKED: REMARK  status: ('A' for Active; 'I' for Inactive)
DOCKED: REMARK    1  A    between atoms: P_1  and  O_3 
DOCKED: REMARK    2  A    between atoms: P_2  and  O_4 
DOCKED: REMARK    3  A    between atoms: O_3  and  C_13 
DOCKED: REMARK    4  A    between atoms: O_4  and  C_14 
DOCKED: REMARK    5  A    between atoms: C_13  and  C_14 
DOCKED: REMARK    6  A    between atoms: C_13  and  C_15 
DOCKED: USER                              x       y       z     vdW  Elec       q    Type
DOCKED: USER                           _______ _______ _______ _____ _____    ______ ____
DOCKED: ROOT
DOCKED: ATOM      1  C   UNL d   1      44.977  23.993  17.899 -0.14 +0.08    +0.193 C 
DOCKED: ENDROOT
DOCKED: BRANCH   1   2
DOCKED: ATOM      2  O   UNL d   1      45.908  22.892  17.626 -0.07 -0.20    -0.356 OA
DOCKED: BRANCH   2   3
DOCKED: ATOM      3  P   UNL d   1      47.082  22.965  16.477 -0.25 -0.02    -0.014 P 
DOCKED: ATOM      4  O   UNL d   1      46.858  24.320  15.787 -0.13 -0.46    -0.577 OA
DOCKED: ATOM      5  O   UNL d   1      46.849  21.801  15.517 -0.07 -0.89    -0.577 OA
DOCKED: ATOM      6  O   UNL d   1      48.434  22.912  17.181 -0.49 -1.09    -0.638 OA
DOCKED: ENDBRANCH   2   3
DOCKED: ENDBRANCH   1   2
DOCKED: BRANCH   1   7
DOCKED: ATOM      7  C   UNL d   1      44.969  24.275  19.447 -0.13 +0.09    +0.201 C 
DOCKED: BRANCH   7   8
DOCKED: ATOM      8  O   UNL d   1      44.519  25.589  19.845 -0.08 -0.22    -0.364 OA
DOCKED: BRANCH   8   9
DOCKED: ATOM      9  P   UNL d   1      44.697  26.087  21.413 -0.17 -0.02    -0.015 P 
DOCKED: ATOM     10  O   UNL d   1      45.075  24.822  22.192 -0.01 -0.53    -0.577 OA
DOCKED: ATOM     11  O   UNL d   1      43.348  26.650  21.858 -0.69 -0.98    -0.577 OA
DOCKED: ATOM     12  O   UNL d   1      45.816  27.128  21.431 -0.26 -1.19    -0.638 OA
DOCKED: ENDBRANCH   8   9
DOCKED: ENDBRANCH   7   8
DOCKED: ENDBRANCH   1   7
DOCKED: BRANCH   1  13
DOCKED: ATOM     13  C   UNL d   1      43.522  23.593  17.451 -0.30 +0.02    +0.073 C 
DOCKED: ATOM     14  O   UNL d   1      42.810  24.464  16.838 -0.04 -0.13    -0.547 OA
DOCKED: ATOM     15  O   UNL d   1      43.155  22.383  17.675 -0.06 -0.12    -0.547 OA
DOCKED: ENDBRANCH   1  13
DOCKED: TORSDOF 6
DOCKED: TER
DOCKED: ENDMDL
________________________________________________________________________________


	BEGINNING GENETIC ALGORITHM DOCKING 83 of 100
Run: 83 Seed: 584830854 1326916736 [ Run 83 of 100 GA/GALS ]
Beginning LAMARCKIAN GENETIC ALGORITHM (LGA), with a maximum of 25000000 energy evaluations.

Final-Value: -7.166


	FINAL GENETIC ALGORITHM DOCKED STATE
	_______________________________________________


Detailed state:  trans 45.559 24.634 19.191 quatxyzw -0.176500 0.434370 -0.296791 -0.831917 center 0.015 0.083 0.031 ntor 6 -4.5417 107.0662 -151.9659 -9.6729 27.6369 11.0641
State:	 45.559  24.634  19.191  -0.318  0.783 -0.535 -67.408     -4.54  107.07 -151.97   -9.67   27.64   11.06

DOCKED: MODEL       83
DOCKED: USER    Run = 83
DOCKED: USER    DPF = D:/Protein_go_brrr/autodock/final/6BB5/2_3_BPG/dock.dpf
DOCKED: USER  
DOCKED: USER    Estimated Free Energy of Binding    =   -7.39 kcal/mol  [=(1)+(2)+(3)-(4)]
DOCKED: USER    Estimated Inhibition Constant, Ki   =    3.82 uM (micromolar)  [Temperature = 298.15 K]
DOCKED: USER    
DOCKED: USER    (1) Final Intermolecular Energy     =   -9.18 kcal/mol
DOCKED: USER        vdW + Hbond + desolv Energy     =   -3.27 kcal/mol
DOCKED: USER        Electrostatic Energy            =   -5.91 kcal/mol
DOCKED: USER    (2) Final Total Internal Energy     =   +2.01 kcal/mol
DOCKED: USER    (3) Torsional Free Energy           =   +1.79 kcal/mol
DOCKED: USER    (4) Unbound System's Energy  [=(2)] =   +2.01 kcal/mol
DOCKED: USER    
DOCKED: USER    
DOCKED: USER    NEWDPF move 2_3_BPG_opt.pdbqt
DOCKED: USER    NEWDPF about 0.015000 0.083000 0.031000
DOCKED: USER    NEWDPF tran0 45.558919 24.634023 19.191369
DOCKED: USER    NEWDPF quaternion0 -0.176500 0.434370 -0.296791 -0.831917
DOCKED: USER    NEWDPF axisangle0 -0.318075 0.782789 -0.534855 -67.407725
DOCKED: USER    NEWDPF quat0 -0.318075 0.782789 -0.534855 -67.407725
DOCKED: USER    NEWDPF dihe0 -4.54 107.07 -151.97 -9.67 27.64 11.06 
DOCKED: USER  keepresnum = 1 
DOCKED: USER  
DOCKED: REMARK  6 active torsions:
DOCKED: REMARK  status: ('A' for Active; 'I' for Inactive)
DOCKED: REMARK    1  A    between atoms: P_1  and  O_3 
DOCKED: REMARK    2  A    between atoms: P_2  and  O_4 
DOCKED: REMARK    3  A    between atoms: O_3  and  C_13 
DOCKED: REMARK    4  A    between atoms: O_4  and  C_14 
DOCKED: REMARK    5  A    between atoms: C_13  and  C_14 
DOCKED: REMARK    6  A    between atoms: C_13  and  C_15 
DOCKED: USER                              x       y       z     vdW  Elec       q    Type
DOCKED: USER                           _______ _______ _______ _____ _____    ______ ____
DOCKED: ROOT
DOCKED: ATOM      1  C   UNL d   1      45.268  24.779  19.778 -0.10 +0.10    +0.193 C 
DOCKED: ENDROOT
DOCKED: BRANCH   1   2
DOCKED: ATOM      2  O   UNL d   1      44.539  26.043  19.626 -0.08 -0.21    -0.356 OA
DOCKED: BRANCH   2   3
DOCKED: ATOM      3  P   UNL d   1      44.463  27.188  20.804 -0.20 -0.02    -0.014 P 
DOCKED: ATOM      4  O   UNL d   1      43.439  26.637  21.809 -0.59 -0.98    -0.577 OA
DOCKED: ATOM      5  O   UNL d   1      43.970  28.478  20.150 -0.18 -0.53    -0.577 OA
DOCKED: ATOM      6  O   UNL d   1      45.848  27.314  21.429 -0.27 -1.25    -0.638 OA
DOCKED: ENDBRANCH   2   3
DOCKED: ENDBRANCH   1   2
DOCKED: BRANCH   1   7
DOCKED: ATOM      7  C   UNL d   1      45.709  24.277  18.354 -0.10 +0.09    +0.201 C 
DOCKED: BRANCH   7   8
DOCKED: ATOM      8  O   UNL d   1      46.620  23.156  18.335 -0.04 -0.22    -0.364 OA
DOCKED: BRANCH   8   9
DOCKED: ATOM      9  P   UNL d   1      47.717  22.998  17.107 -0.08 -0.02    -0.015 P 
DOCKED: ATOM     10  O   UNL d   1      48.036  24.434  16.671 -0.21 -0.56    -0.577 OA
DOCKED: ATOM     11  O   UNL d   1      47.032  22.204  15.995 -0.15 -0.88    -0.577 OA
DOCKED: ATOM     12  O   UNL d   1      48.941  22.288  17.683 -0.36 -1.00    -0.638 OA
DOCKED: ENDBRANCH   8   9
DOCKED: ENDBRANCH   7   8
DOCKED: ENDBRANCH   1   7
DOCKED: BRANCH   1  13
DOCKED: ATOM     13  C   UNL d   1      44.334  23.692  20.429 -0.22 +0.04    +0.073 C 
DOCKED: ATOM     14  O   UNL d   1      43.164  23.518  19.937 -0.24 -0.21    -0.547 OA
DOCKED: ATOM     15  O   UNL d   1      44.831  22.994  21.385 -0.46 -0.27    -0.547 OA
DOCKED: ENDBRANCH   1  13
DOCKED: TORSDOF 6
DOCKED: TER
DOCKED: ENDMDL
________________________________________________________________________________


	BEGINNING GENETIC ALGORITHM DOCKING 84 of 100
Run: 84 Seed: 299675514 1505014057 [ Run 84 of 100 GA/GALS ]
Beginning LAMARCKIAN GENETIC ALGORITHM (LGA), with a maximum of 25000000 energy evaluations.

Final-Value: -7.366


	FINAL GENETIC ALGORITHM DOCKED STATE
	_______________________________________________


Detailed state:  trans 45.506 24.940 18.972 quatxyzw 0.120876 -0.449362 0.164590 0.869697 center 0.015 0.083 0.031 ntor 6 -167.2776 -43.1469 -137.5983 17.4325 -39.1339 -26.7539
State:	 45.506  24.940  18.972   0.245 -0.910  0.333 59.153   -167.28  -43.15 -137.60   17.43  -39.13  -26.75

DOCKED: MODEL       84
DOCKED: USER    Run = 84
DOCKED: USER    DPF = D:/Protein_go_brrr/autodock/final/6BB5/2_3_BPG/dock.dpf
DOCKED: USER  
DOCKED: USER    Estimated Free Energy of Binding    =   -7.48 kcal/mol  [=(1)+(2)+(3)-(4)]
DOCKED: USER    Estimated Inhibition Constant, Ki   =    3.28 uM (micromolar)  [Temperature = 298.15 K]
DOCKED: USER    
DOCKED: USER    (1) Final Intermolecular Energy     =   -9.27 kcal/mol
DOCKED: USER        vdW + Hbond + desolv Energy     =   -3.56 kcal/mol
DOCKED: USER        Electrostatic Energy            =   -5.71 kcal/mol
DOCKED: USER    (2) Final Total Internal Energy     =   +1.91 kcal/mol
DOCKED: USER    (3) Torsional Free Energy           =   +1.79 kcal/mol
DOCKED: USER    (4) Unbound System's Energy  [=(2)] =   +1.91 kcal/mol
DOCKED: USER    
DOCKED: USER    
DOCKED: USER    NEWDPF move 2_3_BPG_opt.pdbqt
DOCKED: USER    NEWDPF about 0.015000 0.083000 0.031000
DOCKED: USER    NEWDPF tran0 45.506273 24.939961 18.972300
DOCKED: USER    NEWDPF quaternion0 0.120876 -0.449362 0.164590 0.869697
DOCKED: USER    NEWDPF axisangle0 0.244893 -0.910403 0.333457 59.153141
DOCKED: USER    NEWDPF quat0 0.244893 -0.910403 0.333457 59.153141
DOCKED: USER    NEWDPF dihe0 -167.28 -43.15 -137.60 17.43 -39.13 -26.75 
DOCKED: USER  keepresnum = 1 
DOCKED: USER  
DOCKED: REMARK  6 active torsions:
DOCKED: REMARK  status: ('A' for Active; 'I' for Inactive)
DOCKED: REMARK    1  A    between atoms: P_1  and  O_3 
DOCKED: REMARK    2  A    between atoms: P_2  and  O_4 
DOCKED: REMARK    3  A    between atoms: O_3  and  C_13 
DOCKED: REMARK    4  A    between atoms: O_4  and  C_14 
DOCKED: REMARK    5  A    between atoms: C_13  and  C_14 
DOCKED: REMARK    6  A    between atoms: C_13  and  C_15 
DOCKED: USER                              x       y       z     vdW  Elec       q    Type
DOCKED: USER                           _______ _______ _______ _____ _____    ______ ____
DOCKED: ROOT
DOCKED: ATOM      1  C   UNL d   1      45.210  24.891  19.571 -0.10 +0.10    +0.193 C 
DOCKED: ENDROOT
DOCKED: BRANCH   1   2
DOCKED: ATOM      2  O   UNL d   1      44.254  25.997  19.700 -0.10 -0.21    -0.356 OA
DOCKED: BRANCH   2   3
DOCKED: ATOM      3  P   UNL d   1      44.413  27.203  20.807 -0.20 -0.02    -0.014 P 
DOCKED: ATOM      4  O   UNL d   1      44.176  28.493  20.005 -0.13 -0.50    -0.577 OA
DOCKED: ATOM      5  O   UNL d   1      45.838  27.133  21.351 -0.28 -1.03    -0.577 OA
DOCKED: ATOM      6  O   UNL d   1      43.343  27.005  21.876 -0.58 -1.26    -0.638 OA
DOCKED: ENDBRANCH   2   3
DOCKED: ENDBRANCH   1   2
DOCKED: BRANCH   1   7
DOCKED: ATOM      7  C   UNL d   1      45.697  24.816  18.078 -0.11 +0.09    +0.201 C 
DOCKED: BRANCH   7   8
DOCKED: ATOM      8  O   UNL d   1      47.124  24.694  17.886 -0.05 -0.21    -0.364 OA
DOCKED: BRANCH   8   9
DOCKED: ATOM      9  P   UNL d   1      47.719  23.771  16.649 -0.21 -0.02    -0.015 P 
DOCKED: ATOM     10  O   UNL d   1      46.865  24.139  15.429 -0.07 -0.50    -0.577 OA
DOCKED: ATOM     11  O   UNL d   1      47.533  22.309  17.055 -0.30 -0.81    -0.577 OA
DOCKED: ATOM     12  O   UNL d   1      49.185  24.158  16.461 -0.44 -0.90    -0.638 OA
DOCKED: ENDBRANCH   8   9
DOCKED: ENDBRANCH   7   8
DOCKED: ENDBRANCH   1   7
DOCKED: BRANCH   1  13
DOCKED: ATOM     13  C   UNL d   1      44.512  23.530  19.943 -0.22 +0.03    +0.073 C 
DOCKED: ATOM     14  O   UNL d   1      44.905  22.908  20.992 -0.52 -0.28    -0.547 OA
DOCKED: ATOM     15  O   UNL d   1      43.537  23.152  19.198 -0.23 -0.20    -0.547 OA
DOCKED: ENDBRANCH   1  13
DOCKED: TORSDOF 6
DOCKED: TER
DOCKED: ENDMDL
________________________________________________________________________________


	BEGINNING GENETIC ALGORITHM DOCKING 85 of 100
Run: 85 Seed: 1984315560 2045322912 [ Run 85 of 100 GA/GALS ]
Beginning LAMARCKIAN GENETIC ALGORITHM (LGA), with a maximum of 25000000 energy evaluations.

Final-Value: -6.310


	FINAL GENETIC ALGORITHM DOCKED STATE
	_______________________________________________


Detailed state:  trans 45.193 23.778 19.002 quatxyzw -0.079933 -0.901978 0.335041 -0.260374 center 0.015 0.083 0.031 ntor 6 90.1800 -75.2096 -84.3102 11.3119 -32.7772 131.6998
State:	 45.193  23.778  19.002  -0.083 -0.934  0.347 -149.815     90.18  -75.21  -84.31   11.31  -32.78  131.70

DOCKED: MODEL       85
DOCKED: USER    Run = 85
DOCKED: USER    DPF = D:/Protein_go_brrr/autodock/final/6BB5/2_3_BPG/dock.dpf
DOCKED: USER  
DOCKED: USER    Estimated Free Energy of Binding    =   -6.80 kcal/mol  [=(1)+(2)+(3)-(4)]
DOCKED: USER    Estimated Inhibition Constant, Ki   =   10.32 uM (micromolar)  [Temperature = 298.15 K]
DOCKED: USER    
DOCKED: USER    (1) Final Intermolecular Energy     =   -8.59 kcal/mol
DOCKED: USER        vdW + Hbond + desolv Energy     =   -3.04 kcal/mol
DOCKED: USER        Electrostatic Energy            =   -5.56 kcal/mol
DOCKED: USER    (2) Final Total Internal Energy     =   +2.28 kcal/mol
DOCKED: USER    (3) Torsional Free Energy           =   +1.79 kcal/mol
DOCKED: USER    (4) Unbound System's Energy  [=(2)] =   +2.28 kcal/mol
DOCKED: USER    
DOCKED: USER    
DOCKED: USER    NEWDPF move 2_3_BPG_opt.pdbqt
DOCKED: USER    NEWDPF about 0.015000 0.083000 0.031000
DOCKED: USER    NEWDPF tran0 45.192744 23.778408 19.002458
DOCKED: USER    NEWDPF quaternion0 -0.079933 -0.901978 0.335041 -0.260374
DOCKED: USER    NEWDPF axisangle0 -0.082788 -0.934200 0.347010 -149.815455
DOCKED: USER    NEWDPF quat0 -0.082788 -0.934200 0.347010 -149.815455
DOCKED: USER    NEWDPF dihe0 90.18 -75.21 -84.31 11.31 -32.78 131.70 
DOCKED: USER  keepresnum = 1 
DOCKED: USER  
DOCKED: REMARK  6 active torsions:
DOCKED: REMARK  status: ('A' for Active; 'I' for Inactive)
DOCKED: REMARK    1  A    between atoms: P_1  and  O_3 
DOCKED: REMARK    2  A    between atoms: P_2  and  O_4 
DOCKED: REMARK    3  A    between atoms: O_3  and  C_13 
DOCKED: REMARK    4  A    between atoms: O_4  and  C_14 
DOCKED: REMARK    5  A    between atoms: C_13  and  C_14 
DOCKED: REMARK    6  A    between atoms: C_13  and  C_15 
DOCKED: USER                              x       y       z     vdW  Elec       q    Type
DOCKED: USER                           _______ _______ _______ _____ _____    ______ ____
DOCKED: ROOT
DOCKED: ATOM      1  C   UNL d   1      45.653  23.301  18.901 -0.11 +0.09    +0.193 C 
DOCKED: ENDROOT
DOCKED: BRANCH   1   2
DOCKED: ATOM      2  O   UNL d   1      46.859  23.937  18.360 -0.03 -0.21    -0.356 OA
DOCKED: BRANCH   2   3
DOCKED: ATOM      3  P   UNL d   1      47.515  23.538  16.905 -0.24 -0.02    -0.014 P 
DOCKED: ATOM      4  O   UNL d   1      47.041  24.648  15.954 -0.12 -0.43    -0.577 OA
DOCKED: ATOM      5  O   UNL d   1      46.945  22.178  16.510 -0.16 -0.73    -0.577 OA
DOCKED: ATOM      6  O   UNL d   1      49.033  23.541  17.057 -0.57 -1.00    -0.638 OA
DOCKED: ENDBRANCH   2   3
DOCKED: ENDBRANCH   1   2
DOCKED: BRANCH   1   7
DOCKED: ATOM      7  C   UNL d   1      44.678  24.424  19.415 -0.15 +0.09    +0.201 C 
DOCKED: BRANCH   7   8
DOCKED: ATOM      8  O   UNL d   1      45.115  25.150  20.585 -0.06 -0.25    -0.364 OA
DOCKED: BRANCH   8   9
DOCKED: ATOM      9  P   UNL d   1      44.653  26.723  20.805 -0.27 -0.02    -0.015 P 
DOCKED: ATOM     10  O   UNL d   1      43.453  26.658  21.758 -0.57 -0.97    -0.577 OA
DOCKED: ATOM     11  O   UNL d   1      44.263  27.270  19.432 -0.03 -0.37    -0.577 OA
DOCKED: ATOM     12  O   UNL d   1      45.840  27.459  21.427 -0.23 -1.29    -0.638 OA
DOCKED: ENDBRANCH   8   9
DOCKED: ENDBRANCH   7   8
DOCKED: ENDBRANCH   1   7
DOCKED: BRANCH   1  13
DOCKED: ATOM     13  C   UNL d   1      46.031  22.368  20.111 -0.12 +0.03    +0.073 C 
DOCKED: ATOM     14  O   UNL d   1      45.221  22.292  21.100 -0.36 -0.26    -0.547 OA
DOCKED: ATOM     15  O   UNL d   1      47.111  21.683  20.002 -0.01 -0.23    -0.547 OA
DOCKED: ENDBRANCH   1  13
DOCKED: TORSDOF 6
DOCKED: TER
DOCKED: ENDMDL
________________________________________________________________________________


	BEGINNING GENETIC ALGORITHM DOCKING 86 of 100
Run: 86 Seed: 384119547 1316176687 [ Run 86 of 100 GA/GALS ]
Beginning LAMARCKIAN GENETIC ALGORITHM (LGA), with a maximum of 25000000 energy evaluations.

Final-Value: -7.007


	FINAL GENETIC ALGORITHM DOCKED STATE
	_______________________________________________


Detailed state:  trans 2.781 43.047 -1.063 quatxyzw 0.573930 0.084436 -0.466257 0.667892 center 0.015 0.083 0.031 ntor 6 99.0457 16.9567 -38.9070 29.5749 24.8668 -26.0075
State:	  2.781  43.047  -1.063   0.771  0.113 -0.626 96.191     99.05   16.96  -38.91   29.57   24.87  -26.01

DOCKED: MODEL       86
DOCKED: USER    Run = 86
DOCKED: USER    DPF = D:/Protein_go_brrr/autodock/final/6BB5/2_3_BPG/dock.dpf
DOCKED: USER  
DOCKED: USER    Estimated Free Energy of Binding    =   -7.31 kcal/mol  [=(1)+(2)+(3)-(4)]
DOCKED: USER    Estimated Inhibition Constant, Ki   =    4.40 uM (micromolar)  [Temperature = 298.15 K]
DOCKED: USER    
DOCKED: USER    (1) Final Intermolecular Energy     =   -9.10 kcal/mol
DOCKED: USER        vdW + Hbond + desolv Energy     =   -3.36 kcal/mol
DOCKED: USER        Electrostatic Energy            =   -5.74 kcal/mol
DOCKED: USER    (2) Final Total Internal Energy     =   +2.09 kcal/mol
DOCKED: USER    (3) Torsional Free Energy           =   +1.79 kcal/mol
DOCKED: USER    (4) Unbound System's Energy  [=(2)] =   +2.09 kcal/mol
DOCKED: USER    
DOCKED: USER    
DOCKED: USER    NEWDPF move 2_3_BPG_opt.pdbqt
DOCKED: USER    NEWDPF about 0.015000 0.083000 0.031000
DOCKED: USER    NEWDPF tran0 2.781060 43.046693 -1.062814
DOCKED: USER    NEWDPF quaternion0 0.573930 0.084436 -0.466257 0.667892
DOCKED: USER    NEWDPF axisangle0 0.771144 0.113449 -0.626472 96.190791
DOCKED: USER    NEWDPF quat0 0.771144 0.113449 -0.626472 96.190791
DOCKED: USER    NEWDPF dihe0 99.05 16.96 -38.91 29.57 24.87 -26.01 
DOCKED: USER  keepresnum = 1 
DOCKED: USER  
DOCKED: REMARK  6 active torsions:
DOCKED: REMARK  status: ('A' for Active; 'I' for Inactive)
DOCKED: REMARK    1  A    between atoms: P_1  and  O_3 
DOCKED: REMARK    2  A    between atoms: P_2  and  O_4 
DOCKED: REMARK    3  A    between atoms: O_3  and  C_13 
DOCKED: REMARK    4  A    between atoms: O_4  and  C_14 
DOCKED: REMARK    5  A    between atoms: C_13  and  C_14 
DOCKED: REMARK    6  A    between atoms: C_13  and  C_15 
DOCKED: USER                              x       y       z     vdW  Elec       q    Type
DOCKED: USER                           _______ _______ _______ _____ _____    ______ ____
DOCKED: ROOT
DOCKED: ATOM      1  C   UNL d   1       2.562  42.718  -0.521 -0.22 +0.16    +0.193 C 
DOCKED: ENDROOT
DOCKED: BRANCH   1   2
DOCKED: ATOM      2  O   UNL d   1       1.981  41.445  -0.962 -0.06 -0.44    -0.356 OA
DOCKED: BRANCH   2   3
DOCKED: ATOM      3  P   UNL d   1       0.361  41.182  -1.071 +0.03 -0.02    -0.014 P 
DOCKED: ATOM      4  O   UNL d   1       0.230  39.661  -1.241 -0.10 -0.90    -0.577 OA
DOCKED: ATOM      5  O   UNL d   1      -0.137  41.930  -2.307 +0.02 -0.32    -0.577 OA
DOCKED: ATOM      6  O   UNL d   1      -0.282  41.658   0.227 -0.37 -1.04    -0.638 OA
DOCKED: ENDBRANCH   2   3
DOCKED: ENDBRANCH   1   2
DOCKED: BRANCH   1   7
DOCKED: ATOM      7  C   UNL d   1       3.336  43.365  -1.728 -0.21 +0.11    +0.201 C 
DOCKED: BRANCH   7   8
DOCKED: ATOM      8  O   UNL d   1       3.085  44.769  -1.958 -0.17 -0.27    -0.364 OA
DOCKED: BRANCH   8   9
DOCKED: ATOM      9  P   UNL d   1       3.232  45.400  -3.480 -0.33 -0.01    -0.015 P 
DOCKED: ATOM     10  O   UNL d   1       2.115  46.445  -3.588 +0.00 -0.73    -0.577 OA
DOCKED: ATOM     11  O   UNL d   1       3.031  44.246  -4.462 -0.02 -0.30    -0.577 OA
DOCKED: ATOM     12  O   UNL d   1       4.620  46.032  -3.575 -0.61 -0.98    -0.638 OA
DOCKED: ENDBRANCH   8   9
DOCKED: ENDBRANCH   7   8
DOCKED: ENDBRANCH   1   7
DOCKED: BRANCH   1  13
DOCKED: ATOM     13  C   UNL d   1       3.579  42.468   0.654 -0.53 +0.06    +0.073 C 
DOCKED: ATOM     14  O   UNL d   1       4.542  43.297   0.816 -0.19 -0.25    -0.547 OA
DOCKED: ATOM     15  O   UNL d   1       3.342  41.471   1.427 -0.61 -0.82    -0.547 OA
DOCKED: ENDBRANCH   1  13
DOCKED: TORSDOF 6
DOCKED: TER
DOCKED: ENDMDL
________________________________________________________________________________


	BEGINNING GENETIC ALGORITHM DOCKING 87 of 100
Run: 87 Seed: 1997805898 560973934 [ Run 87 of 100 GA/GALS ]
Beginning LAMARCKIAN GENETIC ALGORITHM (LGA), with a maximum of 25000000 energy evaluations.

Final-Value: -7.033


	FINAL GENETIC ALGORITHM DOCKED STATE
	_______________________________________________


Detailed state:  trans 3.111 43.037 -1.149 quatxyzw 0.231890 -0.346109 -0.224626 0.880897 center 0.015 0.083 0.031 ntor 6 -119.4120 -68.0662 179.9016 -17.7865 -2.7375 -74.5425
State:	  3.111  43.037  -1.149   0.490 -0.731 -0.475 56.499   -119.41  -68.07  179.90  -17.79   -2.74  -74.54

DOCKED: MODEL       87
DOCKED: USER    Run = 87
DOCKED: USER    DPF = D:/Protein_go_brrr/autodock/final/6BB5/2_3_BPG/dock.dpf
DOCKED: USER  
DOCKED: USER    Estimated Free Energy of Binding    =   -7.50 kcal/mol  [=(1)+(2)+(3)-(4)]
DOCKED: USER    Estimated Inhibition Constant, Ki   =    3.16 uM (micromolar)  [Temperature = 298.15 K]
DOCKED: USER    
DOCKED: USER    (1) Final Intermolecular Energy     =   -9.29 kcal/mol
DOCKED: USER        vdW + Hbond + desolv Energy     =   -3.40 kcal/mol
DOCKED: USER        Electrostatic Energy            =   -5.90 kcal/mol
DOCKED: USER    (2) Final Total Internal Energy     =   +2.26 kcal/mol
DOCKED: USER    (3) Torsional Free Energy           =   +1.79 kcal/mol
DOCKED: USER    (4) Unbound System's Energy  [=(2)] =   +2.26 kcal/mol
DOCKED: USER    
DOCKED: USER    
DOCKED: USER    NEWDPF move 2_3_BPG_opt.pdbqt
DOCKED: USER    NEWDPF about 0.015000 0.083000 0.031000
DOCKED: USER    NEWDPF tran0 3.110841 43.036545 -1.149284
DOCKED: USER    NEWDPF quaternion0 0.231890 -0.346109 -0.224626 0.880897
DOCKED: USER    NEWDPF axisangle0 0.489934 -0.731254 -0.474587 56.498560
DOCKED: USER    NEWDPF quat0 0.489934 -0.731254 -0.474587 56.498560
DOCKED: USER    NEWDPF dihe0 -119.41 -68.07 179.90 -17.79 -2.74 -74.54 
DOCKED: USER  keepresnum = 1 
DOCKED: USER  
DOCKED: REMARK  6 active torsions:
DOCKED: REMARK  status: ('A' for Active; 'I' for Inactive)
DOCKED: REMARK    1  A    between atoms: P_1  and  O_3 
DOCKED: REMARK    2  A    between atoms: P_2  and  O_4 
DOCKED: REMARK    3  A    between atoms: O_3  and  C_13 
DOCKED: REMARK    4  A    between atoms: O_4  and  C_14 
DOCKED: REMARK    5  A    between atoms: C_13  and  C_14 
DOCKED: REMARK    6  A    between atoms: C_13  and  C_15 
DOCKED: USER                              x       y       z     vdW  Elec       q    Type
DOCKED: USER                           _______ _______ _______ _____ _____    ______ ____
DOCKED: ROOT
DOCKED: ATOM      1  C   UNL d   1       2.945  42.704  -0.591 -0.25 +0.15    +0.193 C 
DOCKED: ENDROOT
DOCKED: BRANCH   1   2
DOCKED: ATOM      2  O   UNL d   1       1.483  42.726  -0.463 -0.06 -0.33    -0.356 OA
DOCKED: BRANCH   2   3
DOCKED: ATOM      3  P   UNL d   1       0.703  42.694   0.984 -0.06 -0.02    -0.014 P 
DOCKED: ATOM      4  O   UNL d   1       0.144  44.115   1.150 +0.02 -0.34    -0.577 OA
DOCKED: ATOM      5  O   UNL d   1       1.746  42.371   2.053 -0.13 -0.80    -0.577 OA
DOCKED: ATOM      6  O   UNL d   1      -0.414  41.660   0.894 -0.47 -1.17    -0.638 OA
DOCKED: ENDBRANCH   2   3
DOCKED: ENDBRANCH   1   2
DOCKED: BRANCH   1   7
DOCKED: ATOM      7  C   UNL d   1       3.334  43.217  -2.027 -0.18 +0.11    +0.201 C 
DOCKED: BRANCH   7   8
DOCKED: ATOM      8  O   UNL d   1       3.436  44.650  -2.177 -0.20 -0.27    -0.364 OA
DOCKED: BRANCH   8   9
DOCKED: ATOM      9  P   UNL d   1       3.832  45.304  -3.645 -0.41 -0.01    -0.015 P 
DOCKED: ATOM     10  O   UNL d   1       3.958  44.106  -4.594 -0.09 -0.30    -0.577 OA
DOCKED: ATOM     11  O   UNL d   1       5.163  46.033  -3.464 -0.57 -0.73    -0.577 OA
DOCKED: ATOM     12  O   UNL d   1       2.689  46.236  -4.046 -0.08 -0.84    -0.638 OA
DOCKED: ENDBRANCH   8   9
DOCKED: ENDBRANCH   7   8
DOCKED: ENDBRANCH   1   7
DOCKED: BRANCH   1  13
DOCKED: ATOM     13  C   UNL d   1       3.480  41.234  -0.419 -0.37 +0.08    +0.073 C 
DOCKED: ATOM     14  O   UNL d   1       3.344  40.663   0.720 -0.46 -1.08    -0.547 OA
DOCKED: ATOM     15  O   UNL d   1       3.968  40.666  -1.462 -0.09 -0.35    -0.547 OA
DOCKED: ENDBRANCH   1  13
DOCKED: TORSDOF 6
DOCKED: TER
DOCKED: ENDMDL
________________________________________________________________________________


	BEGINNING GENETIC ALGORITHM DOCKING 88 of 100
Run: 88 Seed: 320709342 363218365 [ Run 88 of 100 GA/GALS ]
Beginning LAMARCKIAN GENETIC ALGORITHM (LGA), with a maximum of 25000000 energy evaluations.

Final-Value: -7.366


	FINAL GENETIC ALGORITHM DOCKED STATE
	_______________________________________________


Detailed state:  trans 45.617 24.592 19.352 quatxyzw 0.206767 -0.417249 0.253912 0.847750 center 0.015 0.083 0.031 ntor 6 -5.8540 95.7413 -180.0000 0.1748 0.6707 -1.6143
State:	 45.617  24.592  19.352   0.390 -0.787  0.479 64.065     -5.85   95.74 -180.00    0.17    0.67   -1.61

DOCKED: MODEL       88
DOCKED: USER    Run = 88
DOCKED: USER    DPF = D:/Protein_go_brrr/autodock/final/6BB5/2_3_BPG/dock.dpf
DOCKED: USER  
DOCKED: USER    Estimated Free Energy of Binding    =   -7.52 kcal/mol  [=(1)+(2)+(3)-(4)]
DOCKED: USER    Estimated Inhibition Constant, Ki   =    3.07 uM (micromolar)  [Temperature = 298.15 K]
DOCKED: USER    
DOCKED: USER    (1) Final Intermolecular Energy     =   -9.31 kcal/mol
DOCKED: USER        vdW + Hbond + desolv Energy     =   -3.37 kcal/mol
DOCKED: USER        Electrostatic Energy            =   -5.94 kcal/mol
DOCKED: USER    (2) Final Total Internal Energy     =   +1.95 kcal/mol
DOCKED: USER    (3) Torsional Free Energy           =   +1.79 kcal/mol
DOCKED: USER    (4) Unbound System's Energy  [=(2)] =   +1.95 kcal/mol
DOCKED: USER    
DOCKED: USER    
DOCKED: USER    NEWDPF move 2_3_BPG_opt.pdbqt
DOCKED: USER    NEWDPF about 0.015000 0.083000 0.031000
DOCKED: USER    NEWDPF tran0 45.617293 24.592227 19.352257
DOCKED: USER    NEWDPF quaternion0 0.206767 -0.417249 0.253912 0.847750
DOCKED: USER    NEWDPF axisangle0 0.389835 -0.786674 0.478721 64.064527
DOCKED: USER    NEWDPF quat0 0.389835 -0.786674 0.478721 64.064527
DOCKED: USER    NEWDPF dihe0 -5.85 95.74 -180.00 0.17 0.67 -1.61 
DOCKED: USER  keepresnum = 1 
DOCKED: USER  
DOCKED: REMARK  6 active torsions:
DOCKED: REMARK  status: ('A' for Active; 'I' for Inactive)
DOCKED: REMARK    1  A    between atoms: P_1  and  O_3 
DOCKED: REMARK    2  A    between atoms: P_2  and  O_4 
DOCKED: REMARK    3  A    between atoms: O_3  and  C_13 
DOCKED: REMARK    4  A    between atoms: O_4  and  C_14 
DOCKED: REMARK    5  A    between atoms: C_13  and  C_14 
DOCKED: REMARK    6  A    between atoms: C_13  and  C_15 
DOCKED: USER                              x       y       z     vdW  Elec       q    Type
DOCKED: USER                           _______ _______ _______ _____ _____    ______ ____
DOCKED: ROOT
DOCKED: ATOM      1  C   UNL d   1      45.306  24.713  19.933 -0.10 +0.10    +0.193 C 
DOCKED: ENDROOT
DOCKED: BRANCH   1   2
DOCKED: ATOM      2  O   UNL d   1      44.440  25.884  19.753 -0.09 -0.22    -0.356 OA
DOCKED: BRANCH   2   3
DOCKED: ATOM      3  P   UNL d   1      44.401  27.148  20.804 -0.21 -0.02    -0.014 P 
DOCKED: ATOM      4  O   UNL d   1      43.346  26.747  21.847 -0.67 -1.01    -0.577 OA
DOCKED: ATOM      5  O   UNL d   1      43.968  28.381  20.013 -0.16 -0.49    -0.577 OA
DOCKED: ATOM      6  O   UNL d   1      45.785  27.283  21.431 -0.24 -1.26    -0.638 OA
DOCKED: ENDBRANCH   2   3
DOCKED: ENDBRANCH   1   2
DOCKED: BRANCH   1   7
DOCKED: ATOM      7  C   UNL d   1      45.815  24.240  18.522 -0.09 +0.10    +0.201 C 
DOCKED: BRANCH   7   8
DOCKED: ATOM      8  O   UNL d   1      47.027  23.452  18.521 -0.03 -0.22    -0.364 OA
DOCKED: BRANCH   8   9
DOCKED: ATOM      9  P   UNL d   1      47.706  22.977  17.089 -0.08 -0.02    -0.015 P 
DOCKED: ATOM     10  O   UNL d   1      46.819  23.596  16.002 -0.15 -0.56    -0.577 OA
DOCKED: ATOM     11  O   UNL d   1      47.662  21.450  17.060 -0.13 -0.86    -0.577 OA
DOCKED: ATOM     12  O   UNL d   1      49.127  23.536  17.057 -0.56 -1.00    -0.638 OA
DOCKED: ENDBRANCH   8   9
DOCKED: ENDBRANCH   7   8
DOCKED: ENDBRANCH   1   7
DOCKED: BRANCH   1  13
DOCKED: ATOM     13  C   UNL d   1      44.494  23.539  20.597 -0.22 +0.04    +0.073 C 
DOCKED: ATOM     14  O   UNL d   1      43.345  23.242  20.115 -0.32 -0.24    -0.547 OA
DOCKED: ATOM     15  O   UNL d   1      45.067  22.901  21.552 -0.36 -0.26    -0.547 OA
DOCKED: ENDBRANCH   1  13
DOCKED: TORSDOF 6
DOCKED: TER
DOCKED: ENDMDL
________________________________________________________________________________


	BEGINNING GENETIC ALGORITHM DOCKING 89 of 100
Run: 89 Seed: 733856939 1125460771 [ Run 89 of 100 GA/GALS ]
Beginning LAMARCKIAN GENETIC ALGORITHM (LGA), with a maximum of 25000000 energy evaluations.

Final-Value: -6.885


	FINAL GENETIC ALGORITHM DOCKED STATE
	_______________________________________________


Detailed state:  trans 45.826 24.907 18.940 quatxyzw 0.557705 0.761336 -0.051502 0.326620 center 0.015 0.083 0.031 ntor 6 174.8331 -160.2429 84.8848 40.7349 -38.2239 -4.2504
State:	 45.826  24.907  18.940   0.590  0.806 -0.054 141.872    174.83 -160.24   84.88   40.73  -38.22   -4.25

DOCKED: MODEL       89
DOCKED: USER    Run = 89
DOCKED: USER    DPF = D:/Protein_go_brrr/autodock/final/6BB5/2_3_BPG/dock.dpf
DOCKED: USER  
DOCKED: USER    Estimated Free Energy of Binding    =   -7.02 kcal/mol  [=(1)+(2)+(3)-(4)]
DOCKED: USER    Estimated Inhibition Constant, Ki   =    7.10 uM (micromolar)  [Temperature = 298.15 K]
DOCKED: USER    
DOCKED: USER    (1) Final Intermolecular Energy     =   -8.81 kcal/mol
DOCKED: USER        vdW + Hbond + desolv Energy     =   -3.22 kcal/mol
DOCKED: USER        Electrostatic Energy            =   -5.59 kcal/mol
DOCKED: USER    (2) Final Total Internal Energy     =   +1.93 kcal/mol
DOCKED: USER    (3) Torsional Free Energy           =   +1.79 kcal/mol
DOCKED: USER    (4) Unbound System's Energy  [=(2)] =   +1.93 kcal/mol
DOCKED: USER    
DOCKED: USER    
DOCKED: USER    NEWDPF move 2_3_BPG_opt.pdbqt
DOCKED: USER    NEWDPF about 0.015000 0.083000 0.031000
DOCKED: USER    NEWDPF tran0 45.826218 24.907463 18.939710
DOCKED: USER    NEWDPF quaternion0 0.557705 0.761336 -0.051502 0.326620
DOCKED: USER    NEWDPF axisangle0 0.590066 0.805514 -0.054490 141.872500
DOCKED: USER    NEWDPF quat0 0.590066 0.805514 -0.054490 141.872500
DOCKED: USER    NEWDPF dihe0 174.83 -160.24 84.88 40.73 -38.22 -4.25 
DOCKED: USER  keepresnum = 1 
DOCKED: USER  
DOCKED: REMARK  6 active torsions:
DOCKED: REMARK  status: ('A' for Active; 'I' for Inactive)
DOCKED: REMARK    1  A    between atoms: P_1  and  O_3 
DOCKED: REMARK    2  A    between atoms: P_2  and  O_4 
DOCKED: REMARK    3  A    between atoms: O_3  and  C_13 
DOCKED: REMARK    4  A    between atoms: O_4  and  C_14 
DOCKED: REMARK    5  A    between atoms: C_13  and  C_14 
DOCKED: REMARK    6  A    between atoms: C_13  and  C_15 
DOCKED: USER                              x       y       z     vdW  Elec       q    Type
DOCKED: USER                           _______ _______ _______ _____ _____    ______ ____
DOCKED: ROOT
DOCKED: ATOM      1  C   UNL d   1      45.617  24.300  18.747 -0.09 +0.09    +0.193 C 
DOCKED: ENDROOT
DOCKED: BRANCH   1   2
DOCKED: ATOM      2  O   UNL d   1      46.797  23.487  18.435 -0.03 -0.21    -0.356 OA
DOCKED: BRANCH   2   3
DOCKED: ATOM      3  P   UNL d   1      47.451  23.387  16.929 -0.19 -0.02    -0.014 P 
DOCKED: ATOM      4  O   UNL d   1      46.837  24.570  16.165 -0.11 -0.41    -0.577 OA
DOCKED: ATOM      5  O   UNL d   1      47.016  22.049  16.335 -0.16 -0.80    -0.577 OA
DOCKED: ATOM      6  O   UNL d   1      48.964  23.530  17.062 -0.59 -1.00    -0.638 OA
DOCKED: ENDBRANCH   2   3
DOCKED: ENDBRANCH   1   2
DOCKED: BRANCH   1   7
DOCKED: ATOM      7  C   UNL d   1      46.087  25.615  19.472 -0.06 +0.11    +0.201 C 
DOCKED: BRANCH   7   8
DOCKED: ATOM      8  O   UNL d   1      45.198  26.748  19.362 -0.06 -0.22    -0.364 OA
DOCKED: BRANCH   8   9
DOCKED: ATOM      9  P   UNL d   1      45.036  27.802  20.627 -0.04 -0.02    -0.015 P 
DOCKED: ATOM     10  O   UNL d   1      43.839  27.279  21.430 -0.47 -1.07    -0.577 OA
DOCKED: ATOM     11  O   UNL d   1      44.762  29.181  20.026 -0.05 -0.47    -0.577 OA
DOCKED: ATOM     12  O   UNL d   1      46.335  27.747  21.429 -0.47 -1.13    -0.638 OA
DOCKED: ENDBRANCH   8   9
DOCKED: ENDBRANCH   7   8
DOCKED: ENDBRANCH   1   7
DOCKED: BRANCH   1  13
DOCKED: ATOM     13  C   UNL d   1      44.656  23.509  19.712 -0.21 +0.03    +0.073 C 
DOCKED: ATOM     14  O   UNL d   1      43.410  23.453  19.422 -0.23 -0.20    -0.547 OA
DOCKED: ATOM     15  O   UNL d   1      45.198  22.908  20.709 -0.48 -0.26    -0.547 OA
DOCKED: ENDBRANCH   1  13
DOCKED: TORSDOF 6
DOCKED: TER
DOCKED: ENDMDL
________________________________________________________________________________


	BEGINNING GENETIC ALGORITHM DOCKING 90 of 100
Run: 90 Seed: 635533202 218261569 [ Run 90 of 100 GA/GALS ]
Beginning LAMARCKIAN GENETIC ALGORITHM (LGA), with a maximum of 25000000 energy evaluations.

Final-Value: -7.411


	FINAL GENETIC ALGORITHM DOCKED STATE
	_______________________________________________


Detailed state:  trans 45.579 24.910 19.213 quatxyzw -0.123344 0.397712 -0.215036 -0.883386 center 0.015 0.083 0.031 ntor 6 178.6942 88.0581 -65.9924 15.0709 -31.5996 -14.6076
State:	 45.579  24.910  19.213  -0.263  0.849 -0.459 -55.893    178.69   88.06  -65.99   15.07  -31.60  -14.61

DOCKED: MODEL       90
DOCKED: USER    Run = 90
DOCKED: USER    DPF = D:/Protein_go_brrr/autodock/final/6BB5/2_3_BPG/dock.dpf
DOCKED: USER  
DOCKED: USER    Estimated Free Energy of Binding    =   -7.54 kcal/mol  [=(1)+(2)+(3)-(4)]
DOCKED: USER    Estimated Inhibition Constant, Ki   =    2.96 uM (micromolar)  [Temperature = 298.15 K]
DOCKED: USER    
DOCKED: USER    (1) Final Intermolecular Energy     =   -9.33 kcal/mol
DOCKED: USER        vdW + Hbond + desolv Energy     =   -3.48 kcal/mol
DOCKED: USER        Electrostatic Energy            =   -5.85 kcal/mol
DOCKED: USER    (2) Final Total Internal Energy     =   +1.92 kcal/mol
DOCKED: USER    (3) Torsional Free Energy           =   +1.79 kcal/mol
DOCKED: USER    (4) Unbound System's Energy  [=(2)] =   +1.92 kcal/mol
DOCKED: USER    
DOCKED: USER    
DOCKED: USER    NEWDPF move 2_3_BPG_opt.pdbqt
DOCKED: USER    NEWDPF about 0.015000 0.083000 0.031000
DOCKED: USER    NEWDPF tran0 45.578627 24.910186 19.213121
DOCKED: USER    NEWDPF quaternion0 -0.123344 0.397712 -0.215036 -0.883386
DOCKED: USER    NEWDPF axisangle0 -0.263192 0.848641 -0.458844 -55.892903
DOCKED: USER    NEWDPF quat0 -0.263192 0.848641 -0.458844 -55.892903
DOCKED: USER    NEWDPF dihe0 178.69 88.06 -65.99 15.07 -31.60 -14.61 
DOCKED: USER  keepresnum = 1 
DOCKED: USER  
DOCKED: REMARK  6 active torsions:
DOCKED: REMARK  status: ('A' for Active; 'I' for Inactive)
DOCKED: REMARK    1  A    between atoms: P_1  and  O_3 
DOCKED: REMARK    2  A    between atoms: P_2  and  O_4 
DOCKED: REMARK    3  A    between atoms: O_3  and  C_13 
DOCKED: REMARK    4  A    between atoms: O_4  and  C_14 
DOCKED: REMARK    5  A    between atoms: C_13  and  C_14 
DOCKED: REMARK    6  A    between atoms: C_13  and  C_15 
DOCKED: USER                              x       y       z     vdW  Elec       q    Type
DOCKED: USER                           _______ _______ _______ _____ _____    ______ ____
DOCKED: ROOT
DOCKED: ATOM      1  C   UNL d   1      45.215  24.921  19.776 -0.10 +0.10    +0.193 C 
DOCKED: ENDROOT
DOCKED: BRANCH   1   2
DOCKED: ATOM      2  O   UNL d   1      44.333  26.093  19.728 -0.10 -0.22    -0.356 OA
DOCKED: BRANCH   2   3
DOCKED: ATOM      3  P   UNL d   1      44.417  27.331  20.806 -0.16 -0.02    -0.014 P 
DOCKED: ATOM      4  O   UNL d   1      43.348  26.996  21.858 -0.61 -1.13    -0.577 OA
DOCKED: ATOM      5  O   UNL d   1      44.078  28.614  20.050 -0.14 -0.50    -0.577 OA
DOCKED: ATOM      6  O   UNL d   1      45.817  27.334  21.412 -0.25 -1.25    -0.638 OA
DOCKED: ENDBRANCH   2   3
DOCKED: ENDBRANCH   1   2
DOCKED: BRANCH   1   7
DOCKED: ATOM      7  C   UNL d   1      45.858  24.715  18.355 -0.09 +0.10    +0.201 C 
DOCKED: BRANCH   7   8
DOCKED: ATOM      8  O   UNL d   1      47.216  24.222  18.344 -0.03 -0.22    -0.364 OA
DOCKED: BRANCH   8   9
DOCKED: ATOM      9  P   UNL d   1      47.762  23.321  17.069 -0.13 -0.02    -0.015 P 
DOCKED: ATOM     10  O   UNL d   1      48.876  24.162  16.434 -0.50 -0.80    -0.577 OA
DOCKED: ATOM     11  O   UNL d   1      46.579  23.131  16.119 -0.10 -0.55    -0.577 OA
DOCKED: ATOM     12  O   UNL d   1      48.289  22.005  17.638 -0.28 -0.90    -0.638 OA
DOCKED: ENDBRANCH   8   9
DOCKED: ENDBRANCH   7   8
DOCKED: ENDBRANCH   1   7
DOCKED: BRANCH   1  13
DOCKED: ATOM     13  C   UNL d   1      44.384  23.635  20.145 -0.23 +0.03    +0.073 C 
DOCKED: ATOM     14  O   UNL d   1      44.785  22.907  21.119 -0.54 -0.28    -0.547 OA
DOCKED: ATOM     15  O   UNL d   1      43.306  23.427  19.479 -0.24 -0.20    -0.547 OA
DOCKED: ENDBRANCH   1  13
DOCKED: TORSDOF 6
DOCKED: TER
DOCKED: ENDMDL
________________________________________________________________________________


	BEGINNING GENETIC ALGORITHM DOCKING 91 of 100
Run: 91 Seed: 1308445073 442622184 [ Run 91 of 100 GA/GALS ]
Beginning LAMARCKIAN GENETIC ALGORITHM (LGA), with a maximum of 25000000 energy evaluations.

Final-Value: -7.070


	FINAL GENETIC ALGORITHM DOCKED STATE
	_______________________________________________


Detailed state:  trans 45.462 25.124 19.211 quatxyzw 0.041581 0.287042 -0.233453 -0.928104 center 0.015 0.083 0.031 ntor 6 -180.0000 -25.1159 -42.6506 32.2882 -5.1981 25.9614
State:	 45.462  25.124  19.211   0.112  0.771 -0.627 -43.718   -180.00  -25.12  -42.65   32.29   -5.20   25.96

DOCKED: MODEL       91
DOCKED: USER    Run = 91
DOCKED: USER    DPF = D:/Protein_go_brrr/autodock/final/6BB5/2_3_BPG/dock.dpf
DOCKED: USER  
DOCKED: USER    Estimated Free Energy of Binding    =   -7.20 kcal/mol  [=(1)+(2)+(3)-(4)]
DOCKED: USER    Estimated Inhibition Constant, Ki   =    5.29 uM (micromolar)  [Temperature = 298.15 K]
DOCKED: USER    
DOCKED: USER    (1) Final Intermolecular Energy     =   -8.99 kcal/mol
DOCKED: USER        vdW + Hbond + desolv Energy     =   -3.17 kcal/mol
DOCKED: USER        Electrostatic Energy            =   -5.81 kcal/mol
DOCKED: USER    (2) Final Total Internal Energy     =   +1.92 kcal/mol
DOCKED: USER    (3) Torsional Free Energy           =   +1.79 kcal/mol
DOCKED: USER    (4) Unbound System's Energy  [=(2)] =   +1.92 kcal/mol
DOCKED: USER    
DOCKED: USER    
DOCKED: USER    NEWDPF move 2_3_BPG_opt.pdbqt
DOCKED: USER    NEWDPF about 0.015000 0.083000 0.031000
DOCKED: USER    NEWDPF tran0 45.462107 25.123988 19.211100
DOCKED: USER    NEWDPF quaternion0 0.041581 0.287042 -0.233453 -0.928104
DOCKED: USER    NEWDPF axisangle0 0.111681 0.770954 -0.627022 -43.717550
DOCKED: USER    NEWDPF quat0 0.111681 0.770954 -0.627022 -43.717550
DOCKED: USER    NEWDPF dihe0 -180.00 -25.12 -42.65 32.29 -5.20 25.96 
DOCKED: USER  keepresnum = 1 
DOCKED: USER  
DOCKED: REMARK  6 active torsions:
DOCKED: REMARK  status: ('A' for Active; 'I' for Inactive)
DOCKED: REMARK    1  A    between atoms: P_1  and  O_3 
DOCKED: REMARK    2  A    between atoms: P_2  and  O_4 
DOCKED: REMARK    3  A    between atoms: O_3  and  C_13 
DOCKED: REMARK    4  A    between atoms: O_4  and  C_14 
DOCKED: REMARK    5  A    between atoms: C_13  and  C_14 
DOCKED: REMARK    6  A    between atoms: C_13  and  C_15 
DOCKED: USER                              x       y       z     vdW  Elec       q    Type
DOCKED: USER                           _______ _______ _______ _____ _____    ______ ____
DOCKED: ROOT
DOCKED: ATOM      1  C   UNL d   1      44.942  25.067  19.630 -0.12 +0.10    +0.193 C 
DOCKED: ENDROOT
DOCKED: BRANCH   1   2
DOCKED: ATOM      2  O   UNL d   1      44.214  26.341  19.629 -0.11 -0.22    -0.356 OA
DOCKED: BRANCH   2   3
DOCKED: ATOM      3  P   UNL d   1      44.381  27.477  20.807 -0.09 -0.02    -0.014 P 
DOCKED: ATOM      4  O   UNL d   1      44.102  28.810  20.096 -0.12 -0.50    -0.577 OA
DOCKED: ATOM      5  O   UNL d   1      45.822  27.399  21.309 -0.27 -1.08    -0.577 OA
DOCKED: ATOM      6  O   UNL d   1      43.344  27.191  21.888 -0.53 -1.36    -0.638 OA
DOCKED: ENDBRANCH   2   3
DOCKED: ENDBRANCH   1   2
DOCKED: BRANCH   1   7
DOCKED: ATOM      7  C   UNL d   1      45.981  25.079  18.449 -0.08 +0.10    +0.201 C 
DOCKED: BRANCH   7   8
DOCKED: ATOM      8  O   UNL d   1      46.701  23.846  18.230 -0.03 -0.21    -0.364 OA
DOCKED: BRANCH   8   9
DOCKED: ATOM      9  P   UNL d   1      47.781  23.726  16.983 -0.21 -0.02    -0.015 P 
DOCKED: ATOM     10  O   UNL d   1      48.966  22.940  17.556 -0.49 -0.88    -0.577 OA
DOCKED: ATOM     11  O   UNL d   1      48.174  25.151  16.595 -0.09 -0.43    -0.577 OA
DOCKED: ATOM     12  O   UNL d   1      47.083  22.969  15.853 -0.22 -0.87    -0.638 OA
DOCKED: ENDBRANCH   8   9
DOCKED: ENDBRANCH   7   8
DOCKED: ENDBRANCH   1   7
DOCKED: BRANCH   1  13
DOCKED: ATOM     13  C   UNL d   1      43.940  23.874  19.408 -0.28 +0.03    +0.073 C 
DOCKED: ATOM     14  O   UNL d   1      43.939  22.911  20.253 -0.47 -0.30    -0.547 OA
DOCKED: ATOM     15  O   UNL d   1      43.131  23.969  18.415 -0.07 -0.16    -0.547 OA
DOCKED: ENDBRANCH   1  13
DOCKED: TORSDOF 6
DOCKED: TER
DOCKED: ENDMDL
________________________________________________________________________________


	BEGINNING GENETIC ALGORITHM DOCKING 92 of 100
Run: 92 Seed: 1345907305 1649706878 [ Run 92 of 100 GA/GALS ]
Beginning LAMARCKIAN GENETIC ALGORITHM (LGA), with a maximum of 25000000 energy evaluations.

Final-Value: -6.560


	FINAL GENETIC ALGORITHM DOCKED STATE
	_______________________________________________


Detailed state:  trans 3.111 42.321 -1.569 quatxyzw 0.378096 0.806432 0.073594 -0.448659 center 0.015 0.083 0.031 ntor 6 91.7666 -21.5599 -130.6084 -175.4373 -41.9568 -66.9580
State:	  3.111  42.321  -1.569   0.423  0.902  0.082 -126.685     91.77  -21.56 -130.61 -175.44  -41.96  -66.96

DOCKED: MODEL       92
DOCKED: USER    Run = 92
DOCKED: USER    DPF = D:/Protein_go_brrr/autodock/final/6BB5/2_3_BPG/dock.dpf
DOCKED: USER  
DOCKED: USER    Estimated Free Energy of Binding    =   -7.04 kcal/mol  [=(1)+(2)+(3)-(4)]
DOCKED: USER    Estimated Inhibition Constant, Ki   =    6.95 uM (micromolar)  [Temperature = 298.15 K]
DOCKED: USER    
DOCKED: USER    (1) Final Intermolecular Energy     =   -8.83 kcal/mol
DOCKED: USER        vdW + Hbond + desolv Energy     =   -3.24 kcal/mol
DOCKED: USER        Electrostatic Energy            =   -5.58 kcal/mol
DOCKED: USER    (2) Final Total Internal Energy     =   +2.27 kcal/mol
DOCKED: USER    (3) Torsional Free Energy           =   +1.79 kcal/mol
DOCKED: USER    (4) Unbound System's Energy  [=(2)] =   +2.27 kcal/mol
DOCKED: USER    
DOCKED: USER    
DOCKED: USER    NEWDPF move 2_3_BPG_opt.pdbqt
DOCKED: USER    NEWDPF about 0.015000 0.083000 0.031000
DOCKED: USER    NEWDPF tran0 3.111318 42.321188 -1.568881
DOCKED: USER    NEWDPF quaternion0 0.378096 0.806432 0.073594 -0.448659
DOCKED: USER    NEWDPF axisangle0 0.423066 0.902349 0.082347 -126.684655
DOCKED: USER    NEWDPF quat0 0.423066 0.902349 0.082347 -126.684655
DOCKED: USER    NEWDPF dihe0 91.77 -21.56 -130.61 -175.44 -41.96 -66.96 
DOCKED: USER  keepresnum = 1 
DOCKED: USER  
DOCKED: REMARK  6 active torsions:
DOCKED: REMARK  status: ('A' for Active; 'I' for Inactive)
DOCKED: REMARK    1  A    between atoms: P_1  and  O_3 
DOCKED: REMARK    2  A    between atoms: P_2  and  O_4 
DOCKED: REMARK    3  A    between atoms: O_3  and  C_13 
DOCKED: REMARK    4  A    between atoms: O_4  and  C_14 
DOCKED: REMARK    5  A    between atoms: C_13  and  C_14 
DOCKED: REMARK    6  A    between atoms: C_13  and  C_15 
DOCKED: USER                              x       y       z     vdW  Elec       q    Type
DOCKED: USER                           _______ _______ _______ _____ _____    ______ ____
DOCKED: ROOT
DOCKED: ATOM      1  C   UNL d   1       3.197  41.685  -1.375 -0.20 +0.14    +0.193 C 
DOCKED: ENDROOT
DOCKED: BRANCH   1   2
DOCKED: ATOM      2  O   UNL d   1       3.457  41.679   0.069 -0.29 -0.37    -0.356 OA
DOCKED: BRANCH   2   3
DOCKED: ATOM      3  P   UNL d   1       2.487  42.430   1.164 -0.45 -0.02    -0.014 P 
DOCKED: ATOM      4  O   UNL d   1       2.717  41.657   2.473 -0.23 -0.87    -0.577 OA
DOCKED: ATOM      5  O   UNL d   1       1.049  42.283   0.671 -0.12 -0.87    -0.577 OA
DOCKED: ATOM      6  O   UNL d   1       2.944  43.880   1.282 -0.08 -0.40    -0.638 OA
DOCKED: ENDBRANCH   2   3
DOCKED: ENDBRANCH   1   2
DOCKED: BRANCH   1   7
DOCKED: ATOM      7  C   UNL d   1       2.709  43.121  -1.794 -0.15 +0.12    +0.201 C 
DOCKED: BRANCH   7   8
DOCKED: ATOM      8  O   UNL d   1       3.739  44.033  -2.236 -0.17 -0.21    -0.364 OA
DOCKED: BRANCH   8   9
DOCKED: ATOM      9  P   UNL d   1       3.451  45.061  -3.499 -0.37 -0.01    -0.015 P 
DOCKED: ATOM     10  O   UNL d   1       2.139  45.771  -3.144 -0.03 -0.55    -0.577 OA
DOCKED: ATOM     11  O   UNL d   1       3.312  44.198  -4.753 -0.03 -0.29    -0.577 OA
DOCKED: ATOM     12  O   UNL d   1       4.629  46.032  -3.568 -0.61 -0.98    -0.638 OA
DOCKED: ENDBRANCH   8   9
DOCKED: ENDBRANCH   7   8
DOCKED: ENDBRANCH   1   7
DOCKED: BRANCH   1  13
DOCKED: ATOM     13  C   UNL d   1       2.066  40.647  -1.724 -0.15 +0.07    +0.073 C 
DOCKED: ATOM     14  O   UNL d   1       1.254  40.925  -2.675 +0.01 -0.34    -0.547 OA
DOCKED: ATOM     15  O   UNL d   1       2.066  39.543  -1.069 -0.37 -1.00    -0.547 OA
DOCKED: ENDBRANCH   1  13
DOCKED: TORSDOF 6
DOCKED: TER
DOCKED: ENDMDL
________________________________________________________________________________


	BEGINNING GENETIC ALGORITHM DOCKING 93 of 100
Run: 93 Seed: 2061613574 1488419314 [ Run 93 of 100 GA/GALS ]
Beginning LAMARCKIAN GENETIC ALGORITHM (LGA), with a maximum of 25000000 energy evaluations.

Final-Value: -7.107


	FINAL GENETIC ALGORITHM DOCKED STATE
	_______________________________________________


Detailed state:  trans 45.941 24.577 19.637 quatxyzw -0.384727 0.458061 -0.188340 -0.778905 center 0.015 0.083 0.031 ntor 6 -165.9520 70.4854 -124.1071 2.0025 -1.5613 -43.9037
State:	 45.941  24.577  19.637  -0.613  0.730 -0.300 -77.679   -165.95   70.49 -124.11    2.00   -1.56  -43.90

DOCKED: MODEL       93
DOCKED: USER    Run = 93
DOCKED: USER    DPF = D:/Protein_go_brrr/autodock/final/6BB5/2_3_BPG/dock.dpf
DOCKED: USER  
DOCKED: USER    Estimated Free Energy of Binding    =   -7.26 kcal/mol  [=(1)+(2)+(3)-(4)]
DOCKED: USER    Estimated Inhibition Constant, Ki   =    4.74 uM (micromolar)  [Temperature = 298.15 K]
DOCKED: USER    
DOCKED: USER    (1) Final Intermolecular Energy     =   -9.05 kcal/mol
DOCKED: USER        vdW + Hbond + desolv Energy     =   -3.18 kcal/mol
DOCKED: USER        Electrostatic Energy            =   -5.88 kcal/mol
DOCKED: USER    (2) Final Total Internal Energy     =   +1.95 kcal/mol
DOCKED: USER    (3) Torsional Free Energy           =   +1.79 kcal/mol
DOCKED: USER    (4) Unbound System's Energy  [=(2)] =   +1.95 kcal/mol
DOCKED: USER    
DOCKED: USER    
DOCKED: USER    NEWDPF move 2_3_BPG_opt.pdbqt
DOCKED: USER    NEWDPF about 0.015000 0.083000 0.031000
DOCKED: USER    NEWDPF tran0 45.940874 24.576709 19.636924
DOCKED: USER    NEWDPF quaternion0 -0.384727 0.458061 -0.188340 -0.778905
DOCKED: USER    NEWDPF axisangle0 -0.613461 0.730395 -0.300314 -77.679121
DOCKED: USER    NEWDPF quat0 -0.613461 0.730395 -0.300314 -77.679121
DOCKED: USER    NEWDPF dihe0 -165.95 70.49 -124.11 2.00 -1.56 -43.90 
DOCKED: USER  keepresnum = 1 
DOCKED: USER  
DOCKED: REMARK  6 active torsions:
DOCKED: REMARK  status: ('A' for Active; 'I' for Inactive)
DOCKED: REMARK    1  A    between atoms: P_1  and  O_3 
DOCKED: REMARK    2  A    between atoms: P_2  and  O_4 
DOCKED: REMARK    3  A    between atoms: O_3  and  C_13 
DOCKED: REMARK    4  A    between atoms: O_4  and  C_14 
DOCKED: REMARK    5  A    between atoms: C_13  and  C_14 
DOCKED: REMARK    6  A    between atoms: C_13  and  C_15 
DOCKED: USER                              x       y       z     vdW  Elec       q    Type
DOCKED: USER                           _______ _______ _______ _____ _____    ______ ____
DOCKED: ROOT
DOCKED: ATOM      1  C   UNL d   1      45.741  24.797  20.237 -0.08 +0.11    +0.193 C 
DOCKED: ENDROOT
DOCKED: BRANCH   1   2
DOCKED: ATOM      2  O   UNL d   1      44.607  25.706  20.036 -0.08 -0.23    -0.356 OA
DOCKED: BRANCH   2   3
DOCKED: ATOM      3  P   UNL d   1      44.516  27.202  20.714 -0.22 -0.02    -0.014 P 
DOCKED: ATOM      4  O   UNL d   1      43.346  27.103  21.705 -0.58 -1.09    -0.577 OA
DOCKED: ATOM      5  O   UNL d   1      44.219  28.191  19.590 -0.06 -0.40    -0.577 OA
DOCKED: ATOM      6  O   UNL d   1      45.835  27.474  21.431 -0.23 -1.30    -0.638 OA
DOCKED: ENDBRANCH   2   3
DOCKED: ENDBRANCH   1   2
DOCKED: BRANCH   1   7
DOCKED: ATOM      7  C   UNL d   1      46.035  24.049  18.885 -0.07 +0.10    +0.201 C 
DOCKED: BRANCH   7   8
DOCKED: ATOM      8  O   UNL d   1      47.316  24.327  18.277 -0.03 -0.22    -0.364 OA
DOCKED: BRANCH   8   9
DOCKED: ATOM      9  P   UNL d   1      47.718  23.626  16.834 -0.21 -0.02    -0.015 P 
DOCKED: ATOM     10  O   UNL d   1      46.621  24.064  15.857 -0.11 -0.46    -0.577 OA
DOCKED: ATOM     11  O   UNL d   1      47.713  22.114  17.056 -0.31 -0.89    -0.577 OA
DOCKED: ATOM     12  O   UNL d   1      49.091  24.168  16.436 -0.46 -0.90    -0.638 OA
DOCKED: ENDBRANCH   8   9
DOCKED: ENDBRANCH   7   8
DOCKED: ENDBRANCH   1   7
DOCKED: BRANCH   1  13
DOCKED: ATOM     13  C   UNL d   1      45.387  23.729  21.338 -0.17 +0.04    +0.073 C 
DOCKED: ATOM     14  O   UNL d   1      46.012  23.772  22.455 +0.00 -0.31    -0.547 OA
DOCKED: ATOM     15  O   UNL d   1      44.437  22.908  21.069 -0.57 -0.29    -0.547 OA
DOCKED: ENDBRANCH   1  13
DOCKED: TORSDOF 6
DOCKED: TER
DOCKED: ENDMDL
________________________________________________________________________________


	BEGINNING GENETIC ALGORITHM DOCKING 94 of 100
Run: 94 Seed: 881926265 2073274538 [ Run 94 of 100 GA/GALS ]
Beginning LAMARCKIAN GENETIC ALGORITHM (LGA), with a maximum of 25000000 energy evaluations.

Final-Value: -6.501


	FINAL GENETIC ALGORITHM DOCKED STATE
	_______________________________________________


Detailed state:  trans 2.798 43.045 -1.232 quatxyzw 0.105850 0.487181 0.284369 -0.818892 center 0.015 0.083 0.031 ntor 6 90.0485 -97.1365 -156.8180 20.5177 -12.4483 2.7632
State:	  2.798  43.045  -1.232   0.184  0.849  0.495 -70.052     90.05  -97.14 -156.82   20.52  -12.45    2.76

DOCKED: MODEL       94
DOCKED: USER    Run = 94
DOCKED: USER    DPF = D:/Protein_go_brrr/autodock/final/6BB5/2_3_BPG/dock.dpf
DOCKED: USER  
DOCKED: USER    Estimated Free Energy of Binding    =   -6.80 kcal/mol  [=(1)+(2)+(3)-(4)]
DOCKED: USER    Estimated Inhibition Constant, Ki   =   10.42 uM (micromolar)  [Temperature = 298.15 K]
DOCKED: USER    
DOCKED: USER    (1) Final Intermolecular Energy     =   -8.59 kcal/mol
DOCKED: USER        vdW + Hbond + desolv Energy     =   -3.03 kcal/mol
DOCKED: USER        Electrostatic Energy            =   -5.56 kcal/mol
DOCKED: USER    (2) Final Total Internal Energy     =   +2.09 kcal/mol
DOCKED: USER    (3) Torsional Free Energy           =   +1.79 kcal/mol
DOCKED: USER    (4) Unbound System's Energy  [=(2)] =   +2.09 kcal/mol
DOCKED: USER    
DOCKED: USER    
DOCKED: USER    NEWDPF move 2_3_BPG_opt.pdbqt
DOCKED: USER    NEWDPF about 0.015000 0.083000 0.031000
DOCKED: USER    NEWDPF tran0 2.798418 43.044729 -1.232230
DOCKED: USER    NEWDPF quaternion0 0.105850 0.487181 0.284369 -0.818892
DOCKED: USER    NEWDPF axisangle0 0.184425 0.848825 0.495463 -70.051856
DOCKED: USER    NEWDPF quat0 0.184425 0.848825 0.495463 -70.051856
DOCKED: USER    NEWDPF dihe0 90.05 -97.14 -156.82 20.52 -12.45 2.76 
DOCKED: USER  keepresnum = 1 
DOCKED: USER  
DOCKED: REMARK  6 active torsions:
DOCKED: REMARK  status: ('A' for Active; 'I' for Inactive)
DOCKED: REMARK    1  A    between atoms: P_1  and  O_3 
DOCKED: REMARK    2  A    between atoms: P_2  and  O_4 
DOCKED: REMARK    3  A    between atoms: O_3  and  C_13 
DOCKED: REMARK    4  A    between atoms: O_4  and  C_14 
DOCKED: REMARK    5  A    between atoms: C_13  and  C_14 
DOCKED: REMARK    6  A    between atoms: C_13  and  C_15 
DOCKED: USER                              x       y       z     vdW  Elec       q    Type
DOCKED: USER                           _______ _______ _______ _____ _____    ______ ____
DOCKED: ROOT
DOCKED: ATOM      1  C   UNL d   1       2.778  42.466  -0.894 -0.21 +0.15    +0.193 C 
DOCKED: ENDROOT
DOCKED: BRANCH   1   2
DOCKED: ATOM      2  O   UNL d   1       1.555  42.454  -0.083 -0.08 -0.41    -0.356 OA
DOCKED: BRANCH   2   3
DOCKED: ATOM      3  P   UNL d   1       1.561  42.526   1.560 -0.03 -0.02    -0.014 P 
DOCKED: ATOM      4  O   UNL d   1       1.792  44.012   1.877 +0.00 -0.38    -0.577 OA
DOCKED: ATOM      5  O   UNL d   1       2.720  41.660   2.047 -0.53 -0.97    -0.577 OA
DOCKED: ATOM      6  O   UNL d   1       0.198  42.053   2.057 -0.15 -1.05    -0.638 OA
DOCKED: ENDBRANCH   2   3
DOCKED: ENDBRANCH   1   2
DOCKED: BRANCH   1   7
DOCKED: ATOM      7  C   UNL d   1       2.701  43.668  -1.906 -0.16 +0.12    +0.201 C 
DOCKED: BRANCH   7   8
DOCKED: ATOM      8  O   UNL d   1       3.954  44.077  -2.497 -0.18 -0.21    -0.364 OA
DOCKED: BRANCH   8   9
DOCKED: ATOM      9  P   UNL d   1       3.968  45.167  -3.741 -0.42 -0.01    -0.015 P 
DOCKED: ATOM     10  O   UNL d   1       2.678  45.979  -3.575 -0.13 -0.71    -0.577 OA
DOCKED: ATOM     11  O   UNL d   1       3.971  44.361  -5.040 -0.09 -0.32    -0.577 OA
DOCKED: ATOM     12  O   UNL d   1       5.217  46.031  -3.571 -0.58 -0.78    -0.638 OA
DOCKED: ENDBRANCH   8   9
DOCKED: ENDBRANCH   7   8
DOCKED: ENDBRANCH   1   7
DOCKED: BRANCH   1  13
DOCKED: ATOM     13  C   UNL d   1       2.898  41.126  -1.711 -0.21 +0.06    +0.073 C 
DOCKED: ATOM     14  O   UNL d   1       3.388  41.173  -2.893 +0.01 -0.24    -0.547 OA
DOCKED: ATOM     15  O   UNL d   1       2.552  40.045  -1.111 -0.26 -0.78    -0.547 OA
DOCKED: ENDBRANCH   1  13
DOCKED: TORSDOF 6
DOCKED: TER
DOCKED: ENDMDL
________________________________________________________________________________


	BEGINNING GENETIC ALGORITHM DOCKING 95 of 100
Run: 95 Seed: 1014151195 1572518168 [ Run 95 of 100 GA/GALS ]
Beginning LAMARCKIAN GENETIC ALGORITHM (LGA), with a maximum of 25000000 energy evaluations.

Final-Value: -6.408


	FINAL GENETIC ALGORITHM DOCKED STATE
	_______________________________________________


Detailed state:  trans 45.156 24.366 18.876 quatxyzw -0.169193 -0.284199 0.542410 0.772267 center 0.015 0.083 0.031 ntor 6 -21.8209 175.2186 -100.3623 -20.0957 -0.9832 -69.0654
State:	 45.156  24.366  18.876  -0.266 -0.447  0.854 78.884    -21.82  175.22 -100.36  -20.10   -0.98  -69.07

DOCKED: MODEL       95
DOCKED: USER    Run = 95
DOCKED: USER    DPF = D:/Protein_go_brrr/autodock/final/6BB5/2_3_BPG/dock.dpf
DOCKED: USER  
DOCKED: USER    Estimated Free Energy of Binding    =   -6.67 kcal/mol  [=(1)+(2)+(3)-(4)]
DOCKED: USER    Estimated Inhibition Constant, Ki   =   12.93 uM (micromolar)  [Temperature = 298.15 K]
DOCKED: USER    
DOCKED: USER    (1) Final Intermolecular Energy     =   -8.46 kcal/mol
DOCKED: USER        vdW + Hbond + desolv Energy     =   -2.93 kcal/mol
DOCKED: USER        Electrostatic Energy            =   -5.53 kcal/mol
DOCKED: USER    (2) Final Total Internal Energy     =   +2.05 kcal/mol
DOCKED: USER    (3) Torsional Free Energy           =   +1.79 kcal/mol
DOCKED: USER    (4) Unbound System's Energy  [=(2)] =   +2.05 kcal/mol
DOCKED: USER    
DOCKED: USER    
DOCKED: USER    NEWDPF move 2_3_BPG_opt.pdbqt
DOCKED: USER    NEWDPF about 0.015000 0.083000 0.031000
DOCKED: USER    NEWDPF tran0 45.155946 24.365834 18.876321
DOCKED: USER    NEWDPF quaternion0 -0.169193 -0.284199 0.542410 0.772267
DOCKED: USER    NEWDPF axisangle0 -0.266320 -0.447348 0.853788 78.884222
DOCKED: USER    NEWDPF quat0 -0.266320 -0.447348 0.853788 78.884222
DOCKED: USER    NEWDPF dihe0 -21.82 175.22 -100.36 -20.10 -0.98 -69.07 
DOCKED: USER  keepresnum = 1 
DOCKED: USER  
DOCKED: REMARK  6 active torsions:
DOCKED: REMARK  status: ('A' for Active; 'I' for Inactive)
DOCKED: REMARK    1  A    between atoms: P_1  and  O_3 
DOCKED: REMARK    2  A    between atoms: P_2  and  O_4 
DOCKED: REMARK    3  A    between atoms: O_3  and  C_13 
DOCKED: REMARK    4  A    between atoms: O_4  and  C_14 
DOCKED: REMARK    5  A    between atoms: C_13  and  C_14 
DOCKED: REMARK    6  A    between atoms: C_13  and  C_15 
DOCKED: USER                              x       y       z     vdW  Elec       q    Type
DOCKED: USER                           _______ _______ _______ _____ _____    ______ ____
DOCKED: ROOT
DOCKED: ATOM      1  C   UNL d   1      44.742  24.637  19.328 -0.14 +0.09    +0.193 C 
DOCKED: ENDROOT
DOCKED: BRANCH   1   2
DOCKED: ATOM      2  O   UNL d   1      45.060  26.065  19.442 -0.05 -0.21    -0.356 OA
DOCKED: BRANCH   2   3
DOCKED: ATOM      3  P   UNL d   1      44.795  26.943  20.807 -0.22 -0.02    -0.014 P 
DOCKED: ATOM      4  O   UNL d   1      43.987  26.004  21.716 -0.23 -0.79    -0.577 OA
DOCKED: ATOM      5  O   UNL d   1      43.983  28.171  20.404 -0.22 -0.63    -0.577 OA
DOCKED: ATOM      6  O   UNL d   1      46.150  27.284  21.419 -0.39 -1.12    -0.638 OA
DOCKED: ENDBRANCH   2   3
DOCKED: ENDBRANCH   1   2
DOCKED: BRANCH   1   7
DOCKED: ATOM      7  C   UNL d   1      45.494  24.050  18.077 -0.12 +0.09    +0.201 C 
DOCKED: BRANCH   7   8
DOCKED: ATOM      8  O   UNL d   1      46.814  23.518  18.327 -0.03 -0.22    -0.364 OA
DOCKED: BRANCH   8   9
DOCKED: ATOM      9  P   UNL d   1      47.718  22.922  17.077 -0.06 -0.02    -0.015 P 
DOCKED: ATOM     10  O   UNL d   1      48.357  24.153  16.424 -0.46 -0.73    -0.577 OA
DOCKED: ATOM     11  O   UNL d   1      46.754  22.209  16.129 -0.11 -0.72    -0.577 OA
DOCKED: ATOM     12  O   UNL d   1      48.763  21.986  17.683 -0.28 -0.97    -0.638 OA
DOCKED: ENDBRANCH   8   9
DOCKED: ENDBRANCH   7   8
DOCKED: ENDBRANCH   1   7
DOCKED: BRANCH   1  13
DOCKED: ATOM     13  C   UNL d   1      43.193  24.444  19.122 -0.35 +0.03    +0.073 C 
DOCKED: ATOM     14  O   UNL d   1      42.544  25.347  18.486 -0.08 -0.15    -0.547 OA
DOCKED: ATOM     15  O   UNL d   1      42.679  23.350  19.554 -0.20 -0.17    -0.547 OA
DOCKED: ENDBRANCH   1  13
DOCKED: TORSDOF 6
DOCKED: TER
DOCKED: ENDMDL
________________________________________________________________________________


	BEGINNING GENETIC ALGORITHM DOCKING 96 of 100
Run: 96 Seed: 1720052087 326721266 [ Run 96 of 100 GA/GALS ]
Beginning LAMARCKIAN GENETIC ALGORITHM (LGA), with a maximum of 25000000 energy evaluations.

Final-Value: -7.115


	FINAL GENETIC ALGORITHM DOCKED STATE
	_______________________________________________


Detailed state:  trans 45.833 24.566 19.539 quatxyzw -0.333013 0.484703 -0.115629 -0.800497 center 0.015 0.083 0.031 ntor 6 166.0796 56.9290 -127.1091 19.9661 -16.7698 -31.6148
State:	 45.833  24.566  19.539  -0.556  0.809 -0.193 -73.645    166.08   56.93 -127.11   19.97  -16.77  -31.61

DOCKED: MODEL       96
DOCKED: USER    Run = 96
DOCKED: USER    DPF = D:/Protein_go_brrr/autodock/final/6BB5/2_3_BPG/dock.dpf
DOCKED: USER  
DOCKED: USER    Estimated Free Energy of Binding    =   -7.23 kcal/mol  [=(1)+(2)+(3)-(4)]
DOCKED: USER    Estimated Inhibition Constant, Ki   =    5.04 uM (micromolar)  [Temperature = 298.15 K]
DOCKED: USER    
DOCKED: USER    (1) Final Intermolecular Energy     =   -9.02 kcal/mol
DOCKED: USER        vdW + Hbond + desolv Energy     =   -3.18 kcal/mol
DOCKED: USER        Electrostatic Energy            =   -5.83 kcal/mol
DOCKED: USER    (2) Final Total Internal Energy     =   +1.90 kcal/mol
DOCKED: USER    (3) Torsional Free Energy           =   +1.79 kcal/mol
DOCKED: USER    (4) Unbound System's Energy  [=(2)] =   +1.90 kcal/mol
DOCKED: USER    
DOCKED: USER    
DOCKED: USER    NEWDPF move 2_3_BPG_opt.pdbqt
DOCKED: USER    NEWDPF about 0.015000 0.083000 0.031000
DOCKED: USER    NEWDPF tran0 45.832775 24.566152 19.538620
DOCKED: USER    NEWDPF quaternion0 -0.333013 0.484703 -0.115629 -0.800497
DOCKED: USER    NEWDPF axisangle0 -0.555636 0.808732 -0.192928 -73.644807
DOCKED: USER    NEWDPF quat0 -0.555636 0.808732 -0.192928 -73.644807
DOCKED: USER    NEWDPF dihe0 166.08 56.93 -127.11 19.97 -16.77 -31.61 
DOCKED: USER  keepresnum = 1 
DOCKED: USER  
DOCKED: REMARK  6 active torsions:
DOCKED: REMARK  status: ('A' for Active; 'I' for Inactive)
DOCKED: REMARK    1  A    between atoms: P_1  and  O_3 
DOCKED: REMARK    2  A    between atoms: P_2  and  O_4 
DOCKED: REMARK    3  A    between atoms: O_3  and  C_13 
DOCKED: REMARK    4  A    between atoms: O_4  and  C_14 
DOCKED: REMARK    5  A    between atoms: C_13  and  C_14 
DOCKED: REMARK    6  A    between atoms: C_13  and  C_15 
DOCKED: USER                              x       y       z     vdW  Elec       q    Type
DOCKED: USER                           _______ _______ _______ _____ _____    ______ ____
DOCKED: ROOT
DOCKED: ATOM      1  C   UNL d   1      45.660  24.669  20.178 -0.08 +0.11    +0.193 C 
DOCKED: ENDROOT
DOCKED: BRANCH   1   2
DOCKED: ATOM      2  O   UNL d   1      44.473  25.531  20.199 -0.09 -0.23    -0.356 OA
DOCKED: BRANCH   2   3
DOCKED: ATOM      3  P   UNL d   1      44.487  27.072  20.772 -0.23 -0.02    -0.014 P 
DOCKED: ATOM      4  O   UNL d   1      43.344  27.109  21.799 -0.58 -1.14    -0.577 OA
DOCKED: ATOM      5  O   UNL d   1      44.210  27.997  19.589 -0.06 -0.40    -0.577 OA
DOCKED: ATOM      6  O   UNL d   1      45.840  27.317  21.432 -0.26 -1.26    -0.638 OA
DOCKED: ENDBRANCH   2   3
DOCKED: ENDBRANCH   1   2
DOCKED: BRANCH   1   7
DOCKED: ATOM      7  C   UNL d   1      45.905  24.182  18.702 -0.08 +0.10    +0.201 C 
DOCKED: BRANCH   7   8
DOCKED: ATOM      8  O   UNL d   1      47.235  24.395  18.181 -0.04 -0.22    -0.364 OA
DOCKED: BRANCH   8   9
DOCKED: ATOM      9  P   UNL d   1      47.713  23.636  16.791 -0.20 -0.02    -0.015 P 
DOCKED: ATOM     10  O   UNL d   1      46.662  24.022  15.744 -0.09 -0.47    -0.577 OA
DOCKED: ATOM     11  O   UNL d   1      47.708  22.135  17.079 -0.31 -0.88    -0.577 OA
DOCKED: ATOM     12  O   UNL d   1      49.099  24.173  16.437 -0.46 -0.90    -0.638 OA
DOCKED: ENDBRANCH   8   9
DOCKED: ENDBRANCH   7   8
DOCKED: ENDBRANCH   1   7
DOCKED: BRANCH   1  13
DOCKED: ATOM     13  C   UNL d   1      45.428  23.408  21.093 -0.17 +0.04    +0.073 C 
DOCKED: ATOM     14  O   UNL d   1      46.399  22.989  21.814 -0.01 -0.24    -0.547 OA
DOCKED: ATOM     15  O   UNL d   1      44.245  22.909  21.107 -0.51 -0.30    -0.547 OA
DOCKED: ENDBRANCH   1  13
DOCKED: TORSDOF 6
DOCKED: TER
DOCKED: ENDMDL
________________________________________________________________________________


	BEGINNING GENETIC ALGORITHM DOCKING 97 of 100
Run: 97 Seed: 1098435781 36082885 [ Run 97 of 100 GA/GALS ]
Beginning LAMARCKIAN GENETIC ALGORITHM (LGA), with a maximum of 25000000 energy evaluations.

Final-Value: -7.058


	FINAL GENETIC ALGORITHM DOCKED STATE
	_______________________________________________


Detailed state:  trans 45.837 24.462 19.383 quatxyzw -0.133107 0.362122 -0.336820 -0.858896 center 0.015 0.083 0.031 ntor 6 -1.4867 2.2032 -33.6996 -12.3124 -10.3094 -57.7019
State:	 45.837  24.462  19.383  -0.260  0.707 -0.658 -61.614     -1.49    2.20  -33.70  -12.31  -10.31  -57.70

DOCKED: MODEL       97
DOCKED: USER    Run = 97
DOCKED: USER    DPF = D:/Protein_go_brrr/autodock/final/6BB5/2_3_BPG/dock.dpf
DOCKED: USER  
DOCKED: USER    Estimated Free Energy of Binding    =   -7.25 kcal/mol  [=(1)+(2)+(3)-(4)]
DOCKED: USER    Estimated Inhibition Constant, Ki   =    4.87 uM (micromolar)  [Temperature = 298.15 K]
DOCKED: USER    
DOCKED: USER    (1) Final Intermolecular Energy     =   -9.04 kcal/mol
DOCKED: USER        vdW + Hbond + desolv Energy     =   -3.32 kcal/mol
DOCKED: USER        Electrostatic Energy            =   -5.71 kcal/mol
DOCKED: USER    (2) Final Total Internal Energy     =   +1.98 kcal/mol
DOCKED: USER    (3) Torsional Free Energy           =   +1.79 kcal/mol
DOCKED: USER    (4) Unbound System's Energy  [=(2)] =   +1.98 kcal/mol
DOCKED: USER    
DOCKED: USER    
DOCKED: USER    NEWDPF move 2_3_BPG_opt.pdbqt
DOCKED: USER    NEWDPF about 0.015000 0.083000 0.031000
DOCKED: USER    NEWDPF tran0 45.836557 24.461551 19.383159
DOCKED: USER    NEWDPF quaternion0 -0.133107 0.362122 -0.336820 -0.858896
DOCKED: USER    NEWDPF axisangle0 -0.259899 0.707063 -0.657659 -61.614329
DOCKED: USER    NEWDPF quat0 -0.259899 0.707063 -0.657659 -61.614329
DOCKED: USER    NEWDPF dihe0 -1.49 2.20 -33.70 -12.31 -10.31 -57.70 
DOCKED: USER  keepresnum = 1 
DOCKED: USER  
DOCKED: REMARK  6 active torsions:
DOCKED: REMARK  status: ('A' for Active; 'I' for Inactive)
DOCKED: REMARK    1  A    between atoms: P_1  and  O_3 
DOCKED: REMARK    2  A    between atoms: P_2  and  O_4 
DOCKED: REMARK    3  A    between atoms: O_3  and  C_13 
DOCKED: REMARK    4  A    between atoms: O_4  and  C_14 
DOCKED: REMARK    5  A    between atoms: C_13  and  C_14 
DOCKED: REMARK    6  A    between atoms: C_13  and  C_15 
DOCKED: USER                              x       y       z     vdW  Elec       q    Type
DOCKED: USER                           _______ _______ _______ _____ _____    ______ ____
DOCKED: ROOT
DOCKED: ATOM      1  C   UNL d   1      45.453  24.626  19.908 -0.09 +0.10    +0.193 C 
DOCKED: ENDROOT
DOCKED: BRANCH   1   2
DOCKED: ATOM      2  O   UNL d   1      44.844  25.933  19.638 -0.06 -0.21    -0.356 OA
DOCKED: BRANCH   2   3
DOCKED: ATOM      3  P   UNL d   1      44.567  27.058  20.805 -0.23 -0.02    -0.014 P 
DOCKED: ATOM      4  O   UNL d   1      43.972  28.256  20.049 -0.16 -0.50    -0.577 OA
DOCKED: ATOM      5  O   UNL d   1      45.918  27.403  21.430 -0.30 -1.13    -0.577 OA
DOCKED: ATOM      6  O   UNL d   1      43.570  26.471  21.799 -0.41 -1.04    -0.638 OA
DOCKED: ENDBRANCH   2   3
DOCKED: ENDBRANCH   1   2
DOCKED: BRANCH   1   7
DOCKED: ATOM      7  C   UNL d   1      46.115  24.094  18.583 -0.08 +0.10    +0.201 C 
DOCKED: BRANCH   7   8
DOCKED: ATOM      8  O   UNL d   1      47.550  24.235  18.495 -0.02 -0.22    -0.364 OA
DOCKED: BRANCH   8   9
DOCKED: ATOM      9  P   UNL d   1      48.375  23.553  17.234 -0.05 -0.02    -0.015 P 
DOCKED: ATOM     10  O   UNL d   1      49.569  24.483  16.988 -0.20 -0.59    -0.577 OA
DOCKED: ATOM     11  O   UNL d   1      47.420  23.523  16.041 -0.33 -0.76    -0.577 OA
DOCKED: ATOM     12  O   UNL d   1      48.815  22.161  17.683 -0.33 -0.98    -0.638 OA
DOCKED: ENDBRANCH   8   9
DOCKED: ENDBRANCH   7   8
DOCKED: ENDBRANCH   1   7
DOCKED: BRANCH   1  13
DOCKED: ATOM     13  C   UNL d   1      44.350  23.600  20.367 -0.22 +0.04    +0.073 C 
DOCKED: ATOM     14  O   UNL d   1      43.308  23.456  19.636 -0.26 -0.21    -0.547 OA
DOCKED: ATOM     15  O   UNL d   1      44.594  22.917  21.426 -0.58 -0.28    -0.547 OA
DOCKED: ENDBRANCH   1  13
DOCKED: TORSDOF 6
DOCKED: TER
DOCKED: ENDMDL
________________________________________________________________________________


	BEGINNING GENETIC ALGORITHM DOCKING 98 of 100
Run: 98 Seed: 1346715757 1716621887 [ Run 98 of 100 GA/GALS ]
Beginning LAMARCKIAN GENETIC ALGORITHM (LGA), with a maximum of 25000000 energy evaluations.

Final-Value: -7.248


	FINAL GENETIC ALGORITHM DOCKED STATE
	_______________________________________________


Detailed state:  trans 45.376 24.720 19.055 quatxyzw -0.055254 0.380758 -0.314488 -0.867794 center 0.015 0.083 0.031 ntor 6 0.8313 -7.9108 -53.5368 -0.1191 -25.0147 -46.8720
State:	 45.376  24.720  19.055  -0.111  0.766 -0.633 -59.593      0.83   -7.91  -53.54   -0.12  -25.01  -46.87

DOCKED: MODEL       98
DOCKED: USER    Run = 98
DOCKED: USER    DPF = D:/Protein_go_brrr/autodock/final/6BB5/2_3_BPG/dock.dpf
DOCKED: USER  
DOCKED: USER    Estimated Free Energy of Binding    =   -7.39 kcal/mol  [=(1)+(2)+(3)-(4)]
DOCKED: USER    Estimated Inhibition Constant, Ki   =    3.83 uM (micromolar)  [Temperature = 298.15 K]
DOCKED: USER    
DOCKED: USER    (1) Final Intermolecular Energy     =   -9.18 kcal/mol
DOCKED: USER        vdW + Hbond + desolv Energy     =   -3.57 kcal/mol
DOCKED: USER        Electrostatic Energy            =   -5.61 kcal/mol
DOCKED: USER    (2) Final Total Internal Energy     =   +1.93 kcal/mol
DOCKED: USER    (3) Torsional Free Energy           =   +1.79 kcal/mol
DOCKED: USER    (4) Unbound System's Energy  [=(2)] =   +1.93 kcal/mol
DOCKED: USER    
DOCKED: USER    
DOCKED: USER    NEWDPF move 2_3_BPG_opt.pdbqt
DOCKED: USER    NEWDPF about 0.015000 0.083000 0.031000
DOCKED: USER    NEWDPF tran0 45.376305 24.720035 19.054536
DOCKED: USER    NEWDPF quaternion0 -0.055254 0.380758 -0.314488 -0.867794
DOCKED: USER    NEWDPF axisangle0 -0.111192 0.766232 -0.632871 -59.593313
DOCKED: USER    NEWDPF quat0 -0.111192 0.766232 -0.632871 -59.593313
DOCKED: USER    NEWDPF dihe0 0.83 -7.91 -53.54 -0.12 -25.01 -46.87 
DOCKED: USER  keepresnum = 1 
DOCKED: USER  
DOCKED: REMARK  6 active torsions:
DOCKED: REMARK  status: ('A' for Active; 'I' for Inactive)
DOCKED: REMARK    1  A    between atoms: P_1  and  O_3 
DOCKED: REMARK    2  A    between atoms: P_2  and  O_4 
DOCKED: REMARK    3  A    between atoms: O_3  and  C_13 
DOCKED: REMARK    4  A    between atoms: O_4  and  C_14 
DOCKED: REMARK    5  A    between atoms: C_13  and  C_14 
DOCKED: REMARK    6  A    between atoms: C_13  and  C_15 
DOCKED: USER                              x       y       z     vdW  Elec       q    Type
DOCKED: USER                           _______ _______ _______ _____ _____    ______ ____
DOCKED: ROOT
DOCKED: ATOM      1  C   UNL d   1      44.984  24.803  19.592 -0.12 +0.10    +0.193 C 
DOCKED: ENDROOT
DOCKED: BRANCH   1   2
DOCKED: ATOM      2  O   UNL d   1      44.401  26.148  19.529 -0.09 -0.21    -0.356 OA
DOCKED: BRANCH   2   3
DOCKED: ATOM      3  P   UNL d   1      44.380  27.183  20.806 -0.20 -0.02    -0.014 P 
DOCKED: ATOM      4  O   UNL d   1      43.967  28.533  20.198 -0.19 -0.54    -0.577 OA
DOCKED: ATOM      5  O   UNL d   1      45.797  27.232  21.372 -0.27 -1.08    -0.577 OA
DOCKED: ATOM      6  O   UNL d   1      43.343  26.679  21.805 -0.64 -1.07    -0.638 OA
DOCKED: ENDBRANCH   2   3
DOCKED: ENDBRANCH   1   2
DOCKED: BRANCH   1   7
DOCKED: ATOM      7  C   UNL d   1      45.667  24.484  18.211 -0.10 +0.09    +0.201 C 
DOCKED: BRANCH   7   8
DOCKED: ATOM      8  O   UNL d   1      47.107  24.372  18.231 -0.03 -0.21    -0.364 OA
DOCKED: BRANCH   8   9
DOCKED: ATOM      9  P   UNL d   1      47.891  23.534  17.039 -0.16 -0.02    -0.015 P 
DOCKED: ATOM     10  O   UNL d   1      48.975  24.490  16.527 -0.31 -0.67    -0.577 OA
DOCKED: ATOM     11  O   UNL d   1      46.854  23.217  15.961 -0.17 -0.64    -0.577 OA
DOCKED: ATOM     12  O   UNL d   1      48.486  22.283  17.684 -0.38 -0.90    -0.638 OA
DOCKED: ENDBRANCH   8   9
DOCKED: ENDBRANCH   7   8
DOCKED: ENDBRANCH   1   7
DOCKED: BRANCH   1  13
DOCKED: ATOM     13  C   UNL d   1      43.855  23.737  19.854 -0.26 +0.03    +0.073 C 
DOCKED: ATOM     14  O   UNL d   1      42.849  23.705  19.062 -0.14 -0.16    -0.547 OA
DOCKED: ATOM     15  O   UNL d   1      44.045  22.914  20.821 -0.52 -0.31    -0.547 OA
DOCKED: ENDBRANCH   1  13
DOCKED: TORSDOF 6
DOCKED: TER
DOCKED: ENDMDL
________________________________________________________________________________


	BEGINNING GENETIC ALGORITHM DOCKING 99 of 100
Run: 99 Seed: 838298979 237569686 [ Run 99 of 100 GA/GALS ]
Beginning LAMARCKIAN GENETIC ALGORITHM (LGA), with a maximum of 25000000 energy evaluations.

Final-Value: -6.571


	FINAL GENETIC ALGORITHM DOCKED STATE
	_______________________________________________


Detailed state:  trans 44.950 24.226 18.525 quatxyzw -0.486553 -0.691975 -0.482335 -0.227575 center 0.015 0.083 0.031 ntor 6 -5.7545 -169.4715 178.7655 2.7860 11.5876 -19.4881
State:	 44.950  24.226  18.525  -0.500 -0.711 -0.495 -153.691     -5.75 -169.47  178.77    2.79   11.59  -19.49

DOCKED: MODEL       99
DOCKED: USER    Run = 99
DOCKED: USER    DPF = D:/Protein_go_brrr/autodock/final/6BB5/2_3_BPG/dock.dpf
DOCKED: USER  
DOCKED: USER    Estimated Free Energy of Binding    =   -6.71 kcal/mol  [=(1)+(2)+(3)-(4)]
DOCKED: USER    Estimated Inhibition Constant, Ki   =   12.03 uM (micromolar)  [Temperature = 298.15 K]
DOCKED: USER    
DOCKED: USER    (1) Final Intermolecular Energy     =   -8.50 kcal/mol
DOCKED: USER        vdW + Hbond + desolv Energy     =   -2.86 kcal/mol
DOCKED: USER        Electrostatic Energy            =   -5.64 kcal/mol
DOCKED: USER    (2) Final Total Internal Energy     =   +1.93 kcal/mol
DOCKED: USER    (3) Torsional Free Energy           =   +1.79 kcal/mol
DOCKED: USER    (4) Unbound System's Energy  [=(2)] =   +1.93 kcal/mol
DOCKED: USER    
DOCKED: USER    
DOCKED: USER    NEWDPF move 2_3_BPG_opt.pdbqt
DOCKED: USER    NEWDPF about 0.015000 0.083000 0.031000
DOCKED: USER    NEWDPF tran0 44.949546 24.225948 18.524842
DOCKED: USER    NEWDPF quaternion0 -0.486553 -0.691975 -0.482335 -0.227575
DOCKED: USER    NEWDPF axisangle0 -0.499663 -0.710621 -0.495332 -153.691305
DOCKED: USER    NEWDPF quat0 -0.499663 -0.710621 -0.495332 -153.691305
DOCKED: USER    NEWDPF dihe0 -5.75 -169.47 178.77 2.79 11.59 -19.49 
DOCKED: USER  keepresnum = 1 
DOCKED: USER  
DOCKED: REMARK  6 active torsions:
DOCKED: REMARK  status: ('A' for Active; 'I' for Inactive)
DOCKED: REMARK    1  A    between atoms: P_1  and  O_3 
DOCKED: REMARK    2  A    between atoms: P_2  and  O_4 
DOCKED: REMARK    3  A    between atoms: O_3  and  C_13 
DOCKED: REMARK    4  A    between atoms: O_4  and  C_14 
DOCKED: REMARK    5  A    between atoms: C_13  and  C_14 
DOCKED: REMARK    6  A    between atoms: C_13  and  C_15 
DOCKED: USER                              x       y       z     vdW  Elec       q    Type
DOCKED: USER                           _______ _______ _______ _____ _____    ______ ____
DOCKED: ROOT
DOCKED: ATOM      1  C   UNL d   1      44.933  24.024  17.886 -0.15 +0.08    +0.193 C 
DOCKED: ENDROOT
DOCKED: BRANCH   1   2
DOCKED: ATOM      2  O   UNL d   1      45.991  23.024  17.696 -0.07 -0.20    -0.356 OA
DOCKED: BRANCH   2   3
DOCKED: ATOM      3  P   UNL d   1      47.092  23.096  16.476 -0.27 -0.02    -0.014 P 
DOCKED: ATOM      4  O   UNL d   1      46.827  24.450  15.800 -0.13 -0.44    -0.577 OA
DOCKED: ATOM      5  O   UNL d   1      46.800  21.931  15.534 -0.06 -0.85    -0.577 OA
DOCKED: ATOM      6  O   UNL d   1      48.485  23.043  17.096 -0.51 -1.10    -0.638 OA
DOCKED: ENDBRANCH   2   3
DOCKED: ENDBRANCH   1   2
DOCKED: BRANCH   1   7
DOCKED: ATOM      7  C   UNL d   1      44.764  24.293  19.427 -0.14 +0.09    +0.201 C 
DOCKED: BRANCH   7   8
DOCKED: ATOM      8  O   UNL d   1      44.544  25.669  19.806 -0.08 -0.22    -0.364 OA
DOCKED: BRANCH   8   9
DOCKED: ATOM      9  P   UNL d   1      44.712  26.132  21.385 -0.13 -0.02    -0.015 P 
DOCKED: ATOM     10  O   UNL d   1      45.124  24.858  22.132 -0.01 -0.53    -0.577 OA
DOCKED: ATOM     11  O   UNL d   1      43.349  26.648  21.846 -0.68 -0.97    -0.577 OA
DOCKED: ATOM     12  O   UNL d   1      45.803  27.201  21.429 -0.25 -1.22    -0.638 OA
DOCKED: ENDBRANCH   8   9
DOCKED: ENDBRANCH   7   8
DOCKED: ENDBRANCH   1   7
DOCKED: BRANCH   1  13
DOCKED: ATOM     13  C   UNL d   1      43.569  23.481  17.316 -0.30 +0.02    +0.073 C 
DOCKED: ATOM     14  O   UNL d   1      43.200  22.297  17.637 -0.05 -0.13    -0.547 OA
DOCKED: ATOM     15  O   UNL d   1      42.871  24.292  16.607 -0.04 -0.13    -0.547 OA
DOCKED: ENDBRANCH   1  13
DOCKED: TORSDOF 6
DOCKED: TER
DOCKED: ENDMDL
________________________________________________________________________________


	BEGINNING GENETIC ALGORITHM DOCKING 100 of 100
Run: 100 Seed: 845969944 2059945745 [ Run 100 of 100 GA/GALS ]
Beginning LAMARCKIAN GENETIC ALGORITHM (LGA), with a maximum of 25000000 energy evaluations.

Final-Value: -6.633


	FINAL GENETIC ALGORITHM DOCKED STATE
	_______________________________________________


Detailed state:  trans 46.574 24.557 20.099 quatxyzw -0.147335 0.187364 -0.299671 -0.923788 center 0.015 0.083 0.031 ntor 6 -36.1088 -22.9753 34.0179 19.1046 19.8314 154.7000
State:	 46.574  24.557  20.099  -0.385  0.489 -0.783 -45.027    -36.11  -22.98   34.02   19.10   19.83  154.70

DOCKED: MODEL      100
DOCKED: USER    Run = 100
DOCKED: USER    DPF = D:/Protein_go_brrr/autodock/final/6BB5/2_3_BPG/dock.dpf
DOCKED: USER  
DOCKED: USER    Estimated Free Energy of Binding    =   -6.91 kcal/mol  [=(1)+(2)+(3)-(4)]
DOCKED: USER    Estimated Inhibition Constant, Ki   =    8.56 uM (micromolar)  [Temperature = 298.15 K]
DOCKED: USER    
DOCKED: USER    (1) Final Intermolecular Energy     =   -8.70 kcal/mol
DOCKED: USER        vdW + Hbond + desolv Energy     =   -3.20 kcal/mol
DOCKED: USER        Electrostatic Energy            =   -5.51 kcal/mol
DOCKED: USER    (2) Final Total Internal Energy     =   +2.07 kcal/mol
DOCKED: USER    (3) Torsional Free Energy           =   +1.79 kcal/mol
DOCKED: USER    (4) Unbound System's Energy  [=(2)] =   +2.07 kcal/mol
DOCKED: USER    
DOCKED: USER    
DOCKED: USER    NEWDPF move 2_3_BPG_opt.pdbqt
DOCKED: USER    NEWDPF about 0.015000 0.083000 0.031000
DOCKED: USER    NEWDPF tran0 46.573754 24.556532 20.099071
DOCKED: USER    NEWDPF quaternion0 -0.147335 0.187364 -0.299671 -0.923788
DOCKED: USER    NEWDPF axisangle0 -0.384783 0.489324 -0.782626 -45.027371
DOCKED: USER    NEWDPF quat0 -0.384783 0.489324 -0.782626 -45.027371
DOCKED: USER    NEWDPF dihe0 -36.11 -22.98 34.02 19.10 19.83 154.70 
DOCKED: USER  keepresnum = 1 
DOCKED: USER  
DOCKED: REMARK  6 active torsions:
DOCKED: REMARK  status: ('A' for Active; 'I' for Inactive)
DOCKED: REMARK    1  A    between atoms: P_1  and  O_3 
DOCKED: REMARK    2  A    between atoms: P_2  and  O_4 
DOCKED: REMARK    3  A    between atoms: O_3  and  C_13 
DOCKED: REMARK    4  A    between atoms: O_4  and  C_14 
DOCKED: REMARK    5  A    between atoms: C_13  and  C_14 
DOCKED: REMARK    6  A    between atoms: C_13  and  C_15 
DOCKED: USER                              x       y       z     vdW  Elec       q    Type
DOCKED: USER                           _______ _______ _______ _____ _____    ______ ____
DOCKED: ROOT
DOCKED: ATOM      1  C   UNL d   1      46.019  24.686  20.453 -0.06 +0.11    +0.193 C 
DOCKED: ENDROOT
DOCKED: BRANCH   1   2
DOCKED: ATOM      2  O   UNL d   1      45.350  25.842  19.847 -0.04 -0.23    -0.356 OA
DOCKED: BRANCH   2   3
DOCKED: ATOM      3  P   UNL d   1      45.205  27.298  20.598 -0.15 -0.02    -0.014 P 
DOCKED: ATOM      4  O   UNL d   1      45.111  28.314  19.450 -0.03 -0.38    -0.577 OA
DOCKED: ATOM      5  O   UNL d   1      46.469  27.505  21.430 -0.54 -0.94    -0.577 OA
DOCKED: ATOM      6  O   UNL d   1      43.927  27.273  21.430 -0.42 -1.20    -0.638 OA
DOCKED: ENDBRANCH   2   3
DOCKED: ENDBRANCH   1   2
DOCKED: BRANCH   1   7
DOCKED: ATOM      7  C   UNL d   1      47.150  24.190  19.479 -0.03 +0.10    +0.201 C 
DOCKED: BRANCH   7   8
DOCKED: ATOM      8  O   UNL d   1      46.780  24.078  18.087 -0.04 -0.21    -0.364 OA
DOCKED: BRANCH   8   9
DOCKED: ATOM      9  P   UNL d   1      47.627  23.074  17.081 -0.13 -0.02    -0.015 P 
DOCKED: ATOM     10  O   UNL d   1      47.666  23.802  15.732 -0.28 -0.79    -0.577 OA
DOCKED: ATOM     11  O   UNL d   1      46.847  21.762  17.000 -0.07 -0.60    -0.577 OA
DOCKED: ATOM     12  O   UNL d   1      49.021  22.905  17.682 -0.51 -0.88    -0.638 OA
DOCKED: ENDBRANCH   8   9
DOCKED: ENDBRANCH   7   8
DOCKED: ENDBRANCH   1   7
DOCKED: BRANCH   1  13
DOCKED: ATOM     13  C   UNL d   1      44.988  23.516  20.665 -0.19 +0.04    +0.073 C 
DOCKED: ATOM     14  O   UNL d   1      43.882  23.550  20.019 -0.40 -0.24    -0.547 OA
DOCKED: ATOM     15  O   UNL d   1      45.349  22.553  21.435 -0.30 -0.25    -0.547 OA
DOCKED: ENDBRANCH   1  13
DOCKED: TORSDOF 6
DOCKED: TER
DOCKED: ENDMDL
________________________________________________________________________________

DPF> analysis                             # perform a ranked cluster analysis


		CLUSTER ANALYSIS OF CONFORMATIONS
		_________________________________

Number of conformations = 100

RMSD cluster analysis will be performed using the ligand atoms only (15 / 15 total atoms).

Outputting structurally similar clusters, ranked in order of increasing energy.


________________________________________________________________________________

Number of distinct conformational clusters found = 3,  out of 100 runs,
Using an rmsd-tolerance of 2.0 A


	CLUSTERING HISTOGRAM
	____________________

________________________________________________________________________________
     |           |     |           |     |                                    
Clus | Lowest    | Run | Mean      | Num | Histogram                          
-ter | Binding   |     | Binding   | in  |                                    
Rank | Energy    |     | Energy    | Clus|    5    10   15   20   25   30   35
_____|___________|_____|___________|_____|____:____|____:____|____:____|____:___
   1 |     -7.64 |   9 |     -7.03 |  76 |############################################################################
   2 |     -7.52 |  65 |     -7.08 |  22 |######################
   3 |     -6.82 |  58 |     -6.57 |   2 |##
_____|___________|_____|___________|_____|______________________________________


Number of multi-member conformational clusters found = 3, out of 100 runs.

	RMSD TABLE
	__________

_____________________________________________________________________
     |      |      |           |         |                 |
Rank | Sub- | Run  | Binding   | Cluster | Reference       | Grep
     | Rank |      | Energy    | RMSD    | RMSD            | Pattern
_____|______|______|___________|_________|_________________|___________
   1      1      9       -7.64      0.00     52.23           RANKING
   1      2      4       -7.59      0.65     52.26           RANKING
   1      3     90       -7.54      0.62     52.28           RANKING
   1      4     88       -7.52      0.66     52.21           RANKING
   1      5     77       -7.50      0.70     52.35           RANKING
   1      6     11       -7.50      0.47     52.06           RANKING
   1      7     62       -7.50      0.36     52.15           RANKING
   1      8     79       -7.49      0.44     52.40           RANKING
   1      9     84       -7.48      0.48     52.25           RANKING
   1     10     80       -7.41      0.36     52.37           RANKING
   1     11     83       -7.39      0.67     52.20           RANKING
   1     12     98       -7.39      0.66     52.16           RANKING
   1     13     40       -7.36      0.78     52.32           RANKING
   1     14      7       -7.34      0.79     52.10           RANKING
   1     15     76       -7.33      0.79     52.45           RANKING
   1     16     70       -7.32      0.73     52.44           RANKING
   1     17     26       -7.31      0.63     52.43           RANKING
   1     18     32       -7.30      0.67     52.03           RANKING
   1     19     30       -7.30      0.73     52.53           RANKING
   1     20     78       -7.30      0.88     52.47           RANKING
   1     21     31       -7.27      0.70     52.40           RANKING
   1     22     74       -7.27      0.93     52.59           RANKING
   1     23     93       -7.26      0.97     52.61           RANKING
   1     24     46       -7.26      0.92     52.53           RANKING
   1     25     97       -7.25      0.76     52.51           RANKING
   1     26      5       -7.24      1.11     52.52           RANKING
   1     27     29       -7.24      0.90     52.77           RANKING
   1     28     28       -7.23      0.52     52.29           RANKING
   1     29     96       -7.23      0.92     52.53           RANKING
   1     30     64       -7.22      0.76     52.12           RANKING
   1     31     49       -7.21      0.50     52.10           RANKING
   1     32     91       -7.20      0.61     52.23           RANKING
   1     33     34       -7.19      0.63     52.10           RANKING
   1     34     72       -7.11      1.21     52.73           RANKING
   1     35     27       -7.09      1.11     52.86           RANKING
   1     36     12       -7.08      1.29     51.50           RANKING
   1     37     43       -7.06      0.98     52.78           RANKING
   1     38     67       -7.06      1.18     51.55           RANKING
   1     39     89       -7.02      0.69     52.46           RANKING
   1     40     33       -7.02      0.87     52.47           RANKING
   1     41     63       -6.97      0.82     52.00           RANKING
   1     42     68       -6.97      0.93     52.65           RANKING
   1     43      3       -6.93      0.85     52.41           RANKING
   1     44    100       -6.91      1.02     52.64           RANKING
   1     45     15       -6.90      1.20     51.52           RANKING
   1     46     37       -6.89      0.89     51.73           RANKING
   1     47      1       -6.89      1.11     51.65           RANKING
   1     48     39       -6.88      1.33     51.44           RANKING
   1     49     56       -6.88      0.86     52.69           RANKING
   1     50     44       -6.87      1.01     52.73           RANKING
   1     51     20       -6.86      1.15     51.83           RANKING
   1     52     16       -6.85      0.83     52.12           RANKING
   1     53     57       -6.85      1.30     51.56           RANKING
   1     54     14       -6.84      1.20     51.60           RANKING
   1     55     75       -6.82      0.82     52.28           RANKING
   1     56     22       -6.82      1.15     52.57           RANKING
   1     57     85       -6.80      1.22     52.31           RANKING
   1     58     73       -6.80      1.82     53.29           RANKING
   1     59     82       -6.76      1.48     51.43           RANKING
   1     60     55       -6.75      0.98     52.33           RANKING
   1     61     99       -6.71      1.50     51.44           RANKING
   1     62     18       -6.71      1.33     52.61           RANKING
   1     63     52       -6.70      0.89     52.54           RANKING
   1     64     47       -6.68      1.79     53.50           RANKING
   1     65     41       -6.68      1.20     51.83           RANKING
   1     66     95       -6.67      1.05     51.94           RANKING
   1     67     35       -6.67      1.71     53.64           RANKING
   1     68     38       -6.64      1.81     53.40           RANKING
   1     69     81       -6.62      1.43     51.59           RANKING
   1     70     61       -6.58      1.80     53.48           RANKING
   1     71     42       -6.53      1.86     53.44           RANKING
   1     72     25       -6.53      1.81     53.58           RANKING
   1     73     54       -6.49      1.43     51.68           RANKING
   1     74     59       -6.43      1.35     52.19           RANKING
   1     75     66       -6.32      1.74     53.28           RANKING
   1     76     19       -6.30      1.66     51.88           RANKING
   2      1     65       -7.52      0.00     41.58           RANKING
   2      2     87       -7.50      1.02     41.82           RANKING
   2      3     21       -7.38      1.51     41.55           RANKING
   2      4     86       -7.31      1.62     41.68           RANKING
   2      5     60       -7.30      0.65     41.82           RANKING
   2      6      2       -7.27      1.48     42.00           RANKING
   2      7     69       -7.24      1.61     41.47           RANKING
   2      8     36       -7.23      1.01     41.51           RANKING
   2      9      8       -7.22      1.60     41.17           RANKING
   2     10     50       -7.20      1.61     40.95           RANKING
   2     11     53       -7.17      1.60     41.34           RANKING
   2     12     45       -7.12      0.52     41.78           RANKING
   2     13     10       -7.11      1.65     41.82           RANKING
   2     14     92       -7.04      0.92     41.46           RANKING
   2     15     51       -6.98      0.90     41.47           RANKING
   2     16     23       -6.97      1.67     40.83           RANKING
   2     17     71       -6.96      1.04     41.30           RANKING
   2     18     48       -6.95      1.60     41.88           RANKING
   2     19     17       -6.89      1.59     41.08           RANKING
   2     20     94       -6.80      0.77     41.73           RANKING
   2     21     24       -6.34      1.73     41.63           RANKING
   2     22      6       -6.34      1.66     41.86           RANKING
   3      1     58       -6.82      0.00     52.92           RANKING
   3      2     13       -6.33      1.13     53.34           RANKING
_______________________________________________________________________



	INFORMATION ENTROPY ANALYSIS FOR THIS CLUSTERING
	________________________________________________


Information entropy for this clustering = 0.13  (rmstol = 2.00 Angstrom)

_______________________________________________________________________


	STATISTICAL MECHANICAL ANALYSIS
	_______________________________


Partition function, Q =   101.19            at Temperature, T = 298.15 K
Free energy,        A ~ -2735.51 kcal/mol   at Temperature, T = 298.15 K
Internal energy,    U =    -7.04 kcal/mol   at Temperature, T = 298.15 K
Entropy,            S =     9.15 kcal/mol/K at Temperature, T = 298.15 K

_______________________________________________________________________


	LOWEST ENERGY DOCKED CONFORMATION from EACH CLUSTER
	___________________________________________________



Keeping original residue number (specified in the input PDBQ file) for outputting.

MODEL        9
USER    Run = 9
USER    Cluster Rank = 1
USER    Number of conformations in this cluster = 76
USER  
USER    RMSD from reference structure       = 52.229 A
USER  
USER    Estimated Free Energy of Binding    =   -7.64 kcal/mol  [=(1)+(2)+(3)-(4)]
USER    Estimated Inhibition Constant, Ki   =    2.53 uM (micromolar)  [Temperature = 298.15 K]
USER    
USER    (1) Final Intermolecular Energy     =   -9.43 kcal/mol
USER        vdW + Hbond + desolv Energy     =   -3.51 kcal/mol
USER        Electrostatic Energy            =   -5.91 kcal/mol
USER    (2) Final Total Internal Energy     =   +1.92 kcal/mol
USER    (3) Torsional Free Energy           =   +1.79 kcal/mol
USER    (4) Unbound System's Energy  [=(2)] =   +1.92 kcal/mol
USER    
USER    
USER  
USER    DPF = D:/Protein_go_brrr/autodock/final/6BB5/2_3_BPG/dock.dpf
USER    NEWDPF move	2_3_BPG_opt.pdbqt
USER    NEWDPF about	0.015000 0.083000 0.031000
USER    NEWDPF tran0	45.563117 25.019951 19.154397
USER    NEWDPF axisangle0	0.176299 -0.856442 0.485207 51.898492
USER    NEWDPF quaternion0	0.077144 -0.374757 0.212314 0.899182
USER    NEWDPF dihe0	-179.88 92.10 -42.81 18.11 -14.67 6.34 
USER  
USER                              x       y       z    vdW   Elec        q     RMS 
ATOM      1  C   UNL d   1      45.159  24.996  19.689 -0.11 +0.10    +0.193    52.229
ATOM      2  O   UNL d   1      44.303  26.187  19.670 -0.10 -0.22    -0.356    52.229
ATOM      3  P   UNL d   1      44.379  27.372  20.807 -0.14 -0.02    -0.014    52.229
ATOM      4  O   UNL d   1      43.344  26.956  21.864 -0.63 -1.11    -0.577    52.229
ATOM      5  O   UNL d   1      43.989  28.681  20.124 -0.15 -0.51    -0.577    52.229
ATOM      6  O   UNL d   1      45.792  27.383  21.381 -0.23 -1.25    -0.638    52.229
ATOM      7  C   UNL d   1      45.901  24.885  18.306 -0.09 +0.10    +0.201    52.229
ATOM      8  O   UNL d   1      47.014  23.965  18.260 -0.03 -0.22    -0.364    52.229
ATOM      9  P   UNL d   1      47.686  23.548  16.807 -0.20 -0.02    -0.015    52.229
ATOM     10  O   UNL d   1      49.198  23.523  17.059 -0.55 -0.92    -0.577    52.229
ATOM     11  O   UNL d   1      47.292  24.633  15.805 -0.13 -0.48    -0.577    52.229
ATOM     12  O   UNL d   1      47.143  22.168  16.438 -0.16 -0.93    -0.638    52.229
ATOM     13  C   UNL d   1      44.283  23.704  19.895 -0.24 +0.03    +0.073    52.229
ATOM     14  O   UNL d   1      44.583  22.908  20.853 -0.62 -0.29    -0.547    52.229
ATOM     15  O   UNL d   1      43.269  23.558  19.121 -0.15 -0.18    -0.547    52.229
TER
ENDMDL
MODEL       65
USER    Run = 65
USER    Cluster Rank = 2
USER    Number of conformations in this cluster = 22
USER  
USER    RMSD from reference structure       = 41.579 A
USER  
USER    Estimated Free Energy of Binding    =   -7.52 kcal/mol  [=(1)+(2)+(3)-(4)]
USER    Estimated Inhibition Constant, Ki   =    3.07 uM (micromolar)  [Temperature = 298.15 K]
USER    
USER    (1) Final Intermolecular Energy     =   -9.31 kcal/mol
USER        vdW + Hbond + desolv Energy     =   -3.67 kcal/mol
USER        Electrostatic Energy            =   -5.65 kcal/mol
USER    (2) Final Total Internal Energy     =   +2.17 kcal/mol
USER    (3) Torsional Free Energy           =   +1.79 kcal/mol
USER    (4) Unbound System's Energy  [=(2)] =   +2.17 kcal/mol
USER    
USER    
USER  
USER    DPF = D:/Protein_go_brrr/autodock/final/6BB5/2_3_BPG/dock.dpf
USER    NEWDPF move	2_3_BPG_opt.pdbqt
USER    NEWDPF about	0.015000 0.083000 0.031000
USER    NEWDPF tran0	3.297023 42.494433 -1.427493
USER    NEWDPF axisangle0	-0.045188 -0.997129 -0.060759 62.935118
USER    NEWDPF quaternion0	-0.023589 -0.520517 -0.031717 0.852936
USER    NEWDPF dihe0	-164.75 59.76 24.25 -20.08 15.84 -89.36 
USER  
USER                              x       y       z    vdW   Elec        q     RMS 
ATOM      1  C   UNL d   1       3.122  42.137  -0.888 -0.24 +0.15    +0.193    41.579
ATOM      2  O   UNL d   1       2.047  42.854  -0.193 -0.09 -0.32    -0.356    41.579
ATOM      3  P   UNL d   1       1.776  42.727   1.424 -0.30 -0.02    -0.014    41.579
ATOM      4  O   UNL d   1       0.308  42.286   1.533 -0.33 -0.86    -0.577    41.579
ATOM      5  O   UNL d   1       1.993  44.113   2.029 +0.00 -0.36    -0.577    41.579
ATOM      6  O   UNL d   1       2.722  41.667   1.978 -0.46 -1.08    -0.638    41.579
ATOM      7  C   UNL d   1       3.344  42.801  -2.297 -0.15 +0.10    +0.201    41.579
ATOM      8  O   UNL d   1       3.936  44.119  -2.286 -0.19 -0.22    -0.364    41.579
ATOM      9  P   UNL d   1       3.797  45.103  -3.609 -0.41 -0.01    -0.015    41.579
ATOM     10  O   UNL d   1       5.015  46.031  -3.545 -0.62 -0.77    -0.577    41.579
ATOM     11  O   UNL d   1       2.484  45.871  -3.457 -0.08 -0.64    -0.577    41.579
ATOM     12  O   UNL d   1       3.824  44.203  -4.844 -0.06 -0.33    -0.638    41.579
ATOM     13  C   UNL d   1       2.716  40.630  -1.100 -0.21 +0.09    +0.073    41.579
ATOM     14  O   UNL d   1       3.345  39.729  -0.442 -0.46 -0.83    -0.547    41.579
ATOM     15  O   UNL d   1       1.724  40.399  -1.882 -0.08 -0.55    -0.547    41.579
TER
ENDMDL
MODEL       58
USER    Run = 58
USER    Cluster Rank = 3
USER    Number of conformations in this cluster = 2
USER  
USER    RMSD from reference structure       = 52.916 A
USER  
USER    Estimated Free Energy of Binding    =   -6.82 kcal/mol  [=(1)+(2)+(3)-(4)]
USER    Estimated Inhibition Constant, Ki   =   10.04 uM (micromolar)  [Temperature = 298.15 K]
USER    
USER    (1) Final Intermolecular Energy     =   -8.61 kcal/mol
USER        vdW + Hbond + desolv Energy     =   -3.28 kcal/mol
USER        Electrostatic Energy            =   -5.33 kcal/mol
USER    (2) Final Total Internal Energy     =   +2.20 kcal/mol
USER    (3) Torsional Free Energy           =   +1.79 kcal/mol
USER    (4) Unbound System's Energy  [=(2)] =   +2.20 kcal/mol
USER    
USER    
USER  
USER    DPF = D:/Protein_go_brrr/autodock/final/6BB5/2_3_BPG/dock.dpf
USER    NEWDPF move	2_3_BPG_opt.pdbqt
USER    NEWDPF about	0.015000 0.083000 0.031000
USER    NEWDPF tran0	44.767784 25.056146 21.891433
USER    NEWDPF axisangle0	0.076035 -0.967109 -0.242732 -100.924982
USER    NEWDPF quaternion0	0.058639 -0.745842 -0.187197 -0.636583
USER    NEWDPF dihe0	179.73 178.24 13.32 59.83 53.12 -4.70 
USER  
USER                              x       y       z    vdW   Elec        q     RMS 
ATOM      1  C   UNL d   1      44.737  24.978  21.226 -0.18 +0.15    +0.193    52.916
ATOM      2  O   UNL d   1      45.674  25.925  20.612 -0.06 -0.30    -0.356    52.916
ATOM      3  P   UNL d   1      45.406  27.546  20.545 -0.12 -0.02    -0.014    52.916
ATOM      4  O   UNL d   1      43.984  27.722  21.101 -0.31 -0.96    -0.577    52.916
ATOM      5  O   UNL d   1      45.491  27.960  19.078 -0.00 -0.33    -0.577    52.916
ATOM      6  O   UNL d   1      46.441  28.232  21.431 -0.52 -1.09    -0.638    52.916
ATOM      7  C   UNL d   1      45.003  24.940  22.776 -0.11 +0.22    +0.201    52.916
ATOM      8  O   UNL d   1      43.883  24.541  23.598 -0.14 -0.31    -0.364    52.916
ATOM      9  P   UNL d   1      43.349  25.533  24.809 -0.38 -0.02    -0.015    52.916
ATOM     10  O   UNL d   1      42.458  24.647  25.687 -0.10 -0.33    -0.577    52.916
ATOM     11  O   UNL d   1      42.557  26.660  24.146 -0.49 -0.90    -0.577    52.916
ATOM     12  O   UNL d   1      44.582  26.031  25.562 -0.14 -0.95    -0.638    52.916
ATOM     13  C   UNL d   1      44.966  23.535  20.639 -0.20 +0.04    +0.073    52.916
ATOM     14  O   UNL d   1      43.962  22.909  20.149 -0.48 -0.30    -0.547    52.916
ATOM     15  O   UNL d   1      46.171  23.094  20.631 -0.04 -0.25    -0.547    52.916
TER
ENDMDL


AVSFLD: # AVS field file
AVSFLD: #
AVSFLD: # Created by AutoDock
AVSFLD: #
AVSFLD: ndim=2           # number of dimensions in the field
AVSFLD: nspace=1         # number of physical coordinates
AVSFLD: veclen=7         # vector size
AVSFLD: dim1=15          # atoms
AVSFLD: dim2=3           # conformations
AVSFLD: data=Real       # data type (byte,integer,Real,double)
AVSFLD: field=uniform    # field coordinate layout
AVSFLD: label= x y z vdW Elec q RMS
AVSFLD: variable 1 file = D:/Protein_go_brrr/autodock/final/6BB5/2_3_BPG/dock.dlg.pdb filetype = ascii offset = 5 stride = 12
AVSFLD: variable 2 file = D:/Protein_go_brrr/autodock/final/6BB5/2_3_BPG/dock.dlg.pdb filetype = ascii offset = 6 stride = 12
AVSFLD: variable 3 file = D:/Protein_go_brrr/autodock/final/6BB5/2_3_BPG/dock.dlg.pdb filetype = ascii offset = 7 stride = 12
AVSFLD: variable 4 file = D:/Protein_go_brrr/autodock/final/6BB5/2_3_BPG/dock.dlg.pdb filetype = ascii offset = 8 stride = 12
AVSFLD: variable 5 file = D:/Protein_go_brrr/autodock/final/6BB5/2_3_BPG/dock.dlg.pdb filetype = ascii offset = 9 stride = 12
AVSFLD: variable 6 file = D:/Protein_go_brrr/autodock/final/6BB5/2_3_BPG/dock.dlg.pdb filetype = ascii offset = 10 stride = 12
AVSFLD: variable 7 file = D:/Protein_go_brrr/autodock/final/6BB5/2_3_BPG/dock.dlg.pdb filetype = ascii offset = 11 stride = 12
AVSFLD: # end of file

>>> Closing the docking parameter file (DPF)...
This docking finished at:			4:50 55" a.m., 09/29/2025


________________________________________________________________________________

D:/autodockScripts/autodock4.exe: Successful Completion on "ACER"

Real= 4h 03m 50.79s,  CPU= 5m 26.58s,  System= 14.86s
________________________________________________________________________________

