          AutoDock 4.2 Release 4.2.6   
         (C) 1989-2012 The Scripps Research Institute
        AutoDock comes with ABSOLUTELY NO WARRANTY.
        AutoDock is free software, and you are welcome
        to redistribute it under certain conditions;
        for details type 'autodock4 -C'

                     main.cc  $Revision: 1.213 $

                   Compiled on Jul 18 2014 at 15:34:58


This file was created at:			12:15 25" p.m., 01/17/2026
                   on host:		"ACER"
Current Working Directory = "D:\Protein_go_brrr\autodock\final\6BB5\heme_Co"

      ________________________________________________________________

                   SETTING UP DEFAULT PARAMETER LIBRARY
      ________________________________________________________________


Random number generator was seeded with values 44552, 1768648525.
Docking parameter file (DPF) used for this docking:		D:/Protein_go_brrr/autodock/final/6BB5/heme_Co/dock.dpf
DPF> autodock_parameter_version 4.2       # used by autodock to validate parameter set

	Autodock parameter version 4.2.
DPF> outlev 1                             # diagnostic output level

Output Level = 1  ADT-COMPATIBLE OUTPUT DURING DOCKING.
DPF> intelec                              # calculate internal electrostatics

Electrostatic energies will be calculated for all non-bonds between moving atoms.
DPF> seed pid time                        # seeds for random generator

Random number generator was seeded with values 44552, 1768648525.
DPF> ligand_types A C OA N Fe HD          # atoms types in ligand

DPF> fld opt_6BB5.maps.fld                # grid_data_file

Opening Grid Map Dimensions file:		opt_6BB5.maps.fld
Grid Point Spacing =				0.547 Angstroms

Even Number of User-specified Grid Points =	126 x-points
						126 y-points
						126 z-points

Coordinates of Central Grid Point of Maps =	(23.343, 33.533, 11.432)
Macromolecule file used to create Grid Maps =	opt_6BB5.pdbqt
Grid Parameter file used to create Grid Maps =	D:/Protein_go_brrr/autodock/final/6BB5/heme_Co/grid.gpf
Minimum coordinates in grid = (-11.118, -0.928, -23.029)
Maximum coordinates in grid = (57.804, 67.994, 45.893)

DPF> map opt_6BB5.A.map                   # atom-specific affinity map

DPF> map opt_6BB5.C.map                   # atom-specific affinity map

DPF> map opt_6BB5.OA.map                  # atom-specific affinity map

DPF> map opt_6BB5.N.map                   # atom-specific affinity map

DPF> map opt_6BB5.Fe.map                  # atom-specific affinity map

DPF> map opt_6BB5.HD.map                  # atom-specific affinity map

DPF> elecmap opt_6BB5.e.map               # electrostatics map

DPF> desolvmap opt_6BB5.d.map             # desolvation map

DPF> move heme_Co_opt.pdbqt               # small molecule

1,4-interactions will be _ignored_ in the non-bonded internal energy calculation.

Ligand PDBQT file = "heme_Co_opt.pdbqt"

INPUT LIGAND PDBQT FILE:
________________________

INPUT-LIGAND-PDBQT: REMARK  12 active torsions:
INPUT-LIGAND-PDBQT: REMARK  status: ('A' for Active; 'I' for Inactive)
INPUT-LIGAND-PDBQT: REMARK    1  A    between atoms: C_6  and  C_10 
INPUT-LIGAND-PDBQT: REMARK    2  A    between atoms: C_10  and  C_11 
INPUT-LIGAND-PDBQT: REMARK    3  A    between atoms: C_11  and  C_12 
INPUT-LIGAND-PDBQT: REMARK    4  A    between atoms: C_12  and  O_14 
INPUT-LIGAND-PDBQT: REMARK    5  A    between atoms: C_17  and  C_20 
INPUT-LIGAND-PDBQT: REMARK    6  A    between atoms: C_24  and  C_27 
INPUT-LIGAND-PDBQT: REMARK    7  A    between atoms: C_31  and  C_34 
INPUT-LIGAND-PDBQT: REMARK    8  A    between atoms: C_34  and  C_35 
INPUT-LIGAND-PDBQT: REMARK    9  A    between atoms: C_35  and  C_36 
INPUT-LIGAND-PDBQT: REMARK   10  A    between atoms: C_36  and  O_38 
INPUT-LIGAND-PDBQT: REMARK   11  A    between atoms: FE_43  and  C_44 
INPUT-LIGAND-PDBQT: REMARK   12  A    between atoms: C_44  and  O_45 
INPUT-LIGAND-PDBQT: ROOT
INPUT-LIGAND-PDBQT: ATOM      1  C   UNL d   1       6.846  35.483  -1.586  0.00  0.00     0.064 A 
INPUT-LIGAND-PDBQT: ATOM      2  C   UNL d   1       8.105  32.823   2.149  0.00  0.00     0.064 C 
INPUT-LIGAND-PDBQT: ATOM      3  C   UNL d   1      12.720  33.414   1.062  0.00  0.00     0.064 A 
INPUT-LIGAND-PDBQT: ATOM      4  C   UNL d   1      11.472  36.449  -2.529  0.00  0.00     0.064 A 
INPUT-LIGAND-PDBQT: ATOM      5  C   UNL d   1       6.850  34.683  -0.507  0.00  0.00     0.066 A 
INPUT-LIGAND-PDBQT: ATOM      6  C   UNL d   1       5.664  34.330   0.166  0.00  0.00    -0.021 A 
INPUT-LIGAND-PDBQT: ATOM      7  C   UNL d   1       6.037  33.577   1.262  0.00  0.00    -0.025 A 
INPUT-LIGAND-PDBQT: ATOM      8  C   UNL d   1       7.432  33.489   1.202  0.00  0.00     0.066 A 
INPUT-LIGAND-PDBQT: ATOM      9  C   UNL d   1       5.127  32.958   2.334  0.00  0.00     0.051 C 
INPUT-LIGAND-PDBQT: ATOM     10  C   UNL d   1       9.537  32.657   2.156  0.00  0.00     0.066 A 
INPUT-LIGAND-PDBQT: ATOM     11  C   UNL d   1      10.289  31.854   3.041  0.00  0.00    -0.021 A 
INPUT-LIGAND-PDBQT: ATOM     12  C   UNL d   1      11.631  32.042   2.699  0.00  0.00     0.000 A 
INPUT-LIGAND-PDBQT: ATOM     13  C   UNL d   1      11.598  32.933   1.626  0.00  0.00     0.070 A 
INPUT-LIGAND-PDBQT: ATOM     14  C   UNL d   1       9.736  30.905   4.073  0.00  0.00     0.052 C 
INPUT-LIGAND-PDBQT: ATOM     15  C   UNL d   1      12.870  34.375  -0.013  0.00  0.00     0.066 A 
INPUT-LIGAND-PDBQT: ATOM     16  C   UNL d   1      14.059  34.940  -0.452  0.00  0.00    -0.021 A 
INPUT-LIGAND-PDBQT: ATOM     17  C   UNL d   1      13.704  35.818  -1.486  0.00  0.00     0.000 A 
INPUT-LIGAND-PDBQT: ATOM     18  C   UNL d   1      12.323  35.706  -1.608  0.00  0.00     0.070 A 
INPUT-LIGAND-PDBQT: ATOM     19  C   UNL d   1      15.432  34.638   0.106  0.00  0.00     0.052 C 
INPUT-LIGAND-PDBQT: ATOM     20  C   UNL d   1      10.120  36.421  -2.607  0.00  0.00     0.066 A 
INPUT-LIGAND-PDBQT: ATOM     21  C   UNL d   1       9.411  37.209  -3.511  0.00  0.00    -0.025 A 
INPUT-LIGAND-PDBQT: ATOM     22  C   UNL d   1       8.076  36.930  -3.282  0.00  0.00    -0.021 A 
INPUT-LIGAND-PDBQT: ATOM     23  C   UNL d   1       8.036  35.987  -2.233  0.00  0.00     0.066 A 
INPUT-LIGAND-PDBQT: ATOM     24  C   UNL d   1       9.976  38.195  -4.530  0.00  0.00     0.051 C 
INPUT-LIGAND-PDBQT: ATOM     25  N   UNL d   1       7.962  34.160   0.113  0.00  0.00    -0.248 N 
INPUT-LIGAND-PDBQT: ATOM     26  N   UNL d   1      10.329  33.260   1.263  0.00  0.00    -0.248 N 
INPUT-LIGAND-PDBQT: ATOM     27  N   UNL d   1      11.857  34.861  -0.695  0.00  0.00    -0.248 N 
INPUT-LIGAND-PDBQT: ATOM     28  N   UNL d   1       9.271  35.678  -1.820  0.00  0.00    -0.248 N 
INPUT-LIGAND-PDBQT: ATOM     29 FE   UNL d   1      10.024  34.533  -0.318  0.00  0.00     0.000 Fe
INPUT-LIGAND-PDBQT: ENDROOT
INPUT-LIGAND-PDBQT: BRANCH   6  30
INPUT-LIGAND-PDBQT: ATOM     30  C   UNL d   1       4.249  34.772  -0.192  0.00  0.00     0.052 C 
INPUT-LIGAND-PDBQT: BRANCH  30  31
INPUT-LIGAND-PDBQT: ATOM     31  C   UNL d   1       3.660  33.865  -1.272  0.00  0.00     0.115 C 
INPUT-LIGAND-PDBQT: BRANCH  31  32
INPUT-LIGAND-PDBQT: ATOM     32  C   UNL d   1       2.237  34.239  -1.627  0.00  0.00     0.139 C 
INPUT-LIGAND-PDBQT: ATOM     33  O   UNL d   1       1.374  33.374  -1.641  0.00  0.00    -0.650 OA
INPUT-LIGAND-PDBQT: BRANCH  32  34
INPUT-LIGAND-PDBQT: ATOM     34  O   UNL d   1       1.874  35.517  -1.885  0.00  0.00    -0.776 OA
INPUT-LIGAND-PDBQT: ATOM     35  H   UNL d   1       2.467  36.277  -1.807  0.00  0.00     0.167 HD
INPUT-LIGAND-PDBQT: ENDBRANCH  32  34
INPUT-LIGAND-PDBQT: ENDBRANCH  31  32
INPUT-LIGAND-PDBQT: ENDBRANCH  30  31
INPUT-LIGAND-PDBQT: ENDBRANCH   6  30
INPUT-LIGAND-PDBQT: BRANCH  29  36
INPUT-LIGAND-PDBQT: ATOM     36  C   UNL d   1       9.893  36.149   1.011  0.00  0.00     0.190 C 
INPUT-LIGAND-PDBQT: BRANCH  36  37
INPUT-LIGAND-PDBQT: ATOM     37  O   UNL d   1      10.463  37.389   1.317  0.00  0.00    -0.399 OA
INPUT-LIGAND-PDBQT: ATOM     38  H   UNL d   1      10.901  37.258   2.204  0.00  0.00     0.209 HD
INPUT-LIGAND-PDBQT: ENDBRANCH  36  37
INPUT-LIGAND-PDBQT: ENDBRANCH  29  36
INPUT-LIGAND-PDBQT: BRANCH  22  39
INPUT-LIGAND-PDBQT: ATOM     39  C   UNL d   1       6.906  37.586  -3.991  0.00  0.00     0.052 C 
INPUT-LIGAND-PDBQT: BRANCH  39  40
INPUT-LIGAND-PDBQT: ATOM     40  C   UNL d   1       6.343  36.659  -5.081  0.00  0.00     0.115 C 
INPUT-LIGAND-PDBQT: BRANCH  40  41
INPUT-LIGAND-PDBQT: ATOM     41  C   UNL d   1       5.088  37.175  -5.753  0.00  0.00     0.139 C 
INPUT-LIGAND-PDBQT: ATOM     42  O   UNL d   1       4.969  37.063  -6.965  0.00  0.00    -0.650 OA
INPUT-LIGAND-PDBQT: BRANCH  41  43
INPUT-LIGAND-PDBQT: ATOM     43  O   UNL d   1       4.056  37.678  -5.040  0.00  0.00    -0.776 OA
INPUT-LIGAND-PDBQT: ATOM     44  H   UNL d   1       4.103  37.816  -4.085  0.00  0.00     0.167 HD
INPUT-LIGAND-PDBQT: ENDBRANCH  41  43
INPUT-LIGAND-PDBQT: ENDBRANCH  40  41
INPUT-LIGAND-PDBQT: ENDBRANCH  39  40
INPUT-LIGAND-PDBQT: ENDBRANCH  22  39
INPUT-LIGAND-PDBQT: BRANCH  12  45
INPUT-LIGAND-PDBQT: ATOM     45  C   UNL d   1      12.932  31.471   3.247  0.00  0.00     0.004 C 
INPUT-LIGAND-PDBQT: ATOM     46  C   UNL d   1      13.165  30.727   4.325  0.00  0.00     0.012 C 
INPUT-LIGAND-PDBQT: ENDBRANCH  12  45
INPUT-LIGAND-PDBQT: BRANCH  17  47
INPUT-LIGAND-PDBQT: ATOM     47  C   UNL d   1      14.559  36.745  -2.286  0.00  0.00     0.004 C 
INPUT-LIGAND-PDBQT: ATOM     48  C   UNL d   1      15.750  37.188  -1.876  0.00  0.00     0.012 C 
INPUT-LIGAND-PDBQT: ENDBRANCH  17  47
INPUT-LIGAND-PDBQT: TORSDOF 12
________________________________________________________________________________

Total charge on ligand                               =	-2.002 e
REMARK  12 active torsions:
REMARK  status: ('A' for Active; 'I' for Inactive)
REMARK    1  A    between atoms: C_6  and  C_10 
REMARK    2  A    between atoms: C_10  and  C_11 
REMARK    3  A    between atoms: C_11  and  C_12 
REMARK    4  A    between atoms: C_12  and  O_14 
REMARK    5  A    between atoms: C_17  and  C_20 
REMARK    6  A    between atoms: C_24  and  C_27 
REMARK    7  A    between atoms: C_31  and  C_34 
REMARK    8  A    between atoms: C_34  and  C_35 
REMARK    9  A    between atoms: C_35  and  C_36 
REMARK   10  A    between atoms: C_36  and  O_38 
REMARK   11  A    between atoms: FE_43  and  C_44 
REMARK   12  A    between atoms: C_44  and  O_45 


Number of Rotatable Bonds in Small Molecule =	12 torsions
Number of atoms in ligand:  48

Number of non-hydrogen atoms in ligand:  45

Number of vibrational degrees of freedom of ligand:  138


Number of torsional degrees of freedom = 12
Estimated loss of torsional free energy upon binding = +3.5796 kcal/mol


DPF> about 8.781 34.984 -0.736            # small molecule center

Small molecule center of rotation =	(+8.781, +34.984, -0.736)

DPF> tran0 random                         # initial coordinates/A or random

Initial translation =			(6.472, 31.553, -3.930) Angstroms
DPF> quaternion0 random                   # initial orientation

Each run will begin with a new, random initial orientation.
Initial quaternion,  (x,y,z,w) =	( 0.140, 0.395, 0.564, 0.711 ),
DPF> dihe0 random                         # initial dihedrals (relative) or random

DPF> torsdof 12                            # torsional degrees of freedom

Number of torsional degrees of freedom = 12
Free energy coefficient for torsional degrees of freedom = 0.2983, the factory default value.

Estimated loss of torsional free energy upon binding = +3.5796 kcal/mol

DPF> rmstol 2.0                           # cluster_tolerance/A

Maximum RMS tolerance for conformational cluster analysis = 2.00 Angstroms
DPF> extnrg 1000.0                        # external grid energy

External grid energy (beyond grid map walls) = 1000.00

DPF> e0max 0.0 10000                      # max initial energy; max number of retries

Using user-specified maximum number of retries for simanneal initialization, 10000 retries.
If the simanneal initial energy is greater than e0max, 0.000,
then a new, random initial state will be created.

DPF> ga_pop_size 150                      # number of individuals in population

A population of 150 individuals will be used
DPF> ga_num_evals 25000000                # maximum number of energy evaluations

There will be at most 25000000 function evaluations used.
DPF> ga_num_generations 27000             # maximum number of generations

The GA will run for at most 27000 generations.
DPF> ga_elitism 1                         # number of top individuals to survive to next generation

The 1 best will be preserved each GA generation.
DPF> ga_mutation_rate 0.02                # rate of gene mutation

The mutation rate is 0.020000.
DPF> ga_crossover_rate 0.8                # rate of crossover

The crossover rate is 0.800000.
DPF> ga_window_size 10                    # 

The GA's selection window is 10 generations.
DPF> ga_cauchy_alpha 0.0                  # Alpha parameter of Cauchy distribution

The alpha parameter (for the Cauchy distribution) is being set to 0.000000.
DPF> ga_cauchy_beta 1.0                   # Beta parameter Cauchy distribution

The beta parameter (for the Cauchy distribution) is being set to 1.000000.
DPF> set_ga                               # set the above parameters for GA or LGA

DPF> sw_max_its 300                       # iterations of Solis & Wets local search

Solis & Wets algorithms will perform at most 300 iterations.
DPF> sw_max_succ 4                        # consecutive successes before changing rho

Solis & Wets algorithms expand rho every 4 in a row successes.
DPF> sw_max_fail 4                        # consecutive failures before changing rho

Solis & Wets algorithms contract rho every 4 in a row failures.
DPF> sw_rho 1.0                           # size of local search space to sample

rho is set to 1.000000.
DPF> sw_lb_rho 0.01                       # lower bound on rho

rho will never get smaller than 0.010000.
DPF> ls_search_freq 0.06                  # probability of performing local search on individual

Local search will be performed with frequency 0.060000.
DPF> set_psw1                             # set the above pseudo-Solis & Wets parameters

Creating a new Local Search object using the pseudo-Solis-Wets algorithm (pSW1) with the current settings.

DPF> unbound_model bound                  # state of unbound ligand

DPF> ga_run 100                           # do this many hybrid GA-LS runs

centering ligand on specified point: 8.781 34.984 -0.736
Furthest true ligand atom from "about" center is 7.934 Angstroms (maxrad).
Number of requested GA dockings = 100 runs
Unbound model to be used is 'same as bound' [AutoDock 4.2 default].

	BEGINNING GENETIC ALGORITHM DOCKING 1 of 100
Run: 1 Seed: 784261603 162202935 [ Run 1 of 100 GA/GALS ]
Beginning LAMARCKIAN GENETIC ALGORITHM (LGA), with a maximum of 25000000 energy evaluations.

Final-Value: -19.223


	FINAL GENETIC ALGORITHM DOCKED STATE
	_______________________________________________


Detailed state:  trans 40.762 28.777 15.741 quatxyzw 0.304666 -0.361653 -0.875367 0.100593 center 8.781 34.984 -0.736 ntor 12 78.0830 148.2897 134.1089 -102.1335 -94.6835 3.7025 -179.9773 -19.8928 -31.0944 84.1067 -179.4788 -178.6344
State:	 40.762  28.777  15.741   0.306 -0.363 -0.880 168.453     78.08  148.29  134.11 -102.13  -94.68    3.70 -179.98  -19.89  -31.09   84.11 -179.48 -178.63

DOCKED: MODEL        1
DOCKED: USER    Run = 1
DOCKED: USER    DPF = D:/Protein_go_brrr/autodock/final/6BB5/heme_Co/dock.dpf
DOCKED: USER  
DOCKED: USER    Estimated Free Energy of Binding    =  -13.34 kcal/mol  [=(1)+(2)+(3)-(4)]
DOCKED: USER    Estimated Inhibition Constant, Ki   =  165.26 pM (picomolar)  [Temperature = 298.15 K]
DOCKED: USER    
DOCKED: USER    (1) Final Intermolecular Energy     =  -16.92 kcal/mol
DOCKED: USER        vdW + Hbond + desolv Energy     =  -14.84 kcal/mol
DOCKED: USER        Electrostatic Energy            =   -2.09 kcal/mol
DOCKED: USER    (2) Final Total Internal Energy     =   -2.30 kcal/mol
DOCKED: USER    (3) Torsional Free Energy           =   +3.58 kcal/mol
DOCKED: USER    (4) Unbound System's Energy  [=(2)] =   -2.30 kcal/mol
DOCKED: USER    
DOCKED: USER    
DOCKED: USER    NEWDPF move heme_Co_opt.pdbqt
DOCKED: USER    NEWDPF about 8.781000 34.984000 -0.736000
DOCKED: USER    NEWDPF tran0 40.762228 28.777478 15.741189
DOCKED: USER    NEWDPF quaternion0 0.304666 -0.361653 -0.875367 0.100593
DOCKED: USER    NEWDPF axisangle0 0.306219 -0.363496 -0.879830 168.453384
DOCKED: USER    NEWDPF quat0 0.306219 -0.363496 -0.879830 168.453384
DOCKED: USER    NEWDPF dihe0 78.08 148.29 134.11 -102.13 -94.68 3.70 -179.98 -19.89 -31.09 84.11 -179.48 -178.63 
DOCKED: USER  keepresnum = 1 
DOCKED: USER  
DOCKED: REMARK  12 active torsions:
DOCKED: REMARK  status: ('A' for Active; 'I' for Inactive)
DOCKED: REMARK    1  A    between atoms: C_6  and  C_10 
DOCKED: REMARK    2  A    between atoms: C_10  and  C_11 
DOCKED: REMARK    3  A    between atoms: C_11  and  C_12 
DOCKED: REMARK    4  A    between atoms: C_12  and  O_14 
DOCKED: REMARK    5  A    between atoms: C_17  and  C_20 
DOCKED: REMARK    6  A    between atoms: C_24  and  C_27 
DOCKED: REMARK    7  A    between atoms: C_31  and  C_34 
DOCKED: REMARK    8  A    between atoms: C_34  and  C_35 
DOCKED: REMARK    9  A    between atoms: C_35  and  C_36 
DOCKED: REMARK   10  A    between atoms: C_36  and  O_38 
DOCKED: REMARK   11  A    between atoms: FE_43  and  C_44 
DOCKED: REMARK   12  A    between atoms: C_44  and  O_45 
DOCKED: USER                              x       y       z     vdW  Elec       q    Type
DOCKED: USER                           _______ _______ _______ _____ _____    ______ ____
DOCKED: ROOT
DOCKED: ATOM      1  C   UNL d   1      42.493  27.914  16.730 -0.22 +0.02    +0.064 A 
DOCKED: ATOM      2  C   UNL d   1      40.827  32.363  16.510 -0.48 +0.01    +0.064 C 
DOCKED: ATOM      3  C   UNL d   1      37.428  30.979  13.450 -0.27 +0.01    +0.064 A 
DOCKED: ATOM      4  C   UNL d   1      38.870  26.361  13.957 -0.39 +0.01    +0.064 A 
DOCKED: ATOM      5  C   UNL d   1      42.310  29.238  16.866 -0.25 +0.02    +0.066 A 
DOCKED: ATOM      6  C   UNL d   1      43.081  30.012  17.755 -0.31 -0.01    -0.021 A 
DOCKED: ATOM      7  C   UNL d   1      42.579  31.297  17.704 -0.40 -0.00    -0.025 A 
DOCKED: ATOM      8  C   UNL d   1      41.534  31.257  16.775 -0.38 +0.01    +0.066 A 
DOCKED: ATOM      9  C   UNL d   1      43.053  32.526  18.494 -0.45 +0.01    +0.051 C 
DOCKED: ATOM     10  C   UNL d   1      39.752  32.424  15.551 -0.38 +0.01    +0.066 A 
DOCKED: ATOM     11  C   UNL d   1      39.066  33.582  15.125 -0.44 -0.00    -0.021 A 
DOCKED: ATOM     12  C   UNL d   1      38.083  33.150  14.230 -0.41 +0.00    +0.000 A 
DOCKED: ATOM     13  C   UNL d   1      38.250  31.766  14.166 -0.36 +0.01    +0.070 A 
DOCKED: ATOM     14  C   UNL d   1      39.406  35.004  15.488 -0.53 +0.00    +0.052 C 
DOCKED: ATOM     15  C   UNL d   1      37.423  29.536  13.314 -0.35 +0.01    +0.066 A 
DOCKED: ATOM     16  C   UNL d   1      36.457  28.773  12.674 -0.50 -0.00    -0.021 A 
DOCKED: ATOM     17  C   UNL d   1      36.868  27.440  12.819 -0.50 +0.00    +0.000 A 
DOCKED: ATOM     18  C   UNL d   1      38.065  27.497  13.525 -0.38 +0.01    +0.070 A 
DOCKED: ATOM     19  C   UNL d   1      35.230  29.316  11.977 -0.52 +0.00    +0.052 C 
DOCKED: ATOM     20  C   UNL d   1      39.991  26.387  14.717 -0.39 +0.01    +0.066 A 
DOCKED: ATOM     21  C   UNL d   1      40.658  25.225  15.098 -0.44 -0.00    -0.025 A 
DOCKED: ATOM     22  C   UNL d   1      41.723  25.643  15.874 -0.37 -0.00    -0.021 A 
DOCKED: ATOM     23  C   UNL d   1      41.646  27.051  15.939 -0.35 +0.01    +0.066 A 
DOCKED: ATOM     24  C   UNL d   1      40.288  23.784  14.756 -0.56 +0.01    +0.051 C 
DOCKED: ATOM     25  N   UNL d   1      41.348  29.995  16.236 -0.08 -0.06    -0.248 N 
DOCKED: ATOM     26  N   UNL d   1      39.296  31.335  14.922 -0.23 -0.03    -0.248 N 
DOCKED: ATOM     27  N   UNL d   1      38.349  28.758  13.829 -0.19 -0.05    -0.248 N 
DOCKED: ATOM     28  N   UNL d   1      40.597  27.505  15.242 -0.13 -0.06    -0.248 N 
DOCKED: ATOM     29 FE   UNL d   1      39.761  29.337  14.961 -0.07 +0.00    +0.000 Fe
DOCKED: ENDROOT
DOCKED: BRANCH   6  30
DOCKED: ATOM     30  C   UNL d   1      44.195  29.508  18.668 -0.29 +0.02    +0.052 C 
DOCKED: BRANCH  30  31
DOCKED: ATOM     31  C   UNL d   1      43.651  29.214  20.066 +0.14 +0.09    +0.115 C 
DOCKED: BRANCH  31  32
DOCKED: ATOM     32  C   UNL d   1      44.366  28.057  20.731 -0.01 +0.19    +0.139 C 
DOCKED: ATOM     33  O   UNL d   1      45.587  28.048  20.769 -0.33 -0.90    -0.650 OA
DOCKED: BRANCH  32  34
DOCKED: ATOM     34  O   UNL d   1      43.694  27.048  21.332 -0.38 -1.25    -0.776 OA
DOCKED: ATOM     35  H   UNL d   1      43.221  26.351  20.858 +0.06 +0.15    +0.167 HD
DOCKED: ENDBRANCH  32  34
DOCKED: ENDBRANCH  31  32
DOCKED: ENDBRANCH  30  31
DOCKED: ENDBRANCH   6  30
DOCKED: BRANCH  29  36
DOCKED: ATOM     36  C   UNL d   1      38.613  29.105  16.699 +0.03 +0.05    +0.190 C 
DOCKED: BRANCH  36  37
DOCKED: ATOM     37  O   UNL d   1      37.562  28.363  17.250 -0.56 -0.09    -0.399 OA
DOCKED: ATOM     38  H   UNL d   1      37.667  27.448  16.868 +0.12 +0.05    +0.209 HD
DOCKED: ENDBRANCH  36  37
DOCKED: ENDBRANCH  29  36
DOCKED: BRANCH  22  39
DOCKED: ATOM     39  C   UNL d   1      42.719  24.731  16.566 -0.34 +0.01    +0.052 C 
DOCKED: BRANCH  39  40
DOCKED: ATOM     40  C   UNL d   1      42.103  24.119  17.835 -0.38 +0.02    +0.115 C 
DOCKED: BRANCH  40  41
DOCKED: ATOM     41  C   UNL d   1      42.540  24.781  19.125 -0.37 +0.04    +0.139 C 
DOCKED: ATOM     42  O   UNL d   1      41.702  25.320  19.834 +0.05 -0.15    -0.650 OA
DOCKED: BRANCH  41  43
DOCKED: ATOM     43  O   UNL d   1      43.819  24.718  19.558 +0.06 -0.34    -0.776 OA
DOCKED: ATOM     44  H   UNL d   1      44.265  25.470  19.969 +0.07 +0.10    +0.167 HD
DOCKED: ENDBRANCH  41  43
DOCKED: ENDBRANCH  40  41
DOCKED: ENDBRANCH  39  40
DOCKED: ENDBRANCH  22  39
DOCKED: BRANCH  12  45
DOCKED: ATOM     45  C   UNL d   1      37.024  33.883  13.418 -0.52 +0.00    +0.004 C 
DOCKED: ATOM     46  C   UNL d   1      35.699  33.898  13.536 -0.57 +0.00    +0.012 C 
DOCKED: ENDBRANCH  12  45
DOCKED: BRANCH  17  47
DOCKED: ATOM     47  C   UNL d   1      36.190  26.181  12.389 -0.61 +0.00    +0.004 C 
DOCKED: ATOM     48  C   UNL d   1      35.756  25.249  13.241 -0.66 +0.00    +0.012 C 
DOCKED: ENDBRANCH  17  47
DOCKED: TORSDOF 12
DOCKED: TER
DOCKED: ENDMDL
________________________________________________________________________________


	BEGINNING GENETIC ALGORITHM DOCKING 2 of 100
Run: 2 Seed: 548075115 1012059593 [ Run 2 of 100 GA/GALS ]
Beginning LAMARCKIAN GENETIC ALGORITHM (LGA), with a maximum of 25000000 energy evaluations.

Final-Value: -14.573


	FINAL GENETIC ALGORITHM DOCKED STATE
	_______________________________________________


Detailed state:  trans 45.948 27.546 18.471 quatxyzw -0.266824 0.376616 0.887100 0.004351 center 8.781 34.984 -0.736 ntor 12 -95.4637 75.6365 -47.8892 38.0193 75.4800 126.7151 31.4908 -179.9940 172.8633 150.3728 -164.7714 15.2619
State:	 45.948  27.546  18.471  -0.267  0.377  0.887 179.501    -95.46   75.64  -47.89   38.02   75.48  126.72   31.49 -179.99  172.86  150.37 -164.77   15.26

DOCKED: MODEL        2
DOCKED: USER    Run = 2
DOCKED: USER    DPF = D:/Protein_go_brrr/autodock/final/6BB5/heme_Co/dock.dpf
DOCKED: USER  
DOCKED: USER    Estimated Free Energy of Binding    =   -8.91 kcal/mol  [=(1)+(2)+(3)-(4)]
DOCKED: USER    Estimated Inhibition Constant, Ki   =  295.27 nM (nanomolar)  [Temperature = 298.15 K]
DOCKED: USER    
DOCKED: USER    (1) Final Intermolecular Energy     =  -12.49 kcal/mol
DOCKED: USER        vdW + Hbond + desolv Energy     =   -8.98 kcal/mol
DOCKED: USER        Electrostatic Energy            =   -3.51 kcal/mol
DOCKED: USER    (2) Final Total Internal Energy     =   -2.09 kcal/mol
DOCKED: USER    (3) Torsional Free Energy           =   +3.58 kcal/mol
DOCKED: USER    (4) Unbound System's Energy  [=(2)] =   -2.09 kcal/mol
DOCKED: USER    
DOCKED: USER    
DOCKED: USER    NEWDPF move heme_Co_opt.pdbqt
DOCKED: USER    NEWDPF about 8.781000 34.984000 -0.736000
DOCKED: USER    NEWDPF tran0 45.948374 27.546322 18.470899
DOCKED: USER    NEWDPF quaternion0 -0.266824 0.376616 0.887100 0.004351
DOCKED: USER    NEWDPF axisangle0 -0.266827 0.376620 0.887108 179.501380
DOCKED: USER    NEWDPF quat0 -0.266827 0.376620 0.887108 179.501380
DOCKED: USER    NEWDPF dihe0 -95.46 75.64 -47.89 38.02 75.48 126.72 31.49 -179.99 172.86 150.37 -164.77 15.26 
DOCKED: USER  keepresnum = 1 
DOCKED: USER  
DOCKED: REMARK  12 active torsions:
DOCKED: REMARK  status: ('A' for Active; 'I' for Inactive)
DOCKED: REMARK    1  A    between atoms: C_6  and  C_10 
DOCKED: REMARK    2  A    between atoms: C_10  and  C_11 
DOCKED: REMARK    3  A    between atoms: C_11  and  C_12 
DOCKED: REMARK    4  A    between atoms: C_12  and  O_14 
DOCKED: REMARK    5  A    between atoms: C_17  and  C_20 
DOCKED: REMARK    6  A    between atoms: C_24  and  C_27 
DOCKED: REMARK    7  A    between atoms: C_31  and  C_34 
DOCKED: REMARK    8  A    between atoms: C_34  and  C_35 
DOCKED: REMARK    9  A    between atoms: C_35  and  C_36 
DOCKED: REMARK   10  A    between atoms: C_36  and  O_38 
DOCKED: REMARK   11  A    between atoms: FE_43  and  C_44 
DOCKED: REMARK   12  A    between atoms: C_44  and  O_45 
DOCKED: USER                              x       y       z     vdW  Elec       q    Type
DOCKED: USER                           _______ _______ _______ _____ _____    ______ ____
DOCKED: ROOT
DOCKED: ATOM      1  C   UNL d   1      47.917  27.027  19.227 -0.05 +0.03    +0.064 A 
DOCKED: ATOM      2  C   UNL d   1      45.571  31.156  18.996 -0.22 +0.02    +0.064 C 
DOCKED: ATOM      3  C   UNL d   1      42.017  29.046  16.598 -0.20 +0.01    +0.064 A 
DOCKED: ATOM      4  C   UNL d   1      44.212  24.741  17.159 -0.21 +0.02    +0.064 A 
DOCKED: ATOM      5  C   UNL d   1      47.553  28.317  19.308 -0.07 +0.03    +0.066 A 
DOCKED: ATOM      6  C   UNL d   1      48.318  29.266  20.015 -0.05 -0.01    -0.021 A 
DOCKED: ATOM      7  C   UNL d   1      47.621  30.457  19.964 -0.09 -0.01    -0.025 A 
DOCKED: ATOM      8  C   UNL d   1      46.470  30.189  19.215 -0.13 +0.03    +0.066 A 
DOCKED: ATOM      9  C   UNL d   1      48.010  31.804  20.592 -0.07 +0.02    +0.051 C 
DOCKED: ATOM     10  C   UNL d   1      44.371  30.981  18.215 -0.24 +0.02    +0.066 A 
DOCKED: ATOM     11  C   UNL d   1      43.460  31.989  17.831 -0.29 -0.00    -0.021 A 
DOCKED: ATOM     12  C   UNL d   1      42.435  31.346  17.130 -0.39 +0.00    +0.000 A 
DOCKED: ATOM     13  C   UNL d   1      42.803  30.000  17.127 -0.30 +0.02    +0.070 A 
DOCKED: ATOM     14  C   UNL d   1      43.625  33.471  18.047 -0.38 +0.01    +0.052 C 
DOCKED: ATOM     15  C   UNL d   1      42.215  27.611  16.555 -0.20 +0.02    +0.066 A 
DOCKED: ATOM     16  C   UNL d   1      41.295  26.665  16.123 -0.38 -0.00    -0.021 A 
DOCKED: ATOM     17  C   UNL d   1      41.923  25.422  16.285 -0.38 +0.00    +0.000 A 
DOCKED: ATOM     18  C   UNL d   1      43.187  25.709  16.789 -0.26 +0.02    +0.070 A 
DOCKED: ATOM     19  C   UNL d   1      39.910  26.967  15.595 -0.44 +0.01    +0.052 C 
DOCKED: ATOM     20  C   UNL d   1      45.414  24.992  17.731 -0.15 +0.03    +0.066 A 
DOCKED: ATOM     21  C   UNL d   1      46.301  23.973  18.074 -0.12 -0.01    -0.025 A 
DOCKED: ATOM     22  C   UNL d   1      47.390  24.604  18.646 -0.07 -0.01    -0.021 A 
DOCKED: ATOM     23  C   UNL d   1      47.107  25.987  18.634 -0.08 +0.03    +0.066 A 
DOCKED: ATOM     24  C   UNL d   1      46.112  22.471  17.885 -0.18 +0.03    +0.051 C 
DOCKED: ATOM     25  N   UNL d   1      46.405  28.873  18.791 -0.07 -0.11    -0.248 N 
DOCKED: ATOM     26  N   UNL d   1      44.001  29.789  17.734 -0.16 -0.07    -0.248 N 
DOCKED: ATOM     27  N   UNL d   1      43.315  27.020  16.966 -0.18 -0.07    -0.248 N 
DOCKED: ATOM     28  N   UNL d   1      45.911  26.225  18.084 -0.07 -0.11    -0.248 N 
DOCKED: ATOM     29 FE   UNL d   1      44.770  27.888  17.824 -0.05 +0.00    +0.000 Fe
DOCKED: ENDROOT
DOCKED: BRANCH   6  30
DOCKED: ATOM     30  C   UNL d   1      49.617  29.006  20.772 -0.02 +0.02    +0.052 C 
DOCKED: BRANCH  30  31
DOCKED: ATOM     31  C   UNL d   1      49.327  28.407  22.147 -0.03 +0.06    +0.115 C 
DOCKED: BRANCH  31  32
DOCKED: ATOM     32  C   UNL d   1      47.852  28.430  22.488 -0.01 +0.16    +0.139 C 
DOCKED: ATOM     33  O   UNL d   1      47.412  29.325  23.194 -0.07 -0.88    -0.650 OA
DOCKED: BRANCH  32  34
DOCKED: ATOM     34  O   UNL d   1      46.987  27.513  21.995 -0.38 -1.33    -0.776 OA
DOCKED: ATOM     35  H   UNL d   1      46.403  27.667  21.239 +0.02 +0.25    +0.167 HD
DOCKED: ENDBRANCH  32  34
DOCKED: ENDBRANCH  31  32
DOCKED: ENDBRANCH  30  31
DOCKED: ENDBRANCH   6  30
DOCKED: BRANCH  29  36
DOCKED: ATOM     36  C   UNL d   1      43.937  27.643  19.732 +0.01 +0.14    +0.190 C 
DOCKED: BRANCH  36  37
DOCKED: ATOM     37  O   UNL d   1      44.269  27.513  21.084 -0.33 -0.67    -0.399 OA
DOCKED: ATOM     38  H   UNL d   1      45.099  26.959  21.093 +0.05 +0.32    +0.209 HD
DOCKED: ENDBRANCH  36  37
DOCKED: ENDBRANCH  29  36
DOCKED: BRANCH  22  39
DOCKED: ATOM     39  C   UNL d   1      48.605  23.906  19.229 -0.04 +0.03    +0.052 C 
DOCKED: BRANCH  39  40
DOCKED: ATOM     40  C   UNL d   1      49.874  24.278  18.443 -0.07 +0.08    +0.115 C 
DOCKED: BRANCH  40  41
DOCKED: ATOM     41  C   UNL d   1      49.655  24.468  16.957 -0.14 +0.14    +0.139 C 
DOCKED: ATOM     42  O   UNL d   1      48.932  23.688  16.354 -0.34 -1.29    -0.650 OA
DOCKED: BRANCH  41  43
DOCKED: ATOM     43  O   UNL d   1      50.166  25.529  16.294 -0.02 -0.54    -0.776 OA
DOCKED: ATOM     44  H   UNL d   1      50.160  26.423  16.660 +0.03 +0.08    +0.167 HD
DOCKED: ENDBRANCH  41  43
DOCKED: ENDBRANCH  40  41
DOCKED: ENDBRANCH  39  40
DOCKED: ENDBRANCH  22  39
DOCKED: BRANCH  12  45
DOCKED: ATOM     45  C   UNL d   1      41.169  31.848  16.450 -0.50 +0.00    +0.004 C 
DOCKED: ATOM     46  C   UNL d   1      40.900  33.018  15.876 -0.52 +0.00    +0.012 C 
DOCKED: ENDBRANCH  12  45
DOCKED: BRANCH  17  47
DOCKED: ATOM     47  C   UNL d   1      41.392  24.047  16.046 -0.52 +0.00    +0.004 C 
DOCKED: ATOM     48  C   UNL d   1      40.848  23.658  14.890 -0.60 +0.00    +0.012 C 
DOCKED: ENDBRANCH  17  47
DOCKED: TORSDOF 12
DOCKED: TER
DOCKED: ENDMDL
________________________________________________________________________________


	BEGINNING GENETIC ALGORITHM DOCKING 3 of 100
Run: 3 Seed: 595080613 116662477 [ Run 3 of 100 GA/GALS ]
Beginning LAMARCKIAN GENETIC ALGORITHM (LGA), with a maximum of 25000000 energy evaluations.

Final-Value: -18.508


	FINAL GENETIC ALGORITHM DOCKED STATE
	_______________________________________________


Detailed state:  trans 40.629 28.611 15.661 quatxyzw 0.373671 -0.397510 -0.837310 0.035594 center 8.781 34.984 -0.736 ntor 12 34.8742 125.2152 -95.9973 -91.8868 -65.4888 20.1689 16.5613 121.2360 11.6183 31.9496 -44.4227 179.9165
State:	 40.629  28.611  15.661   0.374 -0.398 -0.838 175.920     34.87  125.22  -96.00  -91.89  -65.49   20.17   16.56  121.24   11.62   31.95  -44.42  179.92

DOCKED: MODEL        3
DOCKED: USER    Run = 3
DOCKED: USER    DPF = D:/Protein_go_brrr/autodock/final/6BB5/heme_Co/dock.dpf
DOCKED: USER  
DOCKED: USER    Estimated Free Energy of Binding    =  -13.44 kcal/mol  [=(1)+(2)+(3)-(4)]
DOCKED: USER    Estimated Inhibition Constant, Ki   =  141.58 pM (picomolar)  [Temperature = 298.15 K]
DOCKED: USER    
DOCKED: USER    (1) Final Intermolecular Energy     =  -17.02 kcal/mol
DOCKED: USER        vdW + Hbond + desolv Energy     =  -15.47 kcal/mol
DOCKED: USER        Electrostatic Energy            =   -1.54 kcal/mol
DOCKED: USER    (2) Final Total Internal Energy     =   -1.49 kcal/mol
DOCKED: USER    (3) Torsional Free Energy           =   +3.58 kcal/mol
DOCKED: USER    (4) Unbound System's Energy  [=(2)] =   -1.49 kcal/mol
DOCKED: USER    
DOCKED: USER    
DOCKED: USER    NEWDPF move heme_Co_opt.pdbqt
DOCKED: USER    NEWDPF about 8.781000 34.984000 -0.736000
DOCKED: USER    NEWDPF tran0 40.629427 28.611174 15.660806
DOCKED: USER    NEWDPF quaternion0 0.373671 -0.397510 -0.837310 0.035594
DOCKED: USER    NEWDPF axisangle0 0.373908 -0.397762 -0.837841 175.920329
DOCKED: USER    NEWDPF quat0 0.373908 -0.397762 -0.837841 175.920329
DOCKED: USER    NEWDPF dihe0 34.87 125.22 -96.00 -91.89 -65.49 20.17 16.56 121.24 11.62 31.95 -44.42 179.92 
DOCKED: USER  keepresnum = 1 
DOCKED: USER  
DOCKED: REMARK  12 active torsions:
DOCKED: REMARK  status: ('A' for Active; 'I' for Inactive)
DOCKED: REMARK    1  A    between atoms: C_6  and  C_10 
DOCKED: REMARK    2  A    between atoms: C_10  and  C_11 
DOCKED: REMARK    3  A    between atoms: C_11  and  C_12 
DOCKED: REMARK    4  A    between atoms: C_12  and  O_14 
DOCKED: REMARK    5  A    between atoms: C_17  and  C_20 
DOCKED: REMARK    6  A    between atoms: C_24  and  C_27 
DOCKED: REMARK    7  A    between atoms: C_31  and  C_34 
DOCKED: REMARK    8  A    between atoms: C_34  and  C_35 
DOCKED: REMARK    9  A    between atoms: C_35  and  C_36 
DOCKED: REMARK   10  A    between atoms: C_36  and  O_38 
DOCKED: REMARK   11  A    between atoms: FE_43  and  C_44 
DOCKED: REMARK   12  A    between atoms: C_44  and  O_45 
DOCKED: USER                              x       y       z     vdW  Elec       q    Type
DOCKED: USER                           _______ _______ _______ _____ _____    ______ ____
DOCKED: ROOT
DOCKED: ATOM      1  C   UNL d   1      42.349  28.142  16.901 -0.07 +0.02    +0.064 A 
DOCKED: ATOM      2  C   UNL d   1      40.162  32.242  15.889 -0.44 +0.01    +0.064 C 
DOCKED: ATOM      3  C   UNL d   1      37.286  29.990  12.809 -0.29 +0.01    +0.064 A 
DOCKED: ATOM      4  C   UNL d   1      39.245  25.733  14.111 -0.42 +0.01    +0.064 A 
DOCKED: ATOM      5  C   UNL d   1      41.987  29.433  16.824 -0.24 +0.01    +0.066 A 
DOCKED: ATOM      6  C   UNL d   1      42.562  30.421  17.647 -0.35 -0.00    -0.021 A 
DOCKED: ATOM      7  C   UNL d   1      41.908  31.605  17.365 -0.44 -0.00    -0.025 A 
DOCKED: ATOM      8  C   UNL d   1      40.974  31.292  16.372 -0.37 +0.01    +0.066 A 
DOCKED: ATOM      9  C   UNL d   1      42.142  32.985  17.998 -0.47 +0.00    +0.051 C 
DOCKED: ATOM     10  C   UNL d   1      39.189  32.019  14.850 -0.37 +0.01    +0.066 A 
DOCKED: ATOM     11  C   UNL d   1      38.406  33.001  14.203 -0.39 -0.00    -0.021 A 
DOCKED: ATOM     12  C   UNL d   1      37.580  32.317  13.307 -0.41 +0.00    +0.000 A 
DOCKED: ATOM     13  C   UNL d   1      37.927  30.975  13.464 -0.37 +0.01    +0.070 A 
DOCKED: ATOM     14  C   UNL d   1      38.525  34.493  14.376 -0.49 +0.00    +0.052 C 
DOCKED: ATOM     15  C   UNL d   1      37.478  28.556  12.890 -0.43 +0.01    +0.066 A 
DOCKED: ATOM     16  C   UNL d   1      36.685  27.584  12.296 -0.54 -0.00    -0.021 A 
DOCKED: ATOM     17  C   UNL d   1      37.244  26.355  12.670 -0.47 +0.00    +0.000 A 
DOCKED: ATOM     18  C   UNL d   1      38.349  26.674  13.453 -0.39 +0.01    +0.070 A 
DOCKED: ATOM     19  C   UNL d   1      35.473  27.850  11.430 -0.43 +0.00    +0.052 C 
DOCKED: ATOM     20  C   UNL d   1      40.273  26.019  14.946 -0.40 +0.01    +0.066 A 
DOCKED: ATOM     21  C   UNL d   1      41.041  25.024  15.548 -0.41 -0.00    -0.025 A 
DOCKED: ATOM     22  C   UNL d   1      41.963  25.690  16.335 -0.37 -0.00    -0.021 A 
DOCKED: ATOM     23  C   UNL d   1      41.701  27.068  16.183 -0.33 +0.01    +0.066 A 
DOCKED: ATOM     24  C   UNL d   1      40.893  23.513  15.396 -0.55 +0.01    +0.051 C 
DOCKED: ATOM     25  N   UNL d   1      41.004  29.955  16.013 +0.08 -0.07    -0.248 N 
DOCKED: ATOM     26  N   UNL d   1      38.938  30.802  14.356 -0.20 -0.04    -0.248 N 
DOCKED: ATOM     27  N   UNL d   1      38.440  27.993  13.587 -0.22 -0.04    -0.248 N 
DOCKED: ATOM     28  N   UNL d   1      40.678  27.271  15.345 -0.21 -0.06    -0.248 N 
DOCKED: ATOM     29 FE   UNL d   1      39.648  28.913  14.729 -0.08 +0.00    +0.000 Fe
DOCKED: ENDROOT
DOCKED: BRANCH   6  30
DOCKED: ATOM     30  C   UNL d   1      43.635  30.208  18.710 -0.35 +0.02    +0.052 C 
DOCKED: BRANCH  30  31
DOCKED: ATOM     31  C   UNL d   1      44.680  29.204  18.225 -0.23 +0.04    +0.115 C 
DOCKED: BRANCH  31  32
DOCKED: ATOM     32  C   UNL d   1      45.630  28.783  19.325 -0.17 +0.08    +0.139 C 
DOCKED: ATOM     33  O   UNL d   1      46.807  29.105  19.259 +0.02 -0.32    -0.650 OA
DOCKED: BRANCH  32  34
DOCKED: ATOM     34  O   UNL d   1      45.209  28.096  20.412 -0.10 -0.89    -0.776 OA
DOCKED: ATOM     35  H   UNL d   1      44.467  27.476  20.410 +0.05 +0.18    +0.167 HD
DOCKED: ENDBRANCH  32  34
DOCKED: ENDBRANCH  31  32
DOCKED: ENDBRANCH  30  31
DOCKED: ENDBRANCH   6  30
DOCKED: BRANCH  29  36
DOCKED: ATOM     36  C   UNL d   1      38.371  28.763  16.385 -0.27 +0.05    +0.190 C 
DOCKED: BRANCH  36  37
DOCKED: ATOM     37  O   UNL d   1      37.555  27.869  17.085 -0.64 -0.09    -0.399 OA
DOCKED: ATOM     38  H   UNL d   1      37.785  26.970  16.718 +0.12 +0.05    +0.209 HD
DOCKED: ENDBRANCH  36  37
DOCKED: ENDBRANCH  29  36
DOCKED: BRANCH  22  39
DOCKED: ATOM     39  C   UNL d   1      42.993  25.030  17.233 -0.33 +0.01    +0.052 C 
DOCKED: BRANCH  39  40
DOCKED: ATOM     40  C   UNL d   1      42.344  24.549  18.541 -0.38 +0.03    +0.115 C 
DOCKED: BRANCH  40  41
DOCKED: ATOM     41  C   UNL d   1      43.295  24.466  19.717 -0.30 +0.06    +0.139 C 
DOCKED: ATOM     42  O   UNL d   1      43.749  23.379  20.043 -0.37 -0.29    -0.650 OA
DOCKED: BRANCH  41  43
DOCKED: ATOM     43  O   UNL d   1      43.724  25.573  20.362 +0.03 -0.50    -0.776 OA
DOCKED: ATOM     44  H   UNL d   1      44.520  26.053  20.097 +0.06 +0.12    +0.167 HD
DOCKED: ENDBRANCH  41  43
DOCKED: ENDBRANCH  40  41
DOCKED: ENDBRANCH  39  40
DOCKED: ENDBRANCH  22  39
DOCKED: BRANCH  12  45
DOCKED: ATOM     45  C   UNL d   1      36.522  32.777  12.313 -0.51 +0.00    +0.004 C 
DOCKED: ATOM     46  C   UNL d   1      35.194  32.784  12.402 -0.68 +0.00    +0.012 C 
DOCKED: ENDBRANCH  12  45
DOCKED: BRANCH  17  47
DOCKED: ATOM     47  C   UNL d   1      36.778  24.966  12.380 -0.65 +0.00    +0.004 C 
DOCKED: ATOM     48  C   UNL d   1      35.895  24.311  13.138 -0.73 +0.00    +0.012 C 
DOCKED: ENDBRANCH  17  47
DOCKED: TORSDOF 12
DOCKED: TER
DOCKED: ENDMDL
________________________________________________________________________________


	BEGINNING GENETIC ALGORITHM DOCKING 4 of 100
Run: 4 Seed: 1770313267 229235995 [ Run 4 of 100 GA/GALS ]
Beginning LAMARCKIAN GENETIC ALGORITHM (LGA), with a maximum of 25000000 energy evaluations.

Final-Value: -11.809


	FINAL GENETIC ALGORITHM DOCKED STATE
	_______________________________________________


Detailed state:  trans 35.187 29.625 0.832 quatxyzw 0.770583 -0.438211 -0.052164 0.459839 center 8.781 34.984 -0.736 ntor 12 134.3330 129.7621 -156.5646 58.7773 137.9406 120.7667 -110.5046 83.4930 -119.0222 113.2136 172.2033 -166.8562
State:	 35.187  29.625   0.832   0.868 -0.493 -0.059 125.247    134.33  129.76 -156.56   58.78  137.94  120.77 -110.50   83.49 -119.02  113.21  172.20 -166.86

DOCKED: MODEL        4
DOCKED: USER    Run = 4
DOCKED: USER    DPF = D:/Protein_go_brrr/autodock/final/6BB5/heme_Co/dock.dpf
DOCKED: USER  
DOCKED: USER    Estimated Free Energy of Binding    =   -5.07 kcal/mol  [=(1)+(2)+(3)-(4)]
DOCKED: USER    Estimated Inhibition Constant, Ki   =  191.68 uM (micromolar)  [Temperature = 298.15 K]
DOCKED: USER    
DOCKED: USER    (1) Final Intermolecular Energy     =   -8.65 kcal/mol
DOCKED: USER        vdW + Hbond + desolv Energy     =   -6.72 kcal/mol
DOCKED: USER        Electrostatic Energy            =   -1.93 kcal/mol
DOCKED: USER    (2) Final Total Internal Energy     =   -3.16 kcal/mol
DOCKED: USER    (3) Torsional Free Energy           =   +3.58 kcal/mol
DOCKED: USER    (4) Unbound System's Energy  [=(2)] =   -3.16 kcal/mol
DOCKED: USER    
DOCKED: USER    
DOCKED: USER    NEWDPF move heme_Co_opt.pdbqt
DOCKED: USER    NEWDPF about 8.781000 34.984000 -0.736000
DOCKED: USER    NEWDPF tran0 35.186510 29.624836 0.832128
DOCKED: USER    NEWDPF quaternion0 0.770583 -0.438211 -0.052164 0.459839
DOCKED: USER    NEWDPF axisangle0 0.867772 -0.493479 -0.058743 125.246573
DOCKED: USER    NEWDPF quat0 0.867772 -0.493479 -0.058743 125.246573
DOCKED: USER    NEWDPF dihe0 134.33 129.76 -156.56 58.78 137.94 120.77 -110.50 83.49 -119.02 113.21 172.20 -166.86 
DOCKED: USER  keepresnum = 1 
DOCKED: USER  
DOCKED: REMARK  12 active torsions:
DOCKED: REMARK  status: ('A' for Active; 'I' for Inactive)
DOCKED: REMARK    1  A    between atoms: C_6  and  C_10 
DOCKED: REMARK    2  A    between atoms: C_10  and  C_11 
DOCKED: REMARK    3  A    between atoms: C_11  and  C_12 
DOCKED: REMARK    4  A    between atoms: C_12  and  O_14 
DOCKED: REMARK    5  A    between atoms: C_17  and  C_20 
DOCKED: REMARK    6  A    between atoms: C_24  and  C_27 
DOCKED: REMARK    7  A    between atoms: C_31  and  C_34 
DOCKED: REMARK    8  A    between atoms: C_34  and  C_35 
DOCKED: REMARK    9  A    between atoms: C_35  and  C_36 
DOCKED: REMARK   10  A    between atoms: C_36  and  O_38 
DOCKED: REMARK   11  A    between atoms: FE_43  and  C_44 
DOCKED: REMARK   12  A    between atoms: C_44  and  O_45 
DOCKED: USER                              x       y       z     vdW  Elec       q    Type
DOCKED: USER                           _______ _______ _______ _____ _____    ______ ____
DOCKED: ROOT
DOCKED: ATOM      1  C   UNL d   1      33.370  30.101   1.923 -0.26 +0.02    +0.064 A 
DOCKED: ATOM      2  C   UNL d   1      37.268  32.643   0.942 -0.23 -0.01    +0.064 C 
DOCKED: ATOM      3  C   UNL d   1      39.307  28.813  -1.059 -0.18 -0.00    +0.064 A 
DOCKED: ATOM      4  C   UNL d   1      35.191  26.301  -0.415 -0.14 -0.01    +0.064 A 
DOCKED: ATOM      5  C   UNL d   1      34.299  31.067   1.834 -0.20 +0.01    +0.066 A 
DOCKED: ATOM      6  C   UNL d   1      34.048  32.387   2.257 -0.19 -0.00    -0.021 A 
DOCKED: ATOM      7  C   UNL d   1      35.174  33.125   1.949 -0.22 -0.00    -0.025 A 
DOCKED: ATOM      8  C   UNL d   1      36.070  32.222   1.368 -0.19 -0.00    +0.066 A 
DOCKED: ATOM      9  C   UNL d   1      35.412  34.624   2.187 -0.15 -0.00    +0.051 C 
DOCKED: ATOM     10  C   UNL d   1      38.264  31.781   0.356 -0.23 -0.01    +0.066 A 
DOCKED: ATOM     11  C   UNL d   1      39.590  32.132   0.019 -0.28 +0.00    -0.021 A 
DOCKED: ATOM     12  C   UNL d   1      40.163  30.996  -0.559 -0.27 -0.00    +0.000 A 
DOCKED: ATOM     13  C   UNL d   1      39.152  30.035  -0.520 -0.23 -0.00    +0.070 A 
DOCKED: ATOM     14  C   UNL d   1      40.271  33.441   0.326 -0.37 -0.01    +0.052 C 
DOCKED: ATOM     15  C   UNL d   1      38.357  27.722  -1.154 -0.15 -0.00    +0.066 A 
DOCKED: ATOM     16  C   UNL d   1      38.532  26.536  -1.852 -0.10 +0.00    -0.021 A 
DOCKED: ATOM     17  C   UNL d   1      37.347  25.809  -1.672 -0.09 -0.00    +0.000 A 
DOCKED: ATOM     18  C   UNL d   1      36.545  26.605  -0.860 -0.11 -0.00    +0.070 A 
DOCKED: ATOM     19  C   UNL d   1      39.769  26.154  -2.635 -0.08 +0.00    +0.052 C 
DOCKED: ATOM     20  C   UNL d   1      34.361  27.096   0.302 -0.19 -0.00    +0.066 A 
DOCKED: ATOM     21  C   UNL d   1      33.066  26.707   0.639 -0.21 +0.00    -0.025 A 
DOCKED: ATOM     22  C   UNL d   1      32.527  27.771   1.338 -0.28 -0.00    -0.021 A 
DOCKED: ATOM     23  C   UNL d   1      33.523  28.769   1.383 -0.22 +0.01    +0.066 A 
DOCKED: ATOM     24  C   UNL d   1      32.369  25.393   0.295 -0.03 -0.01    +0.051 C 
DOCKED: ATOM     25  N   UNL d   1      35.556  30.938   1.289 -0.12 -0.02    -0.248 N 
DOCKED: ATOM     26  N   UNL d   1      38.024  30.495   0.084 -0.15 +0.01    -0.248 N 
DOCKED: ATOM     27  N   UNL d   1      37.167  27.750  -0.597 -0.10 -0.00    -0.248 N 
DOCKED: ATOM     28  N   UNL d   1      34.634  28.366   0.755 +0.04 -0.02    -0.248 N 
DOCKED: ATOM     29 FE   UNL d   1      36.406  29.247   0.291 -0.05 +0.00    +0.000 Fe
DOCKED: ENDROOT
DOCKED: BRANCH   6  30
DOCKED: ATOM     30  C   UNL d   1      32.749  32.919   2.852 -0.17 +0.03    +0.052 C 
DOCKED: BRANCH  30  31
DOCKED: ATOM     31  C   UNL d   1      31.975  33.731   1.814 -0.06 +0.06    +0.115 C 
DOCKED: BRANCH  31  32
DOCKED: ATOM     32  C   UNL d   1      31.630  32.918   0.585 -0.04 +0.10    +0.139 C 
DOCKED: ATOM     33  O   UNL d   1      30.457  32.762   0.278 -0.33 -0.89    -0.650 OA
DOCKED: BRANCH  32  34
DOCKED: ATOM     34  O   UNL d   1      32.583  32.393  -0.218 +0.02 -0.31    -0.776 OA
DOCKED: ATOM     35  H   UNL d   1      32.603  31.470  -0.507 +0.02 +0.07    +0.167 HD
DOCKED: ENDBRANCH  32  34
DOCKED: ENDBRANCH  31  32
DOCKED: ENDBRANCH  30  31
DOCKED: ENDBRANCH   6  30
DOCKED: BRANCH  29  36
DOCKED: ATOM     36  C   UNL d   1      35.586  30.020  -1.476 -0.04 +0.01    +0.190 C 
DOCKED: BRANCH  36  37
DOCKED: ATOM     37  O   UNL d   1      34.489  30.727  -1.980 +0.00 -0.04    -0.399 OA
DOCKED: ATOM     38  H   UNL d   1      34.064  31.145  -1.180 +0.02 +0.03    +0.209 HD
DOCKED: ENDBRANCH  36  37
DOCKED: ENDBRANCH  29  36
DOCKED: BRANCH  22  39
DOCKED: ATOM     39  C   UNL d   1      31.110  27.843   1.874 -0.24 +0.03    +0.052 C 
DOCKED: BRANCH  39  40
DOCKED: ATOM     40  C   UNL d   1      30.093  27.858   0.720 -0.15 +0.07    +0.115 C 
DOCKED: BRANCH  40  41
DOCKED: ATOM     41  C   UNL d   1      30.048  29.158  -0.056 +0.02 +0.15    +0.139 C 
DOCKED: ATOM     42  O   UNL d   1      28.966  29.616  -0.394 +0.04 -0.74    -0.650 OA
DOCKED: BRANCH  41  43
DOCKED: ATOM     43  O   UNL d   1      31.167  29.871  -0.311 +0.01 -0.62    -0.776 OA
DOCKED: ATOM     44  H   UNL d   1      31.159  30.833  -0.407 +0.02 +0.15    +0.167 HD
DOCKED: ENDBRANCH  41  43
DOCKED: ENDBRANCH  40  41
DOCKED: ENDBRANCH  39  40
DOCKED: ENDBRANCH  22  39
DOCKED: BRANCH  12  45
DOCKED: ATOM     45  C   UNL d   1      41.547  30.704  -1.122 -0.33 -0.00    +0.004 C 
DOCKED: ATOM     46  C   UNL d   1      42.754  30.901  -0.600 -0.46 -0.00    +0.012 C 
DOCKED: ENDBRANCH  12  45
DOCKED: BRANCH  17  47
DOCKED: ATOM     47  C   UNL d   1      36.940  24.491  -2.242 -0.04 -0.00    +0.004 C 
DOCKED: ATOM     48  C   UNL d   1      36.709  23.405  -1.499 -0.05 -0.00    +0.012 C 
DOCKED: ENDBRANCH  17  47
DOCKED: TORSDOF 12
DOCKED: TER
DOCKED: ENDMDL
________________________________________________________________________________


	BEGINNING GENETIC ALGORITHM DOCKING 5 of 100
Run: 5 Seed: 1478414969 198477694 [ Run 5 of 100 GA/GALS ]
Beginning LAMARCKIAN GENETIC ALGORITHM (LGA), with a maximum of 25000000 energy evaluations.

Final-Value: -19.224


	FINAL GENETIC ALGORITHM DOCKED STATE
	_______________________________________________


Detailed state:  trans 40.616 28.856 15.613 quatxyzw -0.369952 0.403462 0.836811 -0.010117 center 8.781 34.984 -0.736 ntor 12 142.6558 122.7977 -24.7921 -77.2893 -63.1619 16.5197 102.0228 115.3624 -56.7420 10.8095 -144.9080 180.0000
State:	 40.616  28.856  15.613  -0.370  0.403  0.837 -178.841    142.66  122.80  -24.79  -77.29  -63.16   16.52  102.02  115.36  -56.74   10.81 -144.91  180.00

DOCKED: MODEL        5
DOCKED: USER    Run = 5
DOCKED: USER    DPF = D:/Protein_go_brrr/autodock/final/6BB5/heme_Co/dock.dpf
DOCKED: USER  
DOCKED: USER    Estimated Free Energy of Binding    =  -13.30 kcal/mol  [=(1)+(2)+(3)-(4)]
DOCKED: USER    Estimated Inhibition Constant, Ki   =  179.64 pM (picomolar)  [Temperature = 298.15 K]
DOCKED: USER    
DOCKED: USER    (1) Final Intermolecular Energy     =  -16.87 kcal/mol
DOCKED: USER        vdW + Hbond + desolv Energy     =  -15.09 kcal/mol
DOCKED: USER        Electrostatic Energy            =   -1.79 kcal/mol
DOCKED: USER    (2) Final Total Internal Energy     =   -2.35 kcal/mol
DOCKED: USER    (3) Torsional Free Energy           =   +3.58 kcal/mol
DOCKED: USER    (4) Unbound System's Energy  [=(2)] =   -2.35 kcal/mol
DOCKED: USER    
DOCKED: USER    
DOCKED: USER    NEWDPF move heme_Co_opt.pdbqt
DOCKED: USER    NEWDPF about 8.781000 34.984000 -0.736000
DOCKED: USER    NEWDPF tran0 40.615873 28.855549 15.613020
DOCKED: USER    NEWDPF quaternion0 -0.369952 0.403462 0.836811 -0.010117
DOCKED: USER    NEWDPF axisangle0 -0.369971 0.403482 0.836853 -178.840680
DOCKED: USER    NEWDPF quat0 -0.369971 0.403482 0.836853 -178.840680
DOCKED: USER    NEWDPF dihe0 142.66 122.80 -24.79 -77.29 -63.16 16.52 102.02 115.36 -56.74 10.81 -144.91 180.00 
DOCKED: USER  keepresnum = 1 
DOCKED: USER  
DOCKED: REMARK  12 active torsions:
DOCKED: REMARK  status: ('A' for Active; 'I' for Inactive)
DOCKED: REMARK    1  A    between atoms: C_6  and  C_10 
DOCKED: REMARK    2  A    between atoms: C_10  and  C_11 
DOCKED: REMARK    3  A    between atoms: C_11  and  C_12 
DOCKED: REMARK    4  A    between atoms: C_12  and  O_14 
DOCKED: REMARK    5  A    between atoms: C_17  and  C_20 
DOCKED: REMARK    6  A    between atoms: C_24  and  C_27 
DOCKED: REMARK    7  A    between atoms: C_31  and  C_34 
DOCKED: REMARK    8  A    between atoms: C_34  and  C_35 
DOCKED: REMARK    9  A    between atoms: C_35  and  C_36 
DOCKED: REMARK   10  A    between atoms: C_36  and  O_38 
DOCKED: REMARK   11  A    between atoms: FE_43  and  C_44 
DOCKED: REMARK   12  A    between atoms: C_44  and  O_45 
DOCKED: USER                              x       y       z     vdW  Elec       q    Type
DOCKED: USER                           _______ _______ _______ _____ _____    ______ ____
DOCKED: ROOT
DOCKED: ATOM      1  C   UNL d   1      42.383  28.484  16.819 -0.17 +0.02    +0.064 A 
DOCKED: ATOM      2  C   UNL d   1      40.026  32.473  15.750 -0.45 +0.01    +0.064 C 
DOCKED: ATOM      3  C   UNL d   1      37.153  30.032  12.814 -0.30 +0.01    +0.064 A 
DOCKED: ATOM      4  C   UNL d   1      39.295  25.886  14.185 -0.41 +0.01    +0.064 A 
DOCKED: ATOM      5  C   UNL d   1      41.973  29.759  16.715 -0.26 +0.01    +0.066 A 
DOCKED: ATOM      6  C   UNL d   1      42.534  30.790  17.493 -0.37 -0.00    -0.021 A 
DOCKED: ATOM      7  C   UNL d   1      41.831  31.941  17.195 -0.45 -0.00    -0.025 A 
DOCKED: ATOM      8  C   UNL d   1      40.883  31.567  16.238 -0.37 +0.01    +0.066 A 
DOCKED: ATOM      9  C   UNL d   1      42.032  33.346  17.783 -0.24 +0.00    +0.051 C 
DOCKED: ATOM     10  C   UNL d   1      39.034  32.186  14.744 -0.37 +0.01    +0.066 A 
DOCKED: ATOM     11  C   UNL d   1      38.201  33.120  14.090 -0.38 -0.00    -0.021 A 
DOCKED: ATOM     12  C   UNL d   1      37.376  32.382  13.237 -0.41 +0.00    +0.000 A 
DOCKED: ATOM     13  C   UNL d   1      37.774  31.058  13.423 -0.36 +0.01    +0.070 A 
DOCKED: ATOM     14  C   UNL d   1      38.271  34.620  14.217 -0.49 +0.00    +0.052 C 
DOCKED: ATOM     15  C   UNL d   1      37.397  28.608  12.931 -0.43 +0.01    +0.066 A 
DOCKED: ATOM     16  C   UNL d   1      36.624  27.593  12.386 -0.54 -0.00    -0.021 A 
DOCKED: ATOM     17  C   UNL d   1      37.237  26.395  12.781 -0.47 +0.00    +0.000 A 
DOCKED: ATOM     18  C   UNL d   1      38.349  26.776  13.524 -0.38 +0.01    +0.070 A 
DOCKED: ATOM     19  C   UNL d   1      35.381  27.791  11.547 -0.44 +0.00    +0.052 C 
DOCKED: ATOM     20  C   UNL d   1      40.334  26.232  14.983 -0.40 +0.01    +0.066 A 
DOCKED: ATOM     21  C   UNL d   1      41.152  25.283  15.592 -0.40 -0.00    -0.025 A 
DOCKED: ATOM     22  C   UNL d   1      42.069  26.004  16.335 -0.36 -0.00    -0.021 A 
DOCKED: ATOM     23  C   UNL d   1      41.755  27.367  16.150 -0.32 +0.01    +0.066 A 
DOCKED: ATOM     24  C   UNL d   1      41.053  23.764  15.487 -0.53 +0.01    +0.051 C 
DOCKED: ATOM     25  N   UNL d   1      40.952  30.221  15.917 +0.04 -0.06    -0.248 N 
DOCKED: ATOM     26  N   UNL d   1      38.814  30.947  14.292 -0.23 -0.03    -0.248 N 
DOCKED: ATOM     27  N   UNL d   1      38.396  28.100  13.618 -0.22 -0.04    -0.248 N 
DOCKED: ATOM     28  N   UNL d   1      40.703  27.510  15.335 -0.16 -0.06    -0.248 N 
DOCKED: ATOM     29 FE   UNL d   1      39.600  29.095  14.700 -0.07 +0.00    +0.000 Fe
DOCKED: ENDROOT
DOCKED: BRANCH   6  30
DOCKED: ATOM     30  C   UNL d   1      43.641  30.646  18.532 -0.35 +0.02    +0.052 C 
DOCKED: BRANCH  30  31
DOCKED: ATOM     31  C   UNL d   1      43.205  29.704  19.654 +0.01 +0.06    +0.115 C 
DOCKED: BRANCH  31  32
DOCKED: ATOM     32  C   UNL d   1      44.131  28.515  19.802 -0.22 +0.11    +0.139 C 
DOCKED: ATOM     33  O   UNL d   1      44.753  28.113  18.830 +0.02 -0.34    -0.650 OA
DOCKED: BRANCH  32  34
DOCKED: ATOM     34  O   UNL d   1      44.332  27.907  20.994 -0.03 -1.27    -0.776 OA
DOCKED: ATOM     35  H   UNL d   1      44.385  26.949  21.113 +0.04 +0.25    +0.167 HD
DOCKED: ENDBRANCH  32  34
DOCKED: ENDBRANCH  31  32
DOCKED: ENDBRANCH  30  31
DOCKED: ENDBRANCH   6  30
DOCKED: BRANCH  29  36
DOCKED: ATOM     36  C   UNL d   1      38.374  28.950  16.393 -0.28 +0.04    +0.190 C 
DOCKED: BRANCH  36  37
DOCKED: ATOM     37  O   UNL d   1      37.565  28.062  17.111 -0.64 -0.10    -0.399 OA
DOCKED: ATOM     38  H   UNL d   1      37.739  27.169  16.702 +0.12 +0.05    +0.209 HD
DOCKED: ENDBRANCH  36  37
DOCKED: ENDBRANCH  29  36
DOCKED: BRANCH  22  39
DOCKED: ATOM     39  C   UNL d   1      43.145  25.407  17.222 -0.32 +0.01    +0.052 C 
DOCKED: BRANCH  39  40
DOCKED: ATOM     40  C   UNL d   1      42.548  24.941  18.560 -0.35 +0.03    +0.115 C 
DOCKED: BRANCH  40  41
DOCKED: ATOM     41  C   UNL d   1      43.569  24.444  19.562 -0.28 +0.06    +0.139 C 
DOCKED: ATOM     42  O   UNL d   1      43.656  23.244  19.783 -0.37 -0.28    -0.650 OA
DOCKED: BRANCH  41  43
DOCKED: ATOM     43  O   UNL d   1      44.449  25.282  20.154 +0.07 -0.47    -0.776 OA
DOCKED: ATOM     44  H   UNL d   1      44.652  26.157  19.799 +0.06 +0.11    +0.167 HD
DOCKED: ENDBRANCH  41  43
DOCKED: ENDBRANCH  40  41
DOCKED: ENDBRANCH  39  40
DOCKED: ENDBRANCH  22  39
DOCKED: BRANCH  12  45
DOCKED: ATOM     45  C   UNL d   1      36.277  32.775  12.259 -0.55 +0.00    +0.004 C 
DOCKED: ATOM     46  C   UNL d   1      34.977  32.984  12.455 -0.71 +0.00    +0.012 C 
DOCKED: ENDBRANCH  12  45
DOCKED: BRANCH  17  47
DOCKED: ATOM     47  C   UNL d   1      36.812  24.983  12.543 -0.67 +0.00    +0.004 C 
DOCKED: ATOM     48  C   UNL d   1      35.939  24.335  13.318 -0.72 +0.00    +0.012 C 
DOCKED: ENDBRANCH  17  47
DOCKED: TORSDOF 12
DOCKED: TER
DOCKED: ENDMDL
________________________________________________________________________________


	BEGINNING GENETIC ALGORITHM DOCKING 6 of 100
Run: 6 Seed: 983498372 594366529 [ Run 6 of 100 GA/GALS ]
Beginning LAMARCKIAN GENETIC ALGORITHM (LGA), with a maximum of 25000000 energy evaluations.

Final-Value: -11.058


	FINAL GENETIC ALGORITHM DOCKED STATE
	_______________________________________________


Detailed state:  trans 18.561 46.766 -5.173 quatxyzw -0.662241 -0.541428 -0.179376 -0.485918 center 8.781 34.984 -0.736 ntor 12 -107.8496 129.5089 -149.8369 1.0314 96.7834 124.2270 58.8114 148.3029 -111.6775 102.5278 162.1240 176.5285
State:	 18.561  46.766  -5.173  -0.758 -0.619 -0.205 -121.855   -107.85  129.51 -149.84    1.03   96.78  124.23   58.81  148.30 -111.68  102.53  162.12  176.53

DOCKED: MODEL        6
DOCKED: USER    Run = 6
DOCKED: USER    DPF = D:/Protein_go_brrr/autodock/final/6BB5/heme_Co/dock.dpf
DOCKED: USER  
DOCKED: USER    Estimated Free Energy of Binding    =   -4.34 kcal/mol  [=(1)+(2)+(3)-(4)]
DOCKED: USER    Estimated Inhibition Constant, Ki   =  663.88 uM (micromolar)  [Temperature = 298.15 K]
DOCKED: USER    
DOCKED: USER    (1) Final Intermolecular Energy     =   -7.92 kcal/mol
DOCKED: USER        vdW + Hbond + desolv Energy     =   -7.77 kcal/mol
DOCKED: USER        Electrostatic Energy            =   -0.14 kcal/mol
DOCKED: USER    (2) Final Total Internal Energy     =   -3.14 kcal/mol
DOCKED: USER    (3) Torsional Free Energy           =   +3.58 kcal/mol
DOCKED: USER    (4) Unbound System's Energy  [=(2)] =   -3.14 kcal/mol
DOCKED: USER    
DOCKED: USER    
DOCKED: USER    NEWDPF move heme_Co_opt.pdbqt
DOCKED: USER    NEWDPF about 8.781000 34.984000 -0.736000
DOCKED: USER    NEWDPF tran0 18.561079 46.765808 -5.172819
DOCKED: USER    NEWDPF quaternion0 -0.662241 -0.541428 -0.179376 -0.485918
DOCKED: USER    NEWDPF axisangle0 -0.757709 -0.619480 -0.205235 -121.854769
DOCKED: USER    NEWDPF quat0 -0.757709 -0.619480 -0.205235 -121.854769
DOCKED: USER    NEWDPF dihe0 -107.85 129.51 -149.84 1.03 96.78 124.23 58.81 148.30 -111.68 102.53 162.12 176.53 
DOCKED: USER  keepresnum = 1 
DOCKED: USER  
DOCKED: REMARK  12 active torsions:
DOCKED: REMARK  status: ('A' for Active; 'I' for Inactive)
DOCKED: REMARK    1  A    between atoms: C_6  and  C_10 
DOCKED: REMARK    2  A    between atoms: C_10  and  C_11 
DOCKED: REMARK    3  A    between atoms: C_11  and  C_12 
DOCKED: REMARK    4  A    between atoms: C_12  and  O_14 
DOCKED: REMARK    5  A    between atoms: C_17  and  C_20 
DOCKED: REMARK    6  A    between atoms: C_24  and  C_27 
DOCKED: REMARK    7  A    between atoms: C_31  and  C_34 
DOCKED: REMARK    8  A    between atoms: C_34  and  C_35 
DOCKED: REMARK    9  A    between atoms: C_35  and  C_36 
DOCKED: REMARK   10  A    between atoms: C_36  and  O_38 
DOCKED: REMARK   11  A    between atoms: FE_43  and  C_44 
DOCKED: REMARK   12  A    between atoms: C_44  and  O_45 
DOCKED: USER                              x       y       z     vdW  Elec       q    Type
DOCKED: USER                           _______ _______ _______ _____ _____    ______ ____
DOCKED: ROOT
DOCKED: ATOM      1  C   UNL d   1      18.575  45.033  -6.481 -0.27 +0.00    +0.064 A 
DOCKED: ATOM      2  C   UNL d   1      15.566  48.690  -6.055 -0.17 -0.01    +0.064 C 
DOCKED: ATOM      3  C   UNL d   1      18.019  50.318  -2.292 -0.27 -0.02    +0.064 A 
DOCKED: ATOM      4  C   UNL d   1      21.325  46.810  -2.945 -0.26 -0.01    +0.064 A 
DOCKED: ATOM      5  C   UNL d   1      17.552  45.892  -6.619 -0.26 -0.00    +0.066 A 
DOCKED: ATOM      6  C   UNL d   1      16.629  45.791  -7.678 -0.29 +0.00    -0.021 A 
DOCKED: ATOM      7  C   UNL d   1      15.772  46.868  -7.562 -0.23 +0.00    -0.025 A 
DOCKED: ATOM      8  C   UNL d   1      16.198  47.570  -6.429 -0.18 -0.01    +0.066 A 
DOCKED: ATOM      9  C   UNL d   1      14.592  47.236  -8.476 +0.13 -0.01    +0.051 C 
DOCKED: ATOM     10  C   UNL d   1      15.916  49.463  -4.890 -0.15 -0.01    +0.066 A 
DOCKED: ATOM     11  C   UNL d   1      15.208  50.566  -4.365 -0.21 +0.00    -0.021 A 
DOCKED: ATOM     12  C   UNL d   1      15.943  51.019  -3.266 -0.32 -0.00    +0.000 A 
DOCKED: ATOM     13  C   UNL d   1      17.035  50.154  -3.194 -0.26 -0.02    +0.070 A 
DOCKED: ATOM     14  C   UNL d   1      13.871  51.075  -4.839 -0.22 -0.01    +0.052 C 
DOCKED: ATOM     15  C   UNL d   1      19.238  49.555  -2.111 -0.09 -0.02    +0.066 A 
DOCKED: ATOM     16  C   UNL d   1      20.284  49.866  -1.254 -0.23 +0.00    -0.021 A 
DOCKED: ATOM     17  C   UNL d   1      21.241  48.858  -1.440 -0.20 -0.00    +0.000 A 
DOCKED: ATOM     18  C   UNL d   1      20.694  48.000  -2.388 -0.20 -0.01    +0.070 A 
DOCKED: ATOM     19  C   UNL d   1      20.333  51.061  -0.328 -0.25 -0.01    +0.052 C 
DOCKED: ATOM     20  C   UNL d   1      20.850  46.009  -3.929 -0.26 -0.01    +0.066 A 
DOCKED: ATOM     21  C   UNL d   1      21.565  44.913  -4.405 -0.27 +0.00    -0.025 A 
DOCKED: ATOM     22  C   UNL d   1      20.784  44.364  -5.406 -0.33 -0.00    -0.021 A 
DOCKED: ATOM     23  C   UNL d   1      19.627  45.166  -5.499 -0.32 -0.00    +0.066 A 
DOCKED: ATOM     24  C   UNL d   1      22.936  44.424  -3.945 -0.32 +0.00    +0.051 C 
DOCKED: ATOM     25  N   UNL d   1      17.295  46.984  -5.822 -0.14 +0.03    -0.248 N 
DOCKED: ATOM     26  N   UNL d   1      16.988  49.180  -4.142 -0.11 +0.06    -0.248 N 
DOCKED: ATOM     27  N   UNL d   1      19.514  48.463  -2.787 +0.05 +0.09    -0.248 N 
DOCKED: ATOM     28  N   UNL d   1      19.664  46.164  -4.608 -0.20 +0.03    -0.248 N 
DOCKED: ATOM     29 FE   UNL d   1      18.473  47.764  -4.215 -0.05 -0.00    +0.000 Fe
DOCKED: ENDROOT
DOCKED: BRANCH   6  30
DOCKED: ATOM     30  C   UNL d   1      16.632  44.749  -8.791 -0.28 -0.00    +0.052 C 
DOCKED: BRANCH  30  31
DOCKED: ATOM     31  C   UNL d   1      16.920  45.406 -10.141 -0.13 -0.01    +0.115 C 
DOCKED: BRANCH  31  32
DOCKED: ATOM     32  C   UNL d   1      18.324  45.966 -10.222 -0.05 +0.00    +0.139 C 
DOCKED: ATOM     33  O   UNL d   1      18.613  46.958  -9.570 +0.03 +0.00    -0.650 OA
DOCKED: BRANCH  32  34
DOCKED: ATOM     34  O   UNL d   1      19.291  45.374 -10.960 +0.04 -0.06    -0.776 OA
DOCKED: ATOM     35  H   UNL d   1      20.071  44.940 -10.588 +0.02 +0.02    +0.167 HD
DOCKED: ENDBRANCH  32  34
DOCKED: ENDBRANCH  31  32
DOCKED: ENDBRANCH  30  31
DOCKED: ENDBRANCH   6  30
DOCKED: BRANCH  29  36
DOCKED: ATOM     36  C   UNL d   1      19.484  48.901  -5.657 -0.03 -0.02    +0.190 C 
DOCKED: BRANCH  36  37
DOCKED: ATOM     37  O   UNL d   1      19.884  48.900  -6.997 +0.00 +0.01    -0.399 OA
DOCKED: ATOM     38  H   UNL d   1      19.336  48.187  -7.428 +0.02 -0.01    +0.209 HD
DOCKED: ENDBRANCH  36  37
DOCKED: ENDBRANCH  29  36
DOCKED: BRANCH  22  39
DOCKED: ATOM     39  C   UNL d   1      21.165  43.173  -6.266 -0.32 +0.01    +0.052 C 
DOCKED: BRANCH  39  40
DOCKED: ATOM     40  C   UNL d   1      22.077  43.610  -7.424 -0.12 +0.01    +0.115 C 
DOCKED: BRANCH  40  41
DOCKED: ATOM     41  C   UNL d   1      21.340  44.160  -8.627 -0.08 +0.02    +0.139 C 
DOCKED: ATOM     42  O   UNL d   1      20.731  43.392  -9.358 -0.01 -0.16    -0.650 OA
DOCKED: BRANCH  41  43
DOCKED: ATOM     43  O   UNL d   1      21.263  45.488  -8.866 +0.04 -0.05    -0.776 OA
DOCKED: ATOM     44  H   UNL d   1      20.473  45.904  -9.236 +0.02 +0.01    +0.167 HD
DOCKED: ENDBRANCH  41  43
DOCKED: ENDBRANCH  40  41
DOCKED: ENDBRANCH  39  40
DOCKED: ENDBRANCH  22  39
DOCKED: BRANCH  12  45
DOCKED: ATOM     45  C   UNL d   1      15.730  52.150  -2.270 -0.31 -0.00    +0.004 C 
DOCKED: ATOM     46  C   UNL d   1      14.826  53.126  -2.247 -0.39 -0.00    +0.012 C 
DOCKED: ENDBRANCH  12  45
DOCKED: BRANCH  17  47
DOCKED: ATOM     47  C   UNL d   1      22.597  48.706  -0.833 -0.15 +0.00    +0.004 C 
DOCKED: ATOM     48  C   UNL d   1      22.801  48.313   0.427 -0.19 +0.00    +0.012 C 
DOCKED: ENDBRANCH  17  47
DOCKED: TORSDOF 12
DOCKED: TER
DOCKED: ENDMDL
________________________________________________________________________________


	BEGINNING GENETIC ALGORITHM DOCKING 7 of 100
Run: 7 Seed: 880325047 1711482036 [ Run 7 of 100 GA/GALS ]
Beginning LAMARCKIAN GENETIC ALGORITHM (LGA), with a maximum of 25000000 energy evaluations.

Final-Value: -10.625


	FINAL GENETIC ALGORITHM DOCKED STATE
	_______________________________________________


Detailed state:  trans 21.104 46.495 -3.816 quatxyzw -0.449891 -0.869738 0.016319 -0.202206 center 8.781 34.984 -0.736 ntor 12 -155.6316 116.7067 -118.7903 109.6354 -81.3402 120.5021 45.1588 131.7886 -104.7811 84.3883 -178.8483 -158.7362
State:	 21.104  46.495  -3.816  -0.459 -0.888  0.017 -156.668   -155.63  116.71 -118.79  109.64  -81.34  120.50   45.16  131.79 -104.78   84.39 -178.85 -158.74

DOCKED: MODEL        7
DOCKED: USER    Run = 7
DOCKED: USER    DPF = D:/Protein_go_brrr/autodock/final/6BB5/heme_Co/dock.dpf
DOCKED: USER  
DOCKED: USER    Estimated Free Energy of Binding    =   -3.95 kcal/mol  [=(1)+(2)+(3)-(4)]
DOCKED: USER    Estimated Inhibition Constant, Ki   =    1.27 mM (millimolar)  [Temperature = 298.15 K]
DOCKED: USER    
DOCKED: USER    (1) Final Intermolecular Energy     =   -7.53 kcal/mol
DOCKED: USER        vdW + Hbond + desolv Energy     =   -7.50 kcal/mol
DOCKED: USER        Electrostatic Energy            =   -0.03 kcal/mol
DOCKED: USER    (2) Final Total Internal Energy     =   -3.10 kcal/mol
DOCKED: USER    (3) Torsional Free Energy           =   +3.58 kcal/mol
DOCKED: USER    (4) Unbound System's Energy  [=(2)] =   -3.10 kcal/mol
DOCKED: USER    
DOCKED: USER    
DOCKED: USER    NEWDPF move heme_Co_opt.pdbqt
DOCKED: USER    NEWDPF about 8.781000 34.984000 -0.736000
DOCKED: USER    NEWDPF tran0 21.104461 46.494965 -3.815682
DOCKED: USER    NEWDPF quaternion0 -0.449891 -0.869738 0.016319 -0.202206
DOCKED: USER    NEWDPF axisangle0 -0.459380 -0.888083 0.016663 -156.668073
DOCKED: USER    NEWDPF quat0 -0.459380 -0.888083 0.016663 -156.668073
DOCKED: USER    NEWDPF dihe0 -155.63 116.71 -118.79 109.64 -81.34 120.50 45.16 131.79 -104.78 84.39 -178.85 -158.74 
DOCKED: USER  keepresnum = 1 
DOCKED: USER  
DOCKED: REMARK  12 active torsions:
DOCKED: REMARK  status: ('A' for Active; 'I' for Inactive)
DOCKED: REMARK    1  A    between atoms: C_6  and  C_10 
DOCKED: REMARK    2  A    between atoms: C_10  and  C_11 
DOCKED: REMARK    3  A    between atoms: C_11  and  C_12 
DOCKED: REMARK    4  A    between atoms: C_12  and  O_14 
DOCKED: REMARK    5  A    between atoms: C_17  and  C_20 
DOCKED: REMARK    6  A    between atoms: C_24  and  C_27 
DOCKED: REMARK    7  A    between atoms: C_31  and  C_34 
DOCKED: REMARK    8  A    between atoms: C_34  and  C_35 
DOCKED: REMARK    9  A    between atoms: C_35  and  C_36 
DOCKED: REMARK   10  A    between atoms: C_36  and  O_38 
DOCKED: REMARK   11  A    between atoms: FE_43  and  C_44 
DOCKED: REMARK   12  A    between atoms: C_44  and  O_45 
DOCKED: USER                              x       y       z     vdW  Elec       q    Type
DOCKED: USER                           _______ _______ _______ _____ _____    ______ ____
DOCKED: ROOT
DOCKED: ATOM      1  C   UNL d   1      22.797  45.134  -3.793 -0.25 +0.00    +0.064 A 
DOCKED: ATOM      2  C   UNL d   1      18.718  45.119  -6.237 -0.33 +0.00    +0.064 C 
DOCKED: ATOM      3  C   UNL d   1      17.205  48.946  -3.808 -0.19 -0.02    +0.064 A 
DOCKED: ATOM      4  C   UNL d   1      21.517  49.214  -1.571 -0.13 -0.01    +0.064 A 
DOCKED: ATOM      5  C   UNL d   1      21.778  44.827  -4.613 -0.26 +0.00    +0.066 A 
DOCKED: ATOM      6  C   UNL d   1      21.867  43.785  -5.556 -0.25 -0.00    -0.021 A 
DOCKED: ATOM      7  C   UNL d   1      20.689  43.800  -6.278 -0.32 -0.00    -0.025 A 
DOCKED: ATOM      8  C   UNL d   1      19.927  44.839  -5.734 -0.31 +0.00    +0.066 A 
DOCKED: ATOM      9  C   UNL d   1      20.283  42.878  -7.438 -0.13 +0.01    +0.051 C 
DOCKED: ATOM     10  C   UNL d   1      17.851  46.152  -5.725 -0.29 -0.01    +0.066 A 
DOCKED: ATOM     11  C   UNL d   1      16.517  46.404  -6.115 -0.33 +0.00    -0.021 A 
DOCKED: ATOM     12  C   UNL d   1      16.100  47.522  -5.389 -0.30 -0.00    +0.000 A 
DOCKED: ATOM     13  C   UNL d   1      17.201  47.861  -4.602 -0.22 -0.01    +0.070 A 
DOCKED: ATOM     14  C   UNL d   1      15.687  45.561  -7.049 -0.37 -0.01    +0.052 C 
DOCKED: ATOM     15  C   UNL d   1      18.268  49.471  -2.973 -0.09 -0.02    +0.066 A 
DOCKED: ATOM     16  C   UNL d   1      18.256  50.678  -2.288 -0.28 +0.01    -0.021 A 
DOCKED: ATOM     17  C   UNL d   1      19.499  50.761  -1.644 -0.25 -0.00    +0.000 A 
DOCKED: ATOM     18  C   UNL d   1      20.166  49.586  -1.973 -0.17 -0.02    +0.070 A 
DOCKED: ATOM     19  C   UNL d   1      17.113  51.667  -2.274 -0.21 -0.01    +0.052 C 
DOCKED: ATOM     20  C   UNL d   1      22.218  48.119  -1.950 -0.15 -0.00    +0.066 A 
DOCKED: ATOM     21  C   UNL d   1      23.524  47.889  -1.525 -0.11 -0.00    -0.025 A 
DOCKED: ATOM     22  C   UNL d   1      23.909  46.705  -2.126 -0.11 -0.00    -0.021 A 
DOCKED: ATOM     23  C   UNL d   1      22.814  46.274  -2.904 -0.17 +0.00    +0.066 A 
DOCKED: ATOM     24  C   UNL d   1      24.373  48.765  -0.607 -0.07 +0.00    +0.051 C 
DOCKED: ATOM     25  N   UNL d   1      20.574  45.489  -4.698 -0.19 +0.02    -0.248 N 
DOCKED: ATOM     26  N   UNL d   1      18.239  46.998  -4.766 -0.17 +0.04    -0.248 N 
DOCKED: ATOM     27  N   UNL d   1      19.415  48.856  -2.791 -0.05 +0.08    -0.248 N 
DOCKED: ATOM     28  N   UNL d   1      21.789  47.128  -2.802 -0.16 +0.01    -0.248 N 
DOCKED: ATOM     29 FE   UNL d   1      19.963  47.272  -3.685 -0.05 -0.00    +0.000 Fe
DOCKED: ENDROOT
DOCKED: BRANCH   6  30
DOCKED: ATOM     30  C   UNL d   1      23.067  42.876  -5.798 -0.17 +0.01    +0.052 C 
DOCKED: BRANCH  30  31
DOCKED: ATOM     31  C   UNL d   1      23.934  43.421  -6.932 -0.08 +0.01    +0.115 C 
DOCKED: BRANCH  31  32
DOCKED: ATOM     32  C   UNL d   1      24.724  44.644  -6.519 -0.03 +0.01    +0.139 C 
DOCKED: ATOM     33  O   UNL d   1      24.197  45.746  -6.572 +0.02 -0.03    -0.650 OA
DOCKED: BRANCH  32  34
DOCKED: ATOM     34  O   UNL d   1      25.988  44.556  -6.043 +0.03 -0.05    -0.776 OA
DOCKED: ATOM     35  H   UNL d   1      26.420  45.243  -5.518 +0.01 +0.01    +0.167 HD
DOCKED: ENDBRANCH  32  34
DOCKED: ENDBRANCH  31  32
DOCKED: ENDBRANCH  30  31
DOCKED: ENDBRANCH   6  30
DOCKED: BRANCH  29  36
DOCKED: ATOM     36  C   UNL d   1      20.797  48.334  -5.289 -0.03 -0.01    +0.190 C 
DOCKED: BRANCH  36  37
DOCKED: ATOM     37  O   UNL d   1      21.844  48.310  -6.217 +0.00 +0.00    -0.399 OA
DOCKED: ATOM     38  H   UNL d   1      22.317  47.448  -6.048 +0.03 +0.00    +0.209 HD
DOCKED: ENDBRANCH  36  37
DOCKED: ENDBRANCH  29  36
DOCKED: BRANCH  22  39
DOCKED: ATOM     39  C   UNL d   1      25.279  46.063  -2.008 -0.11 +0.01    +0.052 C 
DOCKED: BRANCH  39  40
DOCKED: ATOM     40  C   UNL d   1      26.376  47.033  -2.478 -0.04 +0.01    +0.115 C 
DOCKED: BRANCH  40  41
DOCKED: ATOM     41  C   UNL d   1      26.892  46.763  -3.875 -0.02 +0.01    +0.139 C 
DOCKED: ATOM     42  O   UNL d   1      27.842  46.009  -4.027 +0.01 -0.05    -0.650 OA
DOCKED: BRANCH  41  43
DOCKED: ATOM     43  O   UNL d   1      26.276  47.264  -4.969 +0.01 -0.04    -0.776 OA
DOCKED: ATOM     44  H   UNL d   1      25.820  46.704  -5.611 +0.01 +0.01    +0.167 HD
DOCKED: ENDBRANCH  41  43
DOCKED: ENDBRANCH  40  41
DOCKED: ENDBRANCH  39  40
DOCKED: ENDBRANCH  22  39
DOCKED: BRANCH  12  45
DOCKED: ATOM     45  C   UNL d   1      14.788  48.293  -5.333 -0.36 -0.00    +0.004 C 
DOCKED: ATOM     46  C   UNL d   1      13.801  48.261  -4.441 -0.52 -0.00    +0.012 C 
DOCKED: ENDBRANCH  12  45
DOCKED: BRANCH  17  47
DOCKED: ATOM     47  C   UNL d   1      20.072  51.864  -0.816 -0.20 -0.00    +0.004 C 
DOCKED: ATOM     48  C   UNL d   1      20.993  52.720  -1.265 -0.14 -0.00    +0.012 C 
DOCKED: ENDBRANCH  17  47
DOCKED: TORSDOF 12
DOCKED: TER
DOCKED: ENDMDL
________________________________________________________________________________


	BEGINNING GENETIC ALGORITHM DOCKING 8 of 100
Run: 8 Seed: 1515009786 445777994 [ Run 8 of 100 GA/GALS ]
Beginning LAMARCKIAN GENETIC ALGORITHM (LGA), with a maximum of 25000000 energy evaluations.

Final-Value: -14.409


	FINAL GENETIC ALGORITHM DOCKED STATE
	_______________________________________________


Detailed state:  trans 44.730 24.507 17.855 quatxyzw -0.618144 -0.774857 0.108029 -0.076317 center 8.781 34.984 -0.736 ntor 12 7.3025 110.6208 -153.5723 108.9801 74.2698 106.1140 30.9325 111.6599 146.1966 123.9662 -148.3477 -180.0000
State:	 44.730  24.507  17.855  -0.620 -0.777  0.108 -171.246      7.30  110.62 -153.57  108.98   74.27  106.11   30.93  111.66  146.20  123.97 -148.35 -180.00

DOCKED: MODEL        8
DOCKED: USER    Run = 8
DOCKED: USER    DPF = D:/Protein_go_brrr/autodock/final/6BB5/heme_Co/dock.dpf
DOCKED: USER  
DOCKED: USER    Estimated Free Energy of Binding    =   -7.74 kcal/mol  [=(1)+(2)+(3)-(4)]
DOCKED: USER    Estimated Inhibition Constant, Ki   =    2.12 uM (micromolar)  [Temperature = 298.15 K]
DOCKED: USER    
DOCKED: USER    (1) Final Intermolecular Energy     =  -11.32 kcal/mol
DOCKED: USER        vdW + Hbond + desolv Energy     =   -8.21 kcal/mol
DOCKED: USER        Electrostatic Energy            =   -3.11 kcal/mol
DOCKED: USER    (2) Final Total Internal Energy     =   -3.09 kcal/mol
DOCKED: USER    (3) Torsional Free Energy           =   +3.58 kcal/mol
DOCKED: USER    (4) Unbound System's Energy  [=(2)] =   -3.09 kcal/mol
DOCKED: USER    
DOCKED: USER    
DOCKED: USER    NEWDPF move heme_Co_opt.pdbqt
DOCKED: USER    NEWDPF about 8.781000 34.984000 -0.736000
DOCKED: USER    NEWDPF tran0 44.729584 24.506722 17.855047
DOCKED: USER    NEWDPF quaternion0 -0.618144 -0.774857 0.108029 -0.076317
DOCKED: USER    NEWDPF axisangle0 -0.619952 -0.777123 0.108345 -171.246187
DOCKED: USER    NEWDPF quat0 -0.619952 -0.777123 0.108345 -171.246187
DOCKED: USER    NEWDPF dihe0 7.30 110.62 -153.57 108.98 74.27 106.11 30.93 111.66 146.20 123.97 -148.35 -180.00 
DOCKED: USER  keepresnum = 1 
DOCKED: USER  
DOCKED: REMARK  12 active torsions:
DOCKED: REMARK  status: ('A' for Active; 'I' for Inactive)
DOCKED: REMARK    1  A    between atoms: C_6  and  C_10 
DOCKED: REMARK    2  A    between atoms: C_10  and  C_11 
DOCKED: REMARK    3  A    between atoms: C_11  and  C_12 
DOCKED: REMARK    4  A    between atoms: C_12  and  O_14 
DOCKED: REMARK    5  A    between atoms: C_17  and  C_20 
DOCKED: REMARK    6  A    between atoms: C_24  and  C_27 
DOCKED: REMARK    7  A    between atoms: C_31  and  C_34 
DOCKED: REMARK    8  A    between atoms: C_34  and  C_35 
DOCKED: REMARK    9  A    between atoms: C_35  and  C_36 
DOCKED: REMARK   10  A    between atoms: C_36  and  O_38 
DOCKED: REMARK   11  A    between atoms: FE_43  and  C_44 
DOCKED: REMARK   12  A    between atoms: C_44  and  O_45 
DOCKED: USER                              x       y       z     vdW  Elec       q    Type
DOCKED: USER                           _______ _______ _______ _____ _____    ______ ____
DOCKED: ROOT
DOCKED: ATOM      1  C   UNL d   1      45.847  22.789  18.574 -0.13 +0.03    +0.064 A 
DOCKED: ATOM      2  C   UNL d   1      42.120  23.178  15.647 -0.28 +0.01    +0.064 C 
DOCKED: ATOM      3  C   UNL d   1      41.916  27.880  16.471 -0.18 +0.01    +0.064 A 
DOCKED: ATOM      4  C   UNL d   1      45.957  27.571  19.161 -0.12 +0.04    +0.064 A 
DOCKED: ATOM      5  C   UNL d   1      44.821  22.544  17.742 -0.19 +0.03    +0.066 A 
DOCKED: ATOM      6  C   UNL d   1      44.585  21.265  17.203 -0.11 -0.01    -0.021 A 
DOCKED: ATOM      7  C   UNL d   1      43.517  21.388  16.337 -0.29 -0.01    -0.025 A 
DOCKED: ATOM      8  C   UNL d   1      43.136  22.733  16.397 -0.20 +0.01    +0.066 A 
DOCKED: ATOM      9  C   UNL d   1      42.868  20.291  15.479 -0.23 +0.00    +0.051 C 
DOCKED: ATOM     10  C   UNL d   1      41.641  24.538  15.662 -0.34 +0.01    +0.066 A 
DOCKED: ATOM     11  C   UNL d   1      40.494  25.035  15.006 -0.45 -0.00    -0.021 A 
DOCKED: ATOM     12  C   UNL d   1      40.456  26.408  15.267 -0.44 +0.00    +0.000 A 
DOCKED: ATOM     13  C   UNL d   1      41.572  26.643  16.070 -0.35 +0.01    +0.070 A 
DOCKED: ATOM     14  C   UNL d   1      39.464  24.219  14.267 -0.49 +0.01    +0.052 C 
DOCKED: ATOM     15  C   UNL d   1      43.058  28.309  17.254 -0.17 +0.02    +0.066 A 
DOCKED: ATOM     16  C   UNL d   1      43.434  29.620  17.512 -0.30 -0.01    -0.021 A 
DOCKED: ATOM     17  C   UNL d   1      44.600  29.536  18.285 -0.25 +0.00    +0.000 A 
DOCKED: ATOM     18  C   UNL d   1      44.835  28.175  18.453 -0.18 +0.03    +0.070 A 
DOCKED: ATOM     19  C   UNL d   1      42.701  30.853  17.031 -0.37 +0.01    +0.052 C 
DOCKED: ATOM     20  C   UNL d   1      46.253  26.253  19.264 -0.08 +0.04    +0.066 A 
DOCKED: ATOM     21  C   UNL d   1      47.382  25.796  19.941 -0.04 -0.01    -0.025 A 
DOCKED: ATOM     22  C   UNL d   1      47.361  24.419  19.813 -0.03 -0.01    -0.021 A 
DOCKED: ATOM     23  C   UNL d   1      46.218  24.103  19.049 -0.07 +0.03    +0.066 A 
DOCKED: ATOM     24  C   UNL d   1      48.440  26.631  20.658 -0.03 +0.03    +0.051 C 
DOCKED: ATOM     25  N   UNL d   1      43.924  23.472  17.264 -0.14 -0.08    -0.248 N 
DOCKED: ATOM     26  N   UNL d   1      42.256  25.503  16.354 -0.21 -0.05    -0.248 N 
DOCKED: ATOM     27  N   UNL d   1      43.914  27.475  17.801 -0.13 -0.09    -0.248 N 
DOCKED: ATOM     28  N   UNL d   1      45.546  25.211  18.712 -0.05 -0.12    -0.248 N 
DOCKED: ATOM     29 FE   UNL d   1      43.921  25.592  17.551 -0.05 +0.00    +0.000 Fe
DOCKED: ENDROOT
DOCKED: BRANCH   6  30
DOCKED: ATOM     30  C   UNL d   1      45.409  20.006  17.455 -0.15 +0.02    +0.052 C 
DOCKED: BRANCH  30  31
DOCKED: ATOM     31  C   UNL d   1      46.827  20.174  16.912 -0.13 +0.10    +0.115 C 
DOCKED: BRANCH  31  32
DOCKED: ATOM     32  C   UNL d   1      46.864  20.986  15.635 -0.03 +0.20    +0.139 C 
DOCKED: ATOM     33  O   UNL d   1      46.926  20.411  14.558 -0.48 -0.92    -0.650 OA
DOCKED: BRANCH  32  34
DOCKED: ATOM     34  O   UNL d   1      46.781  22.337  15.641 -0.03 -1.05    -0.776 OA
DOCKED: ATOM     35  H   UNL d   1      46.738  22.876  16.443 +0.04 +0.17    +0.167 HD
DOCKED: ENDBRANCH  32  34
DOCKED: ENDBRANCH  31  32
DOCKED: ENDBRANCH  30  31
DOCKED: ENDBRANCH   6  30
DOCKED: BRANCH  29  36
DOCKED: ATOM     36  C   UNL d   1      45.137  25.710  15.847 +0.19 +0.07    +0.190 C 
DOCKED: BRANCH  36  37
DOCKED: ATOM     37  O   UNL d   1      46.283  25.168  15.257 +0.04 -0.21    -0.399 OA
DOCKED: ATOM     38  H   UNL d   1      46.634  24.517  15.927 +0.06 +0.15    +0.209 HD
DOCKED: ENDBRANCH  36  37
DOCKED: ENDBRANCH  29  36
DOCKED: BRANCH  22  39
DOCKED: ATOM     39  C   UNL d   1      48.419  23.470  20.344 -0.02 +0.02    +0.052 C 
DOCKED: BRANCH  39  40
DOCKED: ATOM     40  C   UNL d   1      49.648  23.457  19.420 -0.03 +0.06    +0.115 C 
DOCKED: BRANCH  40  41
DOCKED: ATOM     41  C   UNL d   1      49.366  22.982  18.010 -0.08 +0.16    +0.139 C 
DOCKED: ATOM     42  O   UNL d   1      49.807  21.903  17.643 -0.01 -1.12    -0.650 OA
DOCKED: BRANCH  41  43
DOCKED: ATOM     43  O   UNL d   1      48.565  23.678  17.173 -0.45 -1.00    -0.776 OA
DOCKED: ATOM     44  H   UNL d   1      48.008  23.249  16.511 +0.03 +0.30    +0.167 HD
DOCKED: ENDBRANCH  41  43
DOCKED: ENDBRANCH  40  41
DOCKED: ENDBRANCH  39  40
DOCKED: ENDBRANCH  22  39
DOCKED: BRANCH  12  45
DOCKED: ATOM     45  C   UNL d   1      39.489  27.514  14.868 -0.27 +0.00    +0.004 C 
DOCKED: ATOM     46  C   UNL d   1      38.507  28.095  15.552 -0.46 +0.00    +0.012 C 
DOCKED: ENDBRANCH  12  45
DOCKED: BRANCH  17  47
DOCKED: ATOM     47  C   UNL d   1      45.483  30.624  18.802 -0.24 +0.00    +0.004 C 
DOCKED: ATOM     48  C   UNL d   1      45.034  31.665  19.507 -0.27 +0.00    +0.012 C 
DOCKED: ENDBRANCH  17  47
DOCKED: TORSDOF 12
DOCKED: TER
DOCKED: ENDMDL
________________________________________________________________________________


	BEGINNING GENETIC ALGORITHM DOCKING 9 of 100
Run: 9 Seed: 639067137 1326829739 [ Run 9 of 100 GA/GALS ]
Beginning LAMARCKIAN GENETIC ALGORITHM (LGA), with a maximum of 25000000 energy evaluations.

Final-Value: -16.399


	FINAL GENETIC ALGORITHM DOCKED STATE
	_______________________________________________


Detailed state:  trans 8.828 34.549 -0.330 quatxyzw -0.012192 -0.000560 0.026766 0.999567 center 8.781 34.984 -0.736 ntor 12 125.5711 132.0045 -21.9052 60.2548 -87.5539 34.3632 12.1118 -34.2121 17.7116 9.8730 -19.5898 29.3379
State:	  8.828  34.549  -0.330  -0.414 -0.019  0.910  3.372    125.57  132.00  -21.91   60.25  -87.55   34.36   12.11  -34.21   17.71    9.87  -19.59   29.34

DOCKED: MODEL        9
DOCKED: USER    Run = 9
DOCKED: USER    DPF = D:/Protein_go_brrr/autodock/final/6BB5/heme_Co/dock.dpf
DOCKED: USER  
DOCKED: USER    Estimated Free Energy of Binding    =  -11.11 kcal/mol  [=(1)+(2)+(3)-(4)]
DOCKED: USER    Estimated Inhibition Constant, Ki   =    7.23 nM (nanomolar)  [Temperature = 298.15 K]
DOCKED: USER    
DOCKED: USER    (1) Final Intermolecular Energy     =  -14.69 kcal/mol
DOCKED: USER        vdW + Hbond + desolv Energy     =  -14.20 kcal/mol
DOCKED: USER        Electrostatic Energy            =   -0.49 kcal/mol
DOCKED: USER    (2) Final Total Internal Energy     =   -1.71 kcal/mol
DOCKED: USER    (3) Torsional Free Energy           =   +3.58 kcal/mol
DOCKED: USER    (4) Unbound System's Energy  [=(2)] =   -1.71 kcal/mol
DOCKED: USER    
DOCKED: USER    
DOCKED: USER    NEWDPF move heme_Co_opt.pdbqt
DOCKED: USER    NEWDPF about 8.781000 34.984000 -0.736000
DOCKED: USER    NEWDPF tran0 8.827954 34.548670 -0.330401
DOCKED: USER    NEWDPF quaternion0 -0.012192 -0.000560 0.026766 0.999567
DOCKED: USER    NEWDPF axisangle0 -0.414453 -0.019039 0.909872 3.371513
DOCKED: USER    NEWDPF quat0 -0.414453 -0.019039 0.909872 3.371513
DOCKED: USER    NEWDPF dihe0 125.57 132.00 -21.91 60.25 -87.55 34.36 12.11 -34.21 17.71 9.87 -19.59 29.34 
DOCKED: USER  keepresnum = 1 
DOCKED: USER  
DOCKED: REMARK  12 active torsions:
DOCKED: REMARK  status: ('A' for Active; 'I' for Inactive)
DOCKED: REMARK    1  A    between atoms: C_6  and  C_10 
DOCKED: REMARK    2  A    between atoms: C_10  and  C_11 
DOCKED: REMARK    3  A    between atoms: C_11  and  C_12 
DOCKED: REMARK    4  A    between atoms: C_12  and  O_14 
DOCKED: REMARK    5  A    between atoms: C_17  and  C_20 
DOCKED: REMARK    6  A    between atoms: C_24  and  C_27 
DOCKED: REMARK    7  A    between atoms: C_31  and  C_34 
DOCKED: REMARK    8  A    between atoms: C_34  and  C_35 
DOCKED: REMARK    9  A    between atoms: C_35  and  C_36 
DOCKED: REMARK   10  A    between atoms: C_36  and  O_38 
DOCKED: REMARK   11  A    between atoms: FE_43  and  C_44 
DOCKED: REMARK   12  A    between atoms: C_44  and  O_45 
DOCKED: USER                              x       y       z     vdW  Elec       q    Type
DOCKED: USER                           _______ _______ _______ _____ _____    ______ ____
DOCKED: ROOT
DOCKED: ATOM      1  C   UNL d   1       6.922  35.171  -1.165 -0.11 +0.01    +0.064 A 
DOCKED: ATOM      2  C   UNL d   1       8.039  32.357   2.502 -0.46 +0.00    +0.064 C 
DOCKED: ATOM      3  C   UNL d   1      12.678  32.727   1.422 -0.38 +0.00    +0.064 A 
DOCKED: ATOM      4  C   UNL d   1      11.593  35.911  -2.092 -0.42 +0.00    +0.064 A 
DOCKED: ATOM      5  C   UNL d   1       6.884  34.346  -0.105 -0.25 +0.01    +0.066 A 
DOCKED: ATOM      6  C   UNL d   1       5.681  34.041   0.561 -0.35 -0.00    -0.021 A 
DOCKED: ATOM      7  C   UNL d   1       6.014  33.242   1.638 -0.42 -0.00    -0.025 A 
DOCKED: ATOM      8  C   UNL d   1       7.402  33.081   1.573 -0.36 +0.01    +0.066 A 
DOCKED: ATOM      9  C   UNL d   1       5.072  32.647   2.696 -0.48 +0.00    +0.051 C 
DOCKED: ATOM     10  C   UNL d   1       9.460  32.115   2.503 -0.39 +0.00    +0.066 A 
DOCKED: ATOM     11  C   UNL d   1      10.168  31.251   3.367 -0.46 -0.00    -0.021 A 
DOCKED: ATOM     12  C   UNL d   1      11.518  31.375   3.027 -0.44 +0.00    +0.000 A 
DOCKED: ATOM     13  C   UNL d   1      11.532  32.293   1.976 -0.36 +0.00    +0.070 A 
DOCKED: ATOM     14  C   UNL d   1       9.566  30.308   4.376 -0.61 +0.00    +0.052 C 
DOCKED: ATOM     15  C   UNL d   1      12.879  33.704   0.370 -0.40 +0.00    +0.066 A 
DOCKED: ATOM     16  C   UNL d   1      14.096  34.215  -0.057 -0.48 -0.00    -0.021 A 
DOCKED: ATOM     17  C   UNL d   1      13.788  35.136  -1.069 -0.45 +0.00    +0.000 A 
DOCKED: ATOM     18  C   UNL d   1      12.403  35.101  -1.191 -0.39 +0.00    +0.070 A 
DOCKED: ATOM     19  C   UNL d   1      15.451  33.827   0.491 -0.40 +0.00    +0.052 C 
DOCKED: ATOM     20  C   UNL d   1      10.241  35.957  -2.168 -0.40 +0.00    +0.066 A 
DOCKED: ATOM     21  C   UNL d   1       9.575  36.804  -3.052 -0.43 -0.00    -0.025 A 
DOCKED: ATOM     22  C   UNL d   1       8.227  36.591  -2.827 -0.37 -0.00    -0.021 A 
DOCKED: ATOM     23  C   UNL d   1       8.137  35.626  -1.801 -0.30 +0.01    +0.066 A 
DOCKED: ATOM     24  C   UNL d   1      10.191  37.783  -4.047 -0.52 -0.01    +0.051 C 
DOCKED: ATOM     25  N   UNL d   1       7.966  33.749   0.500 +0.03 -0.04    -0.248 N 
DOCKED: ATOM     26  N   UNL d   1      10.282  32.696   1.623 -0.25 -0.01    -0.248 N 
DOCKED: ATOM     27  N   UNL d   1      11.893  34.260  -0.298 -0.20 -0.02    -0.248 N 
DOCKED: ATOM     28  N   UNL d   1       9.354  35.242  -1.398 +0.08 -0.06    -0.248 N 
DOCKED: ATOM     29 FE   UNL d   1      10.045  34.022   0.074 -0.08 +0.00    +0.000 Fe
DOCKED: ENDROOT
DOCKED: BRANCH   6  30
DOCKED: ATOM     30  C   UNL d   1       4.291  34.566   0.216 -0.30 +0.01    +0.052 C 
DOCKED: BRANCH  30  31
DOCKED: ATOM     31  C   UNL d   1       3.854  34.066  -1.160 -0.19 +0.02    +0.115 C 
DOCKED: BRANCH  31  32
DOCKED: ATOM     32  C   UNL d   1       2.680  34.847  -1.712 -0.11 +0.03    +0.139 C 
DOCKED: ATOM     33  O   UNL d   1       1.623  34.271  -1.925 +0.03 -0.13    -0.650 OA
DOCKED: BRANCH  32  34
DOCKED: ATOM     34  O   UNL d   1       2.745  36.180  -1.933 +0.05 -0.29    -0.776 OA
DOCKED: ATOM     35  H   UNL d   1       2.598  36.596  -2.794 +0.03 +0.05    +0.167 HD
DOCKED: ENDBRANCH  32  34
DOCKED: ENDBRANCH  31  32
DOCKED: ENDBRANCH  30  31
DOCKED: ENDBRANCH   6  30
DOCKED: BRANCH  29  36
DOCKED: ATOM     36  C   UNL d   1      10.002  35.610   1.442 -0.26 +0.03    +0.190 C 
DOCKED: BRANCH  36  37
DOCKED: ATOM     37  O   UNL d   1      10.223  36.985   1.560 -0.31 -0.05    -0.399 OA
DOCKED: ATOM     38  H   UNL d   1      10.189  37.332   0.625 +0.12 +0.03    +0.209 HD
DOCKED: ENDBRANCH  36  37
DOCKED: ENDBRANCH  29  36
DOCKED: BRANCH  22  39
DOCKED: ATOM     39  C   UNL d   1       7.093  37.326  -3.518 -0.29 +0.00    +0.052 C 
DOCKED: BRANCH  39  40
DOCKED: ATOM     40  C   UNL d   1       6.050  36.332  -4.055 -0.22 +0.01    +0.115 C 
DOCKED: BRANCH  40  41
DOCKED: ATOM     41  C   UNL d   1       4.931  36.970  -4.851 -0.11 +0.01    +0.139 C 
DOCKED: ATOM     42  O   UNL d   1       4.937  36.880  -6.070 +0.01 -0.05    -0.650 OA
DOCKED: BRANCH  41  43
DOCKED: ATOM     43  O   UNL d   1       3.878  37.563  -4.246 +0.06 -0.14    -0.776 OA
DOCKED: ATOM     44  H   UNL d   1       3.670  37.425  -3.312 +0.04 +0.04    +0.167 HD
DOCKED: ENDBRANCH  41  43
DOCKED: ENDBRANCH  40  41
DOCKED: ENDBRANCH  39  40
DOCKED: ENDBRANCH  22  39
DOCKED: BRANCH  12  45
DOCKED: ATOM     45  C   UNL d   1      12.787  30.722   3.559 -0.65 +0.00    +0.004 C 
DOCKED: ATOM     46  C   UNL d   1      13.089  29.440   3.743 -0.75 +0.00    +0.012 C 
DOCKED: ENDBRANCH  12  45
DOCKED: BRANCH  17  47
DOCKED: ATOM     47  C   UNL d   1      14.691  36.035  -1.847 -0.58 +0.00    +0.004 C 
DOCKED: ATOM     48  C   UNL d   1      14.726  37.361  -1.690 -0.67 +0.00    +0.012 C 
DOCKED: ENDBRANCH  17  47
DOCKED: TORSDOF 12
DOCKED: TER
DOCKED: ENDMDL
________________________________________________________________________________


	BEGINNING GENETIC ALGORITHM DOCKING 10 of 100
Run: 10 Seed: 2030538306 622058668 [ Run 10 of 100 GA/GALS ]
Beginning LAMARCKIAN GENETIC ALGORITHM (LGA), with a maximum of 25000000 energy evaluations.

Final-Value: -16.166


	FINAL GENETIC ALGORITHM DOCKED STATE
	_______________________________________________


Detailed state:  trans 8.848 34.543 -0.332 quatxyzw 0.015945 0.000955 -0.027548 -0.999493 center 8.781 34.984 -0.736 ntor 12 -124.2135 132.8938 91.2988 55.4674 -88.8860 35.2897 114.0036 -66.0721 50.2943 -57.2196 -33.6121 -175.8371
State:	  8.848  34.543  -0.332   0.501  0.030 -0.865 -3.650   -124.21  132.89   91.30   55.47  -88.89   35.29  114.00  -66.07   50.29  -57.22  -33.61 -175.84

DOCKED: MODEL       10
DOCKED: USER    Run = 10
DOCKED: USER    DPF = D:/Protein_go_brrr/autodock/final/6BB5/heme_Co/dock.dpf
DOCKED: USER  
DOCKED: USER    Estimated Free Energy of Binding    =  -11.87 kcal/mol  [=(1)+(2)+(3)-(4)]
DOCKED: USER    Estimated Inhibition Constant, Ki   =    1.98 nM (nanomolar)  [Temperature = 298.15 K]
DOCKED: USER    
DOCKED: USER    (1) Final Intermolecular Energy     =  -15.45 kcal/mol
DOCKED: USER        vdW + Hbond + desolv Energy     =  -15.07 kcal/mol
DOCKED: USER        Electrostatic Energy            =   -0.39 kcal/mol
DOCKED: USER    (2) Final Total Internal Energy     =   -0.71 kcal/mol
DOCKED: USER    (3) Torsional Free Energy           =   +3.58 kcal/mol
DOCKED: USER    (4) Unbound System's Energy  [=(2)] =   -0.71 kcal/mol
DOCKED: USER    
DOCKED: USER    
DOCKED: USER    NEWDPF move heme_Co_opt.pdbqt
DOCKED: USER    NEWDPF about 8.781000 34.984000 -0.736000
DOCKED: USER    NEWDPF tran0 8.847728 34.543125 -0.331576
DOCKED: USER    NEWDPF quaternion0 0.015945 0.000955 -0.027548 -0.999493
DOCKED: USER    NEWDPF axisangle0 0.500722 0.029977 -0.865089 -3.649670
DOCKED: USER    NEWDPF quat0 0.500722 0.029977 -0.865089 -3.649670
DOCKED: USER    NEWDPF dihe0 -124.21 132.89 91.30 55.47 -88.89 35.29 114.00 -66.07 50.29 -57.22 -33.61 -175.84 
DOCKED: USER  keepresnum = 1 
DOCKED: USER  
DOCKED: REMARK  12 active torsions:
DOCKED: REMARK  status: ('A' for Active; 'I' for Inactive)
DOCKED: REMARK    1  A    between atoms: C_6  and  C_10 
DOCKED: REMARK    2  A    between atoms: C_10  and  C_11 
DOCKED: REMARK    3  A    between atoms: C_11  and  C_12 
DOCKED: REMARK    4  A    between atoms: C_12  and  O_14 
DOCKED: REMARK    5  A    between atoms: C_17  and  C_20 
DOCKED: REMARK    6  A    between atoms: C_24  and  C_27 
DOCKED: REMARK    7  A    between atoms: C_31  and  C_34 
DOCKED: REMARK    8  A    between atoms: C_34  and  C_35 
DOCKED: REMARK    9  A    between atoms: C_35  and  C_36 
DOCKED: REMARK   10  A    between atoms: C_36  and  O_38 
DOCKED: REMARK   11  A    between atoms: FE_43  and  C_44 
DOCKED: REMARK   12  A    between atoms: C_44  and  O_45 
DOCKED: USER                              x       y       z     vdW  Elec       q    Type
DOCKED: USER                           _______ _______ _______ _____ _____    ______ ____
DOCKED: ROOT
DOCKED: ATOM      1  C   UNL d   1       6.942  35.175  -1.160 -0.11 +0.01    +0.064 A 
DOCKED: ATOM      2  C   UNL d   1       8.057  32.332   2.485 -0.46 +0.00    +0.064 C 
DOCKED: ATOM      3  C   UNL d   1      12.696  32.702   1.405 -0.38 +0.00    +0.064 A 
DOCKED: ATOM      4  C   UNL d   1      11.614  35.914  -2.085 -0.42 +0.00    +0.064 A 
DOCKED: ATOM      5  C   UNL d   1       6.903  34.342  -0.107 -0.25 +0.01    +0.066 A 
DOCKED: ATOM      6  C   UNL d   1       5.700  34.033   0.558 -0.35 -0.00    -0.021 A 
DOCKED: ATOM      7  C   UNL d   1       6.032  33.226   1.628 -0.42 -0.00    -0.025 A 
DOCKED: ATOM      8  C   UNL d   1       7.420  33.064   1.562 -0.36 +0.01    +0.066 A 
DOCKED: ATOM      9  C   UNL d   1       5.091  32.624   2.683 -0.49 +0.00    +0.051 C 
DOCKED: ATOM     10  C   UNL d   1       9.477  32.087   2.483 -0.39 +0.00    +0.066 A 
DOCKED: ATOM     11  C   UNL d   1      10.185  31.216   3.340 -0.46 -0.00    -0.021 A 
DOCKED: ATOM     12  C   UNL d   1      11.535  31.341   3.000 -0.45 +0.00    +0.000 A 
DOCKED: ATOM     13  C   UNL d   1      11.550  32.266   1.956 -0.37 +0.00    +0.070 A 
DOCKED: ATOM     14  C   UNL d   1       9.581  30.266   4.343 -0.61 +0.00    +0.052 C 
DOCKED: ATOM     15  C   UNL d   1      12.898  33.687   0.360 -0.41 +0.00    +0.066 A 
DOCKED: ATOM     16  C   UNL d   1      14.116  34.200  -0.064 -0.48 -0.00    -0.021 A 
DOCKED: ATOM     17  C   UNL d   1      13.808  35.128  -1.068 -0.45 +0.00    +0.000 A 
DOCKED: ATOM     18  C   UNL d   1      12.423  35.097  -1.190 -0.39 +0.00    +0.070 A 
DOCKED: ATOM     19  C   UNL d   1      15.470  33.805   0.480 -0.38 +0.00    +0.052 C 
DOCKED: ATOM     20  C   UNL d   1      10.262  35.963  -2.160 -0.40 +0.00    +0.066 A 
DOCKED: ATOM     21  C   UNL d   1       9.597  36.818  -3.036 -0.44 -0.00    -0.025 A 
DOCKED: ATOM     22  C   UNL d   1       8.248  36.605  -2.812 -0.37 -0.00    -0.021 A 
DOCKED: ATOM     23  C   UNL d   1       8.158  35.633  -1.794 -0.30 +0.01    +0.066 A 
DOCKED: ATOM     24  C   UNL d   1      10.214  37.803  -4.025 -0.53 -0.01    +0.051 C 
DOCKED: ATOM     25  N   UNL d   1       7.985  33.739   0.493 +0.05 -0.04    -0.248 N 
DOCKED: ATOM     26  N   UNL d   1      10.300  32.674   1.607 -0.25 -0.01    -0.248 N 
DOCKED: ATOM     27  N   UNL d   1      11.912  34.250  -0.303 -0.20 -0.02    -0.248 N 
DOCKED: ATOM     28  N   UNL d   1       9.374  35.243  -1.394 +0.08 -0.06    -0.248 N 
DOCKED: ATOM     29 FE   UNL d   1      10.064  34.011   0.068 -0.08 +0.00    +0.000 Fe
DOCKED: ENDROOT
DOCKED: BRANCH   6  30
DOCKED: ATOM     30  C   UNL d   1       4.311  34.564   0.218 -0.30 +0.01    +0.052 C 
DOCKED: BRANCH  30  31
DOCKED: ATOM     31  C   UNL d   1       4.014  34.376  -1.269 -0.19 +0.02    +0.115 C 
DOCKED: BRANCH  31  32
DOCKED: ATOM     32  C   UNL d   1       3.475  35.635  -1.914 -0.14 +0.04    +0.139 C 
DOCKED: ATOM     33  O   UNL d   1       3.060  36.541  -1.207 -0.02 -0.34    -0.650 OA
DOCKED: BRANCH  32  34
DOCKED: ATOM     34  O   UNL d   1       3.480  35.813  -3.255 +0.05 -0.15    -0.776 OA
DOCKED: ATOM     35  H   UNL d   1       3.841  36.594  -3.698 +0.04 +0.03    +0.167 HD
DOCKED: ENDBRANCH  32  34
DOCKED: ENDBRANCH  31  32
DOCKED: ENDBRANCH  30  31
DOCKED: ENDBRANCH   6  30
DOCKED: BRANCH  29  36
DOCKED: ATOM     36  C   UNL d   1      10.024  35.589   1.449 -0.26 +0.03    +0.190 C 
DOCKED: BRANCH  36  37
DOCKED: ATOM     37  O   UNL d   1      10.235  36.966   1.573 -0.31 -0.05    -0.399 OA
DOCKED: ATOM     38  H   UNL d   1      10.171  37.320   0.643 +0.12 +0.03    +0.209 HD
DOCKED: ENDBRANCH  36  37
DOCKED: ENDBRANCH  29  36
DOCKED: BRANCH  22  39
DOCKED: ATOM     39  C   UNL d   1       7.116  37.347  -3.497 -0.29 +0.00    +0.052 C 
DOCKED: BRANCH  39  40
DOCKED: ATOM     40  C   UNL d   1       6.987  38.774  -2.940 -0.32 +0.00    +0.115 C 
DOCKED: BRANCH  40  41
DOCKED: ATOM     41  C   UNL d   1       7.233  39.867  -3.959 -0.30 -0.01    +0.139 C 
DOCKED: ATOM     42  O   UNL d   1       6.397  40.074  -4.828 +0.05 -0.00    -0.650 OA
DOCKED: BRANCH  41  43
DOCKED: ATOM     43  O   UNL d   1       8.310  40.680  -3.883 +0.01 +0.19    -0.776 OA
DOCKED: ATOM     44  H   UNL d   1       9.113  40.526  -4.397 -0.46 -0.11    +0.167 HD
DOCKED: ENDBRANCH  41  43
DOCKED: ENDBRANCH  40  41
DOCKED: ENDBRANCH  39  40
DOCKED: ENDBRANCH  22  39
DOCKED: BRANCH  12  45
DOCKED: ATOM     45  C   UNL d   1      12.803  30.682   3.526 -0.65 +0.00    +0.004 C 
DOCKED: ATOM     46  C   UNL d   1      13.074  29.404   3.780 -0.76 +0.00    +0.012 C 
DOCKED: ENDBRANCH  12  45
DOCKED: BRANCH  17  47
DOCKED: ATOM     47  C   UNL d   1      14.712  36.032  -1.841 -0.58 +0.00    +0.004 C 
DOCKED: ATOM     48  C   UNL d   1      14.731  37.359  -1.692 -0.67 +0.00    +0.012 C 
DOCKED: ENDBRANCH  17  47
DOCKED: TORSDOF 12
DOCKED: TER
DOCKED: ENDMDL
________________________________________________________________________________


	BEGINNING GENETIC ALGORITHM DOCKING 11 of 100
Run: 11 Seed: 1268613992 944828931 [ Run 11 of 100 GA/GALS ]
Beginning LAMARCKIAN GENETIC ALGORITHM (LGA), with a maximum of 25000000 energy evaluations.

Final-Value: -17.036


	FINAL GENETIC ALGORITHM DOCKED STATE
	_______________________________________________


Detailed state:  trans 8.452 34.472 -0.343 quatxyzw 0.009163 0.000575 -0.006481 -0.999937 center 8.781 34.984 -0.736 ntor 12 -105.5788 131.0196 -42.8179 58.9256 -58.3158 -5.3839 -41.7872 -51.7411 -48.1344 21.3561 -164.2161 43.6928
State:	  8.452  34.472  -0.343   0.815  0.051 -0.577 -1.288   -105.58  131.02  -42.82   58.93  -58.32   -5.38  -41.79  -51.74  -48.13   21.36 -164.22   43.69

DOCKED: MODEL       11
DOCKED: USER    Run = 11
DOCKED: USER    DPF = D:/Protein_go_brrr/autodock/final/6BB5/heme_Co/dock.dpf
DOCKED: USER  
DOCKED: USER    Estimated Free Energy of Binding    =  -11.75 kcal/mol  [=(1)+(2)+(3)-(4)]
DOCKED: USER    Estimated Inhibition Constant, Ki   =    2.43 nM (nanomolar)  [Temperature = 298.15 K]
DOCKED: USER    
DOCKED: USER    (1) Final Intermolecular Energy     =  -15.33 kcal/mol
DOCKED: USER        vdW + Hbond + desolv Energy     =  -14.08 kcal/mol
DOCKED: USER        Electrostatic Energy            =   -1.25 kcal/mol
DOCKED: USER    (2) Final Total Internal Energy     =   -1.71 kcal/mol
DOCKED: USER    (3) Torsional Free Energy           =   +3.58 kcal/mol
DOCKED: USER    (4) Unbound System's Energy  [=(2)] =   -1.71 kcal/mol
DOCKED: USER    
DOCKED: USER    
DOCKED: USER    NEWDPF move heme_Co_opt.pdbqt
DOCKED: USER    NEWDPF about 8.781000 34.984000 -0.736000
DOCKED: USER    NEWDPF tran0 8.451870 34.471839 -0.343148
DOCKED: USER    NEWDPF quaternion0 0.009163 0.000575 -0.006481 -0.999937
DOCKED: USER    NEWDPF axisangle0 0.815354 0.051132 -0.576700 -1.287823
DOCKED: USER    NEWDPF quat0 0.815354 0.051132 -0.576700 -1.287823
DOCKED: USER    NEWDPF dihe0 -105.58 131.02 -42.82 58.93 -58.32 -5.38 -41.79 -51.74 -48.13 21.36 -164.22 43.69 
DOCKED: USER  keepresnum = 1 
DOCKED: USER  
DOCKED: REMARK  12 active torsions:
DOCKED: REMARK  status: ('A' for Active; 'I' for Inactive)
DOCKED: REMARK    1  A    between atoms: C_6  and  C_10 
DOCKED: REMARK    2  A    between atoms: C_10  and  C_11 
DOCKED: REMARK    3  A    between atoms: C_11  and  C_12 
DOCKED: REMARK    4  A    between atoms: C_12  and  O_14 
DOCKED: REMARK    5  A    between atoms: C_17  and  C_20 
DOCKED: REMARK    6  A    between atoms: C_24  and  C_27 
DOCKED: REMARK    7  A    between atoms: C_31  and  C_34 
DOCKED: REMARK    8  A    between atoms: C_34  and  C_35 
DOCKED: REMARK    9  A    between atoms: C_35  and  C_36 
DOCKED: REMARK   10  A    between atoms: C_36  and  O_38 
DOCKED: REMARK   11  A    between atoms: FE_43  and  C_44 
DOCKED: REMARK   12  A    between atoms: C_44  and  O_45 
DOCKED: USER                              x       y       z     vdW  Elec       q    Type
DOCKED: USER                           _______ _______ _______ _____ _____    ______ ____
DOCKED: ROOT
DOCKED: ATOM      1  C   UNL d   1       6.523  35.011  -1.181 -0.11 +0.01    +0.064 A 
DOCKED: ATOM      2  C   UNL d   1       7.751  32.267   2.503 -0.47 +0.00    +0.064 C 
DOCKED: ATOM      3  C   UNL d   1      12.372  32.818   1.421 -0.37 +0.00    +0.064 A 
DOCKED: ATOM      4  C   UNL d   1      11.160  35.934  -2.112 -0.41 +0.00    +0.064 A 
DOCKED: ATOM      5  C   UNL d   1       6.517  34.192  -0.117 -0.28 +0.01    +0.066 A 
DOCKED: ATOM      6  C   UNL d   1       5.328  33.842   0.551 -0.33 -0.00    -0.021 A 
DOCKED: ATOM      7  C   UNL d   1       5.692  33.064   1.632 -0.40 -0.00    -0.025 A 
DOCKED: ATOM      8  C   UNL d   1       7.086  32.959   1.569 -0.37 +0.01    +0.066 A 
DOCKED: ATOM      9  C   UNL d   1       4.775  32.437   2.694 -0.47 +0.00    +0.051 C 
DOCKED: ATOM     10  C   UNL d   1       9.181  32.083   2.505 -0.40 +0.00    +0.066 A 
DOCKED: ATOM     11  C   UNL d   1       9.923  31.254   3.374 -0.47 -0.00    -0.021 A 
DOCKED: ATOM     12  C   UNL d   1      11.267  31.431   3.034 -0.44 +0.00    +0.000 A 
DOCKED: ATOM     13  C   UNL d   1      11.244  32.342   1.977 -0.37 +0.00    +0.070 A 
DOCKED: ATOM     14  C   UNL d   1       9.359  30.293   4.389 -0.63 +0.00    +0.052 C 
DOCKED: ATOM     15  C   UNL d   1      12.533  33.797   0.363 -0.38 +0.00    +0.066 A 
DOCKED: ATOM     16  C   UNL d   1      13.729  34.354  -0.067 -0.46 -0.00    -0.021 A 
DOCKED: ATOM     17  C   UNL d   1      13.384  35.256  -1.084 -0.45 +0.00    +0.000 A 
DOCKED: ATOM     18  C   UNL d   1      12.002  35.164  -1.206 -0.38 +0.01    +0.070 A 
DOCKED: ATOM     19  C   UNL d   1      15.099  34.024   0.484 -0.62 +0.00    +0.052 C 
DOCKED: ATOM     20  C   UNL d   1       9.807  35.925  -2.189 -0.39 +0.01    +0.066 A 
DOCKED: ATOM     21  C   UNL d   1       9.108  36.739  -3.078 -0.40 -0.00    -0.025 A 
DOCKED: ATOM     22  C   UNL d   1       7.770  36.473  -2.852 -0.34 -0.00    -0.021 A 
DOCKED: ATOM     23  C   UNL d   1       7.718  35.512  -1.821 -0.28 +0.01    +0.066 A 
DOCKED: ATOM     24  C   UNL d   1       9.685  37.736  -4.079 -0.50 -0.01    +0.051 C 
DOCKED: ATOM     25  N   UNL d   1       7.623  33.643   0.492 -0.07 -0.04    -0.248 N 
DOCKED: ATOM     26  N   UNL d   1       9.979  32.692   1.622 -0.25 -0.01    -0.248 N 
DOCKED: ATOM     27  N   UNL d   1      11.526  34.308  -0.308 -0.09 -0.03    -0.248 N 
DOCKED: ATOM     28  N   UNL d   1       8.950  35.179  -1.415 +0.02 -0.06    -0.248 N 
DOCKED: ATOM     29 FE   UNL d   1       9.689  33.997   0.065 -0.06 +0.00    +0.000 Fe
DOCKED: ENDROOT
DOCKED: BRANCH   6  30
DOCKED: ATOM     30  C   UNL d   1       3.918  34.309   0.203 -0.28 +0.01    +0.052 C 
DOCKED: BRANCH  30  31
DOCKED: ATOM     31  C   UNL d   1       3.669  35.716   0.745 -0.07 +0.05    +0.115 C 
DOCKED: BRANCH  31  32
DOCKED: ATOM     32  C   UNL d   1       3.107  36.649  -0.306 -0.07 +0.10    +0.139 C 
DOCKED: ATOM     33  O   UNL d   1       3.008  37.841  -0.059 -0.30 -0.93    -0.650 OA
DOCKED: BRANCH  32  34
DOCKED: ATOM     34  O   UNL d   1       2.753  36.212  -1.537 +0.04 -0.33    -0.776 OA
DOCKED: ATOM     35  H   UNL d   1       3.233  36.426  -2.349 +0.04 +0.05    +0.167 HD
DOCKED: ENDBRANCH  32  34
DOCKED: ENDBRANCH  31  32
DOCKED: ENDBRANCH  30  31
DOCKED: ENDBRANCH   6  30
DOCKED: BRANCH  29  36
DOCKED: ATOM     36  C   UNL d   1       9.581  35.590   1.423 +0.00 +0.03    +0.190 C 
DOCKED: BRANCH  36  37
DOCKED: ATOM     37  O   UNL d   1      10.215  36.778   1.801 -0.31 -0.05    -0.399 OA
DOCKED: ATOM     38  H   UNL d   1      10.791  37.020   1.023 +0.12 +0.02    +0.209 HD
DOCKED: ENDBRANCH  36  37
DOCKED: ENDBRANCH  29  36
DOCKED: BRANCH  22  39
DOCKED: ATOM     39  C   UNL d   1       6.607  37.157  -3.548 -0.26 +0.00    +0.052 C 
DOCKED: BRANCH  39  40
DOCKED: ATOM     40  C   UNL d   1       5.447  36.172  -3.761 -0.19 +0.01    +0.115 C 
DOCKED: BRANCH  40  41
DOCKED: ATOM     41  C   UNL d   1       4.409  36.636  -4.761 -0.10 +0.02    +0.139 C 
DOCKED: ATOM     42  O   UNL d   1       4.578  36.404  -5.950 -0.00 -0.05    -0.650 OA
DOCKED: BRANCH  41  43
DOCKED: ATOM     43  O   UNL d   1       3.257  37.223  -4.369 +0.05 -0.14    -0.776 OA
DOCKED: ATOM     44  H   UNL d   1       2.783  36.955  -3.571 +0.03 +0.04    +0.167 HD
DOCKED: ENDBRANCH  41  43
DOCKED: ENDBRANCH  40  41
DOCKED: ENDBRANCH  39  40
DOCKED: ENDBRANCH  22  39
DOCKED: BRANCH  12  45
DOCKED: ATOM     45  C   UNL d   1      12.561  30.833   3.570 -0.61 +0.00    +0.004 C 
DOCKED: ATOM     46  C   UNL d   1      12.906  29.566   3.784 -0.74 +0.00    +0.012 C 
DOCKED: ENDBRANCH  12  45
DOCKED: BRANCH  17  47
DOCKED: ATOM     47  C   UNL d   1      14.251  36.186  -1.868 -0.61 +0.00    +0.004 C 
DOCKED: ATOM     48  C   UNL d   1      14.674  37.365  -1.406 -0.65 +0.00    +0.012 C 
DOCKED: ENDBRANCH  17  47
DOCKED: TORSDOF 12
DOCKED: TER
DOCKED: ENDMDL
________________________________________________________________________________


	BEGINNING GENETIC ALGORITHM DOCKING 12 of 100
Run: 12 Seed: 1425652601 1988583367 [ Run 12 of 100 GA/GALS ]
Beginning LAMARCKIAN GENETIC ALGORITHM (LGA), with a maximum of 25000000 energy evaluations.

Final-Value: -10.902


	FINAL GENETIC ALGORITHM DOCKED STATE
	_______________________________________________


Detailed state:  trans 4.182 39.143 -5.177 quatxyzw -0.141316 -0.466587 -0.352999 0.798573 center 8.781 34.984 -0.736 ntor 12 146.9501 106.2783 -89.6254 51.9918 -83.9151 125.5572 4.8670 140.1714 -100.4721 78.2930 179.8276 -163.3378
State:	  4.182  39.143  -5.177  -0.235 -0.775 -0.586 74.012    146.95  106.28  -89.63   51.99  -83.92  125.56    4.87  140.17 -100.47   78.29  179.83 -163.34

DOCKED: MODEL       12
DOCKED: USER    Run = 12
DOCKED: USER    DPF = D:/Protein_go_brrr/autodock/final/6BB5/heme_Co/dock.dpf
DOCKED: USER  
DOCKED: USER    Estimated Free Energy of Binding    =   -4.65 kcal/mol  [=(1)+(2)+(3)-(4)]
DOCKED: USER    Estimated Inhibition Constant, Ki   =  389.95 uM (micromolar)  [Temperature = 298.15 K]
DOCKED: USER    
DOCKED: USER    (1) Final Intermolecular Energy     =   -8.23 kcal/mol
DOCKED: USER        vdW + Hbond + desolv Energy     =   -5.28 kcal/mol
DOCKED: USER        Electrostatic Energy            =   -2.95 kcal/mol
DOCKED: USER    (2) Final Total Internal Energy     =   -2.67 kcal/mol
DOCKED: USER    (3) Torsional Free Energy           =   +3.58 kcal/mol
DOCKED: USER    (4) Unbound System's Energy  [=(2)] =   -2.67 kcal/mol
DOCKED: USER    
DOCKED: USER    
DOCKED: USER    NEWDPF move heme_Co_opt.pdbqt
DOCKED: USER    NEWDPF about 8.781000 34.984000 -0.736000
DOCKED: USER    NEWDPF tran0 4.182230 39.143182 -5.176855
DOCKED: USER    NEWDPF quaternion0 -0.141316 -0.466587 -0.352999 0.798573
DOCKED: USER    NEWDPF axisangle0 -0.234784 -0.775192 -0.586476 74.011967
DOCKED: USER    NEWDPF quat0 -0.234784 -0.775192 -0.586476 74.011967
DOCKED: USER    NEWDPF dihe0 146.95 106.28 -89.63 51.99 -83.92 125.56 4.87 140.17 -100.47 78.29 179.83 -163.34 
DOCKED: USER  keepresnum = 1 
DOCKED: USER  
DOCKED: REMARK  12 active torsions:
DOCKED: REMARK  status: ('A' for Active; 'I' for Inactive)
DOCKED: REMARK    1  A    between atoms: C_6  and  C_10 
DOCKED: REMARK    2  A    between atoms: C_10  and  C_11 
DOCKED: REMARK    3  A    between atoms: C_11  and  C_12 
DOCKED: REMARK    4  A    between atoms: C_12  and  O_14 
DOCKED: REMARK    5  A    between atoms: C_17  and  C_20 
DOCKED: REMARK    6  A    between atoms: C_24  and  C_27 
DOCKED: REMARK    7  A    between atoms: C_31  and  C_34 
DOCKED: REMARK    8  A    between atoms: C_34  and  C_35 
DOCKED: REMARK    9  A    between atoms: C_35  and  C_36 
DOCKED: REMARK   10  A    between atoms: C_36  and  O_38 
DOCKED: REMARK   11  A    between atoms: FE_43  and  C_44 
DOCKED: REMARK   12  A    between atoms: C_44  and  O_45 
DOCKED: USER                              x       y       z     vdW  Elec       q    Type
DOCKED: USER                           _______ _______ _______ _____ _____    ______ ____
DOCKED: ROOT
DOCKED: ATOM      1  C   UNL d   1       2.638  38.064  -4.097 -0.02 +0.02    +0.064 A 
DOCKED: ATOM      2  C   UNL d   1       7.340  37.436  -4.427 -0.26 +0.00    +0.064 C 
DOCKED: ATOM      3  C   UNL d   1       7.622  40.954  -7.647 -0.15 -0.02    +0.064 A 
DOCKED: ATOM      4  C   UNL d   1       2.883  41.871  -7.041 -0.01 +0.01    +0.064 A 
DOCKED: ATOM      5  C   UNL d   1       3.897  37.610  -3.977 -0.06 +0.01    +0.066 A 
DOCKED: ATOM      6  C   UNL d   1       4.244  36.603  -3.055 -0.13 -0.00    -0.021 A 
DOCKED: ATOM      7  C   UNL d   1       5.613  36.441  -3.139 -0.20 -0.00    -0.025 A 
DOCKED: ATOM      8  C   UNL d   1       6.040  37.343  -4.119 -0.16 +0.01    +0.066 A 
DOCKED: ATOM      9  C   UNL d   1       6.499  35.479  -2.332 -0.31 +0.01    +0.051 C 
DOCKED: ATOM     10  C   UNL d   1       7.869  38.315  -5.439 -0.21 -0.01    +0.066 A 
DOCKED: ATOM     11  C   UNL d   1       9.201  38.359  -5.906 -0.26 +0.01    -0.021 A 
DOCKED: ATOM     12  C   UNL d   1       9.254  39.391  -6.847 -0.12 -0.00    +0.000 A 
DOCKED: ATOM     13  C   UNL d   1       7.952  39.890  -6.894 -0.17 -0.02    +0.070 A 
DOCKED: ATOM     14  C   UNL d   1      10.309  37.407  -5.534 -0.26 -0.01    +0.052 C 
DOCKED: ATOM     15  C   UNL d   1       6.346  41.630  -7.775 -0.09 -0.01    +0.066 A 
DOCKED: ATOM     16  C   UNL d   1       6.106  42.813  -8.459 -0.10 +0.00    -0.021 A 
DOCKED: ATOM     17  C   UNL d   1       4.741  43.083  -8.285 -0.07 +0.00    +0.000 A 
DOCKED: ATOM     18  C   UNL d   1       4.251  42.030  -7.520 -0.04 +0.01    +0.070 A 
DOCKED: ATOM     19  C   UNL d   1       7.141  43.611  -9.220 -0.16 -0.01    +0.052 C 
DOCKED: ATOM     20  C   UNL d   1       2.403  40.902  -6.225 -0.00 +0.01    +0.066 A 
DOCKED: ATOM     21  C   UNL d   1       1.075  40.875  -5.804 +0.00 -0.00    -0.025 A 
DOCKED: ATOM     22  C   UNL d   1       0.968  39.772  -4.977 +0.00 -0.00    -0.021 A 
DOCKED: ATOM     23  C   UNL d   1       2.249  39.183  -4.925 -0.00 +0.01    +0.066 A 
DOCKED: ATOM     24  C   UNL d   1      -0.034  41.864  -6.156 +0.00 +0.01    +0.051 C 
DOCKED: ATOM     25  N   UNL d   1       4.997  38.076  -4.660 -0.03 -0.03    -0.248 N 
DOCKED: ATOM     26  N   UNL d   1       7.104  39.202  -6.084 -0.07 +0.02    -0.248 N 
DOCKED: ATOM     27  N   UNL d   1       5.240  41.200  -7.209 -0.03 -0.01    -0.248 N 
DOCKED: ATOM     28  N   UNL d   1       3.121  39.865  -5.677 +0.00 -0.04    -0.248 N 
DOCKED: ATOM     29 FE   UNL d   1       5.122  39.731  -6.010 -0.02 +0.00    +0.000 Fe
DOCKED: ENDROOT
DOCKED: BRANCH   6  30
DOCKED: ATOM     30  C   UNL d   1       3.304  35.896  -2.084 -0.15 +0.02    +0.052 C 
DOCKED: BRANCH  30  31
DOCKED: ATOM     31  C   UNL d   1       3.352  36.562  -0.709 -0.07 +0.07    +0.115 C 
DOCKED: BRANCH  31  32
DOCKED: ATOM     32  C   UNL d   1       2.557  37.849  -0.663 -0.03 +0.18    +0.139 C 
DOCKED: ATOM     33  O   UNL d   1       3.104  38.881  -0.304 -0.47 -1.16    -0.650 OA
DOCKED: BRANCH  32  34
DOCKED: ATOM     34  O   UNL d   1       1.263  37.907  -1.054 -0.47 -1.06    -0.776 OA
DOCKED: ATOM     35  H   UNL d   1       0.588  38.449  -0.622 +0.02 +0.37    +0.167 HD
DOCKED: ENDBRANCH  32  34
DOCKED: ENDBRANCH  31  32
DOCKED: ENDBRANCH  30  31
DOCKED: ENDBRANCH   6  30
DOCKED: BRANCH  29  36
DOCKED: ATOM     36  C   UNL d   1       5.506  40.926  -4.331 -0.16 +0.03    +0.190 C 
DOCKED: BRANCH  36  37
DOCKED: ATOM     37  O   UNL d   1       5.255  41.034  -2.960 -0.08 -0.09    -0.399 OA
DOCKED: ATOM     38  H   UNL d   1       4.597  40.311  -2.762 +0.08 +0.07    +0.209 HD
DOCKED: ENDBRANCH  36  37
DOCKED: ENDBRANCH  29  36
DOCKED: BRANCH  22  39
DOCKED: ATOM     39  C   UNL d   1      -0.283  39.351  -4.230 +0.00 +0.01    +0.052 C 
DOCKED: BRANCH  39  40
DOCKED: ATOM     40  C   UNL d   1      -0.713  40.440  -3.233 -0.01 +0.05    +0.115 C 
DOCKED: BRANCH  40  41
DOCKED: ATOM     41  C   UNL d   1      -0.461  40.093  -1.781 -0.06 +0.12    +0.139 C 
DOCKED: ATOM     42  O   UNL d   1      -1.263  39.385  -1.188 -0.02 -0.56    -0.650 OA
DOCKED: BRANCH  41  43
DOCKED: ATOM     43  O   UNL d   1       0.670  40.472  -1.146 -0.01 -1.23    -0.776 OA
DOCKED: ATOM     44  H   UNL d   1       1.494  39.971  -1.209 +0.03 +0.30    +0.167 HD
DOCKED: ENDBRANCH  41  43
DOCKED: ENDBRANCH  40  41
DOCKED: ENDBRANCH  39  40
DOCKED: ENDBRANCH  22  39
DOCKED: BRANCH  12  45
DOCKED: ATOM     45  C   UNL d   1      10.374  39.947  -7.716 -0.34 -0.00    +0.004 C 
DOCKED: ATOM     46  C   UNL d   1      11.309  39.323  -8.428 -0.45 -0.01    +0.012 C 
DOCKED: ENDBRANCH  12  45
DOCKED: BRANCH  17  47
DOCKED: ATOM     47  C   UNL d   1       3.934  44.254  -8.742 -0.06 +0.00    +0.004 C 
DOCKED: ATOM     48  C   UNL d   1       3.513  45.223  -7.925 -0.08 +0.00    +0.012 C 
DOCKED: ENDBRANCH  17  47
DOCKED: TORSDOF 12
DOCKED: TER
DOCKED: ENDMDL
________________________________________________________________________________


	BEGINNING GENETIC ALGORITHM DOCKING 13 of 100
Run: 13 Seed: 1494700161 1403671892 [ Run 13 of 100 GA/GALS ]
Beginning LAMARCKIAN GENETIC ALGORITHM (LGA), with a maximum of 25000000 energy evaluations.

Final-Value: -19.544


	FINAL GENETIC ALGORITHM DOCKED STATE
	_______________________________________________


Detailed state:  trans 40.739 28.777 15.743 quatxyzw 0.302965 -0.369624 -0.872224 0.103997 center 8.781 34.984 -0.736 ntor 12 110.7471 132.1032 144.6192 -95.4706 -94.6730 8.5505 -175.6358 86.7421 -33.0426 58.9201 179.9996 159.0871
State:	 40.739  28.777  15.743   0.305 -0.372 -0.877 168.061    110.75  132.10  144.62  -95.47  -94.67    8.55 -175.64   86.74  -33.04   58.92  180.00  159.09

DOCKED: MODEL       13
DOCKED: USER    Run = 13
DOCKED: USER    DPF = D:/Protein_go_brrr/autodock/final/6BB5/heme_Co/dock.dpf
DOCKED: USER  
DOCKED: USER    Estimated Free Energy of Binding    =  -13.46 kcal/mol  [=(1)+(2)+(3)-(4)]
DOCKED: USER    Estimated Inhibition Constant, Ki   =  136.98 pM (picomolar)  [Temperature = 298.15 K]
DOCKED: USER    
DOCKED: USER    (1) Final Intermolecular Energy     =  -17.04 kcal/mol
DOCKED: USER        vdW + Hbond + desolv Energy     =  -14.83 kcal/mol
DOCKED: USER        Electrostatic Energy            =   -2.20 kcal/mol
DOCKED: USER    (2) Final Total Internal Energy     =   -2.51 kcal/mol
DOCKED: USER    (3) Torsional Free Energy           =   +3.58 kcal/mol
DOCKED: USER    (4) Unbound System's Energy  [=(2)] =   -2.51 kcal/mol
DOCKED: USER    
DOCKED: USER    
DOCKED: USER    NEWDPF move heme_Co_opt.pdbqt
DOCKED: USER    NEWDPF about 8.781000 34.984000 -0.736000
DOCKED: USER    NEWDPF tran0 40.739288 28.777093 15.742978
DOCKED: USER    NEWDPF quaternion0 0.302965 -0.369624 -0.872224 0.103997
DOCKED: USER    NEWDPF axisangle0 0.304617 -0.371639 -0.876980 168.061280
DOCKED: USER    NEWDPF quat0 0.304617 -0.371639 -0.876980 168.061280
DOCKED: USER    NEWDPF dihe0 110.75 132.10 144.62 -95.47 -94.67 8.55 -175.64 86.74 -33.04 58.92 180.00 159.09 
DOCKED: USER  keepresnum = 1 
DOCKED: USER  
DOCKED: REMARK  12 active torsions:
DOCKED: REMARK  status: ('A' for Active; 'I' for Inactive)
DOCKED: REMARK    1  A    between atoms: C_6  and  C_10 
DOCKED: REMARK    2  A    between atoms: C_10  and  C_11 
DOCKED: REMARK    3  A    between atoms: C_11  and  C_12 
DOCKED: REMARK    4  A    between atoms: C_12  and  O_14 
DOCKED: REMARK    5  A    between atoms: C_17  and  C_20 
DOCKED: REMARK    6  A    between atoms: C_24  and  C_27 
DOCKED: REMARK    7  A    between atoms: C_31  and  C_34 
DOCKED: REMARK    8  A    between atoms: C_34  and  C_35 
DOCKED: REMARK    9  A    between atoms: C_35  and  C_36 
DOCKED: REMARK   10  A    between atoms: C_36  and  O_38 
DOCKED: REMARK   11  A    between atoms: FE_43  and  C_44 
DOCKED: REMARK   12  A    between atoms: C_44  and  O_45 
DOCKED: USER                              x       y       z     vdW  Elec       q    Type
DOCKED: USER                           _______ _______ _______ _____ _____    ______ ____
DOCKED: ROOT
DOCKED: ATOM      1  C   UNL d   1      42.459  27.906  16.743 -0.20 +0.02    +0.064 A 
DOCKED: ATOM      2  C   UNL d   1      40.850  32.372  16.462 -0.48 +0.01    +0.064 C 
DOCKED: ATOM      3  C   UNL d   1      37.433  30.989  13.422 -0.28 +0.01    +0.064 A 
DOCKED: ATOM      4  C   UNL d   1      38.816  26.360  13.992 -0.39 +0.01    +0.064 A 
DOCKED: ATOM      5  C   UNL d   1      42.293  29.234  16.861 -0.25 +0.02    +0.066 A 
DOCKED: ATOM      6  C   UNL d   1      43.074  30.009  17.739 -0.31 -0.01    -0.021 A 
DOCKED: ATOM      7  C   UNL d   1      42.588  31.300  17.671 -0.40 -0.00    -0.025 A 
DOCKED: ATOM      8  C   UNL d   1      41.542  31.260  16.743 -0.37 +0.01    +0.066 A 
DOCKED: ATOM      9  C   UNL d   1      43.078  32.534  18.444 -0.44 +0.01    +0.051 C 
DOCKED: ATOM     10  C   UNL d   1      39.776  32.433  15.502 -0.39 +0.01    +0.066 A 
DOCKED: ATOM     11  C   UNL d   1      39.104  33.593  15.061 -0.44 -0.00    -0.021 A 
DOCKED: ATOM     12  C   UNL d   1      38.115  33.162  14.172 -0.41 +0.00    +0.000 A 
DOCKED: ATOM     13  C   UNL d   1      38.265  31.775  14.127 -0.36 +0.01    +0.070 A 
DOCKED: ATOM     14  C   UNL d   1      39.462  35.016  15.404 -0.53 +0.00    +0.052 C 
DOCKED: ATOM     15  C   UNL d   1      37.410  29.544  13.306 -0.34 +0.01    +0.066 A 
DOCKED: ATOM     16  C   UNL d   1      36.434  28.785  12.676 -0.50 -0.00    -0.021 A 
DOCKED: ATOM     17  C   UNL d   1      36.827  27.449  12.840 -0.50 +0.00    +0.000 A 
DOCKED: ATOM     18  C   UNL d   1      38.025  27.500  13.545 -0.38 +0.01    +0.070 A 
DOCKED: ATOM     19  C   UNL d   1      35.213  29.334  11.973 -0.51 +0.00    +0.052 C 
DOCKED: ATOM     20  C   UNL d   1      39.938  26.383  14.752 -0.39 +0.01    +0.066 A 
DOCKED: ATOM     21  C   UNL d   1      40.590  25.217  15.149 -0.43 -0.00    -0.025 A 
DOCKED: ATOM     22  C   UNL d   1      41.661  25.633  15.919 -0.37 -0.00    -0.021 A 
DOCKED: ATOM     23  C   UNL d   1      41.601  27.042  15.964 -0.35 +0.01    +0.066 A 
DOCKED: ATOM     24  C   UNL d   1      40.201  23.777  14.827 -0.52 +0.01    +0.051 C 
DOCKED: ATOM     25  N   UNL d   1      41.341  29.994  16.221 -0.07 -0.06    -0.248 N 
DOCKED: ATOM     26  N   UNL d   1      39.305  31.342  14.889 -0.23 -0.03    -0.248 N 
DOCKED: ATOM     27  N   UNL d   1      38.326  28.762  13.832 -0.19 -0.05    -0.248 N 
DOCKED: ATOM     28  N   UNL d   1      40.558  27.500  15.261 -0.16 -0.06    -0.248 N 
DOCKED: ATOM     29 FE   UNL d   1      39.745  29.338  14.955 -0.08 +0.00    +0.000 Fe
DOCKED: ENDROOT
DOCKED: BRANCH   6  30
DOCKED: ATOM     30  C   UNL d   1      44.182  29.504  18.659 -0.29 +0.02    +0.052 C 
DOCKED: BRANCH  30  31
DOCKED: ATOM     31  C   UNL d   1      43.638  29.249  20.064 +0.15 +0.09    +0.115 C 
DOCKED: BRANCH  31  32
DOCKED: ATOM     32  C   UNL d   1      44.301  28.064  20.733 -0.00 +0.19    +0.139 C 
DOCKED: ATOM     33  O   UNL d   1      45.519  28.033  20.831 -0.29 -0.95    -0.650 OA
DOCKED: BRANCH  32  34
DOCKED: ATOM     34  O   UNL d   1      43.584  27.051  21.273 -0.44 -1.18    -0.776 OA
DOCKED: ATOM     35  H   UNL d   1      43.506  26.170  20.881 +0.06 +0.15    +0.167 HD
DOCKED: ENDBRANCH  32  34
DOCKED: ENDBRANCH  31  32
DOCKED: ENDBRANCH  30  31
DOCKED: ENDBRANCH   6  30
DOCKED: BRANCH  29  36
DOCKED: ATOM     36  C   UNL d   1      38.594  29.145  16.696 -0.03 +0.05    +0.190 C 
DOCKED: BRANCH  36  37
DOCKED: ATOM     37  O   UNL d   1      37.582  28.378  17.284 -0.54 -0.09    -0.399 OA
DOCKED: ATOM     38  H   UNL d   1      37.571  27.527  16.764 +0.12 +0.05    +0.209 HD
DOCKED: ENDBRANCH  36  37
DOCKED: ENDBRANCH  29  36
DOCKED: BRANCH  22  39
DOCKED: ATOM     39  C   UNL d   1      42.645  24.718  16.624 -0.35 +0.01    +0.052 C 
DOCKED: BRANCH  39  40
DOCKED: ATOM     40  C   UNL d   1      42.282  24.574  18.111 -0.37 +0.03    +0.115 C 
DOCKED: BRANCH  40  41
DOCKED: ATOM     41  C   UNL d   1      43.418  24.886  19.064 -0.28 +0.05    +0.139 C 
DOCKED: ATOM     42  O   UNL d   1      43.627  24.139  20.010 -0.09 -0.28    -0.650 OA
DOCKED: BRANCH  41  43
DOCKED: ATOM     43  O   UNL d   1      44.262  25.919  18.849 +0.10 -0.35    -0.776 OA
DOCKED: ATOM     44  H   UNL d   1      44.701  26.389  19.569 +0.06 +0.10    +0.167 HD
DOCKED: ENDBRANCH  41  43
DOCKED: ENDBRANCH  40  41
DOCKED: ENDBRANCH  39  40
DOCKED: ENDBRANCH  22  39
DOCKED: BRANCH  12  45
DOCKED: ATOM     45  C   UNL d   1      37.065  33.897  13.350 -0.51 +0.00    +0.004 C 
DOCKED: ATOM     46  C   UNL d   1      35.754  34.026  13.536 -0.57 +0.00    +0.012 C 
DOCKED: ENDBRANCH  12  45
DOCKED: BRANCH  17  47
DOCKED: ATOM     47  C   UNL d   1      36.133  26.192  12.428 -0.62 +0.00    +0.004 C 
DOCKED: ATOM     48  C   UNL d   1      35.688  25.278  13.293 -0.65 +0.00    +0.012 C 
DOCKED: ENDBRANCH  17  47
DOCKED: TORSDOF 12
DOCKED: TER
DOCKED: ENDMDL
________________________________________________________________________________


	BEGINNING GENETIC ALGORITHM DOCKING 14 of 100
Run: 14 Seed: 1985162332 1504176847 [ Run 14 of 100 GA/GALS ]
Beginning LAMARCKIAN GENETIC ALGORITHM (LGA), with a maximum of 25000000 energy evaluations.

Final-Value: -10.613


	FINAL GENETIC ALGORITHM DOCKED STATE
	_______________________________________________


Detailed state:  trans 27.050 37.068 -1.207 quatxyzw 0.775317 0.335830 0.518805 0.130169 center 8.781 34.984 -0.736 ntor 12 167.9531 109.2433 53.8159 110.2636 158.4319 125.6778 -121.4737 -34.9394 -108.7448 143.6755 -179.6774 -159.3642
State:	 27.050  37.068  -1.207   0.782  0.339  0.523 165.041    167.95  109.24   53.82  110.26  158.43  125.68 -121.47  -34.94 -108.74  143.68 -179.68 -159.36

DOCKED: MODEL       14
DOCKED: USER    Run = 14
DOCKED: USER    DPF = D:/Protein_go_brrr/autodock/final/6BB5/heme_Co/dock.dpf
DOCKED: USER  
DOCKED: USER    Estimated Free Energy of Binding    =   -4.05 kcal/mol  [=(1)+(2)+(3)-(4)]
DOCKED: USER    Estimated Inhibition Constant, Ki   =    1.08 mM (millimolar)  [Temperature = 298.15 K]
DOCKED: USER    
DOCKED: USER    (1) Final Intermolecular Energy     =   -7.63 kcal/mol
DOCKED: USER        vdW + Hbond + desolv Energy     =   -6.44 kcal/mol
DOCKED: USER        Electrostatic Energy            =   -1.19 kcal/mol
DOCKED: USER    (2) Final Total Internal Energy     =   -2.98 kcal/mol
DOCKED: USER    (3) Torsional Free Energy           =   +3.58 kcal/mol
DOCKED: USER    (4) Unbound System's Energy  [=(2)] =   -2.98 kcal/mol
DOCKED: USER    
DOCKED: USER    
DOCKED: USER    NEWDPF move heme_Co_opt.pdbqt
DOCKED: USER    NEWDPF about 8.781000 34.984000 -0.736000
DOCKED: USER    NEWDPF tran0 27.050135 37.067658 -1.206620
DOCKED: USER    NEWDPF quaternion0 0.775317 0.335830 0.518805 0.130169
DOCKED: USER    NEWDPF axisangle0 0.781970 0.338712 0.523257 165.041294
DOCKED: USER    NEWDPF quat0 0.781970 0.338712 0.523257 165.041294
DOCKED: USER    NEWDPF dihe0 167.95 109.24 53.82 110.26 158.43 125.68 -121.47 -34.94 -108.74 143.68 -179.68 -159.36 
DOCKED: USER  keepresnum = 1 
DOCKED: USER  
DOCKED: REMARK  12 active torsions:
DOCKED: REMARK  status: ('A' for Active; 'I' for Inactive)
DOCKED: REMARK    1  A    between atoms: C_6  and  C_10 
DOCKED: REMARK    2  A    between atoms: C_10  and  C_11 
DOCKED: REMARK    3  A    between atoms: C_11  and  C_12 
DOCKED: REMARK    4  A    between atoms: C_12  and  O_14 
DOCKED: REMARK    5  A    between atoms: C_17  and  C_20 
DOCKED: REMARK    6  A    between atoms: C_24  and  C_27 
DOCKED: REMARK    7  A    between atoms: C_31  and  C_34 
DOCKED: REMARK    8  A    between atoms: C_34  and  C_35 
DOCKED: REMARK    9  A    between atoms: C_35  and  C_36 
DOCKED: REMARK   10  A    between atoms: C_36  and  O_38 
DOCKED: REMARK   11  A    between atoms: FE_43  and  C_44 
DOCKED: REMARK   12  A    between atoms: C_44  and  O_45 
DOCKED: USER                              x       y       z     vdW  Elec       q    Type
DOCKED: USER                           _______ _______ _______ _____ _____    ______ ____
DOCKED: ROOT
DOCKED: ATOM      1  C   UNL d   1      26.311  35.484  -2.496 -0.17 +0.00    +0.064 A 
DOCKED: ATOM      2  C   UNL d   1      27.542  39.995  -3.361 -0.16 +0.00    +0.064 C 
DOCKED: ATOM      3  C   UNL d   1      28.240  40.739   1.307 -0.17 +0.00    +0.064 A 
DOCKED: ATOM      4  C   UNL d   1      27.361  36.034   2.175 -0.22 +0.01    +0.064 A 
DOCKED: ATOM      5  C   UNL d   1      26.561  36.672  -3.071 -0.19 +0.00    +0.066 A 
DOCKED: ATOM      6  C   UNL d   1      26.532  36.846  -4.468 -0.13 -0.00    -0.021 A 
DOCKED: ATOM      7  C   UNL d   1      26.912  38.151  -4.715 -0.12 -0.00    -0.025 A 
DOCKED: ATOM      8  C   UNL d   1      27.141  38.721  -3.458 -0.17 +0.00    +0.066 A 
DOCKED: ATOM      9  C   UNL d   1      27.060  38.848  -6.076 -0.06 +0.00    +0.051 C 
DOCKED: ATOM     10  C   UNL d   1      27.776  40.674  -2.111 -0.14 +0.01    +0.066 A 
DOCKED: ATOM     11  C   UNL d   1      28.062  42.046  -1.936 -0.11 -0.00    -0.021 A 
DOCKED: ATOM     12  C   UNL d   1      28.257  42.236  -0.566 -0.13 +0.00    +0.000 A 
DOCKED: ATOM     13  C   UNL d   1      28.064  40.973  -0.005 -0.13 +0.01    +0.070 A 
DOCKED: ATOM     14  C   UNL d   1      28.049  43.103  -3.010 -0.07 +0.01    +0.052 C 
DOCKED: ATOM     15  C   UNL d   1      28.135  39.494   2.042 -0.20 -0.01    +0.066 A 
DOCKED: ATOM     16  C   UNL d   1      28.471  39.292   3.373 -0.27 +0.01    -0.021 A 
DOCKED: ATOM     17  C   UNL d   1      28.222  37.936   3.627 -0.29 -0.00    +0.000 A 
DOCKED: ATOM     18  C   UNL d   1      27.735  37.419   2.431 -0.22 -0.01    +0.070 A 
DOCKED: ATOM     19  C   UNL d   1      28.997  40.352   4.315 -0.37 -0.03    +0.052 C 
DOCKED: ATOM     20  C   UNL d   1      26.967  35.490   0.999 -0.20 +0.01    +0.066 A 
DOCKED: ATOM     21  C   UNL d   1      26.668  34.136   0.869 -0.28 -0.01    -0.025 A 
DOCKED: ATOM     22  C   UNL d   1      26.334  33.954  -0.461 -0.23 -0.00    -0.021 A 
DOCKED: ATOM     23  C   UNL d   1      26.459  35.214  -1.084 -0.17 +0.01    +0.066 A 
DOCKED: ATOM     24  C   UNL d   1      26.718  33.063   1.953 -0.27 +0.04    +0.051 C 
DOCKED: ATOM     25  N   UNL d   1      26.925  37.829  -2.421 -0.14 -0.01    -0.248 N 
DOCKED: ATOM     26  N   UNL d   1      27.718  40.041  -0.934 -0.04 -0.02    -0.248 N 
DOCKED: ATOM     27  N   UNL d   1      27.725  38.368   1.501 -0.13 +0.01    -0.248 N 
DOCKED: ATOM     28  N   UNL d   1      26.844  36.146  -0.204 +0.04 -0.03    -0.248 N 
DOCKED: ATOM     29 FE   UNL d   1      27.348  38.111  -0.343 -0.06 +0.00    +0.000 Fe
DOCKED: ENDROOT
DOCKED: BRANCH   6  30
DOCKED: ATOM     30  C   UNL d   1      26.231  35.776  -5.513 -0.06 -0.00    +0.052 C 
DOCKED: BRANCH  30  31
DOCKED: ATOM     31  C   UNL d   1      27.527  35.167  -6.046 -0.01 -0.00    +0.115 C 
DOCKED: BRANCH  31  32
DOCKED: ATOM     32  C   UNL d   1      28.238  34.324  -5.009 -0.01 +0.00    +0.139 C 
DOCKED: ATOM     33  O   UNL d   1      28.262  33.108  -5.136 +0.01 +0.01    -0.650 OA
DOCKED: BRANCH  32  34
DOCKED: ATOM     34  O   UNL d   1      28.896  34.876  -3.963 +0.03 -0.04    -0.776 OA
DOCKED: ATOM     35  H   UNL d   1      29.165  34.390  -3.172 +0.01 +0.02    +0.167 HD
DOCKED: ENDBRANCH  32  34
DOCKED: ENDBRANCH  31  32
DOCKED: ENDBRANCH  30  31
DOCKED: ENDBRANCH   6  30
DOCKED: BRANCH  29  36
DOCKED: ATOM     36  C   UNL d   1      29.329  37.595  -0.791 -0.06 +0.02    +0.190 C 
DOCKED: BRANCH  36  37
DOCKED: ATOM     37  O   UNL d   1      30.112  36.838  -1.669 -0.00 -0.04    -0.399 OA
DOCKED: ATOM     38  H   UNL d   1      29.457  36.352  -2.243 +0.02 +0.02    +0.209 HD
DOCKED: ENDBRANCH  36  37
DOCKED: ENDBRANCH  29  36
DOCKED: BRANCH  22  39
DOCKED: ATOM     39  C   UNL d   1      25.980  32.626  -1.105 -0.12 +0.00    +0.052 C 
DOCKED: BRANCH  39  40
DOCKED: ATOM     40  C   UNL d   1      27.126  31.616  -0.932 -0.15 +0.04    +0.115 C 
DOCKED: BRANCH  40  41
DOCKED: ATOM     41  C   UNL d   1      28.508  32.196  -1.145 -0.08 +0.10    +0.139 C 
DOCKED: ATOM     42  O   UNL d   1      29.209  32.445  -0.174 -0.27 -1.12    -0.650 OA
DOCKED: BRANCH  41  43
DOCKED: ATOM     43  O   UNL d   1      29.024  32.366  -2.382 +0.03 -0.22    -0.776 OA
DOCKED: ATOM     44  H   UNL d   1      28.606  32.930  -3.046 +0.02 +0.02    +0.167 HD
DOCKED: ENDBRANCH  41  43
DOCKED: ENDBRANCH  40  41
DOCKED: ENDBRANCH  39  40
DOCKED: ENDBRANCH  22  39
DOCKED: BRANCH  12  45
DOCKED: ATOM     45  C   UNL d   1      28.582  43.462   0.277 -0.14 +0.00    +0.004 C 
DOCKED: ATOM     46  C   UNL d   1      27.800  44.223   1.038 -0.20 +0.01    +0.012 C 
DOCKED: ENDBRANCH  12  45
DOCKED: BRANCH  17  47
DOCKED: ATOM     47  C   UNL d   1      28.458  37.139   4.868 -0.31 -0.00    +0.004 C 
DOCKED: ATOM     48  C   UNL d   1      27.582  36.257   5.356 -0.36 -0.01    +0.012 C 
DOCKED: ENDBRANCH  17  47
DOCKED: TORSDOF 12
DOCKED: TER
DOCKED: ENDMDL
________________________________________________________________________________


	BEGINNING GENETIC ALGORITHM DOCKING 15 of 100
Run: 15 Seed: 1083433846 1952982939 [ Run 15 of 100 GA/GALS ]
Beginning LAMARCKIAN GENETIC ALGORITHM (LGA), with a maximum of 25000000 energy evaluations.

Final-Value: -14.801


	FINAL GENETIC ALGORITHM DOCKED STATE
	_______________________________________________


Detailed state:  trans 45.554 27.177 18.130 quatxyzw -0.241362 0.331712 0.911147 -0.039031 center 8.781 34.984 -0.736 ntor 12 36.6742 81.8568 117.4434 72.0704 116.8647 129.8468 31.8622 -35.6264 169.5126 -180.0000 -170.0222 172.0266
State:	 45.554  27.177  18.130  -0.242  0.332  0.912 -175.526     36.67   81.86  117.44   72.07  116.86  129.85   31.86  -35.63  169.51 -180.00 -170.02  172.03

DOCKED: MODEL       15
DOCKED: USER    Run = 15
DOCKED: USER    DPF = D:/Protein_go_brrr/autodock/final/6BB5/heme_Co/dock.dpf
DOCKED: USER  
DOCKED: USER    Estimated Free Energy of Binding    =   -8.13 kcal/mol  [=(1)+(2)+(3)-(4)]
DOCKED: USER    Estimated Inhibition Constant, Ki   =    1.09 uM (micromolar)  [Temperature = 298.15 K]
DOCKED: USER    
DOCKED: USER    (1) Final Intermolecular Energy     =  -11.71 kcal/mol
DOCKED: USER        vdW + Hbond + desolv Energy     =   -9.13 kcal/mol
DOCKED: USER        Electrostatic Energy            =   -2.59 kcal/mol
DOCKED: USER    (2) Final Total Internal Energy     =   -3.09 kcal/mol
DOCKED: USER    (3) Torsional Free Energy           =   +3.58 kcal/mol
DOCKED: USER    (4) Unbound System's Energy  [=(2)] =   -3.09 kcal/mol
DOCKED: USER    
DOCKED: USER    
DOCKED: USER    NEWDPF move heme_Co_opt.pdbqt
DOCKED: USER    NEWDPF about 8.781000 34.984000 -0.736000
DOCKED: USER    NEWDPF tran0 45.554245 27.177179 18.129727
DOCKED: USER    NEWDPF quaternion0 -0.241362 0.331712 0.911147 -0.039031
DOCKED: USER    NEWDPF axisangle0 -0.241546 0.331965 0.911841 -175.526229
DOCKED: USER    NEWDPF quat0 -0.241546 0.331965 0.911841 -175.526229
DOCKED: USER    NEWDPF dihe0 36.67 81.86 117.44 72.07 116.86 129.85 31.86 -35.63 169.51 -180.00 -170.02 172.03 
DOCKED: USER  keepresnum = 1 
DOCKED: USER  
DOCKED: REMARK  12 active torsions:
DOCKED: REMARK  status: ('A' for Active; 'I' for Inactive)
DOCKED: REMARK    1  A    between atoms: C_6  and  C_10 
DOCKED: REMARK    2  A    between atoms: C_10  and  C_11 
DOCKED: REMARK    3  A    between atoms: C_11  and  C_12 
DOCKED: REMARK    4  A    between atoms: C_12  and  O_14 
DOCKED: REMARK    5  A    between atoms: C_17  and  C_20 
DOCKED: REMARK    6  A    between atoms: C_24  and  C_27 
DOCKED: REMARK    7  A    between atoms: C_31  and  C_34 
DOCKED: REMARK    8  A    between atoms: C_34  and  C_35 
DOCKED: REMARK    9  A    between atoms: C_35  and  C_36 
DOCKED: REMARK   10  A    between atoms: C_36  and  O_38 
DOCKED: REMARK   11  A    between atoms: FE_43  and  C_44 
DOCKED: REMARK   12  A    between atoms: C_44  and  O_45 
DOCKED: USER                              x       y       z     vdW  Elec       q    Type
DOCKED: USER                           _______ _______ _______ _____ _____    ______ ____
DOCKED: ROOT
DOCKED: ATOM      1  C   UNL d   1      47.494  26.432  18.759 -0.07 +0.03    +0.064 A 
DOCKED: ATOM      2  C   UNL d   1      45.455  30.714  19.093 -0.22 +0.03    +0.064 C 
DOCKED: ATOM      3  C   UNL d   1      41.705  29.167  16.569 -0.17 +0.01    +0.064 A 
DOCKED: ATOM      4  C   UNL d   1      43.588  24.682  16.545 -0.17 +0.02    +0.064 A 
DOCKED: ATOM      5  C   UNL d   1      47.229  27.726  19.005 -0.08 +0.03    +0.066 A 
DOCKED: ATOM      6  C   UNL d   1      48.076  28.525  19.797 -0.06 -0.01    -0.021 A 
DOCKED: ATOM      7  C   UNL d   1      47.468  29.760  19.909 -0.09 -0.01    -0.025 A 
DOCKED: ATOM      8  C   UNL d   1      46.285  29.667  19.168 -0.14 +0.03    +0.066 A 
DOCKED: ATOM      9  C   UNL d   1      47.969  30.990  20.682 -0.08 +0.02    +0.051 C 
DOCKED: ATOM     10  C   UNL d   1      44.230  30.720  18.333 -0.26 +0.02    +0.066 A 
DOCKED: ATOM     11  C   UNL d   1      43.387  31.829  18.100 -0.36 -0.00    -0.021 A 
DOCKED: ATOM     12  C   UNL d   1      42.303  31.350  17.358 -0.42 +0.00    +0.000 A 
DOCKED: ATOM     13  C   UNL d   1      42.571  29.992  17.184 -0.30 +0.02    +0.070 A 
DOCKED: ATOM     14  C   UNL d   1      43.666  33.259  18.487 -0.41 +0.01    +0.052 C 
DOCKED: ATOM     15  C   UNL d   1      41.796  27.737  16.348 -0.29 +0.01    +0.066 A 
DOCKED: ATOM     16  C   UNL d   1      40.800  26.919  15.834 -0.40 -0.00    -0.021 A 
DOCKED: ATOM     17  C   UNL d   1      41.337  25.624  15.828 -0.42 +0.00    +0.000 A 
DOCKED: ATOM     18  C   UNL d   1      42.630  25.757  16.324 -0.27 +0.02    +0.070 A 
DOCKED: ATOM     19  C   UNL d   1      39.430  27.379  15.388 -0.41 +0.01    +0.052 C 
DOCKED: ATOM     20  C   UNL d   1      44.818  24.775  17.106 -0.20 +0.03    +0.066 A 
DOCKED: ATOM     21  C   UNL d   1      45.634  23.663  17.298 -0.18 -0.01    -0.025 A 
DOCKED: ATOM     22  C   UNL d   1      46.779  24.141  17.909 -0.13 -0.01    -0.021 A 
DOCKED: ATOM     23  C   UNL d   1      46.598  25.531  18.071 -0.11 +0.03    +0.066 A 
DOCKED: ATOM     24  C   UNL d   1      45.330  22.211  16.937 -0.22 +0.03    +0.051 C 
DOCKED: ATOM     25  N   UNL d   1      46.114  28.419  18.592 -0.08 -0.11    -0.248 N 
DOCKED: ATOM     26  N   UNL d   1      43.763  29.625  17.725 -0.17 -0.07    -0.248 N 
DOCKED: ATOM     27  N   UNL d   1      42.857  27.025  16.652 -0.20 -0.06    -0.248 N 
DOCKED: ATOM     28  N   UNL d   1      45.411  25.919  17.589 -0.10 -0.10    -0.248 N 
DOCKED: ATOM     29 FE   UNL d   1      44.391  27.677  17.564 -0.05 +0.00    +0.000 Fe
DOCKED: ENDROOT
DOCKED: BRANCH   6  30
DOCKED: ATOM     30  C   UNL d   1      49.368  28.084  20.477 -0.02 +0.02    +0.052 C 
DOCKED: BRANCH  30  31
DOCKED: ATOM     31  C   UNL d   1      49.072  27.460  21.840 -0.03 +0.06    +0.115 C 
DOCKED: BRANCH  31  32
DOCKED: ATOM     32  C   UNL d   1      47.648  27.706  22.290 +0.05 +0.18    +0.139 C 
DOCKED: ATOM     33  O   UNL d   1      47.412  28.622  23.064 -0.14 -1.05    -0.650 OA
DOCKED: BRANCH  32  34
DOCKED: ATOM     34  O   UNL d   1      46.611  26.971  21.825 -0.34 -1.30    -0.776 OA
DOCKED: ATOM     35  H   UNL d   1      46.673  26.038  21.579 +0.02 +0.17    +0.167 HD
DOCKED: ENDBRANCH  32  34
DOCKED: ENDBRANCH  31  32
DOCKED: ENDBRANCH  30  31
DOCKED: ENDBRANCH   6  30
DOCKED: BRANCH  29  36
DOCKED: ATOM     36  C   UNL d   1      43.583  27.262  19.453 +0.21 +0.11    +0.190 C 
DOCKED: BRANCH  36  37
DOCKED: ATOM     37  O   UNL d   1      43.933  26.991  20.780 -0.32 -0.47    -0.399 OA
DOCKED: ATOM     38  H   UNL d   1      44.805  26.509  20.721 +0.07 +0.22    +0.209 HD
DOCKED: ENDBRANCH  36  37
DOCKED: ENDBRANCH  29  36
DOCKED: BRANCH  22  39
DOCKED: ATOM     39  C   UNL d   1      47.951  23.294  18.367 -0.10 +0.04    +0.052 C 
DOCKED: BRANCH  39  40
DOCKED: ATOM     40  C   UNL d   1      47.709  22.757  19.788 -0.04 +0.06    +0.115 C 
DOCKED: BRANCH  40  41
DOCKED: ATOM     41  C   UNL d   1      46.455  23.286  20.451 -0.08 +0.06    +0.139 C 
DOCKED: ATOM     42  O   UNL d   1      45.462  22.575  20.508 -0.30 -0.30    -0.650 OA
DOCKED: BRANCH  41  43
DOCKED: ATOM     43  O   UNL d   1      46.429  24.492  21.060 +0.07 -0.46    -0.776 OA
DOCKED: ATOM     44  H   UNL d   1      45.797  25.182  20.819 +0.04 +0.12    +0.167 HD
DOCKED: ENDBRANCH  41  43
DOCKED: ENDBRANCH  40  41
DOCKED: ENDBRANCH  39  40
DOCKED: ENDBRANCH  22  39
DOCKED: BRANCH  12  45
DOCKED: ATOM     45  C   UNL d   1      41.063  32.020  16.782 -0.52 +0.00    +0.004 C 
DOCKED: ATOM     46  C   UNL d   1      40.942  32.967  15.855 -0.52 +0.00    +0.012 C 
DOCKED: ENDBRANCH  12  45
DOCKED: BRANCH  17  47
DOCKED: ATOM     47  C   UNL d   1      40.701  24.329  15.442 -0.50 +0.00    +0.004 C 
DOCKED: ATOM     48  C   UNL d   1      40.816  23.784  14.228 -0.60 +0.00    +0.012 C 
DOCKED: ENDBRANCH  17  47
DOCKED: TORSDOF 12
DOCKED: TER
DOCKED: ENDMDL
________________________________________________________________________________


	BEGINNING GENETIC ALGORITHM DOCKING 16 of 100
Run: 16 Seed: 250546054 1869311324 [ Run 16 of 100 GA/GALS ]
Beginning LAMARCKIAN GENETIC ALGORITHM (LGA), with a maximum of 25000000 energy evaluations.

Final-Value: -11.142


	FINAL GENETIC ALGORITHM DOCKED STATE
	_______________________________________________


Detailed state:  trans 19.724 19.560 8.815 quatxyzw 0.966529 0.230857 0.020210 -0.110080 center 8.781 34.984 -0.736 ntor 12 112.8864 115.3708 -117.6180 42.9355 -91.8799 -98.2604 -43.8132 153.9888 75.3957 -10.1231 -0.8557 180.0000
State:	 19.724  19.560   8.815   0.972  0.232  0.020 -167.360    112.89  115.37 -117.62   42.94  -91.88  -98.26  -43.81  153.99   75.40  -10.12   -0.86  180.00

DOCKED: MODEL       16
DOCKED: USER    Run = 16
DOCKED: USER    DPF = D:/Protein_go_brrr/autodock/final/6BB5/heme_Co/dock.dpf
DOCKED: USER  
DOCKED: USER    Estimated Free Energy of Binding    =   -6.87 kcal/mol  [=(1)+(2)+(3)-(4)]
DOCKED: USER    Estimated Inhibition Constant, Ki   =    9.27 uM (micromolar)  [Temperature = 298.15 K]
DOCKED: USER    
DOCKED: USER    (1) Final Intermolecular Energy     =  -10.45 kcal/mol
DOCKED: USER        vdW + Hbond + desolv Energy     =   -8.09 kcal/mol
DOCKED: USER        Electrostatic Energy            =   -2.35 kcal/mol
DOCKED: USER    (2) Final Total Internal Energy     =   -0.70 kcal/mol
DOCKED: USER    (3) Torsional Free Energy           =   +3.58 kcal/mol
DOCKED: USER    (4) Unbound System's Energy  [=(2)] =   -0.70 kcal/mol
DOCKED: USER    
DOCKED: USER    
DOCKED: USER    NEWDPF move heme_Co_opt.pdbqt
DOCKED: USER    NEWDPF about 8.781000 34.984000 -0.736000
DOCKED: USER    NEWDPF tran0 19.724256 19.559722 8.815097
DOCKED: USER    NEWDPF quaternion0 0.966529 0.230857 0.020210 -0.110080
DOCKED: USER    NEWDPF axisangle0 0.972439 0.232268 0.020334 -167.360148
DOCKED: USER    NEWDPF quat0 0.972439 0.232268 0.020334 -167.360148
DOCKED: USER    NEWDPF dihe0 112.89 115.37 -117.62 42.94 -91.88 -98.26 -43.81 153.99 75.40 -10.12 -0.86 180.00 
DOCKED: USER  keepresnum = 1 
DOCKED: USER  
DOCKED: REMARK  12 active torsions:
DOCKED: REMARK  status: ('A' for Active; 'I' for Inactive)
DOCKED: REMARK    1  A    between atoms: C_6  and  C_10 
DOCKED: REMARK    2  A    between atoms: C_10  and  C_11 
DOCKED: REMARK    3  A    between atoms: C_11  and  C_12 
DOCKED: REMARK    4  A    between atoms: C_12  and  O_14 
DOCKED: REMARK    5  A    between atoms: C_17  and  C_20 
DOCKED: REMARK    6  A    between atoms: C_24  and  C_27 
DOCKED: REMARK    7  A    between atoms: C_31  and  C_34 
DOCKED: REMARK    8  A    between atoms: C_34  and  C_35 
DOCKED: REMARK    9  A    between atoms: C_35  and  C_36 
DOCKED: REMARK   10  A    between atoms: C_36  and  O_38 
DOCKED: REMARK   11  A    between atoms: FE_43  and  C_44 
DOCKED: REMARK   12  A    between atoms: C_44  and  O_45 
DOCKED: USER                              x       y       z     vdW  Elec       q    Type
DOCKED: USER                           _______ _______ _______ _____ _____    ______ ____
DOCKED: ROOT
DOCKED: ATOM      1  C   UNL d   1      18.141  18.427   9.777 -0.19 +0.02    +0.064 A 
DOCKED: ATOM      2  C   UNL d   1      18.425  20.546   5.530 -0.24 +0.01    +0.064 C 
DOCKED: ATOM      3  C   UNL d   1      22.708  22.334   6.667 -0.08 +0.01    +0.064 A 
DOCKED: ATOM      4  C   UNL d   1      22.612  19.864  10.857 -0.18 +0.01    +0.064 A 
DOCKED: ATOM      5  C   UNL d   1      17.888  18.904   8.548 -0.20 +0.01    +0.066 A 
DOCKED: ATOM      6  C   UNL d   1      16.734  18.540   7.827 -0.20 -0.01    -0.021 A 
DOCKED: ATOM      7  C   UNL d   1      16.833  19.139   6.587 -0.24 -0.01    -0.025 A 
DOCKED: ATOM      8  C   UNL d   1      18.034  19.857   6.609 -0.24 +0.01    +0.066 A 
DOCKED: ATOM      9  C   UNL d   1      15.844  19.049   5.415 -0.17 +0.01    +0.051 C 
DOCKED: ATOM     10  C   UNL d   1      19.631  21.335   5.470 -0.17 +0.01    +0.066 A 
DOCKED: ATOM     11  C   UNL d   1      20.027  22.191   4.420 -0.23 -0.00    -0.021 A 
DOCKED: ATOM     12  C   UNL d   1      21.277  22.702   4.779 -0.13 +0.00    +0.000 A 
DOCKED: ATOM     13  C   UNL d   1      21.545  22.131   6.024 -0.10 +0.01    +0.070 A 
DOCKED: ATOM     14  C   UNL d   1      19.207  22.557   3.209 -0.31 +0.00    +0.052 C 
DOCKED: ATOM     15  C   UNL d   1      23.170  21.785   7.927 -0.10 +0.01    +0.066 A 
DOCKED: ATOM     16  C   UNL d   1      24.441  21.919   8.466 -0.17 -0.00    -0.021 A 
DOCKED: ATOM     17  C   UNL d   1      24.420  21.206   9.674 -0.26 +0.00    +0.000 A 
DOCKED: ATOM     18  C   UNL d   1      23.126  20.706   9.784 -0.16 +0.01    +0.070 A 
DOCKED: ATOM     19  C   UNL d   1      25.584  22.687   7.839 -0.22 +0.01    +0.052 C 
DOCKED: ATOM     20  C   UNL d   1      21.386  19.295  10.943 -0.16 +0.01    +0.066 A 
DOCKED: ATOM     21  C   UNL d   1      21.020  18.474  12.007 -0.18 -0.01    -0.025 A 
DOCKED: ATOM     22  C   UNL d   1      19.726  18.069  11.738 -0.12 -0.01    -0.021 A 
DOCKED: ATOM     23  C   UNL d   1      19.368  18.657  10.506 -0.18 +0.02    +0.066 A 
DOCKED: ATOM     24  C   UNL d   1      21.869  18.079  13.213 -0.24 +0.02    +0.051 C 
DOCKED: ATOM     25  N   UNL d   1      18.705  19.734   7.814 -0.13 -0.04    -0.248 N 
DOCKED: ATOM     26  N   UNL d   1      20.524  21.349   6.465 -0.03 -0.03    -0.248 N 
DOCKED: ATOM     27  N   UNL d   1      22.419  21.045   8.712 -0.06 -0.03    -0.248 N 
DOCKED: ATOM     28  N   UNL d   1      20.371  19.398  10.020 -0.10 -0.05    -0.248 N 
DOCKED: ATOM     29 FE   UNL d   1      20.672  20.427   8.293 -0.04 +0.00    +0.000 Fe
DOCKED: ENDROOT
DOCKED: BRANCH   6  30
DOCKED: ATOM     30  C   UNL d   1      15.634  17.591   8.291 -0.16 +0.02    +0.052 C 
DOCKED: BRANCH  30  31
DOCKED: ATOM     31  C   UNL d   1      14.622  18.329   9.167 -0.28 +0.06    +0.115 C 
DOCKED: BRANCH  31  32
DOCKED: ATOM     32  C   UNL d   1      14.754  17.968  10.631 -0.12 +0.16    +0.139 C 
DOCKED: ATOM     33  O   UNL d   1      13.931  18.389  11.430 -0.54 -0.92    -0.650 OA
DOCKED: BRANCH  32  34
DOCKED: ATOM     34  O   UNL d   1      15.732  17.149  11.083 -0.12 -0.98    -0.776 OA
DOCKED: ATOM     35  H   UNL d   1      16.487  17.443  11.610 +0.06 +0.15    +0.167 HD
DOCKED: ENDBRANCH  32  34
DOCKED: ENDBRANCH  31  32
DOCKED: ENDBRANCH  30  31
DOCKED: ENDBRANCH   6  30
DOCKED: BRANCH  29  36
DOCKED: ATOM     36  C   UNL d   1      21.389  18.693   7.358 -0.03 +0.02    +0.190 C 
DOCKED: BRANCH  36  37
DOCKED: ATOM     37  O   UNL d   1      22.034  18.234   6.205 +0.00 -0.03    -0.399 OA
DOCKED: ATOM     38  H   UNL d   1      22.226  19.057   5.674 +0.01 +0.01    +0.209 HD
DOCKED: ENDBRANCH  36  37
DOCKED: ENDBRANCH  29  36
DOCKED: BRANCH  22  39
DOCKED: ATOM     39  C   UNL d   1      18.908  17.115  12.589 +0.08 +0.04    +0.052 C 
DOCKED: BRANCH  39  40
DOCKED: ATOM     40  C   UNL d   1      19.332  15.660  12.334 -0.15 +0.07    +0.115 C 
DOCKED: BRANCH  40  41
DOCKED: ATOM     41  C   UNL d   1      18.855  14.677  13.382 -0.15 +0.10    +0.139 C 
DOCKED: ATOM     42  O   UNL d   1      19.314  14.738  14.514 -0.26 -0.73    -0.650 OA
DOCKED: BRANCH  41  43
DOCKED: ATOM     43  O   UNL d   1      17.869  13.788  13.126 +0.01 -0.44    -0.776 OA
DOCKED: ATOM     44  H   UNL d   1      16.998  13.845  13.539 -0.37 +0.11    +0.167 HD
DOCKED: ENDBRANCH  41  43
DOCKED: ENDBRANCH  40  41
DOCKED: ENDBRANCH  39  40
DOCKED: ENDBRANCH  22  39
DOCKED: BRANCH  12  45
DOCKED: ATOM     45  C   UNL d   1      22.235  23.674   4.103 -0.13 +0.00    +0.004 C 
DOCKED: ATOM     46  C   UNL d   1      21.995  24.741   3.346 -0.20 +0.00    +0.012 C 
DOCKED: ENDBRANCH  12  45
DOCKED: BRANCH  17  47
DOCKED: ATOM     47  C   UNL d   1      25.520  20.949  10.649 -0.43 +0.00    +0.004 C 
DOCKED: ATOM     48  C   UNL d   1      26.029  19.737  10.884 -0.50 +0.00    +0.012 C 
DOCKED: ENDBRANCH  17  47
DOCKED: TORSDOF 12
DOCKED: TER
DOCKED: ENDMDL
________________________________________________________________________________


	BEGINNING GENETIC ALGORITHM DOCKING 17 of 100
Run: 17 Seed: 636204121 1072655622 [ Run 17 of 100 GA/GALS ]
Beginning LAMARCKIAN GENETIC ALGORITHM (LGA), with a maximum of 25000000 energy evaluations.

Final-Value: -10.911


	FINAL GENETIC ALGORITHM DOCKED STATE
	_______________________________________________


Detailed state:  trans 42.179 48.335 4.639 quatxyzw -0.901483 0.210522 -0.011957 -0.377975 center 8.781 34.984 -0.736 ntor 12 135.8991 98.8197 150.2444 116.6672 53.9965 99.0872 -118.8607 -66.2697 -92.0381 127.7122 162.8936 -179.9612
State:	 42.179  48.335   4.639  -0.974  0.227 -0.013 -135.583    135.90   98.82  150.24  116.67   54.00   99.09 -118.86  -66.27  -92.04  127.71  162.89 -179.96

DOCKED: MODEL       17
DOCKED: USER    Run = 17
DOCKED: USER    DPF = D:/Protein_go_brrr/autodock/final/6BB5/heme_Co/dock.dpf
DOCKED: USER  
DOCKED: USER    Estimated Free Energy of Binding    =   -4.14 kcal/mol  [=(1)+(2)+(3)-(4)]
DOCKED: USER    Estimated Inhibition Constant, Ki   =  928.57 uM (micromolar)  [Temperature = 298.15 K]
DOCKED: USER    
DOCKED: USER    (1) Final Intermolecular Energy     =   -7.72 kcal/mol
DOCKED: USER        vdW + Hbond + desolv Energy     =   -5.74 kcal/mol
DOCKED: USER        Electrostatic Energy            =   -1.98 kcal/mol
DOCKED: USER    (2) Final Total Internal Energy     =   -3.19 kcal/mol
DOCKED: USER    (3) Torsional Free Energy           =   +3.58 kcal/mol
DOCKED: USER    (4) Unbound System's Energy  [=(2)] =   -3.19 kcal/mol
DOCKED: USER    
DOCKED: USER    
DOCKED: USER    NEWDPF move heme_Co_opt.pdbqt
DOCKED: USER    NEWDPF about 8.781000 34.984000 -0.736000
DOCKED: USER    NEWDPF tran0 42.178632 48.334990 4.638611
DOCKED: USER    NEWDPF quaternion0 -0.901483 0.210522 -0.011957 -0.377975
DOCKED: USER    NEWDPF axisangle0 -0.973718 0.227391 -0.012915 -135.583343
DOCKED: USER    NEWDPF quat0 -0.973718 0.227391 -0.012915 -135.583343
DOCKED: USER    NEWDPF dihe0 135.90 98.82 150.24 116.67 54.00 99.09 -118.86 -66.27 -92.04 127.71 162.89 -179.96 
DOCKED: USER  keepresnum = 1 
DOCKED: USER  
DOCKED: REMARK  12 active torsions:
DOCKED: REMARK  status: ('A' for Active; 'I' for Inactive)
DOCKED: REMARK    1  A    between atoms: C_6  and  C_10 
DOCKED: REMARK    2  A    between atoms: C_10  and  C_11 
DOCKED: REMARK    3  A    between atoms: C_11  and  C_12 
DOCKED: REMARK    4  A    between atoms: C_12  and  O_14 
DOCKED: REMARK    5  A    between atoms: C_17  and  C_20 
DOCKED: REMARK    6  A    between atoms: C_24  and  C_27 
DOCKED: REMARK    7  A    between atoms: C_31  and  C_34 
DOCKED: REMARK    8  A    between atoms: C_34  and  C_35 
DOCKED: REMARK    9  A    between atoms: C_35  and  C_36 
DOCKED: REMARK   10  A    between atoms: C_36  and  O_38 
DOCKED: REMARK   11  A    between atoms: FE_43  and  C_44 
DOCKED: REMARK   12  A    between atoms: C_44  and  O_45 
DOCKED: USER                              x       y       z     vdW  Elec       q    Type
DOCKED: USER                           _______ _______ _______ _____ _____    ______ ____
DOCKED: ROOT
DOCKED: ATOM      1  C   UNL d   1      40.077  48.200   5.169 -0.27 +0.00    +0.064 A 
DOCKED: ATOM      2  C   UNL d   1      42.885  51.901   4.155 -0.10 -0.01    +0.064 C 
DOCKED: ATOM      3  C   UNL d   1      46.674  49.003   3.891 -0.10 -0.02    +0.064 A 
DOCKED: ATOM      4  C   UNL d   1      43.764  45.160   4.543 -0.00 -0.01    +0.064 A 
DOCKED: ATOM      5  C   UNL d   1      40.572  49.429   4.947 -0.21 -0.01    +0.066 A 
DOCKED: ATOM      6  C   UNL d   1      39.744  50.566   4.872 -0.22 -0.00    -0.021 A 
DOCKED: ATOM      7  C   UNL d   1      40.561  51.633   4.556 -0.14 -0.00    -0.025 A 
DOCKED: ATOM      8  C   UNL d   1      41.854  51.105   4.467 -0.14 -0.01    +0.066 A 
DOCKED: ATOM      9  C   UNL d   1      40.155  53.099   4.340 -0.12 +0.02    +0.051 C 
DOCKED: ATOM     10  C   UNL d   1      44.252  51.453   4.067 -0.07 -0.01    +0.066 A 
DOCKED: ATOM     11  C   UNL d   1      45.395  52.262   3.883 -0.03 +0.00    -0.021 A 
DOCKED: ATOM     12  C   UNL d   1      46.486  51.392   3.814 -0.03 -0.00    +0.000 A 
DOCKED: ATOM     13  C   UNL d   1      45.932  50.121   3.973 -0.07 -0.02    +0.070 A 
DOCKED: ATOM     14  C   UNL d   1      45.429  53.769   3.874 -0.01 -0.00    +0.052 C 
DOCKED: ATOM     15  C   UNL d   1      46.260  47.616   3.978 -0.16 -0.03    +0.066 A 
DOCKED: ATOM     16  C   UNL d   1      47.055  46.504   3.740 -0.17 +0.01    -0.021 A 
DOCKED: ATOM     17  C   UNL d   1      46.219  45.393   3.924 -0.27 -0.00    +0.000 A 
DOCKED: ATOM     18  C   UNL d   1      44.981  45.917   4.278 -0.29 -0.03    +0.070 A 
DOCKED: ATOM     19  C   UNL d   1      48.519  46.536   3.360 -0.10 -0.02    +0.052 C 
DOCKED: ATOM     20  C   UNL d   1      42.528  45.650   4.804 -0.33 -0.01    +0.066 A 
DOCKED: ATOM     21  C   UNL d   1      41.427  44.821   5.006 -0.35 -0.00    -0.025 A 
DOCKED: ATOM     22  C   UNL d   1      40.355  45.669   5.217 -0.30 -0.00    -0.021 A 
DOCKED: ATOM     23  C   UNL d   1      40.858  46.984   5.121 -0.26 -0.00    +0.066 A 
DOCKED: ATOM     24  C   UNL d   1      41.392  43.295   4.979 -0.30 +0.01    +0.051 C 
DOCKED: ATOM     25  N   UNL d   1      41.891  49.743   4.711 -0.15 +0.06    -0.248 N 
DOCKED: ATOM     26  N   UNL d   1      44.589  50.164   4.182 -0.08 +0.07    -0.248 N 
DOCKED: ATOM     27  N   UNL d   1      45.034  47.244   4.271 -0.05 +0.13    -0.248 N 
DOCKED: ATOM     28  N   UNL d   1      42.172  46.977   4.869 -0.09 +0.05    -0.248 N 
DOCKED: ATOM     29 FE   UNL d   1      43.554  48.417   4.479 -0.05 -0.00    +0.000 Fe
DOCKED: ENDROOT
DOCKED: BRANCH   6  30
DOCKED: ATOM     30  C   UNL d   1      38.226  50.597   5.019 -0.27 +0.04    +0.052 C 
DOCKED: BRANCH  30  31
DOCKED: ATOM     31  C   UNL d   1      37.566  50.976   3.694 -0.16 +0.07    +0.115 C 
DOCKED: BRANCH  31  32
DOCKED: ATOM     32  C   UNL d   1      37.341  49.777   2.798 -0.11 +0.12    +0.139 C 
DOCKED: ATOM     33  O   UNL d   1      36.201  49.398   2.576 +0.05 -1.00    -0.650 OA
DOCKED: BRANCH  32  34
DOCKED: ATOM     34  O   UNL d   1      38.365  49.134   2.189 +0.03 -0.44    -0.776 OA
DOCKED: ATOM     35  H   UNL d   1      38.483  48.174   2.193 +0.03 +0.10    +0.167 HD
DOCKED: ENDBRANCH  32  34
DOCKED: ENDBRANCH  31  32
DOCKED: ENDBRANCH  30  31
DOCKED: ENDBRANCH   6  30
DOCKED: BRANCH  29  36
DOCKED: ATOM     36  C   UNL d   1      43.076  48.356   2.439 -0.04 -0.01    +0.190 C 
DOCKED: BRANCH  36  37
DOCKED: ATOM     37  O   UNL d   1      42.037  48.074   1.545 +0.01 -0.02    -0.399 OA
DOCKED: ATOM     38  H   UNL d   1      41.355  47.590   2.090 +0.03 +0.02    +0.209 HD
DOCKED: ENDBRANCH  36  37
DOCKED: ENDBRANCH  29  36
DOCKED: BRANCH  22  39
DOCKED: ATOM     39  C   UNL d   1      38.918  45.234   5.434 -0.35 +0.02    +0.052 C 
DOCKED: BRANCH  39  40
DOCKED: ATOM     40  C   UNL d   1      38.257  44.860   4.097 -0.21 +0.05    +0.115 C 
DOCKED: BRANCH  40  41
DOCKED: ATOM     41  C   UNL d   1      38.257  45.971   3.068 -0.11 +0.10    +0.139 C 
DOCKED: ATOM     42  O   UNL d   1      39.307  46.284   2.525 +0.05 -0.24    -0.650 OA
DOCKED: BRANCH  41  43
DOCKED: ATOM     43  O   UNL d   1      37.112  46.569   2.668 +0.13 -1.19    -0.776 OA
DOCKED: ATOM     44  H   UNL d   1      37.096  47.457   2.290 +0.02 +0.25    +0.167 HD
DOCKED: ENDBRANCH  41  43
DOCKED: ENDBRANCH  40  41
DOCKED: ENDBRANCH  39  40
DOCKED: ENDBRANCH  22  39
DOCKED: BRANCH  12  45
DOCKED: ATOM     45  C   UNL d   1      47.982  51.614   3.635 -0.02 -0.00    +0.004 C 
DOCKED: ATOM     46  C   UNL d   1      48.985  51.486   4.499 -0.02 -0.00    +0.012 C 
DOCKED: ENDBRANCH  12  45
DOCKED: BRANCH  17  47
DOCKED: ATOM     47  C   UNL d   1      46.510  43.939   3.741 -0.08 -0.00    +0.004 C 
DOCKED: ATOM     48  C   UNL d   1      47.707  43.393   3.967 -0.26 -0.00    +0.012 C 
DOCKED: ENDBRANCH  17  47
DOCKED: TORSDOF 12
DOCKED: TER
DOCKED: ENDMDL
________________________________________________________________________________


	BEGINNING GENETIC ALGORITHM DOCKING 18 of 100
Run: 18 Seed: 2104773219 1506442796 [ Run 18 of 100 GA/GALS ]
Beginning LAMARCKIAN GENETIC ALGORITHM (LGA), with a maximum of 25000000 energy evaluations.

Final-Value: -10.513


	FINAL GENETIC ALGORITHM DOCKED STATE
	_______________________________________________


Detailed state:  trans 24.309 23.789 5.213 quatxyzw 0.001816 -0.824009 -0.181410 0.536746 center 8.781 34.984 -0.736 ntor 12 122.3883 152.1630 -59.9835 -95.7941 118.6349 -58.9720 -166.2582 -75.7217 85.8392 125.9519 16.0576 -157.6947
State:	 24.309  23.789   5.213   0.002 -0.977 -0.215 115.075    122.39  152.16  -59.98  -95.79  118.63  -58.97 -166.26  -75.72   85.84  125.95   16.06 -157.69

DOCKED: MODEL       18
DOCKED: USER    Run = 18
DOCKED: USER    DPF = D:/Protein_go_brrr/autodock/final/6BB5/heme_Co/dock.dpf
DOCKED: USER  
DOCKED: USER    Estimated Free Energy of Binding    =   -6.14 kcal/mol  [=(1)+(2)+(3)-(4)]
DOCKED: USER    Estimated Inhibition Constant, Ki   =   31.66 uM (micromolar)  [Temperature = 298.15 K]
DOCKED: USER    
DOCKED: USER    (1) Final Intermolecular Energy     =   -9.72 kcal/mol
DOCKED: USER        vdW + Hbond + desolv Energy     =   -8.68 kcal/mol
DOCKED: USER        Electrostatic Energy            =   -1.04 kcal/mol
DOCKED: USER    (2) Final Total Internal Energy     =   -0.79 kcal/mol
DOCKED: USER    (3) Torsional Free Energy           =   +3.58 kcal/mol
DOCKED: USER    (4) Unbound System's Energy  [=(2)] =   -0.79 kcal/mol
DOCKED: USER    
DOCKED: USER    
DOCKED: USER    NEWDPF move heme_Co_opt.pdbqt
DOCKED: USER    NEWDPF about 8.781000 34.984000 -0.736000
DOCKED: USER    NEWDPF tran0 24.308876 23.789370 5.212805
DOCKED: USER    NEWDPF quaternion0 0.001816 -0.824009 -0.181410 0.536746
DOCKED: USER    NEWDPF axisangle0 0.002152 -0.976610 -0.215006 115.075212
DOCKED: USER    NEWDPF quat0 0.002152 -0.976610 -0.215006 115.075212
DOCKED: USER    NEWDPF dihe0 122.39 152.16 -59.98 -95.79 118.63 -58.97 -166.26 -75.72 85.84 125.95 16.06 -157.69 
DOCKED: USER  keepresnum = 1 
DOCKED: USER  
DOCKED: REMARK  12 active torsions:
DOCKED: REMARK  status: ('A' for Active; 'I' for Inactive)
DOCKED: REMARK    1  A    between atoms: C_6  and  C_10 
DOCKED: REMARK    2  A    between atoms: C_10  and  C_11 
DOCKED: REMARK    3  A    between atoms: C_11  and  C_12 
DOCKED: REMARK    4  A    between atoms: C_12  and  O_14 
DOCKED: REMARK    5  A    between atoms: C_17  and  C_20 
DOCKED: REMARK    6  A    between atoms: C_24  and  C_27 
DOCKED: REMARK    7  A    between atoms: C_31  and  C_34 
DOCKED: REMARK    8  A    between atoms: C_34  and  C_35 
DOCKED: REMARK    9  A    between atoms: C_35  and  C_36 
DOCKED: REMARK   10  A    between atoms: C_36  and  O_38 
DOCKED: REMARK   11  A    between atoms: FE_43  and  C_44 
DOCKED: REMARK   12  A    between atoms: C_44  and  O_45 
DOCKED: USER                              x       y       z     vdW  Elec       q    Type
DOCKED: USER                           _______ _______ _______ _____ _____    ______ ____
DOCKED: ROOT
DOCKED: ATOM      1  C   UNL d   1      24.279  23.629   7.378 -0.16 +0.01    +0.064 A 
DOCKED: ATOM      2  C   UNL d   1      27.573  22.509   4.137 -0.09 +0.00    +0.064 C 
DOCKED: ATOM      3  C   UNL d   1      24.539  23.619   0.616 -0.02 -0.01    +0.064 A 
DOCKED: ATOM      4  C   UNL d   1      21.294  25.134   3.908 -0.13 +0.01    +0.064 A 
DOCKED: ATOM      5  C   UNL d   1      25.389  23.207   6.751 -0.13 +0.01    +0.066 A 
DOCKED: ATOM      6  C   UNL d   1      26.556  22.852   7.455 -0.23 -0.00    -0.021 A 
DOCKED: ATOM      7  C   UNL d   1      27.516  22.550   6.509 -0.18 -0.00    -0.025 A 
DOCKED: ATOM      8  C   UNL d   1      26.889  22.717   5.269 -0.09 +0.00    +0.066 A 
DOCKED: ATOM      9  C   UNL d   1      28.972  22.120   6.747 -0.26 -0.00    +0.051 C 
DOCKED: ATOM     10  C   UNL d   1      27.005  22.631   2.817 -0.04 -0.00    +0.066 A 
DOCKED: ATOM     11  C   UNL d   1      27.627  22.291   1.596 -0.03 +0.00    -0.021 A 
DOCKED: ATOM     12  C   UNL d   1      26.719  22.621   0.586 -0.01 -0.00    +0.000 A 
DOCKED: ATOM     13  C   UNL d   1      25.608  23.124   1.264 -0.01 -0.01    +0.070 A 
DOCKED: ATOM     14  C   UNL d   1      28.961  21.609   1.434 -0.05 -0.01    +0.052 C 
DOCKED: ATOM     15  C   UNL d   1      23.335  24.222   1.153 -0.06 -0.01    +0.066 A 
DOCKED: ATOM     16  C   UNL d   1      22.332  24.846   0.426 -0.15 +0.01    -0.021 A 
DOCKED: ATOM     17  C   UNL d   1      21.395  25.287   1.371 -0.28 -0.00    +0.000 A 
DOCKED: ATOM     18  C   UNL d   1      21.894  24.881   2.604 -0.16 -0.01    +0.070 A 
DOCKED: ATOM     19  C   UNL d   1      22.303  24.995  -1.079 -0.20 -0.02    +0.052 C 
DOCKED: ATOM     20  C   UNL d   1      21.803  24.826   5.124 -0.12 +0.01    +0.066 A 
DOCKED: ATOM     21  C   UNL d   1      21.149  25.154   6.309 -0.26 -0.01    -0.025 A 
DOCKED: ATOM     22  C   UNL d   1      21.972  24.706   7.326 -0.25 -0.00    -0.021 A 
DOCKED: ATOM     23  C   UNL d   1      23.103  24.133   6.706 -0.15 +0.01    +0.066 A 
DOCKED: ATOM     24  C   UNL d   1      19.814  25.876   6.467 -0.41 +0.01    +0.051 C 
DOCKED: ATOM     25  N   UNL d   1      25.569  23.118   5.389 -0.03 -0.03    -0.248 N 
DOCKED: ATOM     26  N   UNL d   1      25.761  23.077   2.615 -0.01 +0.00    -0.248 N 
DOCKED: ATOM     27  N   UNL d   1      23.066  24.277   2.439 -0.05 +0.02    -0.248 N 
DOCKED: ATOM     28  N   UNL d   1      23.006  24.205   5.373 -0.07 -0.04    -0.248 N 
DOCKED: ATOM     29 FE   UNL d   1      24.241  23.732   3.829 -0.02 +0.00    +0.000 Fe
DOCKED: ENDROOT
DOCKED: BRANCH   6  30
DOCKED: ATOM     30  C   UNL d   1      26.752  22.886   8.967 -0.27 +0.01    +0.052 C 
DOCKED: BRANCH  30  31
DOCKED: ATOM     31  C   UNL d   1      26.606  21.485   9.559 -0.39 +0.02    +0.115 C 
DOCKED: BRANCH  31  32
DOCKED: ATOM     32  C   UNL d   1      25.213  21.224  10.089 -0.29 +0.02    +0.139 C 
DOCKED: ATOM     33  O   UNL d   1      24.268  21.213   9.315 +0.02 -0.07    -0.650 OA
DOCKED: BRANCH  32  34
DOCKED: ATOM     34  O   UNL d   1      24.981  20.954  11.395 -0.01 -0.09    -0.776 OA
DOCKED: ATOM     35  H   UNL d   1      24.437  21.504  11.976 -0.52 -0.02    +0.167 HD
DOCKED: ENDBRANCH  32  34
DOCKED: ENDBRANCH  31  32
DOCKED: ENDBRANCH  30  31
DOCKED: ENDBRANCH   6  30
DOCKED: BRANCH  29  36
DOCKED: ATOM     36  C   UNL d   1      25.151  25.617   3.949 +0.01 +0.04    +0.190 C 
DOCKED: BRANCH  36  37
DOCKED: ATOM     37  O   UNL d   1      25.531  26.722   3.181 -0.11 -0.05    -0.399 OA
DOCKED: ATOM     38  H   UNL d   1      24.788  26.846   2.525 -0.12 -0.09    +0.209 HD
DOCKED: ENDBRANCH  36  37
DOCKED: ENDBRANCH  29  36
DOCKED: BRANCH  22  39
DOCKED: ATOM     39  C   UNL d   1      21.712  24.881   8.811 -0.42 +0.01    +0.052 C 
DOCKED: BRANCH  39  40
DOCKED: ATOM     40  C   UNL d   1      21.523  26.367   9.157 -0.49 +0.02    +0.115 C 
DOCKED: BRANCH  40  41
DOCKED: ATOM     41  C   UNL d   1      22.712  27.243   8.821 -0.30 +0.05    +0.139 C 
DOCKED: ATOM     42  O   UNL d   1      23.066  27.349   7.655 -0.57 -0.53    -0.650 OA
DOCKED: BRANCH  41  43
DOCKED: ATOM     43  O   UNL d   1      23.340  27.980   9.763 -0.14 -0.31    -0.776 OA
DOCKED: ATOM     44  H   UNL d   1      22.870  28.600  10.337 -0.25 +0.02    +0.167 HD
DOCKED: ENDBRANCH  41  43
DOCKED: ENDBRANCH  40  41
DOCKED: ENDBRANCH  39  40
DOCKED: ENDBRANCH  22  39
DOCKED: BRANCH  12  45
DOCKED: ATOM     45  C   UNL d   1      26.765  22.502  -0.931 -0.01 -0.00    +0.004 C 
DOCKED: ATOM     46  C   UNL d   1      26.953  23.429  -1.867 -0.00 -0.00    +0.012 C 
DOCKED: ENDBRANCH  12  45
DOCKED: BRANCH  17  47
DOCKED: ATOM     47  C   UNL d   1      20.142  26.076   1.176 -0.54 -0.00    +0.004 C 
DOCKED: ATOM     48  C   UNL d   1      18.929  25.524   1.089 -0.62 -0.00    +0.012 C 
DOCKED: ENDBRANCH  17  47
DOCKED: TORSDOF 12
DOCKED: TER
DOCKED: ENDMDL
________________________________________________________________________________


	BEGINNING GENETIC ALGORITHM DOCKING 19 of 100
Run: 19 Seed: 2019033868 489290510 [ Run 19 of 100 GA/GALS ]
Beginning LAMARCKIAN GENETIC ALGORITHM (LGA), with a maximum of 25000000 energy evaluations.

Final-Value: -11.705


	FINAL GENETIC ALGORITHM DOCKED STATE
	_______________________________________________


Detailed state:  trans 35.344 29.626 0.614 quatxyzw -0.778951 0.415937 0.047651 -0.466864 center 8.781 34.984 -0.736 ntor 12 157.3498 95.9818 -59.3160 114.7185 137.2482 120.1472 -113.1689 -22.4642 -125.0910 180.0000 -180.0000 176.4386
State:	 35.344  29.626   0.614  -0.881  0.470  0.054 -124.338    157.35   95.98  -59.32  114.72  137.25  120.15 -113.17  -22.46 -125.09  180.00 -180.00  176.44

DOCKED: MODEL       19
DOCKED: USER    Run = 19
DOCKED: USER    DPF = D:/Protein_go_brrr/autodock/final/6BB5/heme_Co/dock.dpf
DOCKED: USER  
DOCKED: USER    Estimated Free Energy of Binding    =   -4.34 kcal/mol  [=(1)+(2)+(3)-(4)]
DOCKED: USER    Estimated Inhibition Constant, Ki   =  659.13 uM (micromolar)  [Temperature = 298.15 K]
DOCKED: USER    
DOCKED: USER    (1) Final Intermolecular Energy     =   -7.92 kcal/mol
DOCKED: USER        vdW + Hbond + desolv Energy     =   -6.83 kcal/mol
DOCKED: USER        Electrostatic Energy            =   -1.09 kcal/mol
DOCKED: USER    (2) Final Total Internal Energy     =   -3.79 kcal/mol
DOCKED: USER    (3) Torsional Free Energy           =   +3.58 kcal/mol
DOCKED: USER    (4) Unbound System's Energy  [=(2)] =   -3.79 kcal/mol
DOCKED: USER    
DOCKED: USER    
DOCKED: USER    NEWDPF move heme_Co_opt.pdbqt
DOCKED: USER    NEWDPF about 8.781000 34.984000 -0.736000
DOCKED: USER    NEWDPF tran0 35.344144 29.625816 0.613865
DOCKED: USER    NEWDPF quaternion0 -0.778951 0.415937 0.047651 -0.466864
DOCKED: USER    NEWDPF axisangle0 -0.880838 0.470341 0.053883 -124.338194
DOCKED: USER    NEWDPF quat0 -0.880838 0.470341 0.053883 -124.338194
DOCKED: USER    NEWDPF dihe0 157.35 95.98 -59.32 114.72 137.25 120.15 -113.17 -22.46 -125.09 180.00 -180.00 176.44 
DOCKED: USER  keepresnum = 1 
DOCKED: USER  
DOCKED: REMARK  12 active torsions:
DOCKED: REMARK  status: ('A' for Active; 'I' for Inactive)
DOCKED: REMARK    1  A    between atoms: C_6  and  C_10 
DOCKED: REMARK    2  A    between atoms: C_10  and  C_11 
DOCKED: REMARK    3  A    between atoms: C_11  and  C_12 
DOCKED: REMARK    4  A    between atoms: C_12  and  O_14 
DOCKED: REMARK    5  A    between atoms: C_17  and  C_20 
DOCKED: REMARK    6  A    between atoms: C_24  and  C_27 
DOCKED: REMARK    7  A    between atoms: C_31  and  C_34 
DOCKED: REMARK    8  A    between atoms: C_34  and  C_35 
DOCKED: REMARK    9  A    between atoms: C_35  and  C_36 
DOCKED: REMARK   10  A    between atoms: C_36  and  O_38 
DOCKED: REMARK   11  A    between atoms: FE_43  and  C_44 
DOCKED: REMARK   12  A    between atoms: C_44  and  O_45 
DOCKED: USER                              x       y       z     vdW  Elec       q    Type
DOCKED: USER                           _______ _______ _______ _____ _____    ______ ____
DOCKED: ROOT
DOCKED: ATOM      1  C   UNL d   1      33.475  30.033   1.641 -0.23 +0.02    +0.064 A 
DOCKED: ATOM      2  C   UNL d   1      37.308  32.718   0.798 -0.23 -0.01    +0.064 C 
DOCKED: ATOM      3  C   UNL d   1      39.554  28.970  -1.135 -0.18 -0.00    +0.064 A 
DOCKED: ATOM      4  C   UNL d   1      35.514  26.307  -0.635 -0.13 -0.00    +0.064 A 
DOCKED: ATOM      5  C   UNL d   1      34.370  31.032   1.586 -0.18 +0.01    +0.066 A 
DOCKED: ATOM      6  C   UNL d   1      34.056  32.341   2.001 -0.17 -0.00    -0.021 A 
DOCKED: ATOM      7  C   UNL d   1      35.164  33.121   1.733 -0.19 -0.00    -0.025 A 
DOCKED: ATOM      8  C   UNL d   1      36.112  32.252   1.182 -0.18 -0.00    +0.066 A 
DOCKED: ATOM      9  C   UNL d   1      35.338  34.627   1.980 -0.18 -0.00    +0.051 C 
DOCKED: ATOM     10  C   UNL d   1      38.355  31.895   0.246 -0.22 -0.01    +0.066 A 
DOCKED: ATOM     11  C   UNL d   1      39.677  32.295  -0.045 -0.29 +0.00    -0.021 A 
DOCKED: ATOM     12  C   UNL d   1      40.311  31.182  -0.603 -0.28 -0.00    +0.000 A 
DOCKED: ATOM     13  C   UNL d   1      39.336  30.185  -0.600 -0.22 -0.00    +0.070 A 
DOCKED: ATOM     14  C   UNL d   1      40.300  33.627   0.286 -0.37 -0.00    +0.052 C 
DOCKED: ATOM     15  C   UNL d   1      38.649  27.845  -1.263 -0.15 -0.00    +0.066 A 
DOCKED: ATOM     16  C   UNL d   1      38.892  26.668  -1.956 -0.10 +0.00    -0.021 A 
DOCKED: ATOM     17  C   UNL d   1      37.728  25.898  -1.817 -0.09 -0.00    +0.000 A 
DOCKED: ATOM     18  C   UNL d   1      36.871  26.662  -1.033 -0.11 -0.00    +0.070 A 
DOCKED: ATOM     19  C   UNL d   1      40.168  26.333  -2.696 -0.09 +0.00    +0.052 C 
DOCKED: ATOM     20  C   UNL d   1      34.631  27.069   0.053 -0.16 -0.00    +0.066 A 
DOCKED: ATOM     21  C   UNL d   1      33.341  26.632   0.345 -0.21 +0.00    -0.025 A 
DOCKED: ATOM     22  C   UNL d   1      32.739  27.674   1.026 -0.26 -0.00    -0.021 A 
DOCKED: ATOM     23  C   UNL d   1      33.695  28.709   1.106 -0.21 +0.01    +0.066 A 
DOCKED: ATOM     24  C   UNL d   1      32.705  25.295  -0.024 -0.13 -0.01    +0.051 C 
DOCKED: ATOM     25  N   UNL d   1      35.650  30.951   1.084 -0.11 -0.02    -0.248 N 
DOCKED: ATOM     26  N   UNL d   1      38.171  30.601  -0.035 -0.15 +0.01    -0.248 N 
DOCKED: ATOM     27  N   UNL d   1      37.440  27.828  -0.747 -0.10 -0.00    -0.248 N 
DOCKED: ATOM     28  N   UNL d   1      34.841  28.347   0.516 -0.07 -0.02    -0.248 N 
DOCKED: ATOM     29 FE   UNL d   1      36.595  29.295   0.115 -0.04 +0.00    +0.000 Fe
DOCKED: ENDROOT
DOCKED: BRANCH   6  30
DOCKED: ATOM     30  C   UNL d   1      32.719  32.824   2.552 -0.14 +0.03    +0.052 C 
DOCKED: BRANCH  30  31
DOCKED: ATOM     31  C   UNL d   1      31.870  33.440   1.439 -0.02 +0.07    +0.115 C 
DOCKED: BRANCH  31  32
DOCKED: ATOM     32  C   UNL d   1      31.714  32.513   0.253 -0.05 +0.10    +0.139 C 
DOCKED: ATOM     33  O   UNL d   1      30.601  32.112  -0.054 -0.37 -0.90    -0.650 OA
DOCKED: BRANCH  32  34
DOCKED: ATOM     34  O   UNL d   1      32.766  32.148  -0.516 +0.03 -0.27    -0.776 OA
DOCKED: ATOM     35  H   UNL d   1      32.813  31.322  -1.017 +0.02 +0.05    +0.167 HD
DOCKED: ENDBRANCH  32  34
DOCKED: ENDBRANCH  31  32
DOCKED: ENDBRANCH  30  31
DOCKED: ENDBRANCH   6  30
DOCKED: BRANCH  29  36
DOCKED: ATOM     36  C   UNL d   1      35.808  30.041  -1.679 -0.03 +0.01    +0.190 C 
DOCKED: BRANCH  36  37
DOCKED: ATOM     37  O   UNL d   1      34.700  30.699  -2.221 +0.00 -0.03    -0.399 OA
DOCKED: ATOM     38  H   UNL d   1      33.981  30.598  -1.536 +0.02 +0.03    +0.209 HD
DOCKED: ENDBRANCH  36  37
DOCKED: ENDBRANCH  29  36
DOCKED: BRANCH  22  39
DOCKED: ATOM     39  C   UNL d   1      31.302  27.693   1.513 -0.24 +0.02    +0.052 C 
DOCKED: BRANCH  39  40
DOCKED: ATOM     40  C   UNL d   1      30.348  28.088   0.374 -0.13 +0.07    +0.115 C 
DOCKED: BRANCH  40  41
DOCKED: ATOM     41  C   UNL d   1      31.042  28.492  -0.910 -0.06 +0.05    +0.139 C 
DOCKED: ATOM     42  O   UNL d   1      30.885  27.812  -1.915 +0.03 -0.09    -0.650 OA
DOCKED: BRANCH  41  43
DOCKED: ATOM     43  O   UNL d   1      31.761  29.633  -1.000 +0.04 -0.31    -0.776 OA
DOCKED: ATOM     44  H   UNL d   1      31.402  30.494  -0.753 +0.02 +0.11    +0.167 HD
DOCKED: ENDBRANCH  41  43
DOCKED: ENDBRANCH  40  41
DOCKED: ENDBRANCH  39  40
DOCKED: ENDBRANCH  22  39
DOCKED: BRANCH  12  45
DOCKED: ATOM     45  C   UNL d   1      41.724  30.942  -1.119 -0.34 -0.00    +0.004 C 
DOCKED: ATOM     46  C   UNL d   1      42.732  30.252  -0.593 -0.48 -0.00    +0.012 C 
DOCKED: ENDBRANCH  12  45
DOCKED: BRANCH  17  47
DOCKED: ATOM     47  C   UNL d   1      37.390  24.566  -2.403 -0.04 -0.00    +0.004 C 
DOCKED: ATOM     48  C   UNL d   1      37.187  23.469  -1.670 -0.05 -0.00    +0.012 C 
DOCKED: ENDBRANCH  17  47
DOCKED: TORSDOF 12
DOCKED: TER
DOCKED: ENDMDL
________________________________________________________________________________


	BEGINNING GENETIC ALGORITHM DOCKING 20 of 100
Run: 20 Seed: 2099870019 1607529494 [ Run 20 of 100 GA/GALS ]
Beginning LAMARCKIAN GENETIC ALGORITHM (LGA), with a maximum of 25000000 energy evaluations.

Final-Value: -12.517


	FINAL GENETIC ALGORITHM DOCKED STATE
	_______________________________________________


Detailed state:  trans 7.890 39.501 -5.316 quatxyzw -0.886588 0.013341 0.454266 -0.086172 center 8.781 34.984 -0.736 ntor 12 37.0065 126.4973 159.3759 116.9956 68.9683 144.8044 62.3789 -134.2304 29.8355 -3.0480 173.0036 -39.7462
State:	  7.890  39.501  -5.316  -0.890  0.013  0.456 -170.113     37.01  126.50  159.38  117.00   68.97  144.80   62.38 -134.23   29.84   -3.05  173.00  -39.75

DOCKED: MODEL       20
DOCKED: USER    Run = 20
DOCKED: USER    DPF = D:/Protein_go_brrr/autodock/final/6BB5/heme_Co/dock.dpf
DOCKED: USER  
DOCKED: USER    Estimated Free Energy of Binding    =   -8.28 kcal/mol  [=(1)+(2)+(3)-(4)]
DOCKED: USER    Estimated Inhibition Constant, Ki   =  856.84 nM (nanomolar)  [Temperature = 298.15 K]
DOCKED: USER    
DOCKED: USER    (1) Final Intermolecular Energy     =  -11.86 kcal/mol
DOCKED: USER        vdW + Hbond + desolv Energy     =   -9.74 kcal/mol
DOCKED: USER        Electrostatic Energy            =   -2.11 kcal/mol
DOCKED: USER    (2) Final Total Internal Energy     =   -0.66 kcal/mol
DOCKED: USER    (3) Torsional Free Energy           =   +3.58 kcal/mol
DOCKED: USER    (4) Unbound System's Energy  [=(2)] =   -0.66 kcal/mol
DOCKED: USER    
DOCKED: USER    
DOCKED: USER    NEWDPF move heme_Co_opt.pdbqt
DOCKED: USER    NEWDPF about 8.781000 34.984000 -0.736000
DOCKED: USER    NEWDPF tran0 7.890053 39.501017 -5.316462
DOCKED: USER    NEWDPF quaternion0 -0.886588 0.013341 0.454266 -0.086172
DOCKED: USER    NEWDPF axisangle0 -0.889899 0.013390 0.455962 -170.113182
DOCKED: USER    NEWDPF quat0 -0.889899 0.013390 0.455962 -170.113182
DOCKED: USER    NEWDPF dihe0 37.01 126.50 159.38 117.00 68.97 144.80 62.38 -134.23 29.84 -3.05 173.00 -39.75 
DOCKED: USER  keepresnum = 1 
DOCKED: USER  
DOCKED: REMARK  12 active torsions:
DOCKED: REMARK  status: ('A' for Active; 'I' for Inactive)
DOCKED: REMARK    1  A    between atoms: C_6  and  C_10 
DOCKED: REMARK    2  A    between atoms: C_10  and  C_11 
DOCKED: REMARK    3  A    between atoms: C_11  and  C_12 
DOCKED: REMARK    4  A    between atoms: C_12  and  O_14 
DOCKED: REMARK    5  A    between atoms: C_17  and  C_20 
DOCKED: REMARK    6  A    between atoms: C_24  and  C_27 
DOCKED: REMARK    7  A    between atoms: C_31  and  C_34 
DOCKED: REMARK    8  A    between atoms: C_34  and  C_35 
DOCKED: REMARK    9  A    between atoms: C_35  and  C_36 
DOCKED: REMARK   10  A    between atoms: C_36  and  O_38 
DOCKED: REMARK   11  A    between atoms: FE_43  and  C_44 
DOCKED: REMARK   12  A    between atoms: C_44  and  O_45 
DOCKED: USER                              x       y       z     vdW  Elec       q    Type
DOCKED: USER                           _______ _______ _______ _____ _____    ______ ____
DOCKED: ROOT
DOCKED: ATOM      1  C   UNL d   1       7.386  38.764  -3.337 -0.31 -0.00    +0.064 A 
DOCKED: ATOM      2  C   UNL d   1       5.396  42.068  -6.118 -0.05 +0.01    +0.064 C 
DOCKED: ATOM      3  C   UNL d   1       8.918  41.559  -9.307 -0.14 -0.05    +0.064 A 
DOCKED: ATOM      4  C   UNL d   1      10.760  37.910  -6.670 -0.09 -0.01    +0.064 A 
DOCKED: ATOM      5  C   UNL d   1       6.603  39.730  -3.845 -0.24 +0.00    +0.066 A 
DOCKED: ATOM      6  C   UNL d   1       5.403  40.124  -3.223 -0.23 -0.00    -0.021 A 
DOCKED: ATOM      7  C   UNL d   1       4.818  41.066  -4.046 -0.16 -0.01    -0.025 A 
DOCKED: ATOM      8  C   UNL d   1       5.694  41.219  -5.126 -0.16 +0.01    +0.066 A 
DOCKED: ATOM      9  C   UNL d   1       3.486  41.803  -3.837 -0.12 +0.02    +0.051 C 
DOCKED: ATOM     10  C   UNL d   1       6.248  42.311  -7.255 -0.10 +0.00    +0.066 A 
DOCKED: ATOM     11  C   UNL d   1       6.061  43.289  -8.256 -0.08 -0.00    -0.021 A 
DOCKED: ATOM     12  C   UNL d   1       7.104  43.120  -9.171 -0.14 -0.00    +0.000 A 
DOCKED: ATOM     13  C   UNL d   1       7.855  42.064  -8.656 -0.16 -0.03    +0.070 A 
DOCKED: ATOM     14  C   UNL d   1       5.004  44.363  -8.267 +0.07 +0.01    +0.052 C 
DOCKED: ATOM     15  C   UNL d   1       9.771  40.443  -8.948 -0.22 -0.05    +0.066 A 
DOCKED: ATOM     16  C   UNL d   1      10.764  39.880  -9.736 -0.22 +0.01    -0.021 A 
DOCKED: ATOM     17  C   UNL d   1      11.297  38.825  -8.981 -0.36 -0.00    +0.000 A 
DOCKED: ATOM     18  C   UNL d   1      10.596  38.840  -7.780 -0.34 -0.03    +0.070 A 
DOCKED: ATOM     19  C   UNL d   1      11.153  40.344 -11.122 -0.13 -0.03    +0.052 C 
DOCKED: ATOM     20  C   UNL d   1      10.032  37.850  -5.529 -0.30 -0.01    +0.066 A 
DOCKED: ATOM     21  C   UNL d   1      10.262  36.887  -4.550 -0.40 +0.00    -0.025 A 
DOCKED: ATOM     22  C   UNL d   1       9.323  37.126  -3.563 -0.42 +0.00    -0.021 A 
DOCKED: ATOM     23  C   UNL d   1       8.553  38.226  -3.999 -0.35 -0.01    +0.066 A 
DOCKED: ATOM     24  C   UNL d   1      11.311  35.778  -4.562 -0.23 +0.00    +0.051 C 
DOCKED: ATOM     25  N   UNL d   1       6.811  40.408  -5.025 -0.12 +0.01    -0.248 N 
DOCKED: ATOM     26  N   UNL d   1       7.369  41.613  -7.469 -0.11 +0.07    -0.248 N 
DOCKED: ATOM     27  N   UNL d   1       9.675  39.797  -7.807 -0.20 +0.15    -0.248 N 
DOCKED: ATOM     28  N   UNL d   1       8.978  38.666  -5.189 -0.20 +0.07    -0.248 N 
DOCKED: ATOM     29 FE   UNL d   1       8.330  40.082  -6.496 -0.06 -0.00    +0.000 Fe
DOCKED: ENDROOT
DOCKED: BRANCH   6  30
DOCKED: ATOM     30  C   UNL d   1       4.815  39.552  -1.937 -0.22 +0.02    +0.052 C 
DOCKED: BRANCH  30  31
DOCKED: ATOM     31  C   UNL d   1       3.667  38.593  -2.251 -0.17 +0.06    +0.115 C 
DOCKED: BRANCH  31  32
DOCKED: ATOM     32  C   UNL d   1       2.648  38.527  -1.134 -0.10 +0.17    +0.139 C 
DOCKED: ATOM     33  O   UNL d   1       2.965  38.037  -0.060 -0.32 -1.05    -0.650 OA
DOCKED: BRANCH  32  34
DOCKED: ATOM     34  O   UNL d   1       1.402  39.038  -1.267 -0.42 -1.36    -0.776 OA
DOCKED: ATOM     35  H   UNL d   1       0.907  39.055  -2.098 +0.02 +0.15    +0.167 HD
DOCKED: ENDBRANCH  32  34
DOCKED: ENDBRANCH  31  32
DOCKED: ENDBRANCH  30  31
DOCKED: ENDBRANCH   6  30
DOCKED: BRANCH  29  36
DOCKED: ATOM     36  C   UNL d   1       7.021  38.703  -7.379 -0.09 -0.02    +0.190 C 
DOCKED: BRANCH  36  37
DOCKED: ATOM     37  O   UNL d   1       5.818  38.019  -7.173 -0.03 -0.00    -0.399 OA
DOCKED: ATOM     38  H   UNL d   1       5.392  38.477  -6.395 +0.04 +0.01    +0.209 HD
DOCKED: ENDBRANCH  36  37
DOCKED: ENDBRANCH  29  36
DOCKED: BRANCH  22  39
DOCKED: ATOM     39  C   UNL d   1       9.139  36.299  -2.305 -0.45 +0.00    +0.052 C 
DOCKED: BRANCH  39  40
DOCKED: ATOM     40  C   UNL d   1      10.409  36.338  -1.439 -0.26 +0.01    +0.115 C 
DOCKED: BRANCH  40  41
DOCKED: ATOM     41  C   UNL d   1      10.251  35.713  -0.069 -0.38 +0.03    +0.139 C 
DOCKED: ATOM     42  O   UNL d   1       9.193  35.174   0.224 -1.00 -0.20    -0.650 OA
DOCKED: BRANCH  41  43
DOCKED: ATOM     43  O   UNL d   1      11.277  35.658   0.809 +0.06 -0.08    -0.776 OA
DOCKED: ATOM     44  H   UNL d   1      11.149  35.451   1.744 +0.10 +0.02    +0.167 HD
DOCKED: ENDBRANCH  41  43
DOCKED: ENDBRANCH  40  41
DOCKED: ENDBRANCH  39  40
DOCKED: ENDBRANCH  22  39
DOCKED: BRANCH  12  45
DOCKED: ATOM     45  C   UNL d   1       7.485  43.844 -10.455 -0.11 -0.00    +0.004 C 
DOCKED: ATOM     46  C   UNL d   1       8.495  44.671 -10.716 -0.17 -0.01    +0.012 C 
DOCKED: ENDBRANCH  12  45
DOCKED: BRANCH  17  47
DOCKED: ATOM     47  C   UNL d   1      12.347  37.827  -9.344 -0.28 -0.00    +0.004 C 
DOCKED: ATOM     48  C   UNL d   1      13.512  38.155  -9.908 -0.39 +0.00    +0.012 C 
DOCKED: ENDBRANCH  17  47
DOCKED: TORSDOF 12
DOCKED: TER
DOCKED: ENDMDL
________________________________________________________________________________


	BEGINNING GENETIC ALGORITHM DOCKING 21 of 100
Run: 21 Seed: 1459642617 1205982207 [ Run 21 of 100 GA/GALS ]
Beginning LAMARCKIAN GENETIC ALGORITHM (LGA), with a maximum of 25000000 energy evaluations.

Final-Value: -11.774


	FINAL GENETIC ALGORITHM DOCKED STATE
	_______________________________________________


Detailed state:  trans 20.149 19.816 8.525 quatxyzw 0.957197 0.252615 -0.035842 -0.136658 center 8.781 34.984 -0.736 ntor 12 179.4350 111.1748 41.0239 67.6040 -104.0623 94.5595 133.7982 96.6424 -53.2538 -10.9073 -127.0828 159.9800
State:	 20.149  19.816   8.525   0.966  0.255 -0.036 -164.291    179.43  111.17   41.02   67.60 -104.06   94.56  133.80   96.64  -53.25  -10.91 -127.08  159.98

DOCKED: MODEL       21
DOCKED: USER    Run = 21
DOCKED: USER    DPF = D:/Protein_go_brrr/autodock/final/6BB5/heme_Co/dock.dpf
DOCKED: USER  
DOCKED: USER    Estimated Free Energy of Binding    =   -6.65 kcal/mol  [=(1)+(2)+(3)-(4)]
DOCKED: USER    Estimated Inhibition Constant, Ki   =   13.39 uM (micromolar)  [Temperature = 298.15 K]
DOCKED: USER    
DOCKED: USER    (1) Final Intermolecular Energy     =  -10.23 kcal/mol
DOCKED: USER        vdW + Hbond + desolv Energy     =   -8.02 kcal/mol
DOCKED: USER        Electrostatic Energy            =   -2.20 kcal/mol
DOCKED: USER    (2) Final Total Internal Energy     =   -1.55 kcal/mol
DOCKED: USER    (3) Torsional Free Energy           =   +3.58 kcal/mol
DOCKED: USER    (4) Unbound System's Energy  [=(2)] =   -1.55 kcal/mol
DOCKED: USER    
DOCKED: USER    
DOCKED: USER    NEWDPF move heme_Co_opt.pdbqt
DOCKED: USER    NEWDPF about 8.781000 34.984000 -0.736000
DOCKED: USER    NEWDPF tran0 20.149474 19.816359 8.525334
DOCKED: USER    NEWDPF quaternion0 0.957197 0.252615 -0.035842 -0.136658
DOCKED: USER    NEWDPF axisangle0 0.966262 0.255007 -0.036182 -164.290982
DOCKED: USER    NEWDPF quat0 0.966262 0.255007 -0.036182 -164.290982
DOCKED: USER    NEWDPF dihe0 179.43 111.17 41.02 67.60 -104.06 94.56 133.80 96.64 -53.25 -10.91 -127.08 159.98 
DOCKED: USER  keepresnum = 1 
DOCKED: USER  
DOCKED: REMARK  12 active torsions:
DOCKED: REMARK  status: ('A' for Active; 'I' for Inactive)
DOCKED: REMARK    1  A    between atoms: C_6  and  C_10 
DOCKED: REMARK    2  A    between atoms: C_10  and  C_11 
DOCKED: REMARK    3  A    between atoms: C_11  and  C_12 
DOCKED: REMARK    4  A    between atoms: C_12  and  O_14 
DOCKED: REMARK    5  A    between atoms: C_17  and  C_20 
DOCKED: REMARK    6  A    between atoms: C_24  and  C_27 
DOCKED: REMARK    7  A    between atoms: C_31  and  C_34 
DOCKED: REMARK    8  A    between atoms: C_34  and  C_35 
DOCKED: REMARK    9  A    between atoms: C_35  and  C_36 
DOCKED: REMARK   10  A    between atoms: C_36  and  O_38 
DOCKED: REMARK   11  A    between atoms: FE_43  and  C_44 
DOCKED: REMARK   12  A    between atoms: C_44  and  O_45 
DOCKED: USER                              x       y       z     vdW  Elec       q    Type
DOCKED: USER                           _______ _______ _______ _____ _____    ______ ____
DOCKED: ROOT
DOCKED: ATOM      1  C   UNL d   1      18.712  18.721   9.729 -0.19 +0.02    +0.064 A 
DOCKED: ATOM      2  C   UNL d   1      18.496  20.494   5.322 -0.26 +0.01    +0.064 C 
DOCKED: ATOM      3  C   UNL d   1      22.802  22.491   5.875 -0.06 +0.01    +0.064 A 
DOCKED: ATOM      4  C   UNL d   1      23.212  20.370  10.233 -0.19 +0.01    +0.064 A 
DOCKED: ATOM      5  C   UNL d   1      18.321  19.089   8.498 -0.19 +0.01    +0.066 A 
DOCKED: ATOM      6  C   UNL d   1      17.116  18.633   7.929 -0.20 -0.00    -0.021 A 
DOCKED: ATOM      7  C   UNL d   1      17.069  19.132   6.642 -0.25 -0.00    -0.025 A 
DOCKED: ATOM      8  C   UNL d   1      18.239  19.883   6.486 -0.23 +0.01    +0.066 A 
DOCKED: ATOM      9  C   UNL d   1      15.973  18.918   5.588 -0.21 +0.01    +0.051 C 
DOCKED: ATOM     10  C   UNL d   1      19.660  21.309   5.078 -0.21 +0.00    +0.066 A 
DOCKED: ATOM     11  C   UNL d   1      19.918  22.088   3.929 -0.24 -0.00    -0.021 A 
DOCKED: ATOM     12  C   UNL d   1      21.178  22.662   4.119 -0.12 +0.00    +0.000 A 
DOCKED: ATOM     13  C   UNL d   1      21.589  22.203   5.370 -0.09 +0.01    +0.070 A 
DOCKED: ATOM     14  C   UNL d   1      18.970  22.330   2.784 -0.20 +0.00    +0.052 C 
DOCKED: ATOM     15  C   UNL d   1      23.406  22.060   7.120 -0.07 +0.01    +0.066 A 
DOCKED: ATOM     16  C   UNL d   1      24.719  22.274   7.515 -0.13 -0.00    -0.021 A 
DOCKED: ATOM     17  C   UNL d   1      24.843  21.662   8.771 -0.21 +0.00    +0.000 A 
DOCKED: ATOM     18  C   UNL d   1      23.586  21.136   9.051 -0.14 +0.01    +0.070 A 
DOCKED: ATOM     19  C   UNL d   1      25.764  23.021   6.717 -0.16 +0.01    +0.052 C 
DOCKED: ATOM     20  C   UNL d   1      22.022  19.774  10.487 -0.14 +0.01    +0.066 A 
DOCKED: ATOM     21  C   UNL d   1      21.794  19.033  11.645 -0.20 -0.01    -0.025 A 
DOCKED: ATOM     22  C   UNL d   1      20.495  18.570  11.541 -0.18 -0.01    -0.021 A 
DOCKED: ATOM     23  C   UNL d   1      19.996  19.045  10.309 -0.18 +0.02    +0.066 A 
DOCKED: ATOM     24  C   UNL d   1      22.772  18.763  12.785 -0.29 +0.01    +0.051 C 
DOCKED: ATOM     25  N   UNL d   1      19.031  19.879   7.622 -0.10 -0.04    -0.248 N 
DOCKED: ATOM     26  N   UNL d   1      20.646  21.430   5.973 -0.08 -0.03    -0.248 N 
DOCKED: ATOM     27  N   UNL d   1      22.764  21.365   8.033 -0.05 -0.03    -0.248 N 
DOCKED: ATOM     28  N   UNL d   1      20.918  19.772   9.668 -0.08 -0.04    -0.248 N 
DOCKED: ATOM     29 FE   UNL d   1      21.008  20.665   7.843 -0.03 +0.00    +0.000 Fe
DOCKED: ENDROOT
DOCKED: BRANCH   6  30
DOCKED: ATOM     30  C   UNL d   1      16.103  17.694   8.575 -0.16 +0.02    +0.052 C 
DOCKED: BRANCH  30  31
DOCKED: ATOM     31  C   UNL d   1      16.815  16.542   9.285 -0.09 +0.06    +0.115 C 
DOCKED: BRANCH  31  32
DOCKED: ATOM     32  C   UNL d   1      16.418  16.427  10.740 -0.14 +0.13    +0.139 C 
DOCKED: ATOM     33  O   UNL d   1      15.552  17.165  11.187 -0.19 -0.94    -0.650 OA
DOCKED: BRANCH  32  34
DOCKED: ATOM     34  O   UNL d   1      16.958  15.496  11.560 +0.06 -0.70    -0.776 OA
DOCKED: ATOM     35  H   UNL d   1      16.777  15.435  12.508 -0.45 +0.16    +0.167 HD
DOCKED: ENDBRANCH  32  34
DOCKED: ENDBRANCH  31  32
DOCKED: ENDBRANCH  30  31
DOCKED: ENDBRANCH   6  30
DOCKED: BRANCH  29  36
DOCKED: ATOM     36  C   UNL d   1      21.692  18.882   6.979 -0.02 +0.02    +0.190 C 
DOCKED: BRANCH  36  37
DOCKED: ATOM     37  O   UNL d   1      21.706  17.494   7.151 +0.00 -0.04    -0.399 OA
DOCKED: ATOM     38  H   UNL d   1      21.231  17.338   8.014 +0.02 +0.03    +0.209 HD
DOCKED: ENDBRANCH  36  37
DOCKED: ENDBRANCH  29  36
DOCKED: BRANCH  22  39
DOCKED: ATOM     39  C   UNL d   1      19.801  17.666  12.542 +0.05 +0.03    +0.052 C 
DOCKED: BRANCH  39  40
DOCKED: ATOM     40  C   UNL d   1      19.843  16.202  12.072 -0.13 +0.06    +0.115 C 
DOCKED: BRANCH  40  41
DOCKED: ATOM     41  C   UNL d   1      19.539  15.189  13.156 -0.14 +0.10    +0.139 C 
DOCKED: ATOM     42  O   UNL d   1      20.340  14.292  13.379 +0.01 -0.33    -0.650 OA
DOCKED: BRANCH  41  43
DOCKED: ATOM     43  O   UNL d   1      18.446  15.299  13.945 -0.43 -0.91    -0.776 OA
DOCKED: ATOM     44  H   UNL d   1      17.566  15.477  13.590 -0.53 +0.12    +0.167 HD
DOCKED: ENDBRANCH  41  43
DOCKED: ENDBRANCH  40  41
DOCKED: ENDBRANCH  39  40
DOCKED: ENDBRANCH  22  39
DOCKED: BRANCH  12  45
DOCKED: ATOM     45  C   UNL d   1      22.028  23.602   3.274 -0.13 +0.00    +0.004 C 
DOCKED: ATOM     46  C   UNL d   1      21.773  24.825   2.817 -0.22 -0.00    +0.012 C 
DOCKED: ENDBRANCH  12  45
DOCKED: BRANCH  17  47
DOCKED: ATOM     47  C   UNL d   1      26.043  21.517   9.647 -0.41 +0.00    +0.004 C 
DOCKED: ATOM     48  C   UNL d   1      26.478  20.344  10.113 -0.46 +0.00    +0.012 C 
DOCKED: ENDBRANCH  17  47
DOCKED: TORSDOF 12
DOCKED: TER
DOCKED: ENDMDL
________________________________________________________________________________


	BEGINNING GENETIC ALGORITHM DOCKING 22 of 100
Run: 22 Seed: 161971271 320131317 [ Run 22 of 100 GA/GALS ]
Beginning LAMARCKIAN GENETIC ALGORITHM (LGA), with a maximum of 25000000 energy evaluations.

Final-Value: -19.419


	FINAL GENETIC ALGORITHM DOCKED STATE
	_______________________________________________


Detailed state:  trans 40.815 28.339 15.542 quatxyzw -0.325882 0.369017 0.866547 -0.082004 center 8.781 34.984 -0.736 ntor 12 96.6984 134.2256 175.1534 -102.8642 -87.5980 0.6513 -180.0000 7.8553 -31.5906 92.1441 175.7400 168.6157
State:	 40.815  28.339  15.542  -0.327  0.370  0.869 -170.592     96.70  134.23  175.15 -102.86  -87.60    0.65 -180.00    7.86  -31.59   92.14  175.74  168.62

DOCKED: MODEL       22
DOCKED: USER    Run = 22
DOCKED: USER    DPF = D:/Protein_go_brrr/autodock/final/6BB5/heme_Co/dock.dpf
DOCKED: USER  
DOCKED: USER    Estimated Free Energy of Binding    =  -13.40 kcal/mol  [=(1)+(2)+(3)-(4)]
DOCKED: USER    Estimated Inhibition Constant, Ki   =  150.56 pM (picomolar)  [Temperature = 298.15 K]
DOCKED: USER    
DOCKED: USER    (1) Final Intermolecular Energy     =  -16.98 kcal/mol
DOCKED: USER        vdW + Hbond + desolv Energy     =  -14.78 kcal/mol
DOCKED: USER        Electrostatic Energy            =   -2.20 kcal/mol
DOCKED: USER    (2) Final Total Internal Energy     =   -2.44 kcal/mol
DOCKED: USER    (3) Torsional Free Energy           =   +3.58 kcal/mol
DOCKED: USER    (4) Unbound System's Energy  [=(2)] =   -2.44 kcal/mol
DOCKED: USER    
DOCKED: USER    
DOCKED: USER    NEWDPF move heme_Co_opt.pdbqt
DOCKED: USER    NEWDPF about 8.781000 34.984000 -0.736000
DOCKED: USER    NEWDPF tran0 40.814667 28.339377 15.542019
DOCKED: USER    NEWDPF quaternion0 -0.325882 0.369017 0.866547 -0.082004
DOCKED: USER    NEWDPF axisangle0 -0.326983 0.370264 0.869475 -170.592483
DOCKED: USER    NEWDPF quat0 -0.326983 0.370264 0.869475 -170.592483
DOCKED: USER    NEWDPF dihe0 96.70 134.23 175.15 -102.86 -87.60 0.65 -180.00 7.86 -31.59 92.14 175.74 168.62 
DOCKED: USER  keepresnum = 1 
DOCKED: USER  
DOCKED: REMARK  12 active torsions:
DOCKED: REMARK  status: ('A' for Active; 'I' for Inactive)
DOCKED: REMARK    1  A    between atoms: C_6  and  C_10 
DOCKED: REMARK    2  A    between atoms: C_10  and  C_11 
DOCKED: REMARK    3  A    between atoms: C_11  and  C_12 
DOCKED: REMARK    4  A    between atoms: C_12  and  O_14 
DOCKED: REMARK    5  A    between atoms: C_17  and  C_20 
DOCKED: REMARK    6  A    between atoms: C_24  and  C_27 
DOCKED: REMARK    7  A    between atoms: C_31  and  C_34 
DOCKED: REMARK    8  A    between atoms: C_34  and  C_35 
DOCKED: REMARK    9  A    between atoms: C_35  and  C_36 
DOCKED: REMARK   10  A    between atoms: C_36  and  O_38 
DOCKED: REMARK   11  A    between atoms: FE_43  and  C_44 
DOCKED: REMARK   12  A    between atoms: C_44  and  O_45 
DOCKED: USER                              x       y       z     vdW  Elec       q    Type
DOCKED: USER                           _______ _______ _______ _____ _____    ______ ____
DOCKED: ROOT
DOCKED: ATOM      1  C   UNL d   1      42.550  27.584  16.606 -0.27 +0.01    +0.064 A 
DOCKED: ATOM      2  C   UNL d   1      40.710  31.949  16.185 -0.45 +0.01    +0.064 C 
DOCKED: ATOM      3  C   UNL d   1      37.459  30.319  13.085 -0.37 +0.01    +0.064 A 
DOCKED: ATOM      4  C   UNL d   1      39.075  25.786  13.794 -0.42 +0.01    +0.064 A 
DOCKED: ATOM      5  C   UNL d   1      42.309  28.903  16.691 -0.22 +0.02    +0.066 A 
DOCKED: ATOM      6  C   UNL d   1      43.023  29.738  17.573 -0.30 -0.01    -0.021 A 
DOCKED: ATOM      7  C   UNL d   1      42.470  30.999  17.463 -0.38 -0.00    -0.025 A 
DOCKED: ATOM      8  C   UNL d   1      41.454  30.883  16.508 -0.32 +0.01    +0.066 A 
DOCKED: ATOM      9  C   UNL d   1      42.871  32.273  18.221 -0.46 +0.01    +0.051 C 
DOCKED: ATOM     10  C   UNL d   1      39.661  31.931  15.196 -0.37 +0.01    +0.066 A 
DOCKED: ATOM     11  C   UNL d   1      38.940  33.044  14.711 -0.41 -0.00    -0.021 A 
DOCKED: ATOM     12  C   UNL d   1      38.002  32.541  13.806 -0.40 +0.00    +0.000 A 
DOCKED: ATOM     13  C   UNL d   1      38.228  31.164  13.795 -0.37 +0.01    +0.070 A 
DOCKED: ATOM     14  C   UNL d   1      39.211  34.491  15.032 -0.54 +0.00    +0.052 C 
DOCKED: ATOM     15  C   UNL d   1      37.518  28.873  13.001 -0.41 +0.01    +0.066 A 
DOCKED: ATOM     16  C   UNL d   1      36.602  28.048  12.362 -0.55 -0.00    -0.021 A 
DOCKED: ATOM     17  C   UNL d   1      37.063  26.740  12.566 -0.49 +0.00    +0.000 A 
DOCKED: ATOM     18  C   UNL d   1      38.236  26.871  13.301 -0.39 +0.01    +0.070 A 
DOCKED: ATOM     19  C   UNL d   1      35.374  28.516  11.614 -0.49 +0.00    +0.052 C 
DOCKED: ATOM     20  C   UNL d   1      40.172  25.885  14.583 -0.41 +0.01    +0.066 A 
DOCKED: ATOM     21  C   UNL d   1      40.875  24.765  15.022 -0.45 -0.00    -0.025 A 
DOCKED: ATOM     22  C   UNL d   1      41.900  25.255  15.812 -0.34 -0.00    -0.021 A 
DOCKED: ATOM     23  C   UNL d   1      41.763  26.659  15.824 -0.36 +0.01    +0.066 A 
DOCKED: ATOM     24  C   UNL d   1      40.574  23.299  14.722 -0.48 +0.01    +0.051 C 
DOCKED: ATOM     25  N   UNL d   1      41.336  29.597  16.009 +0.23 -0.07    -0.248 N 
DOCKED: ATOM     26  N   UNL d   1      39.268  30.804  14.594 -0.13 -0.04    -0.248 N 
DOCKED: ATOM     27  N   UNL d   1      38.460  28.153  13.568 -0.20 -0.04    -0.248 N 
DOCKED: ATOM     28  N   UNL d   1      40.716  27.044  15.084 -0.20 -0.05    -0.248 N 
DOCKED: ATOM     29 FE   UNL d   1      39.814  28.829  14.716 -0.00 +0.00    +0.000 Fe
DOCKED: ENDROOT
DOCKED: BRANCH   6  30
DOCKED: ATOM     30  C   UNL d   1      44.130  29.314  18.532 -0.29 +0.02    +0.052 C 
DOCKED: BRANCH  30  31
DOCKED: ATOM     31  C   UNL d   1      43.582  29.159  19.950 +0.06 +0.08    +0.115 C 
DOCKED: BRANCH  31  32
DOCKED: ATOM     32  C   UNL d   1      44.276  28.057  20.721 -0.02 +0.19    +0.139 C 
DOCKED: ATOM     33  O   UNL d   1      45.497  28.029  20.762 -0.31 -0.90    -0.650 OA
DOCKED: BRANCH  32  34
DOCKED: ATOM     34  O   UNL d   1      43.585  27.120  21.412 -0.44 -1.31    -0.776 OA
DOCKED: ATOM     35  H   UNL d   1      43.320  26.263  21.050 +0.06 +0.16    +0.167 HD
DOCKED: ENDBRANCH  32  34
DOCKED: ENDBRANCH  31  32
DOCKED: ENDBRANCH  30  31
DOCKED: ENDBRANCH   6  30
DOCKED: BRANCH  29  36
DOCKED: ATOM     36  C   UNL d   1      38.627  28.609  16.430 -0.04 +0.05    +0.190 C 
DOCKED: BRANCH  36  37
DOCKED: ATOM     37  O   UNL d   1      37.563  27.872  16.961 -0.68 -0.09    -0.399 OA
DOCKED: ATOM     38  H   UNL d   1      37.532  27.037  16.417 +0.13 +0.04    +0.209 HD
DOCKED: ENDBRANCH  36  37
DOCKED: ENDBRANCH  29  36
DOCKED: BRANCH  22  39
DOCKED: ATOM     39  C   UNL d   1      42.912  24.410  16.562 -0.32 +0.01    +0.052 C 
DOCKED: BRANCH  39  40
DOCKED: ATOM     40  C   UNL d   1      42.402  24.079  17.975 -0.38 +0.03    +0.115 C 
DOCKED: BRANCH  40  41
DOCKED: ATOM     41  C   UNL d   1      42.859  25.045  19.047 -0.32 +0.05    +0.139 C 
DOCKED: ATOM     42  O   UNL d   1      42.113  25.298  19.982 -0.02 -0.20    -0.650 OA
DOCKED: BRANCH  41  43
DOCKED: ATOM     43  O   UNL d   1      44.105  25.569  19.046 +0.09 -0.35    -0.776 OA
DOCKED: ATOM     44  H   UNL d   1      44.416  26.170  19.736 +0.06 +0.11    +0.167 HD
DOCKED: ENDBRANCH  41  43
DOCKED: ENDBRANCH  40  41
DOCKED: ENDBRANCH  39  40
DOCKED: ENDBRANCH  22  39
DOCKED: BRANCH  12  45
DOCKED: ATOM     45  C   UNL d   1      36.937  33.200  12.940 -0.51 +0.00    +0.004 C 
DOCKED: ATOM     46  C   UNL d   1      35.609  33.154  13.014 -0.58 +0.00    +0.012 C 
DOCKED: ENDBRANCH  12  45
DOCKED: BRANCH  17  47
DOCKED: ATOM     47  C   UNL d   1      36.449  25.439  12.162 -0.62 +0.00    +0.004 C 
DOCKED: ATOM     48  C   UNL d   1      35.907  24.580  13.028 -0.72 +0.00    +0.012 C 
DOCKED: ENDBRANCH  17  47
DOCKED: TORSDOF 12
DOCKED: TER
DOCKED: ENDMDL
________________________________________________________________________________


	BEGINNING GENETIC ALGORITHM DOCKING 23 of 100
Run: 23 Seed: 1928667731 1730528645 [ Run 23 of 100 GA/GALS ]
Beginning LAMARCKIAN GENETIC ALGORITHM (LGA), with a maximum of 25000000 energy evaluations.

Final-Value: -10.541


	FINAL GENETIC ALGORITHM DOCKED STATE
	_______________________________________________


Detailed state:  trans 21.109 46.505 -3.811 quatxyzw 0.448466 0.870263 -0.015988 0.203136 center 8.781 34.984 -0.736 ntor 12 23.3515 103.2834 -93.9556 108.4081 -85.6814 134.4203 43.0767 -164.4931 173.4706 80.6711 -164.4299 158.9208
State:	 21.109  46.505  -3.811   0.458  0.889 -0.016 156.559     23.35  103.28  -93.96  108.41  -85.68  134.42   43.08 -164.49  173.47   80.67 -164.43  158.92

DOCKED: MODEL       23
DOCKED: USER    Run = 23
DOCKED: USER    DPF = D:/Protein_go_brrr/autodock/final/6BB5/heme_Co/dock.dpf
DOCKED: USER  
DOCKED: USER    Estimated Free Energy of Binding    =   -3.96 kcal/mol  [=(1)+(2)+(3)-(4)]
DOCKED: USER    Estimated Inhibition Constant, Ki   =    1.24 mM (millimolar)  [Temperature = 298.15 K]
DOCKED: USER    
DOCKED: USER    (1) Final Intermolecular Energy     =   -7.54 kcal/mol
DOCKED: USER        vdW + Hbond + desolv Energy     =   -7.49 kcal/mol
DOCKED: USER        Electrostatic Energy            =   -0.05 kcal/mol
DOCKED: USER    (2) Final Total Internal Energy     =   -3.00 kcal/mol
DOCKED: USER    (3) Torsional Free Energy           =   +3.58 kcal/mol
DOCKED: USER    (4) Unbound System's Energy  [=(2)] =   -3.00 kcal/mol
DOCKED: USER    
DOCKED: USER    
DOCKED: USER    NEWDPF move heme_Co_opt.pdbqt
DOCKED: USER    NEWDPF about 8.781000 34.984000 -0.736000
DOCKED: USER    NEWDPF tran0 21.109252 46.505245 -3.811423
DOCKED: USER    NEWDPF quaternion0 0.448466 0.870263 -0.015988 0.203136
DOCKED: USER    NEWDPF axisangle0 0.458015 0.888794 -0.016329 156.559168
DOCKED: USER    NEWDPF quat0 0.458015 0.888794 -0.016329 156.559168
DOCKED: USER    NEWDPF dihe0 23.35 103.28 -93.96 108.41 -85.68 134.42 43.08 -164.49 173.47 80.67 -164.43 158.92 
DOCKED: USER  keepresnum = 1 
DOCKED: USER  
DOCKED: REMARK  12 active torsions:
DOCKED: REMARK  status: ('A' for Active; 'I' for Inactive)
DOCKED: REMARK    1  A    between atoms: C_6  and  C_10 
DOCKED: REMARK    2  A    between atoms: C_10  and  C_11 
DOCKED: REMARK    3  A    between atoms: C_11  and  C_12 
DOCKED: REMARK    4  A    between atoms: C_12  and  O_14 
DOCKED: REMARK    5  A    between atoms: C_17  and  C_20 
DOCKED: REMARK    6  A    between atoms: C_24  and  C_27 
DOCKED: REMARK    7  A    between atoms: C_31  and  C_34 
DOCKED: REMARK    8  A    between atoms: C_34  and  C_35 
DOCKED: REMARK    9  A    between atoms: C_35  and  C_36 
DOCKED: REMARK   10  A    between atoms: C_36  and  O_38 
DOCKED: REMARK   11  A    between atoms: FE_43  and  C_44 
DOCKED: REMARK   12  A    between atoms: C_44  and  O_45 
DOCKED: USER                              x       y       z     vdW  Elec       q    Type
DOCKED: USER                           _______ _______ _______ _____ _____    ______ ____
DOCKED: ROOT
DOCKED: ATOM      1  C   UNL d   1      22.805  45.149  -3.793 -0.25 +0.00    +0.064 A 
DOCKED: ATOM      2  C   UNL d   1      18.723  45.128  -6.232 -0.33 +0.00    +0.064 C 
DOCKED: ATOM      3  C   UNL d   1      17.203  48.945  -3.794 -0.19 -0.02    +0.064 A 
DOCKED: ATOM      4  C   UNL d   1      21.516  49.221  -1.562 -0.13 -0.01    +0.064 A 
DOCKED: ATOM      5  C   UNL d   1      21.787  44.841  -4.613 -0.26 +0.00    +0.066 A 
DOCKED: ATOM      6  C   UNL d   1      21.877  43.801  -5.559 -0.25 -0.00    -0.021 A 
DOCKED: ATOM      7  C   UNL d   1      20.699  43.814  -6.279 -0.32 -0.00    -0.025 A 
DOCKED: ATOM      8  C   UNL d   1      19.934  44.850  -5.732 -0.31 +0.00    +0.066 A 
DOCKED: ATOM      9  C   UNL d   1      20.294  42.893  -7.440 -0.14 +0.01    +0.051 C 
DOCKED: ATOM     10  C   UNL d   1      17.854  46.157  -5.718 -0.29 -0.01    +0.066 A 
DOCKED: ATOM     11  C   UNL d   1      16.520  46.406  -6.106 -0.33 +0.00    -0.021 A 
DOCKED: ATOM     12  C   UNL d   1      16.100  47.522  -5.376 -0.30 -0.00    +0.000 A 
DOCKED: ATOM     13  C   UNL d   1      17.201  47.862  -4.591 -0.22 -0.01    +0.070 A 
DOCKED: ATOM     14  C   UNL d   1      15.691  45.563  -7.040 -0.37 -0.01    +0.052 C 
DOCKED: ATOM     15  C   UNL d   1      18.265  49.471  -2.959 -0.09 -0.02    +0.066 A 
DOCKED: ATOM     16  C   UNL d   1      18.251  50.677  -2.272 -0.28 +0.01    -0.021 A 
DOCKED: ATOM     17  C   UNL d   1      19.494  50.762  -1.629 -0.26 -0.00    +0.000 A 
DOCKED: ATOM     18  C   UNL d   1      20.164  49.590  -1.962 -0.17 -0.02    +0.070 A 
DOCKED: ATOM     19  C   UNL d   1      17.105  51.663  -2.255 -0.21 -0.01    +0.052 C 
DOCKED: ATOM     20  C   UNL d   1      22.220  48.129  -1.943 -0.15 -0.00    +0.066 A 
DOCKED: ATOM     21  C   UNL d   1      23.528  47.902  -1.520 -0.11 -0.00    -0.025 A 
DOCKED: ATOM     22  C   UNL d   1      23.916  46.720  -2.125 -0.11 -0.00    -0.021 A 
DOCKED: ATOM     23  C   UNL d   1      22.820  46.287  -2.902 -0.17 +0.00    +0.066 A 
DOCKED: ATOM     24  C   UNL d   1      24.375  48.778  -0.602 -0.07 +0.00    +0.051 C 
DOCKED: ATOM     25  N   UNL d   1      20.581  45.500  -4.695 -0.19 +0.02    -0.248 N 
DOCKED: ATOM     26  N   UNL d   1      18.242  47.003  -4.757 -0.17 +0.04    -0.248 N 
DOCKED: ATOM     27  N   UNL d   1      19.414  48.859  -2.780 -0.05 +0.09    -0.248 N 
DOCKED: ATOM     28  N   UNL d   1      21.793  47.138  -2.797 -0.16 +0.01    -0.248 N 
DOCKED: ATOM     29 FE   UNL d   1      19.966  47.279  -3.678 -0.05 -0.00    +0.000 Fe
DOCKED: ENDROOT
DOCKED: BRANCH   6  30
DOCKED: ATOM     30  C   UNL d   1      23.080  42.896  -5.803 -0.18 +0.01    +0.052 C 
DOCKED: BRANCH  30  31
DOCKED: ATOM     31  C   UNL d   1      24.120  43.606  -6.669 -0.08 +0.01    +0.115 C 
DOCKED: BRANCH  31  32
DOCKED: ATOM     32  C   UNL d   1      23.610  44.920  -7.222 -0.03 +0.01    +0.139 C 
DOCKED: ATOM     33  O   UNL d   1      22.981  44.927  -8.269 +0.02 -0.05    -0.650 OA
DOCKED: BRANCH  32  34
DOCKED: ATOM     34  O   UNL d   1      23.786  46.091  -6.567 +0.03 -0.03    -0.776 OA
DOCKED: ATOM     35  H   UNL d   1      24.447  46.233  -5.875 +0.02 +0.01    +0.167 HD
DOCKED: ENDBRANCH  32  34
DOCKED: ENDBRANCH  31  32
DOCKED: ENDBRANCH  30  31
DOCKED: ENDBRANCH   6  30
DOCKED: BRANCH  29  36
DOCKED: ATOM     36  C   UNL d   1      20.795  48.346  -5.281 -0.03 -0.01    +0.190 C 
DOCKED: BRANCH  36  37
DOCKED: ATOM     37  O   UNL d   1      21.706  48.241  -6.337 +0.00 +0.00    -0.399 OA
DOCKED: ATOM     38  H   UNL d   1      22.188  47.382  -6.176 +0.03 +0.00    +0.209 HD
DOCKED: ENDBRANCH  36  37
DOCKED: ENDBRANCH  29  36
DOCKED: BRANCH  22  39
DOCKED: ATOM     39  C   UNL d   1      25.287  46.081  -2.009 -0.11 +0.01    +0.052 C 
DOCKED: BRANCH  39  40
DOCKED: ATOM     40  C   UNL d   1      26.140  46.400  -3.248 -0.05 +0.01    +0.115 C 
DOCKED: BRANCH  40  41
DOCKED: ATOM     41  C   UNL d   1      26.295  45.244  -4.214 -0.04 +0.01    +0.139 C 
DOCKED: ATOM     42  O   UNL d   1      26.207  44.098  -3.796 +0.03 -0.07    -0.650 OA
DOCKED: BRANCH  41  43
DOCKED: ATOM     43  O   UNL d   1      26.441  45.444  -5.543 +0.02 -0.05    -0.776 OA
DOCKED: ATOM     44  H   UNL d   1      25.687  45.525  -6.142 +0.01 +0.01    +0.167 HD
DOCKED: ENDBRANCH  41  43
DOCKED: ENDBRANCH  40  41
DOCKED: ENDBRANCH  39  40
DOCKED: ENDBRANCH  22  39
DOCKED: BRANCH  12  45
DOCKED: ATOM     45  C   UNL d   1      14.786  48.289  -5.318 -0.36 -0.00    +0.004 C 
DOCKED: ATOM     46  C   UNL d   1      13.791  48.237  -4.436 -0.52 -0.00    +0.012 C 
DOCKED: ENDBRANCH  12  45
DOCKED: BRANCH  17  47
DOCKED: ATOM     47  C   UNL d   1      20.066  51.865  -0.800 -0.19 -0.00    +0.004 C 
DOCKED: ATOM     48  C   UNL d   1      21.043  52.673  -1.220 -0.14 -0.00    +0.012 C 
DOCKED: ENDBRANCH  17  47
DOCKED: TORSDOF 12
DOCKED: TER
DOCKED: ENDMDL
________________________________________________________________________________


	BEGINNING GENETIC ALGORITHM DOCKING 24 of 100
Run: 24 Seed: 1859436912 529845066 [ Run 24 of 100 GA/GALS ]
Beginning LAMARCKIAN GENETIC ALGORITHM (LGA), with a maximum of 25000000 energy evaluations.

Final-Value: -12.020


	FINAL GENETIC ALGORITHM DOCKED STATE
	_______________________________________________


Detailed state:  trans 3.804 34.682 -3.303 quatxyzw -0.124357 -0.155634 0.078919 -0.976773 center 8.781 34.984 -0.736 ntor 12 137.0949 99.4860 -53.9121 80.8720 83.6683 120.9076 -123.3348 -21.6861 -123.7074 -174.6896 179.7115 174.1887
State:	  3.804  34.682  -3.303  -0.580 -0.726  0.368 -24.746    137.09   99.49  -53.91   80.87   83.67  120.91 -123.33  -21.69 -123.71 -174.69  179.71  174.19

DOCKED: MODEL       24
DOCKED: USER    Run = 24
DOCKED: USER    DPF = D:/Protein_go_brrr/autodock/final/6BB5/heme_Co/dock.dpf
DOCKED: USER  
DOCKED: USER    Estimated Free Energy of Binding    =   -4.59 kcal/mol  [=(1)+(2)+(3)-(4)]
DOCKED: USER    Estimated Inhibition Constant, Ki   =  434.49 uM (micromolar)  [Temperature = 298.15 K]
DOCKED: USER    
DOCKED: USER    (1) Final Intermolecular Energy     =   -8.17 kcal/mol
DOCKED: USER        vdW + Hbond + desolv Energy     =   -7.64 kcal/mol
DOCKED: USER        Electrostatic Energy            =   -0.52 kcal/mol
DOCKED: USER    (2) Final Total Internal Energy     =   -3.85 kcal/mol
DOCKED: USER    (3) Torsional Free Energy           =   +3.58 kcal/mol
DOCKED: USER    (4) Unbound System's Energy  [=(2)] =   -3.85 kcal/mol
DOCKED: USER    
DOCKED: USER    
DOCKED: USER    NEWDPF move heme_Co_opt.pdbqt
DOCKED: USER    NEWDPF about 8.781000 34.984000 -0.736000
DOCKED: USER    NEWDPF tran0 3.803815 34.681760 -3.302981
DOCKED: USER    NEWDPF quaternion0 -0.124357 -0.155634 0.078919 -0.976773
DOCKED: USER    NEWDPF axisangle0 -0.580353 -0.726321 0.368305 -24.746293
DOCKED: USER    NEWDPF quat0 -0.580353 -0.726321 0.368305 -24.746293
DOCKED: USER    NEWDPF dihe0 137.09 99.49 -53.91 80.87 83.67 120.91 -123.33 -21.69 -123.71 -174.69 179.71 174.19 
DOCKED: USER  keepresnum = 1 
DOCKED: USER  
DOCKED: REMARK  12 active torsions:
DOCKED: REMARK  status: ('A' for Active; 'I' for Inactive)
DOCKED: REMARK    1  A    between atoms: C_6  and  C_10 
DOCKED: REMARK    2  A    between atoms: C_10  and  C_11 
DOCKED: REMARK    3  A    between atoms: C_11  and  C_12 
DOCKED: REMARK    4  A    between atoms: C_12  and  O_14 
DOCKED: REMARK    5  A    between atoms: C_17  and  C_20 
DOCKED: REMARK    6  A    between atoms: C_24  and  C_27 
DOCKED: REMARK    7  A    between atoms: C_31  and  C_34 
DOCKED: REMARK    8  A    between atoms: C_34  and  C_35 
DOCKED: REMARK    9  A    between atoms: C_35  and  C_36 
DOCKED: REMARK   10  A    between atoms: C_36  and  O_38 
DOCKED: REMARK   11  A    between atoms: FE_43  and  C_44 
DOCKED: REMARK   12  A    between atoms: C_44  and  O_45 
DOCKED: USER                              x       y       z     vdW  Elec       q    Type
DOCKED: USER                           _______ _______ _______ _____ _____    ______ ____
DOCKED: ROOT
DOCKED: ATOM      1  C   UNL d   1       2.204  34.600  -4.769 -0.09 +0.01    +0.064 A 
DOCKED: ATOM      2  C   UNL d   1       2.485  33.114  -0.261 -0.16 +0.01    +0.064 C 
DOCKED: ATOM      3  C   UNL d   1       7.102  34.332  -0.107 -0.20 +0.01    +0.064 A 
DOCKED: ATOM      4  C   UNL d   1       6.742  36.211  -4.580 -0.20 +0.00    +0.064 A 
DOCKED: ATOM      5  C   UNL d   1       1.951  34.071  -3.561 -0.08 +0.01    +0.066 A 
DOCKED: ATOM      6  C   UNL d   1       0.660  33.652  -3.184 -0.05 -0.00    -0.021 A 
DOCKED: ATOM      7  C   UNL d   1       0.743  33.243  -1.868 -0.06 -0.00    -0.025 A 
DOCKED: ATOM      8  C   UNL d   1       2.082  33.415  -1.503 -0.10 +0.01    +0.066 A 
DOCKED: ATOM      9  C   UNL d   1      -0.387  32.709  -0.974 -0.04 +0.00    +0.051 C 
DOCKED: ATOM     10  C   UNL d   1       3.846  33.233   0.197 -0.20 +0.01    +0.066 A 
DOCKED: ATOM     11  C   UNL d   1       4.359  32.803   1.440 -0.29 -0.00    -0.021 A 
DOCKED: ATOM     12  C   UNL d   1       5.708  33.167   1.457 -0.41 +0.00    +0.000 A 
DOCKED: ATOM     13  C   UNL d   1       5.922  33.779   0.221 -0.31 +0.01    +0.070 A 
DOCKED: ATOM     14  C   UNL d   1       3.615  32.014   2.487 -0.37 +0.00    +0.052 C 
DOCKED: ATOM     15  C   UNL d   1       7.480  35.046  -1.312 -0.23 +0.01    +0.066 A 
DOCKED: ATOM     16  C   UNL d   1       8.674  35.720  -1.529 -0.32 -0.00    -0.021 A 
DOCKED: ATOM     17  C   UNL d   1       8.573  36.265  -2.816 -0.41 +0.00    +0.000 A 
DOCKED: ATOM     18  C   UNL d   1       7.329  35.865  -3.292 -0.28 +0.00    +0.070 A 
DOCKED: ATOM     19  C   UNL d   1       9.817  35.817  -0.544 -0.36 +0.01    +0.052 C 
DOCKED: ATOM     20  C   UNL d   1       5.501  35.906  -5.029 -0.20 +0.00    +0.066 A 
DOCKED: ATOM     21  C   UNL d   1       5.037  36.326  -6.274 -0.17 -0.00    -0.025 A 
DOCKED: ATOM     22  C   UNL d   1       3.741  35.851  -6.368 -0.12 -0.00    -0.021 A 
DOCKED: ATOM     23  C   UNL d   1       3.473  35.171  -5.161 -0.12 +0.01    +0.066 A 
DOCKED: ATOM     24  C   UNL d   1       5.783  37.155  -7.315 -0.15 +0.00    +0.051 C 
DOCKED: ATOM     25  N   UNL d   1       2.855  33.921  -2.534 -0.06 -0.03    -0.248 N 
DOCKED: ATOM     26  N   UNL d   1       4.810  33.768  -0.561 -0.15 -0.03    -0.248 N 
DOCKED: ATOM     27  N   UNL d   1       6.693  35.166  -2.357 -0.22 -0.02    -0.248 N 
DOCKED: ATOM     28  N   UNL d   1       4.535  35.203  -4.347 -0.09 -0.03    -0.248 N 
DOCKED: ATOM     29 FE   UNL d   1       4.888  34.581  -2.444 -0.05 +0.00    +0.000 Fe
DOCKED: ENDROOT
DOCKED: BRANCH   6  30
DOCKED: ATOM     30  C   UNL d   1      -0.604  33.724  -4.034 -0.02 +0.00    +0.052 C 
DOCKED: BRANCH  30  31
DOCKED: ATOM     31  C   UNL d   1      -1.399  34.988  -3.709 -0.00 +0.02    +0.115 C 
DOCKED: BRANCH  31  32
DOCKED: ATOM     32  C   UNL d   1      -0.565  36.244  -3.839 -0.00 +0.03    +0.139 C 
DOCKED: ATOM     33  O   UNL d   1      -0.754  36.995  -4.785 +0.01 -0.11    -0.650 OA
DOCKED: BRANCH  32  34
DOCKED: ATOM     34  O   UNL d   1       0.358  36.592  -2.912 +0.03 -0.26    -0.776 OA
DOCKED: ATOM     35  H   UNL d   1       1.258  36.877  -3.121 +0.02 +0.06    +0.167 HD
DOCKED: ENDBRANCH  32  34
DOCKED: ENDBRANCH  31  32
DOCKED: ENDBRANCH  30  31
DOCKED: ENDBRANCH   6  30
DOCKED: BRANCH  29  36
DOCKED: ATOM     36  C   UNL d   1       4.148  36.392  -1.690 -0.04 +0.06    +0.190 C 
DOCKED: BRANCH  36  37
DOCKED: ATOM     37  O   UNL d   1       3.065  37.273  -1.771 -0.09 -0.22    -0.399 OA
DOCKED: ATOM     38  H   UNL d   1       2.562  36.987  -2.584 +0.04 +0.08    +0.209 HD
DOCKED: ENDBRANCH  36  37
DOCKED: ENDBRANCH  29  36
DOCKED: BRANCH  22  39
DOCKED: ATOM     39  C   UNL d   1       2.796  36.098  -7.529 -0.07 +0.01    +0.052 C 
DOCKED: BRANCH  39  40
DOCKED: ATOM     40  C   UNL d   1       2.080  37.449  -7.368 -0.02 +0.01    +0.115 C 
DOCKED: BRANCH  40  41
DOCKED: ATOM     41  C   UNL d   1       2.459  38.212  -6.116 -0.01 +0.02    +0.139 C 
DOCKED: ATOM     42  O   UNL d   1       3.019  39.295  -6.222 +0.02 -0.09    -0.650 OA
DOCKED: BRANCH  41  43
DOCKED: ATOM     43  O   UNL d   1       2.120  37.771  -4.885 +0.03 -0.15    -0.776 OA
DOCKED: ATOM     44  H   UNL d   1       1.227  37.473  -4.668 +0.01 +0.04    +0.167 HD
DOCKED: ENDBRANCH  41  43
DOCKED: ENDBRANCH  40  41
DOCKED: ENDBRANCH  39  40
DOCKED: ENDBRANCH  22  39
DOCKED: BRANCH  12  45
DOCKED: ATOM     45  C   UNL d   1       6.818  32.992   2.484 -0.46 +0.00    +0.004 C 
DOCKED: ATOM     46  C   UNL d   1       7.487  31.904   2.860 -0.54 +0.00    +0.012 C 
DOCKED: ENDBRANCH  12  45
DOCKED: BRANCH  17  47
DOCKED: ATOM     47  C   UNL d   1       9.528  37.142  -3.558 -0.50 -0.00    +0.004 C 
DOCKED: ATOM     48  C   UNL d   1      10.766  36.769  -3.891 -0.59 -0.00    +0.012 C 
DOCKED: ENDBRANCH  17  47
DOCKED: TORSDOF 12
DOCKED: TER
DOCKED: ENDMDL
________________________________________________________________________________


	BEGINNING GENETIC ALGORITHM DOCKING 25 of 100
Run: 25 Seed: 1318415337 297561549 [ Run 25 of 100 GA/GALS ]
Beginning LAMARCKIAN GENETIC ALGORITHM (LGA), with a maximum of 25000000 energy evaluations.

Final-Value: -12.749


	FINAL GENETIC ALGORITHM DOCKED STATE
	_______________________________________________


Detailed state:  trans 46.199 24.674 17.738 quatxyzw 0.381636 -0.397666 -0.747995 -0.369756 center 8.781 34.984 -0.736 ntor 12 -52.3982 163.1743 -48.6687 40.9645 -91.5383 50.3572 97.0644 -14.1974 131.8160 179.9910 -142.7069 179.6688
State:	 46.199  24.674  17.738   0.411 -0.428 -0.805 -136.599    -52.40  163.17  -48.67   40.96  -91.54   50.36   97.06  -14.20  131.82  179.99 -142.71  179.67

DOCKED: MODEL       25
DOCKED: USER    Run = 25
DOCKED: USER    DPF = D:/Protein_go_brrr/autodock/final/6BB5/heme_Co/dock.dpf
DOCKED: USER  
DOCKED: USER    Estimated Free Energy of Binding    =   -6.74 kcal/mol  [=(1)+(2)+(3)-(4)]
DOCKED: USER    Estimated Inhibition Constant, Ki   =   11.55 uM (micromolar)  [Temperature = 298.15 K]
DOCKED: USER    
DOCKED: USER    (1) Final Intermolecular Energy     =  -10.32 kcal/mol
DOCKED: USER        vdW + Hbond + desolv Energy     =   -7.92 kcal/mol
DOCKED: USER        Electrostatic Energy            =   -2.40 kcal/mol
DOCKED: USER    (2) Final Total Internal Energy     =   -2.43 kcal/mol
DOCKED: USER    (3) Torsional Free Energy           =   +3.58 kcal/mol
DOCKED: USER    (4) Unbound System's Energy  [=(2)] =   -2.43 kcal/mol
DOCKED: USER    
DOCKED: USER    
DOCKED: USER    NEWDPF move heme_Co_opt.pdbqt
DOCKED: USER    NEWDPF about 8.781000 34.984000 -0.736000
DOCKED: USER    NEWDPF tran0 46.198654 24.673759 17.737753
DOCKED: USER    NEWDPF quaternion0 0.381636 -0.397666 -0.747995 -0.369756
DOCKED: USER    NEWDPF axisangle0 0.410746 -0.427998 -0.805050 -136.598884
DOCKED: USER    NEWDPF quat0 0.410746 -0.427998 -0.805050 -136.598884
DOCKED: USER    NEWDPF dihe0 -52.40 163.17 -48.67 40.96 -91.54 50.36 97.06 -14.20 131.82 179.99 -142.71 179.67 
DOCKED: USER  keepresnum = 1 
DOCKED: USER  
DOCKED: REMARK  12 active torsions:
DOCKED: REMARK  status: ('A' for Active; 'I' for Inactive)
DOCKED: REMARK    1  A    between atoms: C_6  and  C_10 
DOCKED: REMARK    2  A    between atoms: C_10  and  C_11 
DOCKED: REMARK    3  A    between atoms: C_11  and  C_12 
DOCKED: REMARK    4  A    between atoms: C_12  and  O_14 
DOCKED: REMARK    5  A    between atoms: C_17  and  C_20 
DOCKED: REMARK    6  A    between atoms: C_24  and  C_27 
DOCKED: REMARK    7  A    between atoms: C_31  and  C_34 
DOCKED: REMARK    8  A    between atoms: C_34  and  C_35 
DOCKED: REMARK    9  A    between atoms: C_35  and  C_36 
DOCKED: REMARK   10  A    between atoms: C_36  and  O_38 
DOCKED: REMARK   11  A    between atoms: FE_43  and  C_44 
DOCKED: REMARK   12  A    between atoms: C_44  and  O_45 
DOCKED: USER                              x       y       z     vdW  Elec       q    Type
DOCKED: USER                           _______ _______ _______ _____ _____    ______ ____
DOCKED: ROOT
DOCKED: ATOM      1  C   UNL d   1      47.901  25.861  18.378 -0.08 +0.03    +0.064 A 
DOCKED: ATOM      2  C   UNL d   1      43.458  27.042  17.162 -0.29 +0.02    +0.064 C 
DOCKED: ATOM      3  C   UNL d   1      42.537  22.506  15.976 -0.25 +0.01    +0.064 A 
DOCKED: ATOM      4  C   UNL d   1      46.944  21.207  17.574 -0.13 +0.05    +0.064 A 
DOCKED: ATOM      5  C   UNL d   1      46.766  26.523  18.098 -0.11 +0.03    +0.066 A 
DOCKED: ATOM      6  C   UNL d   1      46.612  27.894  18.381 -0.12 -0.01    -0.021 A 
DOCKED: ATOM      7  C   UNL d   1      45.314  28.226  18.047 -0.17 -0.01    -0.025 A 
DOCKED: ATOM      8  C   UNL d   1      44.736  27.049  17.560 -0.19 +0.02    +0.066 A 
DOCKED: ATOM      9  C   UNL d   1      44.628  29.595  18.177 -0.26 +0.02    +0.051 C 
DOCKED: ATOM     10  C   UNL d   1      42.787  25.885  16.622 -0.29 +0.02    +0.066 A 
DOCKED: ATOM     11  C   UNL d   1      41.494  25.847  16.057 -0.39 -0.00    -0.021 A 
DOCKED: ATOM     12  C   UNL d   1      41.252  24.513  15.716 -0.45 +0.00    +0.000 A 
DOCKED: ATOM     13  C   UNL d   1      42.417  23.841  16.086 -0.26 +0.01    +0.070 A 
DOCKED: ATOM     14  C   UNL d   1      40.605  27.033  15.783 -0.43 +0.01    +0.052 C 
DOCKED: ATOM     15  C   UNL d   1      43.641  21.647  16.355 -0.23 +0.02    +0.066 A 
DOCKED: ATOM     16  C   UNL d   1      43.645  20.259  16.349 -0.26 -0.00    -0.021 A 
DOCKED: ATOM     17  C   UNL d   1      44.913  19.880  16.812 -0.18 +0.00    +0.000 A 
DOCKED: ATOM     18  C   UNL d   1      45.591  21.071  17.048 -0.17 +0.04    +0.070 A 
DOCKED: ATOM     19  C   UNL d   1      42.489  19.381  15.923 -0.17 +0.00    +0.052 C 
DOCKED: ATOM     20  C   UNL d   1      47.593  22.352  17.893 -0.11 +0.06    +0.066 A 
DOCKED: ATOM     21  C   UNL d   1      48.880  22.353  18.426 -0.07 -0.02    -0.025 A 
DOCKED: ATOM     22  C   UNL d   1      49.194  23.683  18.641 -0.07 -0.02    -0.021 A 
DOCKED: ATOM     23  C   UNL d   1      48.068  24.432  18.236 -0.09 +0.04    +0.066 A 
DOCKED: ATOM     24  C   UNL d   1      49.762  21.146  18.734 -0.06 +0.04    +0.051 C 
DOCKED: ATOM     25  N   UNL d   1      45.615  25.979  17.575 -0.10 -0.10    -0.248 N 
DOCKED: ATOM     26  N   UNL d   1      43.365  24.680  16.581 -0.15 -0.07    -0.248 N 
DOCKED: ATOM     27  N   UNL d   1      44.794  22.102  16.794 -0.11 -0.11    -0.248 N 
DOCKED: ATOM     28  N   UNL d   1      47.096  23.630  17.785 -0.08 -0.18    -0.248 N 
DOCKED: ATOM     29 FE   UNL d   1      45.183  23.925  17.162 -0.05 +0.00    +0.000 Fe
DOCKED: ENDROOT
DOCKED: BRANCH   6  30
DOCKED: ATOM     30  C   UNL d   1      47.648  28.813  19.020 -0.09 +0.02    +0.052 C 
DOCKED: BRANCH  30  31
DOCKED: ATOM     31  C   UNL d   1      48.058  28.286  20.395 -0.06 +0.07    +0.115 C 
DOCKED: BRANCH  31  32
DOCKED: ATOM     32  C   UNL d   1      46.866  27.964  21.269 -0.02 +0.18    +0.139 C 
DOCKED: ATOM     33  O   UNL d   1      45.845  28.626  21.161 -0.27 -1.09    -0.650 OA
DOCKED: BRANCH  32  34
DOCKED: ATOM     34  O   UNL d   1      46.874  26.929  22.141 -0.30 -1.27    -0.776 OA
DOCKED: ATOM     35  H   UNL d   1      47.049  26.010  21.893 +0.02 +0.17    +0.167 HD
DOCKED: ENDBRANCH  32  34
DOCKED: ENDBRANCH  31  32
DOCKED: ENDBRANCH  30  31
DOCKED: ENDBRANCH   6  30
DOCKED: BRANCH  29  36
DOCKED: ATOM     36  C   UNL d   1      44.494  23.789  19.137 -0.18 +0.08    +0.190 C 
DOCKED: BRANCH  36  37
DOCKED: ATOM     37  O   UNL d   1      44.834  23.307  20.405 -0.48 -0.20    -0.399 OA
DOCKED: ATOM     38  H   UNL d   1      45.758  23.646  20.570 +0.06 +0.10    +0.209 HD
DOCKED: ENDBRANCH  36  37
DOCKED: ENDBRANCH  29  36
DOCKED: BRANCH  22  39
DOCKED: ATOM     39  C   UNL d   1      50.480  24.195  19.262 -0.03 +0.03    +0.052 C 
DOCKED: BRANCH  39  40
DOCKED: ATOM     40  C   UNL d   1      50.440  24.046  20.792 +0.01 +0.04    +0.115 C 
DOCKED: BRANCH  40  41
DOCKED: ATOM     41  C   UNL d   1      49.113  23.564  21.339 +0.01 +0.05    +0.139 C 
DOCKED: ATOM     42  O   UNL d   1      49.082  22.558  22.033 +0.02 -0.21    -0.650 OA
DOCKED: BRANCH  41  43
DOCKED: ATOM     43  O   UNL d   1      47.972  24.264  21.153 +0.05 -0.37    -0.776 OA
DOCKED: ATOM     44  H   UNL d   1      47.932  25.225  21.240 +0.02 +0.09    +0.167 HD
DOCKED: ENDBRANCH  41  43
DOCKED: ENDBRANCH  40  41
DOCKED: ENDBRANCH  39  40
DOCKED: ENDBRANCH  22  39
DOCKED: BRANCH  12  45
DOCKED: ATOM     45  C   UNL d   1      40.070  23.804  15.070 -0.45 +0.00    +0.004 C 
DOCKED: ATOM     46  C   UNL d   1      39.197  24.229  14.161 -0.53 +0.00    +0.012 C 
DOCKED: ENDBRANCH  12  45
DOCKED: BRANCH  17  47
DOCKED: ATOM     47  C   UNL d   1      45.464  18.517  17.074 -0.18 +0.00    +0.004 C 
DOCKED: ATOM     48  C   UNL d   1      45.776  18.070  18.293 -0.19 +0.00    +0.012 C 
DOCKED: ENDBRANCH  17  47
DOCKED: TORSDOF 12
DOCKED: TER
DOCKED: ENDMDL
________________________________________________________________________________


	BEGINNING GENETIC ALGORITHM DOCKING 26 of 100
Run: 26 Seed: 1241481031 1784052923 [ Run 26 of 100 GA/GALS ]
Beginning LAMARCKIAN GENETIC ALGORITHM (LGA), with a maximum of 25000000 energy evaluations.

Final-Value: -14.589


	FINAL GENETIC ALGORITHM DOCKED STATE
	_______________________________________________


Detailed state:  trans 45.663 27.689 18.066 quatxyzw -0.243045 0.328490 0.912686 -0.005284 center 8.781 34.984 -0.736 ntor 12 -83.2063 116.5531 80.4838 84.0296 81.6324 139.2575 44.2212 -179.9589 166.4264 73.8066 -162.8076 41.9119
State:	 45.663  27.689  18.066  -0.243  0.328  0.913 -179.395    -83.21  116.55   80.48   84.03   81.63  139.26   44.22 -179.96  166.43   73.81 -162.81   41.91

DOCKED: MODEL       26
DOCKED: USER    Run = 26
DOCKED: USER    DPF = D:/Protein_go_brrr/autodock/final/6BB5/heme_Co/dock.dpf
DOCKED: USER  
DOCKED: USER    Estimated Free Energy of Binding    =   -8.93 kcal/mol  [=(1)+(2)+(3)-(4)]
DOCKED: USER    Estimated Inhibition Constant, Ki   =  282.53 nM (nanomolar)  [Temperature = 298.15 K]
DOCKED: USER    
DOCKED: USER    (1) Final Intermolecular Energy     =  -12.51 kcal/mol
DOCKED: USER        vdW + Hbond + desolv Energy     =   -9.33 kcal/mol
DOCKED: USER        Electrostatic Energy            =   -3.18 kcal/mol
DOCKED: USER    (2) Final Total Internal Energy     =   -2.07 kcal/mol
DOCKED: USER    (3) Torsional Free Energy           =   +3.58 kcal/mol
DOCKED: USER    (4) Unbound System's Energy  [=(2)] =   -2.07 kcal/mol
DOCKED: USER    
DOCKED: USER    
DOCKED: USER    NEWDPF move heme_Co_opt.pdbqt
DOCKED: USER    NEWDPF about 8.781000 34.984000 -0.736000
DOCKED: USER    NEWDPF tran0 45.663068 27.688615 18.065922
DOCKED: USER    NEWDPF quaternion0 -0.243045 0.328490 0.912686 -0.005284
DOCKED: USER    NEWDPF axisangle0 -0.243049 0.328495 0.912699 -179.394521
DOCKED: USER    NEWDPF quat0 -0.243049 0.328495 0.912699 -179.394521
DOCKED: USER    NEWDPF dihe0 -83.21 116.55 80.48 84.03 81.63 139.26 44.22 -179.96 166.43 73.81 -162.81 41.91 
DOCKED: USER  keepresnum = 1 
DOCKED: USER  
DOCKED: REMARK  12 active torsions:
DOCKED: REMARK  status: ('A' for Active; 'I' for Inactive)
DOCKED: REMARK    1  A    between atoms: C_6  and  C_10 
DOCKED: REMARK    2  A    between atoms: C_10  and  C_11 
DOCKED: REMARK    3  A    between atoms: C_11  and  C_12 
DOCKED: REMARK    4  A    between atoms: C_12  and  O_14 
DOCKED: REMARK    5  A    between atoms: C_17  and  C_20 
DOCKED: REMARK    6  A    between atoms: C_24  and  C_27 
DOCKED: REMARK    7  A    between atoms: C_31  and  C_34 
DOCKED: REMARK    8  A    between atoms: C_34  and  C_35 
DOCKED: REMARK    9  A    between atoms: C_35  and  C_36 
DOCKED: REMARK   10  A    between atoms: C_36  and  O_38 
DOCKED: REMARK   11  A    between atoms: FE_43  and  C_44 
DOCKED: REMARK   12  A    between atoms: C_44  and  O_45 
DOCKED: USER                              x       y       z     vdW  Elec       q    Type
DOCKED: USER                           _______ _______ _______ _____ _____    ______ ____
DOCKED: ROOT
DOCKED: ATOM      1  C   UNL d   1      47.659  27.076  18.663 -0.08 +0.03    +0.064 A 
DOCKED: ATOM      2  C   UNL d   1      45.355  31.222  18.999 -0.23 +0.02    +0.064 C 
DOCKED: ATOM      3  C   UNL d   1      41.664  29.411  16.565 -0.20 +0.01    +0.064 A 
DOCKED: ATOM      4  C   UNL d   1      43.831  25.056  16.543 -0.18 +0.02    +0.064 A 
DOCKED: ATOM      5  C   UNL d   1      47.316  28.352  18.902 -0.09 +0.03    +0.066 A 
DOCKED: ATOM      6  C   UNL d   1      48.125  29.212  19.670 -0.06 -0.01    -0.021 A 
DOCKED: ATOM      7  C   UNL d   1      47.441  30.407  19.784 -0.09 -0.01    -0.025 A 
DOCKED: ATOM      8  C   UNL d   1      46.253  30.230  19.067 -0.14 +0.03    +0.066 A 
DOCKED: ATOM      9  C   UNL d   1      47.877  31.674  20.535 -0.08 +0.02    +0.051 C 
DOCKED: ATOM     10  C   UNL d   1      44.117  31.141  18.265 -0.26 +0.02    +0.066 A 
DOCKED: ATOM     11  C   UNL d   1      43.201  32.191  18.039 -0.39 -0.00    -0.021 A 
DOCKED: ATOM     12  C   UNL d   1      42.136  31.636  17.323 -0.44 +0.00    +0.000 A 
DOCKED: ATOM     13  C   UNL d   1      42.487  30.297  17.155 -0.33 +0.01    +0.070 A 
DOCKED: ATOM     14  C   UNL d   1      43.395  33.640  18.407 -0.31 +0.00    +0.052 C 
DOCKED: ATOM     15  C   UNL d   1      41.842  27.988  16.356 -0.29 +0.01    +0.066 A 
DOCKED: ATOM     16  C   UNL d   1      40.891  27.102  15.869 -0.38 -0.00    -0.021 A 
DOCKED: ATOM     17  C   UNL d   1      41.511  25.844  15.863 -0.40 +0.00    +0.000 A 
DOCKED: ATOM     18  C   UNL d   1      42.801  26.066  16.332 -0.27 +0.02    +0.070 A 
DOCKED: ATOM     19  C   UNL d   1      39.486  27.469  15.446 -0.40 +0.01    +0.052 C 
DOCKED: ATOM     20  C   UNL d   1      45.063  25.234  17.079 -0.20 +0.03    +0.066 A 
DOCKED: ATOM     21  C   UNL d   1      45.952  24.178  17.264 -0.19 -0.01    -0.025 A 
DOCKED: ATOM     22  C   UNL d   1      47.076  24.735  17.847 -0.13 -0.01    -0.021 A 
DOCKED: ATOM     23  C   UNL d   1      46.809  26.112  18.001 -0.12 +0.03    +0.066 A 
DOCKED: ATOM     24  C   UNL d   1      45.736  22.707  16.922 -0.21 +0.03    +0.051 C 
DOCKED: ATOM     25  N   UNL d   1      46.151  28.969  18.506 -0.08 -0.10    -0.248 N 
DOCKED: ATOM     26  N   UNL d   1      43.710  30.012  17.676 -0.17 -0.07    -0.248 N 
DOCKED: ATOM     27  N   UNL d   1      42.953  27.348  16.644 -0.21 -0.06    -0.248 N 
DOCKED: ATOM     28  N   UNL d   1      45.591  26.418  17.539 -0.11 -0.10    -0.248 N 
DOCKED: ATOM     29 FE   UNL d   1      44.459  28.107  17.519 -0.05 +0.00    +0.000 Fe
DOCKED: ENDROOT
DOCKED: BRANCH   6  30
DOCKED: ATOM     30  C   UNL d   1      49.456  28.862  20.328 -0.02 +0.02    +0.052 C 
DOCKED: BRANCH  30  31
DOCKED: ATOM     31  C   UNL d   1      49.227  28.075  21.618 -0.03 +0.06    +0.115 C 
DOCKED: BRANCH  31  32
DOCKED: ATOM     32  C   UNL d   1      47.796  28.167  22.103 -0.02 +0.15    +0.139 C 
DOCKED: ATOM     33  O   UNL d   1      47.456  29.113  22.798 -0.19 -0.88    -0.650 OA
DOCKED: BRANCH  32  34
DOCKED: ATOM     34  O   UNL d   1      46.859  27.255  21.753 -0.45 -1.19    -0.776 OA
DOCKED: ATOM     35  H   UNL d   1      46.319  27.310  20.953 +0.02 +0.21    +0.167 HD
DOCKED: ENDBRANCH  32  34
DOCKED: ENDBRANCH  31  32
DOCKED: ENDBRANCH  30  31
DOCKED: ENDBRANCH   6  30
DOCKED: BRANCH  29  36
DOCKED: ATOM     36  C   UNL d   1      43.716  27.660  19.428 +0.21 +0.12    +0.190 C 
DOCKED: BRANCH  36  37
DOCKED: ATOM     37  O   UNL d   1      44.087  27.560  20.773 -0.38 -0.53    -0.399 OA
DOCKED: ATOM     38  H   UNL d   1      45.043  27.845  20.797 +0.05 +0.30    +0.209 HD
DOCKED: ENDBRANCH  36  37
DOCKED: ENDBRANCH  29  36
DOCKED: BRANCH  22  39
DOCKED: ATOM     39  C   UNL d   1      48.309  23.969  18.290 -0.10 +0.04    +0.052 C 
DOCKED: BRANCH  39  40
DOCKED: ATOM     40  C   UNL d   1      49.581  24.793  18.032 -0.10 +0.08    +0.115 C 
DOCKED: BRANCH  40  41
DOCKED: ATOM     41  C   UNL d   1      50.481  24.231  16.951 -0.11 +0.14    +0.139 C 
DOCKED: ATOM     42  O   UNL d   1      50.675  23.025  16.902 +0.03 -1.10    -0.650 OA
DOCKED: BRANCH  41  43
DOCKED: ATOM     43  O   UNL d   1      51.006  25.017  15.985 -0.00 -0.63    -0.776 OA
DOCKED: ATOM     44  H   UNL d   1      51.838  25.495  16.099 +0.02 +0.09    +0.167 HD
DOCKED: ENDBRANCH  41  43
DOCKED: ENDBRANCH  40  41
DOCKED: ENDBRANCH  39  40
DOCKED: ENDBRANCH  22  39
DOCKED: BRANCH  12  45
DOCKED: ATOM     45  C   UNL d   1      40.844  32.219  16.765 -0.52 +0.00    +0.004 C 
DOCKED: ATOM     46  C   UNL d   1      40.629  32.985  15.699 -0.52 +0.00    +0.012 C 
DOCKED: ENDBRANCH  12  45
DOCKED: BRANCH  17  47
DOCKED: ATOM     47  C   UNL d   1      40.952  24.507  15.501 -0.52 +0.00    +0.004 C 
DOCKED: ATOM     48  C   UNL d   1      40.455  24.218  14.297 -0.60 +0.00    +0.012 C 
DOCKED: ENDBRANCH  17  47
DOCKED: TORSDOF 12
DOCKED: TER
DOCKED: ENDMDL
________________________________________________________________________________


	BEGINNING GENETIC ALGORITHM DOCKING 27 of 100
Run: 27 Seed: 781776019 888669591 [ Run 27 of 100 GA/GALS ]
Beginning LAMARCKIAN GENETIC ALGORITHM (LGA), with a maximum of 25000000 energy evaluations.

Final-Value: -14.001


	FINAL GENETIC ALGORITHM DOCKED STATE
	_______________________________________________


Detailed state:  trans 44.205 24.681 17.450 quatxyzw -0.220240 0.278813 0.903777 -0.238632 center 8.781 34.984 -0.736 ntor 12 -154.9714 97.1698 26.3530 -27.1745 39.5944 143.7160 33.1102 100.7174 -175.0196 -82.2323 -176.4410 -40.7283
State:	 44.205  24.681  17.450  -0.227  0.287  0.931 -152.388   -154.97   97.17   26.35  -27.17   39.59  143.72   33.11  100.72 -175.02  -82.23 -176.44  -40.73

DOCKED: MODEL       27
DOCKED: USER    Run = 27
DOCKED: USER    DPF = D:/Protein_go_brrr/autodock/final/6BB5/heme_Co/dock.dpf
DOCKED: USER  
DOCKED: USER    Estimated Free Energy of Binding    =   -8.38 kcal/mol  [=(1)+(2)+(3)-(4)]
DOCKED: USER    Estimated Inhibition Constant, Ki   =  720.46 nM (nanomolar)  [Temperature = 298.15 K]
DOCKED: USER    
DOCKED: USER    (1) Final Intermolecular Energy     =  -11.96 kcal/mol
DOCKED: USER        vdW + Hbond + desolv Energy     =   -9.32 kcal/mol
DOCKED: USER        Electrostatic Energy            =   -2.64 kcal/mol
DOCKED: USER    (2) Final Total Internal Energy     =   -2.04 kcal/mol
DOCKED: USER    (3) Torsional Free Energy           =   +3.58 kcal/mol
DOCKED: USER    (4) Unbound System's Energy  [=(2)] =   -2.04 kcal/mol
DOCKED: USER    
DOCKED: USER    
DOCKED: USER    NEWDPF move heme_Co_opt.pdbqt
DOCKED: USER    NEWDPF about 8.781000 34.984000 -0.736000
DOCKED: USER    NEWDPF tran0 44.204695 24.681168 17.449983
DOCKED: USER    NEWDPF quaternion0 -0.220240 0.278813 0.903777 -0.238632
DOCKED: USER    NEWDPF axisangle0 -0.226792 0.287107 0.930664 -152.388425
DOCKED: USER    NEWDPF quat0 -0.226792 0.287107 0.930664 -152.388425
DOCKED: USER    NEWDPF dihe0 -154.97 97.17 26.35 -27.17 39.59 143.72 33.11 100.72 -175.02 -82.23 -176.44 -40.73 
DOCKED: USER  keepresnum = 1 
DOCKED: USER  
DOCKED: REMARK  12 active torsions:
DOCKED: REMARK  status: ('A' for Active; 'I' for Inactive)
DOCKED: REMARK    1  A    between atoms: C_6  and  C_10 
DOCKED: REMARK    2  A    between atoms: C_10  and  C_11 
DOCKED: REMARK    3  A    between atoms: C_11  and  C_12 
DOCKED: REMARK    4  A    between atoms: C_12  and  O_14 
DOCKED: REMARK    5  A    between atoms: C_17  and  C_20 
DOCKED: REMARK    6  A    between atoms: C_24  and  C_27 
DOCKED: REMARK    7  A    between atoms: C_31  and  C_34 
DOCKED: REMARK    8  A    between atoms: C_34  and  C_35 
DOCKED: REMARK    9  A    between atoms: C_35  and  C_36 
DOCKED: REMARK   10  A    between atoms: C_36  and  O_38 
DOCKED: REMARK   11  A    between atoms: FE_43  and  C_44 
DOCKED: REMARK   12  A    between atoms: C_44  and  O_45 
DOCKED: USER                              x       y       z     vdW  Elec       q    Type
DOCKED: USER                           _______ _______ _______ _____ _____    ______ ____
DOCKED: ROOT
DOCKED: ATOM      1  C   UNL d   1      45.680  23.202  18.041 -0.14 +0.03    +0.064 A 
DOCKED: ATOM      2  C   UNL d   1      45.171  27.809  19.104 -0.20 +0.04    +0.064 C 
DOCKED: ATOM      3  C   UNL d   1      41.490  28.139  16.076 -0.13 +0.02    +0.064 A 
DOCKED: ATOM      4  C   UNL d   1      41.745  23.349  15.265 -0.36 +0.01    +0.064 A 
DOCKED: ATOM      5  C   UNL d   1      45.835  24.445  18.527 -0.10 +0.03    +0.066 A 
DOCKED: ATOM      6  C   UNL d   1      46.788  24.747  19.519 -0.05 -0.01    -0.021 A 
DOCKED: ATOM      7  C   UNL d   1      46.620  26.080  19.840 -0.07 -0.02    -0.025 A 
DOCKED: ATOM      8  C   UNL d   1      45.584  26.538  19.019 -0.11 +0.04    +0.066 A 
DOCKED: ATOM      9  C   UNL d   1      47.397  26.904  20.878 -0.07 +0.04    +0.051 C 
DOCKED: ATOM     10  C   UNL d   1      44.131  28.376  18.282 -0.22 +0.03    +0.066 A 
DOCKED: ATOM     11  C   UNL d   1      43.748  29.734  18.224 -0.29 -0.01    -0.021 A 
DOCKED: ATOM     12  C   UNL d   1      42.676  29.802  17.330 -0.32 +0.00    +0.000 A 
DOCKED: ATOM     13  C   UNL d   1      42.492  28.487  16.901 -0.20 +0.02    +0.070 A 
DOCKED: ATOM     14  C   UNL d   1      44.437  30.885  18.911 -0.30 +0.02    +0.052 C 
DOCKED: ATOM     15  C   UNL d   1      41.124  26.828  15.576 -0.36 +0.01    +0.066 A 
DOCKED: ATOM     16  C   UNL d   1      39.989  26.515  14.841 -0.41 -0.00    -0.021 A 
DOCKED: ATOM     17  C   UNL d   1      40.057  25.134  14.607 -0.48 +0.00    +0.000 A 
DOCKED: ATOM     18  C   UNL d   1      41.241  24.715  15.205 -0.37 +0.01    +0.070 A 
DOCKED: ATOM     19  C   UNL d   1      38.925  27.499  14.409 -0.36 +0.01    +0.052 C 
DOCKED: ATOM     20  C   UNL d   1      42.848  22.905  15.913 +0.22 +0.01    +0.066 A 
DOCKED: ATOM     21  C   UNL d   1      43.210  21.560  15.928 -0.20 -0.00    -0.025 A 
DOCKED: ATOM     22  C   UNL d   1      44.357  21.491  16.697 -0.22 -0.01    -0.021 A 
DOCKED: ATOM     23  C   UNL d   1      44.634  22.807  17.127 -0.18 +0.03    +0.066 A 
DOCKED: ATOM     24  C   UNL d   1      42.488  20.393  15.260 -0.07 +0.00    +0.051 C 
DOCKED: ATOM     25  N   UNL d   1      45.083  25.548  18.191 -0.07 -0.11    -0.248 N 
DOCKED: ATOM     26  N   UNL d   1      43.409  27.636  17.434 -0.15 -0.08    -0.248 N 
DOCKED: ATOM     27  N   UNL d   1      41.835  25.745  15.798 -0.23 -0.05    -0.248 N 
DOCKED: ATOM     28  N   UNL d   1      43.721  23.665  16.656 -0.08 -0.08    -0.248 N 
DOCKED: ATOM     29 FE   UNL d   1      43.363  25.649  16.922 -0.06 +0.00    +0.000 Fe
DOCKED: ENDROOT
DOCKED: BRANCH   6  30
DOCKED: ATOM     30  C   UNL d   1      47.754  23.769  20.179 -0.03 +0.03    +0.052 C 
DOCKED: BRANCH  30  31
DOCKED: ATOM     31  C   UNL d   1      47.144  23.190  21.456 -0.04 +0.05    +0.115 C 
DOCKED: BRANCH  31  32
DOCKED: ATOM     32  C   UNL d   1      45.729  23.673  21.690 -0.13 +0.07    +0.139 C 
DOCKED: ATOM     33  O   UNL d   1      45.533  24.622  22.434 +0.02 -0.55    -0.650 OA
DOCKED: BRANCH  32  34
DOCKED: ATOM     34  O   UNL d   1      44.668  23.116  21.061 -0.50 -0.40    -0.776 OA
DOCKED: ATOM     35  H   UNL d   1      43.812  23.552  20.948 +0.06 +0.08    +0.167 HD
DOCKED: ENDBRANCH  32  34
DOCKED: ENDBRANCH  31  32
DOCKED: ENDBRANCH  30  31
DOCKED: ENDBRANCH   6  30
DOCKED: BRANCH  29  36
DOCKED: ATOM     36  C   UNL d   1      42.219  25.237  18.630 -0.21 +0.05    +0.190 C 
DOCKED: BRANCH  36  37
DOCKED: ATOM     37  O   UNL d   1      42.315  24.829  19.964 -0.16 -0.13    -0.399 OA
DOCKED: ATOM     38  H   UNL d   1      43.232  24.445  20.049 +0.10 +0.09    +0.209 HD
DOCKED: ENDBRANCH  36  37
DOCKED: ENDBRANCH  29  36
DOCKED: BRANCH  22  39
DOCKED: ATOM     39  C   UNL d   1      45.105  20.219  17.051 -0.17 +0.02    +0.052 C 
DOCKED: BRANCH  39  40
DOCKED: ATOM     40  C   UNL d   1      45.606  19.513  15.780 -0.14 +0.06    +0.115 C 
DOCKED: BRANCH  40  41
DOCKED: ATOM     41  C   UNL d   1      47.009  19.900  15.362 -0.06 +0.17    +0.139 C 
DOCKED: ATOM     42  O   UNL d   1      47.190  20.389  14.255 -0.53 -1.07    -0.650 OA
DOCKED: BRANCH  41  43
DOCKED: ATOM     43  O   UNL d   1      48.056  19.802  16.211 +0.12 -1.26    -0.776 OA
DOCKED: ATOM     44  H   UNL d   1      48.112  19.115  16.888 +0.02 +0.16    +0.167 HD
DOCKED: ENDBRANCH  41  43
DOCKED: ENDBRANCH  40  41
DOCKED: ENDBRANCH  39  40
DOCKED: ENDBRANCH  22  39
DOCKED: BRANCH  12  45
DOCKED: ATOM     45  C   UNL d   1      41.820  30.955  16.821 -0.45 +0.00    +0.004 C 
DOCKED: ATOM     46  C   UNL d   1      41.388  32.051  17.439 -0.54 +0.00    +0.012 C 
DOCKED: ENDBRANCH  12  45
DOCKED: BRANCH  17  47
DOCKED: ATOM     47  C   UNL d   1      39.080  24.233  13.925 -0.52 +0.00    +0.004 C 
DOCKED: ATOM     48  C   UNL d   1      38.115  24.672  13.112 -0.57 +0.00    +0.012 C 
DOCKED: ENDBRANCH  17  47
DOCKED: TORSDOF 12
DOCKED: TER
DOCKED: ENDMDL
________________________________________________________________________________


	BEGINNING GENETIC ALGORITHM DOCKING 28 of 100
Run: 28 Seed: 1879205875 1058994694 [ Run 28 of 100 GA/GALS ]
Beginning LAMARCKIAN GENETIC ALGORITHM (LGA), with a maximum of 25000000 energy evaluations.

Final-Value: -15.347


	FINAL GENETIC ALGORITHM DOCKED STATE
	_______________________________________________


Detailed state:  trans 45.660 27.655 17.964 quatxyzw 0.246705 -0.347728 -0.904194 -0.025595 center 8.781 34.984 -0.736 ntor 12 38.5422 114.1012 -135.8234 57.4756 93.1507 108.1942 38.1012 115.9986 167.7564 140.7795 -167.0267 170.2307
State:	 45.660  27.655  17.964   0.247 -0.348 -0.904 -177.067     38.54  114.10 -135.82   57.48   93.15  108.19   38.10  116.00  167.76  140.78 -167.03  170.23

DOCKED: MODEL       28
DOCKED: USER    Run = 28
DOCKED: USER    DPF = D:/Protein_go_brrr/autodock/final/6BB5/heme_Co/dock.dpf
DOCKED: USER  
DOCKED: USER    Estimated Free Energy of Binding    =   -7.76 kcal/mol  [=(1)+(2)+(3)-(4)]
DOCKED: USER    Estimated Inhibition Constant, Ki   =    2.04 uM (micromolar)  [Temperature = 298.15 K]
DOCKED: USER    
DOCKED: USER    (1) Final Intermolecular Energy     =  -11.34 kcal/mol
DOCKED: USER        vdW + Hbond + desolv Energy     =   -9.08 kcal/mol
DOCKED: USER        Electrostatic Energy            =   -2.26 kcal/mol
DOCKED: USER    (2) Final Total Internal Energy     =   -4.00 kcal/mol
DOCKED: USER    (3) Torsional Free Energy           =   +3.58 kcal/mol
DOCKED: USER    (4) Unbound System's Energy  [=(2)] =   -4.00 kcal/mol
DOCKED: USER    
DOCKED: USER    
DOCKED: USER    NEWDPF move heme_Co_opt.pdbqt
DOCKED: USER    NEWDPF about 8.781000 34.984000 -0.736000
DOCKED: USER    NEWDPF tran0 45.660410 27.655237 17.964290
DOCKED: USER    NEWDPF quaternion0 0.246705 -0.347728 -0.904194 -0.025595
DOCKED: USER    NEWDPF axisangle0 0.246786 -0.347842 -0.904490 -177.066732
DOCKED: USER    NEWDPF quat0 0.246786 -0.347842 -0.904490 -177.066732
DOCKED: USER    NEWDPF dihe0 38.54 114.10 -135.82 57.48 93.15 108.19 38.10 116.00 167.76 140.78 -167.03 170.23 
DOCKED: USER  keepresnum = 1 
DOCKED: USER  
DOCKED: REMARK  12 active torsions:
DOCKED: REMARK  status: ('A' for Active; 'I' for Inactive)
DOCKED: REMARK    1  A    between atoms: C_6  and  C_10 
DOCKED: REMARK    2  A    between atoms: C_10  and  C_11 
DOCKED: REMARK    3  A    between atoms: C_11  and  C_12 
DOCKED: REMARK    4  A    between atoms: C_12  and  O_14 
DOCKED: REMARK    5  A    between atoms: C_17  and  C_20 
DOCKED: REMARK    6  A    between atoms: C_24  and  C_27 
DOCKED: REMARK    7  A    between atoms: C_31  and  C_34 
DOCKED: REMARK    8  A    between atoms: C_34  and  C_35 
DOCKED: REMARK    9  A    between atoms: C_35  and  C_36 
DOCKED: REMARK   10  A    between atoms: C_36  and  O_38 
DOCKED: REMARK   11  A    between atoms: FE_43  and  C_44 
DOCKED: REMARK   12  A    between atoms: C_44  and  O_45 
DOCKED: USER                              x       y       z     vdW  Elec       q    Type
DOCKED: USER                           _______ _______ _______ _____ _____    ______ ____
DOCKED: ROOT
DOCKED: ATOM      1  C   UNL d   1      47.689  27.175  18.572 -0.08 +0.03    +0.064 A 
DOCKED: ATOM      2  C   UNL d   1      45.186  31.216  18.704 -0.24 +0.02    +0.064 C 
DOCKED: ATOM      3  C   UNL d   1      41.569  29.093  16.414 -0.20 +0.02    +0.064 A 
DOCKED: ATOM      4  C   UNL d   1      43.949  24.855  16.610 -0.17 +0.02    +0.064 A 
DOCKED: ATOM      5  C   UNL d   1      47.285  28.445  18.744 -0.09 +0.03    +0.066 A 
DOCKED: ATOM      6  C   UNL d   1      48.057  29.385  19.454 -0.07 -0.01    -0.021 A 
DOCKED: ATOM      7  C   UNL d   1      47.316  30.549  19.509 -0.10 -0.01    -0.025 A 
DOCKED: ATOM      8  C   UNL d   1      46.132  30.275  18.817 -0.15 +0.03    +0.066 A 
DOCKED: ATOM      9  C   UNL d   1      47.694  31.876  20.184 -0.08 +0.02    +0.051 C 
DOCKED: ATOM     10  C   UNL d   1      43.947  31.034  17.988 -0.26 +0.02    +0.066 A 
DOCKED: ATOM     11  C   UNL d   1      42.978  32.023  17.714 -0.37 -0.00    -0.021 A 
DOCKED: ATOM     12  C   UNL d   1      41.936  31.378  17.043 -0.43 +0.00    +0.000 A 
DOCKED: ATOM     13  C   UNL d   1      42.351  30.049  16.945 -0.32 +0.01    +0.070 A 
DOCKED: ATOM     14  C   UNL d   1      43.103  33.498  17.999 -0.38 +0.00    +0.052 C 
DOCKED: ATOM     15  C   UNL d   1      41.815  27.671  16.282 -0.29 +0.01    +0.066 A 
DOCKED: ATOM     16  C   UNL d   1      40.906  26.714  15.856 -0.40 -0.00    -0.021 A 
DOCKED: ATOM     17  C   UNL d   1      41.587  25.489  15.913 -0.39 +0.00    +0.000 A 
DOCKED: ATOM     18  C   UNL d   1      42.868  25.800  16.355 -0.27 +0.02    +0.070 A 
DOCKED: ATOM     19  C   UNL d   1      39.480  26.987  15.429 -0.43 +0.01    +0.052 C 
DOCKED: ATOM     20  C   UNL d   1      45.174  25.123  17.122 -0.20 +0.03    +0.066 A 
DOCKED: ATOM     21  C   UNL d   1      46.117  24.124  17.356 -0.18 -0.01    -0.025 A 
DOCKED: ATOM     22  C   UNL d   1      47.216  24.767  17.894 -0.13 -0.01    -0.021 A 
DOCKED: ATOM     23  C   UNL d   1      46.883  26.136  17.974 -0.12 +0.03    +0.066 A 
DOCKED: ATOM     24  C   UNL d   1      45.970  22.627  17.097 -0.21 +0.03    +0.051 C 
DOCKED: ATOM     25  N   UNL d   1      46.088  28.980  18.327 -0.08 -0.10    -0.248 N 
DOCKED: ATOM     26  N   UNL d   1      43.591  29.855  17.468 -0.18 -0.07    -0.248 N 
DOCKED: ATOM     27  N   UNL d   1      42.959  27.103  16.594 -0.21 -0.06    -0.248 N 
DOCKED: ATOM     28  N   UNL d   1      45.647  26.355  17.510 -0.11 -0.10    -0.248 N 
DOCKED: ATOM     29 FE   UNL d   1      44.433  27.983  17.409 -0.06 +0.00    +0.000 Fe
DOCKED: ENDROOT
DOCKED: BRANCH   6  30
DOCKED: ATOM     30  C   UNL d   1      49.409  29.138  20.116 -0.03 +0.02    +0.052 C 
DOCKED: BRANCH  30  31
DOCKED: ATOM     31  C   UNL d   1      49.224  28.509  21.496 -0.03 +0.06    +0.115 C 
DOCKED: BRANCH  31  32
DOCKED: ATOM     32  C   UNL d   1      47.797  28.607  21.989 -0.06 +0.14    +0.139 C 
DOCKED: ATOM     33  O   UNL d   1      47.459  29.568  22.664 -0.11 -0.74    -0.650 OA
DOCKED: BRANCH  32  34
DOCKED: ATOM     34  O   UNL d   1      46.861  27.684  21.666 -0.51 -1.23    -0.776 OA
DOCKED: ATOM     35  H   UNL d   1      47.044  26.741  21.550 +0.02 +0.19    +0.167 HD
DOCKED: ENDBRANCH  32  34
DOCKED: ENDBRANCH  31  32
DOCKED: ENDBRANCH  30  31
DOCKED: ENDBRANCH   6  30
DOCKED: BRANCH  29  36
DOCKED: ATOM     36  C   UNL d   1      43.729  27.608  19.347 +0.19 +0.11    +0.190 C 
DOCKED: BRANCH  36  37
DOCKED: ATOM     37  O   UNL d   1      44.127  27.156  20.609 -0.28 -0.46    -0.399 OA
DOCKED: ATOM     38  H   UNL d   1      45.102  26.964  20.517 +0.06 +0.23    +0.209 HD
DOCKED: ENDBRANCH  36  37
DOCKED: ENDBRANCH  29  36
DOCKED: BRANCH  22  39
DOCKED: ATOM     39  C   UNL d   1      48.489  24.089  18.365 -0.10 +0.04    +0.052 C 
DOCKED: BRANCH  39  40
DOCKED: ATOM     40  C   UNL d   1      48.365  23.664  19.838 -0.02 +0.06    +0.115 C 
DOCKED: BRANCH  40  41
DOCKED: ATOM     41  C   UNL d   1      47.763  24.718  20.743 -0.01 +0.07    +0.139 C 
DOCKED: ATOM     42  O   UNL d   1      48.489  25.328  21.515 +0.02 -0.34    -0.650 OA
DOCKED: BRANCH  41  43
DOCKED: ATOM     43  O   UNL d   1      46.460  25.066  20.661 +0.07 -0.49    -0.776 OA
DOCKED: ATOM     44  H   UNL d   1      46.171  25.985  20.591 +0.04 +0.13    +0.167 HD
DOCKED: ENDBRANCH  41  43
DOCKED: ENDBRANCH  40  41
DOCKED: ENDBRANCH  39  40
DOCKED: ENDBRANCH  22  39
DOCKED: BRANCH  12  45
DOCKED: ATOM     45  C   UNL d   1      40.612  31.864  16.468 -0.48 +0.00    +0.004 C 
DOCKED: ATOM     46  C   UNL d   1      40.340  32.899  15.678 -0.51 +0.00    +0.012 C 
DOCKED: ENDBRANCH  12  45
DOCKED: BRANCH  17  47
DOCKED: ATOM     47  C   UNL d   1      41.092  24.109  15.632 -0.53 +0.00    +0.004 C 
DOCKED: ATOM     48  C   UNL d   1      40.809  23.662  14.406 -0.60 +0.00    +0.012 C 
DOCKED: ENDBRANCH  17  47
DOCKED: TORSDOF 12
DOCKED: TER
DOCKED: ENDMDL
________________________________________________________________________________


	BEGINNING GENETIC ALGORITHM DOCKING 29 of 100
Run: 29 Seed: 1896884097 1659262817 [ Run 29 of 100 GA/GALS ]
Beginning LAMARCKIAN GENETIC ALGORITHM (LGA), with a maximum of 25000000 energy evaluations.

Final-Value: -13.287


	FINAL GENETIC ALGORITHM DOCKED STATE
	_______________________________________________


Detailed state:  trans 45.286 27.644 17.957 quatxyzw -0.454632 0.406107 0.610191 0.506018 center 8.781 34.984 -0.736 ntor 12 111.3565 105.5576 31.6313 100.3649 -77.3270 89.7895 120.3702 -69.2000 -56.1223 145.8989 -168.5889 175.9790
State:	 45.286  27.644  17.957  -0.527  0.471  0.707 119.202    111.36  105.56   31.63  100.36  -77.33   89.79  120.37  -69.20  -56.12  145.90 -168.59  175.98

DOCKED: MODEL       29
DOCKED: USER    Run = 29
DOCKED: USER    DPF = D:/Protein_go_brrr/autodock/final/6BB5/heme_Co/dock.dpf
DOCKED: USER  
DOCKED: USER    Estimated Free Energy of Binding    =   -6.87 kcal/mol  [=(1)+(2)+(3)-(4)]
DOCKED: USER    Estimated Inhibition Constant, Ki   =    9.28 uM (micromolar)  [Temperature = 298.15 K]
DOCKED: USER    
DOCKED: USER    (1) Final Intermolecular Energy     =  -10.45 kcal/mol
DOCKED: USER        vdW + Hbond + desolv Energy     =   -8.44 kcal/mol
DOCKED: USER        Electrostatic Energy            =   -2.01 kcal/mol
DOCKED: USER    (2) Final Total Internal Energy     =   -2.84 kcal/mol
DOCKED: USER    (3) Torsional Free Energy           =   +3.58 kcal/mol
DOCKED: USER    (4) Unbound System's Energy  [=(2)] =   -2.84 kcal/mol
DOCKED: USER    
DOCKED: USER    
DOCKED: USER    NEWDPF move heme_Co_opt.pdbqt
DOCKED: USER    NEWDPF about 8.781000 34.984000 -0.736000
DOCKED: USER    NEWDPF tran0 45.285846 27.643504 17.957297
DOCKED: USER    NEWDPF quaternion0 -0.454632 0.406107 0.610191 0.506018
DOCKED: USER    NEWDPF axisangle0 -0.527096 0.470836 0.707449 119.202144
DOCKED: USER    NEWDPF quat0 -0.527096 0.470836 0.707449 119.202144
DOCKED: USER    NEWDPF dihe0 111.36 105.56 31.63 100.36 -77.33 89.79 120.37 -69.20 -56.12 145.90 -168.59 175.98 
DOCKED: USER  keepresnum = 1 
DOCKED: USER  
DOCKED: REMARK  12 active torsions:
DOCKED: REMARK  status: ('A' for Active; 'I' for Inactive)
DOCKED: REMARK    1  A    between atoms: C_6  and  C_10 
DOCKED: REMARK    2  A    between atoms: C_10  and  C_11 
DOCKED: REMARK    3  A    between atoms: C_11  and  C_12 
DOCKED: REMARK    4  A    between atoms: C_12  and  O_14 
DOCKED: REMARK    5  A    between atoms: C_17  and  C_20 
DOCKED: REMARK    6  A    between atoms: C_24  and  C_27 
DOCKED: REMARK    7  A    between atoms: C_31  and  C_34 
DOCKED: REMARK    8  A    between atoms: C_34  and  C_35 
DOCKED: REMARK    9  A    between atoms: C_35  and  C_36 
DOCKED: REMARK   10  A    between atoms: C_36  and  O_38 
DOCKED: REMARK   11  A    between atoms: FE_43  and  C_44 
DOCKED: REMARK   12  A    between atoms: C_44  and  O_45 
DOCKED: USER                              x       y       z     vdW  Elec       q    Type
DOCKED: USER                           _______ _______ _______ _____ _____    ______ ____
DOCKED: ROOT
DOCKED: ATOM      1  C   UNL d   1      46.375  29.444  18.494 -0.13 +0.02    +0.064 A 
DOCKED: ATOM      2  C   UNL d   1      42.013  28.755  16.730 -0.15 +0.02    +0.064 C 
DOCKED: ATOM      3  C   UNL d   1      42.866  24.068  16.352 -0.25 +0.01    +0.064 A 
DOCKED: ATOM      4  C   UNL d   1      47.181  24.693  18.510 -0.07 +0.03    +0.064 A 
DOCKED: ATOM      5  C   UNL d   1      45.134  29.605  18.006 -0.19 +0.02    +0.066 A 
DOCKED: ATOM      6  C   UNL d   1      44.485  30.855  18.012 -0.25 -0.01    -0.021 A 
DOCKED: ATOM      7  C   UNL d   1      43.211  30.645  17.520 -0.32 -0.01    -0.025 A 
DOCKED: ATOM      8  C   UNL d   1      43.143  29.280  17.220 -0.27 +0.02    +0.066 A 
DOCKED: ATOM      9  C   UNL d   1      42.090  31.678  17.335 -0.47 +0.01    +0.051 C 
DOCKED: ATOM     10  C   UNL d   1      41.859  27.368  16.367 -0.30 +0.01    +0.066 A 
DOCKED: ATOM     11  C   UNL d   1      40.748  26.784  15.719 -0.40 -0.00    -0.021 A 
DOCKED: ATOM     12  C   UNL d   1      41.025  25.418  15.618 -0.43 +0.00    +0.000 A 
DOCKED: ATOM     13  C   UNL d   1      42.285  25.272  16.198 -0.27 +0.01    +0.070 A 
DOCKED: ATOM     14  C   UNL d   1      39.557  27.517  15.156 -0.33 +0.01    +0.052 C 
DOCKED: ATOM     15  C   UNL d   1      44.132  23.730  16.973 -0.19 +0.02    +0.066 A 
DOCKED: ATOM     16  C   UNL d   1      44.607  22.452  17.229 -0.22 -0.01    -0.021 A 
DOCKED: ATOM     17  C   UNL d   1      45.850  22.627  17.854 -0.17 +0.00    +0.000 A 
DOCKED: ATOM     18  C   UNL d   1      46.043  24.003  17.914 -0.12 +0.04    +0.070 A 
DOCKED: ATOM     19  C   UNL d   1      43.891  21.165  16.886 -0.17 +0.01    +0.052 C 
DOCKED: ATOM     20  C   UNL d   1      47.350  26.029  18.658 -0.07 +0.03    +0.066 A 
DOCKED: ATOM     21  C   UNL d   1      48.471  26.572  19.281 -0.04 -0.01    -0.025 A 
DOCKED: ATOM     22  C   UNL d   1      48.280  27.941  19.265 -0.06 -0.01    -0.021 A 
DOCKED: ATOM     23  C   UNL d   1      47.036  28.167  18.639 -0.10 +0.03    +0.066 A 
DOCKED: ATOM     24  C   UNL d   1      49.658  25.822  19.880 -0.01 +0.02    +0.051 C 
DOCKED: ATOM     25  N   UNL d   1      44.322  28.612  17.506 -0.14 -0.08    -0.248 N 
DOCKED: ATOM     26  N   UNL d   1      42.812  26.459  16.600 -0.20 -0.06    -0.248 N 
DOCKED: ATOM     27  N   UNL d   1      44.987  24.629  17.408 -0.10 -0.10    -0.248 N 
DOCKED: ATOM     28  N   UNL d   1      46.469  27.012  18.272 -0.07 -0.11    -0.248 N 
DOCKED: ATOM     29 FE   UNL d   1      44.678  26.503  17.455 -0.05 +0.00    +0.000 Fe
DOCKED: ENDROOT
DOCKED: BRANCH   6  30
DOCKED: ATOM     30  C   UNL d   1      45.045  32.168  18.546 -0.27 +0.01    +0.052 C 
DOCKED: BRANCH  30  31
DOCKED: ATOM     31  C   UNL d   1      44.820  32.275  20.054 -0.09 +0.04    +0.115 C 
DOCKED: BRANCH  31  32
DOCKED: ATOM     32  C   UNL d   1      46.113  32.453  20.820 -0.15 +0.05    +0.139 C 
DOCKED: ATOM     33  O   UNL d   1      47.180  32.326  20.237 +0.02 -0.19    -0.650 OA
DOCKED: BRANCH  32  34
DOCKED: ATOM     34  O   UNL d   1      46.131  32.797  22.129 +0.03 -0.29    -0.776 OA
DOCKED: ATOM     35  H   UNL d   1      46.361  32.192  22.847 +0.03 +0.09    +0.167 HD
DOCKED: ENDBRANCH  32  34
DOCKED: ENDBRANCH  31  32
DOCKED: ENDBRANCH  30  31
DOCKED: ENDBRANCH   6  30
DOCKED: BRANCH  29  36
DOCKED: ATOM     36  C   UNL d   1      43.805  26.424  19.359 -0.16 +0.10    +0.190 C 
DOCKED: BRANCH  36  37
DOCKED: ATOM     37  O   UNL d   1      43.977  26.844  20.682 -0.27 -0.43    -0.399 OA
DOCKED: ATOM     38  H   UNL d   1      44.888  27.251  20.705 +0.06 +0.26    +0.209 HD
DOCKED: ENDBRANCH  36  37
DOCKED: ENDBRANCH  29  36
DOCKED: BRANCH  22  39
DOCKED: ATOM     39  C   UNL d   1      49.215  28.967  19.878 -0.03 +0.02    +0.052 C 
DOCKED: BRANCH  39  40
DOCKED: ATOM     40  C   UNL d   1      48.951  29.109  21.386 -0.04 +0.06    +0.115 C 
DOCKED: BRANCH  40  41
DOCKED: ATOM     41  C   UNL d   1      47.486  29.072  21.770 -0.09 +0.14    +0.139 C 
DOCKED: ATOM     42  O   UNL d   1      46.864  28.025  21.655 -0.57 -1.05    -0.650 OA
DOCKED: BRANCH  41  43
DOCKED: ATOM     43  O   UNL d   1      46.868  30.141  22.318 +0.01 -0.89    -0.776 OA
DOCKED: ATOM     44  H   UNL d   1      47.054  31.048  22.041 +0.02 +0.11    +0.167 HD
DOCKED: ENDBRANCH  41  43
DOCKED: ENDBRANCH  40  41
DOCKED: ENDBRANCH  39  40
DOCKED: ENDBRANCH  22  39
DOCKED: BRANCH  12  45
DOCKED: ATOM     45  C   UNL d   1      40.257  24.244  15.026 -0.54 +0.00    +0.004 C 
DOCKED: ATOM     46  C   UNL d   1      40.292  23.713  13.806 -0.56 +0.00    +0.012 C 
DOCKED: ENDBRANCH  12  45
DOCKED: BRANCH  17  47
DOCKED: ATOM     47  C   UNL d   1      46.790  21.608  18.411 -0.15 +0.00    +0.004 C 
DOCKED: ATOM     48  C   UNL d   1      46.859  21.302  19.709 -0.13 +0.01    +0.012 C 
DOCKED: ENDBRANCH  17  47
DOCKED: TORSDOF 12
DOCKED: TER
DOCKED: ENDMDL
________________________________________________________________________________


	BEGINNING GENETIC ALGORITHM DOCKING 30 of 100
Run: 30 Seed: 1031867219 358369436 [ Run 30 of 100 GA/GALS ]
Beginning LAMARCKIAN GENETIC ALGORITHM (LGA), with a maximum of 25000000 energy evaluations.

Final-Value: -9.989


	FINAL GENETIC ALGORITHM DOCKED STATE
	_______________________________________________


Detailed state:  trans 36.165 27.601 -0.069 quatxyzw 0.840722 0.004833 -0.132042 0.525098 center 8.781 34.984 -0.736 ntor 12 -94.4342 107.1311 -73.3893 -9.7530 143.1165 106.8744 59.2662 -26.9331 159.1451 -153.8017 -153.3227 162.6578
State:	 36.165  27.601  -0.069   0.988  0.006 -0.155 116.650    -94.43  107.13  -73.39   -9.75  143.12  106.87   59.27  -26.93  159.15 -153.80 -153.32  162.66

DOCKED: MODEL       30
DOCKED: USER    Run = 30
DOCKED: USER    DPF = D:/Protein_go_brrr/autodock/final/6BB5/heme_Co/dock.dpf
DOCKED: USER  
DOCKED: USER    Estimated Free Energy of Binding    =   -2.79 kcal/mol  [=(1)+(2)+(3)-(4)]
DOCKED: USER    Estimated Inhibition Constant, Ki   =    9.02 mM (millimolar)  [Temperature = 298.15 K]
DOCKED: USER    
DOCKED: USER    (1) Final Intermolecular Energy     =   -6.37 kcal/mol
DOCKED: USER        vdW + Hbond + desolv Energy     =   -6.26 kcal/mol
DOCKED: USER        Electrostatic Energy            =   -0.11 kcal/mol
DOCKED: USER    (2) Final Total Internal Energy     =   -3.62 kcal/mol
DOCKED: USER    (3) Torsional Free Energy           =   +3.58 kcal/mol
DOCKED: USER    (4) Unbound System's Energy  [=(2)] =   -3.62 kcal/mol
DOCKED: USER    
DOCKED: USER    
DOCKED: USER    NEWDPF move heme_Co_opt.pdbqt
DOCKED: USER    NEWDPF about 8.781000 34.984000 -0.736000
DOCKED: USER    NEWDPF tran0 36.165233 27.600793 -0.069259
DOCKED: USER    NEWDPF quaternion0 0.840722 0.004833 -0.132042 0.525098
DOCKED: USER    NEWDPF axisangle0 0.987874 0.005679 -0.155153 116.650297
DOCKED: USER    NEWDPF quat0 0.987874 0.005679 -0.155153 116.650297
DOCKED: USER    NEWDPF dihe0 -94.43 107.13 -73.39 -9.75 143.12 106.87 59.27 -26.93 159.15 -153.80 -153.32 162.66 
DOCKED: USER  keepresnum = 1 
DOCKED: USER  
DOCKED: REMARK  12 active torsions:
DOCKED: REMARK  status: ('A' for Active; 'I' for Inactive)
DOCKED: REMARK    1  A    between atoms: C_6  and  C_10 
DOCKED: REMARK    2  A    between atoms: C_10  and  C_11 
DOCKED: REMARK    3  A    between atoms: C_11  and  C_12 
DOCKED: REMARK    4  A    between atoms: C_12  and  O_14 
DOCKED: REMARK    5  A    between atoms: C_17  and  C_20 
DOCKED: REMARK    6  A    between atoms: C_24  and  C_27 
DOCKED: REMARK    7  A    between atoms: C_31  and  C_34 
DOCKED: REMARK    8  A    between atoms: C_34  and  C_35 
DOCKED: REMARK    9  A    between atoms: C_35  and  C_36 
DOCKED: REMARK   10  A    between atoms: C_36  and  O_38 
DOCKED: REMARK   11  A    between atoms: FE_43  and  C_44 
DOCKED: REMARK   12  A    between atoms: C_44  and  O_45 
DOCKED: USER                              x       y       z     vdW  Elec       q    Type
DOCKED: USER                           _______ _______ _______ _____ _____    ______ ____
DOCKED: ROOT
DOCKED: ATOM      1  C   UNL d   1      34.426  26.344   0.261 -0.21 -0.01    +0.064 A 
DOCKED: ATOM      2  C   UNL d   1      35.140  31.014   0.795 -0.16 +0.01    +0.064 C 
DOCKED: ATOM      3  C   UNL d   1      39.763  30.468  -0.279 -0.26 -0.01    +0.064 A 
DOCKED: ATOM      4  C   UNL d   1      38.978  25.758  -1.207 -0.14 -0.00    +0.064 A 
DOCKED: ATOM      5  C   UNL d   1      34.289  27.654   0.521 -0.17 +0.00    +0.066 A 
DOCKED: ATOM      6  C   UNL d   1      33.038  28.232   0.812 -0.23 -0.00    -0.021 A 
DOCKED: ATOM      7  C   UNL d   1      33.247  29.591   0.944 -0.20 -0.01    -0.025 A 
DOCKED: ATOM      8  C   UNL d   1      34.618  29.782   0.744 -0.13 +0.01    +0.066 A 
DOCKED: ATOM      9  C   UNL d   1      32.206  30.680   1.245 -0.08 +0.04    +0.051 C 
DOCKED: ATOM     10  C   UNL d   1      36.542  31.305   0.628 -0.17 -0.00    +0.066 A 
DOCKED: ATOM     11  C   UNL d   1      37.171  32.556   0.809 -0.21 +0.00    -0.021 A 
DOCKED: ATOM     12  C   UNL d   1      38.520  32.367   0.493 -0.28 -0.00    +0.000 A 
DOCKED: ATOM     13  C   UNL d   1      38.615  31.017   0.156 -0.25 -0.01    +0.070 A 
DOCKED: ATOM     14  C   UNL d   1      36.527  33.810   1.341 -0.29 -0.00    +0.052 C 
DOCKED: ATOM     15  C   UNL d   1      40.027  29.112  -0.717 -0.19 -0.00    +0.066 A 
DOCKED: ATOM     16  C   UNL d   1      41.200  28.646  -1.293 -0.18 +0.00    -0.021 A 
DOCKED: ATOM     17  C   UNL d   1      40.978  27.288  -1.564 -0.19 +0.00    +0.000 A 
DOCKED: ATOM     18  C   UNL d   1      39.687  27.028  -1.115 -0.19 +0.00    +0.070 A 
DOCKED: ATOM     19  C   UNL d   1      42.438  29.475  -1.555 -0.31 -0.00    +0.052 C 
DOCKED: ATOM     20  C   UNL d   1      37.695  25.503  -0.856 -0.12 -0.00    +0.066 A 
DOCKED: ATOM     21  C   UNL d   1      37.113  24.249  -1.025 -0.09 +0.00    -0.025 A 
DOCKED: ATOM     22  C   UNL d   1      35.809  24.380  -0.584 -0.12 +0.00    -0.021 A 
DOCKED: ATOM     23  C   UNL d   1      35.655  25.722  -0.175 -0.14 -0.01    +0.066 A 
DOCKED: ATOM     24  C   UNL d   1      37.761  22.991  -1.598 -0.04 -0.00    +0.051 C 
DOCKED: ATOM     25  N   UNL d   1      35.290  28.599   0.486 -0.03 -0.02    -0.248 N 
DOCKED: ATOM     26  N   UNL d   1      37.430  30.364   0.292 -0.14 +0.01    -0.248 N 
DOCKED: ATOM     27  N   UNL d   1      39.141  28.144  -0.645 -0.15 +0.00    -0.248 N 
DOCKED: ATOM     28  N   UNL d   1      36.794  26.406  -0.341 -0.01 +0.01    -0.248 N 
DOCKED: ATOM     29 FE   UNL d   1      37.329  28.354  -0.113 -0.05 +0.00    +0.000 Fe
DOCKED: ENDROOT
DOCKED: BRANCH   6  30
DOCKED: ATOM     30  C   UNL d   1      31.696  27.510   0.876 -0.22 +0.01    +0.052 C 
DOCKED: BRANCH  30  31
DOCKED: ATOM     31  C   UNL d   1      31.264  27.054  -0.517 -0.07 +0.02    +0.115 C 
DOCKED: BRANCH  31  32
DOCKED: ATOM     32  C   UNL d   1      31.921  27.859  -1.618 -0.02 +0.02    +0.139 C 
DOCKED: ATOM     33  O   UNL d   1      31.594  29.024  -1.786 +0.03 -0.15    -0.650 OA
DOCKED: BRANCH  32  34
DOCKED: ATOM     34  O   UNL d   1      32.899  27.344  -2.397 +0.03 -0.03    -0.776 OA
DOCKED: ATOM     35  H   UNL d   1      33.844  27.498  -2.257 +0.02 +0.00    +0.167 HD
DOCKED: ENDBRANCH  32  34
DOCKED: ENDBRANCH  31  32
DOCKED: ENDBRANCH  30  31
DOCKED: ENDBRANCH   6  30
DOCKED: BRANCH  29  36
DOCKED: ATOM     36  C   UNL d   1      36.690  28.782  -2.063 -0.04 +0.00    +0.190 C 
DOCKED: BRANCH  36  37
DOCKED: ATOM     37  O   UNL d   1      35.715  28.457  -3.013 -0.00 -0.01    -0.399 OA
DOCKED: ATOM     38  H   UNL d   1      35.200  27.706  -2.605 +0.02 +0.00    +0.209 HD
DOCKED: ENDBRANCH  36  37
DOCKED: ENDBRANCH  29  36
DOCKED: BRANCH  22  39
DOCKED: ATOM     39  C   UNL d   1      34.755  23.289  -0.617 -0.09 -0.01    +0.052 C 
DOCKED: BRANCH  39  40
DOCKED: ATOM     40  C   UNL d   1      33.883  23.415  -1.877 -0.02 -0.01    +0.115 C 
DOCKED: BRANCH  40  41
DOCKED: ATOM     41  C   UNL d   1      34.517  24.209  -2.999 -0.01 -0.01    +0.139 C 
DOCKED: ATOM     42  O   UNL d   1      34.857  23.632  -4.022 +0.00 +0.03    -0.650 OA
DOCKED: BRANCH  41  43
DOCKED: ATOM     43  O   UNL d   1      34.638  25.554  -2.937 +0.02 +0.03    -0.776 OA
DOCKED: ATOM     44  H   UNL d   1      33.875  26.145  -2.952 +0.01 -0.00    +0.167 HD
DOCKED: ENDBRANCH  41  43
DOCKED: ENDBRANCH  40  41
DOCKED: ENDBRANCH  39  40
DOCKED: ENDBRANCH  22  39
DOCKED: BRANCH  12  45
DOCKED: ATOM     45  C   UNL d   1      39.725  33.297   0.489 -0.42 -0.00    +0.004 C 
DOCKED: ATOM     46  C   UNL d   1      39.794  34.626   0.479 -0.38 -0.00    +0.012 C 
DOCKED: ENDBRANCH  12  45
DOCKED: BRANCH  17  47
DOCKED: ATOM     47  C   UNL d   1      41.864  26.293  -2.239 -0.18 +0.00    +0.004 C 
DOCKED: ATOM     48  C   UNL d   1      42.271  25.159  -1.662 -0.17 +0.00    +0.012 C 
DOCKED: ENDBRANCH  17  47
DOCKED: TORSDOF 12
DOCKED: TER
DOCKED: ENDMDL
________________________________________________________________________________


	BEGINNING GENETIC ALGORITHM DOCKING 31 of 100
Run: 31 Seed: 480106454 614846191 [ Run 31 of 100 GA/GALS ]
Beginning LAMARCKIAN GENETIC ALGORITHM (LGA), with a maximum of 25000000 energy evaluations.

Final-Value: -18.386


	FINAL GENETIC ALGORITHM DOCKED STATE
	_______________________________________________


Detailed state:  trans 40.537 28.654 15.655 quatxyzw -0.374373 0.396220 0.837734 -0.032494 center 8.781 34.984 -0.736 ntor 12 111.4819 128.1174 -80.9606 -91.3924 -71.6914 28.4787 -46.6073 124.6935 50.2808 35.0825 -29.0103 -166.7444
State:	 40.537  28.654  15.655  -0.375  0.396  0.838 -176.276    111.48  128.12  -80.96  -91.39  -71.69   28.48  -46.61  124.69   50.28   35.08  -29.01 -166.74

DOCKED: MODEL       31
DOCKED: USER    Run = 31
DOCKED: USER    DPF = D:/Protein_go_brrr/autodock/final/6BB5/heme_Co/dock.dpf
DOCKED: USER  
DOCKED: USER    Estimated Free Energy of Binding    =  -13.21 kcal/mol  [=(1)+(2)+(3)-(4)]
DOCKED: USER    Estimated Inhibition Constant, Ki   =  206.38 pM (picomolar)  [Temperature = 298.15 K]
DOCKED: USER    
DOCKED: USER    (1) Final Intermolecular Energy     =  -16.79 kcal/mol
DOCKED: USER        vdW + Hbond + desolv Energy     =  -15.47 kcal/mol
DOCKED: USER        Electrostatic Energy            =   -1.33 kcal/mol
DOCKED: USER    (2) Final Total Internal Energy     =   -1.59 kcal/mol
DOCKED: USER    (3) Torsional Free Energy           =   +3.58 kcal/mol
DOCKED: USER    (4) Unbound System's Energy  [=(2)] =   -1.59 kcal/mol
DOCKED: USER    
DOCKED: USER    
DOCKED: USER    NEWDPF move heme_Co_opt.pdbqt
DOCKED: USER    NEWDPF about 8.781000 34.984000 -0.736000
DOCKED: USER    NEWDPF tran0 40.536628 28.654417 15.655028
DOCKED: USER    NEWDPF quaternion0 -0.374373 0.396220 0.837734 -0.032494
DOCKED: USER    NEWDPF axisangle0 -0.374571 0.396430 0.838177 -176.275788
DOCKED: USER    NEWDPF quat0 -0.374571 0.396430 0.838177 -176.275788
DOCKED: USER    NEWDPF dihe0 111.48 128.12 -80.96 -91.39 -71.69 28.48 -46.61 124.69 50.28 35.08 -29.01 -166.74 
DOCKED: USER  keepresnum = 1 
DOCKED: USER  
DOCKED: REMARK  12 active torsions:
DOCKED: REMARK  status: ('A' for Active; 'I' for Inactive)
DOCKED: REMARK    1  A    between atoms: C_6  and  C_10 
DOCKED: REMARK    2  A    between atoms: C_10  and  C_11 
DOCKED: REMARK    3  A    between atoms: C_11  and  C_12 
DOCKED: REMARK    4  A    between atoms: C_12  and  O_14 
DOCKED: REMARK    5  A    between atoms: C_17  and  C_20 
DOCKED: REMARK    6  A    between atoms: C_24  and  C_27 
DOCKED: REMARK    7  A    between atoms: C_31  and  C_34 
DOCKED: REMARK    8  A    between atoms: C_34  and  C_35 
DOCKED: REMARK    9  A    between atoms: C_35  and  C_36 
DOCKED: REMARK   10  A    between atoms: C_36  and  O_38 
DOCKED: REMARK   11  A    between atoms: FE_43  and  C_44 
DOCKED: REMARK   12  A    between atoms: C_44  and  O_45 
DOCKED: USER                              x       y       z     vdW  Elec       q    Type
DOCKED: USER                           _______ _______ _______ _____ _____    ______ ____
DOCKED: ROOT
DOCKED: ATOM      1  C   UNL d   1      42.261  28.197  16.893 -0.02 +0.02    +0.064 A 
DOCKED: ATOM      2  C   UNL d   1      40.045  32.281  15.885 -0.44 +0.01    +0.064 C 
DOCKED: ATOM      3  C   UNL d   1      37.180  30.011  12.808 -0.30 +0.01    +0.064 A 
DOCKED: ATOM      4  C   UNL d   1      39.170  25.767  14.107 -0.42 +0.01    +0.064 A 
DOCKED: ATOM      5  C   UNL d   1      41.890  29.486  16.816 -0.23 +0.01    +0.066 A 
DOCKED: ATOM      6  C   UNL d   1      42.460  30.477  17.638 -0.36 -0.00    -0.021 A 
DOCKED: ATOM      7  C   UNL d   1      41.798  31.656  17.358 -0.44 -0.00    -0.025 A 
DOCKED: ATOM      8  C   UNL d   1      40.864  31.337  16.366 -0.38 +0.01    +0.066 A 
DOCKED: ATOM      9  C   UNL d   1      42.023  33.038  17.991 -0.44 +0.00    +0.051 C 
DOCKED: ATOM     10  C   UNL d   1      39.072  32.053  14.846 -0.37 +0.01    +0.066 A 
DOCKED: ATOM     11  C   UNL d   1      38.282  33.029  14.201 -0.39 -0.00    -0.021 A 
DOCKED: ATOM     12  C   UNL d   1      37.458  32.340  13.306 -0.41 +0.00    +0.000 A 
DOCKED: ATOM     13  C   UNL d   1      37.815  31.000  13.462 -0.36 +0.01    +0.070 A 
DOCKED: ATOM     14  C   UNL d   1      38.391  34.522  14.374 -0.49 +0.00    +0.052 C 
DOCKED: ATOM     15  C   UNL d   1      37.381  28.578  12.889 -0.43 +0.01    +0.066 A 
DOCKED: ATOM     16  C   UNL d   1      36.594  27.601  12.296 -0.55 -0.00    -0.021 A 
DOCKED: ATOM     17  C   UNL d   1      37.162  26.375  12.669 -0.47 +0.00    +0.000 A 
DOCKED: ATOM     18  C   UNL d   1      38.266  26.703  13.450 -0.39 +0.01    +0.070 A 
DOCKED: ATOM     19  C   UNL d   1      35.379  27.859  11.432 -0.38 +0.00    +0.052 C 
DOCKED: ATOM     20  C   UNL d   1      40.197  26.060  14.941 -0.40 +0.01    +0.066 A 
DOCKED: ATOM     21  C   UNL d   1      40.972  25.070  15.541 -0.42 -0.00    -0.025 A 
DOCKED: ATOM     22  C   UNL d   1      41.891  25.742  16.327 -0.37 -0.00    -0.021 A 
DOCKED: ATOM     23  C   UNL d   1      41.620  27.119  16.176 -0.33 +0.01    +0.066 A 
DOCKED: ATOM     24  C   UNL d   1      40.834  23.558  15.389 -0.55 +0.01    +0.051 C 
DOCKED: ATOM     25  N   UNL d   1      40.903  30.001  16.007 +0.04 -0.07    -0.248 N 
DOCKED: ATOM     26  N   UNL d   1      38.829  30.834  14.353 -0.22 -0.04    -0.248 N 
DOCKED: ATOM     27  N   UNL d   1      38.348  28.022  13.584 -0.22 -0.04    -0.248 N 
DOCKED: ATOM     28  N   UNL d   1      40.593  27.315  15.339 -0.21 -0.06    -0.248 N 
DOCKED: ATOM     29 FE   UNL d   1      39.552  28.949  14.725 -0.08 +0.00    +0.000 Fe
DOCKED: ENDROOT
DOCKED: BRANCH   6  30
DOCKED: ATOM     30  C   UNL d   1      43.536  30.272  18.700 -0.35 +0.02    +0.052 C 
DOCKED: BRANCH  30  31
DOCKED: ATOM     31  C   UNL d   1      44.765  29.594  18.095 -0.23 +0.04    +0.115 C 
DOCKED: BRANCH  31  32
DOCKED: ATOM     32  C   UNL d   1      45.244  28.421  18.923 -0.18 +0.07    +0.139 C 
DOCKED: ATOM     33  O   UNL d   1      46.261  27.829  18.595 +0.02 -0.30    -0.650 OA
DOCKED: BRANCH  32  34
DOCKED: ATOM     34  O   UNL d   1      44.606  28.032  20.052 -0.01 -0.71    -0.776 OA
DOCKED: ATOM     35  H   UNL d   1      44.069  27.231  20.124 +0.06 +0.15    +0.167 HD
DOCKED: ENDBRANCH  32  34
DOCKED: ENDBRANCH  31  32
DOCKED: ENDBRANCH  30  31
DOCKED: ENDBRANCH   6  30
DOCKED: BRANCH  29  36
DOCKED: ATOM     36  C   UNL d   1      38.279  28.791  16.383 -0.29 +0.05    +0.190 C 
DOCKED: BRANCH  36  37
DOCKED: ATOM     37  O   UNL d   1      37.566  27.869  17.156 -0.62 -0.10    -0.399 OA
DOCKED: ATOM     38  H   UNL d   1      37.942  26.979  16.905 +0.12 +0.05    +0.209 HD
DOCKED: ENDBRANCH  36  37
DOCKED: ENDBRANCH  29  36
DOCKED: BRANCH  22  39
DOCKED: ATOM     39  C   UNL d   1      42.926  25.089  17.223 -0.34 +0.01    +0.052 C 
DOCKED: BRANCH  39  40
DOCKED: ATOM     40  C   UNL d   1      42.246  24.316  18.365 -0.38 +0.03    +0.115 C 
DOCKED: BRANCH  40  41
DOCKED: ATOM     41  C   UNL d   1      43.063  24.235  19.638 -0.33 +0.05    +0.139 C 
DOCKED: ATOM     42  O   UNL d   1      43.732  23.235  19.856 -0.40 -0.29    -0.650 OA
DOCKED: BRANCH  41  43
DOCKED: ATOM     43  O   UNL d   1      43.141  25.274  20.499 +0.03 -0.42    -0.776 OA
DOCKED: ATOM     44  H   UNL d   1      43.669  26.062  20.315 +0.06 +0.12    +0.167 HD
DOCKED: ENDBRANCH  41  43
DOCKED: ENDBRANCH  40  41
DOCKED: ENDBRANCH  39  40
DOCKED: ENDBRANCH  22  39
DOCKED: BRANCH  12  45
DOCKED: ATOM     45  C   UNL d   1      36.396  32.793  12.314 -0.54 +0.00    +0.004 C 
DOCKED: ATOM     46  C   UNL d   1      35.069  32.799  12.409 -0.69 +0.00    +0.012 C 
DOCKED: ENDBRANCH  12  45
DOCKED: BRANCH  17  47
DOCKED: ATOM     47  C   UNL d   1      36.704  24.984  12.379 -0.65 +0.00    +0.004 C 
DOCKED: ATOM     48  C   UNL d   1      35.921  24.279  13.200 -0.73 +0.00    +0.012 C 
DOCKED: ENDBRANCH  17  47
DOCKED: TORSDOF 12
DOCKED: TER
DOCKED: ENDMDL
________________________________________________________________________________


	BEGINNING GENETIC ALGORITHM DOCKING 32 of 100
Run: 32 Seed: 913920737 51441501 [ Run 32 of 100 GA/GALS ]
Beginning LAMARCKIAN GENETIC ALGORITHM (LGA), with a maximum of 25000000 energy evaluations.

Final-Value: -14.195


	FINAL GENETIC ALGORITHM DOCKED STATE
	_______________________________________________


Detailed state:  trans 45.632 26.283 18.406 quatxyzw 0.261287 -0.364994 -0.889419 0.086265 center 8.781 34.984 -0.736 ntor 12 -96.1829 56.9910 -54.7276 -32.8612 113.5037 159.6617 35.8996 126.5777 165.4191 -128.8987 -171.9903 -4.3772
State:	 45.632  26.283  18.406   0.262 -0.366 -0.893 170.102    -96.18   56.99  -54.73  -32.86  113.50  159.66   35.90  126.58  165.42 -128.90 -171.99   -4.38

DOCKED: MODEL       32
DOCKED: USER    Run = 32
DOCKED: USER    DPF = D:/Protein_go_brrr/autodock/final/6BB5/heme_Co/dock.dpf
DOCKED: USER  
DOCKED: USER    Estimated Free Energy of Binding    =   -8.47 kcal/mol  [=(1)+(2)+(3)-(4)]
DOCKED: USER    Estimated Inhibition Constant, Ki   =  618.86 nM (nanomolar)  [Temperature = 298.15 K]
DOCKED: USER    
DOCKED: USER    (1) Final Intermolecular Energy     =  -12.05 kcal/mol
DOCKED: USER        vdW + Hbond + desolv Energy     =   -8.54 kcal/mol
DOCKED: USER        Electrostatic Energy            =   -3.51 kcal/mol
DOCKED: USER    (2) Final Total Internal Energy     =   -2.15 kcal/mol
DOCKED: USER    (3) Torsional Free Energy           =   +3.58 kcal/mol
DOCKED: USER    (4) Unbound System's Energy  [=(2)] =   -2.15 kcal/mol
DOCKED: USER    
DOCKED: USER    
DOCKED: USER    NEWDPF move heme_Co_opt.pdbqt
DOCKED: USER    NEWDPF about 8.781000 34.984000 -0.736000
DOCKED: USER    NEWDPF tran0 45.632145 26.283409 18.405748
DOCKED: USER    NEWDPF quaternion0 0.261287 -0.364994 -0.889419 0.086265
DOCKED: USER    NEWDPF axisangle0 0.262265 -0.366360 -0.892747 170.102411
DOCKED: USER    NEWDPF quat0 0.262265 -0.366360 -0.892747 170.102411
DOCKED: USER    NEWDPF dihe0 -96.18 56.99 -54.73 -32.86 113.50 159.66 35.90 126.58 165.42 -128.90 -171.99 -4.38 
DOCKED: USER  keepresnum = 1 
DOCKED: USER  
DOCKED: REMARK  12 active torsions:
DOCKED: REMARK  status: ('A' for Active; 'I' for Inactive)
DOCKED: REMARK    1  A    between atoms: C_6  and  C_10 
DOCKED: REMARK    2  A    between atoms: C_10  and  C_11 
DOCKED: REMARK    3  A    between atoms: C_11  and  C_12 
DOCKED: REMARK    4  A    between atoms: C_12  and  O_14 
DOCKED: REMARK    5  A    between atoms: C_17  and  C_20 
DOCKED: REMARK    6  A    between atoms: C_24  and  C_27 
DOCKED: REMARK    7  A    between atoms: C_31  and  C_34 
DOCKED: REMARK    8  A    between atoms: C_34  and  C_35 
DOCKED: REMARK    9  A    between atoms: C_35  and  C_36 
DOCKED: REMARK   10  A    between atoms: C_36  and  O_38 
DOCKED: REMARK   11  A    between atoms: FE_43  and  C_44 
DOCKED: REMARK   12  A    between atoms: C_44  and  O_45 
DOCKED: USER                              x       y       z     vdW  Elec       q    Type
DOCKED: USER                           _______ _______ _______ _____ _____    ______ ____
DOCKED: ROOT
DOCKED: ATOM      1  C   UNL d   1      47.444  25.407  19.221 -0.04 +0.03    +0.064 A 
DOCKED: ATOM      2  C   UNL d   1      45.790  29.865  19.179 -0.19 +0.03    +0.064 C 
DOCKED: ATOM      3  C   UNL d   1      42.108  28.513  16.452 -0.24 +0.01    +0.064 A 
DOCKED: ATOM      4  C   UNL d   1      43.565  23.885  16.800 -0.19 +0.02    +0.064 A 
DOCKED: ATOM      5  C   UNL d   1      47.282  26.731  19.380 -0.06 +0.04    +0.066 A 
DOCKED: ATOM      6  C   UNL d   1      48.140  27.496  20.194 -0.04 -0.01    -0.021 A 
DOCKED: ATOM      7  C   UNL d   1      47.642  28.784  20.197 -0.08 -0.01    -0.025 A 
DOCKED: ATOM      8  C   UNL d   1      46.513  28.754  19.371 -0.12 +0.04    +0.066 A 
DOCKED: ATOM      9  C   UNL d   1      48.197  30.007  20.943 -0.08 +0.03    +0.051 C 
DOCKED: ATOM     10  C   UNL d   1      44.629  29.936  18.327 -0.22 +0.02    +0.066 A 
DOCKED: ATOM     11  C   UNL d   1      43.912  31.099  17.974 -0.29 -0.01    -0.021 A 
DOCKED: ATOM     12  C   UNL d   1      42.846  30.677  17.175 -0.35 +0.00    +0.000 A 
DOCKED: ATOM     13  C   UNL d   1      42.999  29.292  17.090 -0.28 +0.02    +0.070 A 
DOCKED: ATOM     14  C   UNL d   1      44.293  32.518  18.308 -0.30 +0.01    +0.052 C 
DOCKED: ATOM     15  C   UNL d   1      42.081  27.071  16.311 -0.33 +0.01    +0.066 A 
DOCKED: ATOM     16  C   UNL d   1      41.054  26.315  15.763 -0.41 -0.00    -0.021 A 
DOCKED: ATOM     17  C   UNL d   1      41.469  24.980  15.864 -0.42 +0.00    +0.000 A 
DOCKED: ATOM     18  C   UNL d   1      42.728  25.027  16.452 -0.27 +0.02    +0.070 A 
DOCKED: ATOM     19  C   UNL d   1      39.769  26.869  15.189 -0.44 +0.01    +0.052 C 
DOCKED: ATOM     20  C   UNL d   1      44.753  23.902  17.450 -0.18 +0.03    +0.066 A 
DOCKED: ATOM     21  C   UNL d   1      45.447  22.734  17.761 -0.18 -0.01    -0.025 A 
DOCKED: ATOM     22  C   UNL d   1      46.584  23.143  18.434 -0.11 -0.01    -0.021 A 
DOCKED: ATOM     23  C   UNL d   1      46.521  24.551  18.511 -0.08 +0.03    +0.066 A 
DOCKED: ATOM     24  C   UNL d   1      45.037  21.297  17.450 -0.18 +0.02    +0.051 C 
DOCKED: ATOM     25  N   UNL d   1      46.270  27.496  18.847 -0.06 -0.13    -0.248 N 
DOCKED: ATOM     26  N   UNL d   1      44.109  28.853  17.741 -0.15 -0.08    -0.248 N 
DOCKED: ATOM     27  N   UNL d   1      43.048  26.286  16.733 -0.18 -0.06    -0.248 N 
DOCKED: ATOM     28  N   UNL d   1      45.413  25.014  17.919 -0.08 -0.11    -0.248 N 
DOCKED: ATOM     29 FE   UNL d   1      44.565  26.851  17.727 -0.05 +0.00    +0.000 Fe
DOCKED: ENDROOT
DOCKED: BRANCH   6  30
DOCKED: ATOM     30  C   UNL d   1      49.332  26.982  20.994 -0.01 +0.02    +0.052 C 
DOCKED: BRANCH  30  31
DOCKED: ATOM     31  C   UNL d   1      48.887  26.511  22.378 -0.02 +0.07    +0.115 C 
DOCKED: BRANCH  31  32
DOCKED: ATOM     32  C   UNL d   1      47.513  27.024  22.749 +0.07 +0.19    +0.139 C 
DOCKED: ATOM     33  O   UNL d   1      47.411  28.059  23.392 -0.00 -1.15    -0.650 OA
DOCKED: BRANCH  32  34
DOCKED: ATOM     34  O   UNL d   1      46.381  26.399  22.350 -0.03 -1.38    -0.776 OA
DOCKED: ATOM     35  H   UNL d   1      45.836  26.685  21.604 +0.03 +0.30    +0.167 HD
DOCKED: ENDBRANCH  32  34
DOCKED: ENDBRANCH  31  32
DOCKED: ENDBRANCH  30  31
DOCKED: ENDBRANCH   6  30
DOCKED: BRANCH  29  36
DOCKED: ATOM     36  C   UNL d   1      43.586  26.618  19.566 -0.07 +0.11    +0.190 C 
DOCKED: BRANCH  36  37
DOCKED: ATOM     37  O   UNL d   1      43.735  26.821  20.941 -0.40 -0.49    -0.399 OA
DOCKED: ATOM     38  H   UNL d   1      44.567  26.326  21.185 +0.06 +0.27    +0.209 HD
DOCKED: ENDBRANCH  36  37
DOCKED: ENDBRANCH  29  36
DOCKED: BRANCH  22  39
DOCKED: ATOM     39  C   UNL d   1      47.636  22.223  19.024 -0.08 +0.03    +0.052 C 
DOCKED: BRANCH  39  40
DOCKED: ATOM     40  C   UNL d   1      48.823  22.068  18.060 -0.05 +0.14    +0.115 C 
DOCKED: BRANCH  40  41
DOCKED: ATOM     41  C   UNL d   1      49.313  23.368  17.457 +0.05 +0.19    +0.139 C 
DOCKED: ATOM     42  O   UNL d   1      48.901  23.709  16.357 -0.36 -1.26    -0.650 OA
DOCKED: BRANCH  41  43
DOCKED: ATOM     43  O   UNL d   1      50.126  24.205  18.138 -0.01 -0.56    -0.776 OA
DOCKED: ATOM     44  H   UNL d   1      49.948  24.476  19.048 +0.02 +0.09    +0.167 HD
DOCKED: ENDBRANCH  41  43
DOCKED: ENDBRANCH  40  41
DOCKED: ENDBRANCH  39  40
DOCKED: ENDBRANCH  22  39
DOCKED: BRANCH  12  45
DOCKED: ATOM     45  C   UNL d   1      41.718  31.419  16.470 -0.44 +0.00    +0.004 C 
DOCKED: ATOM     46  C   UNL d   1      40.962  32.434  16.879 -0.53 +0.00    +0.012 C 
DOCKED: ENDBRANCH  12  45
DOCKED: BRANCH  17  47
DOCKED: ATOM     47  C   UNL d   1      40.746  23.726  15.495 -0.56 +0.00    +0.004 C 
DOCKED: ATOM     48  C   UNL d   1      40.848  23.141  14.299 -0.57 +0.00    +0.012 C 
DOCKED: ENDBRANCH  17  47
DOCKED: TORSDOF 12
DOCKED: TER
DOCKED: ENDMDL
________________________________________________________________________________


	BEGINNING GENETIC ALGORITHM DOCKING 33 of 100
Run: 33 Seed: 1291709996 1512553688 [ Run 33 of 100 GA/GALS ]
Beginning LAMARCKIAN GENETIC ALGORITHM (LGA), with a maximum of 25000000 energy evaluations.

Final-Value: -14.411


	FINAL GENETIC ALGORITHM DOCKED STATE
	_______________________________________________


Detailed state:  trans 45.773 27.073 18.240 quatxyzw 0.252892 -0.371830 -0.892991 0.018836 center 8.781 34.984 -0.736 ntor 12 -98.9100 68.7587 104.8583 6.1629 98.9124 145.8828 26.6480 -8.9615 -178.3158 173.3952 180.0000 11.3506
State:	 45.773  27.073  18.240   0.253 -0.372 -0.893 177.841    -98.91   68.76  104.86    6.16   98.91  145.88   26.65   -8.96 -178.32  173.40  180.00   11.35

DOCKED: MODEL       33
DOCKED: USER    Run = 33
DOCKED: USER    DPF = D:/Protein_go_brrr/autodock/final/6BB5/heme_Co/dock.dpf
DOCKED: USER  
DOCKED: USER    Estimated Free Energy of Binding    =   -8.81 kcal/mol  [=(1)+(2)+(3)-(4)]
DOCKED: USER    Estimated Inhibition Constant, Ki   =  348.80 nM (nanomolar)  [Temperature = 298.15 K]
DOCKED: USER    
DOCKED: USER    (1) Final Intermolecular Energy     =  -12.39 kcal/mol
DOCKED: USER        vdW + Hbond + desolv Energy     =   -8.94 kcal/mol
DOCKED: USER        Electrostatic Energy            =   -3.45 kcal/mol
DOCKED: USER    (2) Final Total Internal Energy     =   -2.02 kcal/mol
DOCKED: USER    (3) Torsional Free Energy           =   +3.58 kcal/mol
DOCKED: USER    (4) Unbound System's Energy  [=(2)] =   -2.02 kcal/mol
DOCKED: USER    
DOCKED: USER    
DOCKED: USER    NEWDPF move heme_Co_opt.pdbqt
DOCKED: USER    NEWDPF about 8.781000 34.984000 -0.736000
DOCKED: USER    NEWDPF tran0 45.772914 27.073067 18.240060
DOCKED: USER    NEWDPF quaternion0 0.252892 -0.371830 -0.892991 0.018836
DOCKED: USER    NEWDPF axisangle0 0.252937 -0.371896 -0.893150 177.841425
DOCKED: USER    NEWDPF quat0 0.252937 -0.371896 -0.893150 177.841425
DOCKED: USER    NEWDPF dihe0 -98.91 68.76 104.86 6.16 98.91 145.88 26.65 -8.96 -178.32 173.40 180.00 11.35 
DOCKED: USER  keepresnum = 1 
DOCKED: USER  
DOCKED: REMARK  12 active torsions:
DOCKED: REMARK  status: ('A' for Active; 'I' for Inactive)
DOCKED: REMARK    1  A    between atoms: C_6  and  C_10 
DOCKED: REMARK    2  A    between atoms: C_10  and  C_11 
DOCKED: REMARK    3  A    between atoms: C_11  and  C_12 
DOCKED: REMARK    4  A    between atoms: C_12  and  O_14 
DOCKED: REMARK    5  A    between atoms: C_17  and  C_20 
DOCKED: REMARK    6  A    between atoms: C_24  and  C_27 
DOCKED: REMARK    7  A    between atoms: C_31  and  C_34 
DOCKED: REMARK    8  A    between atoms: C_34  and  C_35 
DOCKED: REMARK    9  A    between atoms: C_35  and  C_36 
DOCKED: REMARK   10  A    between atoms: C_36  and  O_38 
DOCKED: REMARK   11  A    between atoms: FE_43  and  C_44 
DOCKED: REMARK   12  A    between atoms: C_44  and  O_45 
DOCKED: USER                              x       y       z     vdW  Elec       q    Type
DOCKED: USER                           _______ _______ _______ _____ _____    ______ ____
DOCKED: ROOT
DOCKED: ATOM      1  C   UNL d   1      47.720  26.439  18.962 -0.06 +0.03    +0.064 A 
DOCKED: ATOM      2  C   UNL d   1      45.578  30.683  18.859 -0.21 +0.02    +0.064 C 
DOCKED: ATOM      3  C   UNL d   1      41.902  28.811  16.449 -0.22 +0.01    +0.064 A 
DOCKED: ATOM      4  C   UNL d   1      43.888  24.391  16.878 -0.21 +0.02    +0.064 A 
DOCKED: ATOM      5  C   UNL d   1      47.422  27.743  19.079 -0.07 +0.03    +0.066 A 
DOCKED: ATOM      6  C   UNL d   1      48.239  28.635  19.801 -0.05 -0.01    -0.021 A 
DOCKED: ATOM      7  C   UNL d   1      47.601  29.860  19.787 -0.09 -0.01    -0.025 A 
DOCKED: ATOM      8  C   UNL d   1      46.432  29.667  19.044 -0.13 +0.03    +0.066 A 
DOCKED: ATOM      9  C   UNL d   1      48.063  31.170  20.444 -0.07 +0.02    +0.051 C 
DOCKED: ATOM     10  C   UNL d   1      44.364  30.586  18.087 -0.24 +0.02    +0.066 A 
DOCKED: ATOM     11  C   UNL d   1      43.500  31.647  17.739 -0.27 -0.00    -0.021 A 
DOCKED: ATOM     12  C   UNL d   1      42.438  31.073  17.033 -0.38 +0.00    +0.000 A 
DOCKED: ATOM     13  C   UNL d   1      42.739  29.712  16.993 -0.30 +0.02    +0.070 A 
DOCKED: ATOM     14  C   UNL d   1      43.740  33.113  17.990 -0.35 +0.01    +0.052 C 
DOCKED: ATOM     15  C   UNL d   1      42.028  27.369  16.368 -0.31 +0.01    +0.066 A 
DOCKED: ATOM     16  C   UNL d   1      41.059  26.481  15.923 -0.40 -0.00    -0.021 A 
DOCKED: ATOM     17  C   UNL d   1      41.626  25.205  16.047 -0.39 +0.00    +0.000 A 
DOCKED: ATOM     18  C   UNL d   1      42.908  25.417  16.544 -0.26 +0.02    +0.070 A 
DOCKED: ATOM     19  C   UNL d   1      39.686  26.863  15.418 -0.43 +0.01    +0.052 C 
DOCKED: ATOM     20  C   UNL d   1      45.106  24.567  17.443 -0.17 +0.03    +0.066 A 
DOCKED: ATOM     21  C   UNL d   1      45.945  23.498  17.750 -0.15 -0.01    -0.025 A 
DOCKED: ATOM     22  C   UNL d   1      47.070  24.060  18.326 -0.10 -0.01    -0.021 A 
DOCKED: ATOM     23  C   UNL d   1      46.855  25.455  18.352 -0.09 +0.03    +0.066 A 
DOCKED: ATOM     24  C   UNL d   1      45.680  22.012  17.526 -0.20 +0.03    +0.051 C 
DOCKED: ATOM     25  N   UNL d   1      46.298  28.367  18.588 -0.07 -0.11    -0.248 N 
DOCKED: ATOM     26  N   UNL d   1      43.931  29.427  17.581 -0.16 -0.07    -0.248 N 
DOCKED: ATOM     27  N   UNL d   1      43.102  26.715  16.752 -0.19 -0.06    -0.248 N 
DOCKED: ATOM     28  N   UNL d   1      45.666  25.766  17.821 -0.09 -0.11    -0.248 N 
DOCKED: ATOM     29 FE   UNL d   1      44.607  27.489  17.615 -0.05 +0.00    +0.000 Fe
DOCKED: ENDROOT
DOCKED: BRANCH   6  30
DOCKED: ATOM     30  C   UNL d   1      49.531  28.293  20.536 -0.02 +0.02    +0.052 C 
DOCKED: BRANCH  30  31
DOCKED: ATOM     31  C   UNL d   1      49.254  28.033  22.016 -0.03 +0.06    +0.115 C 
DOCKED: BRANCH  31  32
DOCKED: ATOM     32  C   UNL d   1      47.789  28.185  22.365 +0.02 +0.16    +0.139 C 
DOCKED: ATOM     33  O   UNL d   1      47.409  29.197  22.935 -0.16 -0.90    -0.650 OA
DOCKED: BRANCH  32  34
DOCKED: ATOM     34  O   UNL d   1      46.869  27.254  22.021 -0.35 -1.34    -0.776 OA
DOCKED: ATOM     35  H   UNL d   1      46.248  27.348  21.286 +0.02 +0.26    +0.167 HD
DOCKED: ENDBRANCH  32  34
DOCKED: ENDBRANCH  31  32
DOCKED: ENDBRANCH  30  31
DOCKED: ENDBRANCH   6  30
DOCKED: BRANCH  29  36
DOCKED: ATOM     36  C   UNL d   1      43.781  27.236  19.525 +0.06 +0.12    +0.190 C 
DOCKED: BRANCH  36  37
DOCKED: ATOM     37  O   UNL d   1      44.077  27.333  20.889 -0.37 -0.56    -0.399 OA
DOCKED: ATOM     38  H   UNL d   1      44.974  26.907  20.988 +0.06 +0.30    +0.209 HD
DOCKED: ENDBRANCH  36  37
DOCKED: ENDBRANCH  29  36
DOCKED: BRANCH  22  39
DOCKED: ATOM     39  C   UNL d   1      48.254  23.289  18.878 -0.07 +0.03    +0.052 C 
DOCKED: BRANCH  39  40
DOCKED: ATOM     40  C   UNL d   1      49.511  23.543  18.028 -0.10 +0.11    +0.115 C 
DOCKED: BRANCH  40  41
DOCKED: ATOM     41  C   UNL d   1      49.243  24.235  16.708 -0.06 +0.17    +0.139 C 
DOCKED: ATOM     42  O   UNL d   1      49.894  25.227  16.410 -0.07 -0.52    -0.650 OA
DOCKED: BRANCH  41  43
DOCKED: ATOM     43  O   UNL d   1      48.364  23.738  15.810 -0.02 -1.49    -0.776 OA
DOCKED: ATOM     44  H   UNL d   1      47.526  24.173  15.608 +0.03 +0.18    +0.167 HD
DOCKED: ENDBRANCH  41  43
DOCKED: ENDBRANCH  40  41
DOCKED: ENDBRANCH  39  40
DOCKED: ENDBRANCH  22  39
DOCKED: BRANCH  12  45
DOCKED: ATOM     45  C   UNL d   1      41.191  31.654  16.380 -0.48 +0.00    +0.004 C 
DOCKED: ATOM     46  C   UNL d   1      40.739  32.904  16.337 -0.54 +0.00    +0.012 C 
DOCKED: ENDBRANCH  12  45
DOCKED: BRANCH  17  47
DOCKED: ATOM     47  C   UNL d   1      41.026  23.864  15.779 -0.54 +0.00    +0.004 C 
DOCKED: ATOM     48  C   UNL d   1      40.865  23.360  14.553 -0.59 +0.00    +0.012 C 
DOCKED: ENDBRANCH  17  47
DOCKED: TORSDOF 12
DOCKED: TER
DOCKED: ENDMDL
________________________________________________________________________________


	BEGINNING GENETIC ALGORITHM DOCKING 34 of 100
Run: 34 Seed: 180592203 1475195592 [ Run 34 of 100 GA/GALS ]
Beginning LAMARCKIAN GENETIC ALGORITHM (LGA), with a maximum of 25000000 energy evaluations.

Final-Value: -17.803


	FINAL GENETIC ALGORITHM DOCKED STATE
	_______________________________________________


Detailed state:  trans 40.674 28.626 15.660 quatxyzw -0.375124 0.396090 0.837485 -0.031835 center 8.781 34.984 -0.736 ntor 12 -115.0895 130.0250 113.1737 -92.5420 -62.0762 16.6188 43.2183 -47.2942 50.6730 25.9413 -23.7570 -179.2991
State:	 40.674  28.626  15.660  -0.375  0.396  0.838 -176.351   -115.09  130.02  113.17  -92.54  -62.08   16.62   43.22  -47.29   50.67   25.94  -23.76 -179.30

DOCKED: MODEL       34
DOCKED: USER    Run = 34
DOCKED: USER    DPF = D:/Protein_go_brrr/autodock/final/6BB5/heme_Co/dock.dpf
DOCKED: USER  
DOCKED: USER    Estimated Free Energy of Binding    =  -13.09 kcal/mol  [=(1)+(2)+(3)-(4)]
DOCKED: USER    Estimated Inhibition Constant, Ki   =  255.64 pM (picomolar)  [Temperature = 298.15 K]
DOCKED: USER    
DOCKED: USER    (1) Final Intermolecular Energy     =  -16.67 kcal/mol
DOCKED: USER        vdW + Hbond + desolv Energy     =  -15.42 kcal/mol
DOCKED: USER        Electrostatic Energy            =   -1.25 kcal/mol
DOCKED: USER    (2) Final Total Internal Energy     =   -1.14 kcal/mol
DOCKED: USER    (3) Torsional Free Energy           =   +3.58 kcal/mol
DOCKED: USER    (4) Unbound System's Energy  [=(2)] =   -1.14 kcal/mol
DOCKED: USER    
DOCKED: USER    
DOCKED: USER    NEWDPF move heme_Co_opt.pdbqt
DOCKED: USER    NEWDPF about 8.781000 34.984000 -0.736000
DOCKED: USER    NEWDPF tran0 40.673918 28.626301 15.659927
DOCKED: USER    NEWDPF quaternion0 -0.375124 0.396090 0.837485 -0.031835
DOCKED: USER    NEWDPF axisangle0 -0.375314 0.396290 0.837910 -176.351360
DOCKED: USER    NEWDPF quat0 -0.375314 0.396290 0.837910 -176.351360
DOCKED: USER    NEWDPF dihe0 -115.09 130.02 113.17 -92.54 -62.08 16.62 43.22 -47.29 50.67 25.94 -23.76 -179.30 
DOCKED: USER  keepresnum = 1 
DOCKED: USER  
DOCKED: REMARK  12 active torsions:
DOCKED: REMARK  status: ('A' for Active; 'I' for Inactive)
DOCKED: REMARK    1  A    between atoms: C_6  and  C_10 
DOCKED: REMARK    2  A    between atoms: C_10  and  C_11 
DOCKED: REMARK    3  A    between atoms: C_11  and  C_12 
DOCKED: REMARK    4  A    between atoms: C_12  and  O_14 
DOCKED: REMARK    5  A    between atoms: C_17  and  C_20 
DOCKED: REMARK    6  A    between atoms: C_24  and  C_27 
DOCKED: REMARK    7  A    between atoms: C_31  and  C_34 
DOCKED: REMARK    8  A    between atoms: C_34  and  C_35 
DOCKED: REMARK    9  A    between atoms: C_35  and  C_36 
DOCKED: REMARK   10  A    between atoms: C_36  and  O_38 
DOCKED: REMARK   11  A    between atoms: FE_43  and  C_44 
DOCKED: REMARK   12  A    between atoms: C_44  and  O_45 
DOCKED: USER                              x       y       z     vdW  Elec       q    Type
DOCKED: USER                           _______ _______ _______ _____ _____    ______ ____
DOCKED: ROOT
DOCKED: ATOM      1  C   UNL d   1      42.398  28.172  16.900 -0.11 +0.02    +0.064 A 
DOCKED: ATOM      2  C   UNL d   1      40.176  32.253  15.887 -0.44 +0.01    +0.064 C 
DOCKED: ATOM      3  C   UNL d   1      37.317  29.976  12.809 -0.29 +0.01    +0.064 A 
DOCKED: ATOM      4  C   UNL d   1      39.314  25.735  14.112 -0.42 +0.01    +0.064 A 
DOCKED: ATOM      5  C   UNL d   1      42.025  29.461  16.822 -0.24 +0.01    +0.066 A 
DOCKED: ATOM      6  C   UNL d   1      42.593  30.454  17.644 -0.35 -0.00    -0.021 A 
DOCKED: ATOM      7  C   UNL d   1      41.928  31.631  17.362 -0.44 -0.00    -0.025 A 
DOCKED: ATOM      8  C   UNL d   1      40.996  31.310  16.370 -0.37 +0.01    +0.066 A 
DOCKED: ATOM      9  C   UNL d   1      42.151  33.014  17.995 -0.46 +0.00    +0.051 C 
DOCKED: ATOM     10  C   UNL d   1      39.204  32.022  14.848 -0.37 +0.01    +0.066 A 
DOCKED: ATOM     11  C   UNL d   1      38.412  32.996  14.201 -0.39 -0.00    -0.021 A 
DOCKED: ATOM     12  C   UNL d   1      37.591  32.305  13.306 -0.41 +0.00    +0.000 A 
DOCKED: ATOM     13  C   UNL d   1      37.950  30.966  13.463 -0.37 +0.01    +0.070 A 
DOCKED: ATOM     14  C   UNL d   1      38.519  34.490  14.374 -0.49 +0.00    +0.052 C 
DOCKED: ATOM     15  C   UNL d   1      37.521  28.543  12.891 -0.43 +0.01    +0.066 A 
DOCKED: ATOM     16  C   UNL d   1      36.736  27.565  12.297 -0.54 -0.00    -0.021 A 
DOCKED: ATOM     17  C   UNL d   1      37.306  26.340  12.672 -0.47 +0.00    +0.000 A 
DOCKED: ATOM     18  C   UNL d   1      38.409  26.669  13.454 -0.38 +0.01    +0.070 A 
DOCKED: ATOM     19  C   UNL d   1      35.522  27.820  11.433 -0.45 +0.01    +0.052 C 
DOCKED: ATOM     20  C   UNL d   1      40.339  26.031  14.947 -0.40 +0.01    +0.066 A 
DOCKED: ATOM     21  C   UNL d   1      41.116  25.043  15.548 -0.41 -0.00    -0.025 A 
DOCKED: ATOM     22  C   UNL d   1      42.033  25.717  16.335 -0.36 -0.00    -0.021 A 
DOCKED: ATOM     23  C   UNL d   1      41.759  27.093  16.182 -0.33 +0.01    +0.066 A 
DOCKED: ATOM     24  C   UNL d   1      40.980  23.530  15.397 -0.55 +0.01    +0.051 C 
DOCKED: ATOM     25  N   UNL d   1      41.038  29.973  16.012 +0.09 -0.07    -0.248 N 
DOCKED: ATOM     26  N   UNL d   1      38.963  30.802  14.355 -0.20 -0.04    -0.248 N 
DOCKED: ATOM     27  N   UNL d   1      38.488  27.989  13.588 -0.21 -0.04    -0.248 N 
DOCKED: ATOM     28  N   UNL d   1      40.733  27.287  15.345 -0.20 -0.06    -0.248 N 
DOCKED: ATOM     29 FE   UNL d   1      39.689  28.919  14.728 -0.08 +0.00    +0.000 Fe
DOCKED: ENDROOT
DOCKED: BRANCH   6  30
DOCKED: ATOM     30  C   UNL d   1      43.667  30.250  18.706 -0.35 +0.02    +0.052 C 
DOCKED: BRANCH  30  31
DOCKED: ATOM     31  C   UNL d   1      44.945  29.694  18.078 -0.22 +0.04    +0.115 C 
DOCKED: BRANCH  31  32
DOCKED: ATOM     32  C   UNL d   1      45.486  28.498  18.832 -0.17 +0.07    +0.139 C 
DOCKED: ATOM     33  O   UNL d   1      46.230  28.675  19.785 -0.02 -0.45    -0.650 OA
DOCKED: BRANCH  32  34
DOCKED: ATOM     34  O   UNL d   1      45.133  27.231  18.516 +0.08 -0.36    -0.776 OA
DOCKED: ATOM     35  H   UNL d   1      44.683  26.625  19.120 +0.06 +0.09    +0.167 HD
DOCKED: ENDBRANCH  32  34
DOCKED: ENDBRANCH  31  32
DOCKED: ENDBRANCH  30  31
DOCKED: ENDBRANCH   6  30
DOCKED: BRANCH  29  36
DOCKED: ATOM     36  C   UNL d   1      38.415  28.759  16.385 -0.26 +0.05    +0.190 C 
DOCKED: BRANCH  36  37
DOCKED: ATOM     37  O   UNL d   1      37.566  27.873  17.056 -0.65 -0.09    -0.399 OA
DOCKED: ATOM     38  H   UNL d   1      37.814  26.970  16.712 +0.12 +0.05    +0.209 HD
DOCKED: ENDBRANCH  36  37
DOCKED: ENDBRANCH  29  36
DOCKED: BRANCH  22  39
DOCKED: ATOM     39  C   UNL d   1      43.069  25.066  17.232 -0.33 +0.01    +0.052 C 
DOCKED: BRANCH  39  40
DOCKED: ATOM     40  C   UNL d   1      42.421  24.562  18.532 -0.38 +0.03    +0.115 C 
DOCKED: BRANCH  40  41
DOCKED: ATOM     41  C   UNL d   1      43.394  24.349  19.673 -0.30 +0.06    +0.139 C 
DOCKED: ATOM     42  O   UNL d   1      43.618  25.267  20.448 -0.03 -0.39    -0.650 OA
DOCKED: BRANCH  41  43
DOCKED: ATOM     43  O   UNL d   1      43.956  23.143  19.910 -0.41 -0.36    -0.776 OA
DOCKED: ATOM     44  H   UNL d   1      44.912  23.002  19.885 +0.05 +0.08    +0.167 HD
DOCKED: ENDBRANCH  41  43
DOCKED: ENDBRANCH  40  41
DOCKED: ENDBRANCH  39  40
DOCKED: ENDBRANCH  22  39
DOCKED: BRANCH  12  45
DOCKED: ATOM     45  C   UNL d   1      36.529  32.755  12.313 -0.50 +0.00    +0.004 C 
DOCKED: ATOM     46  C   UNL d   1      35.201  32.741  12.398 -0.68 +0.00    +0.012 C 
DOCKED: ENDBRANCH  12  45
DOCKED: BRANCH  17  47
DOCKED: ATOM     47  C   UNL d   1      36.851  24.947  12.383 -0.64 +0.00    +0.004 C 
DOCKED: ATOM     48  C   UNL d   1      35.926  24.309  13.103 -0.73 +0.00    +0.012 C 
DOCKED: ENDBRANCH  17  47
DOCKED: TORSDOF 12
DOCKED: TER
DOCKED: ENDMDL
________________________________________________________________________________


	BEGINNING GENETIC ALGORITHM DOCKING 35 of 100
Run: 35 Seed: 2091617534 1403298450 [ Run 35 of 100 GA/GALS ]
Beginning LAMARCKIAN GENETIC ALGORITHM (LGA), with a maximum of 25000000 energy evaluations.

Final-Value: -10.066


	FINAL GENETIC ALGORITHM DOCKED STATE
	_______________________________________________


Detailed state:  trans 2.461 33.364 -0.337 quatxyzw 0.193968 -0.700959 -0.457478 -0.511612 center 8.781 34.984 -0.736 ntor 12 -118.3957 41.6536 158.7915 118.6239 109.9720 176.9747 26.6954 21.0655 165.6594 -13.5598 -164.7089 -62.9154
State:	  2.461  33.364  -0.337   0.226 -0.816 -0.532 -118.458   -118.40   41.65  158.79  118.62  109.97  176.97   26.70   21.07  165.66  -13.56 -164.71  -62.92

DOCKED: MODEL       35
DOCKED: USER    Run = 35
DOCKED: USER    DPF = D:/Protein_go_brrr/autodock/final/6BB5/heme_Co/dock.dpf
DOCKED: USER  
DOCKED: USER    Estimated Free Energy of Binding    =   -4.75 kcal/mol  [=(1)+(2)+(3)-(4)]
DOCKED: USER    Estimated Inhibition Constant, Ki   =  329.35 uM (micromolar)  [Temperature = 298.15 K]
DOCKED: USER    
DOCKED: USER    (1) Final Intermolecular Energy     =   -8.33 kcal/mol
DOCKED: USER        vdW + Hbond + desolv Energy     =   -6.59 kcal/mol
DOCKED: USER        Electrostatic Energy            =   -1.74 kcal/mol
DOCKED: USER    (2) Final Total Internal Energy     =   -1.74 kcal/mol
DOCKED: USER    (3) Torsional Free Energy           =   +3.58 kcal/mol
DOCKED: USER    (4) Unbound System's Energy  [=(2)] =   -1.74 kcal/mol
DOCKED: USER    
DOCKED: USER    
DOCKED: USER    NEWDPF move heme_Co_opt.pdbqt
DOCKED: USER    NEWDPF about 8.781000 34.984000 -0.736000
DOCKED: USER    NEWDPF tran0 2.460723 33.363804 -0.336924
DOCKED: USER    NEWDPF quaternion0 0.193968 -0.700959 -0.457478 -0.511612
DOCKED: USER    NEWDPF axisangle0 0.225750 -0.815812 -0.532436 -118.457530
DOCKED: USER    NEWDPF quat0 0.225750 -0.815812 -0.532436 -118.457530
DOCKED: USER    NEWDPF dihe0 -118.40 41.65 158.79 118.62 109.97 176.97 26.70 21.07 165.66 -13.56 -164.71 -62.92 
DOCKED: USER  keepresnum = 1 
DOCKED: USER  
DOCKED: REMARK  12 active torsions:
DOCKED: REMARK  status: ('A' for Active; 'I' for Inactive)
DOCKED: REMARK    1  A    between atoms: C_6  and  C_10 
DOCKED: REMARK    2  A    between atoms: C_10  and  C_11 
DOCKED: REMARK    3  A    between atoms: C_11  and  C_12 
DOCKED: REMARK    4  A    between atoms: C_12  and  O_14 
DOCKED: REMARK    5  A    between atoms: C_17  and  C_20 
DOCKED: REMARK    6  A    between atoms: C_24  and  C_27 
DOCKED: REMARK    7  A    between atoms: C_31  and  C_34 
DOCKED: REMARK    8  A    between atoms: C_34  and  C_35 
DOCKED: REMARK    9  A    between atoms: C_35  and  C_36 
DOCKED: REMARK   10  A    between atoms: C_36  and  O_38 
DOCKED: REMARK   11  A    between atoms: FE_43  and  C_44 
DOCKED: REMARK   12  A    between atoms: C_44  and  O_45 
DOCKED: USER                              x       y       z     vdW  Elec       q    Type
DOCKED: USER                           _______ _______ _______ _____ _____    ______ ____
DOCKED: ROOT
DOCKED: ATOM      1  C   UNL d   1       4.096  34.672  -0.913 -0.19 +0.01    +0.064 A 
DOCKED: ATOM      2  C   UNL d   1      -0.273  34.048  -2.684 -0.03 +0.01    +0.064 C 
DOCKED: ATOM      3  C   UNL d   1      -1.037  30.450   0.367 -0.02 -0.00    +0.064 A 
DOCKED: ATOM      4  C   UNL d   1       3.273  31.320   2.450 -0.25 -0.00    +0.064 A 
DOCKED: ATOM      5  C   UNL d   1       2.972  34.742  -1.645 -0.12 +0.01    +0.066 A 
DOCKED: ATOM      6  C   UNL d   1       2.776  35.739  -2.621 -0.09 -0.01    -0.021 A 
DOCKED: ATOM      7  C   UNL d   1       1.498  35.567  -3.115 -0.04 -0.01    -0.025 A 
DOCKED: ATOM      8  C   UNL d   1       0.975  34.464  -2.433 -0.04 +0.01    +0.066 A 
DOCKED: ATOM      9  C   UNL d   1       0.783  36.402  -4.189 -0.02 +0.01    +0.051 C 
DOCKED: ATOM     10  C   UNL d   1      -0.887  32.907  -2.051 -0.02 +0.01    +0.066 A 
DOCKED: ATOM     11  C   UNL d   1      -2.138  32.336  -2.370 -0.00 -0.00    -0.021 A 
DOCKED: ATOM     12  C   UNL d   1      -2.333  31.287  -1.468 -0.00 +0.00    +0.000 A 
DOCKED: ATOM     13  C   UNL d   1      -1.185  31.287  -0.676 -0.02 +0.00    +0.070 A 
DOCKED: ATOM     14  C   UNL d   1      -3.025  32.722  -3.526 +0.00 +0.00    +0.052 C 
DOCKED: ATOM     15  C   UNL d   1       0.054  30.350   1.317 -0.05 -0.00    +0.066 A 
DOCKED: ATOM     16  C   UNL d   1       0.080  29.561   2.459 -0.06 +0.00    -0.021 A 
DOCKED: ATOM     17  C   UNL d   1       1.320  29.811   3.064 -0.17 -0.00    +0.000 A 
DOCKED: ATOM     18  C   UNL d   1       1.961  30.722   2.232 -0.17 -0.00    +0.070 A 
DOCKED: ATOM     19  C   UNL d   1      -1.029  28.640   2.914 -0.04 -0.01    +0.052 C 
DOCKED: ATOM     20  C   UNL d   1       3.879  32.272   1.701 -0.21 +0.00    +0.066 A 
DOCKED: ATOM     21  C   UNL d   1       5.127  32.795   2.032 -0.40 -0.00    -0.025 A 
DOCKED: ATOM     22  C   UNL d   1       5.403  33.743   1.064 -0.37 -0.00    -0.021 A 
DOCKED: ATOM     23  C   UNL d   1       4.296  33.760   0.190 -0.24 +0.01    +0.066 A 
DOCKED: ATOM     24  C   UNL d   1       6.006  32.425   3.225 -0.41 +0.00    +0.051 C 
DOCKED: ATOM     25  N   UNL d   1       1.868  33.929  -1.520 -0.04 -0.04    -0.248 N 
DOCKED: ATOM     26  N   UNL d   1      -0.287  32.231  -1.065 -0.01 -0.02    -0.248 N 
DOCKED: ATOM     27  N   UNL d   1       1.166  31.043   1.218 -0.06 -0.00    -0.248 N 
DOCKED: ATOM     28  N   UNL d   1       3.370  32.872   0.573 -0.11 -0.03    -0.248 N 
DOCKED: ATOM     29 FE   UNL d   1       1.499  32.401  -0.069 -0.03 +0.00    +0.000 Fe
DOCKED: ENDROOT
DOCKED: BRANCH   6  30
DOCKED: ATOM     30  C   UNL d   1       3.751  36.851  -2.993 -0.13 +0.01    +0.052 C 
DOCKED: BRANCH  30  31
DOCKED: ATOM     31  C   UNL d   1       3.665  37.999  -1.987 -0.15 +0.06    +0.115 C 
DOCKED: BRANCH  31  32
DOCKED: ATOM     32  C   UNL d   1       2.410  37.935  -1.144 -0.15 +0.15    +0.139 C 
DOCKED: ATOM     33  O   UNL d   1       1.477  38.683  -1.396 -0.50 -0.95    -0.650 OA
DOCKED: BRANCH  32  34
DOCKED: ATOM     34  O   UNL d   1       2.264  37.037  -0.141 +0.14 -0.89    -0.776 OA
DOCKED: ATOM     35  H   UNL d   1       1.545  36.393  -0.088 +0.03 +0.15    +0.167 HD
DOCKED: ENDBRANCH  32  34
DOCKED: ENDBRANCH  31  32
DOCKED: ENDBRANCH  30  31
DOCKED: ENDBRANCH   6  30
DOCKED: BRANCH  29  36
DOCKED: ATOM     36  C   UNL d   1       0.680  33.904   1.140 -0.11 +0.05    +0.190 C 
DOCKED: BRANCH  36  37
DOCKED: ATOM     37  O   UNL d   1       0.108  35.180   1.099 -0.07 -0.20    -0.399 OA
DOCKED: ATOM     38  H   UNL d   1       0.866  35.793   0.884 +0.07 +0.16    +0.209 HD
DOCKED: ENDBRANCH  36  37
DOCKED: ENDBRANCH  29  36
DOCKED: BRANCH  22  39
DOCKED: ATOM     39  C   UNL d   1       6.636  34.627   1.025 -0.32 +0.01    +0.052 C 
DOCKED: BRANCH  39  40
DOCKED: ATOM     40  C   UNL d   1       7.881  33.842   1.469 -0.23 +0.01    +0.115 C 
DOCKED: BRANCH  40  41
DOCKED: ATOM     41  C   UNL d   1       9.195  34.461   1.042 -0.27 +0.03    +0.139 C 
DOCKED: ATOM     42  O   UNL d   1      10.220  34.162   1.640 -0.07 -0.07    -0.650 OA
DOCKED: BRANCH  41  43
DOCKED: ATOM     43  O   UNL d   1       9.282  35.271  -0.036 -0.92 -0.26    -0.776 OA
DOCKED: ATOM     44  H   UNL d   1      10.049  35.834  -0.203 +0.09 +0.03    +0.167 HD
DOCKED: ENDBRANCH  41  43
DOCKED: ENDBRANCH  40  41
DOCKED: ENDBRANCH  39  40
DOCKED: ENDBRANCH  22  39
DOCKED: BRANCH  12  45
DOCKED: ATOM     45  C   UNL d   1      -3.458  30.278  -1.277 -0.00 -0.00    +0.004 C 
DOCKED: ATOM     46  C   UNL d   1      -3.492  28.967  -1.502 -0.01 -0.00    +0.012 C 
DOCKED: ENDBRANCH  12  45
DOCKED: BRANCH  17  47
DOCKED: ATOM     47  C   UNL d   1       1.875  29.293   4.351 -0.33 -0.00    +0.004 C 
DOCKED: ATOM     48  C   UNL d   1       2.563  28.153   4.451 -0.41 -0.00    +0.012 C 
DOCKED: ENDBRANCH  17  47
DOCKED: TORSDOF 12
DOCKED: TER
DOCKED: ENDMDL
________________________________________________________________________________


	BEGINNING GENETIC ALGORITHM DOCKING 36 of 100
Run: 36 Seed: 1588539674 1449763759 [ Run 36 of 100 GA/GALS ]
Beginning LAMARCKIAN GENETIC ALGORITHM (LGA), with a maximum of 25000000 energy evaluations.

Final-Value: -18.492


	FINAL GENETIC ALGORITHM DOCKED STATE
	_______________________________________________


Detailed state:  trans 40.603 28.644 15.662 quatxyzw -0.373913 0.397472 0.837271 -0.034399 center 8.781 34.984 -0.736 ntor 12 65.2801 137.9106 -81.9120 -76.9933 -53.8428 11.6740 7.5586 132.5957 24.1815 21.7532 -50.9615 -179.7704
State:	 40.603  28.644  15.662  -0.374  0.398  0.838 -176.057     65.28  137.91  -81.91  -76.99  -53.84   11.67    7.56  132.60   24.18   21.75  -50.96 -179.77

DOCKED: MODEL       36
DOCKED: USER    Run = 36
DOCKED: USER    DPF = D:/Protein_go_brrr/autodock/final/6BB5/heme_Co/dock.dpf
DOCKED: USER  
DOCKED: USER    Estimated Free Energy of Binding    =  -13.57 kcal/mol  [=(1)+(2)+(3)-(4)]
DOCKED: USER    Estimated Inhibition Constant, Ki   =  113.02 pM (picomolar)  [Temperature = 298.15 K]
DOCKED: USER    
DOCKED: USER    (1) Final Intermolecular Energy     =  -17.15 kcal/mol
DOCKED: USER        vdW + Hbond + desolv Energy     =  -15.52 kcal/mol
DOCKED: USER        Electrostatic Energy            =   -1.63 kcal/mol
DOCKED: USER    (2) Final Total Internal Energy     =   -1.34 kcal/mol
DOCKED: USER    (3) Torsional Free Energy           =   +3.58 kcal/mol
DOCKED: USER    (4) Unbound System's Energy  [=(2)] =   -1.34 kcal/mol
DOCKED: USER    
DOCKED: USER    
DOCKED: USER    NEWDPF move heme_Co_opt.pdbqt
DOCKED: USER    NEWDPF about 8.781000 34.984000 -0.736000
DOCKED: USER    NEWDPF tran0 40.602703 28.644252 15.661555
DOCKED: USER    NEWDPF quaternion0 -0.373913 0.397472 0.837271 -0.034399
DOCKED: USER    NEWDPF axisangle0 -0.374134 0.397707 0.837767 -176.057338
DOCKED: USER    NEWDPF quat0 -0.374134 0.397707 0.837767 -176.057338
DOCKED: USER    NEWDPF dihe0 65.28 137.91 -81.91 -76.99 -53.84 11.67 7.56 132.60 24.18 21.75 -50.96 -179.77 
DOCKED: USER  keepresnum = 1 
DOCKED: USER  
DOCKED: REMARK  12 active torsions:
DOCKED: REMARK  status: ('A' for Active; 'I' for Inactive)
DOCKED: REMARK    1  A    between atoms: C_6  and  C_10 
DOCKED: REMARK    2  A    between atoms: C_10  and  C_11 
DOCKED: REMARK    3  A    between atoms: C_11  and  C_12 
DOCKED: REMARK    4  A    between atoms: C_12  and  O_14 
DOCKED: REMARK    5  A    between atoms: C_17  and  C_20 
DOCKED: REMARK    6  A    between atoms: C_24  and  C_27 
DOCKED: REMARK    7  A    between atoms: C_31  and  C_34 
DOCKED: REMARK    8  A    between atoms: C_34  and  C_35 
DOCKED: REMARK    9  A    between atoms: C_35  and  C_36 
DOCKED: REMARK   10  A    between atoms: C_36  and  O_38 
DOCKED: REMARK   11  A    between atoms: FE_43  and  C_44 
DOCKED: REMARK   12  A    between atoms: C_44  and  O_45 
DOCKED: USER                              x       y       z     vdW  Elec       q    Type
DOCKED: USER                           _______ _______ _______ _____ _____    ______ ____
DOCKED: ROOT
DOCKED: ATOM      1  C   UNL d   1      42.324  28.180  16.902 -0.06 +0.02    +0.064 A 
DOCKED: ATOM      2  C   UNL d   1      40.127  32.274  15.887 -0.44 +0.01    +0.064 C 
DOCKED: ATOM      3  C   UNL d   1      37.255  30.014  12.810 -0.29 +0.01    +0.064 A 
DOCKED: ATOM      4  C   UNL d   1      39.224  25.761  14.115 -0.42 +0.01    +0.064 A 
DOCKED: ATOM      5  C   UNL d   1      41.959  29.470  16.823 -0.24 +0.01    +0.066 A 
DOCKED: ATOM      6  C   UNL d   1      42.533  30.461  17.645 -0.36 -0.00    -0.021 A 
DOCKED: ATOM      7  C   UNL d   1      41.876  31.642  17.362 -0.44 -0.00    -0.025 A 
DOCKED: ATOM      8  C   UNL d   1      40.941  31.326  16.370 -0.37 +0.01    +0.066 A 
DOCKED: ATOM      9  C   UNL d   1      42.107  33.023  17.995 -0.45 +0.00    +0.051 C 
DOCKED: ATOM     10  C   UNL d   1      39.154  32.049  14.848 -0.37 +0.01    +0.066 A 
DOCKED: ATOM     11  C   UNL d   1      38.369  33.028  14.201 -0.39 -0.00    -0.021 A 
DOCKED: ATOM     12  C   UNL d   1      37.543  32.341  13.306 -0.41 +0.00    +0.000 A 
DOCKED: ATOM     13  C   UNL d   1      37.894  31.000  13.464 -0.37 +0.01    +0.070 A 
DOCKED: ATOM     14  C   UNL d   1      38.485  34.520  14.372 -0.49 +0.00    +0.052 C 
DOCKED: ATOM     15  C   UNL d   1      37.450  28.579  12.892 -0.43 +0.01    +0.066 A 
DOCKED: ATOM     16  C   UNL d   1      36.659  27.606  12.299 -0.54 -0.00    -0.021 A 
DOCKED: ATOM     17  C   UNL d   1      37.221  26.378  12.675 -0.47 +0.00    +0.000 A 
DOCKED: ATOM     18  C   UNL d   1      38.325  26.700  13.456 -0.39 +0.01    +0.070 A 
DOCKED: ATOM     19  C   UNL d   1      35.446  27.868  11.434 -0.42 +0.00    +0.052 C 
DOCKED: ATOM     20  C   UNL d   1      40.252  26.050  14.949 -0.40 +0.01    +0.066 A 
DOCKED: ATOM     21  C   UNL d   1      41.022  25.058  15.551 -0.41 -0.00    -0.025 A 
DOCKED: ATOM     22  C   UNL d   1      41.943  25.727  16.338 -0.37 -0.00    -0.021 A 
DOCKED: ATOM     23  C   UNL d   1      41.678  27.104  16.185 -0.33 +0.01    +0.066 A 
DOCKED: ATOM     24  C   UNL d   1      40.877  23.546  15.401 -0.55 +0.01    +0.051 C 
DOCKED: ATOM     25  N   UNL d   1      40.975  29.989  16.013 +0.06 -0.07    -0.248 N 
DOCKED: ATOM     26  N   UNL d   1      38.906  30.830  14.355 -0.21 -0.04    -0.248 N 
DOCKED: ATOM     27  N   UNL d   1      38.413  28.019  13.589 -0.22 -0.04    -0.248 N 
DOCKED: ATOM     28  N   UNL d   1      40.654  27.304  15.347 -0.20 -0.06    -0.248 N 
DOCKED: ATOM     29 FE   UNL d   1      39.620  28.943  14.730 -0.08 +0.00    +0.000 Fe
DOCKED: ENDROOT
DOCKED: BRANCH   6  30
DOCKED: ATOM     30  C   UNL d   1      43.606  30.251  18.707 -0.35 +0.02    +0.052 C 
DOCKED: BRANCH  30  31
DOCKED: ATOM     31  C   UNL d   1      44.562  29.133  18.292 -0.23 +0.05    +0.115 C 
DOCKED: BRANCH  31  32
DOCKED: ATOM     32  C   UNL d   1      45.282  28.520  19.474 -0.19 +0.09    +0.139 C 
DOCKED: ATOM     33  O   UNL d   1      46.504  28.528  19.503 +0.01 -0.39    -0.650 OA
DOCKED: BRANCH  32  34
DOCKED: ATOM     34  O   UNL d   1      44.615  28.003  20.532 -0.08 -0.96    -0.776 OA
DOCKED: ATOM     35  H   UNL d   1      43.996  27.262  20.475 +0.05 +0.18    +0.167 HD
DOCKED: ENDBRANCH  32  34
DOCKED: ENDBRANCH  31  32
DOCKED: ENDBRANCH  30  31
DOCKED: ENDBRANCH   6  30
DOCKED: BRANCH  29  36
DOCKED: ATOM     36  C   UNL d   1      38.345  28.791  16.387 -0.28 +0.05    +0.190 C 
DOCKED: BRANCH  36  37
DOCKED: ATOM     37  O   UNL d   1      37.435  27.937  17.018 -0.59 -0.09    -0.399 OA
DOCKED: ATOM     38  H   UNL d   1      37.699  27.020  16.726 +0.12 +0.04    +0.209 HD
DOCKED: ENDBRANCH  36  37
DOCKED: ENDBRANCH  29  36
DOCKED: BRANCH  22  39
DOCKED: ATOM     39  C   UNL d   1      42.975  25.070  17.235 -0.33 +0.01    +0.052 C 
DOCKED: BRANCH  39  40
DOCKED: ATOM     40  C   UNL d   1      42.326  24.581  18.541 -0.38 +0.03    +0.115 C 
DOCKED: BRANCH  40  41
DOCKED: ATOM     41  C   UNL d   1      43.310  24.268  19.649 -0.31 +0.05    +0.139 C 
DOCKED: ATOM     42  O   UNL d   1      43.775  23.140  19.734 -0.42 -0.28    -0.650 OA
DOCKED: BRANCH  41  43
DOCKED: ATOM     43  O   UNL d   1      43.756  25.224  20.494 +0.04 -0.47    -0.776 OA
DOCKED: ATOM     44  H   UNL d   1      44.413  25.882  20.233 +0.06 +0.12    +0.167 HD
DOCKED: ENDBRANCH  41  43
DOCKED: ENDBRANCH  40  41
DOCKED: ENDBRANCH  39  40
DOCKED: ENDBRANCH  22  39
DOCKED: BRANCH  12  45
DOCKED: ATOM     45  C   UNL d   1      36.484  32.798  12.312 -0.52 +0.00    +0.004 C 
DOCKED: ATOM     46  C   UNL d   1      35.189  33.050  12.482 -0.69 +0.00    +0.012 C 
DOCKED: ENDBRANCH  12  45
DOCKED: BRANCH  17  47
DOCKED: ATOM     47  C   UNL d   1      36.757  24.988  12.386 -0.65 +0.00    +0.004 C 
DOCKED: ATOM     48  C   UNL d   1      35.722  24.413  13.002 -0.73 +0.00    +0.012 C 
DOCKED: ENDBRANCH  17  47
DOCKED: TORSDOF 12
DOCKED: TER
DOCKED: ENDMDL
________________________________________________________________________________


	BEGINNING GENETIC ALGORITHM DOCKING 37 of 100
Run: 37 Seed: 317178024 1147146511 [ Run 37 of 100 GA/GALS ]
Beginning LAMARCKIAN GENETIC ALGORITHM (LGA), with a maximum of 25000000 energy evaluations.

Final-Value: -9.301


	FINAL GENETIC ALGORITHM DOCKED STATE
	_______________________________________________


Detailed state:  trans 24.978 38.518 -4.859 quatxyzw 0.377548 -0.548229 0.675567 0.317035 center 8.781 34.984 -0.736 ntor 12 -175.3762 107.6212 -69.4297 98.7341 153.2195 134.1090 38.5279 -87.2196 161.9396 -65.5821 -161.4081 -154.5721
State:	 24.978  38.518  -4.859   0.398 -0.578  0.712 143.033   -175.38  107.62  -69.43   98.73  153.22  134.11   38.53  -87.22  161.94  -65.58 -161.41 -154.57

DOCKED: MODEL       37
DOCKED: USER    Run = 37
DOCKED: USER    DPF = D:/Protein_go_brrr/autodock/final/6BB5/heme_Co/dock.dpf
DOCKED: USER  
DOCKED: USER    Estimated Free Energy of Binding    =   -3.56 kcal/mol  [=(1)+(2)+(3)-(4)]
DOCKED: USER    Estimated Inhibition Constant, Ki   =    2.47 mM (millimolar)  [Temperature = 298.15 K]
DOCKED: USER    
DOCKED: USER    (1) Final Intermolecular Energy     =   -7.14 kcal/mol
DOCKED: USER        vdW + Hbond + desolv Energy     =   -6.63 kcal/mol
DOCKED: USER        Electrostatic Energy            =   -0.51 kcal/mol
DOCKED: USER    (2) Final Total Internal Energy     =   -2.16 kcal/mol
DOCKED: USER    (3) Torsional Free Energy           =   +3.58 kcal/mol
DOCKED: USER    (4) Unbound System's Energy  [=(2)] =   -2.16 kcal/mol
DOCKED: USER    
DOCKED: USER    
DOCKED: USER    NEWDPF move heme_Co_opt.pdbqt
DOCKED: USER    NEWDPF about 8.781000 34.984000 -0.736000
DOCKED: USER    NEWDPF tran0 24.978466 38.518480 -4.858749
DOCKED: USER    NEWDPF quaternion0 0.377548 -0.548229 0.675567 0.317035
DOCKED: USER    NEWDPF axisangle0 0.398084 -0.578048 0.712313 143.032530
DOCKED: USER    NEWDPF quat0 0.398084 -0.578048 0.712313 143.032530
DOCKED: USER    NEWDPF dihe0 -175.38 107.62 -69.43 98.73 153.22 134.11 38.53 -87.22 161.94 -65.58 -161.41 -154.57 
DOCKED: USER  keepresnum = 1 
DOCKED: USER  
DOCKED: REMARK  12 active torsions:
DOCKED: REMARK  status: ('A' for Active; 'I' for Inactive)
DOCKED: REMARK    1  A    between atoms: C_6  and  C_10 
DOCKED: REMARK    2  A    between atoms: C_10  and  C_11 
DOCKED: REMARK    3  A    between atoms: C_11  and  C_12 
DOCKED: REMARK    4  A    between atoms: C_12  and  O_14 
DOCKED: REMARK    5  A    between atoms: C_17  and  C_20 
DOCKED: REMARK    6  A    between atoms: C_24  and  C_27 
DOCKED: REMARK    7  A    between atoms: C_31  and  C_34 
DOCKED: REMARK    8  A    between atoms: C_34  and  C_35 
DOCKED: REMARK    9  A    between atoms: C_35  and  C_36 
DOCKED: REMARK   10  A    between atoms: C_36  and  O_38 
DOCKED: REMARK   11  A    between atoms: FE_43  and  C_44 
DOCKED: REMARK   12  A    between atoms: C_44  and  O_45 
DOCKED: USER                              x       y       z     vdW  Elec       q    Type
DOCKED: USER                           _______ _______ _______ _____ _____    ______ ____
DOCKED: ROOT
DOCKED: ATOM      1  C   UNL d   1      25.251  40.476  -5.759 -0.15 +0.01    +0.064 A 
DOCKED: ATOM      2  C   UNL d   1      27.769  38.069  -2.522 -0.17 +0.00    +0.064 C 
DOCKED: ATOM      3  C   UNL d   1      24.474  34.610  -2.475 -0.28 -0.01    +0.064 A 
DOCKED: ATOM      4  C   UNL d   1      22.079  36.861  -6.061 -0.19 +0.01    +0.064 A 
DOCKED: ATOM      5  C   UNL d   1      26.163  40.090  -4.851 -0.17 +0.01    +0.066 A 
DOCKED: ATOM      6  C   UNL d   1      27.345  40.821  -4.622 -0.09 -0.00    -0.021 A 
DOCKED: ATOM      7  C   UNL d   1      28.082  40.107  -3.698 -0.09 -0.00    -0.025 A 
DOCKED: ATOM      8  C   UNL d   1      27.312  38.979  -3.392 -0.16 +0.00    +0.066 A 
DOCKED: ATOM      9  C   UNL d   1      29.460  40.458  -3.117 -0.04 +0.00    +0.051 C 
DOCKED: ATOM     10  C   UNL d   1      27.037  36.892  -2.126 -0.16 +0.00    +0.066 A 
DOCKED: ATOM     11  C   UNL d   1      27.398  35.974  -1.116 -0.16 -0.00    -0.021 A 
DOCKED: ATOM     12  C   UNL d   1      26.418  34.978  -1.121 -0.20 +0.00    +0.000 A 
DOCKED: ATOM     13  C   UNL d   1      25.527  35.367  -2.122 -0.14 -0.00    +0.070 A 
DOCKED: ATOM     14  C   UNL d   1      28.554  36.110  -0.158 -0.12 +0.01    +0.052 C 
DOCKED: ATOM     15  C   UNL d   1      23.489  34.832  -3.515 -0.28 -0.01    +0.066 A 
DOCKED: ATOM     16  C   UNL d   1      22.509  33.939  -3.926 -0.38 +0.01    -0.021 A 
DOCKED: ATOM     17  C   UNL d   1      21.817  34.583  -4.962 -0.32 -0.00    +0.000 A 
DOCKED: ATOM     18  C   UNL d   1      22.421  35.829  -5.090 -0.20 -0.00    +0.070 A 
DOCKED: ATOM     19  C   UNL d   1      22.278  32.563  -3.343 -0.30 -0.04    +0.052 C 
DOCKED: ATOM     20  C   UNL d   1      22.706  38.044  -6.263 -0.18 +0.01    +0.066 A 
DOCKED: ATOM     21  C   UNL d   1      22.307  38.939  -7.253 -0.20 -0.01    -0.025 A 
DOCKED: ATOM     22  C   UNL d   1      23.185  40.004  -7.170 -0.16 -0.00    -0.021 A 
DOCKED: ATOM     23  C   UNL d   1      24.092  39.698  -6.133 -0.12 +0.01    +0.066 A 
DOCKED: ATOM     24  C   UNL d   1      21.156  38.779  -8.244 -0.20 +0.02    +0.051 C 
DOCKED: ATOM     25  N   UNL d   1      26.116  38.946  -4.088 -0.18 -0.02    -0.248 N 
DOCKED: ATOM     26  N   UNL d   1      25.873  36.554  -2.690 -0.16 -0.00    -0.248 N 
DOCKED: ATOM     27  N   UNL d   1      23.431  35.931  -4.234 -0.12 +0.03    -0.248 N 
DOCKED: ATOM     28  N   UNL d   1      23.807  38.512  -5.583 -0.14 -0.03    -0.248 N 
DOCKED: ATOM     29 FE   UNL d   1      24.692  37.351  -4.167 -0.06 -0.00    +0.000 Fe
DOCKED: ENDROOT
DOCKED: BRANCH   6  30
DOCKED: ATOM     30  C   UNL d   1      27.771  42.105  -5.326 -0.04 +0.00    +0.052 C 
DOCKED: BRANCH  30  31
DOCKED: ATOM     31  C   UNL d   1      28.308  41.798  -6.723 -0.01 +0.01    +0.115 C 
DOCKED: BRANCH  31  32
DOCKED: ATOM     32  C   UNL d   1      28.731  40.353  -6.875 -0.01 +0.01    +0.139 C 
DOCKED: ATOM     33  O   UNL d   1      29.886  40.037  -6.632 +0.00 -0.03    -0.650 OA
DOCKED: BRANCH  32  34
DOCKED: ATOM     34  O   UNL d   1      27.857  39.382  -7.227 +0.02 -0.03    -0.776 OA
DOCKED: ATOM     35  H   UNL d   1      28.091  38.449  -7.326 +0.01 +0.01    +0.167 HD
DOCKED: ENDBRANCH  32  34
DOCKED: ENDBRANCH  31  32
DOCKED: ENDBRANCH  30  31
DOCKED: ENDBRANCH   6  30
DOCKED: BRANCH  29  36
DOCKED: ATOM     36  C   UNL d   1      25.922  36.475  -5.621 -0.06 -0.00    +0.190 C 
DOCKED: BRANCH  36  37
DOCKED: ATOM     37  O   UNL d   1      26.929  36.763  -6.549 -0.00 -0.00    -0.399 OA
DOCKED: ATOM     38  H   UNL d   1      27.027  37.755  -6.522 +0.02 +0.01    +0.209 HD
DOCKED: ENDBRANCH  36  37
DOCKED: ENDBRANCH  29  36
DOCKED: BRANCH  22  39
DOCKED: ATOM     39  C   UNL d   1      23.188  41.215  -8.084 -0.11 +0.01    +0.052 C 
DOCKED: BRANCH  39  40
DOCKED: ATOM     40  C   UNL d   1      23.235  40.782  -9.559 -0.05 +0.02    +0.115 C 
DOCKED: BRANCH  40  41
DOCKED: ATOM     41  C   UNL d   1      21.946  41.009 -10.319 -0.09 +0.05    +0.139 C 
DOCKED: ATOM     42  O   UNL d   1      21.413  42.109 -10.278 -0.01 -0.21    -0.650 OA
DOCKED: BRANCH  41  43
DOCKED: ATOM     43  O   UNL d   1      21.412  40.055 -11.113 -0.02 -0.40    -0.776 OA
DOCKED: ATOM     44  H   UNL d   1      21.864  39.720 -11.899 +0.01 +0.06    +0.167 HD
DOCKED: ENDBRANCH  41  43
DOCKED: ENDBRANCH  40  41
DOCKED: ENDBRANCH  39  40
DOCKED: ENDBRANCH  22  39
DOCKED: BRANCH  12  45
DOCKED: ATOM     45  C   UNL d   1      26.211  33.720  -0.288 -0.29 +0.00    +0.004 C 
DOCKED: ATOM     46  C   UNL d   1      25.548  33.535   0.850 -0.40 +0.00    +0.012 C 
DOCKED: ENDBRANCH  12  45
DOCKED: BRANCH  17  47
DOCKED: ATOM     47  C   UNL d   1      20.705  34.080  -5.822 +0.01 +0.00    +0.004 C 
DOCKED: ATOM     48  C   UNL d   1      19.585  34.769  -6.057 -0.47 +0.00    +0.012 C 
DOCKED: ENDBRANCH  17  47
DOCKED: TORSDOF 12
DOCKED: TER
DOCKED: ENDMDL
________________________________________________________________________________


	BEGINNING GENETIC ALGORITHM DOCKING 38 of 100
Run: 38 Seed: 1706293249 1418637372 [ Run 38 of 100 GA/GALS ]
Beginning LAMARCKIAN GENETIC ALGORITHM (LGA), with a maximum of 25000000 energy evaluations.

Final-Value: -10.749


	FINAL GENETIC ALGORITHM DOCKED STATE
	_______________________________________________


Detailed state:  trans 23.077 47.155 -1.642 quatxyzw -0.171897 0.846295 -0.164713 -0.476556 center 8.781 34.984 -0.736 ntor 12 92.3412 101.8736 39.7137 51.8880 130.4083 156.0601 163.1974 158.4139 -131.1313 144.2144 -24.8464 29.6415
State:	 23.077  47.155  -1.642  -0.196  0.963 -0.187 -123.079     92.34  101.87   39.71   51.89  130.41  156.06  163.20  158.41 -131.13  144.21  -24.85   29.64

DOCKED: MODEL       38
DOCKED: USER    Run = 38
DOCKED: USER    DPF = D:/Protein_go_brrr/autodock/final/6BB5/heme_Co/dock.dpf
DOCKED: USER  
DOCKED: USER    Estimated Free Energy of Binding    =   -5.20 kcal/mol  [=(1)+(2)+(3)-(4)]
DOCKED: USER    Estimated Inhibition Constant, Ki   =  153.83 uM (micromolar)  [Temperature = 298.15 K]
DOCKED: USER    
DOCKED: USER    (1) Final Intermolecular Energy     =   -8.78 kcal/mol
DOCKED: USER        vdW + Hbond + desolv Energy     =   -7.85 kcal/mol
DOCKED: USER        Electrostatic Energy            =   -0.93 kcal/mol
DOCKED: USER    (2) Final Total Internal Energy     =   -1.97 kcal/mol
DOCKED: USER    (3) Torsional Free Energy           =   +3.58 kcal/mol
DOCKED: USER    (4) Unbound System's Energy  [=(2)] =   -1.97 kcal/mol
DOCKED: USER    
DOCKED: USER    
DOCKED: USER    NEWDPF move heme_Co_opt.pdbqt
DOCKED: USER    NEWDPF about 8.781000 34.984000 -0.736000
DOCKED: USER    NEWDPF tran0 23.077307 47.154571 -1.642186
DOCKED: USER    NEWDPF quaternion0 -0.171897 0.846295 -0.164713 -0.476556
DOCKED: USER    NEWDPF axisangle0 -0.195527 0.962635 -0.187356 -123.078639
DOCKED: USER    NEWDPF quat0 -0.195527 0.962635 -0.187356 -123.078639
DOCKED: USER    NEWDPF dihe0 92.34 101.87 39.71 51.89 130.41 156.06 163.20 158.41 -131.13 144.21 -24.85 29.64 
DOCKED: USER  keepresnum = 1 
DOCKED: USER  
DOCKED: REMARK  12 active torsions:
DOCKED: REMARK  status: ('A' for Active; 'I' for Inactive)
DOCKED: REMARK    1  A    between atoms: C_6  and  C_10 
DOCKED: REMARK    2  A    between atoms: C_10  and  C_11 
DOCKED: REMARK    3  A    between atoms: C_11  and  C_12 
DOCKED: REMARK    4  A    between atoms: C_12  and  O_14 
DOCKED: REMARK    5  A    between atoms: C_17  and  C_20 
DOCKED: REMARK    6  A    between atoms: C_24  and  C_27 
DOCKED: REMARK    7  A    between atoms: C_31  and  C_34 
DOCKED: REMARK    8  A    between atoms: C_34  and  C_35 
DOCKED: REMARK    9  A    between atoms: C_35  and  C_36 
DOCKED: REMARK   10  A    between atoms: C_36  and  O_38 
DOCKED: REMARK   11  A    between atoms: FE_43  and  C_44 
DOCKED: REMARK   12  A    between atoms: C_44  and  O_45 
DOCKED: USER                              x       y       z     vdW  Elec       q    Type
DOCKED: USER                           _______ _______ _______ _____ _____    ______ ____
DOCKED: ROOT
DOCKED: ATOM      1  C   UNL d   1      23.218  48.561   0.006 -0.11 +0.00    +0.064 A 
DOCKED: ATOM      2  C   UNL d   1      26.186  45.210  -1.597 -0.13 +0.01    +0.064 C 
DOCKED: ATOM      3  C   UNL d   1      22.923  43.791  -4.785 -0.19 +0.01    +0.064 A 
DOCKED: ATOM      4  C   UNL d   1      20.024  47.454  -3.428 -0.18 -0.01    +0.064 A 
DOCKED: ATOM      5  C   UNL d   1      24.255  47.726  -0.173 -0.09 +0.01    +0.066 A 
DOCKED: ATOM      6  C   UNL d   1      25.461  47.867   0.542 -0.10 -0.00    -0.021 A 
DOCKED: ATOM      7  C   UNL d   1      26.326  46.907   0.056 -0.11 -0.01    -0.025 A 
DOCKED: ATOM      8  C   UNL d   1      25.607  46.211  -0.921 +0.00 +0.01    +0.066 A 
DOCKED: ATOM      9  C   UNL d   1      27.777  46.642   0.486 -0.10 +0.02    +0.051 C 
DOCKED: ATOM     10  C   UNL d   1      25.518  44.420  -2.601 -0.17 +0.01    +0.066 A 
DOCKED: ATOM     11  C   UNL d   1      26.023  43.270  -3.244 -0.19 -0.00    -0.021 A 
DOCKED: ATOM     12  C   UNL d   1      25.050  42.875  -4.166 -0.24 +0.00    +0.000 A 
DOCKED: ATOM     13  C   UNL d   1      24.020  43.803  -4.008 -0.26 +0.01    +0.070 A 
DOCKED: ATOM     14  C   UNL d   1      27.310  42.557  -2.917 -0.13 +0.01    +0.052 C 
DOCKED: ATOM     15  C   UNL d   1      21.793  44.700  -4.795 -0.25 +0.00    +0.066 A 
DOCKED: ATOM     16  C   UNL d   1      20.760  44.719  -5.721 -0.28 -0.00    -0.021 A 
DOCKED: ATOM     17  C   UNL d   1      19.922  45.775  -5.335 -0.27 -0.00    +0.000 A 
DOCKED: ATOM     18  C   UNL d   1      20.504  46.308  -4.190 -0.26 -0.01    +0.070 A 
DOCKED: ATOM     19  C   UNL d   1      20.614  43.772  -6.891 -0.29 +0.01    +0.052 C 
DOCKED: ATOM     20  C   UNL d   1      20.618  48.044  -2.363 -0.20 -0.01    +0.066 A 
DOCKED: ATOM     21  C   UNL d   1      20.077  49.164  -1.736 -0.18 +0.01    -0.025 A 
DOCKED: ATOM     22  C   UNL d   1      20.962  49.488  -0.723 -0.21 +0.00    -0.021 A 
DOCKED: ATOM     23  C   UNL d   1      22.013  48.550  -0.792 -0.17 -0.00    +0.066 A 
DOCKED: ATOM     24  C   UNL d   1      18.790  49.902  -2.095 -0.23 -0.02    +0.051 C 
DOCKED: ATOM     25  N   UNL d   1      24.319  46.693  -1.081 +0.11 -0.04    -0.248 N 
DOCKED: ATOM     26  N   UNL d   1      24.280  44.703  -3.023 -0.18 -0.03    -0.248 N 
DOCKED: ATOM     27  N   UNL d   1      21.632  45.663  -3.915 -0.19 +0.01    -0.248 N 
DOCKED: ATOM     28  N   UNL d   1      21.810  47.675  -1.784 -0.15 +0.01    -0.248 N 
DOCKED: ATOM     29 FE   UNL d   1      22.894  46.150  -2.580 -0.05 +0.00    +0.000 Fe
DOCKED: ENDROOT
DOCKED: BRANCH   6  30
DOCKED: ATOM     30  C   UNL d   1      25.781  48.934   1.583 -0.07 +0.01    +0.052 C 
DOCKED: BRANCH  30  31
DOCKED: ATOM     31  C   UNL d   1      24.792  48.863   2.747 -0.10 +0.02    +0.115 C 
DOCKED: BRANCH  31  32
DOCKED: ATOM     32  C   UNL d   1      24.590  47.449   3.246 -0.22 +0.08    +0.139 C 
DOCKED: ATOM     33  O   UNL d   1      25.524  46.661   3.217 +0.02 -0.96    -0.650 OA
DOCKED: BRANCH  32  34
DOCKED: ATOM     34  O   UNL d   1      23.414  47.036   3.773 +0.10 -0.19    -0.776 OA
DOCKED: ATOM     35  H   UNL d   1      22.683  46.671   3.255 -0.40 -0.00    +0.167 HD
DOCKED: ENDBRANCH  32  34
DOCKED: ENDBRANCH  31  32
DOCKED: ENDBRANCH  30  31
DOCKED: ENDBRANCH   6  30
DOCKED: BRANCH  29  36
DOCKED: ATOM     36  C   UNL d   1      23.888  47.489  -3.851 -0.05 +0.01    +0.190 C 
DOCKED: BRANCH  36  37
DOCKED: ATOM     37  O   UNL d   1      24.971  48.372  -3.911 -0.00 -0.02    -0.399 OA
DOCKED: ATOM     38  H   UNL d   1      25.280  48.463  -2.966 +0.02 +0.01    +0.209 HD
DOCKED: ENDBRANCH  36  37
DOCKED: ENDBRANCH  29  36
DOCKED: BRANCH  22  39
DOCKED: ATOM     39  C   UNL d   1      20.831  50.676   0.212 -0.25 -0.01    +0.052 C 
DOCKED: BRANCH  39  40
DOCKED: ATOM     40  C   UNL d   1      21.019  50.238   1.674 -0.27 -0.02    +0.115 C 
DOCKED: BRANCH  40  41
DOCKED: ATOM     41  C   UNL d   1      20.341  48.930   2.026 -0.38 -0.01    +0.139 C 
DOCKED: ATOM     42  O   UNL d   1      19.123  48.851   1.962 -0.41 +0.16    -0.650 OA
DOCKED: BRANCH  41  43
DOCKED: ATOM     43  O   UNL d   1      21.052  47.820   2.326 -0.06 +0.01    -0.776 OA
DOCKED: ATOM     44  H   UNL d   1      21.805  47.833   2.931 +0.08 +0.00    +0.167 HD
DOCKED: ENDBRANCH  41  43
DOCKED: ENDBRANCH  40  41
DOCKED: ENDBRANCH  39  40
DOCKED: ENDBRANCH  22  39
DOCKED: BRANCH  12  45
DOCKED: ATOM     45  C   UNL d   1      24.966  41.723  -5.158 -0.21 +0.00    +0.004 C 
DOCKED: ATOM     46  C   UNL d   1      25.282  40.437  -5.022 -0.22 +0.00    +0.012 C 
DOCKED: ENDBRANCH  12  45
DOCKED: BRANCH  17  47
DOCKED: ATOM     47  C   UNL d   1      18.691  46.306  -5.993 -0.26 -0.00    +0.004 C 
DOCKED: ATOM     48  C   UNL d   1      17.462  46.145  -5.497 -0.38 -0.00    +0.012 C 
DOCKED: ENDBRANCH  17  47
DOCKED: TORSDOF 12
DOCKED: TER
DOCKED: ENDMDL
________________________________________________________________________________


	BEGINNING GENETIC ALGORITHM DOCKING 39 of 100
Run: 39 Seed: 1768487711 451933006 [ Run 39 of 100 GA/GALS ]
Beginning LAMARCKIAN GENETIC ALGORITHM (LGA), with a maximum of 25000000 energy evaluations.

Final-Value: -18.098


	FINAL GENETIC ALGORITHM DOCKED STATE
	_______________________________________________


Detailed state:  trans 40.714 28.731 15.724 quatxyzw -0.351612 0.398406 0.845653 -0.050137 center 8.781 34.984 -0.736 ntor 12 -96.4471 131.5803 -47.2335 -111.2059 -80.5714 12.2141 179.8724 137.6857 -17.1797 23.0226 -112.0271 176.8393
State:	 40.714  28.731  15.724  -0.352  0.399  0.847 -174.252    -96.45  131.58  -47.23 -111.21  -80.57   12.21  179.87  137.69  -17.18   23.02 -112.03  176.84

DOCKED: MODEL       39
DOCKED: USER    Run = 39
DOCKED: USER    DPF = D:/Protein_go_brrr/autodock/final/6BB5/heme_Co/dock.dpf
DOCKED: USER  
DOCKED: USER    Estimated Free Energy of Binding    =  -13.31 kcal/mol  [=(1)+(2)+(3)-(4)]
DOCKED: USER    Estimated Inhibition Constant, Ki   =  175.76 pM (picomolar)  [Temperature = 298.15 K]
DOCKED: USER    
DOCKED: USER    (1) Final Intermolecular Energy     =  -16.89 kcal/mol
DOCKED: USER        vdW + Hbond + desolv Energy     =  -15.30 kcal/mol
DOCKED: USER        Electrostatic Energy            =   -1.59 kcal/mol
DOCKED: USER    (2) Final Total Internal Energy     =   -1.21 kcal/mol
DOCKED: USER    (3) Torsional Free Energy           =   +3.58 kcal/mol
DOCKED: USER    (4) Unbound System's Energy  [=(2)] =   -1.21 kcal/mol
DOCKED: USER    
DOCKED: USER    
DOCKED: USER    NEWDPF move heme_Co_opt.pdbqt
DOCKED: USER    NEWDPF about 8.781000 34.984000 -0.736000
DOCKED: USER    NEWDPF tran0 40.713671 28.731145 15.723959
DOCKED: USER    NEWDPF quaternion0 -0.351612 0.398406 0.845653 -0.050137
DOCKED: USER    NEWDPF axisangle0 -0.352055 0.398907 0.846717 -174.252270
DOCKED: USER    NEWDPF quat0 -0.352055 0.398907 0.846717 -174.252270
DOCKED: USER    NEWDPF dihe0 -96.45 131.58 -47.23 -111.21 -80.57 12.21 179.87 137.69 -17.18 23.02 -112.03 176.84 
DOCKED: USER  keepresnum = 1 
DOCKED: USER  
DOCKED: REMARK  12 active torsions:
DOCKED: REMARK  status: ('A' for Active; 'I' for Inactive)
DOCKED: REMARK    1  A    between atoms: C_6  and  C_10 
DOCKED: REMARK    2  A    between atoms: C_10  and  C_11 
DOCKED: REMARK    3  A    between atoms: C_11  and  C_12 
DOCKED: REMARK    4  A    between atoms: C_12  and  O_14 
DOCKED: REMARK    5  A    between atoms: C_17  and  C_20 
DOCKED: REMARK    6  A    between atoms: C_24  and  C_27 
DOCKED: REMARK    7  A    between atoms: C_31  and  C_34 
DOCKED: REMARK    8  A    between atoms: C_34  and  C_35 
DOCKED: REMARK    9  A    between atoms: C_35  and  C_36 
DOCKED: REMARK   10  A    between atoms: C_36  and  O_38 
DOCKED: REMARK   11  A    between atoms: FE_43  and  C_44 
DOCKED: REMARK   12  A    between atoms: C_44  and  O_45 
DOCKED: USER                              x       y       z     vdW  Elec       q    Type
DOCKED: USER                           _______ _______ _______ _____ _____    ______ ____
DOCKED: ROOT
DOCKED: ATOM      1  C   UNL d   1      42.450  28.168  16.901 -0.15 +0.02    +0.064 A 
DOCKED: ATOM      2  C   UNL d   1      40.407  32.373  16.029 -0.46 +0.01    +0.064 C 
DOCKED: ATOM      3  C   UNL d   1      37.344  30.300  13.004 -0.32 +0.01    +0.064 A 
DOCKED: ATOM      4  C   UNL d   1      39.162  25.941  14.171 -0.41 +0.01    +0.064 A 
DOCKED: ATOM      5  C   UNL d   1      42.140  29.475  16.857 -0.26 +0.01    +0.066 A 
DOCKED: ATOM      6  C   UNL d   1      42.783  30.423  17.677 -0.35 -0.00    -0.021 A 
DOCKED: ATOM      7  C   UNL d   1      42.171  31.637  17.437 -0.43 -0.00    -0.025 A 
DOCKED: ATOM      8  C   UNL d   1      41.193  31.382  16.469 -0.37 +0.01    +0.066 A 
DOCKED: ATOM      9  C   UNL d   1      42.482  32.995  18.085 -0.44 +0.00    +0.051 C 
DOCKED: ATOM     10  C   UNL d   1      39.393  32.211  15.017 -0.37 +0.01    +0.066 A 
DOCKED: ATOM     11  C   UNL d   1      38.633  33.235  14.412 -0.39 -0.00    -0.021 A 
DOCKED: ATOM     12  C   UNL d   1      37.751  32.603  13.532 -0.39 +0.00    +0.000 A 
DOCKED: ATOM     13  C   UNL d   1      38.046  31.245  13.655 -0.38 +0.01    +0.070 A 
DOCKED: ATOM     14  C   UNL d   1      38.821  34.718  14.606 -0.52 +0.00    +0.052 C 
DOCKED: ATOM     15  C   UNL d   1      37.477  28.858  13.055 -0.41 +0.01    +0.066 A 
DOCKED: ATOM     16  C   UNL d   1      36.626  27.931  12.470 -0.54 -0.00    -0.021 A 
DOCKED: ATOM     17  C   UNL d   1      37.144  26.672  12.806 -0.47 +0.00    +0.000 A 
DOCKED: ATOM     18  C   UNL d   1      38.286  26.932  13.558 -0.38 +0.01    +0.070 A 
DOCKED: ATOM     19  C   UNL d   1      35.400  28.263  11.649 -0.51 +0.00    +0.052 C 
DOCKED: ATOM     20  C   UNL d   1      40.226  26.169  14.977 -0.40 +0.01    +0.066 A 
DOCKED: ATOM     21  C   UNL d   1      40.970  25.133  15.537 -0.42 -0.00    -0.025 A 
DOCKED: ATOM     22  C   UNL d   1      41.943  25.745  16.306 -0.37 -0.00    -0.021 A 
DOCKED: ATOM     23  C   UNL d   1      41.735  27.136  16.186 -0.33 +0.01    +0.066 A 
DOCKED: ATOM     24  C   UNL d   1      40.753  23.632  15.365 -0.54 +0.01    +0.051 C 
DOCKED: ATOM     25  N   UNL d   1      41.156  30.051  16.087 +0.03 -0.06    -0.248 N 
DOCKED: ATOM     26  N   UNL d   1      39.077  31.014  14.511 -0.21 -0.04    -0.248 N 
DOCKED: ATOM     27  N   UNL d   1      38.436  28.243  13.711 -0.20 -0.05    -0.248 N 
DOCKED: ATOM     28  N   UNL d   1      40.695  27.397  15.384 -0.19 -0.06    -0.248 N 
DOCKED: ATOM     29 FE   UNL d   1      39.717  29.090  14.829 -0.08 +0.00    +0.000 Fe
DOCKED: ENDROOT
DOCKED: BRANCH   6  30
DOCKED: ATOM     30  C   UNL d   1      43.878  30.146  18.702 -0.33 +0.02    +0.052 C 
DOCKED: BRANCH  30  31
DOCKED: ATOM     31  C   UNL d   1      43.758  28.722  19.244 -0.04 +0.06    +0.115 C 
DOCKED: BRANCH  31  32
DOCKED: ATOM     32  C   UNL d   1      45.040  28.240  19.888 -0.20 +0.12    +0.139 C 
DOCKED: ATOM     33  O   UNL d   1      45.594  28.940  20.723 -0.14 -0.78    -0.650 OA
DOCKED: BRANCH  32  34
DOCKED: ATOM     34  O   UNL d   1      45.574  27.029  19.605 +0.06 -0.53    -0.776 OA
DOCKED: ATOM     35  H   UNL d   1      45.485  26.250  20.171 +0.05 +0.13    +0.167 HD
DOCKED: ENDBRANCH  32  34
DOCKED: ENDBRANCH  31  32
DOCKED: ENDBRANCH  30  31
DOCKED: ENDBRANCH   6  30
DOCKED: BRANCH  29  36
DOCKED: ATOM     36  C   UNL d   1      38.488  28.963  16.523 -0.10 +0.05    +0.190 C 
DOCKED: BRANCH  36  37
DOCKED: ATOM     37  O   UNL d   1      37.567  28.135  17.171 -0.61 -0.10    -0.399 OA
DOCKED: ATOM     38  H   UNL d   1      37.718  27.229  16.781 +0.12 +0.05    +0.209 HD
DOCKED: ENDBRANCH  36  37
DOCKED: ENDBRANCH  29  36
DOCKED: BRANCH  22  39
DOCKED: ATOM     39  C   UNL d   1      42.972  25.026  17.159 -0.33 +0.01    +0.052 C 
DOCKED: BRANCH  39  40
DOCKED: ATOM     40  C   UNL d   1      42.365  24.616  18.511 -0.37 +0.03    +0.115 C 
DOCKED: BRANCH  40  41
DOCKED: ATOM     41  C   UNL d   1      43.385  24.277  19.576 -0.30 +0.05    +0.139 C 
DOCKED: ATOM     42  O   UNL d   1      43.858  23.150  19.616 -0.40 -0.28    -0.650 OA
DOCKED: BRANCH  41  43
DOCKED: ATOM     43  O   UNL d   1      43.855  25.211  20.433 +0.04 -0.47    -0.776 OA
DOCKED: ATOM     44  H   UNL d   1      44.073  26.110  20.153 +0.06 +0.12    +0.167 HD
DOCKED: ENDBRANCH  41  43
DOCKED: ENDBRANCH  40  41
DOCKED: ENDBRANCH  39  40
DOCKED: ENDBRANCH  22  39
DOCKED: BRANCH  12  45
DOCKED: ATOM     45  C   UNL d   1      36.683  33.125  12.580 -0.54 +0.00    +0.004 C 
DOCKED: ATOM     46  C   UNL d   1      35.373  32.895  12.539 -0.66 +0.00    +0.012 C 
DOCKED: ENDBRANCH  12  45
DOCKED: BRANCH  17  47
DOCKED: ATOM     47  C   UNL d   1      36.611  25.310  12.507 -0.65 +0.00    +0.004 C 
DOCKED: ATOM     48  C   UNL d   1      35.963  24.559  13.401 -0.71 +0.00    +0.012 C 
DOCKED: ENDBRANCH  17  47
DOCKED: TORSDOF 12
DOCKED: TER
DOCKED: ENDMDL
________________________________________________________________________________


	BEGINNING GENETIC ALGORITHM DOCKING 40 of 100
Run: 40 Seed: 1325407970 1797101623 [ Run 40 of 100 GA/GALS ]
Beginning LAMARCKIAN GENETIC ALGORITHM (LGA), with a maximum of 25000000 energy evaluations.

Final-Value: -15.319


	FINAL GENETIC ALGORITHM DOCKED STATE
	_______________________________________________


Detailed state:  trans 40.009 30.548 15.503 quatxyzw -0.542583 0.445903 0.460701 0.542705 center 8.781 34.984 -0.736 ntor 12 90.4101 114.1237 104.9514 -96.3107 -64.3911 -72.0153 -175.0966 180.0000 66.9533 69.8368 33.7124 -48.4299
State:	 40.009  30.548  15.503  -0.646  0.531  0.549 114.264     90.41  114.12  104.95  -96.31  -64.39  -72.02 -175.10  180.00   66.95   69.84   33.71  -48.43

DOCKED: MODEL       40
DOCKED: USER    Run = 40
DOCKED: USER    DPF = D:/Protein_go_brrr/autodock/final/6BB5/heme_Co/dock.dpf
DOCKED: USER  
DOCKED: USER    Estimated Free Energy of Binding    =  -11.01 kcal/mol  [=(1)+(2)+(3)-(4)]
DOCKED: USER    Estimated Inhibition Constant, Ki   =    8.45 nM (nanomolar)  [Temperature = 298.15 K]
DOCKED: USER    
DOCKED: USER    (1) Final Intermolecular Energy     =  -14.59 kcal/mol
DOCKED: USER        vdW + Hbond + desolv Energy     =  -14.21 kcal/mol
DOCKED: USER        Electrostatic Energy            =   -0.38 kcal/mol
DOCKED: USER    (2) Final Total Internal Energy     =   -0.73 kcal/mol
DOCKED: USER    (3) Torsional Free Energy           =   +3.58 kcal/mol
DOCKED: USER    (4) Unbound System's Energy  [=(2)] =   -0.73 kcal/mol
DOCKED: USER    
DOCKED: USER    
DOCKED: USER    NEWDPF move heme_Co_opt.pdbqt
DOCKED: USER    NEWDPF about 8.781000 34.984000 -0.736000
DOCKED: USER    NEWDPF tran0 40.008910 30.548321 15.502733
DOCKED: USER    NEWDPF quaternion0 -0.542583 0.445903 0.460701 0.542705
DOCKED: USER    NEWDPF axisangle0 -0.645991 0.530885 0.548504 114.264118
DOCKED: USER    NEWDPF quat0 -0.645991 0.530885 0.548504 114.264118
DOCKED: USER    NEWDPF dihe0 90.41 114.12 104.95 -96.31 -64.39 -72.02 -175.10 180.00 66.95 69.84 33.71 -48.43 
DOCKED: USER  keepresnum = 1 
DOCKED: USER  
DOCKED: REMARK  12 active torsions:
DOCKED: REMARK  status: ('A' for Active; 'I' for Inactive)
DOCKED: REMARK    1  A    between atoms: C_6  and  C_10 
DOCKED: REMARK    2  A    between atoms: C_10  and  C_11 
DOCKED: REMARK    3  A    between atoms: C_11  and  C_12 
DOCKED: REMARK    4  A    between atoms: C_12  and  O_14 
DOCKED: REMARK    5  A    between atoms: C_17  and  C_20 
DOCKED: REMARK    6  A    between atoms: C_24  and  C_27 
DOCKED: REMARK    7  A    between atoms: C_31  and  C_34 
DOCKED: REMARK    8  A    between atoms: C_34  and  C_35 
DOCKED: REMARK    9  A    between atoms: C_35  and  C_36 
DOCKED: REMARK   10  A    between atoms: C_36  and  O_38 
DOCKED: REMARK   11  A    between atoms: FE_43  and  C_44 
DOCKED: REMARK   12  A    between atoms: C_44  and  O_45 
DOCKED: USER                              x       y       z     vdW  Elec       q    Type
DOCKED: USER                           _______ _______ _______ _____ _____    ______ ____
DOCKED: ROOT
DOCKED: ATOM      1  C   UNL d   1      40.509  32.597  16.021 -0.41 +0.01    +0.064 A 
DOCKED: ATOM      2  C   UNL d   1      37.015  30.728  13.392 -0.05 +0.01    +0.064 C 
DOCKED: ATOM      3  C   UNL d   1      38.915  26.373  13.895 -0.39 +0.01    +0.064 A 
DOCKED: ATOM      4  C   UNL d   1      42.275  28.200  16.900 -0.03 +0.02    +0.064 A 
DOCKED: ATOM      5  C   UNL d   1      39.435  32.412  15.236 -0.38 +0.01    +0.066 A 
DOCKED: ATOM      6  C   UNL d   1      38.556  33.463  14.911 -0.42 -0.00    -0.021 A 
DOCKED: ATOM      7  C   UNL d   1      37.532  32.911  14.167 -0.38 -0.00    -0.025 A 
DOCKED: ATOM      8  C   UNL d   1      37.838  31.550  14.056 -0.33 +0.01    +0.066 A 
DOCKED: ATOM      9  C   UNL d   1      36.306  33.624  13.577 -0.50 +0.00    +0.051 C 
DOCKED: ATOM     10  C   UNL d   1      37.260  29.320  13.203 -0.36 +0.01    +0.066 A 
DOCKED: ATOM     11  C   UNL d   1      36.510  28.434  12.401 -0.55 -0.00    -0.021 A 
DOCKED: ATOM     12  C   UNL d   1      37.088  27.172  12.562 -0.50 +0.00    +0.000 A 
DOCKED: ATOM     13  C   UNL d   1      38.153  27.383  13.439 -0.38 +0.01    +0.070 A 
DOCKED: ATOM     14  C   UNL d   1      35.381  28.807  11.475 -0.37 +0.00    +0.052 C 
DOCKED: ATOM     15  C   UNL d   1      40.015  26.404  14.838 -0.39 +0.01    +0.066 A 
DOCKED: ATOM     16  C   UNL d   1      40.667  25.305  15.378 -0.41 -0.00    -0.021 A 
DOCKED: ATOM     17  C   UNL d   1      41.636  25.827  16.248 -0.39 +0.00    +0.000 A 
DOCKED: ATOM     18  C   UNL d   1      41.509  27.209  16.156 -0.32 +0.01    +0.070 A 
DOCKED: ATOM     19  C   UNL d   1      40.358  23.859  15.062 -0.54 +0.01    +0.052 C 
DOCKED: ATOM     20  C   UNL d   1      42.111  29.545  16.893 -0.27 +0.01    +0.066 A 
DOCKED: ATOM     21  C   UNL d   1      42.887  30.393  17.680 -0.34 -0.01    -0.025 A 
DOCKED: ATOM     22  C   UNL d   1      42.420  31.670  17.425 -0.42 -0.00    -0.021 A 
DOCKED: ATOM     23  C   UNL d   1      41.366  31.535  16.497 -0.38 +0.01    +0.066 A 
DOCKED: ATOM     24  C   UNL d   1      44.006  30.005  18.643 -0.31 +0.02    +0.051 C 
DOCKED: ATOM     25  N   UNL d   1      39.015  31.214  14.703 -0.23 -0.03    -0.248 N 
DOCKED: ATOM     26  N   UNL d   1      38.289  28.692  13.782 -0.20 -0.05    -0.248 N 
DOCKED: ATOM     27  N   UNL d   1      40.514  27.516  15.331 -0.18 -0.07    -0.248 N 
DOCKED: ATOM     28  N   UNL d   1      41.174  30.250  16.174 -0.08 -0.06    -0.248 N 
DOCKED: ATOM     29 FE   UNL d   1      39.811  29.257  15.038 -0.02 +0.00    +0.000 Fe
DOCKED: ENDROOT
DOCKED: BRANCH   6  30
DOCKED: ATOM     30  C   UNL d   1      38.664  34.913  15.370 -0.57 +0.00    +0.052 C 
DOCKED: BRANCH  30  31
DOCKED: ATOM     31  C   UNL d   1      38.843  35.845  14.172 -0.40 +0.01    +0.115 C 
DOCKED: BRANCH  31  32
DOCKED: ATOM     32  C   UNL d   1      40.188  36.538  14.175 -0.54 +0.01    +0.139 C 
DOCKED: ATOM     33  O   UNL d   1      41.209  35.869  14.228 +0.02 -0.07    -0.650 OA
DOCKED: BRANCH  32  34
DOCKED: ATOM     34  O   UNL d   1      40.303  37.883  14.072 +0.02 -0.02    -0.776 OA
DOCKED: ATOM     35  H   UNL d   1      40.262  38.491  14.823 -0.05 -0.02    +0.167 HD
DOCKED: ENDBRANCH  32  34
DOCKED: ENDBRANCH  31  32
DOCKED: ENDBRANCH  30  31
DOCKED: ENDBRANCH   6  30
DOCKED: BRANCH  29  36
DOCKED: ATOM     36  C   UNL d   1      38.507  29.128  16.673 -0.06 +0.05    +0.190 C 
DOCKED: BRANCH  36  37
DOCKED: ATOM     37  O   UNL d   1      37.575  28.287  17.292 -0.55 -0.10    -0.399 OA
DOCKED: ATOM     38  H   UNL d   1      37.562  27.462  16.732 +0.12 +0.04    +0.209 HD
DOCKED: ENDBRANCH  36  37
DOCKED: ENDBRANCH  29  36
DOCKED: BRANCH  22  39
DOCKED: ATOM     39  C   UNL d   1      42.920  32.938  18.090 -0.45 +0.01    +0.052 C 
DOCKED: BRANCH  39  40
DOCKED: ATOM     40  C   UNL d   1      44.448  33.052  17.963 -0.13 +0.02    +0.115 C 
DOCKED: BRANCH  40  41
DOCKED: ATOM     41  C   UNL d   1      45.191  33.002  19.282 -0.24 +0.03    +0.139 C 
DOCKED: ATOM     42  O   UNL d   1      44.746  33.615  20.242 -0.03 -0.11    -0.650 OA
DOCKED: BRANCH  41  43
DOCKED: ATOM     43  O   UNL d   1      46.285  32.228  19.452 +0.05 -0.21    -0.776 OA
DOCKED: ATOM     44  H   UNL d   1      47.170  32.599  19.571 +0.04 +0.04    +0.167 HD
DOCKED: ENDBRANCH  41  43
DOCKED: ENDBRANCH  40  41
DOCKED: ENDBRANCH  39  40
DOCKED: ENDBRANCH  22  39
DOCKED: BRANCH  12  45
DOCKED: ATOM     45  C   UNL d   1      36.771  25.801  11.978 -0.39 +0.00    +0.004 C 
DOCKED: ATOM     46  C   UNL d   1      36.186  24.740  12.527 -0.70 +0.00    +0.012 C 
DOCKED: ENDBRANCH  12  45
DOCKED: BRANCH  17  47
DOCKED: ATOM     47  C   UNL d   1      42.590  25.116  17.150 -0.39 +0.00    +0.004 C 
DOCKED: ATOM     48  C   UNL d   1      42.281  24.724  18.389 -0.43 +0.00    +0.012 C 
DOCKED: ENDBRANCH  17  47
DOCKED: TORSDOF 12
DOCKED: TER
DOCKED: ENDMDL
________________________________________________________________________________


	BEGINNING GENETIC ALGORITHM DOCKING 41 of 100
Run: 41 Seed: 1182794168 1331349562 [ Run 41 of 100 GA/GALS ]
Beginning LAMARCKIAN GENETIC ALGORITHM (LGA), with a maximum of 25000000 energy evaluations.

Final-Value: -11.100


	FINAL GENETIC ALGORITHM DOCKED STATE
	_______________________________________________


Detailed state:  trans 23.907 16.434 15.543 quatxyzw -0.690282 0.171660 0.692160 -0.122299 center 8.781 34.984 -0.736 ntor 12 39.6145 155.9425 -3.6781 14.1404 135.9701 -89.0776 51.4603 -0.6596 119.0860 112.1797 13.8710 15.4151
State:	 23.907  16.434  15.543  -0.696  0.173  0.697 -165.950     39.61  155.94   -3.68   14.14  135.97  -89.08   51.46   -0.66  119.09  112.18   13.87   15.42

DOCKED: MODEL       41
DOCKED: USER    Run = 41
DOCKED: USER    DPF = D:/Protein_go_brrr/autodock/final/6BB5/heme_Co/dock.dpf
DOCKED: USER  
DOCKED: USER    Estimated Free Energy of Binding    =   -6.80 kcal/mol  [=(1)+(2)+(3)-(4)]
DOCKED: USER    Estimated Inhibition Constant, Ki   =   10.38 uM (micromolar)  [Temperature = 298.15 K]
DOCKED: USER    
DOCKED: USER    (1) Final Intermolecular Energy     =  -10.38 kcal/mol
DOCKED: USER        vdW + Hbond + desolv Energy     =   -7.33 kcal/mol
DOCKED: USER        Electrostatic Energy            =   -3.04 kcal/mol
DOCKED: USER    (2) Final Total Internal Energy     =   -0.72 kcal/mol
DOCKED: USER    (3) Torsional Free Energy           =   +3.58 kcal/mol
DOCKED: USER    (4) Unbound System's Energy  [=(2)] =   -0.72 kcal/mol
DOCKED: USER    
DOCKED: USER    
DOCKED: USER    NEWDPF move heme_Co_opt.pdbqt
DOCKED: USER    NEWDPF about 8.781000 34.984000 -0.736000
DOCKED: USER    NEWDPF tran0 23.907167 16.434046 15.543385
DOCKED: USER    NEWDPF quaternion0 -0.690282 0.171660 0.692160 -0.122299
DOCKED: USER    NEWDPF axisangle0 -0.695503 0.172959 0.697396 -165.950402
DOCKED: USER    NEWDPF quat0 -0.695503 0.172959 0.697396 -165.950402
DOCKED: USER    NEWDPF dihe0 39.61 155.94 -3.68 14.14 135.97 -89.08 51.46 -0.66 119.09 112.18 13.87 15.42 
DOCKED: USER  keepresnum = 1 
DOCKED: USER  
DOCKED: REMARK  12 active torsions:
DOCKED: REMARK  status: ('A' for Active; 'I' for Inactive)
DOCKED: REMARK    1  A    between atoms: C_6  and  C_10 
DOCKED: REMARK    2  A    between atoms: C_10  and  C_11 
DOCKED: REMARK    3  A    between atoms: C_11  and  C_12 
DOCKED: REMARK    4  A    between atoms: C_12  and  O_14 
DOCKED: REMARK    5  A    between atoms: C_17  and  C_20 
DOCKED: REMARK    6  A    between atoms: C_24  and  C_27 
DOCKED: REMARK    7  A    between atoms: C_31  and  C_34 
DOCKED: REMARK    8  A    between atoms: C_34  and  C_35 
DOCKED: REMARK    9  A    between atoms: C_35  and  C_36 
DOCKED: REMARK   10  A    between atoms: C_36  and  O_38 
DOCKED: REMARK   11  A    between atoms: FE_43  and  C_44 
DOCKED: REMARK   12  A    between atoms: C_44  and  O_45 
DOCKED: USER                              x       y       z     vdW  Elec       q    Type
DOCKED: USER                           _______ _______ _______ _____ _____    ______ ____
DOCKED: ROOT
DOCKED: ATOM      1  C   UNL d   1      24.514  15.765  17.518 -0.12 +0.03    +0.064 A 
DOCKED: ATOM      2  C   UNL d   1      22.161  19.621  16.035 -0.36 +0.01    +0.064 C 
DOCKED: ATOM      3  C   UNL d   1      22.835  18.329  11.485 -0.14 +0.01    +0.064 A 
DOCKED: ATOM      4  C   UNL d   1      24.904  14.188  12.981 -0.07 +0.02    +0.064 A 
DOCKED: ATOM      5  C   UNL d   1      23.853  16.932  17.446 -0.18 +0.02    +0.066 A 
DOCKED: ATOM      6  C   UNL d   1      23.402  17.608  18.597 -0.20 -0.00    -0.021 A 
DOCKED: ATOM      7  C   UNL d   1      22.700  18.714  18.160 -0.25 -0.00    -0.025 A 
DOCKED: ATOM      8  C   UNL d   1      22.767  18.675  16.763 -0.27 +0.01    +0.066 A 
DOCKED: ATOM      9  C   UNL d   1      21.988  19.775  19.013 -0.23 -0.01    +0.051 C 
DOCKED: ATOM     10  C   UNL d   1      22.198  19.679  14.595 -0.37 +0.01    +0.066 A 
DOCKED: ATOM     11  C   UNL d   1      21.702  20.719  13.779 -0.35 -0.00    -0.021 A 
DOCKED: ATOM     12  C   UNL d   1      21.916  20.318  12.457 -0.36 +0.00    +0.000 A 
DOCKED: ATOM     13  C   UNL d   1      22.534  19.072  12.564 -0.25 +0.02    +0.070 A 
DOCKED: ATOM     14  C   UNL d   1      21.155  22.041  14.253 -0.51 -0.00    +0.052 C 
DOCKED: ATOM     15  C   UNL d   1      23.424  17.006  11.414 -0.10 +0.02    +0.066 A 
DOCKED: ATOM     16  C   UNL d   1      23.575  16.232  10.272 -0.05 -0.00    -0.021 A 
DOCKED: ATOM     17  C   UNL d   1      24.169  15.036  10.699 -0.04 +0.00    +0.000 A 
DOCKED: ATOM     18  C   UNL d   1      24.350  15.182  12.070 -0.07 +0.02    +0.070 A 
DOCKED: ATOM     19  C   UNL d   1      23.165  16.641   8.875 -0.02 +0.01    +0.052 C 
DOCKED: ATOM     20  C   UNL d   1      25.010  14.274  14.329 -0.08 +0.02    +0.066 A 
DOCKED: ATOM     21  C   UNL d   1      25.528  13.236  15.101 -0.05 -0.01    -0.025 A 
DOCKED: ATOM     22  C   UNL d   1      25.455  13.674  16.411 -0.06 -0.01    -0.021 A 
DOCKED: ATOM     23  C   UNL d   1      24.880  14.962  16.373 -0.09 +0.03    +0.066 A 
DOCKED: ATOM     24  C   UNL d   1      26.048  11.885  14.617 -0.02 +0.01    +0.051 C 
DOCKED: ATOM     25  N   UNL d   1      23.480  17.585  16.294 -0.14 -0.09    -0.248 N 
DOCKED: ATOM     26  N   UNL d   1      22.755  18.713  13.857 -0.19 -0.08    -0.248 N 
DOCKED: ATOM     27  N   UNL d   1      23.867  16.355  12.466 -0.07 -0.07    -0.248 N 
DOCKED: ATOM     28  N   UNL d   1      24.607  15.328  15.115 -0.02 -0.10    -0.248 N 
DOCKED: ATOM     29 FE   UNL d   1      23.687  16.931  14.267 -0.05 +0.00    +0.000 Fe
DOCKED: ENDROOT
DOCKED: BRANCH   6  30
DOCKED: ATOM     30  C   UNL d   1      23.574  17.155  20.043 -0.13 +0.01    +0.052 C 
DOCKED: BRANCH  30  31
DOCKED: ATOM     31  C   UNL d   1      24.766  17.861  20.689 -0.14 +0.04    +0.115 C 
DOCKED: BRANCH  31  32
DOCKED: ATOM     32  C   UNL d   1      26.075  17.522  20.010 -0.22 +0.14    +0.139 C 
DOCKED: ATOM     33  O   UNL d   1      26.615  16.451  20.247 -0.01 -1.06    -0.650 OA
DOCKED: BRANCH  32  34
DOCKED: ATOM     34  O   UNL d   1      26.650  18.348  19.106 -0.47 -0.95    -0.776 OA
DOCKED: ATOM     35  H   UNL d   1      26.621  19.314  19.156 -0.24 +0.09    +0.167 HD
DOCKED: ENDBRANCH  32  34
DOCKED: ENDBRANCH  31  32
DOCKED: ENDBRANCH  30  31
DOCKED: ENDBRANCH   6  30
DOCKED: BRANCH  29  36
DOCKED: ATOM     36  C   UNL d   1      21.819  16.007  14.493 -0.11 +0.13    +0.190 C 
DOCKED: BRANCH  36  37
DOCKED: ATOM     37  O   UNL d   1      20.502  16.027  14.023 -0.07 -0.41    -0.399 OA
DOCKED: ATOM     38  H   UNL d   1      20.585  16.125  13.033 +0.04 +0.13    +0.209 HD
DOCKED: ENDBRANCH  36  37
DOCKED: ENDBRANCH  29  36
DOCKED: BRANCH  22  39
DOCKED: ATOM     39  C   UNL d   1      25.856  12.867  17.632 -0.03 +0.02    +0.052 C 
DOCKED: BRANCH  39  40
DOCKED: ATOM     40  C   UNL d   1      27.027  13.540  18.366 -0.08 +0.09    +0.115 C 
DOCKED: BRANCH  40  41
DOCKED: ATOM     41  C   UNL d   1      28.361  13.415  17.661 -0.08 +0.12    +0.139 C 
DOCKED: ATOM     42  O   UNL d   1      29.102  14.387  17.605 -0.22 -0.99    -0.650 OA
DOCKED: BRANCH  41  43
DOCKED: ATOM     43  O   UNL d   1      28.796  12.235  17.167 +0.03 -0.33    -0.776 OA
DOCKED: ATOM     44  H   UNL d   1      28.264  11.429  17.204 +0.01 +0.05    +0.167 HD
DOCKED: ENDBRANCH  41  43
DOCKED: ENDBRANCH  40  41
DOCKED: ENDBRANCH  39  40
DOCKED: ENDBRANCH  22  39
DOCKED: BRANCH  12  45
DOCKED: ATOM     45  C   UNL d   1      21.625  20.973  11.113 -0.38 +0.00    +0.004 C 
DOCKED: ATOM     46  C   UNL d   1      21.160  22.185  10.824 -0.49 +0.00    +0.012 C 
DOCKED: ENDBRANCH  12  45
DOCKED: BRANCH  17  47
DOCKED: ATOM     47  C   UNL d   1      24.509  13.808   9.919 -0.02 +0.00    +0.004 C 
DOCKED: ATOM     48  C   UNL d   1      25.759  13.387   9.715 -0.03 +0.00    +0.012 C 
DOCKED: ENDBRANCH  17  47
DOCKED: TORSDOF 12
DOCKED: TER
DOCKED: ENDMDL
________________________________________________________________________________


	BEGINNING GENETIC ALGORITHM DOCKING 42 of 100
Run: 42 Seed: 1867625279 1380144327 [ Run 42 of 100 GA/GALS ]
Beginning LAMARCKIAN GENETIC ALGORITHM (LGA), with a maximum of 25000000 energy evaluations.

Final-Value: -18.444


	FINAL GENETIC ALGORITHM DOCKED STATE
	_______________________________________________


Detailed state:  trans 40.759 28.802 15.790 quatxyzw -0.318823 0.396736 0.857285 -0.077554 center 8.781 34.984 -0.736 ntor 12 32.7970 86.7318 -133.7388 -97.2670 -98.8747 9.2587 165.2775 156.2686 -14.3351 26.0053 -149.0888 180.0000
State:	 40.759  28.802  15.790  -0.320  0.398  0.860 -171.104     32.80   86.73 -133.74  -97.27  -98.87    9.26  165.28  156.27  -14.34   26.01 -149.09  180.00

DOCKED: MODEL       42
DOCKED: USER    Run = 42
DOCKED: USER    DPF = D:/Protein_go_brrr/autodock/final/6BB5/heme_Co/dock.dpf
DOCKED: USER  
DOCKED: USER    Estimated Free Energy of Binding    =  -13.23 kcal/mol  [=(1)+(2)+(3)-(4)]
DOCKED: USER    Estimated Inhibition Constant, Ki   =  199.46 pM (picomolar)  [Temperature = 298.15 K]
DOCKED: USER    
DOCKED: USER    (1) Final Intermolecular Energy     =  -16.81 kcal/mol
DOCKED: USER        vdW + Hbond + desolv Energy     =  -14.72 kcal/mol
DOCKED: USER        Electrostatic Energy            =   -2.09 kcal/mol
DOCKED: USER    (2) Final Total Internal Energy     =   -1.63 kcal/mol
DOCKED: USER    (3) Torsional Free Energy           =   +3.58 kcal/mol
DOCKED: USER    (4) Unbound System's Energy  [=(2)] =   -1.63 kcal/mol
DOCKED: USER    
DOCKED: USER    
DOCKED: USER    NEWDPF move heme_Co_opt.pdbqt
DOCKED: USER    NEWDPF about 8.781000 34.984000 -0.736000
DOCKED: USER    NEWDPF tran0 40.759326 28.802028 15.789773
DOCKED: USER    NEWDPF quaternion0 -0.318823 0.396736 0.857285 -0.077554
DOCKED: USER    NEWDPF axisangle0 -0.319786 0.397934 0.859875 -171.104084
DOCKED: USER    NEWDPF quat0 -0.319786 0.397934 0.859875 -171.104084
DOCKED: USER    NEWDPF dihe0 32.80 86.73 -133.74 -97.27 -98.87 9.26 165.28 156.27 -14.34 26.01 -149.09 180.00 
DOCKED: USER  keepresnum = 1 
DOCKED: USER  
DOCKED: REMARK  12 active torsions:
DOCKED: REMARK  status: ('A' for Active; 'I' for Inactive)
DOCKED: REMARK    1  A    between atoms: C_6  and  C_10 
DOCKED: REMARK    2  A    between atoms: C_10  and  C_11 
DOCKED: REMARK    3  A    between atoms: C_11  and  C_12 
DOCKED: REMARK    4  A    between atoms: C_12  and  O_14 
DOCKED: REMARK    5  A    between atoms: C_17  and  C_20 
DOCKED: REMARK    6  A    between atoms: C_24  and  C_27 
DOCKED: REMARK    7  A    between atoms: C_31  and  C_34 
DOCKED: REMARK    8  A    between atoms: C_34  and  C_35 
DOCKED: REMARK    9  A    between atoms: C_35  and  C_36 
DOCKED: REMARK   10  A    between atoms: C_36  and  O_38 
DOCKED: REMARK   11  A    between atoms: FE_43  and  C_44 
DOCKED: REMARK   12  A    between atoms: C_44  and  O_45 
DOCKED: USER                              x       y       z     vdW  Elec       q    Type
DOCKED: USER                           _______ _______ _______ _____ _____    ______ ____
DOCKED: ROOT
DOCKED: ATOM      1  C   UNL d   1      42.497  28.078  16.872 -0.18 +0.02    +0.064 A 
DOCKED: ATOM      2  C   UNL d   1      40.724  32.443  16.228 -0.48 +0.01    +0.064 C 
DOCKED: ATOM      3  C   UNL d   1      37.402  30.698  13.270 -0.29 +0.01    +0.064 A 
DOCKED: ATOM      4  C   UNL d   1      38.952  26.185  14.213 -0.39 +0.01    +0.064 A 
DOCKED: ATOM      5  C   UNL d   1      42.280  29.403  16.885 -0.27 +0.01    +0.066 A 
DOCKED: ATOM      6  C   UNL d   1      43.020  30.275  17.708 -0.34 -0.01    -0.021 A 
DOCKED: ATOM      7  C   UNL d   1      42.486  31.536  17.534 -0.41 -0.00    -0.025 A 
DOCKED: ATOM      8  C   UNL d   1      41.455  31.384  16.601 -0.37 +0.01    +0.066 A 
DOCKED: ATOM      9  C   UNL d   1      42.919  32.845  18.214 -0.44 +0.01    +0.051 C 
DOCKED: ATOM     10  C   UNL d   1      39.661  32.388  15.256 -0.39 +0.01    +0.066 A 
DOCKED: ATOM     11  C   UNL d   1      38.952  33.484  14.718 -0.42 -0.00    -0.021 A 
DOCKED: ATOM     12  C   UNL d   1      37.992  32.947  13.856 -0.39 +0.00    +0.000 A 
DOCKED: ATOM     13  C   UNL d   1      38.195  31.568  13.921 -0.37 +0.01    +0.070 A 
DOCKED: ATOM     14  C   UNL d   1      39.251  34.942  14.953 -0.56 +0.00    +0.052 C 
DOCKED: ATOM     15  C   UNL d   1      37.435  29.249  13.267 -0.38 +0.01    +0.066 A 
DOCKED: ATOM     16  C   UNL d   1      36.497  28.405  12.689 -0.52 -0.00    -0.021 A 
DOCKED: ATOM     17  C   UNL d   1      36.938  27.103  12.960 -0.48 +0.00    +0.000 A 
DOCKED: ATOM     18  C   UNL d   1      38.124  27.255  13.671 -0.38 +0.01    +0.070 A 
DOCKED: ATOM     19  C   UNL d   1      35.266  28.851  11.932 -0.54 +0.00    +0.052 C 
DOCKED: ATOM     20  C   UNL d   1      40.062  26.309  14.980 -0.39 +0.01    +0.066 A 
DOCKED: ATOM     21  C   UNL d   1      40.752  25.204  15.473 -0.41 -0.00    -0.025 A 
DOCKED: ATOM     22  C   UNL d   1      41.797  25.719  16.219 -0.37 -0.00    -0.021 A 
DOCKED: ATOM     23  C   UNL d   1      41.683  27.124  16.154 -0.33 +0.01    +0.066 A 
DOCKED: ATOM     24  C   UNL d   1      40.423  23.729  15.260 -0.54 +0.01    +0.051 C 
DOCKED: ATOM     25  N   UNL d   1      41.308  30.075  16.177 -0.03 -0.06    -0.248 N 
DOCKED: ATOM     26  N   UNL d   1      39.240  31.235  14.724 -0.23 -0.04    -0.248 N 
DOCKED: ATOM     27  N   UNL d   1      38.373  28.546  13.861 -0.19 -0.05    -0.248 N 
DOCKED: ATOM     28  N   UNL d   1      40.633  27.485  15.407 -0.19 -0.06    -0.248 N 
DOCKED: ATOM     29 FE   UNL d   1      39.755  29.261  14.951 -0.08 +0.00    +0.000 Fe
DOCKED: ENDROOT
DOCKED: BRANCH   6  30
DOCKED: ATOM     30  C   UNL d   1      44.133  29.886  18.674 -0.31 +0.02    +0.052 C 
DOCKED: BRANCH  30  31
DOCKED: ATOM     31  C   UNL d   1      43.585  29.012  19.802 +0.03 +0.08    +0.115 C 
DOCKED: BRANCH  31  32
DOCKED: ATOM     32  C   UNL d   1      44.679  28.284  20.553 +0.08 +0.17    +0.139 C 
DOCKED: ATOM     33  O   UNL d   1      45.754  28.836  20.732 -0.23 -0.78    -0.650 OA
DOCKED: BRANCH  32  34
DOCKED: ATOM     34  O   UNL d   1      44.490  27.052  21.080 -0.07 -1.20    -0.776 OA
DOCKED: ATOM     35  H   UNL d   1      43.875  26.397  20.724 +0.06 +0.16    +0.167 HD
DOCKED: ENDBRANCH  32  34
DOCKED: ENDBRANCH  31  32
DOCKED: ENDBRANCH  30  31
DOCKED: ENDBRANCH   6  30
DOCKED: BRANCH  29  36
DOCKED: ATOM     36  C   UNL d   1      38.590  29.159  16.690 -0.06 +0.05    +0.190 C 
DOCKED: BRANCH  36  37
DOCKED: ATOM     37  O   UNL d   1      37.607  28.396  17.330 -0.50 -0.10    -0.399 OA
DOCKED: ATOM     38  H   UNL d   1      37.116  27.939  16.591 +0.13 +0.04    +0.209 HD
DOCKED: ENDBRANCH  36  37
DOCKED: ENDBRANCH  29  36
DOCKED: BRANCH  22  39
DOCKED: ATOM     39  C   UNL d   1      42.805  24.900  17.003 -0.35 +0.01    +0.052 C 
DOCKED: BRANCH  39  40
DOCKED: ATOM     40  C   UNL d   1      42.199  24.418  18.331 -0.37 +0.03    +0.115 C 
DOCKED: BRANCH  40  41
DOCKED: ATOM     41  C   UNL d   1      43.220  24.030  19.380 -0.31 +0.05    +0.139 C 
DOCKED: ATOM     42  O   UNL d   1      43.944  23.065  19.182 -0.20 -0.25    -0.650 OA
DOCKED: BRANCH  41  43
DOCKED: ATOM     43  O   UNL d   1      43.414  24.774  20.492 +0.05 -0.40    -0.776 OA
DOCKED: ATOM     44  H   UNL d   1      44.286  25.089  20.760 +0.06 +0.11    +0.167 HD
DOCKED: ENDBRANCH  41  43
DOCKED: ENDBRANCH  40  41
DOCKED: ENDBRANCH  39  40
DOCKED: ENDBRANCH  22  39
DOCKED: BRANCH  12  45
DOCKED: ATOM     45  C   UNL d   1      36.926  33.575  12.969 -0.52 +0.00    +0.004 C 
DOCKED: ATOM     46  C   UNL d   1      35.605  33.640  13.115 -0.60 +0.00    +0.012 C 
DOCKED: ENDBRANCH  12  45
DOCKED: BRANCH  17  47
DOCKED: ATOM     47  C   UNL d   1      36.298  25.792  12.640 -0.63 +0.00    +0.004 C 
DOCKED: ATOM     48  C   UNL d   1      35.950  24.895  13.566 -0.68 +0.00    +0.012 C 
DOCKED: ENDBRANCH  17  47
DOCKED: TORSDOF 12
DOCKED: TER
DOCKED: ENDMDL
________________________________________________________________________________


	BEGINNING GENETIC ALGORITHM DOCKING 43 of 100
Run: 43 Seed: 78339128 1329703723 [ Run 43 of 100 GA/GALS ]
Beginning LAMARCKIAN GENETIC ALGORITHM (LGA), with a maximum of 25000000 energy evaluations.

Final-Value: -10.036


	FINAL GENETIC ALGORITHM DOCKED STATE
	_______________________________________________


Detailed state:  trans 5.135 19.863 19.914 quatxyzw 0.225004 0.181080 -0.872689 0.393696 center 8.781 34.984 -0.736 ntor 12 33.4014 117.7569 -118.6744 116.6598 98.3746 119.9412 18.1596 -176.8466 -156.4477 94.4702 178.3459 -179.1105
State:	  5.135  19.863  19.914   0.245  0.197 -0.949 133.631     33.40  117.76 -118.67  116.66   98.37  119.94   18.16 -176.85 -156.45   94.47  178.35 -179.11

DOCKED: MODEL       43
DOCKED: USER    Run = 43
DOCKED: USER    DPF = D:/Protein_go_brrr/autodock/final/6BB5/heme_Co/dock.dpf
DOCKED: USER  
DOCKED: USER    Estimated Free Energy of Binding    =   -3.42 kcal/mol  [=(1)+(2)+(3)-(4)]
DOCKED: USER    Estimated Inhibition Constant, Ki   =    3.11 mM (millimolar)  [Temperature = 298.15 K]
DOCKED: USER    
DOCKED: USER    (1) Final Intermolecular Energy     =   -7.00 kcal/mol
DOCKED: USER        vdW + Hbond + desolv Energy     =   -6.14 kcal/mol
DOCKED: USER        Electrostatic Energy            =   -0.86 kcal/mol
DOCKED: USER    (2) Final Total Internal Energy     =   -3.04 kcal/mol
DOCKED: USER    (3) Torsional Free Energy           =   +3.58 kcal/mol
DOCKED: USER    (4) Unbound System's Energy  [=(2)] =   -3.04 kcal/mol
DOCKED: USER    
DOCKED: USER    
DOCKED: USER    NEWDPF move heme_Co_opt.pdbqt
DOCKED: USER    NEWDPF about 8.781000 34.984000 -0.736000
DOCKED: USER    NEWDPF tran0 5.134756 19.863383 19.914339
DOCKED: USER    NEWDPF quaternion0 0.225004 0.181080 -0.872689 0.393696
DOCKED: USER    NEWDPF axisangle0 0.244772 0.196989 -0.949359 133.630647
DOCKED: USER    NEWDPF quat0 0.244772 0.196989 -0.949359 133.630647
DOCKED: USER    NEWDPF dihe0 33.40 117.76 -118.67 116.66 98.37 119.94 18.16 -176.85 -156.45 94.47 178.35 -179.11 
DOCKED: USER  keepresnum = 1 
DOCKED: USER  
DOCKED: REMARK  12 active torsions:
DOCKED: REMARK  status: ('A' for Active; 'I' for Inactive)
DOCKED: REMARK    1  A    between atoms: C_6  and  C_10 
DOCKED: REMARK    2  A    between atoms: C_10  and  C_11 
DOCKED: REMARK    3  A    between atoms: C_11  and  C_12 
DOCKED: REMARK    4  A    between atoms: C_12  and  O_14 
DOCKED: REMARK    5  A    between atoms: C_17  and  C_20 
DOCKED: REMARK    6  A    between atoms: C_24  and  C_27 
DOCKED: REMARK    7  A    between atoms: C_31  and  C_34 
DOCKED: REMARK    8  A    between atoms: C_34  and  C_35 
DOCKED: REMARK    9  A    between atoms: C_35  and  C_36 
DOCKED: REMARK   10  A    between atoms: C_36  and  O_38 
DOCKED: REMARK   11  A    between atoms: FE_43  and  C_44 
DOCKED: REMARK   12  A    between atoms: C_44  and  O_45 
DOCKED: USER                              x       y       z     vdW  Elec       q    Type
DOCKED: USER                           _______ _______ _______ _____ _____    ______ ____
DOCKED: ROOT
DOCKED: ATOM      1  C   UNL d   1       6.427  18.183  19.444 -0.09 +0.02    +0.064 A 
DOCKED: ATOM      2  C   UNL d   1       5.297  20.292  23.553 -0.18 +0.00    +0.064 C 
DOCKED: ATOM      3  C   UNL d   1       2.804  23.622  21.201 -0.11 +0.00    +0.064 A 
DOCKED: ATOM      4  C   UNL d   1       3.623  21.266  17.025 -0.20 -0.00    +0.064 A 
DOCKED: ATOM      5  C   UNL d   1       6.331  18.535  20.737 -0.23 +0.01    +0.066 A 
DOCKED: ATOM      6  C   UNL d   1       6.883  17.751  21.768 -0.28 -0.00    -0.021 A 
DOCKED: ATOM      7  C   UNL d   1       6.533  18.355  22.959 -0.23 -0.00    -0.025 A 
DOCKED: ATOM      8  C   UNL d   1       5.797  19.491  22.604 -0.21 +0.01    +0.066 A 
DOCKED: ATOM      9  C   UNL d   1       6.870  17.893  24.385 -0.19 +0.00    +0.051 C 
DOCKED: ATOM     10  C   UNL d   1       4.551  21.496  23.282 +0.02 +0.01    +0.066 A 
DOCKED: ATOM     11  C   UNL d   1       4.121  22.452  24.228 -0.12 -0.00    -0.021 A 
DOCKED: ATOM     12  C   UNL d   1       3.400  23.414  23.514 -0.14 -0.00    +0.000 A 
DOCKED: ATOM     13  C   UNL d   1       3.454  22.981  22.189 -0.10 +0.00    +0.070 A 
DOCKED: ATOM     14  C   UNL d   1       4.469  22.477  25.694 -0.09 -0.00    +0.052 C 
DOCKED: ATOM     15  C   UNL d   1       2.709  23.286  19.794 -0.10 +0.00    +0.066 A 
DOCKED: ATOM     16  C   UNL d   1       1.902  23.908  18.852 -0.07 +0.00    -0.021 A 
DOCKED: ATOM     17  C   UNL d   1       2.133  23.231  17.647 -0.10 -0.00    +0.000 A 
DOCKED: ATOM     18  C   UNL d   1       3.079  22.256  17.946 -0.12 +0.00    +0.070 A 
DOCKED: ATOM     19  C   UNL d   1       0.978  25.075  19.123 -0.04 -0.00    +0.052 C 
DOCKED: ATOM     20  C   UNL d   1       4.478  20.255  17.312 -0.18 -0.00    +0.066 A 
DOCKED: ATOM     21  C   UNL d   1       4.902  19.344  16.347 -0.26 +0.00    -0.025 A 
DOCKED: ATOM     22  C   UNL d   1       5.734  18.460  17.010 -0.23 -0.00    -0.021 A 
DOCKED: ATOM     23  C   UNL d   1       5.767  18.872  18.359 -0.20 +0.01    +0.066 A 
DOCKED: ATOM     24  C   UNL d   1       4.517  19.304  14.871 -0.32 -0.01    +0.051 C 
DOCKED: ATOM     25  N   UNL d   1       5.662  19.630  21.233 -0.16 -0.04    -0.248 N 
DOCKED: ATOM     26  N   UNL d   1       4.197  21.852  22.043 -0.04 -0.05    -0.248 N 
DOCKED: ATOM     27  N   UNL d   1       3.376  22.299  19.240 -0.07 -0.02    -0.248 N 
DOCKED: ATOM     28  N   UNL d   1       5.006  19.957  18.546 -0.09 -0.02    -0.248 N 
DOCKED: ATOM     29 FE   UNL d   1       4.452  21.042  20.174 -0.04 +0.00    +0.000 Fe
DOCKED: ENDROOT
DOCKED: BRANCH   6  30
DOCKED: ATOM     30  C   UNL d   1       7.640  16.437  21.606 -0.32 +0.02    +0.052 C 
DOCKED: BRANCH  30  31
DOCKED: ATOM     31  C   UNL d   1       6.708  15.248  21.837 -0.17 +0.03    +0.115 C 
DOCKED: BRANCH  31  32
DOCKED: ATOM     32  C   UNL d   1       5.251  15.610  21.643 -0.05 +0.03    +0.139 C 
DOCKED: ATOM     33  O   UNL d   1       4.503  15.628  22.609 +0.03 -0.07    -0.650 OA
DOCKED: BRANCH  32  34
DOCKED: ATOM     34  O   UNL d   1       4.755  15.964  20.435 +0.05 -0.15    -0.776 OA
DOCKED: ATOM     35  H   UNL d   1       5.104  15.649  19.590 +0.03 +0.05    +0.167 HD
DOCKED: ENDBRANCH  32  34
DOCKED: ENDBRANCH  31  32
DOCKED: ENDBRANCH  30  31
DOCKED: ENDBRANCH   6  30
DOCKED: BRANCH  29  36
DOCKED: ATOM     36  C   UNL d   1       2.839  19.748  20.517 -0.03 +0.01    +0.190 C 
DOCKED: BRANCH  36  37
DOCKED: ATOM     37  O   UNL d   1       2.499  18.396  20.623 +0.00 -0.02    -0.399 OA
DOCKED: ATOM     38  H   UNL d   1       3.366  17.907  20.553 +0.02 +0.02    +0.209 HD
DOCKED: ENDBRANCH  36  37
DOCKED: ENDBRANCH  29  36
DOCKED: BRANCH  22  39
DOCKED: ATOM     39  C   UNL d   1       6.405  17.250  16.388 -0.25 +0.01    +0.052 C 
DOCKED: BRANCH  39  40
DOCKED: ATOM     40  C   UNL d   1       5.403  16.093  16.233 -0.16 +0.01    +0.115 C 
DOCKED: BRANCH  40  41
DOCKED: ATOM     41  C   UNL d   1       5.351  15.149  17.416 -0.11 +0.05    +0.139 C 
DOCKED: ATOM     42  O   UNL d   1       6.389  14.853  17.991 -0.42 -0.68    -0.650 OA
DOCKED: BRANCH  41  43
DOCKED: ATOM     43  O   UNL d   1       4.179  14.693  17.909 +0.03 -0.12    -0.776 OA
DOCKED: ATOM     44  H   UNL d   1       3.849  14.945  18.781 +0.01 +0.02    +0.167 HD
DOCKED: ENDBRANCH  41  43
DOCKED: ENDBRANCH  40  41
DOCKED: ENDBRANCH  39  40
DOCKED: ENDBRANCH  22  39
DOCKED: BRANCH  12  45
DOCKED: ATOM     45  C   UNL d   1       2.686  24.694  23.927 -0.10 -0.00    +0.004 C 
DOCKED: ATOM     46  C   UNL d   1       3.004  25.969  23.717 -0.18 -0.00    +0.012 C 
DOCKED: ENDBRANCH  12  45
DOCKED: BRANCH  17  47
DOCKED: ATOM     47  C   UNL d   1       1.496  23.420  16.309 -0.15 -0.00    +0.004 C 
DOCKED: ATOM     48  C   UNL d   1       1.803  24.422  15.482 -0.19 -0.00    +0.012 C 
DOCKED: ENDBRANCH  17  47
DOCKED: TORSDOF 12
DOCKED: TER
DOCKED: ENDMDL
________________________________________________________________________________


	BEGINNING GENETIC ALGORITHM DOCKING 44 of 100
Run: 44 Seed: 338599381 178192284 [ Run 44 of 100 GA/GALS ]
Beginning LAMARCKIAN GENETIC ALGORITHM (LGA), with a maximum of 25000000 energy evaluations.

Final-Value: -14.608


	FINAL GENETIC ALGORITHM DOCKED STATE
	_______________________________________________


Detailed state:  trans 45.542 26.942 18.010 quatxyzw 0.237191 -0.351647 -0.904863 0.036152 center 8.781 34.984 -0.736 ntor 12 29.4881 82.8127 111.2760 32.9257 123.7824 137.1328 28.0519 -51.0916 178.5217 -167.9871 180.0000 161.0806
State:	 45.542  26.942  18.010   0.237 -0.352 -0.905 175.856     29.49   82.81  111.28   32.93  123.78  137.13   28.05  -51.09  178.52 -167.99  180.00  161.08

DOCKED: MODEL       44
DOCKED: USER    Run = 44
DOCKED: USER    DPF = D:/Protein_go_brrr/autodock/final/6BB5/heme_Co/dock.dpf
DOCKED: USER  
DOCKED: USER    Estimated Free Energy of Binding    =   -8.05 kcal/mol  [=(1)+(2)+(3)-(4)]
DOCKED: USER    Estimated Inhibition Constant, Ki   =    1.26 uM (micromolar)  [Temperature = 298.15 K]
DOCKED: USER    
DOCKED: USER    (1) Final Intermolecular Energy     =  -11.63 kcal/mol
DOCKED: USER        vdW + Hbond + desolv Energy     =   -9.18 kcal/mol
DOCKED: USER        Electrostatic Energy            =   -2.45 kcal/mol
DOCKED: USER    (2) Final Total Internal Energy     =   -2.98 kcal/mol
DOCKED: USER    (3) Torsional Free Energy           =   +3.58 kcal/mol
DOCKED: USER    (4) Unbound System's Energy  [=(2)] =   -2.98 kcal/mol
DOCKED: USER    
DOCKED: USER    
DOCKED: USER    NEWDPF move heme_Co_opt.pdbqt
DOCKED: USER    NEWDPF about 8.781000 34.984000 -0.736000
DOCKED: USER    NEWDPF tran0 45.542171 26.941815 18.009882
DOCKED: USER    NEWDPF quaternion0 0.237191 -0.351647 -0.904863 0.036152
DOCKED: USER    NEWDPF axisangle0 0.237346 -0.351877 -0.905455 175.856421
DOCKED: USER    NEWDPF quat0 0.237346 -0.351877 -0.905455 175.856421
DOCKED: USER    NEWDPF dihe0 29.49 82.81 111.28 32.93 123.78 137.13 28.05 -51.09 178.52 -167.99 180.00 161.08 
DOCKED: USER  keepresnum = 1 
DOCKED: USER  
DOCKED: REMARK  12 active torsions:
DOCKED: REMARK  status: ('A' for Active; 'I' for Inactive)
DOCKED: REMARK    1  A    between atoms: C_6  and  C_10 
DOCKED: REMARK    2  A    between atoms: C_10  and  C_11 
DOCKED: REMARK    3  A    between atoms: C_11  and  C_12 
DOCKED: REMARK    4  A    between atoms: C_12  and  O_14 
DOCKED: REMARK    5  A    between atoms: C_17  and  C_20 
DOCKED: REMARK    6  A    between atoms: C_24  and  C_27 
DOCKED: REMARK    7  A    between atoms: C_31  and  C_34 
DOCKED: REMARK    8  A    between atoms: C_34  and  C_35 
DOCKED: REMARK    9  A    between atoms: C_35  and  C_36 
DOCKED: REMARK   10  A    between atoms: C_36  and  O_38 
DOCKED: REMARK   11  A    between atoms: FE_43  and  C_44 
DOCKED: REMARK   12  A    between atoms: C_44  and  O_45 
DOCKED: USER                              x       y       z     vdW  Elec       q    Type
DOCKED: USER                           _______ _______ _______ _____ _____    ______ ____
DOCKED: ROOT
DOCKED: ATOM      1  C   UNL d   1      47.482  26.208  18.655 -0.07 +0.03    +0.064 A 
DOCKED: ATOM      2  C   UNL d   1      45.477  30.517  18.826 -0.22 +0.02    +0.064 C 
DOCKED: ATOM      3  C   UNL d   1      41.695  28.895  16.398 -0.22 +0.02    +0.064 A 
DOCKED: ATOM      4  C   UNL d   1      43.545  24.398  16.546 -0.15 +0.02    +0.064 A 
DOCKED: ATOM      5  C   UNL d   1      47.228  27.513  18.848 -0.08 +0.03    +0.066 A 
DOCKED: ATOM      6  C   UNL d   1      48.088  28.338  19.600 -0.06 -0.01    -0.021 A 
DOCKED: ATOM      7  C   UNL d   1      47.490  29.581  19.665 -0.09 -0.01    -0.025 A 
DOCKED: ATOM      8  C   UNL d   1      46.300  29.467  18.938 -0.13 +0.03    +0.066 A 
DOCKED: ATOM      9  C   UNL d   1      48.006  30.838  20.382 -0.08 +0.02    +0.051 C 
DOCKED: ATOM     10  C   UNL d   1      44.246  30.501  18.077 -0.25 +0.02    +0.066 A 
DOCKED: ATOM     11  C   UNL d   1      43.409  31.605  17.804 -0.30 -0.00    -0.021 A 
DOCKED: ATOM     12  C   UNL d   1      42.316  31.104  17.091 -0.40 +0.00    +0.000 A 
DOCKED: ATOM     13  C   UNL d   1      42.572  29.738  16.971 -0.30 +0.02    +0.070 A 
DOCKED: ATOM     14  C   UNL d   1      43.702  33.047  18.128 -0.38 +0.01    +0.052 C 
DOCKED: ATOM     15  C   UNL d   1      41.773  27.457  16.236 -0.31 +0.01    +0.066 A 
DOCKED: ATOM     16  C   UNL d   1      40.767  26.625  15.765 -0.41 -0.00    -0.021 A 
DOCKED: ATOM     17  C   UNL d   1      41.295  25.327  15.808 -0.42 +0.00    +0.000 A 
DOCKED: ATOM     18  C   UNL d   1      42.592  25.471  16.288 -0.25 +0.02    +0.070 A 
DOCKED: ATOM     19  C   UNL d   1      39.397  27.077  15.311 -0.43 +0.01    +0.052 C 
DOCKED: ATOM     20  C   UNL d   1      44.779  24.505  17.093 -0.19 +0.03    +0.066 A 
DOCKED: ATOM     21  C   UNL d   1      45.589  23.395  17.325 -0.18 -0.01    -0.025 A 
DOCKED: ATOM     22  C   UNL d   1      46.742  23.890  17.906 -0.13 -0.01    -0.021 A 
DOCKED: ATOM     23  C   UNL d   1      46.573  25.287  18.011 -0.12 +0.03    +0.066 A 
DOCKED: ATOM     24  C   UNL d   1      45.271  21.933  17.026 -0.23 +0.03    +0.051 C 
DOCKED: ATOM     25  N   UNL d   1      46.115  28.198  18.416 -0.07 -0.11    -0.248 N 
DOCKED: ATOM     26  N   UNL d   1      43.766  29.384  17.518 -0.17 -0.07    -0.248 N 
DOCKED: ATOM     27  N   UNL d   1      42.832  26.749  16.561 -0.20 -0.06    -0.248 N 
DOCKED: ATOM     28  N   UNL d   1      45.385  25.663  17.523 -0.11 -0.10    -0.248 N 
DOCKED: ATOM     29 FE   UNL d   1      44.378  27.427  17.433 -0.05 +0.00    +0.000 Fe
DOCKED: ENDROOT
DOCKED: BRANCH   6  30
DOCKED: ATOM     30  C   UNL d   1      49.382  27.916  20.287 -0.02 +0.02    +0.052 C 
DOCKED: BRANCH  30  31
DOCKED: ATOM     31  C   UNL d   1      49.126  27.584  21.757 -0.03 +0.06    +0.115 C 
DOCKED: BRANCH  31  32
DOCKED: ATOM     32  C   UNL d   1      47.690  27.837  22.164 +0.02 +0.17    +0.139 C 
DOCKED: ATOM     33  O   UNL d   1      47.411  28.850  22.787 -0.22 -0.96    -0.650 OA
DOCKED: BRANCH  32  34
DOCKED: ATOM     34  O   UNL d   1      46.688  26.995  21.818 -0.36 -1.25    -0.776 OA
DOCKED: ATOM     35  H   UNL d   1      46.809  26.056  21.622 +0.02 +0.17    +0.167 HD
DOCKED: ENDBRANCH  32  34
DOCKED: ENDBRANCH  31  32
DOCKED: ENDBRANCH  30  31
DOCKED: ENDBRANCH   6  30
DOCKED: BRANCH  29  36
DOCKED: ATOM     36  C   UNL d   1      43.582  27.097  19.344 +0.11 +0.11    +0.190 C 
DOCKED: BRANCH  36  37
DOCKED: ATOM     37  O   UNL d   1      43.933  26.984  20.693 -0.30 -0.45    -0.399 OA
DOCKED: ATOM     38  H   UNL d   1      44.859  26.612  20.687 +0.06 +0.23    +0.209 HD
DOCKED: ENDBRANCH  36  37
DOCKED: ENDBRANCH  29  36
DOCKED: BRANCH  22  39
DOCKED: ATOM     39  C   UNL d   1      47.911  23.053  18.390 -0.10 +0.04    +0.052 C 
DOCKED: BRANCH  39  40
DOCKED: ATOM     40  C   UNL d   1      47.812  22.806  19.904 -0.04 +0.06    +0.115 C 
DOCKED: BRANCH  40  41
DOCKED: ATOM     41  C   UNL d   1      46.527  23.302  20.535 -0.08 +0.06    +0.139 C 
DOCKED: ATOM     42  O   UNL d   1      45.547  22.570  20.550 -0.27 -0.29    -0.650 OA
DOCKED: BRANCH  41  43
DOCKED: ATOM     43  O   UNL d   1      46.458  24.498  21.159 +0.06 -0.47    -0.776 OA
DOCKED: ATOM     44  H   UNL d   1      45.882  25.211  20.854 +0.04 +0.12    +0.167 HD
DOCKED: ENDBRANCH  41  43
DOCKED: ENDBRANCH  40  41
DOCKED: ENDBRANCH  39  40
DOCKED: ENDBRANCH  22  39
DOCKED: BRANCH  12  45
DOCKED: ATOM     45  C   UNL d   1      41.077  31.759  16.497 -0.49 +0.00    +0.004 C 
DOCKED: ATOM     46  C   UNL d   1      40.861  33.013  16.107 -0.53 +0.00    +0.012 C 
DOCKED: ENDBRANCH  12  45
DOCKED: BRANCH  17  47
DOCKED: ATOM     47  C   UNL d   1      40.646  24.022  15.481 -0.50 +0.00    +0.004 C 
DOCKED: ATOM     48  C   UNL d   1      40.853  23.362  14.339 -0.59 +0.00    +0.012 C 
DOCKED: ENDBRANCH  17  47
DOCKED: TORSDOF 12
DOCKED: TER
DOCKED: ENDMDL
________________________________________________________________________________


	BEGINNING GENETIC ALGORITHM DOCKING 45 of 100
Run: 45 Seed: 1410621912 245239298 [ Run 45 of 100 GA/GALS ]
Beginning LAMARCKIAN GENETIC ALGORITHM (LGA), with a maximum of 25000000 energy evaluations.

Final-Value: -11.119


	FINAL GENETIC ALGORITHM DOCKED STATE
	_______________________________________________


Detailed state:  trans 12.805 39.143 25.602 quatxyzw -0.180674 0.640193 0.649032 -0.369145 center 8.781 34.984 -0.736 ntor 12 40.4825 103.0777 -33.1874 41.6201 97.1387 154.4783 34.0988 94.2997 59.9833 -48.3236 7.5285 -148.7232
State:	 12.805  39.143  25.602  -0.194  0.689  0.698 -136.674     40.48  103.08  -33.19   41.62   97.14  154.48   34.10   94.30   59.98  -48.32    7.53 -148.72

DOCKED: MODEL       45
DOCKED: USER    Run = 45
DOCKED: USER    DPF = D:/Protein_go_brrr/autodock/final/6BB5/heme_Co/dock.dpf
DOCKED: USER  
DOCKED: USER    Estimated Free Energy of Binding    =   -6.91 kcal/mol  [=(1)+(2)+(3)-(4)]
DOCKED: USER    Estimated Inhibition Constant, Ki   =    8.63 uM (micromolar)  [Temperature = 298.15 K]
DOCKED: USER    
DOCKED: USER    (1) Final Intermolecular Energy     =  -10.49 kcal/mol
DOCKED: USER        vdW + Hbond + desolv Energy     =   -9.73 kcal/mol
DOCKED: USER        Electrostatic Energy            =   -0.75 kcal/mol
DOCKED: USER    (2) Final Total Internal Energy     =   -0.63 kcal/mol
DOCKED: USER    (3) Torsional Free Energy           =   +3.58 kcal/mol
DOCKED: USER    (4) Unbound System's Energy  [=(2)] =   -0.63 kcal/mol
DOCKED: USER    
DOCKED: USER    
DOCKED: USER    NEWDPF move heme_Co_opt.pdbqt
DOCKED: USER    NEWDPF about 8.781000 34.984000 -0.736000
DOCKED: USER    NEWDPF tran0 12.805320 39.142740 25.602001
DOCKED: USER    NEWDPF quaternion0 -0.180674 0.640193 0.649032 -0.369145
DOCKED: USER    NEWDPF axisangle0 -0.194404 0.688844 0.698355 -136.674239
DOCKED: USER    NEWDPF quat0 -0.194404 0.688844 0.698355 -136.674239
DOCKED: USER    NEWDPF dihe0 40.48 103.08 -33.19 41.62 97.14 154.48 34.10 94.30 59.98 -48.32 7.53 -148.72 
DOCKED: USER  keepresnum = 1 
DOCKED: USER  
DOCKED: REMARK  12 active torsions:
DOCKED: REMARK  status: ('A' for Active; 'I' for Inactive)
DOCKED: REMARK    1  A    between atoms: C_6  and  C_10 
DOCKED: REMARK    2  A    between atoms: C_10  and  C_11 
DOCKED: REMARK    3  A    between atoms: C_11  and  C_12 
DOCKED: REMARK    4  A    between atoms: C_12  and  O_14 
DOCKED: REMARK    5  A    between atoms: C_17  and  C_20 
DOCKED: REMARK    6  A    between atoms: C_24  and  C_27 
DOCKED: REMARK    7  A    between atoms: C_31  and  C_34 
DOCKED: REMARK    8  A    between atoms: C_34  and  C_35 
DOCKED: REMARK    9  A    between atoms: C_35  and  C_36 
DOCKED: REMARK   10  A    between atoms: C_36  and  O_38 
DOCKED: REMARK   11  A    between atoms: FE_43  and  C_44 
DOCKED: REMARK   12  A    between atoms: C_44  and  O_45 
DOCKED: USER                              x       y       z     vdW  Elec       q    Type
DOCKED: USER                           _______ _______ _______ _____ _____    ______ ____
DOCKED: ROOT
DOCKED: ATOM      1  C   UNL d   1      13.530  37.889  27.221 -0.23 -0.02    +0.064 A 
DOCKED: ATOM      2  C   UNL d   1      15.475  41.558  24.904 -0.30 -0.01    +0.064 C 
DOCKED: ATOM      3  C   UNL d   1      11.741  41.708  21.928 -0.01 -0.01    +0.064 A 
DOCKED: ATOM      4  C   UNL d   1       9.556  38.216  24.515 -0.22 -0.01    +0.064 A 
DOCKED: ATOM      5  C   UNL d   1      14.352  38.857  26.784 -0.23 -0.02    +0.066 A 
DOCKED: ATOM      6  C   UNL d   1      15.549  39.180  27.454 -0.21 +0.00    -0.021 A 
DOCKED: ATOM      7  C   UNL d   1      16.098  40.260  26.791 -0.20 +0.00    -0.025 A 
DOCKED: ATOM      8  C   UNL d   1      15.222  40.540  25.736 -0.24 -0.01    +0.066 A 
DOCKED: ATOM      9  C   UNL d   1      17.395  41.011  27.126 -0.18 -0.00    +0.051 C 
DOCKED: ATOM     10  C   UNL d   1      14.647  41.905  23.777 -0.27 -0.02    +0.066 A 
DOCKED: ATOM     11  C   UNL d   1      14.930  42.870  22.786 -0.34 +0.00    -0.021 A 
DOCKED: ATOM     12  C   UNL d   1      13.826  42.890  21.929 -0.34 -0.00    +0.000 A 
DOCKED: ATOM     13  C   UNL d   1      12.960  41.930  22.451 -0.25 -0.01    +0.070 A 
DOCKED: ATOM     14  C   UNL d   1      16.216  43.641  22.634 -0.33 -0.01    +0.052 C 
DOCKED: ATOM     15  C   UNL d   1      10.703  40.797  22.369 -0.20 -0.01    +0.066 A 
DOCKED: ATOM     16  C   UNL d   1       9.409  40.721  21.872 -0.18 +0.00    -0.021 A 
DOCKED: ATOM     17  C   UNL d   1       8.774  39.716  22.616 -0.19 -0.00    +0.000 A 
DOCKED: ATOM     18  C   UNL d   1       9.739  39.246  23.501 -0.21 -0.01    +0.070 A 
DOCKED: ATOM     19  C   UNL d   1       8.848  41.571  20.754 -0.17 -0.00    +0.052 C 
DOCKED: ATOM     20  C   UNL d   1      10.452  37.803  25.442 -0.23 -0.02    +0.066 A 
DOCKED: ATOM     21  C   UNL d   1      10.146  36.828  26.390 -0.25 +0.01    -0.025 A 
DOCKED: ATOM     22  C   UNL d   1      11.283  36.692  27.165 -0.23 +0.01    -0.021 A 
DOCKED: ATOM     23  C   UNL d   1      12.230  37.607  26.656 -0.26 -0.03    +0.066 A 
DOCKED: ATOM     24  C   UNL d   1       8.829  36.076  26.561 -0.25 -0.00    +0.051 C 
DOCKED: ATOM     25  N   UNL d   1      14.135  39.683  25.704 -0.10 +0.09    -0.248 N 
DOCKED: ATOM     26  N   UNL d   1      13.481  41.295  23.535 -0.14 +0.07    -0.248 N 
DOCKED: ATOM     27  N   UNL d   1      10.866  39.933  23.346 -0.13 +0.06    -0.248 N 
DOCKED: ATOM     28  N   UNL d   1      11.730  38.283  25.615 -0.13 +0.10    -0.248 N 
DOCKED: ATOM     29 FE   UNL d   1      12.402  39.812  24.456 -0.05 -0.00    +0.000 Fe
DOCKED: ENDROOT
DOCKED: BRANCH   6  30
DOCKED: ATOM     30  C   UNL d   1      16.086  38.525  28.722 -0.18 -0.00    +0.052 C 
DOCKED: BRANCH  30  31
DOCKED: ATOM     31  C   UNL d   1      17.016  37.363  28.373 -0.28 +0.00    +0.115 C 
DOCKED: BRANCH  31  32
DOCKED: ATOM     32  C   UNL d   1      16.551  36.052  28.970 -0.31 -0.00    +0.139 C 
DOCKED: ATOM     33  O   UNL d   1      17.016  35.679  30.036 -0.05 -0.07    -0.650 OA
DOCKED: BRANCH  32  34
DOCKED: ATOM     34  O   UNL d   1      15.595  35.295  28.382 -0.23 +0.21    -0.776 OA
DOCKED: ATOM     35  H   UNL d   1      15.493  35.194  27.426 -0.45 -0.11    +0.167 HD
DOCKED: ENDBRANCH  32  34
DOCKED: ENDBRANCH  31  32
DOCKED: ENDBRANCH  30  31
DOCKED: ENDBRANCH   6  30
DOCKED: BRANCH  29  36
DOCKED: ATOM     36  C   UNL d   1      11.657  41.211  25.829 -0.06 -0.03    +0.190 C 
DOCKED: BRANCH  36  37
DOCKED: ATOM     37  O   UNL d   1      11.961  41.869  27.025 -0.00 +0.04    -0.399 OA
DOCKED: ATOM     38  H   UNL d   1      12.774  41.406  27.373 +0.03 -0.02    +0.209 HD
DOCKED: ENDBRANCH  36  37
DOCKED: ENDBRANCH  29  36
DOCKED: BRANCH  22  39
DOCKED: ATOM     39  C   UNL d   1      11.423  35.779  28.369 -0.03 -0.03    +0.052 C 
DOCKED: BRANCH  39  40
DOCKED: ATOM     40  C   UNL d   1      10.214  35.928  29.307 -0.12 -0.01    +0.115 C 
DOCKED: BRANCH  40  41
DOCKED: ATOM     41  C   UNL d   1       9.514  34.626  29.636 -0.11 +0.06    +0.139 C 
DOCKED: ATOM     42  O   UNL d   1       8.306  34.537  29.469 -0.47 -0.47    -0.650 OA
DOCKED: BRANCH  41  43
DOCKED: ATOM     43  O   UNL d   1      10.201  33.530  30.028 -0.25 -0.47    -0.776 OA
DOCKED: ATOM     44  H   UNL d   1      11.120  33.374  29.773 +0.00 -0.00    +0.167 HD
DOCKED: ENDBRANCH  41  43
DOCKED: ENDBRANCH  40  41
DOCKED: ENDBRANCH  39  40
DOCKED: ENDBRANCH  22  39
DOCKED: BRANCH  12  45
DOCKED: ATOM     45  C   UNL d   1      13.501  43.689  20.674 -0.30 -0.00    +0.004 C 
DOCKED: ATOM     46  C   UNL d   1      14.294  44.147  19.710 -0.30 -0.00    +0.012 C 
DOCKED: ENDBRANCH  12  45
DOCKED: BRANCH  17  47
DOCKED: ATOM     47  C   UNL d   1       7.359  39.242  22.566 -0.24 -0.00    +0.004 C 
DOCKED: ATOM     48  C   UNL d   1       6.876  38.465  21.594 -0.33 -0.00    +0.012 C 
DOCKED: ENDBRANCH  17  47
DOCKED: TORSDOF 12
DOCKED: TER
DOCKED: ENDMDL
________________________________________________________________________________


	BEGINNING GENETIC ALGORITHM DOCKING 46 of 100
Run: 46 Seed: 407589081 858674579 [ Run 46 of 100 GA/GALS ]
Beginning LAMARCKIAN GENETIC ALGORITHM (LGA), with a maximum of 25000000 energy evaluations.

Final-Value: -11.499


	FINAL GENETIC ALGORITHM DOCKED STATE
	_______________________________________________


Detailed state:  trans 35.887 29.390 0.283 quatxyzw -0.820400 0.361944 0.013678 -0.442439 center 8.781 34.984 -0.736 ntor 12 70.8333 101.7221 -58.5307 137.1528 137.7289 142.5551 -141.1758 -146.1229 -37.7082 44.5087 161.9020 158.8010
State:	 35.887  29.390   0.283  -0.915  0.404  0.015 -127.481     70.83  101.72  -58.53  137.15  137.73  142.56 -141.18 -146.12  -37.71   44.51  161.90  158.80

DOCKED: MODEL       46
DOCKED: USER    Run = 46
DOCKED: USER    DPF = D:/Protein_go_brrr/autodock/final/6BB5/heme_Co/dock.dpf
DOCKED: USER  
DOCKED: USER    Estimated Free Energy of Binding    =   -6.33 kcal/mol  [=(1)+(2)+(3)-(4)]
DOCKED: USER    Estimated Inhibition Constant, Ki   =   23.02 uM (micromolar)  [Temperature = 298.15 K]
DOCKED: USER    
DOCKED: USER    (1) Final Intermolecular Energy     =   -9.91 kcal/mol
DOCKED: USER        vdW + Hbond + desolv Energy     =   -7.10 kcal/mol
DOCKED: USER        Electrostatic Energy            =   -2.80 kcal/mol
DOCKED: USER    (2) Final Total Internal Energy     =   -1.59 kcal/mol
DOCKED: USER    (3) Torsional Free Energy           =   +3.58 kcal/mol
DOCKED: USER    (4) Unbound System's Energy  [=(2)] =   -1.59 kcal/mol
DOCKED: USER    
DOCKED: USER    
DOCKED: USER    NEWDPF move heme_Co_opt.pdbqt
DOCKED: USER    NEWDPF about 8.781000 34.984000 -0.736000
DOCKED: USER    NEWDPF tran0 35.886617 29.390134 0.282614
DOCKED: USER    NEWDPF quaternion0 -0.820400 0.361944 0.013678 -0.442439
DOCKED: USER    NEWDPF axisangle0 -0.914810 0.403596 0.015252 -127.480747
DOCKED: USER    NEWDPF quat0 -0.914810 0.403596 0.015252 -127.480747
DOCKED: USER    NEWDPF dihe0 70.83 101.72 -58.53 137.15 137.73 142.56 -141.18 -146.12 -37.71 44.51 161.90 158.80 
DOCKED: USER  keepresnum = 1 
DOCKED: USER  
DOCKED: REMARK  12 active torsions:
DOCKED: REMARK  status: ('A' for Active; 'I' for Inactive)
DOCKED: REMARK    1  A    between atoms: C_6  and  C_10 
DOCKED: REMARK    2  A    between atoms: C_10  and  C_11 
DOCKED: REMARK    3  A    between atoms: C_11  and  C_12 
DOCKED: REMARK    4  A    between atoms: C_12  and  O_14 
DOCKED: REMARK    5  A    between atoms: C_17  and  C_20 
DOCKED: REMARK    6  A    between atoms: C_24  and  C_27 
DOCKED: REMARK    7  A    between atoms: C_31  and  C_34 
DOCKED: REMARK    8  A    between atoms: C_34  and  C_35 
DOCKED: REMARK    9  A    between atoms: C_35  and  C_36 
DOCKED: REMARK   10  A    between atoms: C_36  and  O_38 
DOCKED: REMARK   11  A    between atoms: FE_43  and  C_44 
DOCKED: REMARK   12  A    between atoms: C_44  and  O_45 
DOCKED: USER                              x       y       z     vdW  Elec       q    Type
DOCKED: USER                           _______ _______ _______ _____ _____    ______ ____
DOCKED: ROOT
DOCKED: ATOM      1  C   UNL d   1      33.904  29.717   1.105 -0.18 +0.01    +0.064 A 
DOCKED: ATOM      2  C   UNL d   1      37.557  32.655   0.307 -0.21 -0.01    +0.064 C 
DOCKED: ATOM      3  C   UNL d   1      40.279  28.966  -1.037 -0.18 -0.00    +0.064 A 
DOCKED: ATOM      4  C   UNL d   1      36.450  25.998  -0.598 -0.13 -0.00    +0.064 A 
DOCKED: ATOM      5  C   UNL d   1      34.713  30.786   1.021 -0.14 +0.01    +0.066 A 
DOCKED: ATOM      6  C   UNL d   1      34.252  32.094   1.271 -0.12 -0.00    -0.021 A 
DOCKED: ATOM      7  C   UNL d   1      35.310  32.944   1.015 -0.13 -0.00    -0.025 A 
DOCKED: ATOM      8  C   UNL d   1      36.375  32.119   0.637 -0.15 -0.00    +0.066 A 
DOCKED: ATOM      9  C   UNL d   1      35.333  34.477   1.119 -0.19 -0.00    +0.051 C 
DOCKED: ATOM     10  C   UNL d   1      38.716  31.885  -0.069 -0.22 -0.01    +0.066 A 
DOCKED: ATOM     11  C   UNL d   1      40.021  32.377  -0.290 -0.27 +0.00    -0.021 A 
DOCKED: ATOM     12  C   UNL d   1      40.795  31.279  -0.676 -0.27 -0.00    +0.000 A 
DOCKED: ATOM     13  C   UNL d   1      39.911  30.200  -0.651 -0.24 -0.01    +0.070 A 
DOCKED: ATOM     14  C   UNL d   1      40.495  33.787  -0.048 -0.33 -0.00    +0.052 C 
DOCKED: ATOM     15  C   UNL d   1      39.487  27.754  -1.122 -0.19 -0.00    +0.066 A 
DOCKED: ATOM     16  C   UNL d   1      39.891  26.544  -1.667 -0.16 -0.00    -0.021 A 
DOCKED: ATOM     17  C   UNL d   1      38.789  25.685  -1.546 -0.12 -0.00    +0.000 A 
DOCKED: ATOM     18  C   UNL d   1      37.802  26.438  -0.918 -0.13 -0.00    +0.070 A 
DOCKED: ATOM     19  C   UNL d   1      41.253  26.260  -2.261 -0.15 +0.00    +0.052 C 
DOCKED: ATOM     20  C   UNL d   1      35.446  26.736  -0.067 -0.11 -0.00    +0.066 A 
DOCKED: ATOM     21  C   UNL d   1      34.177  26.211   0.161 -0.22 +0.00    -0.025 A 
DOCKED: ATOM     22  C   UNL d   1      33.429  27.253   0.679 -0.24 -0.00    -0.021 A 
DOCKED: ATOM     23  C   UNL d   1      34.283  28.374   0.730 -0.09 +0.01    +0.066 A 
DOCKED: ATOM     24  C   UNL d   1      33.692  24.791  -0.119 -0.16 -0.01    +0.051 C 
DOCKED: ATOM     25  N   UNL d   1      36.035  30.777   0.637 -0.10 -0.01    -0.248 N 
DOCKED: ATOM     26  N   UNL d   1      38.669  30.558  -0.229 -0.15 +0.02    -0.248 N 
DOCKED: ATOM     27  N   UNL d   1      38.242  27.673  -0.708 -0.13 +0.00    -0.248 N 
DOCKED: ATOM     28  N   UNL d   1      35.505  28.067   0.277 +0.05 -0.01    -0.248 N 
DOCKED: ATOM     29 FE   UNL d   1      37.201  29.131  -0.075 -0.04 +0.00    +0.000 Fe
DOCKED: ENDROOT
DOCKED: BRANCH   6  30
DOCKED: ATOM     30  C   UNL d   1      32.834  32.500   1.657 -0.14 +0.03    +0.052 C 
DOCKED: BRANCH  30  31
DOCKED: ATOM     31  C   UNL d   1      32.192  33.330   0.546 -0.07 +0.05    +0.115 C 
DOCKED: BRANCH  31  32
DOCKED: ATOM     32  C   UNL d   1      30.733  32.986   0.337 +0.13 +0.15    +0.139 C 
DOCKED: ATOM     33  O   UNL d   1      29.878  33.579   0.977 -0.16 -0.79    -0.650 OA
DOCKED: BRANCH  32  34
DOCKED: ATOM     34  O   UNL d   1      30.335  32.069  -0.575 -0.43 -0.85    -0.776 OA
DOCKED: ATOM     35  H   UNL d   1      30.530  31.123  -0.516 +0.01 +0.20    +0.167 HD
DOCKED: ENDBRANCH  32  34
DOCKED: ENDBRANCH  31  32
DOCKED: ENDBRANCH  30  31
DOCKED: ENDBRANCH   6  30
DOCKED: BRANCH  29  36
DOCKED: ATOM     36  C   UNL d   1      36.521  29.625  -1.995 -0.04 +0.00    +0.190 C 
DOCKED: BRANCH  36  37
DOCKED: ATOM     37  O   UNL d   1      35.583  30.405  -2.678 +0.00 -0.02    -0.399 OA
DOCKED: ATOM     38  H   UNL d   1      34.956  30.729  -1.972 +0.02 +0.02    +0.209 HD
DOCKED: ENDBRANCH  36  37
DOCKED: ENDBRANCH  29  36
DOCKED: BRANCH  22  39
DOCKED: ATOM     39  C   UNL d   1      31.957  27.184   1.041 -0.18 +0.01    +0.052 C 
DOCKED: BRANCH  39  40
DOCKED: ATOM     40  C   UNL d   1      31.095  27.798  -0.074 -0.11 +0.04    +0.115 C 
DOCKED: BRANCH  40  41
DOCKED: ATOM     41  C   UNL d   1      29.917  28.609   0.422 -0.01 +0.14    +0.139 C 
DOCKED: ATOM     42  O   UNL d   1      29.645  28.602   1.615 -0.46 -1.09    -0.650 OA
DOCKED: BRANCH  41  43
DOCKED: ATOM     43  O   UNL d   1      29.209  29.412  -0.403 +0.01 -0.82    -0.776 OA
DOCKED: ATOM     44  H   UNL d   1      29.627  30.078  -0.965 +0.02 +0.15    +0.167 HD
DOCKED: ENDBRANCH  41  43
DOCKED: ENDBRANCH  40  41
DOCKED: ENDBRANCH  39  40
DOCKED: ENDBRANCH  22  39
DOCKED: BRANCH  12  45
DOCKED: ATOM     45  C   UNL d   1      42.264  31.123  -1.047 -0.38 -0.00    +0.004 C 
DOCKED: ATOM     46  C   UNL d   1      43.185  30.275  -0.597 -0.49 -0.00    +0.012 C 
DOCKED: ENDBRANCH  12  45
DOCKED: BRANCH  17  47
DOCKED: ATOM     47  C   UNL d   1      38.620  24.278  -2.016 -0.06 -0.00    +0.004 C 
DOCKED: ATOM     48  C   UNL d   1      38.435  23.243  -1.193 -0.07 -0.00    +0.012 C 
DOCKED: ENDBRANCH  17  47
DOCKED: TORSDOF 12
DOCKED: TER
DOCKED: ENDMDL
________________________________________________________________________________


	BEGINNING GENETIC ALGORITHM DOCKING 47 of 100
Run: 47 Seed: 2637780 897789706 [ Run 47 of 100 GA/GALS ]
Beginning LAMARCKIAN GENETIC ALGORITHM (LGA), with a maximum of 25000000 energy evaluations.

Final-Value: -10.289


	FINAL GENETIC ALGORITHM DOCKED STATE
	_______________________________________________


Detailed state:  trans 40.201 45.613 1.568 quatxyzw -0.610344 0.615877 0.432609 -0.247032 center 8.781 34.984 -0.736 ntor 12 116.0832 96.7197 -37.5896 -96.0001 142.3612 120.4167 -122.6389 -37.6960 -122.1739 -155.8024 175.1041 155.5110
State:	 40.201  45.613   1.568  -0.630  0.636  0.446 -151.396    116.08   96.72  -37.59  -96.00  142.36  120.42 -122.64  -37.70 -122.17 -155.80  175.10  155.51

DOCKED: MODEL       47
DOCKED: USER    Run = 47
DOCKED: USER    DPF = D:/Protein_go_brrr/autodock/final/6BB5/heme_Co/dock.dpf
DOCKED: USER  
DOCKED: USER    Estimated Free Energy of Binding    =   -2.82 kcal/mol  [=(1)+(2)+(3)-(4)]
DOCKED: USER    Estimated Inhibition Constant, Ki   =    8.57 mM (millimolar)  [Temperature = 298.15 K]
DOCKED: USER    
DOCKED: USER    (1) Final Intermolecular Energy     =   -6.40 kcal/mol
DOCKED: USER        vdW + Hbond + desolv Energy     =   -3.59 kcal/mol
DOCKED: USER        Electrostatic Energy            =   -2.81 kcal/mol
DOCKED: USER    (2) Final Total Internal Energy     =   -3.89 kcal/mol
DOCKED: USER    (3) Torsional Free Energy           =   +3.58 kcal/mol
DOCKED: USER    (4) Unbound System's Energy  [=(2)] =   -3.89 kcal/mol
DOCKED: USER    
DOCKED: USER    
DOCKED: USER    NEWDPF move heme_Co_opt.pdbqt
DOCKED: USER    NEWDPF about 8.781000 34.984000 -0.736000
DOCKED: USER    NEWDPF tran0 40.201019 45.613195 1.568161
DOCKED: USER    NEWDPF quaternion0 -0.610344 0.615877 0.432609 -0.247032
DOCKED: USER    NEWDPF axisangle0 -0.629865 0.635576 0.446446 -151.396124
DOCKED: USER    NEWDPF quat0 -0.629865 0.635576 0.446446 -151.396124
DOCKED: USER    NEWDPF dihe0 116.08 96.72 -37.59 -96.00 142.36 120.42 -122.64 -37.70 -122.17 -155.80 175.10 155.51 
DOCKED: USER  keepresnum = 1 
DOCKED: USER  
DOCKED: REMARK  12 active torsions:
DOCKED: REMARK  status: ('A' for Active; 'I' for Inactive)
DOCKED: REMARK    1  A    between atoms: C_6  and  C_10 
DOCKED: REMARK    2  A    between atoms: C_10  and  C_11 
DOCKED: REMARK    3  A    between atoms: C_11  and  C_12 
DOCKED: REMARK    4  A    between atoms: C_12  and  O_14 
DOCKED: REMARK    5  A    between atoms: C_17  and  C_20 
DOCKED: REMARK    6  A    between atoms: C_24  and  C_27 
DOCKED: REMARK    7  A    between atoms: C_31  and  C_34 
DOCKED: REMARK    8  A    between atoms: C_34  and  C_35 
DOCKED: REMARK    9  A    between atoms: C_35  and  C_36 
DOCKED: REMARK   10  A    between atoms: C_36  and  O_38 
DOCKED: REMARK   11  A    between atoms: FE_43  and  C_44 
DOCKED: REMARK   12  A    between atoms: C_44  and  O_45 
DOCKED: USER                              x       y       z     vdW  Elec       q    Type
DOCKED: USER                           _______ _______ _______ _____ _____    ______ ____
DOCKED: ROOT
DOCKED: ATOM      1  C   UNL d   1      40.167  45.886   3.722 -0.10 +0.01    +0.064 A 
DOCKED: ATOM      2  C   UNL d   1      41.732  48.642   0.178 +0.00 +0.00    +0.064 C 
DOCKED: ATOM      3  C   UNL d   1      40.791  45.181  -2.979 +0.00 +0.00    +0.064 A 
DOCKED: ATOM      4  C   UNL d   1      38.830  42.494   0.570 -0.03 +0.01    +0.064 A 
DOCKED: ATOM      5  C   UNL d   1      40.697  46.879   2.990 -0.05 +0.01    +0.066 A 
DOCKED: ATOM      6  C   UNL d   1      41.045  48.121   3.557 -0.11 -0.00    -0.021 A 
DOCKED: ATOM      7  C   UNL d   1      41.477  48.925   2.520 -0.03 -0.00    -0.025 A 
DOCKED: ATOM      8  C   UNL d   1      41.390  48.135   1.369 -0.00 +0.01    +0.066 A 
DOCKED: ATOM      9  C   UNL d   1      41.956  50.383   2.595 -0.03 +0.00    +0.051 C 
DOCKED: ATOM     10  C   UNL d   1      41.700  47.897  -1.056 +0.00 +0.00    +0.066 A 
DOCKED: ATOM     11  C   UNL d   1      42.177  48.327  -2.313 +0.00 -0.00    -0.021 A 
DOCKED: ATOM     12  C   UNL d   1      41.894  47.297  -3.215 +0.00 +0.00    +0.000 A 
DOCKED: ATOM     13  C   UNL d   1      41.278  46.313  -2.441 +0.00 +0.00    +0.070 A 
DOCKED: ATOM     14  C   UNL d   1      42.936  49.599  -2.592 +0.00 +0.00    +0.052 C 
DOCKED: ATOM     15  C   UNL d   1      40.084  44.089  -2.340 -0.00 +0.00    +0.066 A 
DOCKED: ATOM     16  C   UNL d   1      39.478  43.016  -2.978 -0.00 -0.00    -0.021 A 
DOCKED: ATOM     17  C   UNL d   1      38.909  42.239  -1.959 -0.01 +0.00    +0.000 A 
DOCKED: ATOM     18  C   UNL d   1      39.228  42.894  -0.774 -0.00 +0.01    +0.070 A 
DOCKED: ATOM     19  C   UNL d   1      39.463  42.778  -4.472 +0.00 +0.00    +0.052 C 
DOCKED: ATOM     20  C   UNL d   1      39.054  43.160   1.728 -0.04 +0.01    +0.066 A 
DOCKED: ATOM     21  C   UNL d   1      38.590  42.693   2.956 -0.16 -0.00    -0.025 A 
DOCKED: ATOM     22  C   UNL d   1      38.986  43.636   3.887 -0.19 -0.00    -0.021 A 
DOCKED: ATOM     23  C   UNL d   1      39.667  44.645   3.174 -0.08 +0.01    +0.066 A 
DOCKED: ATOM     24  C   UNL d   1      37.791  41.421   3.227 -0.29 +0.01    +0.051 C 
DOCKED: ATOM     25  N   UNL d   1      40.915  46.861   1.632 +0.00 -0.03    -0.248 N 
DOCKED: ATOM     26  N   UNL d   1      41.212  46.654  -1.126 +0.00 -0.02    -0.248 N 
DOCKED: ATOM     27  N   UNL d   1      39.902  44.007  -1.041 +0.00 -0.02    -0.248 N 
DOCKED: ATOM     28  N   UNL d   1      39.708  44.362   1.867 -0.01 -0.05    -0.248 N 
DOCKED: ATOM     29 FE   UNL d   1      40.378  45.347   0.219 -0.00 +0.00    +0.000 Fe
DOCKED: ENDROOT
DOCKED: BRANCH   6  30
DOCKED: ATOM     30  C   UNL d   1      40.886  48.531   5.017 -0.26 -0.00    +0.052 C 
DOCKED: BRANCH  30  31
DOCKED: ATOM     31  C   UNL d   1      39.641  49.398   5.200 -0.28 +0.01    +0.115 C 
DOCKED: BRANCH  31  32
DOCKED: ATOM     32  C   UNL d   1      38.385  48.718   4.700 -0.24 +0.11    +0.139 C 
DOCKED: ATOM     33  O   UNL d   1      37.565  48.304   5.506 -0.32 -0.81    -0.650 OA
DOCKED: BRANCH  32  34
DOCKED: ATOM     34  O   UNL d   1      38.113  48.592   3.380 -0.37 -0.79    -0.776 OA
DOCKED: ATOM     35  H   UNL d   1      38.106  47.751   2.904 +0.03 +0.17    +0.167 HD
DOCKED: ENDBRANCH  32  34
DOCKED: ENDBRANCH  31  32
DOCKED: ENDBRANCH  30  31
DOCKED: ENDBRANCH   6  30
DOCKED: BRANCH  29  36
DOCKED: ATOM     36  C   UNL d   1      38.537  46.334   0.032 +0.00 +0.05    +0.190 C 
DOCKED: BRANCH  36  37
DOCKED: ATOM     37  O   UNL d   1      37.589  47.069   0.751 -0.01 -0.21    -0.399 OA
DOCKED: ATOM     38  H   UNL d   1      37.802  46.892   1.710 +0.02 +0.15    +0.209 HD
DOCKED: ENDBRANCH  36  37
DOCKED: ENDBRANCH  29  36
DOCKED: BRANCH  22  39
DOCKED: ATOM     39  C   UNL d   1      38.666  43.596   5.370 -0.20 +0.01    +0.052 C 
DOCKED: BRANCH  39  40
DOCKED: ATOM     40  C   UNL d   1      37.536  44.581   5.709 -0.27 +0.05    +0.115 C 
DOCKED: BRANCH  40  41
DOCKED: ATOM     41  C   UNL d   1      36.710  45.018   4.517 -0.17 +0.15    +0.139 C 
DOCKED: ATOM     42  O   UNL d   1      35.622  44.497   4.320 -0.55 -0.63    -0.650 OA
DOCKED: BRANCH  41  43
DOCKED: ATOM     43  O   UNL d   1      37.104  46.032   3.714 +0.19 -1.31    -0.776 OA
DOCKED: ATOM     44  H   UNL d   1      37.619  46.781   4.038 +0.04 +0.26    +0.167 HD
DOCKED: ENDBRANCH  41  43
DOCKED: ENDBRANCH  40  41
DOCKED: ENDBRANCH  39  40
DOCKED: ENDBRANCH  22  39
DOCKED: BRANCH  12  45
DOCKED: ATOM     45  C   UNL d   1      42.150  47.122  -4.706 +0.00 +0.00    +0.004 C 
DOCKED: ATOM     46  C   UNL d   1      41.320  47.205  -5.742 +0.00 +0.00    +0.012 C 
DOCKED: ENDBRANCH  12  45
DOCKED: BRANCH  17  47
DOCKED: ATOM     47  C   UNL d   1      38.080  41.001  -2.053 -0.02 +0.00    +0.004 C 
DOCKED: ATOM     48  C   UNL d   1      38.424  39.839  -1.493 -0.05 +0.00    +0.012 C 
DOCKED: ENDBRANCH  17  47
DOCKED: TORSDOF 12
DOCKED: TER
DOCKED: ENDMDL
________________________________________________________________________________


	BEGINNING GENETIC ALGORITHM DOCKING 48 of 100
Run: 48 Seed: 605060564 1049396047 [ Run 48 of 100 GA/GALS ]
Beginning LAMARCKIAN GENETIC ALGORITHM (LGA), with a maximum of 25000000 energy evaluations.

Final-Value: -12.219


	FINAL GENETIC ALGORITHM DOCKED STATE
	_______________________________________________


Detailed state:  trans 46.368 20.459 17.739 quatxyzw 0.285728 0.934734 -0.176055 -0.116771 center 8.781 34.984 -0.736 ntor 12 177.0098 132.2068 -21.1000 -91.0207 -4.7775 -141.6807 -175.2523 -32.5108 -102.8856 180.0000 -180.0000 178.6020
State:	 46.368  20.459  17.739   0.288  0.941 -0.177 -166.588    177.01  132.21  -21.10  -91.02   -4.78 -141.68 -175.25  -32.51 -102.89  180.00 -180.00  178.60

DOCKED: MODEL       48
DOCKED: USER    Run = 48
DOCKED: USER    DPF = D:/Protein_go_brrr/autodock/final/6BB5/heme_Co/dock.dpf
DOCKED: USER  
DOCKED: USER    Estimated Free Energy of Binding    =   -6.23 kcal/mol  [=(1)+(2)+(3)-(4)]
DOCKED: USER    Estimated Inhibition Constant, Ki   =   27.26 uM (micromolar)  [Temperature = 298.15 K]
DOCKED: USER    
DOCKED: USER    (1) Final Intermolecular Energy     =   -9.81 kcal/mol
DOCKED: USER        vdW + Hbond + desolv Energy     =   -6.91 kcal/mol
DOCKED: USER        Electrostatic Energy            =   -2.90 kcal/mol
DOCKED: USER    (2) Final Total Internal Energy     =   -2.41 kcal/mol
DOCKED: USER    (3) Torsional Free Energy           =   +3.58 kcal/mol
DOCKED: USER    (4) Unbound System's Energy  [=(2)] =   -2.41 kcal/mol
DOCKED: USER    
DOCKED: USER    
DOCKED: USER    NEWDPF move heme_Co_opt.pdbqt
DOCKED: USER    NEWDPF about 8.781000 34.984000 -0.736000
DOCKED: USER    NEWDPF tran0 46.368366 20.458949 17.739208
DOCKED: USER    NEWDPF quaternion0 0.285728 0.934734 -0.176055 -0.116771
DOCKED: USER    NEWDPF axisangle0 0.287696 0.941173 -0.177268 -166.588379
DOCKED: USER    NEWDPF quat0 0.287696 0.941173 -0.177268 -166.588379
DOCKED: USER    NEWDPF dihe0 177.01 132.21 -21.10 -91.02 -4.78 -141.68 -175.25 -32.51 -102.89 180.00 -180.00 178.60 
DOCKED: USER  keepresnum = 1 
DOCKED: USER  
DOCKED: REMARK  12 active torsions:
DOCKED: REMARK  status: ('A' for Active; 'I' for Inactive)
DOCKED: REMARK    1  A    between atoms: C_6  and  C_10 
DOCKED: REMARK    2  A    between atoms: C_10  and  C_11 
DOCKED: REMARK    3  A    between atoms: C_11  and  C_12 
DOCKED: REMARK    4  A    between atoms: C_12  and  O_14 
DOCKED: REMARK    5  A    between atoms: C_17  and  C_20 
DOCKED: REMARK    6  A    between atoms: C_24  and  C_27 
DOCKED: REMARK    7  A    between atoms: C_31  and  C_34 
DOCKED: REMARK    8  A    between atoms: C_34  and  C_35 
DOCKED: REMARK    9  A    between atoms: C_35  and  C_36 
DOCKED: REMARK   10  A    between atoms: C_36  and  O_38 
DOCKED: REMARK   11  A    between atoms: FE_43  and  C_44 
DOCKED: REMARK   12  A    between atoms: C_44  and  O_45 
DOCKED: USER                              x       y       z     vdW  Elec       q    Type
DOCKED: USER                           _______ _______ _______ _____ _____    ______ ____
DOCKED: ROOT
DOCKED: ATOM      1  C   UNL d   1      48.122  20.228  18.999 -0.06 +0.04    +0.064 A 
DOCKED: ATOM      2  C   UNL d   1      46.012  17.309  15.894 -0.06 +0.02    +0.064 C 
DOCKED: ATOM      3  C   UNL d   1      42.488  20.473  15.257 -0.02 +0.00    +0.064 A 
DOCKED: ATOM      4  C   UNL d   1      44.822  23.630  18.130 -0.17 +0.03    +0.064 A 
DOCKED: ATOM      5  C   UNL d   1      47.785  19.183  18.225 -0.06 +0.04    +0.066 A 
DOCKED: ATOM      6  C   UNL d   1      48.621  18.058  18.083 -0.02 -0.01    -0.021 A 
DOCKED: ATOM      7  C   UNL d   1      48.015  17.225  17.164 -0.02 -0.01    -0.025 A 
DOCKED: ATOM      8  C   UNL d   1      46.828  17.868  16.797 -0.05 +0.03    +0.066 A 
DOCKED: ATOM      9  C   UNL d   1      48.522  15.872  16.640 -0.00 +0.02    +0.051 C 
DOCKED: ATOM     10  C   UNL d   1      44.758  17.884  15.475 -0.10 +0.02    +0.066 A 
DOCKED: ATOM     11  C   UNL d   1      43.792  17.282  14.640 -0.13 -0.00    -0.021 A 
DOCKED: ATOM     12  C   UNL d   1      42.773  18.225  14.474 -0.28 +0.00    +0.000 A 
DOCKED: ATOM     13  C   UNL d   1      43.186  19.324  15.228 -0.28 +0.01    +0.070 A 
DOCKED: ATOM     14  C   UNL d   1      43.815  15.866  14.125 -0.08 +0.01    +0.052 C 
DOCKED: ATOM     15  C   UNL d   1      42.793  21.717  15.937 -0.20 +0.01    +0.066 A 
DOCKED: ATOM     16  C   UNL d   1      42.104  22.915  15.809 -0.37 -0.00    -0.021 A 
DOCKED: ATOM     17  C   UNL d   1      42.775  23.829  16.633 -0.33 +0.00    +0.000 A 
DOCKED: ATOM     18  C   UNL d   1      43.814  23.110  17.214 -0.23 +0.02    +0.070 A 
DOCKED: ATOM     19  C   UNL d   1      40.885  23.137  14.942 -0.56 +0.00    +0.052 C 
DOCKED: ATOM     20  C   UNL d   1      45.891  22.973  18.639 -0.12 +0.03    +0.066 A 
DOCKED: ATOM     21  C   UNL d   1      46.812  23.592  19.482 -0.06 -0.01    -0.025 A 
DOCKED: ATOM     22  C   UNL d   1      47.759  22.627  19.772 -0.04 -0.01    -0.021 A 
DOCKED: ATOM     23  C   UNL d   1      47.372  21.461  19.077 -0.08 +0.04    +0.066 A 
DOCKED: ATOM     24  C   UNL d   1      46.802  25.038  19.971 -0.06 +0.03    +0.051 C 
DOCKED: ATOM     25  N   UNL d   1      46.657  19.081  17.443 -0.06 -0.13    -0.248 N 
DOCKED: ATOM     26  N   UNL d   1      44.359  19.095  15.877 -0.11 -0.08    -0.248 N 
DOCKED: ATOM     27  N   UNL d   1      43.813  21.864  16.753 -0.16 -0.07    -0.248 N 
DOCKED: ATOM     28  N   UNL d   1      46.243  21.667  18.388 -0.09 -0.13    -0.248 N 
DOCKED: ATOM     29 FE   UNL d   1      45.152  20.557  17.080 -0.05 +0.00    +0.000 Fe
DOCKED: ENDROOT
DOCKED: BRANCH   6  30
DOCKED: ATOM     30  C   UNL d   1      49.979  17.845  18.745 -0.01 +0.02    +0.052 C 
DOCKED: BRANCH  30  31
DOCKED: ATOM     31  C   UNL d   1      51.107  18.260  17.801 -0.02 +0.06    +0.115 C 
DOCKED: BRANCH  31  32
DOCKED: ATOM     32  C   UNL d   1      51.248  19.763  17.696 -0.05 +0.12    +0.139 C 
DOCKED: ATOM     33  O   UNL d   1      51.403  20.425  18.711 -0.00 -0.40    -0.650 OA
DOCKED: BRANCH  32  34
DOCKED: ATOM     34  O   UNL d   1      51.256  20.401  16.502 -0.31 -1.50    -0.776 OA
DOCKED: ATOM     35  H   UNL d   1      51.244  21.363  16.399 +0.02 +0.40    +0.167 HD
DOCKED: ENDBRANCH  32  34
DOCKED: ENDBRANCH  31  32
DOCKED: ENDBRANCH  30  31
DOCKED: ENDBRANCH   6  30
DOCKED: BRANCH  29  36
DOCKED: ATOM     36  C   UNL d   1      46.344  21.218  15.488 -0.12 +0.20    +0.190 C 
DOCKED: BRANCH  36  37
DOCKED: ATOM     37  O   UNL d   1      46.875  20.825  14.255 -0.64 -0.58    -0.399 OA
DOCKED: ATOM     38  H   UNL d   1      46.315  20.049  13.970 +0.07 +0.18    +0.209 HD
DOCKED: ENDBRANCH  36  37
DOCKED: ENDBRANCH  29  36
DOCKED: BRANCH  22  39
DOCKED: ATOM     39  C   UNL d   1      49.000  22.839  20.619 -0.01 +0.02    +0.052 C 
DOCKED: BRANCH  39  40
DOCKED: ATOM     40  C   UNL d   1      50.106  23.524  19.799 -0.01 +0.06    +0.115 C 
DOCKED: BRANCH  40  41
DOCKED: ATOM     41  C   UNL d   1      49.774  23.707  18.333 -0.08 +0.11    +0.139 C 
DOCKED: ATOM     42  O   UNL d   1      49.485  24.821  17.920 -0.01 -0.44    -0.650 OA
DOCKED: BRANCH  41  43
DOCKED: ATOM     43  O   UNL d   1      49.873  22.689  17.449 -0.22 -1.31    -0.776 OA
DOCKED: ATOM     44  H   UNL d   1      50.347  21.872  17.650 +0.00 +0.26    +0.167 HD
DOCKED: ENDBRANCH  41  43
DOCKED: ENDBRANCH  40  41
DOCKED: ENDBRANCH  39  40
DOCKED: ENDBRANCH  22  39
DOCKED: BRANCH  12  45
DOCKED: ATOM     45  C   UNL d   1      41.456  18.207  13.710 -0.44 +0.00    +0.004 C 
DOCKED: ATOM     46  C   UNL d   1      41.138  18.711  12.520 -0.41 +0.00    +0.012 C 
DOCKED: ENDBRANCH  12  45
DOCKED: BRANCH  17  47
DOCKED: ATOM     47  C   UNL d   1      42.522  25.286  16.846 -0.39 +0.00    +0.004 C 
DOCKED: ATOM     48  C   UNL d   1      41.943  26.074  15.937 -0.41 +0.00    +0.012 C 
DOCKED: ENDBRANCH  17  47
DOCKED: TORSDOF 12
DOCKED: TER
DOCKED: ENDMDL
________________________________________________________________________________


	BEGINNING GENETIC ALGORITHM DOCKING 49 of 100
Run: 49 Seed: 208264792 47805205 [ Run 49 of 100 GA/GALS ]
Beginning LAMARCKIAN GENETIC ALGORITHM (LGA), with a maximum of 25000000 energy evaluations.

Final-Value: -14.631


	FINAL GENETIC ALGORITHM DOCKED STATE
	_______________________________________________


Detailed state:  trans 45.677 27.594 18.098 quatxyzw -0.243434 0.331654 0.911359 -0.013098 center 8.781 34.984 -0.736 ntor 12 -96.0369 77.1791 -111.9775 78.1392 75.9532 140.4654 28.4861 68.7310 178.9383 34.7592 -177.3264 19.5035
State:	 45.677  27.594  18.098  -0.243  0.332  0.911 -178.499    -96.04   77.18 -111.98   78.14   75.95  140.47   28.49   68.73  178.94   34.76 -177.33   19.50

DOCKED: MODEL       49
DOCKED: USER    Run = 49
DOCKED: USER    DPF = D:/Protein_go_brrr/autodock/final/6BB5/heme_Co/dock.dpf
DOCKED: USER  
DOCKED: USER    Estimated Free Energy of Binding    =   -9.02 kcal/mol  [=(1)+(2)+(3)-(4)]
DOCKED: USER    Estimated Inhibition Constant, Ki   =  244.05 nM (nanomolar)  [Temperature = 298.15 K]
DOCKED: USER    
DOCKED: USER    (1) Final Intermolecular Energy     =  -12.60 kcal/mol
DOCKED: USER        vdW + Hbond + desolv Energy     =   -9.33 kcal/mol
DOCKED: USER        Electrostatic Energy            =   -3.28 kcal/mol
DOCKED: USER    (2) Final Total Internal Energy     =   -2.03 kcal/mol
DOCKED: USER    (3) Torsional Free Energy           =   +3.58 kcal/mol
DOCKED: USER    (4) Unbound System's Energy  [=(2)] =   -2.03 kcal/mol
DOCKED: USER    
DOCKED: USER    
DOCKED: USER    NEWDPF move heme_Co_opt.pdbqt
DOCKED: USER    NEWDPF about 8.781000 34.984000 -0.736000
DOCKED: USER    NEWDPF tran0 45.676667 27.594097 18.097567
DOCKED: USER    NEWDPF quaternion0 -0.243434 0.331654 0.911359 -0.013098
DOCKED: USER    NEWDPF axisangle0 -0.243455 0.331682 0.911437 -178.499017
DOCKED: USER    NEWDPF quat0 -0.243455 0.331682 0.911437 -178.499017
DOCKED: USER    NEWDPF dihe0 -96.04 77.18 -111.98 78.14 75.95 140.47 28.49 68.73 178.94 34.76 -177.33 19.50 
DOCKED: USER  keepresnum = 1 
DOCKED: USER  
DOCKED: REMARK  12 active torsions:
DOCKED: REMARK  status: ('A' for Active; 'I' for Inactive)
DOCKED: REMARK    1  A    between atoms: C_6  and  C_10 
DOCKED: REMARK    2  A    between atoms: C_10  and  C_11 
DOCKED: REMARK    3  A    between atoms: C_11  and  C_12 
DOCKED: REMARK    4  A    between atoms: C_12  and  O_14 
DOCKED: REMARK    5  A    between atoms: C_17  and  C_20 
DOCKED: REMARK    6  A    between atoms: C_24  and  C_27 
DOCKED: REMARK    7  A    between atoms: C_31  and  C_34 
DOCKED: REMARK    8  A    between atoms: C_34  and  C_35 
DOCKED: REMARK    9  A    between atoms: C_35  and  C_36 
DOCKED: REMARK   10  A    between atoms: C_36  and  O_38 
DOCKED: REMARK   11  A    between atoms: FE_43  and  C_44 
DOCKED: REMARK   12  A    between atoms: C_44  and  O_45 
DOCKED: USER                              x       y       z     vdW  Elec       q    Type
DOCKED: USER                           _______ _______ _______ _____ _____    ______ ____
DOCKED: ROOT
DOCKED: ATOM      1  C   UNL d   1      47.659  26.952  18.709 -0.08 +0.03    +0.064 A 
DOCKED: ATOM      2  C   UNL d   1      45.418  31.134  19.019 -0.23 +0.02    +0.064 C 
DOCKED: ATOM      3  C   UNL d   1      41.715  29.375  16.566 -0.20 +0.01    +0.064 A 
DOCKED: ATOM      4  C   UNL d   1      43.814  24.986  16.570 -0.18 +0.02    +0.064 A 
DOCKED: ATOM      5  C   UNL d   1      47.334  28.234  18.943 -0.09 +0.03    +0.066 A 
DOCKED: ATOM      6  C   UNL d   1      48.152  29.084  19.713 -0.06 -0.01    -0.021 A 
DOCKED: ATOM      7  C   UNL d   1      47.486  30.289  19.819 -0.09 -0.01    -0.025 A 
DOCKED: ATOM      8  C   UNL d   1      46.299  30.129  19.096 -0.14 +0.03    +0.066 A 
DOCKED: ATOM      9  C   UNL d   1      47.936  31.552  20.570 -0.08 +0.02    +0.051 C 
DOCKED: ATOM     10  C   UNL d   1      44.184  31.071  18.277 -0.26 +0.02    +0.066 A 
DOCKED: ATOM     11  C   UNL d   1      43.285  32.134  18.042 -0.38 -0.00    -0.021 A 
DOCKED: ATOM     12  C   UNL d   1      42.216  31.594  17.321 -0.43 +0.00    +0.000 A 
DOCKED: ATOM     13  C   UNL d   1      42.547  30.249  17.159 -0.32 +0.02    +0.070 A 
DOCKED: ATOM     14  C   UNL d   1      43.499  33.581  18.407 -0.37 +0.00    +0.052 C 
DOCKED: ATOM     15  C   UNL d   1      41.872  27.948  16.362 -0.29 +0.01    +0.066 A 
DOCKED: ATOM     16  C   UNL d   1      40.911  27.076  15.871 -0.38 -0.00    -0.021 A 
DOCKED: ATOM     17  C   UNL d   1      41.511  25.808  15.873 -0.40 +0.00    +0.000 A 
DOCKED: ATOM     18  C   UNL d   1      42.801  26.011  16.350 -0.28 +0.02    +0.070 A 
DOCKED: ATOM     19  C   UNL d   1      39.514  27.463  15.439 -0.40 +0.01    +0.052 C 
DOCKED: ATOM     20  C   UNL d   1      45.044  25.146  17.114 -0.20 +0.03    +0.066 A 
DOCKED: ATOM     21  C   UNL d   1      45.916  24.077  17.308 -0.18 -0.01    -0.025 A 
DOCKED: ATOM     22  C   UNL d   1      47.045  24.619  17.896 -0.13 -0.01    -0.021 A 
DOCKED: ATOM     23  C   UNL d   1      46.798  26.000  18.044 -0.12 +0.03    +0.066 A 
DOCKED: ATOM     24  C   UNL d   1      45.679  22.608  16.968 -0.21 +0.03    +0.051 C 
DOCKED: ATOM     25  N   UNL d   1      46.182  28.868  18.537 -0.08 -0.11    -0.248 N 
DOCKED: ATOM     26  N   UNL d   1      43.763  29.946  17.688 -0.17 -0.07    -0.248 N 
DOCKED: ATOM     27  N   UNL d   1      42.971  27.292  16.660 -0.21 -0.06    -0.248 N 
DOCKED: ATOM     28  N   UNL d   1      45.588  26.323  17.574 -0.11 -0.10    -0.248 N 
DOCKED: ATOM     29 FE   UNL d   1      44.483  28.030  17.542 -0.05 +0.00    +0.000 Fe
DOCKED: ENDROOT
DOCKED: BRANCH   6  30
DOCKED: ATOM     30  C   UNL d   1      49.473  28.715  20.381 -0.02 +0.02    +0.052 C 
DOCKED: BRANCH  30  31
DOCKED: ATOM     31  C   UNL d   1      49.238  28.264  21.822 -0.03 +0.06    +0.115 C 
DOCKED: BRANCH  31  32
DOCKED: ATOM     32  C   UNL d   1      47.784  28.367  22.230 -0.01 +0.16    +0.139 C 
DOCKED: ATOM     33  O   UNL d   1      47.417  29.313  22.911 -0.14 -0.86    -0.650 OA
DOCKED: BRANCH  32  34
DOCKED: ATOM     34  O   UNL d   1      46.860  27.466  21.825 -0.49 -1.30    -0.776 OA
DOCKED: ATOM     35  H   UNL d   1      46.240  27.613  21.096 +0.02 +0.25    +0.167 HD
DOCKED: ENDBRANCH  32  34
DOCKED: ENDBRANCH  31  32
DOCKED: ENDBRANCH  30  31
DOCKED: ENDBRANCH   6  30
DOCKED: BRANCH  29  36
DOCKED: ATOM     36  C   UNL d   1      43.721  27.600  19.447 +0.21 +0.12    +0.190 C 
DOCKED: BRANCH  36  37
DOCKED: ATOM     37  O   UNL d   1      44.077  27.515  20.797 -0.38 -0.54    -0.399 OA
DOCKED: ATOM     38  H   UNL d   1      45.008  27.156  20.794 +0.06 +0.28    +0.209 HD
DOCKED: ENDBRANCH  36  37
DOCKED: ENDBRANCH  29  36
DOCKED: BRANCH  22  39
DOCKED: ATOM     39  C   UNL d   1      48.263  23.835  18.349 -0.10 +0.04    +0.052 C 
DOCKED: BRANCH  39  40
DOCKED: ATOM     40  C   UNL d   1      49.527  24.333  17.629 -0.13 +0.10    +0.115 C 
DOCKED: BRANCH  40  41
DOCKED: ATOM     41  C   UNL d   1      50.596  23.277  17.441 -0.04 +0.17    +0.139 C 
DOCKED: ATOM     42  O   UNL d   1      51.767  23.619  17.356 -0.03 -0.51    -0.650 OA
DOCKED: BRANCH  41  43
DOCKED: ATOM     43  O   UNL d   1      50.301  21.958  17.453 +0.03 -1.37    -0.776 OA
DOCKED: ATOM     44  H   UNL d   1      50.516  21.385  18.200 +0.01 +0.18    +0.167 HD
DOCKED: ENDBRANCH  41  43
DOCKED: ENDBRANCH  40  41
DOCKED: ENDBRANCH  39  40
DOCKED: ENDBRANCH  22  39
DOCKED: BRANCH  12  45
DOCKED: ATOM     45  C   UNL d   1      40.937  32.195  16.753 -0.52 +0.00    +0.004 C 
DOCKED: ATOM     46  C   UNL d   1      40.752  33.044  15.746 -0.52 +0.00    +0.012 C 
DOCKED: ENDBRANCH  12  45
DOCKED: BRANCH  17  47
DOCKED: ATOM     47  C   UNL d   1      40.933  24.479  15.512 -0.52 +0.00    +0.004 C 
DOCKED: ATOM     48  C   UNL d   1      40.341  24.226  14.342 -0.61 +0.00    +0.012 C 
DOCKED: ENDBRANCH  17  47
DOCKED: TORSDOF 12
DOCKED: TER
DOCKED: ENDMDL
________________________________________________________________________________


	BEGINNING GENETIC ALGORITHM DOCKING 50 of 100
Run: 50 Seed: 946694458 687341155 [ Run 50 of 100 GA/GALS ]
Beginning LAMARCKIAN GENETIC ALGORITHM (LGA), with a maximum of 25000000 energy evaluations.

Final-Value: -14.556


	FINAL GENETIC ALGORITHM DOCKED STATE
	_______________________________________________


Detailed state:  trans 44.846 24.605 17.933 quatxyzw 0.610653 0.778550 -0.126499 0.070430 center 8.781 34.984 -0.736 ntor 12 26.3260 135.5987 -117.8574 108.8072 78.7550 110.6754 30.2679 145.0116 152.4519 124.6648 -155.6509 173.0313
State:	 44.846  24.605  17.933   0.612  0.780 -0.127 171.923     26.33  135.60 -117.86  108.81   78.76  110.68   30.27  145.01  152.45  124.66 -155.65  173.03

DOCKED: MODEL       50
DOCKED: USER    Run = 50
DOCKED: USER    DPF = D:/Protein_go_brrr/autodock/final/6BB5/heme_Co/dock.dpf
DOCKED: USER  
DOCKED: USER    Estimated Free Energy of Binding    =   -7.90 kcal/mol  [=(1)+(2)+(3)-(4)]
DOCKED: USER    Estimated Inhibition Constant, Ki   =    1.61 uM (micromolar)  [Temperature = 298.15 K]
DOCKED: USER    
DOCKED: USER    (1) Final Intermolecular Energy     =  -11.48 kcal/mol
DOCKED: USER        vdW + Hbond + desolv Energy     =   -8.51 kcal/mol
DOCKED: USER        Electrostatic Energy            =   -2.97 kcal/mol
DOCKED: USER    (2) Final Total Internal Energy     =   -3.07 kcal/mol
DOCKED: USER    (3) Torsional Free Energy           =   +3.58 kcal/mol
DOCKED: USER    (4) Unbound System's Energy  [=(2)] =   -3.07 kcal/mol
DOCKED: USER    
DOCKED: USER    
DOCKED: USER    NEWDPF move heme_Co_opt.pdbqt
DOCKED: USER    NEWDPF about 8.781000 34.984000 -0.736000
DOCKED: USER    NEWDPF tran0 44.846263 24.604565 17.932719
DOCKED: USER    NEWDPF quaternion0 0.610653 0.778550 -0.126499 0.070430
DOCKED: USER    NEWDPF axisangle0 0.612173 0.780488 -0.126814 171.922621
DOCKED: USER    NEWDPF quat0 0.612173 0.780488 -0.126814 171.922621
DOCKED: USER    NEWDPF dihe0 26.33 135.60 -117.86 108.81 78.76 110.68 30.27 145.01 152.45 124.66 -155.65 173.03 
DOCKED: USER  keepresnum = 1 
DOCKED: USER  
DOCKED: REMARK  12 active torsions:
DOCKED: REMARK  status: ('A' for Active; 'I' for Inactive)
DOCKED: REMARK    1  A    between atoms: C_6  and  C_10 
DOCKED: REMARK    2  A    between atoms: C_10  and  C_11 
DOCKED: REMARK    3  A    between atoms: C_11  and  C_12 
DOCKED: REMARK    4  A    between atoms: C_12  and  O_14 
DOCKED: REMARK    5  A    between atoms: C_17  and  C_20 
DOCKED: REMARK    6  A    between atoms: C_24  and  C_27 
DOCKED: REMARK    7  A    between atoms: C_31  and  C_34 
DOCKED: REMARK    8  A    between atoms: C_34  and  C_35 
DOCKED: REMARK    9  A    between atoms: C_35  and  C_36 
DOCKED: REMARK   10  A    between atoms: C_36  and  O_38 
DOCKED: REMARK   11  A    between atoms: FE_43  and  C_44 
DOCKED: REMARK   12  A    between atoms: C_44  and  O_45 
DOCKED: USER                              x       y       z     vdW  Elec       q    Type
DOCKED: USER                           _______ _______ _______ _____ _____    ______ ____
DOCKED: ROOT
DOCKED: ATOM      1  C   UNL d   1      46.009  22.935  18.693 -0.12 +0.03    +0.064 A 
DOCKED: ATOM      2  C   UNL d   1      42.233  23.149  15.811 -0.34 +0.01    +0.064 C 
DOCKED: ATOM      3  C   UNL d   1      41.944  27.872  16.478 -0.19 +0.01    +0.064 A 
DOCKED: ATOM      4  C   UNL d   1      46.029  27.736  19.115 -0.12 +0.04    +0.064 A 
DOCKED: ATOM      5  C   UNL d   1      44.977  22.642  17.885 -0.18 +0.03    +0.066 A 
DOCKED: ATOM      6  C   UNL d   1      44.759  21.340  17.393 -0.14 -0.01    -0.021 A 
DOCKED: ATOM      7  C   UNL d   1      43.676  21.412  16.540 -0.25 -0.01    -0.025 A 
DOCKED: ATOM      8  C   UNL d   1      43.269  22.751  16.560 -0.19 +0.02    +0.066 A 
DOCKED: ATOM      9  C   UNL d   1      43.038  20.274  15.729 -0.35 +0.01    +0.051 C 
DOCKED: ATOM     10  C   UNL d   1      41.726  24.499  15.787 -0.36 +0.01    +0.066 A 
DOCKED: ATOM     11  C   UNL d   1      40.560  24.951  15.132 -0.44 -0.00    -0.021 A 
DOCKED: ATOM     12  C   UNL d   1      40.498  26.330  15.347 -0.44 +0.00    +0.000 A 
DOCKED: ATOM     13  C   UNL d   1      41.621  26.615  16.124 -0.35 +0.01    +0.070 A 
DOCKED: ATOM     14  C   UNL d   1      39.537  24.090  14.437 -0.38 +0.01    +0.052 C 
DOCKED: ATOM     15  C   UNL d   1      43.088  28.350  17.229 -0.18 +0.02    +0.066 A 
DOCKED: ATOM     16  C   UNL d   1      43.441  29.676  17.436 -0.30 -0.01    -0.021 A 
DOCKED: ATOM     17  C   UNL d   1      44.620  29.642  18.195 -0.25 +0.00    +0.000 A 
DOCKED: ATOM     18  C   UNL d   1      44.885  28.293  18.405 -0.18 +0.03    +0.070 A 
DOCKED: ATOM     19  C   UNL d   1      42.676  30.877  16.926 -0.37 +0.01    +0.052 C 
DOCKED: ATOM     20  C   UNL d   1      46.354  26.429  19.259 -0.08 +0.04    +0.066 A 
DOCKED: ATOM     21  C   UNL d   1      47.501  26.017  19.933 -0.04 -0.01    -0.025 A 
DOCKED: ATOM     22  C   UNL d   1      47.507  24.637  19.853 -0.03 -0.01    -0.021 A 
DOCKED: ATOM     23  C   UNL d   1      46.360  24.272  19.117 -0.06 +0.03    +0.066 A 
DOCKED: ATOM     24  C   UNL d   1      48.553  26.897  20.605 -0.03 +0.03    +0.051 C 
DOCKED: ATOM     25  N   UNL d   1      44.053  23.534  17.389 -0.13 -0.08    -0.248 N 
DOCKED: ATOM     26  N   UNL d   1      42.332  25.499  16.436 -0.21 -0.05    -0.248 N 
DOCKED: ATOM     27  N   UNL d   1      43.969  27.552  17.790 -0.13 -0.09    -0.248 N 
DOCKED: ATOM     28  N   UNL d   1      45.660  25.354  18.753 -0.04 -0.12    -0.248 N 
DOCKED: ATOM     29 FE   UNL d   1      44.011  25.662  17.604 -0.05 +0.00    +0.000 Fe
DOCKED: ENDROOT
DOCKED: BRANCH   6  30
DOCKED: ATOM     30  C   UNL d   1      45.612  20.107  17.675 -0.13 +0.02    +0.052 C 
DOCKED: BRANCH  30  31
DOCKED: ATOM     31  C   UNL d   1      46.955  20.207  16.953 -0.13 +0.10    +0.115 C 
DOCKED: BRANCH  31  32
DOCKED: ATOM     32  C   UNL d   1      46.866  21.014  15.675 -0.03 +0.20    +0.139 C 
DOCKED: ATOM     33  O   UNL d   1      46.775  20.434  14.604 -0.43 -0.84    -0.650 OA
DOCKED: BRANCH  32  34
DOCKED: ATOM     34  O   UNL d   1      46.834  22.367  15.682 -0.05 -1.07    -0.776 OA
DOCKED: ATOM     35  H   UNL d   1      47.164  22.915  16.407 +0.04 +0.22    +0.167 HD
DOCKED: ENDBRANCH  32  34
DOCKED: ENDBRANCH  31  32
DOCKED: ENDBRANCH  30  31
DOCKED: ENDBRANCH   6  30
DOCKED: BRANCH  29  36
DOCKED: ATOM     36  C   UNL d   1      45.200  25.747  15.879 +0.12 +0.07    +0.190 C 
DOCKED: BRANCH  36  37
DOCKED: ATOM     37  O   UNL d   1      46.310  25.162  15.261 +0.03 -0.22    -0.399 OA
DOCKED: ATOM     38  H   UNL d   1      46.389  24.258  15.678 +0.07 +0.15    +0.209 HD
DOCKED: ENDBRANCH  36  37
DOCKED: ENDBRANCH  29  36
DOCKED: BRANCH  22  39
DOCKED: ATOM     39  C   UNL d   1      48.592  23.728  20.399 -0.01 +0.02    +0.052 C 
DOCKED: BRANCH  39  40
DOCKED: ATOM     40  C   UNL d   1      49.732  23.571  19.380 -0.03 +0.06    +0.115 C 
DOCKED: BRANCH  40  41
DOCKED: ATOM     41  C   UNL d   1      49.312  22.956  18.061 -0.08 +0.15    +0.139 C 
DOCKED: ATOM     42  O   UNL d   1      49.124  21.749  17.997 -0.15 -0.84    -0.650 OA
DOCKED: BRANCH  41  43
DOCKED: ATOM     43  O   UNL d   1      49.053  23.715  16.974 -0.50 -1.17    -0.776 OA
DOCKED: ATOM     44  H   UNL d   1      48.165  23.812  16.607 +0.03 +0.23    +0.167 HD
DOCKED: ENDBRANCH  41  43
DOCKED: ENDBRANCH  40  41
DOCKED: ENDBRANCH  39  40
DOCKED: ENDBRANCH  22  39
DOCKED: BRANCH  12  45
DOCKED: ATOM     45  C   UNL d   1      39.502  27.403  14.925 -0.32 +0.00    +0.004 C 
DOCKED: ATOM     46  C   UNL d   1      38.517  27.985  15.603 -0.46 +0.00    +0.012 C 
DOCKED: ENDBRANCH  12  45
DOCKED: BRANCH  17  47
DOCKED: ATOM     47  C   UNL d   1      45.487  30.765  18.660 -0.24 +0.00    +0.004 C 
DOCKED: ATOM     48  C   UNL d   1      45.044  31.776  19.411 -0.28 +0.00    +0.012 C 
DOCKED: ENDBRANCH  17  47
DOCKED: TORSDOF 12
DOCKED: TER
DOCKED: ENDMDL
________________________________________________________________________________


	BEGINNING GENETIC ALGORITHM DOCKING 51 of 100
Run: 51 Seed: 1439495737 1361738189 [ Run 51 of 100 GA/GALS ]
Beginning LAMARCKIAN GENETIC ALGORITHM (LGA), with a maximum of 25000000 energy evaluations.

Final-Value: -12.940


	FINAL GENETIC ALGORITHM DOCKED STATE
	_______________________________________________


Detailed state:  trans 45.643 27.605 18.096 quatxyzw -0.241904 0.335350 0.910342 -0.017334 center 8.781 34.984 -0.736 ntor 12 45.8302 143.1268 171.4451 121.8112 104.1543 101.3375 -143.4112 125.9944 148.0377 -84.9979 -152.9191 168.0724
State:	 45.643  27.605  18.096  -0.242  0.335  0.910 -178.014     45.83  143.13  171.45  121.81  104.15  101.34 -143.41  125.99  148.04  -85.00 -152.92  168.07

DOCKED: MODEL       51
DOCKED: USER    Run = 51
DOCKED: USER    DPF = D:/Protein_go_brrr/autodock/final/6BB5/heme_Co/dock.dpf
DOCKED: USER  
DOCKED: USER    Estimated Free Energy of Binding    =   -7.68 kcal/mol  [=(1)+(2)+(3)-(4)]
DOCKED: USER    Estimated Inhibition Constant, Ki   =    2.33 uM (micromolar)  [Temperature = 298.15 K]
DOCKED: USER    
DOCKED: USER    (1) Final Intermolecular Energy     =  -11.26 kcal/mol
DOCKED: USER        vdW + Hbond + desolv Energy     =   -9.07 kcal/mol
DOCKED: USER        Electrostatic Energy            =   -2.19 kcal/mol
DOCKED: USER    (2) Final Total Internal Energy     =   -1.68 kcal/mol
DOCKED: USER    (3) Torsional Free Energy           =   +3.58 kcal/mol
DOCKED: USER    (4) Unbound System's Energy  [=(2)] =   -1.68 kcal/mol
DOCKED: USER    
DOCKED: USER    
DOCKED: USER    NEWDPF move heme_Co_opt.pdbqt
DOCKED: USER    NEWDPF about 8.781000 34.984000 -0.736000
DOCKED: USER    NEWDPF tran0 45.643426 27.605387 18.095941
DOCKED: USER    NEWDPF quaternion0 -0.241904 0.335350 0.910342 -0.017334
DOCKED: USER    NEWDPF axisangle0 -0.241940 0.335400 0.910479 -178.013621
DOCKED: USER    NEWDPF quat0 -0.241940 0.335400 0.910479 -178.013621
DOCKED: USER    NEWDPF dihe0 45.83 143.13 171.45 121.81 104.15 101.34 -143.41 125.99 148.04 -85.00 -152.92 168.07 
DOCKED: USER  keepresnum = 1 
DOCKED: USER  
DOCKED: REMARK  12 active torsions:
DOCKED: REMARK  status: ('A' for Active; 'I' for Inactive)
DOCKED: REMARK    1  A    between atoms: C_6  and  C_10 
DOCKED: REMARK    2  A    between atoms: C_10  and  C_11 
DOCKED: REMARK    3  A    between atoms: C_11  and  C_12 
DOCKED: REMARK    4  A    between atoms: C_12  and  O_14 
DOCKED: REMARK    5  A    between atoms: C_17  and  C_20 
DOCKED: REMARK    6  A    between atoms: C_24  and  C_27 
DOCKED: REMARK    7  A    between atoms: C_31  and  C_34 
DOCKED: REMARK    8  A    between atoms: C_34  and  C_35 
DOCKED: REMARK    9  A    between atoms: C_35  and  C_36 
DOCKED: REMARK   10  A    between atoms: C_36  and  O_38 
DOCKED: REMARK   11  A    between atoms: FE_43  and  C_44 
DOCKED: REMARK   12  A    between atoms: C_44  and  O_45 
DOCKED: USER                              x       y       z     vdW  Elec       q    Type
DOCKED: USER                           _______ _______ _______ _____ _____    ______ ____
DOCKED: ROOT
DOCKED: ATOM      1  C   UNL d   1      47.619  26.946  18.712 -0.08 +0.03    +0.064 A 
DOCKED: ATOM      2  C   UNL d   1      45.422  31.153  18.999 -0.23 +0.02    +0.064 C 
DOCKED: ATOM      3  C   UNL d   1      41.701  29.419  16.553 -0.20 +0.01    +0.064 A 
DOCKED: ATOM      4  C   UNL d   1      43.754  25.009  16.582 -0.19 +0.02    +0.064 A 
DOCKED: ATOM      5  C   UNL d   1      47.307  28.233  18.938 -0.09 +0.03    +0.066 A 
DOCKED: ATOM      6  C   UNL d   1      48.134  29.078  19.705 -0.06 -0.01    -0.021 A 
DOCKED: ATOM      7  C   UNL d   1      47.481  30.290  19.804 -0.09 -0.01    -0.025 A 
DOCKED: ATOM      8  C   UNL d   1      46.292  30.139  19.081 -0.14 +0.03    +0.066 A 
DOCKED: ATOM      9  C   UNL d   1      47.944  31.552  20.548 -0.07 +0.02    +0.051 C 
DOCKED: ATOM     10  C   UNL d   1      44.187  31.099  18.256 -0.26 +0.02    +0.066 A 
DOCKED: ATOM     11  C   UNL d   1      43.300  32.170  18.015 -0.38 -0.00    -0.021 A 
DOCKED: ATOM     12  C   UNL d   1      42.226  31.638  17.296 -0.43 +0.00    +0.000 A 
DOCKED: ATOM     13  C   UNL d   1      42.542  30.288  17.142 -0.32 +0.01    +0.070 A 
DOCKED: ATOM     14  C   UNL d   1      43.529  33.616  18.372 -0.37 +0.00    +0.052 C 
DOCKED: ATOM     15  C   UNL d   1      41.843  27.990  16.357 -0.29 +0.01    +0.066 A 
DOCKED: ATOM     16  C   UNL d   1      40.873  27.125  15.870 -0.38 -0.00    -0.021 A 
DOCKED: ATOM     17  C   UNL d   1      41.460  25.852  15.879 -0.41 +0.00    +0.000 A 
DOCKED: ATOM     18  C   UNL d   1      42.752  26.044  16.356 -0.29 +0.02    +0.070 A 
DOCKED: ATOM     19  C   UNL d   1      39.481  27.525  15.435 -0.40 +0.01    +0.052 C 
DOCKED: ATOM     20  C   UNL d   1      44.986  25.159  17.125 -0.20 +0.03    +0.066 A 
DOCKED: ATOM     21  C   UNL d   1      45.846  24.082  17.325 -0.18 -0.01    -0.025 A 
DOCKED: ATOM     22  C   UNL d   1      46.980  24.615  17.911 -0.13 -0.01    -0.021 A 
DOCKED: ATOM     23  C   UNL d   1      46.748  25.999  18.052 -0.12 +0.03    +0.066 A 
DOCKED: ATOM     24  C   UNL d   1      45.594  22.614  16.993 -0.21 +0.03    +0.051 C 
DOCKED: ATOM     25  N   UNL d   1      46.162  28.876  18.529 -0.08 -0.11    -0.248 N 
DOCKED: ATOM     26  N   UNL d   1      43.754  29.976  17.673 -0.17 -0.07    -0.248 N 
DOCKED: ATOM     27  N   UNL d   1      42.936  27.324  16.658 -0.21 -0.06    -0.248 N 
DOCKED: ATOM     28  N   UNL d   1      45.541  26.333  17.579 -0.11 -0.10    -0.248 N 
DOCKED: ATOM     29 FE   UNL d   1      44.455  28.051  17.538 -0.05 +0.00    +0.000 Fe
DOCKED: ENDROOT
DOCKED: BRANCH   6  30
DOCKED: ATOM     30  C   UNL d   1      49.450  28.699  20.375 -0.02 +0.02    +0.052 C 
DOCKED: BRANCH  30  31
DOCKED: ATOM     31  C   UNL d   1      49.205  27.726  21.529 -0.02 +0.06    +0.115 C 
DOCKED: BRANCH  31  32
DOCKED: ATOM     32  C   UNL d   1      47.895  27.991  22.238 -0.04 +0.15    +0.139 C 
DOCKED: ATOM     33  O   UNL d   1      46.870  27.474  21.820 -0.52 -1.08    -0.650 OA
DOCKED: BRANCH  32  34
DOCKED: ATOM     34  O   UNL d   1      47.825  28.749  23.358 -0.05 -0.95    -0.776 OA
DOCKED: ATOM     35  H   UNL d   1      48.314  29.573  23.487 +0.01 +0.13    +0.167 HD
DOCKED: ENDBRANCH  32  34
DOCKED: ENDBRANCH  31  32
DOCKED: ENDBRANCH  30  31
DOCKED: ENDBRANCH   6  30
DOCKED: BRANCH  29  36
DOCKED: ATOM     36  C   UNL d   1      43.687  27.639  19.444 +0.24 +0.12    +0.190 C 
DOCKED: BRANCH  36  37
DOCKED: ATOM     37  O   UNL d   1      43.992  27.011  20.656 -0.28 -0.45    -0.399 OA
DOCKED: ATOM     38  H   UNL d   1      44.984  27.084  20.740 +0.06 +0.26    +0.209 HD
DOCKED: ENDBRANCH  36  37
DOCKED: ENDBRANCH  29  36
DOCKED: BRANCH  22  39
DOCKED: ATOM     39  C   UNL d   1      48.189  23.821  18.368 -0.10 +0.04    +0.052 C 
DOCKED: BRANCH  39  40
DOCKED: ATOM     40  C   UNL d   1      48.029  23.384  19.834 -0.03 +0.06    +0.115 C 
DOCKED: BRANCH  40  41
DOCKED: ATOM     41  C   UNL d   1      47.342  22.046  20.016 -0.06 +0.06    +0.139 C 
DOCKED: ATOM     42  O   UNL d   1      46.140  22.017  20.239 -0.08 -0.26    -0.650 OA
DOCKED: BRANCH  41  43
DOCKED: ATOM     43  O   UNL d   1      48.005  20.880  19.852 +0.04 -0.35    -0.776 OA
DOCKED: ATOM     44  H   UNL d   1      47.586  20.021  19.995 +0.02 +0.06    +0.167 HD
DOCKED: ENDBRANCH  41  43
DOCKED: ENDBRANCH  40  41
DOCKED: ENDBRANCH  39  40
DOCKED: ENDBRANCH  22  39
DOCKED: BRANCH  12  45
DOCKED: ATOM     45  C   UNL d   1      40.954  32.249  16.725 -0.52 +0.00    +0.004 C 
DOCKED: ATOM     46  C   UNL d   1      40.565  32.418  15.464 -0.49 +0.00    +0.012 C 
DOCKED: ENDBRANCH  12  45
DOCKED: BRANCH  17  47
DOCKED: ATOM     47  C   UNL d   1      40.868  24.527  15.524 -0.52 +0.00    +0.004 C 
DOCKED: ATOM     48  C   UNL d   1      40.772  24.075  14.272 -0.59 +0.00    +0.012 C 
DOCKED: ENDBRANCH  17  47
DOCKED: TORSDOF 12
DOCKED: TER
DOCKED: ENDMDL
________________________________________________________________________________


	BEGINNING GENETIC ALGORITHM DOCKING 52 of 100
Run: 52 Seed: 294342141 871989397 [ Run 52 of 100 GA/GALS ]
Beginning LAMARCKIAN GENETIC ALGORITHM (LGA), with a maximum of 25000000 energy evaluations.

Final-Value: -11.937


	FINAL GENETIC ALGORITHM DOCKED STATE
	_______________________________________________


Detailed state:  trans 7.387 40.086 -5.537 quatxyzw -0.899441 0.020725 0.433105 -0.054745 center 8.781 34.984 -0.736 ntor 12 -6.4256 107.0819 -151.7962 121.1616 -85.3720 79.9195 -168.2636 109.6568 -6.8262 144.8645 28.4874 -179.9703
State:	  7.387  40.086  -5.537  -0.901  0.021  0.434 -173.724     -6.43  107.08 -151.80  121.16  -85.37   79.92 -168.26  109.66   -6.83  144.86   28.49 -179.97

DOCKED: MODEL       52
DOCKED: USER    Run = 52
DOCKED: USER    DPF = D:/Protein_go_brrr/autodock/final/6BB5/heme_Co/dock.dpf
DOCKED: USER  
DOCKED: USER    Estimated Free Energy of Binding    =   -6.46 kcal/mol  [=(1)+(2)+(3)-(4)]
DOCKED: USER    Estimated Inhibition Constant, Ki   =   18.36 uM (micromolar)  [Temperature = 298.15 K]
DOCKED: USER    
DOCKED: USER    (1) Final Intermolecular Energy     =  -10.04 kcal/mol
DOCKED: USER        vdW + Hbond + desolv Energy     =   -7.96 kcal/mol
DOCKED: USER        Electrostatic Energy            =   -2.08 kcal/mol
DOCKED: USER    (2) Final Total Internal Energy     =   -1.90 kcal/mol
DOCKED: USER    (3) Torsional Free Energy           =   +3.58 kcal/mol
DOCKED: USER    (4) Unbound System's Energy  [=(2)] =   -1.90 kcal/mol
DOCKED: USER    
DOCKED: USER    
DOCKED: USER    NEWDPF move heme_Co_opt.pdbqt
DOCKED: USER    NEWDPF about 8.781000 34.984000 -0.736000
DOCKED: USER    NEWDPF tran0 7.386508 40.085868 -5.536547
DOCKED: USER    NEWDPF quaternion0 -0.899441 0.020725 0.433105 -0.054745
DOCKED: USER    NEWDPF axisangle0 -0.900792 0.020756 0.433755 -173.723528
DOCKED: USER    NEWDPF quat0 -0.900792 0.020756 0.433755 -173.723528
DOCKED: USER    NEWDPF dihe0 -6.43 107.08 -151.80 121.16 -85.37 79.92 -168.26 109.66 -6.83 144.86 28.49 -179.97 
DOCKED: USER  keepresnum = 1 
DOCKED: USER  
DOCKED: REMARK  12 active torsions:
DOCKED: REMARK  status: ('A' for Active; 'I' for Inactive)
DOCKED: REMARK    1  A    between atoms: C_6  and  C_10 
DOCKED: REMARK    2  A    between atoms: C_10  and  C_11 
DOCKED: REMARK    3  A    between atoms: C_11  and  C_12 
DOCKED: REMARK    4  A    between atoms: C_12  and  O_14 
DOCKED: REMARK    5  A    between atoms: C_17  and  C_20 
DOCKED: REMARK    6  A    between atoms: C_24  and  C_27 
DOCKED: REMARK    7  A    between atoms: C_31  and  C_34 
DOCKED: REMARK    8  A    between atoms: C_34  and  C_35 
DOCKED: REMARK    9  A    between atoms: C_35  and  C_36 
DOCKED: REMARK   10  A    between atoms: C_36  and  O_38 
DOCKED: REMARK   11  A    between atoms: FE_43  and  C_44 
DOCKED: REMARK   12  A    between atoms: C_44  and  O_45 
DOCKED: USER                              x       y       z     vdW  Elec       q    Type
DOCKED: USER                           _______ _______ _______ _____ _____    ______ ____
DOCKED: ROOT
DOCKED: ATOM      1  C   UNL d   1       6.797  39.472  -3.539 -0.28 +0.00    +0.064 A 
DOCKED: ATOM      2  C   UNL d   1       4.907  42.561  -6.620 -0.05 +0.02    +0.064 C 
DOCKED: ATOM      3  C   UNL d   1       8.581  41.894  -9.601 -0.13 -0.04    +0.064 A 
DOCKED: ATOM      4  C   UNL d   1      10.334  38.449  -6.648 -0.24 -0.02    +0.064 A 
DOCKED: ATOM      5  C   UNL d   1       6.029  40.392  -4.145 -0.20 +0.01    +0.066 A 
DOCKED: ATOM      6  C   UNL d   1       4.796  40.809  -3.607 -0.17 -0.00    -0.021 A 
DOCKED: ATOM      7  C   UNL d   1       4.241  41.688  -4.516 -0.13 -0.01    -0.025 A 
DOCKED: ATOM      8  C   UNL d   1       5.166  41.783  -5.561 -0.11 +0.01    +0.066 A 
DOCKED: ATOM      9  C   UNL d   1       2.893  42.418  -4.418 -0.08 +0.02    +0.051 C 
DOCKED: ATOM     10  C   UNL d   1       5.809  42.741  -7.730 -0.09 +0.00    +0.066 A 
DOCKED: ATOM     11  C   UNL d   1       5.658  43.649  -8.800 -0.08 -0.00    -0.021 A 
DOCKED: ATOM     12  C   UNL d   1       6.746  43.437  -9.652 -0.10 -0.00    +0.000 A 
DOCKED: ATOM     13  C   UNL d   1       7.483  42.426  -9.034 -0.13 -0.03    +0.070 A 
DOCKED: ATOM     14  C   UNL d   1       4.592  44.707  -8.930 -0.07 +0.01    +0.052 C 
DOCKED: ATOM     15  C   UNL d   1       9.428  40.816  -9.130 -0.17 -0.06    +0.066 A 
DOCKED: ATOM     16  C   UNL d   1      10.463  40.216  -9.833 -0.19 +0.02    -0.021 A 
DOCKED: ATOM     17  C   UNL d   1      10.970  39.220  -8.986 -0.34 -0.00    +0.000 A 
DOCKED: ATOM     18  C   UNL d   1      10.213  39.303  -7.823 -0.32 -0.04    +0.070 A 
DOCKED: ATOM     19  C   UNL d   1      10.912  40.595 -11.227 -0.12 -0.04    +0.052 C 
DOCKED: ATOM     20  C   UNL d   1       9.554  38.454  -5.541 -0.24 -0.02    +0.066 A 
DOCKED: ATOM     21  C   UNL d   1       9.747  37.559  -4.491 -0.44 +0.00    -0.025 A 
DOCKED: ATOM     22  C   UNL d   1       8.760  37.850  -3.567 -0.39 +0.00    -0.021 A 
DOCKED: ATOM     23  C   UNL d   1       8.000  38.908  -4.109 -0.31 -0.01    +0.066 A 
DOCKED: ATOM     24  C   UNL d   1      10.807  36.467  -4.381 -0.44 -0.00    +0.051 C 
DOCKED: ATOM     25  N   UNL d   1       6.286  40.995  -5.356 -0.11 -0.00    -0.248 N 
DOCKED: ATOM     26  N   UNL d   1       6.946  42.046  -7.844 -0.09 +0.05    -0.248 N 
DOCKED: ATOM     27  N   UNL d   1       9.284  40.244  -7.956 -0.17 +0.17    -0.248 N 
DOCKED: ATOM     28  N   UNL d   1       8.476  39.275  -5.304 -0.17 +0.07    -0.248 N 
DOCKED: ATOM     29 FE   UNL d   1       7.876  40.595  -6.730 -0.05 -0.00    +0.000 Fe
DOCKED: ENDROOT
DOCKED: BRANCH   6  30
DOCKED: ATOM     30  C   UNL d   1       4.154  40.314  -2.315 -0.25 +0.02    +0.052 C 
DOCKED: BRANCH  30  31
DOCKED: ATOM     31  C   UNL d   1       4.112  41.431  -1.273 -0.25 +0.07    +0.115 C 
DOCKED: BRANCH  31  32
DOCKED: ATOM     32  C   UNL d   1       3.298  41.054  -0.054 -0.22 +0.19    +0.139 C 
DOCKED: ATOM     33  O   UNL d   1       3.651  40.110   0.636 -0.24 -1.25    -0.650 OA
DOCKED: BRANCH  32  34
DOCKED: ATOM     34  O   UNL d   1       2.209  41.762   0.329 +0.14 -1.30    -0.776 OA
DOCKED: ATOM     35  H   UNL d   1       1.961  42.620  -0.042 +0.07 +0.17    +0.167 HD
DOCKED: ENDBRANCH  32  34
DOCKED: ENDBRANCH  31  32
DOCKED: ENDBRANCH  30  31
DOCKED: ENDBRANCH   6  30
DOCKED: BRANCH  29  36
DOCKED: ATOM     36  C   UNL d   1       6.625  39.144  -7.580 -0.06 -0.01    +0.190 C 
DOCKED: BRANCH  36  37
DOCKED: ATOM     37  O   UNL d   1       6.104  37.862  -7.374 -0.04 -0.00    -0.399 OA
DOCKED: ATOM     38  H   UNL d   1       6.565  37.527  -6.555 +0.06 -0.00    +0.209 HD
DOCKED: ENDBRANCH  36  37
DOCKED: ENDBRANCH  29  36
DOCKED: BRANCH  22  39
DOCKED: ATOM     39  C   UNL d   1       8.525  37.104  -2.267 -0.38 +0.00    +0.052 C 
DOCKED: BRANCH  39  40
DOCKED: ATOM     40  C   UNL d   1       7.783  35.782  -2.526 -0.35 +0.01    +0.115 C 
DOCKED: BRANCH  40  41
DOCKED: ATOM     41  C   UNL d   1       6.677  35.877  -3.555 -0.26 +0.01    +0.139 C 
DOCKED: ATOM     42  O   UNL d   1       5.515  35.744  -3.198 -0.00 -0.07    -0.650 OA
DOCKED: BRANCH  41  43
DOCKED: ATOM     43  O   UNL d   1       6.931  36.192  -4.844 +0.06 -0.03    -0.776 OA
DOCKED: ATOM     44  H   UNL d   1       6.322  36.715  -5.381 +0.06 +0.01    +0.167 HD
DOCKED: ENDBRANCH  41  43
DOCKED: ENDBRANCH  40  41
DOCKED: ENDBRANCH  39  40
DOCKED: ENDBRANCH  22  39
DOCKED: BRANCH  12  45
DOCKED: ATOM     45  C   UNL d   1       7.180  44.081 -10.962 -0.07 -0.00    +0.004 C 
DOCKED: ATOM     46  C   UNL d   1       8.233  44.844 -11.244 -0.10 -0.00    +0.012 C 
DOCKED: ENDBRANCH  12  45
DOCKED: BRANCH  17  47
DOCKED: ATOM     47  C   UNL d   1      12.047  38.215  -9.234 -0.30 -0.00    +0.004 C 
DOCKED: ATOM     48  C   UNL d   1      11.811  36.916  -9.431 -0.41 -0.00    +0.012 C 
DOCKED: ENDBRANCH  17  47
DOCKED: TORSDOF 12
DOCKED: TER
DOCKED: ENDMDL
________________________________________________________________________________


	BEGINNING GENETIC ALGORITHM DOCKING 53 of 100
Run: 53 Seed: 1888797734 1363200605 [ Run 53 of 100 GA/GALS ]
Beginning LAMARCKIAN GENETIC ALGORITHM (LGA), with a maximum of 25000000 energy evaluations.

Final-Value: -17.671


	FINAL GENETIC ALGORITHM DOCKED STATE
	_______________________________________________


Detailed state:  trans 8.412 34.496 -0.420 quatxyzw 0.000032 -0.007567 -0.010101 -0.999920 center 8.781 34.984 -0.736 ntor 12 129.2394 116.7364 -62.9384 53.0029 -60.8288 -8.1252 127.1954 178.6763 -41.2955 9.9410 -160.6614 153.6505
State:	  8.412  34.496  -0.420   0.003 -0.600 -0.800 -1.446    129.24  116.74  -62.94   53.00  -60.83   -8.13  127.20  178.68  -41.30    9.94 -160.66  153.65

DOCKED: MODEL       53
DOCKED: USER    Run = 53
DOCKED: USER    DPF = D:/Protein_go_brrr/autodock/final/6BB5/heme_Co/dock.dpf
DOCKED: USER  
DOCKED: USER    Estimated Free Energy of Binding    =  -11.83 kcal/mol  [=(1)+(2)+(3)-(4)]
DOCKED: USER    Estimated Inhibition Constant, Ki   =    2.14 nM (nanomolar)  [Temperature = 298.15 K]
DOCKED: USER    
DOCKED: USER    (1) Final Intermolecular Energy     =  -15.41 kcal/mol
DOCKED: USER        vdW + Hbond + desolv Energy     =  -13.96 kcal/mol
DOCKED: USER        Electrostatic Energy            =   -1.45 kcal/mol
DOCKED: USER    (2) Final Total Internal Energy     =   -2.26 kcal/mol
DOCKED: USER    (3) Torsional Free Energy           =   +3.58 kcal/mol
DOCKED: USER    (4) Unbound System's Energy  [=(2)] =   -2.26 kcal/mol
DOCKED: USER    
DOCKED: USER    
DOCKED: USER    NEWDPF move heme_Co_opt.pdbqt
DOCKED: USER    NEWDPF about 8.781000 34.984000 -0.736000
DOCKED: USER    NEWDPF tran0 8.412285 34.496181 -0.420076
DOCKED: USER    NEWDPF quaternion0 0.000032 -0.007567 -0.010101 -0.999920
DOCKED: USER    NEWDPF axisangle0 0.002557 -0.599581 -0.800310 -1.446297
DOCKED: USER    NEWDPF quat0 0.002557 -0.599581 -0.800310 -1.446297
DOCKED: USER    NEWDPF dihe0 129.24 116.74 -62.94 53.00 -60.83 -8.13 127.20 178.68 -41.30 9.94 -160.66 153.65 
DOCKED: USER  keepresnum = 1 
DOCKED: USER  
DOCKED: REMARK  12 active torsions:
DOCKED: REMARK  status: ('A' for Active; 'I' for Inactive)
DOCKED: REMARK    1  A    between atoms: C_6  and  C_10 
DOCKED: REMARK    2  A    between atoms: C_10  and  C_11 
DOCKED: REMARK    3  A    between atoms: C_11  and  C_12 
DOCKED: REMARK    4  A    between atoms: C_12  and  O_14 
DOCKED: REMARK    5  A    between atoms: C_17  and  C_20 
DOCKED: REMARK    6  A    between atoms: C_24  and  C_27 
DOCKED: REMARK    7  A    between atoms: C_31  and  C_34 
DOCKED: REMARK    8  A    between atoms: C_34  and  C_35 
DOCKED: REMARK    9  A    between atoms: C_35  and  C_36 
DOCKED: REMARK   10  A    between atoms: C_36  and  O_38 
DOCKED: REMARK   11  A    between atoms: FE_43  and  C_44 
DOCKED: REMARK   12  A    between atoms: C_44  and  O_45 
DOCKED: USER                              x       y       z     vdW  Elec       q    Type
DOCKED: USER                           _______ _______ _______ _____ _____    ______ ____
DOCKED: ROOT
DOCKED: ATOM      1  C   UNL d   1       6.501  35.034  -1.299 -0.14 +0.01    +0.064 A 
DOCKED: ATOM      2  C   UNL d   1       7.649  32.350   2.454 -0.47 +0.00    +0.064 C 
DOCKED: ATOM      3  C   UNL d   1      12.291  32.847   1.437 -0.36 +0.00    +0.064 A 
DOCKED: ATOM      4  C   UNL d   1      11.159  35.906  -2.172 -0.42 +0.00    +0.064 A 
DOCKED: ATOM      5  C   UNL d   1       6.472  34.234  -0.220 -0.27 +0.01    +0.066 A 
DOCKED: ATOM      6  C   UNL d   1       5.269  33.905   0.435 -0.32 -0.00    -0.021 A 
DOCKED: ATOM      7  C   UNL d   1       5.611  33.145   1.536 -0.39 -0.00    -0.025 A 
DOCKED: ATOM      8  C   UNL d   1       7.004  33.029   1.497 -0.37 +0.01    +0.066 A 
DOCKED: ATOM      9  C   UNL d   1       4.672  32.545   2.594 -0.46 +0.00    +0.051 C 
DOCKED: ATOM     10  C   UNL d   1       9.077  32.155   2.483 -0.39 +0.00    +0.066 A 
DOCKED: ATOM     11  C   UNL d   1       9.799  31.337   3.379 -0.47 -0.00    -0.021 A 
DOCKED: ATOM     12  C   UNL d   1      11.150  31.498   3.057 -0.43 +0.00    +0.000 A 
DOCKED: ATOM     13  C   UNL d   1      11.151  32.389   1.984 -0.37 +0.00    +0.070 A 
DOCKED: ATOM     14  C   UNL d   1       9.212  30.399   4.402 -0.63 +0.00    +0.052 C 
DOCKED: ATOM     15  C   UNL d   1      12.477  33.805   0.365 -0.38 +0.00    +0.066 A 
DOCKED: ATOM     16  C   UNL d   1      13.683  34.346  -0.056 -0.45 -0.00    -0.021 A 
DOCKED: ATOM     17  C   UNL d   1      13.362  35.230  -1.095 -0.45 +0.00    +0.000 A 
DOCKED: ATOM     18  C   UNL d   1      11.981  35.146  -1.238 -0.37 +0.01    +0.070 A 
DOCKED: ATOM     19  C   UNL d   1      15.041  34.016   0.522 -0.61 +0.00    +0.052 C 
DOCKED: ATOM     20  C   UNL d   1       9.808  35.906  -2.270 -0.39 +0.01    +0.066 A 
DOCKED: ATOM     21  C   UNL d   1       9.129  36.708  -3.185 -0.40 -0.00    -0.025 A 
DOCKED: ATOM     22  C   UNL d   1       7.785  36.456  -2.976 -0.34 -0.00    -0.021 A 
DOCKED: ATOM     23  C   UNL d   1       7.710  35.514  -1.928 -0.29 +0.01    +0.066 A 
DOCKED: ATOM     24  C   UNL d   1       9.729  37.682  -4.195 -0.50 -0.01    +0.051 C 
DOCKED: ATOM     25  N   UNL d   1       7.564  33.689   0.416 -0.01 -0.04    -0.248 N 
DOCKED: ATOM     26  N   UNL d   1       9.895  32.741   1.602 -0.25 -0.01    -0.248 N 
DOCKED: ATOM     27  N   UNL d   1      11.484  34.311  -0.333 -0.07 -0.03    -0.248 N 
DOCKED: ATOM     28  N   UNL d   1       8.933  35.180  -1.496 -0.01 -0.06    -0.248 N 
DOCKED: ATOM     29 FE   UNL d   1       9.639  34.020   0.017 -0.07 +0.00    +0.000 Fe
DOCKED: ENDROOT
DOCKED: BRANCH   6  30
DOCKED: ATOM     30  C   UNL d   1       3.869  34.376   0.055 -0.27 +0.01    +0.052 C 
DOCKED: BRANCH  30  31
DOCKED: ATOM     31  C   UNL d   1       3.653  35.825   0.491 -0.07 +0.05    +0.115 C 
DOCKED: BRANCH  31  32
DOCKED: ATOM     32  C   UNL d   1       2.956  36.649  -0.571 -0.16 +0.09    +0.139 C 
DOCKED: ATOM     33  O   UNL d   1       2.679  36.135  -1.644 +0.01 -0.27    -0.650 OA
DOCKED: BRANCH  32  34
DOCKED: ATOM     34  O   UNL d   1       2.583  37.931  -0.353 -0.32 -1.21    -0.776 OA
DOCKED: ATOM     35  H   UNL d   1       2.843  38.676  -0.913 +0.03 +0.23    +0.167 HD
DOCKED: ENDBRANCH  32  34
DOCKED: ENDBRANCH  31  32
DOCKED: ENDBRANCH  30  31
DOCKED: ENDBRANCH   6  30
DOCKED: BRANCH  29  36
DOCKED: ATOM     36  C   UNL d   1       9.521  35.639   1.344 +0.07 +0.03    +0.190 C 
DOCKED: BRANCH  36  37
DOCKED: ATOM     37  O   UNL d   1      10.180  36.808   1.737 -0.31 -0.05    -0.399 OA
DOCKED: ATOM     38  H   UNL d   1      10.958  36.884   1.117 +0.13 +0.02    +0.209 HD
DOCKED: ENDBRANCH  36  37
DOCKED: ENDBRANCH  29  36
DOCKED: BRANCH  22  39
DOCKED: ATOM     39  C   UNL d   1       6.640  37.135  -3.703 -0.25 +0.00    +0.052 C 
DOCKED: BRANCH  39  40
DOCKED: ATOM     40  C   UNL d   1       5.956  38.168  -2.792 -0.19 +0.02    +0.115 C 
DOCKED: BRANCH  40  41
DOCKED: ATOM     41  C   UNL d   1       4.733  38.824  -3.398 -0.13 +0.03    +0.139 C 
DOCKED: ATOM     42  O   UNL d   1       4.767  39.188  -4.565 +0.05 -0.09    -0.650 OA
DOCKED: BRANCH  41  43
DOCKED: ATOM     43  O   UNL d   1       3.575  38.939  -2.712 +0.05 -0.33    -0.776 OA
DOCKED: ATOM     44  H   UNL d   1       3.115  38.177  -2.337 +0.04 +0.09    +0.167 HD
DOCKED: ENDBRANCH  41  43
DOCKED: ENDBRANCH  40  41
DOCKED: ENDBRANCH  39  40
DOCKED: ENDBRANCH  22  39
DOCKED: BRANCH  12  45
DOCKED: ATOM     45  C   UNL d   1      12.431  30.900   3.625 -0.58 +0.00    +0.004 C 
DOCKED: ATOM     46  C   UNL d   1      12.726  29.648   3.964 -0.71 +0.00    +0.012 C 
DOCKED: ENDBRANCH  12  45
DOCKED: BRANCH  17  47
DOCKED: ATOM     47  C   UNL d   1      14.247  36.140  -1.882 -0.60 +0.00    +0.004 C 
DOCKED: ATOM     48  C   UNL d   1      14.633  37.345  -1.455 -0.65 +0.00    +0.012 C 
DOCKED: ENDBRANCH  17  47
DOCKED: TORSDOF 12
DOCKED: TER
DOCKED: ENDMDL
________________________________________________________________________________


	BEGINNING GENETIC ALGORITHM DOCKING 54 of 100
Run: 54 Seed: 801478789 1065924904 [ Run 54 of 100 GA/GALS ]
Beginning LAMARCKIAN GENETIC ALGORITHM (LGA), with a maximum of 25000000 energy evaluations.

Final-Value: -9.502


	FINAL GENETIC ALGORITHM DOCKED STATE
	_______________________________________________


Detailed state:  trans 33.402 50.817 24.645 quatxyzw 0.138395 0.154735 0.422436 0.882299 center 8.781 34.984 -0.736 ntor 12 24.4522 114.9352 -78.3791 121.4679 132.4651 163.2158 -163.4535 -134.0439 -111.0258 -22.3771 -22.4228 164.8677
State:	 33.402  50.817  24.645   0.294  0.329  0.897 56.158     24.45  114.94  -78.38  121.47  132.47  163.22 -163.45 -134.04 -111.03  -22.38  -22.42  164.87

DOCKED: MODEL       54
DOCKED: USER    Run = 54
DOCKED: USER    DPF = D:/Protein_go_brrr/autodock/final/6BB5/heme_Co/dock.dpf
DOCKED: USER  
DOCKED: USER    Estimated Free Energy of Binding    =   -5.05 kcal/mol  [=(1)+(2)+(3)-(4)]
DOCKED: USER    Estimated Inhibition Constant, Ki   =  197.30 uM (micromolar)  [Temperature = 298.15 K]
DOCKED: USER    
DOCKED: USER    (1) Final Intermolecular Energy     =   -8.63 kcal/mol
DOCKED: USER        vdW + Hbond + desolv Energy     =   -6.00 kcal/mol
DOCKED: USER        Electrostatic Energy            =   -2.64 kcal/mol
DOCKED: USER    (2) Final Total Internal Energy     =   -0.87 kcal/mol
DOCKED: USER    (3) Torsional Free Energy           =   +3.58 kcal/mol
DOCKED: USER    (4) Unbound System's Energy  [=(2)] =   -0.87 kcal/mol
DOCKED: USER    
DOCKED: USER    
DOCKED: USER    NEWDPF move heme_Co_opt.pdbqt
DOCKED: USER    NEWDPF about 8.781000 34.984000 -0.736000
DOCKED: USER    NEWDPF tran0 33.401945 50.817132 24.644781
DOCKED: USER    NEWDPF quaternion0 0.138395 0.154735 0.422436 0.882299
DOCKED: USER    NEWDPF axisangle0 0.294026 0.328742 0.897484 56.158019
DOCKED: USER    NEWDPF quat0 0.294026 0.328742 0.897484 56.158019
DOCKED: USER    NEWDPF dihe0 24.45 114.94 -78.38 121.47 132.47 163.22 -163.45 -134.04 -111.03 -22.38 -22.42 164.87 
DOCKED: USER  keepresnum = 1 
DOCKED: USER  
DOCKED: REMARK  12 active torsions:
DOCKED: REMARK  status: ('A' for Active; 'I' for Inactive)
DOCKED: REMARK    1  A    between atoms: C_6  and  C_10 
DOCKED: REMARK    2  A    between atoms: C_10  and  C_11 
DOCKED: REMARK    3  A    between atoms: C_11  and  C_12 
DOCKED: REMARK    4  A    between atoms: C_12  and  O_14 
DOCKED: REMARK    5  A    between atoms: C_17  and  C_20 
DOCKED: REMARK    6  A    between atoms: C_24  and  C_27 
DOCKED: REMARK    7  A    between atoms: C_31  and  C_34 
DOCKED: REMARK    8  A    between atoms: C_34  and  C_35 
DOCKED: REMARK    9  A    between atoms: C_35  and  C_36 
DOCKED: REMARK   10  A    between atoms: C_36  and  O_38 
DOCKED: REMARK   11  A    between atoms: FE_43  and  C_44 
DOCKED: REMARK   12  A    between atoms: C_44  and  O_45 
DOCKED: USER                              x       y       z     vdW  Elec       q    Type
DOCKED: USER                           _______ _______ _______ _____ _____    ______ ____
DOCKED: ROOT
DOCKED: ATOM      1  C   UNL d   1      32.776  52.160  23.057 -0.16 +0.02    +0.064 A 
DOCKED: ATOM      2  C   UNL d   1      30.846  51.067  27.263 -0.15 +0.01    +0.064 C 
DOCKED: ATOM      3  C   UNL d   1      34.228  47.774  28.002 -0.17 +0.00    +0.064 A 
DOCKED: ATOM      4  C   UNL d   1      36.438  49.140  23.889 -0.12 +0.01    +0.064 A 
DOCKED: ATOM      5  C   UNL d   1      31.980  52.078  24.135 -0.16 +0.02    +0.066 A 
DOCKED: ATOM      6  C   UNL d   1      30.890  52.950  24.328 -0.12 -0.01    -0.021 A 
DOCKED: ATOM      7  C   UNL d   1      30.348  52.643  25.560 -0.08 -0.01    -0.025 A 
DOCKED: ATOM      8  C   UNL d   1      31.118  51.587  26.059 -0.15 +0.02    +0.066 A 
DOCKED: ATOM      9  C   UNL d   1      29.151  53.310  26.255 -0.03 +0.02    +0.051 C 
DOCKED: ATOM     10  C   UNL d   1      31.566  49.963  27.846 -0.15 +0.00    +0.066 A 
DOCKED: ATOM     11  C   UNL d   1      31.243  49.281  29.040 -0.10 -0.00    -0.021 A 
DOCKED: ATOM     12  C   UNL d   1      32.243  48.323  29.229 -0.13 +0.00    +0.000 A 
DOCKED: ATOM     13  C   UNL d   1      33.093  48.483  28.134 -0.14 -0.00    +0.070 A 
DOCKED: ATOM     14  C   UNL d   1      30.004  49.482  29.875 -0.06 +0.00    +0.052 C 
DOCKED: ATOM     15  C   UNL d   1      35.243  47.847  26.969 -0.15 +0.00    +0.066 A 
DOCKED: ATOM     16  C   UNL d   1      36.464  47.189  26.968 -0.15 -0.00    -0.021 A 
DOCKED: ATOM     17  C   UNL d   1      37.107  47.581  25.785 -0.11 +0.00    +0.000 A 
DOCKED: ATOM     18  C   UNL d   1      36.215  48.438  25.147 -0.13 +0.01    +0.070 A 
DOCKED: ATOM     19  C   UNL d   1      36.957  46.251  28.047 -0.16 +0.01    +0.052 C 
DOCKED: ATOM     20  C   UNL d   1      35.624  50.044  23.294 -0.09 +0.02    +0.066 A 
DOCKED: ATOM     21  C   UNL d   1      35.964  50.680  22.102 -0.22 -0.01    -0.025 A 
DOCKED: ATOM     22  C   UNL d   1      34.914  51.535  21.822 -0.24 -0.01    -0.021 A 
DOCKED: ATOM     23  C   UNL d   1      33.983  51.386  22.872 -0.16 +0.02    +0.066 A 
DOCKED: ATOM     24  C   UNL d   1      37.237  50.497  21.279 -0.16 +0.05    +0.051 C 
DOCKED: ATOM     25  N   UNL d   1      32.132  51.213  25.195 -0.15 -0.06    -0.248 N 
DOCKED: ATOM     26  N   UNL d   1      32.652  49.436  27.271 -0.11 +0.01    -0.248 N 
DOCKED: ATOM     27  N   UNL d   1      35.129  48.597  25.896 -0.08 -0.00    -0.248 N 
DOCKED: ATOM     28  N   UNL d   1      34.410  50.486  23.767 -0.00 -0.08    -0.248 N 
DOCKED: ATOM     29 FE   UNL d   1      33.721  49.828  25.563 -0.05 +0.00    +0.000 Fe
DOCKED: ENDROOT
DOCKED: BRANCH   6  30
DOCKED: ATOM     30  C   UNL d   1      30.452  54.077  23.399 -0.08 +0.02    +0.052 C 
DOCKED: BRANCH  30  31
DOCKED: ATOM     31  C   UNL d   1      30.051  53.522  22.032 -0.15 +0.05    +0.115 C 
DOCKED: BRANCH  31  32
DOCKED: ATOM     32  C   UNL d   1      28.799  52.675  22.099 -0.15 +0.14    +0.139 C 
DOCKED: ATOM     33  O   UNL d   1      27.731  53.201  22.373 +0.00 -0.82    -0.650 OA
DOCKED: BRANCH  32  34
DOCKED: ATOM     34  O   UNL d   1      28.812  51.351  21.817 -0.40 -0.99    -0.776 OA
DOCKED: ATOM     35  H   UNL d   1      29.606  50.799  21.833 -0.21 +0.11    +0.167 HD
DOCKED: ENDBRANCH  32  34
DOCKED: ENDBRANCH  31  32
DOCKED: ENDBRANCH  30  31
DOCKED: ENDBRANCH   6  30
DOCKED: BRANCH  29  36
DOCKED: ATOM     36  C   UNL d   1      34.709  51.395  26.543 -0.04 +0.02    +0.190 C 
DOCKED: BRANCH  36  37
DOCKED: ATOM     37  O   UNL d   1      34.538  52.704  27.006 +0.00 -0.05    -0.399 OA
DOCKED: ATOM     38  H   UNL d   1      33.590  52.930  26.791 +0.02 +0.03    +0.209 HD
DOCKED: ENDBRANCH  36  37
DOCKED: ENDBRANCH  29  36
DOCKED: BRANCH  22  39
DOCKED: ATOM     39  C   UNL d   1      34.845  52.488  20.644 -0.27 +0.04    +0.052 C 
DOCKED: BRANCH  39  40
DOCKED: ATOM     40  C   UNL d   1      35.363  53.880  21.041 -0.11 +0.09    +0.115 C 
DOCKED: BRANCH  40  41
DOCKED: ATOM     41  C   UNL d   1      35.958  54.675  19.897 -0.04 +0.15    +0.139 C 
DOCKED: ATOM     42  O   UNL d   1      35.921  54.214  18.765 -0.32 -1.07    -0.650 OA
DOCKED: BRANCH  41  43
DOCKED: ATOM     43  O   UNL d   1      36.452  55.919  20.079 +0.02 -0.48    -0.776 OA
DOCKED: ATOM     44  H   UNL d   1      35.885  56.685  20.238 +0.01 +0.06    +0.167 HD
DOCKED: ENDBRANCH  41  43
DOCKED: ENDBRANCH  40  41
DOCKED: ENDBRANCH  39  40
DOCKED: ENDBRANCH  22  39
DOCKED: BRANCH  12  45
DOCKED: ATOM     45  C   UNL d   1      32.482  47.269  30.302 -0.13 +0.00    +0.004 C 
DOCKED: ATOM     46  C   UNL d   1      32.451  45.941  30.233 -0.26 +0.00    +0.012 C 
DOCKED: ENDBRANCH  12  45
DOCKED: BRANCH  17  47
DOCKED: ATOM     47  C   UNL d   1      38.471  47.241  25.282 -0.07 +0.00    +0.004 C 
DOCKED: ATOM     48  C   UNL d   1      38.693  46.462  24.221 -0.12 +0.00    +0.012 C 
DOCKED: ENDBRANCH  17  47
DOCKED: TORSDOF 12
DOCKED: TER
DOCKED: ENDMDL
________________________________________________________________________________


	BEGINNING GENETIC ALGORITHM DOCKING 55 of 100
Run: 55 Seed: 513046191 1769971160 [ Run 55 of 100 GA/GALS ]
Beginning LAMARCKIAN GENETIC ALGORITHM (LGA), with a maximum of 25000000 energy evaluations.

Final-Value: -13.865


	FINAL GENETIC ALGORITHM DOCKED STATE
	_______________________________________________


Detailed state:  trans 44.724 25.416 18.486 quatxyzw -0.556921 -0.819492 0.132462 0.026952 center 8.781 34.984 -0.736 ntor 12 144.4728 130.9925 -50.3578 111.9484 59.7041 132.2919 -129.4651 -6.5237 -129.1129 133.1269 177.4949 -0.5526
State:	 44.724  25.416  18.486  -0.557 -0.820  0.133 176.911    144.47  130.99  -50.36  111.95   59.70  132.29 -129.47   -6.52 -129.11  133.13  177.49   -0.55

DOCKED: MODEL       55
DOCKED: USER    Run = 55
DOCKED: USER    DPF = D:/Protein_go_brrr/autodock/final/6BB5/heme_Co/dock.dpf
DOCKED: USER  
DOCKED: USER    Estimated Free Energy of Binding    =   -8.04 kcal/mol  [=(1)+(2)+(3)-(4)]
DOCKED: USER    Estimated Inhibition Constant, Ki   =    1.28 uM (micromolar)  [Temperature = 298.15 K]
DOCKED: USER    
DOCKED: USER    (1) Final Intermolecular Energy     =  -11.62 kcal/mol
DOCKED: USER        vdW + Hbond + desolv Energy     =   -8.31 kcal/mol
DOCKED: USER        Electrostatic Energy            =   -3.30 kcal/mol
DOCKED: USER    (2) Final Total Internal Energy     =   -2.25 kcal/mol
DOCKED: USER    (3) Torsional Free Energy           =   +3.58 kcal/mol
DOCKED: USER    (4) Unbound System's Energy  [=(2)] =   -2.25 kcal/mol
DOCKED: USER    
DOCKED: USER    
DOCKED: USER    NEWDPF move heme_Co_opt.pdbqt
DOCKED: USER    NEWDPF about 8.781000 34.984000 -0.736000
DOCKED: USER    NEWDPF tran0 44.723706 25.416124 18.486375
DOCKED: USER    NEWDPF quaternion0 -0.556921 -0.819492 0.132462 0.026952
DOCKED: USER    NEWDPF axisangle0 -0.557123 -0.819790 0.132510 176.911205
DOCKED: USER    NEWDPF quat0 -0.557123 -0.819790 0.132510 176.911205
DOCKED: USER    NEWDPF dihe0 144.47 130.99 -50.36 111.95 59.70 132.29 -129.47 -6.52 -129.11 133.13 177.49 -0.55 
DOCKED: USER  keepresnum = 1 
DOCKED: USER  
DOCKED: REMARK  12 active torsions:
DOCKED: REMARK  status: ('A' for Active; 'I' for Inactive)
DOCKED: REMARK    1  A    between atoms: C_6  and  C_10 
DOCKED: REMARK    2  A    between atoms: C_10  and  C_11 
DOCKED: REMARK    3  A    between atoms: C_11  and  C_12 
DOCKED: REMARK    4  A    between atoms: C_12  and  O_14 
DOCKED: REMARK    5  A    between atoms: C_17  and  C_20 
DOCKED: REMARK    6  A    between atoms: C_24  and  C_27 
DOCKED: REMARK    7  A    between atoms: C_31  and  C_34 
DOCKED: REMARK    8  A    between atoms: C_34  and  C_35 
DOCKED: REMARK    9  A    between atoms: C_35  and  C_36 
DOCKED: REMARK   10  A    between atoms: C_36  and  O_38 
DOCKED: REMARK   11  A    between atoms: FE_43  and  C_44 
DOCKED: REMARK   12  A    between atoms: C_44  and  O_45 
DOCKED: USER                              x       y       z     vdW  Elec       q    Type
DOCKED: USER                           _______ _______ _______ _____ _____    ______ ____
DOCKED: ROOT
DOCKED: ATOM      1  C   UNL d   1      46.002  24.046  19.583 -0.08 +0.03    +0.064 A 
DOCKED: ATOM      2  C   UNL d   1      42.693  23.346  16.241 -0.24 +0.01    +0.064 C 
DOCKED: ATOM      3  C   UNL d   1      41.604  27.998  16.293 -0.26 +0.01    +0.064 A 
DOCKED: ATOM      4  C   UNL d   1      45.239  28.801  19.424 -0.19 +0.04    +0.064 A 
DOCKED: ATOM      5  C   UNL d   1      45.153  23.507  18.692 -0.15 +0.03    +0.066 A 
DOCKED: ATOM      6  C   UNL d   1      45.208  22.145  18.337 -0.16 -0.01    -0.021 A 
DOCKED: ATOM      7  C   UNL d   1      44.261  21.952  17.351 -0.19 -0.01    -0.025 A 
DOCKED: ATOM      8  C   UNL d   1      43.658  23.200  17.158 -0.25 +0.02    +0.066 A 
DOCKED: ATOM      9  C   UNL d   1      43.925  20.650  16.608 -0.16 +0.01    +0.051 C 
DOCKED: ATOM     10  C   UNL d   1      41.998  24.584  15.990 -0.33 +0.01    +0.066 A 
DOCKED: ATOM     11  C   UNL d   1      40.884  24.770  15.144 -0.45 -0.00    -0.021 A 
DOCKED: ATOM     12  C   UNL d   1      40.584  26.135  15.181 -0.44 +0.00    +0.000 A 
DOCKED: ATOM     13  C   UNL d   1      41.527  26.677  16.054 -0.35 +0.01    +0.070 A 
DOCKED: ATOM     14  C   UNL d   1      40.113  23.687  14.433 -0.48 +0.01    +0.052 C 
DOCKED: ATOM     15  C   UNL d   1      42.542  28.731  17.120 +0.04 +0.02    +0.066 A 
DOCKED: ATOM     16  C   UNL d   1      42.658  30.111  17.209 -0.34 -0.00    -0.021 A 
DOCKED: ATOM     17  C   UNL d   1      43.706  30.347  18.109 -0.31 +0.00    +0.000 A 
DOCKED: ATOM     18  C   UNL d   1      44.138  29.088  18.512 -0.24 +0.03    +0.070 A 
DOCKED: ATOM     19  C   UNL d   1      41.803  31.112  16.465 -0.38 +0.01    +0.052 C 
DOCKED: ATOM     20  C   UNL d   1      45.733  27.586  19.763 -0.15 +0.05    +0.066 A 
DOCKED: ATOM     21  C   UNL d   1      46.819  27.439  20.623 -0.10 -0.02    -0.025 A 
DOCKED: ATOM     22  C   UNL d   1      47.044  26.077  20.710 -0.06 -0.02    -0.021 A 
DOCKED: ATOM     23  C   UNL d   1      46.083  25.457  19.884 -0.07 +0.04    +0.066 A 
DOCKED: ATOM     24  C   UNL d   1      47.618  28.542  21.312 -0.10 +0.05    +0.051 C 
DOCKED: ATOM     25  N   UNL d   1      44.188  24.181  17.980 -0.11 -0.09    -0.248 N 
DOCKED: ATOM     26  N   UNL d   1      42.346  25.730  16.586 -0.21 -0.05    -0.248 N 
DOCKED: ATOM     27  N   UNL d   1      43.443  28.149  17.880 -0.06 -0.08    -0.248 N 
DOCKED: ATOM     28  N   UNL d   1      45.289  26.367  19.307 -0.07 -0.14    -0.248 N 
DOCKED: ATOM     29 FE   UNL d   1      43.795  26.283  17.930 -0.05 +0.00    +0.000 Fe
DOCKED: ENDROOT
DOCKED: BRANCH   6  30
DOCKED: ATOM     30  C   UNL d   1      46.187  21.104  18.871 -0.13 +0.02    +0.052 C 
DOCKED: BRANCH  30  31
DOCKED: ATOM     31  C   UNL d   1      47.345  20.905  17.893 -0.11 +0.10    +0.115 C 
DOCKED: BRANCH  31  32
DOCKED: ATOM     32  C   UNL d   1      47.957  22.216  17.450 -0.01 +0.19    +0.139 C 
DOCKED: ATOM     33  O   UNL d   1      49.002  22.594  17.959 -0.29 -0.81    -0.650 OA
DOCKED: BRANCH  32  34
DOCKED: ATOM     34  O   UNL d   1      47.410  22.968  16.466 -0.32 -1.11    -0.776 OA
DOCKED: ATOM     35  H   UNL d   1      47.359  23.933  16.484 +0.04 +0.17    +0.167 HD
DOCKED: ENDBRANCH  32  34
DOCKED: ENDBRANCH  31  32
DOCKED: ENDBRANCH  30  31
DOCKED: ENDBRANCH   6  30
DOCKED: BRANCH  29  36
DOCKED: ATOM     36  C   UNL d   1      45.194  26.393  16.372 +0.09 +0.07    +0.190 C 
DOCKED: BRANCH  36  37
DOCKED: ATOM     37  O   UNL d   1      46.289  25.729  15.809 -0.00 -0.19    -0.399 OA
DOCKED: ATOM     38  H   UNL d   1      46.241  24.801  16.173 +0.07 +0.12    +0.209 HD
DOCKED: ENDBRANCH  36  37
DOCKED: ENDBRANCH  29  36
DOCKED: BRANCH  22  39
DOCKED: ATOM     39  C   UNL d   1      48.163  25.419  21.495 -0.02 +0.03    +0.052 C 
DOCKED: BRANCH  39  40
DOCKED: ATOM     40  C   UNL d   1      47.639  24.871  22.833 -0.03 +0.07    +0.115 C 
DOCKED: BRANCH  40  41
DOCKED: ATOM     41  C   UNL d   1      46.881  25.882  23.668 +0.01 +0.18    +0.139 C 
DOCKED: ATOM     42  O   UNL d   1      45.796  25.573  24.142 +0.05 -1.04    -0.650 OA
DOCKED: BRANCH  41  43
DOCKED: ATOM     43  O   UNL d   1      47.409  27.087  23.977 -0.05 -1.20    -0.776 OA
DOCKED: ATOM     44  H   UNL d   1      48.324  27.193  24.269 +0.00 +0.14    +0.167 HD
DOCKED: ENDBRANCH  41  43
DOCKED: ENDBRANCH  40  41
DOCKED: ENDBRANCH  39  40
DOCKED: ENDBRANCH  22  39
DOCKED: BRANCH  12  45
DOCKED: ATOM     45  C   UNL d   1      39.510  26.981  14.510 -0.42 +0.00    +0.004 C 
DOCKED: ATOM     46  C   UNL d   1      38.388  27.502  14.999 -0.46 +0.00    +0.012 C 
DOCKED: ENDBRANCH  12  45
DOCKED: BRANCH  17  47
DOCKED: ATOM     47  C   UNL d   1      44.319  31.639  18.543 -0.35 +0.00    +0.004 C 
DOCKED: ATOM     48  C   UNL d   1      43.615  32.753  18.756 -0.42 +0.00    +0.012 C 
DOCKED: ENDBRANCH  17  47
DOCKED: TORSDOF 12
DOCKED: TER
DOCKED: ENDMDL
________________________________________________________________________________


	BEGINNING GENETIC ALGORITHM DOCKING 56 of 100
Run: 56 Seed: 384900401 1437718327 [ Run 56 of 100 GA/GALS ]
Beginning LAMARCKIAN GENETIC ALGORITHM (LGA), with a maximum of 25000000 energy evaluations.

Final-Value: -10.186


	FINAL GENETIC ALGORITHM DOCKED STATE
	_______________________________________________


Detailed state:  trans 20.996 47.494 -3.191 quatxyzw 0.095840 -0.907991 0.162348 0.374179 center 8.781 34.984 -0.736 ntor 12 154.0991 106.0269 17.7808 53.5946 123.6867 150.0987 -129.9979 -56.7589 -136.2695 97.4982 -179.2829 57.6921
State:	 20.996  47.494  -3.191   0.103 -0.979  0.175 136.053    154.10  106.03   17.78   53.59  123.69  150.10 -130.00  -56.76 -136.27   97.50 -179.28   57.69

DOCKED: MODEL       56
DOCKED: USER    Run = 56
DOCKED: USER    DPF = D:/Protein_go_brrr/autodock/final/6BB5/heme_Co/dock.dpf
DOCKED: USER  
DOCKED: USER    Estimated Free Energy of Binding    =   -4.58 kcal/mol  [=(1)+(2)+(3)-(4)]
DOCKED: USER    Estimated Inhibition Constant, Ki   =  440.04 uM (micromolar)  [Temperature = 298.15 K]
DOCKED: USER    
DOCKED: USER    (1) Final Intermolecular Energy     =   -8.16 kcal/mol
DOCKED: USER        vdW + Hbond + desolv Energy     =   -8.36 kcal/mol
DOCKED: USER        Electrostatic Energy            =   +0.20 kcal/mol
DOCKED: USER    (2) Final Total Internal Energy     =   -2.03 kcal/mol
DOCKED: USER    (3) Torsional Free Energy           =   +3.58 kcal/mol
DOCKED: USER    (4) Unbound System's Energy  [=(2)] =   -2.03 kcal/mol
DOCKED: USER    
DOCKED: USER    
DOCKED: USER    NEWDPF move heme_Co_opt.pdbqt
DOCKED: USER    NEWDPF about 8.781000 34.984000 -0.736000
DOCKED: USER    NEWDPF tran0 20.995981 47.494453 -3.190516
DOCKED: USER    NEWDPF quaternion0 0.095840 -0.907991 0.162348 0.374179
DOCKED: USER    NEWDPF axisangle0 0.103348 -0.979118 0.175065 136.052879
DOCKED: USER    NEWDPF quat0 0.103348 -0.979118 0.175065 136.052879
DOCKED: USER    NEWDPF dihe0 154.10 106.03 17.78 53.59 123.69 150.10 -130.00 -56.76 -136.27 97.50 -179.28 57.69 
DOCKED: USER  keepresnum = 1 
DOCKED: USER  
DOCKED: REMARK  12 active torsions:
DOCKED: REMARK  status: ('A' for Active; 'I' for Inactive)
DOCKED: REMARK    1  A    between atoms: C_6  and  C_10 
DOCKED: REMARK    2  A    between atoms: C_10  and  C_11 
DOCKED: REMARK    3  A    between atoms: C_11  and  C_12 
DOCKED: REMARK    4  A    between atoms: C_12  and  O_14 
DOCKED: REMARK    5  A    between atoms: C_17  and  C_20 
DOCKED: REMARK    6  A    between atoms: C_24  and  C_27 
DOCKED: REMARK    7  A    between atoms: C_31  and  C_34 
DOCKED: REMARK    8  A    between atoms: C_34  and  C_35 
DOCKED: REMARK    9  A    between atoms: C_35  and  C_36 
DOCKED: REMARK   10  A    between atoms: C_36  and  O_38 
DOCKED: REMARK   11  A    between atoms: FE_43  and  C_44 
DOCKED: REMARK   12  A    between atoms: C_44  and  O_45 
DOCKED: USER                              x       y       z     vdW  Elec       q    Type
DOCKED: USER                           _______ _______ _______ _____ _____    ______ ____
DOCKED: ROOT
DOCKED: ATOM      1  C   UNL d   1      21.723  48.719  -1.552 -0.15 -0.00    +0.064 A 
DOCKED: ATOM      2  C   UNL d   1      23.634  45.043  -3.885 -0.25 +0.01    +0.064 C 
DOCKED: ATOM      3  C   UNL d   1      19.593  44.471  -6.369 -0.31 +0.00    +0.064 A 
DOCKED: ATOM      4  C   UNL d   1      17.757  48.460  -4.276 -0.15 -0.02    +0.064 A 
DOCKED: ATOM      5  C   UNL d   1      22.529  47.734  -1.981 -0.15 +0.00    +0.066 A 
DOCKED: ATOM      6  C   UNL d   1      23.858  47.607  -1.532 -0.10 -0.00    -0.021 A 
DOCKED: ATOM      7  C   UNL d   1      24.415  46.553  -2.229 -0.12 -0.00    -0.025 A 
DOCKED: ATOM      8  C   UNL d   1      23.398  46.072  -3.061 -0.17 +0.00    +0.066 A 
DOCKED: ATOM      9  C   UNL d   1      25.848  46.007  -2.127 -0.11 +0.01    +0.051 C 
DOCKED: ATOM     10  C   UNL d   1      22.643  44.464  -4.757 -0.24 +0.00    +0.066 A 
DOCKED: ATOM     11  C   UNL d   1      22.786  43.299  -5.541 -0.20 -0.00    -0.021 A 
DOCKED: ATOM     12  C   UNL d   1      21.592  43.153  -6.252 -0.27 +0.00    +0.000 A 
DOCKED: ATOM     13  C   UNL d   1      20.806  44.230  -5.841 -0.29 +0.00    +0.070 A 
DOCKED: ATOM     14  C   UNL d   1      23.958  42.350  -5.523 -0.15 +0.01    +0.052 C 
DOCKED: ATOM     15  C   UNL d   1      18.673  45.559  -6.101 -0.27 -0.00    +0.066 A 
DOCKED: ATOM     16  C   UNL d   1      17.497  45.830  -6.786 -0.28 +0.00    -0.021 A 
DOCKED: ATOM     17  C   UNL d   1      16.965  46.982  -6.188 -0.25 -0.00    +0.000 A 
DOCKED: ATOM     18  C   UNL d   1      17.853  47.313  -5.170 -0.21 -0.01    +0.070 A 
DOCKED: ATOM     19  C   UNL d   1      16.946  45.020  -7.938 -0.25 -0.00    +0.052 C 
DOCKED: ATOM     20  C   UNL d   1      18.651  48.851  -3.337 -0.00 -0.02    +0.066 A 
DOCKED: ATOM     21  C   UNL d   1      18.465  49.994  -2.563 -0.24 +0.01    -0.025 A 
DOCKED: ATOM     22  C   UNL d   1      19.579  50.078  -1.748 -0.24 +0.01    -0.021 A 
DOCKED: ATOM     23  C   UNL d   1      20.402  48.980  -2.076 -0.16 -0.01    +0.066 A 
DOCKED: ATOM     24  C   UNL d   1      17.293  50.970  -2.611 -0.31 -0.01    +0.051 C 
DOCKED: ATOM     25  N   UNL d   1      22.217  46.782  -2.924 -0.15 +0.00    -0.248 N 
DOCKED: ATOM     26  N   UNL d   1      21.421  44.990  -4.896 -0.18 +0.00    -0.248 N 
DOCKED: ATOM     27  N   UNL d   1      18.873  46.462  -5.167 -0.16 +0.02    -0.248 N 
DOCKED: ATOM     28  N   UNL d   1      19.845  48.236  -3.039 -0.05 +0.07    -0.248 N 
DOCKED: ATOM     29 FE   UNL d   1      20.445  46.615  -4.110 -0.05 -0.00    +0.000 Fe
DOCKED: ENDROOT
DOCKED: BRANCH   6  30
DOCKED: ATOM     30  C   UNL d   1      24.573  48.516  -0.537 -0.08 +0.01    +0.052 C 
DOCKED: BRANCH  30  31
DOCKED: ATOM     31  C   UNL d   1      25.370  49.594  -1.272 -0.02 +0.01    +0.115 C 
DOCKED: BRANCH  31  32
DOCKED: ATOM     32  C   UNL d   1      24.608  50.177  -2.442 -0.01 +0.00    +0.139 C 
DOCKED: ATOM     33  O   UNL d   1      24.046  51.255  -2.317 +0.01 +0.00    -0.650 OA
DOCKED: BRANCH  32  34
DOCKED: ATOM     34  O   UNL d   1      24.567  49.565  -3.649 +0.01 -0.02    -0.776 OA
DOCKED: ATOM     35  H   UNL d   1      23.825  49.629  -4.266 +0.01 +0.00    +0.167 HD
DOCKED: ENDBRANCH  32  34
DOCKED: ENDBRANCH  31  32
DOCKED: ENDBRANCH  30  31
DOCKED: ENDBRANCH   6  30
DOCKED: BRANCH  29  36
DOCKED: ATOM     36  C   UNL d   1      21.396  47.858  -5.504 -0.03 -0.01    +0.190 C 
DOCKED: BRANCH  36  37
DOCKED: ATOM     37  O   UNL d   1      22.554  48.613  -5.716 +0.00 +0.00    -0.399 OA
DOCKED: ATOM     38  H   UNL d   1      23.039  48.590  -4.844 +0.02 -0.00    +0.209 HD
DOCKED: ENDBRANCH  36  37
DOCKED: ENDBRANCH  29  36
DOCKED: BRANCH  22  39
DOCKED: ATOM     39  C   UNL d   1      19.862  51.192  -0.757 -0.23 -0.01    +0.052 C 
DOCKED: BRANCH  39  40
DOCKED: ATOM     40  C   UNL d   1      20.869  50.728   0.308 -0.22 -0.02    +0.115 C 
DOCKED: BRANCH  40  41
DOCKED: ATOM     41  C   UNL d   1      20.242  50.057   1.512 -0.35 -0.03    +0.139 C 
DOCKED: ATOM     42  O   UNL d   1      19.926  48.878   1.443 -0.57 +0.08    -0.650 OA
DOCKED: BRANCH  41  43
DOCKED: ATOM     43  O   UNL d   1      20.101  50.702   2.691 -0.01 +0.18    -0.776 OA
DOCKED: ATOM     44  H   UNL d   1      20.060  51.665   2.755 -0.23 -0.07    +0.167 HD
DOCKED: ENDBRANCH  41  43
DOCKED: ENDBRANCH  40  41
DOCKED: ENDBRANCH  39  40
DOCKED: ENDBRANCH  22  39
DOCKED: BRANCH  12  45
DOCKED: ATOM     45  C   UNL d   1      21.099  42.116  -7.252 -0.30 +0.00    +0.004 C 
DOCKED: ATOM     46  C   UNL d   1      21.164  40.787  -7.225 -0.28 +0.00    +0.012 C 
DOCKED: ENDBRANCH  12  45
DOCKED: BRANCH  17  47
DOCKED: ATOM     47  C   UNL d   1      15.748  47.768  -6.548 -0.25 -0.00    +0.004 C 
DOCKED: ATOM     48  C   UNL d   1      14.593  47.685  -5.884 -0.39 -0.00    +0.012 C 
DOCKED: ENDBRANCH  17  47
DOCKED: TORSDOF 12
DOCKED: TER
DOCKED: ENDMDL
________________________________________________________________________________


	BEGINNING GENETIC ALGORITHM DOCKING 57 of 100
Run: 57 Seed: 1020995668 915659961 [ Run 57 of 100 GA/GALS ]
Beginning LAMARCKIAN GENETIC ALGORITHM (LGA), with a maximum of 25000000 energy evaluations.

Final-Value: -11.681


	FINAL GENETIC ALGORITHM DOCKED STATE
	_______________________________________________


Detailed state:  trans 15.309 17.258 5.083 quatxyzw 0.784342 0.154528 -0.291239 -0.525460 center 8.781 34.984 -0.736 ntor 12 83.8526 127.6115 -100.5416 104.5252 135.8691 117.8567 35.0938 154.3022 129.5391 82.4132 -129.9567 -176.7290
State:	 15.309  17.258   5.083   0.922  0.182 -0.342 -116.602     83.85  127.61 -100.54  104.53  135.87  117.86   35.09  154.30  129.54   82.41 -129.96 -176.73

DOCKED: MODEL       57
DOCKED: USER    Run = 57
DOCKED: USER    DPF = D:/Protein_go_brrr/autodock/final/6BB5/heme_Co/dock.dpf
DOCKED: USER  
DOCKED: USER    Estimated Free Energy of Binding    =   -5.49 kcal/mol  [=(1)+(2)+(3)-(4)]
DOCKED: USER    Estimated Inhibition Constant, Ki   =   94.22 uM (micromolar)  [Temperature = 298.15 K]
DOCKED: USER    
DOCKED: USER    (1) Final Intermolecular Energy     =   -9.07 kcal/mol
DOCKED: USER        vdW + Hbond + desolv Energy     =   -6.55 kcal/mol
DOCKED: USER        Electrostatic Energy            =   -2.52 kcal/mol
DOCKED: USER    (2) Final Total Internal Energy     =   -2.61 kcal/mol
DOCKED: USER    (3) Torsional Free Energy           =   +3.58 kcal/mol
DOCKED: USER    (4) Unbound System's Energy  [=(2)] =   -2.61 kcal/mol
DOCKED: USER    
DOCKED: USER    
DOCKED: USER    NEWDPF move heme_Co_opt.pdbqt
DOCKED: USER    NEWDPF about 8.781000 34.984000 -0.736000
DOCKED: USER    NEWDPF tran0 15.309148 17.258328 5.083182
DOCKED: USER    NEWDPF quaternion0 0.784342 0.154528 -0.291239 -0.525460
DOCKED: USER    NEWDPF axisangle0 0.921868 0.181623 -0.342305 -116.601541
DOCKED: USER    NEWDPF quat0 0.921868 0.181623 -0.342305 -116.601541
DOCKED: USER    NEWDPF dihe0 83.85 127.61 -100.54 104.53 135.87 117.86 35.09 154.30 129.54 82.41 -129.96 -176.73 
DOCKED: USER  keepresnum = 1 
DOCKED: USER  
DOCKED: REMARK  12 active torsions:
DOCKED: REMARK  status: ('A' for Active; 'I' for Inactive)
DOCKED: REMARK    1  A    between atoms: C_6  and  C_10 
DOCKED: REMARK    2  A    between atoms: C_10  and  C_11 
DOCKED: REMARK    3  A    between atoms: C_11  and  C_12 
DOCKED: REMARK    4  A    between atoms: C_12  and  O_14 
DOCKED: REMARK    5  A    between atoms: C_17  and  C_20 
DOCKED: REMARK    6  A    between atoms: C_24  and  C_27 
DOCKED: REMARK    7  A    between atoms: C_31  and  C_34 
DOCKED: REMARK    8  A    between atoms: C_34  and  C_35 
DOCKED: REMARK    9  A    between atoms: C_35  and  C_36 
DOCKED: REMARK   10  A    between atoms: C_36  and  O_38 
DOCKED: REMARK   11  A    between atoms: FE_43  and  C_44 
DOCKED: REMARK   12  A    between atoms: C_44  and  O_45 
DOCKED: USER                              x       y       z     vdW  Elec       q    Type
DOCKED: USER                           _______ _______ _______ _____ _____    ______ ____
DOCKED: ROOT
DOCKED: ATOM      1  C   UNL d   1      14.319  17.959   6.884 -0.19 +0.02    +0.064 A 
DOCKED: ATOM      2  C   UNL d   1      12.745  15.528   3.113 -0.15 +0.01    +0.064 C 
DOCKED: ATOM      3  C   UNL d   1      17.001  15.992   0.991 -0.12 -0.00    +0.064 A 
DOCKED: ATOM      4  C   UNL d   1      18.747  18.140   4.991 -0.11 +0.01    +0.064 A 
DOCKED: ATOM      5  C   UNL d   1      13.565  17.292   5.994 -0.18 +0.02    +0.066 A 
DOCKED: ATOM      6  C   UNL d   1      12.245  16.894   6.282 -0.24 -0.01    -0.021 A 
DOCKED: ATOM      7  C   UNL d   1      11.802  16.169   5.194 -0.22 -0.01    -0.025 A 
DOCKED: ATOM      8  C   UNL d   1      12.863  16.170   4.282 -0.13 +0.01    +0.066 A 
DOCKED: ATOM      9  C   UNL d   1      10.434  15.495   5.004 -0.37 +0.01    +0.051 C 
DOCKED: ATOM     10  C   UNL d   1      13.773  15.497   2.102 -0.11 +0.01    +0.066 A 
DOCKED: ATOM     11  C   UNL d   1      13.660  14.961   0.801 -0.13 -0.00    -0.021 A 
DOCKED: ATOM     12  C   UNL d   1      14.914  15.113   0.203 -0.12 +0.00    +0.000 A 
DOCKED: ATOM     13  C   UNL d   1      15.693  15.740   1.176 -0.06 +0.01    +0.070 A 
DOCKED: ATOM     14  C   UNL d   1      12.403  14.432   0.159 -0.15 +0.02    +0.052 C 
DOCKED: ATOM     15  C   UNL d   1      17.962  16.581   1.903 -0.10 -0.00    +0.066 A 
DOCKED: ATOM     16  C   UNL d   1      19.332  16.680   1.703 -0.09 +0.00    -0.021 A 
DOCKED: ATOM     17  C   UNL d   1      19.840  17.297   2.856 -0.08 -0.00    +0.000 A 
DOCKED: ATOM     18  C   UNL d   1      18.734  17.541   3.662 -0.10 +0.00    +0.070 A 
DOCKED: ATOM     19  C   UNL d   1      20.077  16.203   0.476 -0.05 -0.00    +0.052 C 
DOCKED: ATOM     20  C   UNL d   1      17.696  18.309   5.830 -0.16 +0.01    +0.066 A 
DOCKED: ATOM     21  C   UNL d   1      17.840  18.865   7.099 -0.19 -0.00    -0.025 A 
DOCKED: ATOM     22  C   UNL d   1      16.574  18.853   7.657 -0.21 -0.01    -0.021 A 
DOCKED: ATOM     23  C   UNL d   1      15.717  18.273   6.697 -0.18 +0.02    +0.066 A 
DOCKED: ATOM     24  C   UNL d   1      19.123  19.367   7.756 -0.17 +0.01    +0.051 C 
DOCKED: ATOM     25  N   UNL d   1      13.966  16.864   4.749 -0.08 -0.06    -0.248 N 
DOCKED: ATOM     26  N   UNL d   1      14.986  16.022   2.303 +0.01 -0.06    -0.248 N 
DOCKED: ATOM     27  N   UNL d   1      17.637  17.074   3.077 +0.01 +0.00    -0.248 N 
DOCKED: ATOM     28  N   UNL d   1      16.392  17.941   5.591 -0.12 -0.05    -0.248 N 
DOCKED: ATOM     29 FE   UNL d   1      15.911  16.977   3.866 -0.04 +0.00    +0.000 Fe
DOCKED: ENDROOT
DOCKED: BRANCH   6  30
DOCKED: ATOM     30  C   UNL d   1      11.486  17.134   7.583 -0.32 +0.01    +0.052 C 
DOCKED: BRANCH  30  31
DOCKED: ATOM     31  C   UNL d   1      12.365  16.801   8.788 -0.24 +0.07    +0.115 C 
DOCKED: BRANCH  31  32
DOCKED: ATOM     32  C   UNL d   1      12.969  15.416   8.696 -0.14 +0.12    +0.139 C 
DOCKED: ATOM     33  O   UNL d   1      12.404  14.477   9.237 -0.56 -0.65    -0.650 OA
DOCKED: BRANCH  32  34
DOCKED: ATOM     34  O   UNL d   1      14.097  15.171   7.991 +0.06 -0.43    -0.776 OA
DOCKED: ATOM     35  H   UNL d   1      14.991  15.357   8.311 +0.03 +0.10    +0.167 HD
DOCKED: ENDBRANCH  32  34
DOCKED: ENDBRANCH  31  32
DOCKED: ENDBRANCH  30  31
DOCKED: ENDBRANCH   6  30
DOCKED: BRANCH  29  36
DOCKED: ATOM     36  C   UNL d   1      16.304  15.124   4.764 -0.03 +0.03    +0.190 C 
DOCKED: BRANCH  36  37
DOCKED: ATOM     37  O   UNL d   1      16.064  14.373   5.919 +0.01 -0.07    -0.399 OA
DOCKED: ATOM     38  H   UNL d   1      15.322  14.849   6.385 +0.02 +0.05    +0.209 HD
DOCKED: ENDBRANCH  36  37
DOCKED: ENDBRANCH  29  36
DOCKED: BRANCH  22  39
DOCKED: ATOM     39  C   UNL d   1      16.227  19.313   9.060 -0.33 +0.01    +0.052 C 
DOCKED: BRANCH  39  40
DOCKED: ATOM     40  C   UNL d   1      16.681  18.274  10.100 -0.27 +0.05    +0.115 C 
DOCKED: BRANCH  40  41
DOCKED: ATOM     41  C   UNL d   1      15.562  17.421  10.659 -0.19 +0.15    +0.139 C 
DOCKED: ATOM     42  O   UNL d   1      14.710  17.940  11.367 -0.47 -1.04    -0.650 OA
DOCKED: BRANCH  41  43
DOCKED: ATOM     43  O   UNL d   1      15.430  16.117  10.328 +0.12 -1.10    -0.776 OA
DOCKED: ATOM     44  H   UNL d   1      14.859  15.820   9.608 +0.04 +0.21    +0.167 HD
DOCKED: ENDBRANCH  41  43
DOCKED: ENDBRANCH  40  41
DOCKED: ENDBRANCH  39  40
DOCKED: ENDBRANCH  22  39
DOCKED: BRANCH  12  45
DOCKED: ATOM     45  C   UNL d   1      15.458  14.758  -1.175 -0.14 +0.00    +0.004 C 
DOCKED: ATOM     46  C   UNL d   1      15.589  15.499  -2.272 -0.25 -0.00    +0.012 C 
DOCKED: ENDBRANCH  12  45
DOCKED: BRANCH  17  47
DOCKED: ATOM     47  C   UNL d   1      21.253  17.603   3.229 -0.03 +0.00    +0.004 C 
DOCKED: ATOM     48  C   UNL d   1      21.729  18.844   3.360 -0.03 +0.00    +0.012 C 
DOCKED: ENDBRANCH  17  47
DOCKED: TORSDOF 12
DOCKED: TER
DOCKED: ENDMDL
________________________________________________________________________________


	BEGINNING GENETIC ALGORITHM DOCKING 58 of 100
Run: 58 Seed: 1183956431 1537206543 [ Run 58 of 100 GA/GALS ]
Beginning LAMARCKIAN GENETIC ALGORITHM (LGA), with a maximum of 25000000 energy evaluations.

Final-Value: -13.137


	FINAL GENETIC ALGORITHM DOCKED STATE
	_______________________________________________


Detailed state:  trans 45.496 27.390 17.812 quatxyzw -0.231876 0.334745 0.913334 -0.000957 center 8.781 34.984 -0.736 ntor 12 -64.6300 144.9080 -72.1557 -179.7508 108.3863 115.1987 -151.5067 -156.1114 172.7340 -67.7400 -175.5459 -150.3332
State:	 45.496  27.390  17.812  -0.232  0.335  0.913 -179.890    -64.63  144.91  -72.16 -179.75  108.39  115.20 -151.51 -156.11  172.73  -67.74 -175.55 -150.33

DOCKED: MODEL       58
DOCKED: USER    Run = 58
DOCKED: USER    DPF = D:/Protein_go_brrr/autodock/final/6BB5/heme_Co/dock.dpf
DOCKED: USER  
DOCKED: USER    Estimated Free Energy of Binding    =   -8.42 kcal/mol  [=(1)+(2)+(3)-(4)]
DOCKED: USER    Estimated Inhibition Constant, Ki   =  673.44 nM (nanomolar)  [Temperature = 298.15 K]
DOCKED: USER    
DOCKED: USER    (1) Final Intermolecular Energy     =  -12.00 kcal/mol
DOCKED: USER        vdW + Hbond + desolv Energy     =   -9.11 kcal/mol
DOCKED: USER        Electrostatic Energy            =   -2.89 kcal/mol
DOCKED: USER    (2) Final Total Internal Energy     =   -1.14 kcal/mol
DOCKED: USER    (3) Torsional Free Energy           =   +3.58 kcal/mol
DOCKED: USER    (4) Unbound System's Energy  [=(2)] =   -1.14 kcal/mol
DOCKED: USER    
DOCKED: USER    
DOCKED: USER    NEWDPF move heme_Co_opt.pdbqt
DOCKED: USER    NEWDPF about 8.781000 34.984000 -0.736000
DOCKED: USER    NEWDPF tran0 45.496434 27.389826 17.812072
DOCKED: USER    NEWDPF quaternion0 -0.231876 0.334745 0.913334 -0.000957
DOCKED: USER    NEWDPF axisangle0 -0.231876 0.334745 0.913334 -179.890328
DOCKED: USER    NEWDPF quat0 -0.231876 0.334745 0.913334 -179.890328
DOCKED: USER    NEWDPF dihe0 -64.63 144.91 -72.16 -179.75 108.39 115.20 -151.51 -156.11 172.73 -67.74 -175.55 -150.33 
DOCKED: USER  keepresnum = 1 
DOCKED: USER  
DOCKED: REMARK  12 active torsions:
DOCKED: REMARK  status: ('A' for Active; 'I' for Inactive)
DOCKED: REMARK    1  A    between atoms: C_6  and  C_10 
DOCKED: REMARK    2  A    between atoms: C_10  and  C_11 
DOCKED: REMARK    3  A    between atoms: C_11  and  C_12 
DOCKED: REMARK    4  A    between atoms: C_12  and  O_14 
DOCKED: REMARK    5  A    between atoms: C_17  and  C_20 
DOCKED: REMARK    6  A    between atoms: C_24  and  C_27 
DOCKED: REMARK    7  A    between atoms: C_31  and  C_34 
DOCKED: REMARK    8  A    between atoms: C_34  and  C_35 
DOCKED: REMARK    9  A    between atoms: C_35  and  C_36 
DOCKED: REMARK   10  A    between atoms: C_36  and  O_38 
DOCKED: REMARK   11  A    between atoms: FE_43  and  C_44 
DOCKED: REMARK   12  A    between atoms: C_44  and  O_45 
DOCKED: USER                              x       y       z     vdW  Elec       q    Type
DOCKED: USER                           _______ _______ _______ _____ _____    ______ ____
DOCKED: ROOT
DOCKED: ATOM      1  C   UNL d   1      47.504  26.780  18.370 -0.09 +0.03    +0.064 A 
DOCKED: ATOM      2  C   UNL d   1      45.219  30.936  18.707 -0.24 +0.02    +0.064 C 
DOCKED: ATOM      3  C   UNL d   1      41.467  29.104  16.384 -0.21 +0.02    +0.064 A 
DOCKED: ATOM      4  C   UNL d   1      43.623  24.743  16.367 -0.14 +0.02    +0.064 A 
DOCKED: ATOM      5  C   UNL d   1      47.170  28.060  18.600 -0.10 +0.03    +0.066 A 
DOCKED: ATOM      6  C   UNL d   1      47.999  28.928  19.338 -0.07 -0.01    -0.021 A 
DOCKED: ATOM      7  C   UNL d   1      47.321  30.125  19.452 -0.10 -0.01    -0.025 A 
DOCKED: ATOM      8  C   UNL d   1      46.115  29.943  18.766 -0.15 +0.03    +0.066 A 
DOCKED: ATOM      9  C   UNL d   1      47.777  31.401  20.176 -0.08 +0.02    +0.051 C 
DOCKED: ATOM     10  C   UNL d   1      43.964  30.849  18.002 -0.27 +0.02    +0.066 A 
DOCKED: ATOM     11  C   UNL d   1      43.045  31.898  17.784 -0.37 -0.00    -0.021 A 
DOCKED: ATOM     12  C   UNL d   1      41.962  31.337  17.101 -0.43 +0.00    +0.000 A 
DOCKED: ATOM     13  C   UNL d   1      42.305  29.994  16.943 -0.31 +0.01    +0.070 A 
DOCKED: ATOM     14  C   UNL d   1      43.251  33.351  18.129 -0.39 +0.00    +0.052 C 
DOCKED: ATOM     15  C   UNL d   1      41.637  27.677  16.189 -0.28 +0.01    +0.066 A 
DOCKED: ATOM     16  C   UNL d   1      40.673  26.788  15.736 -0.40 -0.00    -0.021 A 
DOCKED: ATOM     17  C   UNL d   1      41.289  25.528  15.732 -0.42 +0.00    +0.000 A 
DOCKED: ATOM     18  C   UNL d   1      42.591  25.752  16.168 -0.19 +0.02    +0.070 A 
DOCKED: ATOM     19  C   UNL d   1      39.259  27.153  15.342 -0.43 +0.01    +0.052 C 
DOCKED: ATOM     20  C   UNL d   1      44.867  24.924  16.872 -0.21 +0.03    +0.066 A 
DOCKED: ATOM     21  C   UNL d   1      45.758  23.869  17.050 -0.20 -0.01    -0.025 A 
DOCKED: ATOM     22  C   UNL d   1      46.897  24.430  17.599 -0.16 -0.01    -0.021 A 
DOCKED: ATOM     23  C   UNL d   1      46.637  25.810  17.740 -0.14 +0.03    +0.066 A 
DOCKED: ATOM     24  C   UNL d   1      45.530  22.393  16.731 -0.16 +0.03    +0.051 C 
DOCKED: ATOM     25  N   UNL d   1      45.998  28.674  18.223 -0.08 -0.10    -0.248 N 
DOCKED: ATOM     26  N   UNL d   1      43.540  29.713  17.438 -0.18 -0.07    -0.248 N 
DOCKED: ATOM     27  N   UNL d   1      42.753  27.038  16.459 -0.22 -0.06    -0.248 N 
DOCKED: ATOM     28  N   UNL d   1      45.409  26.113  17.304 -0.12 -0.10    -0.248 N 
DOCKED: ATOM     29 FE   UNL d   1      44.281  27.805  17.289 -0.06 +0.00    +0.000 Fe
DOCKED: ENDROOT
DOCKED: BRANCH   6  30
DOCKED: ATOM     30  C   UNL d   1      49.344  28.583  19.969 -0.03 +0.02    +0.052 C 
DOCKED: BRANCH  30  31
DOCKED: ATOM     31  C   UNL d   1      49.155  28.101  21.407 -0.03 +0.06    +0.115 C 
DOCKED: BRANCH  31  32
DOCKED: ATOM     32  C   UNL d   1      47.738  28.299  21.900 -0.05 +0.15    +0.139 C 
DOCKED: ATOM     33  O   UNL d   1      46.869  27.508  21.564 -0.53 -0.96    -0.650 OA
DOCKED: BRANCH  32  34
DOCKED: ATOM     34  O   UNL d   1      47.406  29.301  22.747 -0.14 -1.01    -0.776 OA
DOCKED: ATOM     35  H   UNL d   1      47.688  29.348  23.670 +0.00 +0.19    +0.167 HD
DOCKED: ENDBRANCH  32  34
DOCKED: ENDBRANCH  31  32
DOCKED: ENDBRANCH  30  31
DOCKED: ENDBRANCH   6  30
DOCKED: BRANCH  29  36
DOCKED: ATOM     36  C   UNL d   1      43.582  27.384  19.220 +0.23 +0.10    +0.190 C 
DOCKED: BRANCH  36  37
DOCKED: ATOM     37  O   UNL d   1      43.995  26.956  20.486 -0.24 -0.41    -0.399 OA
DOCKED: ATOM     38  H   UNL d   1      44.927  27.299  20.581 +0.06 +0.25    +0.209 HD
DOCKED: ENDBRANCH  36  37
DOCKED: ENDBRANCH  29  36
DOCKED: BRANCH  22  39
DOCKED: ATOM     39  C   UNL d   1      48.138  23.667  18.022 -0.12 +0.04    +0.052 C 
DOCKED: BRANCH  39  40
DOCKED: ATOM     40  C   UNL d   1      47.760  22.456  18.890 -0.07 +0.08    +0.115 C 
DOCKED: BRANCH  40  41
DOCKED: ATOM     41  C   UNL d   1      47.899  21.119  18.192 -0.09 +0.12    +0.139 C 
DOCKED: ATOM     42  O   UNL d   1      47.957  21.085  16.971 +0.07 -1.12    -0.650 OA
DOCKED: BRANCH  41  43
DOCKED: ATOM     43  O   UNL d   1      48.047  19.968  18.885 +0.04 -0.44    -0.776 OA
DOCKED: ATOM     44  H   UNL d   1      48.828  19.782  19.421 +0.02 +0.08    +0.167 HD
DOCKED: ENDBRANCH  41  43
DOCKED: ENDBRANCH  40  41
DOCKED: ENDBRANCH  39  40
DOCKED: ENDBRANCH  22  39
DOCKED: BRANCH  12  45
DOCKED: ATOM     45  C   UNL d   1      40.659  31.916  16.567 -0.47 +0.00    +0.004 C 
DOCKED: ATOM     46  C   UNL d   1      39.722  31.371  15.795 -0.44 +0.00    +0.012 C 
DOCKED: ENDBRANCH  12  45
DOCKED: BRANCH  17  47
DOCKED: ATOM     47  C   UNL d   1      40.719  24.188  15.401 -0.53 +0.00    +0.004 C 
DOCKED: ATOM     48  C   UNL d   1      40.669  23.694  14.162 -0.60 +0.00    +0.012 C 
DOCKED: ENDBRANCH  17  47
DOCKED: TORSDOF 12
DOCKED: TER
DOCKED: ENDMDL
________________________________________________________________________________


	BEGINNING GENETIC ALGORITHM DOCKING 59 of 100
Run: 59 Seed: 749407278 218737267 [ Run 59 of 100 GA/GALS ]
Beginning LAMARCKIAN GENETIC ALGORITHM (LGA), with a maximum of 25000000 energy evaluations.

Final-Value: -11.409


	FINAL GENETIC ALGORITHM DOCKED STATE
	_______________________________________________


Detailed state:  trans 43.180 16.497 15.839 quatxyzw -0.082669 0.606363 -0.667153 -0.424732 center 8.781 34.984 -0.736 ntor 12 -81.9949 128.9592 127.3640 116.4176 140.7069 89.6008 -56.9185 -43.0010 -61.6929 100.6591 151.3011 179.9259
State:	 43.180  16.497  15.839  -0.091  0.670 -0.737 -129.733    -81.99  128.96  127.36  116.42  140.71   89.60  -56.92  -43.00  -61.69  100.66  151.30  179.93

DOCKED: MODEL       59
DOCKED: USER    Run = 59
DOCKED: USER    DPF = D:/Protein_go_brrr/autodock/final/6BB5/heme_Co/dock.dpf
DOCKED: USER  
DOCKED: USER    Estimated Free Energy of Binding    =   -5.62 kcal/mol  [=(1)+(2)+(3)-(4)]
DOCKED: USER    Estimated Inhibition Constant, Ki   =   76.58 uM (micromolar)  [Temperature = 298.15 K]
DOCKED: USER    
DOCKED: USER    (1) Final Intermolecular Energy     =   -9.19 kcal/mol
DOCKED: USER        vdW + Hbond + desolv Energy     =   -6.51 kcal/mol
DOCKED: USER        Electrostatic Energy            =   -2.69 kcal/mol
DOCKED: USER    (2) Final Total Internal Energy     =   -2.21 kcal/mol
DOCKED: USER    (3) Torsional Free Energy           =   +3.58 kcal/mol
DOCKED: USER    (4) Unbound System's Energy  [=(2)] =   -2.21 kcal/mol
DOCKED: USER    
DOCKED: USER    
DOCKED: USER    NEWDPF move heme_Co_opt.pdbqt
DOCKED: USER    NEWDPF about 8.781000 34.984000 -0.736000
DOCKED: USER    NEWDPF tran0 43.179533 16.496848 15.839118
DOCKED: USER    NEWDPF quaternion0 -0.082669 0.606363 -0.667153 -0.424732
DOCKED: USER    NEWDPF axisangle0 -0.091315 0.669778 -0.736925 -129.732645
DOCKED: USER    NEWDPF quat0 -0.091315 0.669778 -0.736925 -129.732645
DOCKED: USER    NEWDPF dihe0 -81.99 128.96 127.36 116.42 140.71 89.60 -56.92 -43.00 -61.69 100.66 151.30 179.93 
DOCKED: USER  keepresnum = 1 
DOCKED: USER  
DOCKED: REMARK  12 active torsions:
DOCKED: REMARK  status: ('A' for Active; 'I' for Inactive)
DOCKED: REMARK    1  A    between atoms: C_6  and  C_10 
DOCKED: REMARK    2  A    between atoms: C_10  and  C_11 
DOCKED: REMARK    3  A    between atoms: C_11  and  C_12 
DOCKED: REMARK    4  A    between atoms: C_12  and  O_14 
DOCKED: REMARK    5  A    between atoms: C_17  and  C_20 
DOCKED: REMARK    6  A    between atoms: C_24  and  C_27 
DOCKED: REMARK    7  A    between atoms: C_31  and  C_34 
DOCKED: REMARK    8  A    between atoms: C_34  and  C_35 
DOCKED: REMARK    9  A    between atoms: C_35  and  C_36 
DOCKED: REMARK   10  A    between atoms: C_36  and  O_38 
DOCKED: REMARK   11  A    between atoms: FE_43  and  C_44 
DOCKED: REMARK   12  A    between atoms: C_44  and  O_45 
DOCKED: USER                              x       y       z     vdW  Elec       q    Type
DOCKED: USER                           _______ _______ _______ _____ _____    ______ ____
DOCKED: ROOT
DOCKED: ATOM      1  C   UNL d   1      44.091  18.463  15.970 -0.20 +0.02    +0.064 A 
DOCKED: ATOM      2  C   UNL d   1      44.399  14.608  18.737 -0.20 +0.01    +0.064 C 
DOCKED: ATOM      3  C   UNL d   1      41.108  12.390  16.076 -0.07 +0.01    +0.064 A 
DOCKED: ATOM      4  C   UNL d   1      41.058  16.168  13.012 -0.19 +0.00    +0.064 A 
DOCKED: ATOM      5  C   UNL d   1      44.390  17.587  16.943 -0.20 +0.02    +0.066 A 
DOCKED: ATOM      6  C   UNL d   1      45.388  17.846  17.902 -0.17 -0.01    -0.021 A 
DOCKED: ATOM      7  C   UNL d   1      45.489  16.716  18.688 -0.18 -0.01    -0.025 A 
DOCKED: ATOM      8  C   UNL d   1      44.538  15.821  18.186 -0.21 +0.01    +0.066 A 
DOCKED: ATOM      9  C   UNL d   1      46.440  16.471  19.870 -0.14 +0.01    +0.051 C 
DOCKED: ATOM     10  C   UNL d   1      43.430  13.632  18.305 -0.16 +0.01    +0.066 A 
DOCKED: ATOM     11  C   UNL d   1      43.138  12.399  18.929 -0.12 -0.00    -0.021 A 
DOCKED: ATOM     12  C   UNL d   1      42.173  11.775  18.135 -0.11 +0.00    +0.000 A 
DOCKED: ATOM     13  C   UNL d   1      41.938  12.676  17.095 -0.07 +0.01    +0.070 A 
DOCKED: ATOM     14  C   UNL d   1      43.687  11.915  20.246 -0.07 +0.00    +0.052 C 
DOCKED: ATOM     15  C   UNL d   1      40.790  13.177  14.901 -0.11 +0.01    +0.066 A 
DOCKED: ATOM     16  C   UNL d   1      40.035  12.762  13.813 -0.10 -0.00    -0.021 A 
DOCKED: ATOM     17  C   UNL d   1      40.020  13.848  12.925 -0.14 +0.00    +0.000 A 
DOCKED: ATOM     18  C   UNL d   1      40.755  14.848  13.552 -0.17 +0.00    +0.070 A 
DOCKED: ATOM     19  C   UNL d   1      39.384  11.405  13.663 -0.05 +0.00    +0.052 C 
DOCKED: ATOM     20  C   UNL d   1      41.842  17.124  13.564 -0.24 +0.01    +0.066 A 
DOCKED: ATOM     21  C   UNL d   1      42.088  18.341  12.931 -0.29 -0.00    -0.025 A 
DOCKED: ATOM     22  C   UNL d   1      42.936  19.035  13.774 -0.28 -0.00    -0.021 A 
DOCKED: ATOM     23  C   UNL d   1      43.177  18.196  14.883 -0.22 +0.01    +0.066 A 
DOCKED: ATOM     24  C   UNL d   1      41.557  18.812  11.580 -0.35 +0.00    +0.051 C 
DOCKED: ATOM     25  N   UNL d   1      43.838  16.337  17.108 -0.16 -0.06    -0.248 N 
DOCKED: ATOM     26  N   UNL d   1      42.657  13.822  17.230 +0.06 -0.05    -0.248 N 
DOCKED: ATOM     27  N   UNL d   1      41.224  14.403  14.712 -0.08 -0.03    -0.248 N 
DOCKED: ATOM     28  N   UNL d   1      42.519  17.038  14.758 -0.14 -0.04    -0.248 N 
DOCKED: ATOM     29 FE   UNL d   1      42.453  15.316  15.837 -0.05 +0.00    +0.000 Fe
DOCKED: ENDROOT
DOCKED: BRANCH   6  30
DOCKED: ATOM     30  C   UNL d   1      46.256  19.097  17.997 -0.16 +0.02    +0.052 C 
DOCKED: BRANCH  30  31
DOCKED: ATOM     31  C   UNL d   1      47.738  18.726  17.977 -0.06 +0.06    +0.115 C 
DOCKED: BRANCH  31  32
DOCKED: ATOM     32  C   UNL d   1      48.456  19.277  16.764 -0.04 +0.16    +0.139 C 
DOCKED: ATOM     33  O   UNL d   1      49.669  19.160  16.678 -0.22 -0.88    -0.650 OA
DOCKED: BRANCH  32  34
DOCKED: ATOM     34  O   UNL d   1      47.790  19.859  15.739 +0.05 -1.33    -0.776 OA
DOCKED: ATOM     35  H   UNL d   1      47.411  19.375  14.992 +0.03 +0.20    +0.167 HD
DOCKED: ENDBRANCH  32  34
DOCKED: ENDBRANCH  31  32
DOCKED: ENDBRANCH  30  31
DOCKED: ENDBRANCH   6  30
DOCKED: BRANCH  29  36
DOCKED: ATOM     36  C   UNL d   1      44.120  14.576  14.803 -0.04 +0.03    +0.190 C 
DOCKED: BRANCH  36  37
DOCKED: ATOM     37  O   UNL d   1      45.201  14.968  14.007 +0.00 -0.09    -0.399 OA
DOCKED: ATOM     38  H   UNL d   1      45.271  15.955  14.137 +0.03 +0.06    +0.209 HD
DOCKED: ENDBRANCH  36  37
DOCKED: ENDBRANCH  29  36
DOCKED: BRANCH  22  39
DOCKED: ATOM     39  C   UNL d   1      43.531  20.403  13.493 -0.26 +0.01    +0.052 C 
DOCKED: BRANCH  39  40
DOCKED: ATOM     40  C   UNL d   1      44.719  20.289  12.524 -0.25 +0.05    +0.115 C 
DOCKED: BRANCH  40  41
DOCKED: ATOM     41  C   UNL d   1      46.040  19.969  13.191 -0.28 +0.09    +0.139 C 
DOCKED: ATOM     42  O   UNL d   1      46.413  18.806  13.255 +0.02 -0.40    -0.650 OA
DOCKED: BRANCH  41  43
DOCKED: ATOM     43  O   UNL d   1      46.863  20.943  13.641 -0.51 -0.98    -0.776 OA
DOCKED: ATOM     44  H   UNL d   1      47.277  20.911  14.513 +0.03 +0.36    +0.167 HD
DOCKED: ENDBRANCH  41  43
DOCKED: ENDBRANCH  40  41
DOCKED: ENDBRANCH  39  40
DOCKED: ENDBRANCH  22  39
DOCKED: BRANCH  12  45
DOCKED: ATOM     45  C   UNL d   1      41.435  10.448  18.248 -0.06 +0.00    +0.004 C 
DOCKED: ATOM     46  C   UNL d   1      40.168  10.184  18.556 -0.06 +0.00    +0.012 C 
DOCKED: ENDBRANCH  12  45
DOCKED: BRANCH  17  47
DOCKED: ATOM     47  C   UNL d   1      39.417  13.958  11.563 -0.12 +0.00    +0.004 C 
DOCKED: ATOM     48  C   UNL d   1      38.463  14.836  11.248 -0.20 +0.00    +0.012 C 
DOCKED: ENDBRANCH  17  47
DOCKED: TORSDOF 12
DOCKED: TER
DOCKED: ENDMDL
________________________________________________________________________________


	BEGINNING GENETIC ALGORITHM DOCKING 60 of 100
Run: 60 Seed: 1151728249 1261748744 [ Run 60 of 100 GA/GALS ]
Beginning LAMARCKIAN GENETIC ALGORITHM (LGA), with a maximum of 25000000 energy evaluations.

Final-Value: -13.956


	FINAL GENETIC ALGORITHM DOCKED STATE
	_______________________________________________


Detailed state:  trans 45.480 29.546 18.448 quatxyzw -0.373596 0.381383 0.805703 0.256545 center 8.781 34.984 -0.736 ntor 12 169.0854 160.0355 -24.8008 -112.2950 -27.7230 45.8835 176.6467 -16.4205 -103.9852 180.0000 -173.7501 179.9011
State:	 45.480  29.546  18.448  -0.387  0.395  0.834 150.270    169.09  160.04  -24.80 -112.30  -27.72   45.88  176.65  -16.42 -103.99  180.00 -173.75  179.90

DOCKED: MODEL       60
DOCKED: USER    Run = 60
DOCKED: USER    DPF = D:/Protein_go_brrr/autodock/final/6BB5/heme_Co/dock.dpf
DOCKED: USER  
DOCKED: USER    Estimated Free Energy of Binding    =   -7.52 kcal/mol  [=(1)+(2)+(3)-(4)]
DOCKED: USER    Estimated Inhibition Constant, Ki   =    3.10 uM (micromolar)  [Temperature = 298.15 K]
DOCKED: USER    
DOCKED: USER    (1) Final Intermolecular Energy     =  -11.09 kcal/mol
DOCKED: USER        vdW + Hbond + desolv Energy     =   -8.88 kcal/mol
DOCKED: USER        Electrostatic Energy            =   -2.21 kcal/mol
DOCKED: USER    (2) Final Total Internal Energy     =   -2.86 kcal/mol
DOCKED: USER    (3) Torsional Free Energy           =   +3.58 kcal/mol
DOCKED: USER    (4) Unbound System's Energy  [=(2)] =   -2.86 kcal/mol
DOCKED: USER    
DOCKED: USER    
DOCKED: USER    NEWDPF move heme_Co_opt.pdbqt
DOCKED: USER    NEWDPF about 8.781000 34.984000 -0.736000
DOCKED: USER    NEWDPF tran0 45.480323 29.546240 18.447965
DOCKED: USER    NEWDPF quaternion0 -0.373596 0.381383 0.805703 0.256545
DOCKED: USER    NEWDPF axisangle0 -0.386532 0.394589 0.833602 150.269735
DOCKED: USER    NEWDPF quat0 -0.386532 0.394589 0.833602 150.269735
DOCKED: USER    NEWDPF dihe0 169.09 160.04 -24.80 -112.30 -27.72 45.88 176.65 -16.42 -103.99 180.00 -173.75 179.90 
DOCKED: USER  keepresnum = 1 
DOCKED: USER  
DOCKED: REMARK  12 active torsions:
DOCKED: REMARK  status: ('A' for Active; 'I' for Inactive)
DOCKED: REMARK    1  A    between atoms: C_6  and  C_10 
DOCKED: REMARK    2  A    between atoms: C_10  and  C_11 
DOCKED: REMARK    3  A    between atoms: C_11  and  C_12 
DOCKED: REMARK    4  A    between atoms: C_12  and  O_14 
DOCKED: REMARK    5  A    between atoms: C_17  and  C_20 
DOCKED: REMARK    6  A    between atoms: C_24  and  C_27 
DOCKED: REMARK    7  A    between atoms: C_31  and  C_34 
DOCKED: REMARK    8  A    between atoms: C_34  and  C_35 
DOCKED: REMARK    9  A    between atoms: C_35  and  C_36 
DOCKED: REMARK   10  A    between atoms: C_36  and  O_38 
DOCKED: REMARK   11  A    between atoms: FE_43  and  C_44 
DOCKED: REMARK   12  A    between atoms: C_44  and  O_45 
DOCKED: USER                              x       y       z     vdW  Elec       q    Type
DOCKED: USER                           _______ _______ _______ _____ _____    ______ ____
DOCKED: ROOT
DOCKED: ATOM      1  C   UNL d   1      47.363  30.250  19.271 -0.09 +0.02    +0.064 A 
DOCKED: ATOM      2  C   UNL d   1      43.300  32.486  18.221 -0.41 +0.01    +0.064 C 
DOCKED: ATOM      3  C   UNL d   1      41.523  28.462  16.355 -0.25 +0.02    +0.064 A 
DOCKED: ATOM      4  C   UNL d   1      45.513  26.063  17.765 -0.16 +0.03    +0.064 A 
DOCKED: ATOM      5  C   UNL d   1      46.397  31.165  19.088 -0.14 +0.02    +0.066 A 
DOCKED: ATOM      6  C   UNL d   1      46.513  32.482  19.575 -0.14 -0.01    -0.021 A 
DOCKED: ATOM      7  C   UNL d   1      45.323  33.120  19.288 -0.24 -0.00    -0.025 A 
DOCKED: ATOM      8  C   UNL d   1      44.537  32.171  18.624 -0.27 +0.02    +0.066 A 
DOCKED: ATOM      9  C   UNL d   1      44.924  34.566  19.619 -0.33 +0.00    +0.051 C 
DOCKED: ATOM     10  C   UNL d   1      42.429  31.585  17.508 -0.39 +0.01    +0.066 A 
DOCKED: ATOM     11  C   UNL d   1      41.177  31.898  16.936 -0.44 -0.00    -0.021 A 
DOCKED: ATOM     12  C   UNL d   1      40.683  30.707  16.395 -0.38 +0.00    +0.000 A 
DOCKED: ATOM     13  C   UNL d   1      41.673  29.762  16.665 -0.25 +0.02    +0.070 A 
DOCKED: ATOM     14  C   UNL d   1      40.558  33.268  16.839 -0.39 +0.01    +0.052 C 
DOCKED: ATOM     15  C   UNL d   1      42.416  27.348  16.606 -0.25 +0.02    +0.066 A 
DOCKED: ATOM     16  C   UNL d   1      42.138  26.006  16.390 -0.36 -0.00    -0.021 A 
DOCKED: ATOM     17  C   UNL d   1      43.285  25.309  16.798 -0.29 +0.00    +0.000 A 
DOCKED: ATOM     18  C   UNL d   1      44.182  26.287  17.216 -0.23 +0.02    +0.070 A 
DOCKED: ATOM     19  C   UNL d   1      40.845  25.457  15.829 -0.44 +0.01    +0.052 C 
DOCKED: ATOM     20  C   UNL d   1      46.368  26.990  18.258 -0.11 +0.03    +0.066 A 
DOCKED: ATOM     21  C   UNL d   1      47.608  26.648  18.793 -0.08 -0.01    -0.025 A 
DOCKED: ATOM     22  C   UNL d   1      48.177  27.838  19.209 -0.06 -0.01    -0.021 A 
DOCKED: ATOM     23  C   UNL d   1      47.242  28.854  18.916 -0.09 +0.03    +0.066 A 
DOCKED: ATOM     24  C   UNL d   1      48.215  25.253  18.920 -0.06 +0.03    +0.051 C 
DOCKED: ATOM     25  N   UNL d   1      45.180  30.953  18.481 -0.12 -0.08    -0.248 N 
DOCKED: ATOM     26  N   UNL d   1      42.752  30.306  17.288 -0.21 -0.05    -0.248 N 
DOCKED: ATOM     27  N   UNL d   1      43.619  27.486  17.117 -0.17 -0.07    -0.248 N 
DOCKED: ATOM     28  N   UNL d   1      46.145  28.345  18.342 -0.08 -0.11    -0.248 N 
DOCKED: ATOM     29 FE   UNL d   1      44.357  29.115  17.759 -0.06 +0.00    +0.000 Fe
DOCKED: ENDROOT
DOCKED: BRANCH   6  30
DOCKED: ATOM     30  C   UNL d   1      47.690  33.064  20.352 -0.07 +0.01    +0.052 C 
DOCKED: BRANCH  30  31
DOCKED: ATOM     31  C   UNL d   1      47.496  32.856  21.854 -0.09 +0.03    +0.115 C 
DOCKED: BRANCH  31  32
DOCKED: ATOM     32  C   UNL d   1      47.728  31.420  22.273 -0.09 +0.07    +0.139 C 
DOCKED: ATOM     33  O   UNL d   1      48.719  30.829  21.870 +0.00 -0.27    -0.650 OA
DOCKED: BRANCH  32  34
DOCKED: ATOM     34  O   UNL d   1      46.895  30.777  23.123 +0.12 -0.75    -0.776 OA
DOCKED: ATOM     35  H   UNL d   1      46.883  29.818  23.252 +0.02 +0.26    +0.167 HD
DOCKED: ENDBRANCH  32  34
DOCKED: ENDBRANCH  31  32
DOCKED: ENDBRANCH  30  31
DOCKED: ENDBRANCH   6  30
DOCKED: BRANCH  29  36
DOCKED: ATOM     36  C   UNL d   1      43.581  28.836  19.687 +0.11 +0.13    +0.190 C 
DOCKED: BRANCH  36  37
DOCKED: ATOM     37  O   UNL d   1      43.727  28.066  20.845 -0.37 -0.56    -0.399 OA
DOCKED: ATOM     38  H   UNL d   1      44.708  28.060  21.028 +0.05 +0.37    +0.209 HD
DOCKED: ENDBRANCH  36  37
DOCKED: ENDBRANCH  29  36
DOCKED: BRANCH  22  39
DOCKED: ATOM     39  C   UNL d   1      49.516  27.977  19.908 -0.02 +0.02    +0.052 C 
DOCKED: BRANCH  39  40
DOCKED: ATOM     40  C   UNL d   1      49.391  27.611  21.396 -0.02 +0.05    +0.115 C 
DOCKED: BRANCH  40  41
DOCKED: ATOM     41  C   UNL d   1      47.975  27.333  21.855 -0.06 +0.12    +0.139 C 
DOCKED: ATOM     42  O   UNL d   1      47.708  26.245  22.348 -0.04 -0.60    -0.650 OA
DOCKED: BRANCH  41  43
DOCKED: ATOM     43  O   UNL d   1      47.016  28.284  21.815 -0.49 -1.22    -0.776 OA
DOCKED: ATOM     44  H   UNL d   1      47.221  29.225  21.749 +0.01 +0.19    +0.167 HD
DOCKED: ENDBRANCH  41  43
DOCKED: ENDBRANCH  40  41
DOCKED: ENDBRANCH  39  40
DOCKED: ENDBRANCH  22  39
DOCKED: BRANCH  12  45
DOCKED: ATOM     45  C   UNL d   1      39.406  30.360  15.641 -0.27 +0.00    +0.004 C 
DOCKED: ATOM     46  C   UNL d   1      38.439  29.493  15.929 -0.44 +0.00    +0.012 C 
DOCKED: ENDBRANCH  12  45
DOCKED: BRANCH  17  47
DOCKED: ATOM     47  C   UNL d   1      43.538  23.839  16.854 -0.30 +0.00    +0.004 C 
DOCKED: ATOM     48  C   UNL d   1      42.699  22.967  17.418 -0.45 +0.00    +0.012 C 
DOCKED: ENDBRANCH  17  47
DOCKED: TORSDOF 12
DOCKED: TER
DOCKED: ENDMDL
________________________________________________________________________________


	BEGINNING GENETIC ALGORITHM DOCKING 61 of 100
Run: 61 Seed: 1380610447 1099730121 [ Run 61 of 100 GA/GALS ]
Beginning LAMARCKIAN GENETIC ALGORITHM (LGA), with a maximum of 25000000 energy evaluations.

Final-Value: -11.731


	FINAL GENETIC ALGORITHM DOCKED STATE
	_______________________________________________


Detailed state:  trans 42.998 16.644 15.752 quatxyzw -0.182316 0.582944 -0.653897 -0.446493 center 8.781 34.984 -0.736 ntor 12 -113.9699 108.8180 -155.3681 115.7567 141.8562 136.2431 60.3152 118.7896 -117.7599 110.2131 165.6227 180.0000
State:	 42.998  16.644  15.752  -0.204  0.651 -0.731 -126.962   -113.97  108.82 -155.37  115.76  141.86  136.24   60.32  118.79 -117.76  110.21  165.62  180.00

DOCKED: MODEL       61
DOCKED: USER    Run = 61
DOCKED: USER    DPF = D:/Protein_go_brrr/autodock/final/6BB5/heme_Co/dock.dpf
DOCKED: USER  
DOCKED: USER    Estimated Free Energy of Binding    =   -4.83 kcal/mol  [=(1)+(2)+(3)-(4)]
DOCKED: USER    Estimated Inhibition Constant, Ki   =  290.38 uM (micromolar)  [Temperature = 298.15 K]
DOCKED: USER    
DOCKED: USER    (1) Final Intermolecular Energy     =   -8.40 kcal/mol
DOCKED: USER        vdW + Hbond + desolv Energy     =   -6.54 kcal/mol
DOCKED: USER        Electrostatic Energy            =   -1.86 kcal/mol
DOCKED: USER    (2) Final Total Internal Energy     =   -3.33 kcal/mol
DOCKED: USER    (3) Torsional Free Energy           =   +3.58 kcal/mol
DOCKED: USER    (4) Unbound System's Energy  [=(2)] =   -3.33 kcal/mol
DOCKED: USER    
DOCKED: USER    
DOCKED: USER    NEWDPF move heme_Co_opt.pdbqt
DOCKED: USER    NEWDPF about 8.781000 34.984000 -0.736000
DOCKED: USER    NEWDPF tran0 42.998078 16.644458 15.752128
DOCKED: USER    NEWDPF quaternion0 -0.182316 0.582944 -0.653897 -0.446493
DOCKED: USER    NEWDPF axisangle0 -0.203754 0.651489 -0.730785 -126.962211
DOCKED: USER    NEWDPF quat0 -0.203754 0.651489 -0.730785 -126.962211
DOCKED: USER    NEWDPF dihe0 -113.97 108.82 -155.37 115.76 141.86 136.24 60.32 118.79 -117.76 110.21 165.62 180.00 
DOCKED: USER  keepresnum = 1 
DOCKED: USER  
DOCKED: REMARK  12 active torsions:
DOCKED: REMARK  status: ('A' for Active; 'I' for Inactive)
DOCKED: REMARK    1  A    between atoms: C_6  and  C_10 
DOCKED: REMARK    2  A    between atoms: C_10  and  C_11 
DOCKED: REMARK    3  A    between atoms: C_11  and  C_12 
DOCKED: REMARK    4  A    between atoms: C_12  and  O_14 
DOCKED: REMARK    5  A    between atoms: C_17  and  C_20 
DOCKED: REMARK    6  A    between atoms: C_24  and  C_27 
DOCKED: REMARK    7  A    between atoms: C_31  and  C_34 
DOCKED: REMARK    8  A    between atoms: C_34  and  C_35 
DOCKED: REMARK    9  A    between atoms: C_35  and  C_36 
DOCKED: REMARK   10  A    between atoms: C_36  and  O_38 
DOCKED: REMARK   11  A    between atoms: FE_43  and  C_44 
DOCKED: REMARK   12  A    between atoms: C_44  and  O_45 
DOCKED: USER                              x       y       z     vdW  Elec       q    Type
DOCKED: USER                           _______ _______ _______ _____ _____    ______ ____
DOCKED: ROOT
DOCKED: ATOM      1  C   UNL d   1      43.573  18.734  15.621 -0.24 +0.01    +0.064 A 
DOCKED: ATOM      2  C   UNL d   1      44.747  15.284  18.675 -0.21 +0.01    +0.064 C 
DOCKED: ATOM      3  C   UNL d   1      41.673  12.306  16.550 -0.08 +0.01    +0.064 A 
DOCKED: ATOM      4  C   UNL d   1      40.742  15.691  13.182 -0.15 -0.00    +0.064 A 
DOCKED: ATOM      5  C   UNL d   1      44.093  18.022  16.634 -0.21 +0.02    +0.066 A 
DOCKED: ATOM      6  C   UNL d   1      45.107  18.535  17.466 -0.14 -0.01    -0.021 A 
DOCKED: ATOM      7  C   UNL d   1      45.460  17.522  18.335 -0.17 -0.01    -0.025 A 
DOCKED: ATOM      8  C   UNL d   1      44.635  16.440  18.008 -0.22 +0.02    +0.066 A 
DOCKED: ATOM      9  C   UNL d   1      46.530  17.555  19.437 -0.15 +0.01    +0.051 C 
DOCKED: ATOM     10  C   UNL d   1      43.925  14.126  18.426 -0.17 +0.01    +0.066 A 
DOCKED: ATOM     11  C   UNL d   1      43.896  12.934  19.181 -0.12 -0.00    -0.021 A 
DOCKED: ATOM     12  C   UNL d   1      42.988  12.084  18.542 -0.10 +0.00    +0.000 A 
DOCKED: ATOM     13  C   UNL d   1      42.523  12.824  17.455 -0.10 +0.01    +0.070 A 
DOCKED: ATOM     14  C   UNL d   1      44.623  12.681  20.477 -0.08 +0.01    +0.052 C 
DOCKED: ATOM     15  C   UNL d   1      41.134  12.906  15.345 -0.09 +0.01    +0.066 A 
DOCKED: ATOM     16  C   UNL d   1      40.375  12.267  14.376 -0.08 -0.00    -0.021 A 
DOCKED: ATOM     17  C   UNL d   1      40.106  13.238  13.401 -0.11 +0.00    +0.000 A 
DOCKED: ATOM     18  C   UNL d   1      40.710  14.403  13.863 -0.16 +0.01    +0.070 A 
DOCKED: ATOM     19  C   UNL d   1      39.952  10.815  14.410 -0.04 +0.00    +0.052 C 
DOCKED: ATOM     20  C   UNL d   1      41.396  16.812  13.570 -0.25 +0.00    +0.066 A 
DOCKED: ATOM     21  C   UNL d   1      41.381  17.981  12.811 -0.33 -0.00    -0.025 A 
DOCKED: ATOM     22  C   UNL d   1      42.165  18.885  13.504 -0.34 -0.00    -0.021 A 
DOCKED: ATOM     23  C   UNL d   1      42.633  18.214  14.654 -0.27 +0.01    +0.066 A 
DOCKED: ATOM     24  C   UNL d   1      40.672  18.219  11.481 -0.37 +0.00    +0.051 C 
DOCKED: ATOM     25  N   UNL d   1      43.774  16.723  16.961 -0.17 -0.07    -0.248 N 
DOCKED: ATOM     26  N   UNL d   1      43.047  14.078  17.418 -0.05 -0.05    -0.248 N 
DOCKED: ATOM     27  N   UNL d   1      41.338  14.160  15.009 +0.05 -0.04    -0.248 N 
DOCKED: ATOM     28  N   UNL d   1      42.171  16.958  14.697 -0.16 -0.04    -0.248 N 
DOCKED: ATOM     29 FE   UNL d   1      42.483  15.368  15.925 -0.05 +0.00    +0.000 Fe
DOCKED: ENDROOT
DOCKED: BRANCH   6  30
DOCKED: ATOM     30  C   UNL d   1      45.756  19.911  17.365 -0.18 +0.02    +0.052 C 
DOCKED: BRANCH  30  31
DOCKED: ATOM     31  C   UNL d   1      47.202  19.789  16.886 -0.11 +0.10    +0.115 C 
DOCKED: BRANCH  31  32
DOCKED: ATOM     32  C   UNL d   1      47.306  19.148  15.519 -0.10 +0.14    +0.139 C 
DOCKED: ATOM     33  O   UNL d   1      47.037  17.962  15.390 +0.04 -0.38    -0.650 OA
DOCKED: BRANCH  32  34
DOCKED: ATOM     34  O   UNL d   1      47.642  19.857  14.417 -0.36 -1.34    -0.776 OA
DOCKED: ATOM     35  H   UNL d   1      47.067  19.970  13.647 +0.04 +0.19    +0.167 HD
DOCKED: ENDBRANCH  32  34
DOCKED: ENDBRANCH  31  32
DOCKED: ENDBRANCH  30  31
DOCKED: ENDBRANCH   6  30
DOCKED: BRANCH  29  36
DOCKED: ATOM     36  C   UNL d   1      44.162  14.803  14.804 -0.05 +0.04    +0.190 C 
DOCKED: BRANCH  36  37
DOCKED: ATOM     37  O   UNL d   1      45.449  15.213  14.440 +0.00 -0.09    -0.399 OA
DOCKED: ATOM     38  H   UNL d   1      45.548  16.124  14.835 +0.03 +0.06    +0.209 HD
DOCKED: ENDBRANCH  36  37
DOCKED: ENDBRANCH  29  36
DOCKED: BRANCH  22  39
DOCKED: ATOM     39  C   UNL d   1      42.497  20.293  13.047 -0.47 +0.01    +0.052 C 
DOCKED: BRANCH  39  40
DOCKED: ATOM     40  C   UNL d   1      43.604  20.272  11.981 -0.27 +0.03    +0.115 C 
DOCKED: BRANCH  40  41
DOCKED: ATOM     41  C   UNL d   1      44.992  20.009  12.526 -0.29 +0.06    +0.139 C 
DOCKED: ATOM     42  O   UNL d   1      45.774  20.941  12.646 -0.02 -0.38    -0.650 OA
DOCKED: BRANCH  41  43
DOCKED: ATOM     43  O   UNL d   1      45.362  18.786  12.967 +0.09 -0.36    -0.776 OA
DOCKED: ATOM     44  H   UNL d   1      46.005  18.662  13.677 +0.05 +0.09    +0.167 HD
DOCKED: ENDBRANCH  41  43
DOCKED: ENDBRANCH  40  41
DOCKED: ENDBRANCH  39  40
DOCKED: ENDBRANCH  22  39
DOCKED: BRANCH  12  45
DOCKED: ATOM     45  C   UNL d   1      42.497  10.675  18.842 -0.05 +0.00    +0.004 C 
DOCKED: ATOM     46  C   UNL d   1      41.325  10.247  19.305 -0.05 +0.00    +0.012 C 
DOCKED: ENDBRANCH  12  45
DOCKED: BRANCH  17  47
DOCKED: ATOM     47  C   UNL d   1      39.385  13.110  12.099 -0.08 +0.00    +0.004 C 
DOCKED: ATOM     48  C   UNL d   1      38.287  13.804  11.793 -0.17 +0.00    +0.012 C 
DOCKED: ENDBRANCH  17  47
DOCKED: TORSDOF 12
DOCKED: TER
DOCKED: ENDMDL
________________________________________________________________________________


	BEGINNING GENETIC ALGORITHM DOCKING 62 of 100
Run: 62 Seed: 1773234657 1497837933 [ Run 62 of 100 GA/GALS ]
Beginning LAMARCKIAN GENETIC ALGORITHM (LGA), with a maximum of 25000000 energy evaluations.

Final-Value: -10.781


	FINAL GENETIC ALGORITHM DOCKED STATE
	_______________________________________________


Detailed state:  trans 19.354 44.529 -8.234 quatxyzw 0.530432 0.536951 0.231768 0.613684 center 8.781 34.984 -0.736 ntor 12 58.0264 127.0511 134.5799 -17.1701 141.9629 87.4805 141.4110 -35.0676 63.4010 -147.4255 23.7415 151.4909
State:	 19.354  44.529  -8.234   0.672  0.680  0.294 104.287     58.03  127.05  134.58  -17.17  141.96   87.48  141.41  -35.07   63.40 -147.43   23.74  151.49

DOCKED: MODEL       62
DOCKED: USER    Run = 62
DOCKED: USER    DPF = D:/Protein_go_brrr/autodock/final/6BB5/heme_Co/dock.dpf
DOCKED: USER  
DOCKED: USER    Estimated Free Energy of Binding    =   -5.04 kcal/mol  [=(1)+(2)+(3)-(4)]
DOCKED: USER    Estimated Inhibition Constant, Ki   =  201.56 uM (micromolar)  [Temperature = 298.15 K]
DOCKED: USER    
DOCKED: USER    (1) Final Intermolecular Energy     =   -8.62 kcal/mol
DOCKED: USER        vdW + Hbond + desolv Energy     =   -7.46 kcal/mol
DOCKED: USER        Electrostatic Energy            =   -1.16 kcal/mol
DOCKED: USER    (2) Final Total Internal Energy     =   -2.16 kcal/mol
DOCKED: USER    (3) Torsional Free Energy           =   +3.58 kcal/mol
DOCKED: USER    (4) Unbound System's Energy  [=(2)] =   -2.16 kcal/mol
DOCKED: USER    
DOCKED: USER    
DOCKED: USER    NEWDPF move heme_Co_opt.pdbqt
DOCKED: USER    NEWDPF about 8.781000 34.984000 -0.736000
DOCKED: USER    NEWDPF tran0 19.354172 44.529230 -8.233687
DOCKED: USER    NEWDPF quaternion0 0.530432 0.536951 0.231768 0.613684
DOCKED: USER    NEWDPF axisangle0 0.671815 0.680071 0.293544 104.287233
DOCKED: USER    NEWDPF quat0 0.671815 0.680071 0.293544 104.287233
DOCKED: USER    NEWDPF dihe0 58.03 127.05 134.58 -17.17 141.96 87.48 141.41 -35.07 63.40 -147.43 23.74 151.49 
DOCKED: USER  keepresnum = 1 
DOCKED: USER  
DOCKED: REMARK  12 active torsions:
DOCKED: REMARK  status: ('A' for Active; 'I' for Inactive)
DOCKED: REMARK    1  A    between atoms: C_6  and  C_10 
DOCKED: REMARK    2  A    between atoms: C_10  and  C_11 
DOCKED: REMARK    3  A    between atoms: C_11  and  C_12 
DOCKED: REMARK    4  A    between atoms: C_12  and  O_14 
DOCKED: REMARK    5  A    between atoms: C_17  and  C_20 
DOCKED: REMARK    6  A    between atoms: C_24  and  C_27 
DOCKED: REMARK    7  A    between atoms: C_31  and  C_34 
DOCKED: REMARK    8  A    between atoms: C_34  and  C_35 
DOCKED: REMARK    9  A    between atoms: C_35  and  C_36 
DOCKED: REMARK   10  A    between atoms: C_36  and  O_38 
DOCKED: REMARK   11  A    between atoms: FE_43  and  C_44 
DOCKED: REMARK   12  A    between atoms: C_44  and  O_45 
DOCKED: USER                              x       y       z     vdW  Elec       q    Type
DOCKED: USER                           _______ _______ _______ _____ _____    ______ ____
DOCKED: ROOT
DOCKED: ATOM      1  C   UNL d   1      19.520  43.377 -10.067 -0.06 +0.02    +0.064 A 
DOCKED: ATOM      2  C   UNL d   1      16.103  46.220  -8.378 -0.23 -0.01    +0.064 C 
DOCKED: ATOM      3  C   UNL d   1      18.515  46.753  -4.288 -0.16 -0.01    +0.064 A 
DOCKED: ATOM      4  C   UNL d   1      22.196  44.166  -6.138 -0.17 +0.01    +0.064 A 
DOCKED: ATOM      5  C   UNL d   1      18.392  44.085  -9.892 -0.12 +0.01    +0.066 A 
DOCKED: ATOM      6  C   UNL d   1      17.438  44.236 -10.917 -0.14 -0.00    -0.021 A 
DOCKED: ATOM      7  C   UNL d   1      16.460  45.081 -10.429 -0.15 +0.00    -0.025 A 
DOCKED: ATOM      8  C   UNL d   1      16.850  45.395  -9.123 -0.19 -0.00    +0.066 A 
DOCKED: ATOM      9  C   UNL d   1      15.201  45.582 -11.153 -0.14 -0.01    +0.051 C 
DOCKED: ATOM     10  C   UNL d   1      16.411  46.580  -7.017 -0.25 -0.01    +0.066 A 
DOCKED: ATOM     11  C   UNL d   1      15.597  47.326  -6.137 -0.30 +0.00    -0.021 A 
DOCKED: ATOM     12  C   UNL d   1      16.323  47.463  -4.950 -0.33 -0.00    +0.000 A 
DOCKED: ATOM     13  C   UNL d   1      17.517  46.782  -5.189 -0.27 -0.01    +0.070 A 
DOCKED: ATOM     14  C   UNL d   1      14.185  47.784  -6.399 -0.11 -0.01    +0.052 C 
DOCKED: ATOM     15  C   UNL d   1      19.827  46.145  -4.389 -0.29 -0.01    +0.066 A 
DOCKED: ATOM     16  C   UNL d   1      20.867  46.275  -3.479 -0.28 +0.00    -0.021 A 
DOCKED: ATOM     17  C   UNL d   1      21.932  45.533  -4.010 -0.28 -0.00    +0.000 A 
DOCKED: ATOM     18  C   UNL d   1      21.450  44.993  -5.197 -0.23 +0.00    +0.070 A 
DOCKED: ATOM     19  C   UNL d   1      20.812  47.069  -2.193 -0.22 -0.01    +0.052 C 
DOCKED: ATOM     20  C   UNL d   1      21.778  43.701  -7.339 -0.13 +0.01    +0.066 A 
DOCKED: ATOM     21  C   UNL d   1      22.600  42.945  -8.172 -0.08 -0.00    -0.025 A 
DOCKED: ATOM     22  C   UNL d   1      21.845  42.679  -9.299 -0.09 -0.00    -0.021 A 
DOCKED: ATOM     23  C   UNL d   1      20.594  43.300  -9.103 -0.11 +0.02    +0.066 A 
DOCKED: ATOM     24  C   UNL d   1      24.042  42.515  -7.915 -0.06 +0.01    +0.051 C 
DOCKED: ATOM     25  N   UNL d   1      18.041  44.788  -8.762 -0.13 -0.02    -0.248 N 
DOCKED: ATOM     26  N   UNL d   1      17.545  46.201  -6.418 -0.17 +0.02    -0.248 N 
DOCKED: ATOM     27  N   UNL d   1      20.204  45.403  -5.406 -0.16 +0.01    -0.248 N 
DOCKED: ATOM     28  N   UNL d   1      20.550  43.922  -7.918 -0.11 -0.04    -0.248 N 
DOCKED: ATOM     29 FE   UNL d   1      19.189  45.111  -6.986 -0.05 +0.00    +0.000 Fe
DOCKED: ENDROOT
DOCKED: BRANCH   6  30
DOCKED: ATOM     30  C   UNL d   1      17.517  43.656 -12.325 -0.10 +0.01    +0.052 C 
DOCKED: BRANCH  30  31
DOCKED: ATOM     31  C   UNL d   1      16.516  42.514 -12.492 -0.13 +0.02    +0.115 C 
DOCKED: BRANCH  31  32
DOCKED: ATOM     32  C   UNL d   1      17.191  41.196 -12.808 -0.00 +0.10    +0.139 C 
DOCKED: ATOM     33  O   UNL d   1      18.403  41.098 -12.688 -0.54 -0.65    -0.650 OA
DOCKED: BRANCH  32  34
DOCKED: ATOM     34  O   UNL d   1      16.488  40.100 -13.178 -0.20 -0.62    -0.776 OA
DOCKED: ATOM     35  H   UNL d   1      15.856  40.080 -13.910 +0.01 +0.06    +0.167 HD
DOCKED: ENDBRANCH  32  34
DOCKED: ENDBRANCH  31  32
DOCKED: ENDBRANCH  30  31
DOCKED: ENDBRANCH   6  30
DOCKED: BRANCH  29  36
DOCKED: ATOM     36  C   UNL d   1      19.979  46.803  -7.939 -0.03 +0.00    +0.190 C 
DOCKED: BRANCH  36  37
DOCKED: ATOM     37  O   UNL d   1      20.793  47.204  -9.003 +0.00 -0.01    -0.399 OA
DOCKED: ATOM     38  H   UNL d   1      20.893  46.389  -9.571 +0.01 +0.01    +0.209 HD
DOCKED: ENDBRANCH  36  37
DOCKED: ENDBRANCH  29  36
DOCKED: BRANCH  22  39
DOCKED: ATOM     39  C   UNL d   1      22.329  41.924 -10.523 -0.07 +0.01    +0.052 C 
DOCKED: BRANCH  39  40
DOCKED: ATOM     40  C   UNL d   1      22.550  42.885 -11.703 -0.02 +0.02    +0.115 C 
DOCKED: BRANCH  40  41
DOCKED: ATOM     41  C   UNL d   1      22.880  44.306 -11.297 -0.01 +0.01    +0.139 C 
DOCKED: ATOM     42  O   UNL d   1      24.037  44.696 -11.370 +0.00 -0.04    -0.650 OA
DOCKED: BRANCH  41  43
DOCKED: ATOM     43  O   UNL d   1      21.917  45.184 -10.937 +0.02 -0.06    -0.776 OA
DOCKED: ATOM     44  H   UNL d   1      22.034  45.816 -10.215 +0.01 +0.01    +0.167 HD
DOCKED: ENDBRANCH  41  43
DOCKED: ENDBRANCH  40  41
DOCKED: ENDBRANCH  39  40
DOCKED: ENDBRANCH  22  39
DOCKED: BRANCH  12  45
DOCKED: ATOM     45  C   UNL d   1      16.020  48.139  -3.620 -0.37 -0.00    +0.004 C 
DOCKED: ATOM     46  C   UNL d   1      15.206  49.150  -3.328 -0.42 -0.00    +0.012 C 
DOCKED: ENDBRANCH  12  45
DOCKED: BRANCH  17  47
DOCKED: ATOM     47  C   UNL d   1      23.324  45.363  -3.497 -0.28 +0.00    +0.004 C 
DOCKED: ATOM     48  C   UNL d   1      23.852  44.179  -3.177 -0.35 +0.00    +0.012 C 
DOCKED: ENDBRANCH  17  47
DOCKED: TORSDOF 12
DOCKED: TER
DOCKED: ENDMDL
________________________________________________________________________________


	BEGINNING GENETIC ALGORITHM DOCKING 63 of 100
Run: 63 Seed: 106630839 78408778 [ Run 63 of 100 GA/GALS ]
Beginning LAMARCKIAN GENETIC ALGORITHM (LGA), with a maximum of 25000000 energy evaluations.

Final-Value: -10.502


	FINAL GENETIC ALGORITHM DOCKED STATE
	_______________________________________________


Detailed state:  trans 21.116 46.497 -3.823 quatxyzw -0.448690 -0.870160 0.015540 -0.203120 center 8.781 34.984 -0.736 ntor 12 178.3508 106.4445 105.4278 111.0298 -83.8625 104.8406 -124.0136 -53.3424 -89.9702 118.2020 -180.0000 -162.6333
State:	 21.116  46.497  -3.823  -0.458 -0.889  0.016 -156.561    178.35  106.44  105.43  111.03  -83.86  104.84 -124.01  -53.34  -89.97  118.20 -180.00 -162.63

DOCKED: MODEL       63
DOCKED: USER    Run = 63
DOCKED: USER    DPF = D:/Protein_go_brrr/autodock/final/6BB5/heme_Co/dock.dpf
DOCKED: USER  
DOCKED: USER    Estimated Free Energy of Binding    =   -3.95 kcal/mol  [=(1)+(2)+(3)-(4)]
DOCKED: USER    Estimated Inhibition Constant, Ki   =    1.28 mM (millimolar)  [Temperature = 298.15 K]
DOCKED: USER    
DOCKED: USER    (1) Final Intermolecular Energy     =   -7.53 kcal/mol
DOCKED: USER        vdW + Hbond + desolv Energy     =   -7.51 kcal/mol
DOCKED: USER        Electrostatic Energy            =   -0.02 kcal/mol
DOCKED: USER    (2) Final Total Internal Energy     =   -2.98 kcal/mol
DOCKED: USER    (3) Torsional Free Energy           =   +3.58 kcal/mol
DOCKED: USER    (4) Unbound System's Energy  [=(2)] =   -2.98 kcal/mol
DOCKED: USER    
DOCKED: USER    
DOCKED: USER    NEWDPF move heme_Co_opt.pdbqt
DOCKED: USER    NEWDPF about 8.781000 34.984000 -0.736000
DOCKED: USER    NEWDPF tran0 21.115516 46.496710 -3.823343
DOCKED: USER    NEWDPF quaternion0 -0.448690 -0.870160 0.015540 -0.203120
DOCKED: USER    NEWDPF axisangle0 -0.458242 -0.888686 0.015871 -156.561074
DOCKED: USER    NEWDPF quat0 -0.458242 -0.888686 0.015871 -156.561074
DOCKED: USER    NEWDPF dihe0 178.35 106.44 105.43 111.03 -83.86 104.84 -124.01 -53.34 -89.97 118.20 -180.00 -162.63 
DOCKED: USER  keepresnum = 1 
DOCKED: USER  
DOCKED: REMARK  12 active torsions:
DOCKED: REMARK  status: ('A' for Active; 'I' for Inactive)
DOCKED: REMARK    1  A    between atoms: C_6  and  C_10 
DOCKED: REMARK    2  A    between atoms: C_10  and  C_11 
DOCKED: REMARK    3  A    between atoms: C_11  and  C_12 
DOCKED: REMARK    4  A    between atoms: C_12  and  O_14 
DOCKED: REMARK    5  A    between atoms: C_17  and  C_20 
DOCKED: REMARK    6  A    between atoms: C_24  and  C_27 
DOCKED: REMARK    7  A    between atoms: C_31  and  C_34 
DOCKED: REMARK    8  A    between atoms: C_34  and  C_35 
DOCKED: REMARK    9  A    between atoms: C_35  and  C_36 
DOCKED: REMARK   10  A    between atoms: C_36  and  O_38 
DOCKED: REMARK   11  A    between atoms: FE_43  and  C_44 
DOCKED: REMARK   12  A    between atoms: C_44  and  O_45 
DOCKED: USER                              x       y       z     vdW  Elec       q    Type
DOCKED: USER                           _______ _______ _______ _____ _____    ______ ____
DOCKED: ROOT
DOCKED: ATOM      1  C   UNL d   1      22.811  45.139  -3.805 -0.25 +0.00    +0.064 A 
DOCKED: ATOM      2  C   UNL d   1      18.730  45.123  -6.246 -0.33 +0.00    +0.064 C 
DOCKED: ATOM      3  C   UNL d   1      17.211  48.939  -3.806 -0.19 -0.02    +0.064 A 
DOCKED: ATOM      4  C   UNL d   1      21.524  49.211  -1.572 -0.13 -0.01    +0.064 A 
DOCKED: ATOM      5  C   UNL d   1      21.792  44.833  -4.626 -0.25 +0.00    +0.066 A 
DOCKED: ATOM      6  C   UNL d   1      21.882  43.793  -5.572 -0.25 -0.00    -0.021 A 
DOCKED: ATOM      7  C   UNL d   1      20.704  43.807  -6.293 -0.31 -0.00    -0.025 A 
DOCKED: ATOM      8  C   UNL d   1      19.940  44.843  -5.746 -0.31 +0.00    +0.066 A 
DOCKED: ATOM      9  C   UNL d   1      20.299  42.888  -7.455 -0.14 +0.01    +0.051 C 
DOCKED: ATOM     10  C   UNL d   1      17.861  46.152  -5.732 -0.29 -0.01    +0.066 A 
DOCKED: ATOM     11  C   UNL d   1      16.527  46.402  -6.120 -0.33 +0.00    -0.021 A 
DOCKED: ATOM     12  C   UNL d   1      16.107  47.517  -5.390 -0.30 -0.00    +0.000 A 
DOCKED: ATOM     13  C   UNL d   1      17.209  47.857  -4.603 -0.22 -0.01    +0.070 A 
DOCKED: ATOM     14  C   UNL d   1      15.697  45.560  -7.055 -0.37 -0.01    +0.052 C 
DOCKED: ATOM     15  C   UNL d   1      18.273  49.464  -2.970 -0.09 -0.02    +0.066 A 
DOCKED: ATOM     16  C   UNL d   1      18.260  50.669  -2.282 -0.28 +0.01    -0.021 A 
DOCKED: ATOM     17  C   UNL d   1      19.503  50.753  -1.639 -0.26 -0.00    +0.000 A 
DOCKED: ATOM     18  C   UNL d   1      20.172  49.580  -1.972 -0.17 -0.02    +0.070 A 
DOCKED: ATOM     19  C   UNL d   1      17.114  51.656  -2.265 -0.21 -0.01    +0.052 C 
DOCKED: ATOM     20  C   UNL d   1      22.227  48.118  -1.954 -0.15 -0.00    +0.066 A 
DOCKED: ATOM     21  C   UNL d   1      23.534  47.890  -1.530 -0.11 -0.00    -0.025 A 
DOCKED: ATOM     22  C   UNL d   1      23.921  46.708  -2.135 -0.11 -0.00    -0.021 A 
DOCKED: ATOM     23  C   UNL d   1      22.826  46.277  -2.914 -0.17 +0.00    +0.066 A 
DOCKED: ATOM     24  C   UNL d   1      24.381  48.765  -0.611 -0.07 +0.00    +0.051 C 
DOCKED: ATOM     25  N   UNL d   1      20.587  45.492  -4.707 -0.19 +0.02    -0.248 N 
DOCKED: ATOM     26  N   UNL d   1      18.249  46.997  -4.770 -0.17 +0.04    -0.248 N 
DOCKED: ATOM     27  N   UNL d   1      19.422  48.851  -2.791 -0.05 +0.08    -0.248 N 
DOCKED: ATOM     28  N   UNL d   1      21.799  47.128  -2.808 -0.15 +0.01    -0.248 N 
DOCKED: ATOM     29 FE   UNL d   1      19.973  47.271  -3.690 -0.05 -0.00    +0.000 Fe
DOCKED: ENDROOT
DOCKED: BRANCH   6  30
DOCKED: ATOM     30  C   UNL d   1      23.085  42.887  -5.817 -0.18 +0.01    +0.052 C 
DOCKED: BRANCH  30  31
DOCKED: ATOM     31  C   UNL d   1      23.934  43.422  -6.969 -0.07 +0.01    +0.115 C 
DOCKED: BRANCH  31  32
DOCKED: ATOM     32  C   UNL d   1      24.979  44.413  -6.505 -0.03 +0.01    +0.139 C 
DOCKED: ATOM     33  O   UNL d   1      26.153  44.077  -6.468 +0.02 -0.04    -0.650 OA
DOCKED: BRANCH  32  34
DOCKED: ATOM     34  O   UNL d   1      24.662  45.686  -6.171 +0.03 -0.04    -0.776 OA
DOCKED: ATOM     35  H   UNL d   1      25.287  46.321  -5.795 +0.01 +0.01    +0.167 HD
DOCKED: ENDBRANCH  32  34
DOCKED: ENDBRANCH  31  32
DOCKED: ENDBRANCH  30  31
DOCKED: ENDBRANCH   6  30
DOCKED: BRANCH  29  36
DOCKED: ATOM     36  C   UNL d   1      20.803  48.339  -5.292 -0.03 -0.01    +0.190 C 
DOCKED: BRANCH  36  37
DOCKED: ATOM     37  O   UNL d   1      21.958  48.458  -6.071 +0.00 +0.00    -0.399 OA
DOCKED: ATOM     38  H   UNL d   1      22.626  47.858  -5.635 +0.02 +0.00    +0.209 HD
DOCKED: ENDBRANCH  36  37
DOCKED: ENDBRANCH  29  36
DOCKED: BRANCH  22  39
DOCKED: ATOM     39  C   UNL d   1      25.292  46.069  -2.020 -0.11 +0.01    +0.052 C 
DOCKED: BRANCH  39  40
DOCKED: ATOM     40  C   UNL d   1      26.377  47.005  -2.578 -0.04 +0.01    +0.115 C 
DOCKED: BRANCH  40  41
DOCKED: ATOM     41  C   UNL d   1      26.301  47.227  -4.074 -0.02 +0.01    +0.139 C 
DOCKED: ATOM     42  O   UNL d   1      25.554  48.090  -4.514 +0.01 -0.03    -0.650 OA
DOCKED: BRANCH  41  43
DOCKED: ATOM     43  O   UNL d   1      27.101  46.557  -4.933 +0.01 -0.05    -0.776 OA
DOCKED: ATOM     44  H   UNL d   1      26.762  45.897  -5.551 +0.01 +0.01    +0.167 HD
DOCKED: ENDBRANCH  41  43
DOCKED: ENDBRANCH  40  41
DOCKED: ENDBRANCH  39  40
DOCKED: ENDBRANCH  22  39
DOCKED: BRANCH  12  45
DOCKED: ATOM     45  C   UNL d   1      14.794  48.286  -5.331 -0.36 -0.00    +0.004 C 
DOCKED: ATOM     46  C   UNL d   1      13.819  48.267  -4.426 -0.52 -0.00    +0.012 C 
DOCKED: ENDBRANCH  12  45
DOCKED: BRANCH  17  47
DOCKED: ATOM     47  C   UNL d   1      20.074  51.855  -0.809 -0.20 -0.00    +0.004 C 
DOCKED: ATOM     48  C   UNL d   1      21.028  52.685  -1.240 -0.14 -0.00    +0.012 C 
DOCKED: ENDBRANCH  17  47
DOCKED: TORSDOF 12
DOCKED: TER
DOCKED: ENDMDL
________________________________________________________________________________


	BEGINNING GENETIC ALGORITHM DOCKING 64 of 100
Run: 64 Seed: 219402257 142537672 [ Run 64 of 100 GA/GALS ]
Beginning LAMARCKIAN GENETIC ALGORITHM (LGA), with a maximum of 25000000 energy evaluations.

Final-Value: -10.214


	FINAL GENETIC ALGORITHM DOCKED STATE
	_______________________________________________


Detailed state:  trans 34.930 49.747 24.541 quatxyzw 0.234213 0.423526 0.556939 0.674974 center 8.781 34.984 -0.736 ntor 12 44.2462 90.6649 -177.0050 116.5533 142.5919 132.9911 -160.0460 -114.3582 -26.8781 89.1719 168.7862 169.7154
State:	 34.930  49.747  24.541   0.317  0.574  0.755 95.096     44.25   90.66 -177.00  116.55  142.59  132.99 -160.05 -114.36  -26.88   89.17  168.79  169.72

DOCKED: MODEL       64
DOCKED: USER    Run = 64
DOCKED: USER    DPF = D:/Protein_go_brrr/autodock/final/6BB5/heme_Co/dock.dpf
DOCKED: USER  
DOCKED: USER    Estimated Free Energy of Binding    =   -4.51 kcal/mol  [=(1)+(2)+(3)-(4)]
DOCKED: USER    Estimated Inhibition Constant, Ki   =  493.25 uM (micromolar)  [Temperature = 298.15 K]
DOCKED: USER    
DOCKED: USER    (1) Final Intermolecular Energy     =   -8.09 kcal/mol
DOCKED: USER        vdW + Hbond + desolv Energy     =   -5.04 kcal/mol
DOCKED: USER        Electrostatic Energy            =   -3.05 kcal/mol
DOCKED: USER    (2) Final Total Internal Energy     =   -2.12 kcal/mol
DOCKED: USER    (3) Torsional Free Energy           =   +3.58 kcal/mol
DOCKED: USER    (4) Unbound System's Energy  [=(2)] =   -2.12 kcal/mol
DOCKED: USER    
DOCKED: USER    
DOCKED: USER    NEWDPF move heme_Co_opt.pdbqt
DOCKED: USER    NEWDPF about 8.781000 34.984000 -0.736000
DOCKED: USER    NEWDPF tran0 34.930182 49.747200 24.541486
DOCKED: USER    NEWDPF quaternion0 0.234213 0.423526 0.556939 0.674974
DOCKED: USER    NEWDPF axisangle0 0.317430 0.574006 0.754821 95.095795
DOCKED: USER    NEWDPF quat0 0.317430 0.574006 0.754821 95.095795
DOCKED: USER    NEWDPF dihe0 44.25 90.66 -177.00 116.55 142.59 132.99 -160.05 -114.36 -26.88 89.17 168.79 169.72 
DOCKED: USER  keepresnum = 1 
DOCKED: USER  
DOCKED: REMARK  12 active torsions:
DOCKED: REMARK  status: ('A' for Active; 'I' for Inactive)
DOCKED: REMARK    1  A    between atoms: C_6  and  C_10 
DOCKED: REMARK    2  A    between atoms: C_10  and  C_11 
DOCKED: REMARK    3  A    between atoms: C_11  and  C_12 
DOCKED: REMARK    4  A    between atoms: C_12  and  O_14 
DOCKED: REMARK    5  A    between atoms: C_17  and  C_20 
DOCKED: REMARK    6  A    between atoms: C_24  and  C_27 
DOCKED: REMARK    7  A    between atoms: C_31  and  C_34 
DOCKED: REMARK    8  A    between atoms: C_34  and  C_35 
DOCKED: REMARK    9  A    between atoms: C_35  and  C_36 
DOCKED: REMARK   10  A    between atoms: C_36  and  O_38 
DOCKED: REMARK   11  A    between atoms: FE_43  and  C_44 
DOCKED: REMARK   12  A    between atoms: C_44  and  O_45 
DOCKED: USER                              x       y       z     vdW  Elec       q    Type
DOCKED: USER                           _______ _______ _______ _____ _____    ______ ____
DOCKED: ROOT
DOCKED: ATOM      1  C   UNL d   1      35.628  50.283  22.556 -0.16 +0.03    +0.064 A 
DOCKED: ATOM      2  C   UNL d   1      31.966  51.811  25.176 -0.18 +0.02    +0.064 C 
DOCKED: ATOM      3  C   UNL d   1      32.962  48.560  28.533 -0.14 -0.00    +0.064 A 
DOCKED: ATOM      4  C   UNL d   1      36.936  47.241  26.057 -0.12 +0.00    +0.064 A 
DOCKED: ATOM      5  C   UNL d   1      34.533  50.915  23.009 -0.07 +0.02    +0.066 A 
DOCKED: ATOM      6  C   UNL d   1      33.963  52.006  22.324 -0.19 -0.01    -0.021 A 
DOCKED: ATOM      7  C   UNL d   1      32.915  52.460  23.100 -0.14 -0.01    -0.025 A 
DOCKED: ATOM      8  C   UNL d   1      32.879  51.617  24.216 -0.16 +0.02    +0.066 A 
DOCKED: ATOM      9  C   UNL d   1      31.974  53.642  22.816 -0.08 +0.01    +0.051 C 
DOCKED: ATOM     10  C   UNL d   1      31.836  50.979  26.346 -0.18 +0.01    +0.066 A 
DOCKED: ATOM     11  C   UNL d   1      30.813  51.044  27.318 -0.14 -0.00    -0.021 A 
DOCKED: ATOM     12  C   UNL d   1      31.126  50.082  28.283 -0.14 +0.00    +0.000 A 
DOCKED: ATOM     13  C   UNL d   1      32.306  49.496  27.823 -0.15 +0.00    +0.070 A 
DOCKED: ATOM     14  C   UNL d   1      29.579  51.907  27.258 -0.06 +0.02    +0.052 C 
DOCKED: ATOM     15  C   UNL d   1      34.212  47.889  28.236 -0.16 +0.00    +0.066 A 
DOCKED: ATOM     16  C   UNL d   1      34.910  47.038  29.080 -0.12 -0.00    -0.021 A 
DOCKED: ATOM     17  C   UNL d   1      36.059  46.657  28.372 -0.13 +0.00    +0.000 A 
DOCKED: ATOM     18  C   UNL d   1      35.961  47.295  27.139 -0.14 +0.01    +0.070 A 
DOCKED: ATOM     19  C   UNL d   1      34.479  46.636  30.473 -0.16 +0.01    +0.052 C 
DOCKED: ATOM     20  C   UNL d   1      36.905  47.920  24.885 -0.12 +0.01    +0.066 A 
DOCKED: ATOM     21  C   UNL d   1      37.920  47.813  23.937 -0.09 -0.00    -0.025 A 
DOCKED: ATOM     22  C   UNL d   1      37.556  48.657  22.904 -0.13 -0.01    -0.021 A 
DOCKED: ATOM     23  C   UNL d   1      36.333  49.251  23.282 -0.13 +0.02    +0.066 A 
DOCKED: ATOM     24  C   UNL d   1      39.186  46.963  24.019 -0.08 +0.00    +0.051 C 
DOCKED: ATOM     25  N   UNL d   1      33.866  50.647  24.183 -0.00 -0.07    -0.248 N 
DOCKED: ATOM     26  N   UNL d   1      32.703  50.000  26.625 -0.12 -0.01    -0.248 N 
DOCKED: ATOM     27  N   UNL d   1      34.865  48.044  27.105 -0.12 +0.00    -0.248 N 
DOCKED: ATOM     28  N   UNL d   1      35.937  48.809  24.481 -0.10 -0.04    -0.248 N 
DOCKED: ATOM     29 FE   UNL d   1      34.398  49.267  25.728 -0.05 +0.00    +0.000 Fe
DOCKED: ENDROOT
DOCKED: BRANCH   6  30
DOCKED: ATOM     30  C   UNL d   1      34.465  52.627  21.024 -0.25 +0.03    +0.052 C 
DOCKED: BRANCH  30  31
DOCKED: ATOM     31  C   UNL d   1      35.120  53.981  21.293 -0.09 +0.07    +0.115 C 
DOCKED: BRANCH  31  32
DOCKED: ATOM     32  C   UNL d   1      36.196  54.313  20.282 +0.05 +0.18    +0.139 C 
DOCKED: ATOM     33  O   UNL d   1      35.878  54.581  19.133 -0.21 -0.83    -0.650 OA
DOCKED: BRANCH  32  34
DOCKED: ATOM     34  O   UNL d   1      37.505  54.371  20.619 +0.11 -1.17    -0.776 OA
DOCKED: ATOM     35  H   UNL d   1      37.939  53.752  21.222 +0.00 +0.24    +0.167 HD
DOCKED: ENDBRANCH  32  34
DOCKED: ENDBRANCH  31  32
DOCKED: ENDBRANCH  30  31
DOCKED: ENDBRANCH   6  30
DOCKED: BRANCH  29  36
DOCKED: ATOM     36  C   UNL d   1      35.517  50.823  26.577 -0.03 +0.02    +0.190 C 
DOCKED: BRANCH  36  37
DOCKED: ATOM     37  O   UNL d   1      36.145  52.036  26.277 +0.00 -0.06    -0.399 OA
DOCKED: ATOM     38  H   UNL d   1      36.312  52.002  25.294 +0.02 +0.04    +0.209 HD
DOCKED: ENDBRANCH  36  37
DOCKED: ENDBRANCH  29  36
DOCKED: BRANCH  22  39
DOCKED: ATOM     39  C   UNL d   1      38.375  48.923  21.655 -0.19 +0.02    +0.052 C 
DOCKED: BRANCH  39  40
DOCKED: ATOM     40  C   UNL d   1      39.347  50.092  21.882 -0.10 +0.06    +0.115 C 
DOCKED: BRANCH  40  41
DOCKED: ATOM     41  C   UNL d   1      38.839  51.431  21.391 +0.17 +0.18    +0.139 C 
DOCKED: ATOM     42  O   UNL d   1      37.634  51.610  21.279 -0.43 -1.18    -0.650 OA
DOCKED: BRANCH  41  43
DOCKED: ATOM     43  O   UNL d   1      39.676  52.466  21.155 -0.02 -0.95    -0.776 OA
DOCKED: ATOM     44  H   UNL d   1      39.358  53.359  20.970 +0.00 +0.24    +0.167 HD
DOCKED: ENDBRANCH  41  43
DOCKED: ENDBRANCH  40  41
DOCKED: ENDBRANCH  39  40
DOCKED: ENDBRANCH  22  39
DOCKED: BRANCH  12  45
DOCKED: ATOM     45  C   UNL d   1      30.441  49.640  29.568 -0.08 +0.00    +0.004 C 
DOCKED: ATOM     46  C   UNL d   1      29.778  48.523  29.856 -0.09 +0.00    +0.012 C 
DOCKED: ENDBRANCH  12  45
DOCKED: BRANCH  17  47
DOCKED: ATOM     47  C   UNL d   1      37.206  45.803  28.802 -0.18 +0.00    +0.004 C 
DOCKED: ATOM     48  C   UNL d   1      37.564  44.679  28.178 -0.19 +0.00    +0.012 C 
DOCKED: ENDBRANCH  17  47
DOCKED: TORSDOF 12
DOCKED: TER
DOCKED: ENDMDL
________________________________________________________________________________


	BEGINNING GENETIC ALGORITHM DOCKING 65 of 100
Run: 65 Seed: 1970972637 1282337674 [ Run 65 of 100 GA/GALS ]
Beginning LAMARCKIAN GENETIC ALGORITHM (LGA), with a maximum of 25000000 energy evaluations.

Final-Value: -10.790


	FINAL GENETIC ALGORITHM DOCKED STATE
	_______________________________________________


Detailed state:  trans 35.283 55.204 13.675 quatxyzw 0.317821 0.784184 0.390818 -0.362362 center 8.781 34.984 -0.736 ntor 12 118.4936 133.3145 -178.7581 -95.5355 135.8713 122.3280 -109.5536 16.5987 -116.0175 132.4052 164.8073 -176.4473
State:	 35.283  55.204  13.675   0.341  0.841  0.419 -137.509    118.49  133.31 -178.76  -95.54  135.87  122.33 -109.55   16.60 -116.02  132.41  164.81 -176.45

DOCKED: MODEL       65
DOCKED: USER    Run = 65
DOCKED: USER    DPF = D:/Protein_go_brrr/autodock/final/6BB5/heme_Co/dock.dpf
DOCKED: USER  
DOCKED: USER    Estimated Free Energy of Binding    =   -4.33 kcal/mol  [=(1)+(2)+(3)-(4)]
DOCKED: USER    Estimated Inhibition Constant, Ki   =  667.86 uM (micromolar)  [Temperature = 298.15 K]
DOCKED: USER    
DOCKED: USER    (1) Final Intermolecular Energy     =   -7.91 kcal/mol
DOCKED: USER        vdW + Hbond + desolv Energy     =   -5.75 kcal/mol
DOCKED: USER        Electrostatic Energy            =   -2.16 kcal/mol
DOCKED: USER    (2) Final Total Internal Energy     =   -2.88 kcal/mol
DOCKED: USER    (3) Torsional Free Energy           =   +3.58 kcal/mol
DOCKED: USER    (4) Unbound System's Energy  [=(2)] =   -2.88 kcal/mol
DOCKED: USER    
DOCKED: USER    
DOCKED: USER    NEWDPF move heme_Co_opt.pdbqt
DOCKED: USER    NEWDPF about 8.781000 34.984000 -0.736000
DOCKED: USER    NEWDPF tran0 35.282757 55.203954 13.675310
DOCKED: USER    NEWDPF quaternion0 0.317821 0.784184 0.390818 -0.362362
DOCKED: USER    NEWDPF axisangle0 0.340996 0.841365 0.419316 -137.509352
DOCKED: USER    NEWDPF quat0 0.340996 0.841365 0.419316 -137.509352
DOCKED: USER    NEWDPF dihe0 118.49 133.31 -178.76 -95.54 135.87 122.33 -109.55 16.60 -116.02 132.41 164.81 -176.45 
DOCKED: USER  keepresnum = 1 
DOCKED: USER  
DOCKED: REMARK  12 active torsions:
DOCKED: REMARK  status: ('A' for Active; 'I' for Inactive)
DOCKED: REMARK    1  A    between atoms: C_6  and  C_10 
DOCKED: REMARK    2  A    between atoms: C_10  and  C_11 
DOCKED: REMARK    3  A    between atoms: C_11  and  C_12 
DOCKED: REMARK    4  A    between atoms: C_12  and  O_14 
DOCKED: REMARK    5  A    between atoms: C_17  and  C_20 
DOCKED: REMARK    6  A    between atoms: C_24  and  C_27 
DOCKED: REMARK    7  A    between atoms: C_31  and  C_34 
DOCKED: REMARK    8  A    between atoms: C_34  and  C_35 
DOCKED: REMARK    9  A    between atoms: C_35  and  C_36 
DOCKED: REMARK   10  A    between atoms: C_36  and  O_38 
DOCKED: REMARK   11  A    between atoms: FE_43  and  C_44 
DOCKED: REMARK   12  A    between atoms: C_44  and  O_45 
DOCKED: USER                              x       y       z     vdW  Elec       q    Type
DOCKED: USER                           _______ _______ _______ _____ _____    ______ ____
DOCKED: ROOT
DOCKED: ATOM      1  C   UNL d   1      35.732  53.612  15.082 -0.28 +0.03    +0.064 A 
DOCKED: ATOM      2  C   UNL d   1      37.536  54.715  10.823 -0.22 +0.03    +0.064 C 
DOCKED: ATOM      3  C   UNL d   1      34.305  58.198  10.315 -0.12 +0.01    +0.064 A 
DOCKED: ATOM      4  C   UNL d   1      32.693  57.343  14.824 -0.08 -0.00    +0.064 A 
DOCKED: ATOM      5  C   UNL d   1      36.439  53.634  13.940 -0.27 +0.02    +0.066 A 
DOCKED: ATOM      6  C   UNL d   1      37.547  52.790  13.731 -0.27 -0.01    -0.021 A 
DOCKED: ATOM      7  C   UNL d   1      38.081  53.130  12.504 -0.23 -0.01    -0.025 A 
DOCKED: ATOM      8  C   UNL d   1      37.266  54.155  12.009 -0.20 +0.02    +0.066 A 
DOCKED: ATOM      9  C   UNL d   1      39.310  52.524  11.810 -0.27 -0.00    +0.051 C 
DOCKED: ATOM     10  C   UNL d   1      36.739  55.755  10.222 -0.19 +0.03    +0.066 A 
DOCKED: ATOM     11  C   UNL d   1      36.887  56.286   8.922 -0.19 -0.01    -0.021 A 
DOCKED: ATOM     12  C   UNL d   1      35.929  57.297   8.799 -0.12 +0.00    +0.000 A 
DOCKED: ATOM     13  C   UNL d   1      35.262  57.300  10.024 -0.14 +0.02    +0.070 A 
DOCKED: ATOM     14  C   UNL d   1      37.821  55.782   7.853 -0.17 +0.04    +0.052 C 
DOCKED: ATOM     15  C   UNL d   1      33.553  58.377  11.541 -0.10 +0.00    +0.066 A 
DOCKED: ATOM     16  C   UNL d   1      32.680  59.417  11.827 -0.05 -0.00    -0.021 A 
DOCKED: ATOM     17  C   UNL d   1      32.214  59.176  13.128 -0.06 +0.00    +0.000 A 
DOCKED: ATOM     18  C   UNL d   1      32.830  57.995  13.528 -0.07 -0.00    +0.070 A 
DOCKED: ATOM     19  C   UNL d   1      32.335  60.555  10.892 -0.02 +0.00    +0.052 C 
DOCKED: ATOM     20  C   UNL d   1      33.347  56.242  15.267 -0.11 +0.01    +0.066 A 
DOCKED: ATOM     21  C   UNL d   1      33.158  55.730  16.549 -0.17 -0.01    -0.025 A 
DOCKED: ATOM     22  C   UNL d   1      34.000  54.637  16.642 -0.27 -0.01    -0.021 A 
DOCKED: ATOM     23  C   UNL d   1      34.675  54.543  15.406 -0.28 +0.02    +0.066 A 
DOCKED: ATOM     24  C   UNL d   1      32.235  56.268  17.639 -0.11 +0.01    +0.051 C 
DOCKED: ATOM     25  N   UNL d   1      36.237  54.483  12.876 -0.15 -0.07    -0.248 N 
DOCKED: ATOM     26  N   UNL d   1      35.716  56.330  10.863 -0.12 -0.06    -0.248 N 
DOCKED: ATOM     27  N   UNL d   1      33.643  57.564  12.570 -0.07 +0.01    -0.248 N 
DOCKED: ATOM     28  N   UNL d   1      34.284  55.514  14.572 -0.15 -0.03    -0.248 N 
DOCKED: ATOM     29 FE   UNL d   1      34.862  56.113  12.717 -0.04 +0.00    +0.000 Fe
DOCKED: ENDROOT
DOCKED: BRANCH   6  30
DOCKED: ATOM     30  C   UNL d   1      38.108  51.765  14.711 -0.21 +0.03    +0.052 C 
DOCKED: BRANCH  30  31
DOCKED: ATOM     31  C   UNL d   1      39.473  52.212  15.234 -0.16 +0.06    +0.115 C 
DOCKED: BRANCH  31  32
DOCKED: ATOM     32  C   UNL d   1      39.399  53.515  16.001 -0.05 +0.11    +0.139 C 
DOCKED: ATOM     33  O   UNL d   1      39.763  53.547  17.167 -0.05 -0.85    -0.650 OA
DOCKED: BRANCH  32  34
DOCKED: ATOM     34  O   UNL d   1      38.985  54.666  15.422 +0.04 -0.37    -0.776 OA
DOCKED: ATOM     35  H   UNL d   1      38.176  55.136  15.666 +0.03 +0.09    +0.167 HD
DOCKED: ENDBRANCH  32  34
DOCKED: ENDBRANCH  31  32
DOCKED: ENDBRANCH  30  31
DOCKED: ENDBRANCH   6  30
DOCKED: BRANCH  29  36
DOCKED: ATOM     36  C   UNL d   1      36.365  57.315  13.547 -0.03 +0.03    +0.190 C 
DOCKED: BRANCH  36  37
DOCKED: ATOM     37  O   UNL d   1      37.440  57.296  14.443 +0.01 -0.07    -0.399 OA
DOCKED: ATOM     38  H   UNL d   1      37.683  56.333  14.530 +0.03 +0.05    +0.209 HD
DOCKED: ENDBRANCH  36  37
DOCKED: ENDBRANCH  29  36
DOCKED: BRANCH  22  39
DOCKED: ATOM     39  C   UNL d   1      34.188  53.774  17.875 -0.23 +0.03    +0.052 C 
DOCKED: BRANCH  39  40
DOCKED: ATOM     40  C   UNL d   1      35.039  54.508  18.925 -0.15 +0.10    +0.115 C 
DOCKED: BRANCH  40  41
DOCKED: ATOM     41  C   UNL d   1      36.363  55.026  18.406 +0.01 +0.17    +0.139 C 
DOCKED: ATOM     42  O   UNL d   1      36.892  55.980  18.959 -0.01 -0.47    -0.650 OA
DOCKED: BRANCH  41  43
DOCKED: ATOM     43  O   UNL d   1      37.022  54.409  17.400 -0.23 -1.31    -0.776 OA
DOCKED: ATOM     44  H   UNL d   1      37.914  54.663  17.131 +0.01 +0.22    +0.167 HD
DOCKED: ENDBRANCH  41  43
DOCKED: ENDBRANCH  40  41
DOCKED: ENDBRANCH  39  40
DOCKED: ENDBRANCH  22  39
DOCKED: BRANCH  12  45
DOCKED: ATOM     45  C   UNL d   1      35.557  58.243   7.665 -0.09 +0.00    +0.004 C 
DOCKED: ATOM     46  C   UNL d   1      35.820  59.535   7.493 -0.07 +0.00    +0.012 C 
DOCKED: ENDBRANCH  12  45
DOCKED: BRANCH  17  47
DOCKED: ATOM     47  C   UNL d   1      31.302  59.995  13.981 -0.03 +0.00    +0.004 C 
DOCKED: ATOM     48  C   UNL d   1      30.088  59.591  14.362 -0.04 +0.00    +0.012 C 
DOCKED: ENDBRANCH  17  47
DOCKED: TORSDOF 12
DOCKED: TER
DOCKED: ENDMDL
________________________________________________________________________________


	BEGINNING GENETIC ALGORITHM DOCKING 66 of 100
Run: 66 Seed: 621085213 198696458 [ Run 66 of 100 GA/GALS ]
Beginning LAMARCKIAN GENETIC ALGORITHM (LGA), with a maximum of 25000000 energy evaluations.

Final-Value: -14.587


	FINAL GENETIC ALGORITHM DOCKED STATE
	_______________________________________________


Detailed state:  trans 45.687 27.965 18.095 quatxyzw -0.283388 0.343972 0.892253 0.072524 center 8.781 34.984 -0.736 ntor 12 -97.3942 125.5023 52.6248 66.2222 61.1732 134.0156 34.8027 -160.3904 180.0000 88.3870 -173.0347 13.3522
State:	 45.687  27.965  18.095  -0.284  0.345  0.895 171.682    -97.39  125.50   52.62   66.22   61.17  134.02   34.80 -160.39  180.00   88.39 -173.03   13.35

DOCKED: MODEL       66
DOCKED: USER    Run = 66
DOCKED: USER    DPF = D:/Protein_go_brrr/autodock/final/6BB5/heme_Co/dock.dpf
DOCKED: USER  
DOCKED: USER    Estimated Free Energy of Binding    =   -8.85 kcal/mol  [=(1)+(2)+(3)-(4)]
DOCKED: USER    Estimated Inhibition Constant, Ki   =  326.80 nM (nanomolar)  [Temperature = 298.15 K]
DOCKED: USER    
DOCKED: USER    (1) Final Intermolecular Energy     =  -12.43 kcal/mol
DOCKED: USER        vdW + Hbond + desolv Energy     =   -9.00 kcal/mol
DOCKED: USER        Electrostatic Energy            =   -3.43 kcal/mol
DOCKED: USER    (2) Final Total Internal Energy     =   -2.16 kcal/mol
DOCKED: USER    (3) Torsional Free Energy           =   +3.58 kcal/mol
DOCKED: USER    (4) Unbound System's Energy  [=(2)] =   -2.16 kcal/mol
DOCKED: USER    
DOCKED: USER    
DOCKED: USER    NEWDPF move heme_Co_opt.pdbqt
DOCKED: USER    NEWDPF about 8.781000 34.984000 -0.736000
DOCKED: USER    NEWDPF tran0 45.687241 27.965002 18.094670
DOCKED: USER    NEWDPF quaternion0 -0.283388 0.343972 0.892253 0.072524
DOCKED: USER    NEWDPF axisangle0 -0.284136 0.344880 0.894609 171.682053
DOCKED: USER    NEWDPF quat0 -0.284136 0.344880 0.894609 171.682053
DOCKED: USER    NEWDPF dihe0 -97.39 125.50 52.62 66.22 61.17 134.02 34.80 -160.39 180.00 88.39 -173.03 13.35 
DOCKED: USER  keepresnum = 1 
DOCKED: USER  
DOCKED: REMARK  12 active torsions:
DOCKED: REMARK  status: ('A' for Active; 'I' for Inactive)
DOCKED: REMARK    1  A    between atoms: C_6  and  C_10 
DOCKED: REMARK    2  A    between atoms: C_10  and  C_11 
DOCKED: REMARK    3  A    between atoms: C_11  and  C_12 
DOCKED: REMARK    4  A    between atoms: C_12  and  O_14 
DOCKED: REMARK    5  A    between atoms: C_17  and  C_20 
DOCKED: REMARK    6  A    between atoms: C_24  and  C_27 
DOCKED: REMARK    7  A    between atoms: C_31  and  C_34 
DOCKED: REMARK    8  A    between atoms: C_34  and  C_35 
DOCKED: REMARK    9  A    between atoms: C_35  and  C_36 
DOCKED: REMARK   10  A    between atoms: C_36  and  O_38 
DOCKED: REMARK   11  A    between atoms: FE_43  and  C_44 
DOCKED: REMARK   12  A    between atoms: C_44  and  O_45 
DOCKED: USER                              x       y       z     vdW  Elec       q    Type
DOCKED: USER                           _______ _______ _______ _____ _____    ______ ____
DOCKED: ROOT
DOCKED: ATOM      1  C   UNL d   1      47.731  27.730  18.791 -0.08 +0.03    +0.064 A 
DOCKED: ATOM      2  C   UNL d   1      44.786  31.463  18.726 -0.27 +0.02    +0.064 C 
DOCKED: ATOM      3  C   UNL d   1      41.526  28.899  16.355 -0.24 +0.02    +0.064 A 
DOCKED: ATOM      4  C   UNL d   1      44.357  24.962  16.747 -0.19 +0.02    +0.064 A 
DOCKED: ATOM      5  C   UNL d   1      47.180  28.949  18.916 -0.09 +0.03    +0.066 A 
DOCKED: ATOM      6  C   UNL d   1      47.813  29.985  19.631 -0.08 -0.01    -0.021 A 
DOCKED: ATOM      7  C   UNL d   1      46.944  31.059  19.628 -0.12 -0.01    -0.025 A 
DOCKED: ATOM      8  C   UNL d   1      45.827  30.638  18.899 -0.17 +0.02    +0.066 A 
DOCKED: ATOM      9  C   UNL d   1      47.143  32.434  20.284 -0.11 +0.01    +0.051 C 
DOCKED: ATOM     10  C   UNL d   1      43.606  31.128  17.969 -0.29 +0.02    +0.066 A 
DOCKED: ATOM     11  C   UNL d   1      42.544  31.995  17.634 -0.43 -0.00    -0.021 A 
DOCKED: ATOM     12  C   UNL d   1      41.609  31.223  16.939 -0.43 +0.00    +0.000 A 
DOCKED: ATOM     13  C   UNL d   1      42.174  29.948  16.891 -0.31 +0.01    +0.070 A 
DOCKED: ATOM     14  C   UNL d   1      42.491  33.480  17.887 -0.27 +0.00    +0.052 C 
DOCKED: ATOM     15  C   UNL d   1      41.936  27.511  16.268 -0.31 +0.01    +0.066 A 
DOCKED: ATOM     16  C   UNL d   1      41.158  26.449  15.831 -0.41 -0.00    -0.021 A 
DOCKED: ATOM     17  C   UNL d   1      41.969  25.311  15.945 -0.35 +0.00    +0.000 A 
DOCKED: ATOM     18  C   UNL d   1      43.189  25.773  16.427 -0.24 +0.02    +0.070 A 
DOCKED: ATOM     19  C   UNL d   1      39.729  26.550  15.344 -0.43 +0.01    +0.052 C 
DOCKED: ATOM     20  C   UNL d   1      45.523  25.377  17.298 -0.19 +0.03    +0.066 A 
DOCKED: ATOM     21  C   UNL d   1      46.561  24.496  17.592 -0.16 -0.01    -0.025 A 
DOCKED: ATOM     22  C   UNL d   1      47.559  25.271  18.156 -0.11 -0.01    -0.021 A 
DOCKED: ATOM     23  C   UNL d   1      47.071  26.594  18.189 -0.11 +0.03    +0.066 A 
DOCKED: ATOM     24  C   UNL d   1      46.594  22.987  17.366 -0.19 +0.04    +0.051 C 
DOCKED: ATOM     25  N   UNL d   1      45.948  29.337  18.440 -0.09 -0.10    -0.248 N 
DOCKED: ATOM     26  N   UNL d   1      43.406  29.906  17.465 -0.19 -0.06    -0.248 N 
DOCKED: ATOM     27  N   UNL d   1      43.123  27.083  16.637 -0.20 -0.06    -0.248 N 
DOCKED: ATOM     28  N   UNL d   1      45.838  26.663  17.672 -0.09 -0.10    -0.248 N 
DOCKED: ATOM     29 FE   UNL d   1      44.454  28.141  17.485 -0.06 +0.00    +0.000 Fe
DOCKED: ENDROOT
DOCKED: BRANCH   6  30
DOCKED: ATOM     30  C   UNL d   1      49.155  29.906  20.349 -0.03 +0.02    +0.052 C 
DOCKED: BRANCH  30  31
DOCKED: ATOM     31  C   UNL d   1      48.967  29.428  21.789 -0.04 +0.06    +0.115 C 
DOCKED: BRANCH  31  32
DOCKED: ATOM     32  C   UNL d   1      47.511  29.203  22.137 -0.05 +0.15    +0.139 C 
DOCKED: ATOM     33  O   UNL d   1      46.879  30.096  22.681 +0.14 -0.82    -0.650 OA
DOCKED: BRANCH  32  34
DOCKED: ATOM     34  O   UNL d   1      46.866  28.056  21.820 -0.53 -1.36    -0.776 OA
DOCKED: ATOM     35  H   UNL d   1      46.261  27.962  21.072 +0.02 +0.25    +0.167 HD
DOCKED: ENDBRANCH  32  34
DOCKED: ENDBRANCH  31  32
DOCKED: ENDBRANCH  30  31
DOCKED: ENDBRANCH   6  30
DOCKED: BRANCH  29  36
DOCKED: ATOM     36  C   UNL d   1      43.719  27.728  19.404 +0.22 +0.12    +0.190 C 
DOCKED: BRANCH  36  37
DOCKED: ATOM     37  O   UNL d   1      44.075  27.721  20.756 -0.38 -0.53    -0.399 OA
DOCKED: ATOM     38  H   UNL d   1      44.941  28.215  20.796 +0.05 +0.30    +0.209 HD
DOCKED: ENDBRANCH  36  37
DOCKED: ENDBRANCH  29  36
DOCKED: BRANCH  22  39
DOCKED: ATOM     39  C   UNL d   1      48.879  24.750  18.691 -0.07 +0.03    +0.052 C 
DOCKED: BRANCH  39  40
DOCKED: ATOM     40  C   UNL d   1      50.053  25.289  17.858 -0.09 +0.07    +0.115 C 
DOCKED: BRANCH  40  41
DOCKED: ATOM     41  C   UNL d   1      50.550  24.338  16.790 -0.07 +0.14    +0.139 C 
DOCKED: ATOM     42  O   UNL d   1      50.327  23.141  16.904 -0.04 -1.19    -0.650 OA
DOCKED: BRANCH  41  43
DOCKED: ATOM     43  O   UNL d   1      51.159  24.783  15.669 +0.06 -0.71    -0.776 OA
DOCKED: ATOM     44  H   UNL d   1      51.967  25.313  15.692 +0.02 +0.10    +0.167 HD
DOCKED: ENDBRANCH  41  43
DOCKED: ENDBRANCH  40  41
DOCKED: ENDBRANCH  39  40
DOCKED: ENDBRANCH  22  39
DOCKED: BRANCH  12  45
DOCKED: ATOM     45  C   UNL d   1      40.264  31.544  16.303 -0.45 +0.00    +0.004 C 
DOCKED: ATOM     46  C   UNL d   1      39.940  32.428  15.362 -0.48 +0.00    +0.012 C 
DOCKED: ENDBRANCH  12  45
DOCKED: BRANCH  17  47
DOCKED: ATOM     47  C   UNL d   1      41.644  23.877  15.680 -0.50 +0.00    +0.004 C 
DOCKED: ATOM     48  C   UNL d   1      40.890  23.469  14.656 -0.60 +0.00    +0.012 C 
DOCKED: ENDBRANCH  17  47
DOCKED: TORSDOF 12
DOCKED: TER
DOCKED: ENDMDL
________________________________________________________________________________


	BEGINNING GENETIC ALGORITHM DOCKING 67 of 100
Run: 67 Seed: 981749939 936851947 [ Run 67 of 100 GA/GALS ]
Beginning LAMARCKIAN GENETIC ALGORITHM (LGA), with a maximum of 25000000 energy evaluations.

Final-Value: -14.243


	FINAL GENETIC ALGORITHM DOCKED STATE
	_______________________________________________


Detailed state:  trans 45.871 26.693 18.670 quatxyzw -0.277151 0.366608 0.885970 -0.061998 center 8.781 34.984 -0.736 ntor 12 -81.7588 62.1790 -42.0196 -24.3113 85.7656 141.6827 41.1279 128.8433 156.8404 -141.5349 -154.7876 -9.9573
State:	 45.871  26.693  18.670  -0.278  0.367  0.888 -172.891    -81.76   62.18  -42.02  -24.31   85.77  141.68   41.13  128.84  156.84 -141.53 -154.79   -9.96

DOCKED: MODEL       67
DOCKED: USER    Run = 67
DOCKED: USER    DPF = D:/Protein_go_brrr/autodock/final/6BB5/heme_Co/dock.dpf
DOCKED: USER  
DOCKED: USER    Estimated Free Energy of Binding    =   -8.46 kcal/mol  [=(1)+(2)+(3)-(4)]
DOCKED: USER    Estimated Inhibition Constant, Ki   =  633.35 nM (nanomolar)  [Temperature = 298.15 K]
DOCKED: USER    
DOCKED: USER    (1) Final Intermolecular Energy     =  -12.04 kcal/mol
DOCKED: USER        vdW + Hbond + desolv Energy     =   -8.48 kcal/mol
DOCKED: USER        Electrostatic Energy            =   -3.56 kcal/mol
DOCKED: USER    (2) Final Total Internal Energy     =   -2.21 kcal/mol
DOCKED: USER    (3) Torsional Free Energy           =   +3.58 kcal/mol
DOCKED: USER    (4) Unbound System's Energy  [=(2)] =   -2.21 kcal/mol
DOCKED: USER    
DOCKED: USER    
DOCKED: USER    NEWDPF move heme_Co_opt.pdbqt
DOCKED: USER    NEWDPF about 8.781000 34.984000 -0.736000
DOCKED: USER    NEWDPF tran0 45.870515 26.693364 18.669849
DOCKED: USER    NEWDPF quaternion0 -0.277151 0.366608 0.885970 -0.061998
DOCKED: USER    NEWDPF axisangle0 -0.277685 0.367315 0.887677 -172.890985
DOCKED: USER    NEWDPF quat0 -0.277685 0.367315 0.887677 -172.890985
DOCKED: USER    NEWDPF dihe0 -81.76 62.18 -42.02 -24.31 85.77 141.68 41.13 128.84 156.84 -141.53 -154.79 -9.96 
DOCKED: USER  keepresnum = 1 
DOCKED: USER  
DOCKED: REMARK  12 active torsions:
DOCKED: REMARK  status: ('A' for Active; 'I' for Inactive)
DOCKED: REMARK    1  A    between atoms: C_6  and  C_10 
DOCKED: REMARK    2  A    between atoms: C_10  and  C_11 
DOCKED: REMARK    3  A    between atoms: C_11  and  C_12 
DOCKED: REMARK    4  A    between atoms: C_12  and  O_14 
DOCKED: REMARK    5  A    between atoms: C_17  and  C_20 
DOCKED: REMARK    6  A    between atoms: C_24  and  C_27 
DOCKED: REMARK    7  A    between atoms: C_31  and  C_34 
DOCKED: REMARK    8  A    between atoms: C_34  and  C_35 
DOCKED: REMARK    9  A    between atoms: C_35  and  C_36 
DOCKED: REMARK   10  A    between atoms: C_36  and  O_38 
DOCKED: REMARK   11  A    between atoms: FE_43  and  C_44 
DOCKED: REMARK   12  A    between atoms: C_44  and  O_45 
DOCKED: USER                              x       y       z     vdW  Elec       q    Type
DOCKED: USER                           _______ _______ _______ _____ _____    ______ ____
DOCKED: ROOT
DOCKED: ATOM      1  C   UNL d   1      47.716  25.932  19.524 -0.03 +0.03    +0.064 A 
DOCKED: ATOM      2  C   UNL d   1      45.828  30.293  19.369 -0.20 +0.03    +0.064 C 
DOCKED: ATOM      3  C   UNL d   1      42.257  28.691  16.629 -0.20 +0.01    +0.064 A 
DOCKED: ATOM      4  C   UNL d   1      43.954  24.156  17.092 -0.21 +0.02    +0.064 A 
DOCKED: ATOM      5  C   UNL d   1      47.482  27.248  19.653 -0.06 +0.04    +0.066 A 
DOCKED: ATOM      6  C   UNL d   1      48.287  28.074  20.461 -0.05 -0.01    -0.021 A 
DOCKED: ATOM      7  C   UNL d   1      47.722  29.334  20.430 -0.09 -0.01    -0.025 A 
DOCKED: ATOM      8  C   UNL d   1      46.606  29.226  19.593 -0.12 +0.04    +0.066 A 
DOCKED: ATOM      9  C   UNL d   1      48.201  30.600  21.157 -0.08 +0.02    +0.051 C 
DOCKED: ATOM     10  C   UNL d   1      44.676  30.284  18.503 -0.23 +0.02    +0.066 A 
DOCKED: ATOM     11  C   UNL d   1      43.903  31.401  18.117 -0.30 -0.01    -0.021 A 
DOCKED: ATOM     12  C   UNL d   1      42.871  30.905  17.315 -0.35 +0.00    +0.000 A 
DOCKED: ATOM     13  C   UNL d   1      43.097  29.530  17.261 -0.28 +0.02    +0.070 A 
DOCKED: ATOM     14  C   UNL d   1      44.204  32.845  18.425 -0.34 +0.01    +0.052 C 
DOCKED: ATOM     15  C   UNL d   1      42.310  27.247  16.519 -0.27 +0.01    +0.066 A 
DOCKED: ATOM     16  C   UNL d   1      41.331  26.427  15.975 -0.40 -0.00    -0.021 A 
DOCKED: ATOM     17  C   UNL d   1      41.815  25.117  16.108 -0.38 +0.00    +0.000 A 
DOCKED: ATOM     18  C   UNL d   1      43.062  25.244  16.710 -0.26 +0.02    +0.070 A 
DOCKED: ATOM     19  C   UNL d   1      40.025  26.899  15.375 -0.44 +0.01    +0.052 C 
DOCKED: ATOM     20  C   UNL d   1      45.131  24.249  17.755 -0.15 +0.03    +0.066 A 
DOCKED: ATOM     21  C   UNL d   1      45.882  23.127  18.098 -0.15 -0.01    -0.025 A 
DOCKED: ATOM     22  C   UNL d   1      46.987  23.610  18.775 -0.08 -0.01    -0.021 A 
DOCKED: ATOM     23  C   UNL d   1      46.848  25.013  18.822 -0.06 +0.03    +0.066 A 
DOCKED: ATOM     24  C   UNL d   1      45.554  21.664  17.813 -0.20 +0.02    +0.051 C 
DOCKED: ATOM     25  N   UNL d   1      46.437  27.947  19.093 -0.06 -0.13    -0.248 N 
DOCKED: ATOM     26  N   UNL d   1      44.221  29.163  17.933 -0.15 -0.08    -0.248 N 
DOCKED: ATOM     27  N   UNL d   1      43.311  26.523  16.967 -0.17 -0.07    -0.248 N 
DOCKED: ATOM     28  N   UNL d   1      45.725  25.404  18.208 -0.06 -0.11    -0.248 N 
DOCKED: ATOM     29 FE   UNL d   1      44.783  27.190  17.967 -0.05 +0.00    +0.000 Fe
DOCKED: ENDROOT
DOCKED: BRANCH   6  30
DOCKED: ATOM     30  C   UNL d   1      49.495  27.642  21.285 -0.02 +0.02    +0.052 C 
DOCKED: BRANCH  30  31
DOCKED: ATOM     31  C   UNL d   1      49.056  26.795  22.479 -0.02 +0.07    +0.115 C 
DOCKED: BRANCH  31  32
DOCKED: ATOM     32  C   UNL d   1      47.631  27.084  22.899 +0.08 +0.18    +0.139 C 
DOCKED: ATOM     33  O   UNL d   1      47.412  27.973  23.708 +0.04 -1.14    -0.650 OA
DOCKED: BRANCH  32  34
DOCKED: ATOM     34  O   UNL d   1      46.577  26.421  22.369 -0.09 -1.29    -0.776 OA
DOCKED: ATOM     35  H   UNL d   1      46.132  26.674  21.548 +0.02 +0.26    +0.167 HD
DOCKED: ENDBRANCH  32  34
DOCKED: ENDBRANCH  31  32
DOCKED: ENDBRANCH  30  31
DOCKED: ENDBRANCH   6  30
DOCKED: BRANCH  29  36
DOCKED: ATOM     36  C   UNL d   1      43.795  26.942  19.799 -0.04 +0.13    +0.190 C 
DOCKED: BRANCH  36  37
DOCKED: ATOM     37  O   UNL d   1      43.999  26.930  21.183 -0.41 -0.60    -0.399 OA
DOCKED: ATOM     38  H   UNL d   1      44.762  26.303  21.324 +0.06 +0.29    +0.209 HD
DOCKED: ENDBRANCH  36  37
DOCKED: ENDBRANCH  29  36
DOCKED: BRANCH  22  39
DOCKED: ATOM     39  C   UNL d   1      48.079  22.760  19.397 -0.05 +0.03    +0.052 C 
DOCKED: BRANCH  39  40
DOCKED: ATOM     40  C   UNL d   1      49.226  22.533  18.398 -0.07 +0.11    +0.115 C 
DOCKED: BRANCH  40  41
DOCKED: ATOM     41  C   UNL d   1      49.466  23.689  17.450 -0.09 +0.17    +0.139 C 
DOCKED: ATOM     42  O   UNL d   1      48.916  23.692  16.358 -0.35 -1.28    -0.650 OA
DOCKED: BRANCH  41  43
DOCKED: ATOM     43  O   UNL d   1      50.204  24.762  17.811 +0.00 -0.52    -0.776 OA
DOCKED: ATOM     44  H   UNL d   1      50.197  25.119  18.709 +0.02 +0.08    +0.167 HD
DOCKED: ENDBRANCH  41  43
DOCKED: ENDBRANCH  40  41
DOCKED: ENDBRANCH  39  40
DOCKED: ENDBRANCH  22  39
DOCKED: BRANCH  12  45
DOCKED: ATOM     45  C   UNL d   1      41.714  31.572  16.582 -0.46 +0.00    +0.004 C 
DOCKED: ATOM     46  C   UNL d   1      40.996  32.648  16.893 -0.53 +0.00    +0.012 C 
DOCKED: ENDBRANCH  12  45
DOCKED: BRANCH  17  47
DOCKED: ATOM     47  C   UNL d   1      41.164  23.820  15.758 -0.55 +0.00    +0.004 C 
DOCKED: ATOM     48  C   UNL d   1      40.846  23.468  14.510 -0.60 +0.00    +0.012 C 
DOCKED: ENDBRANCH  17  47
DOCKED: TORSDOF 12
DOCKED: TER
DOCKED: ENDMDL
________________________________________________________________________________


	BEGINNING GENETIC ALGORITHM DOCKING 68 of 100
Run: 68 Seed: 1301010373 76813323 [ Run 68 of 100 GA/GALS ]
Beginning LAMARCKIAN GENETIC ALGORITHM (LGA), with a maximum of 25000000 energy evaluations.

Final-Value: -14.410


	FINAL GENETIC ALGORITHM DOCKED STATE
	_______________________________________________


Detailed state:  trans 45.598 27.552 18.078 quatxyzw 0.242061 -0.334221 -0.910819 0.010534 center 8.781 34.984 -0.736 ntor 12 43.0163 88.0632 108.5643 78.1105 109.0996 141.7765 39.9798 -143.0666 164.8553 -111.4644 -160.6931 111.1925
State:	 45.598  27.552  18.078   0.242 -0.334 -0.911 178.793     43.02   88.06  108.56   78.11  109.10  141.78   39.98 -143.07  164.86 -111.46 -160.69  111.19

DOCKED: MODEL       68
DOCKED: USER    Run = 68
DOCKED: USER    DPF = D:/Protein_go_brrr/autodock/final/6BB5/heme_Co/dock.dpf
DOCKED: USER  
DOCKED: USER    Estimated Free Energy of Binding    =   -7.81 kcal/mol  [=(1)+(2)+(3)-(4)]
DOCKED: USER    Estimated Inhibition Constant, Ki   =    1.88 uM (micromolar)  [Temperature = 298.15 K]
DOCKED: USER    
DOCKED: USER    (1) Final Intermolecular Energy     =  -11.39 kcal/mol
DOCKED: USER        vdW + Hbond + desolv Energy     =   -9.03 kcal/mol
DOCKED: USER        Electrostatic Energy            =   -2.37 kcal/mol
DOCKED: USER    (2) Final Total Internal Energy     =   -3.02 kcal/mol
DOCKED: USER    (3) Torsional Free Energy           =   +3.58 kcal/mol
DOCKED: USER    (4) Unbound System's Energy  [=(2)] =   -3.02 kcal/mol
DOCKED: USER    
DOCKED: USER    
DOCKED: USER    NEWDPF move heme_Co_opt.pdbqt
DOCKED: USER    NEWDPF about 8.781000 34.984000 -0.736000
DOCKED: USER    NEWDPF tran0 45.597736 27.551826 18.077686
DOCKED: USER    NEWDPF quaternion0 0.242061 -0.334221 -0.910819 0.010534
DOCKED: USER    NEWDPF axisangle0 0.242075 -0.334239 -0.910870 178.792859
DOCKED: USER    NEWDPF quat0 0.242075 -0.334239 -0.910870 178.792859
DOCKED: USER    NEWDPF dihe0 43.02 88.06 108.56 78.11 109.10 141.78 39.98 -143.07 164.86 -111.46 -160.69 111.19 
DOCKED: USER  keepresnum = 1 
DOCKED: USER  
DOCKED: REMARK  12 active torsions:
DOCKED: REMARK  status: ('A' for Active; 'I' for Inactive)
DOCKED: REMARK    1  A    between atoms: C_6  and  C_10 
DOCKED: REMARK    2  A    between atoms: C_10  and  C_11 
DOCKED: REMARK    3  A    between atoms: C_11  and  C_12 
DOCKED: REMARK    4  A    between atoms: C_12  and  O_14 
DOCKED: REMARK    5  A    between atoms: C_17  and  C_20 
DOCKED: REMARK    6  A    between atoms: C_24  and  C_27 
DOCKED: REMARK    7  A    between atoms: C_31  and  C_34 
DOCKED: REMARK    8  A    between atoms: C_34  and  C_35 
DOCKED: REMARK    9  A    between atoms: C_35  and  C_36 
DOCKED: REMARK   10  A    between atoms: C_36  and  O_38 
DOCKED: REMARK   11  A    between atoms: FE_43  and  C_44 
DOCKED: REMARK   12  A    between atoms: C_44  and  O_45 
DOCKED: USER                              x       y       z     vdW  Elec       q    Type
DOCKED: USER                           _______ _______ _______ _____ _____    ______ ____
DOCKED: ROOT
DOCKED: ATOM      1  C   UNL d   1      47.584  26.919  18.685 -0.08 +0.03    +0.064 A 
DOCKED: ATOM      2  C   UNL d   1      45.334  31.097  18.978 -0.23 +0.02    +0.064 C 
DOCKED: ATOM      3  C   UNL d   1      41.625  29.313  16.551 -0.18 +0.01    +0.064 A 
DOCKED: ATOM      4  C   UNL d   1      43.736  24.930  16.574 -0.18 +0.02    +0.064 A 
DOCKED: ATOM      5  C   UNL d   1      47.257  28.201  18.912 -0.09 +0.03    +0.066 A 
DOCKED: ATOM      6  C   UNL d   1      48.076  29.058  19.674 -0.06 -0.01    -0.021 A 
DOCKED: ATOM      7  C   UNL d   1      47.407  30.262  19.775 -0.10 -0.01    -0.025 A 
DOCKED: ATOM      8  C   UNL d   1      46.218  30.095  19.057 -0.14 +0.03    +0.066 A 
DOCKED: ATOM      9  C   UNL d   1      47.857  31.531  20.516 -0.08 +0.02    +0.051 C 
DOCKED: ATOM     10  C   UNL d   1      44.097  31.026  18.241 -0.26 +0.02    +0.066 A 
DOCKED: ATOM     11  C   UNL d   1      43.194  32.086  18.003 -0.39 -0.00    -0.021 A 
DOCKED: ATOM     12  C   UNL d   1      42.124  31.538  17.290 -0.43 +0.00    +0.000 A 
DOCKED: ATOM     13  C   UNL d   1      42.458  30.193  17.135 -0.32 +0.02    +0.070 A 
DOCKED: ATOM     14  C   UNL d   1      43.406  33.535  18.358 -0.37 +0.00    +0.052 C 
DOCKED: ATOM     15  C   UNL d   1      41.785  27.885  16.355 -0.29 +0.01    +0.066 A 
DOCKED: ATOM     16  C   UNL d   1      40.824  27.008  15.874 -0.39 -0.00    -0.021 A 
DOCKED: ATOM     17  C   UNL d   1      41.427  25.742  15.881 -0.41 +0.00    +0.000 A 
DOCKED: ATOM     18  C   UNL d   1      42.719  25.951  16.352 -0.28 +0.02    +0.070 A 
DOCKED: ATOM     19  C   UNL d   1      39.425  27.389  15.444 -0.41 +0.01    +0.052 C 
DOCKED: ATOM     20  C   UNL d   1      44.968  25.097  17.112 -0.20 +0.03    +0.066 A 
DOCKED: ATOM     21  C   UNL d   1      45.843  24.031  17.309 -0.18 -0.01    -0.025 A 
DOCKED: ATOM     22  C   UNL d   1      46.972  24.578  17.890 -0.13 -0.01    -0.021 A 
DOCKED: ATOM     23  C   UNL d   1      46.723  25.960  18.030 -0.12 +0.03    +0.066 A 
DOCKED: ATOM     24  C   UNL d   1      45.608  22.559  16.979 -0.21 +0.03    +0.051 C 
DOCKED: ATOM     25  N   UNL d   1      46.101  28.830  18.507 -0.08 -0.11    -0.248 N 
DOCKED: ATOM     26  N   UNL d   1      43.676  29.897  17.662 -0.18 -0.07    -0.248 N 
DOCKED: ATOM     27  N   UNL d   1      42.887  27.234  16.652 -0.20 -0.06    -0.248 N 
DOCKED: ATOM     28  N   UNL d   1      45.510  26.278  17.562 -0.11 -0.10    -0.248 N 
DOCKED: ATOM     29 FE   UNL d   1      44.401  27.981  17.524 -0.05 +0.00    +0.000 Fe
DOCKED: ENDROOT
DOCKED: BRANCH   6  30
DOCKED: ATOM     30  C   UNL d   1      49.400  28.697  20.339 -0.02 +0.02    +0.052 C 
DOCKED: BRANCH  30  31
DOCKED: ATOM     31  C   UNL d   1      49.159  27.879  21.607 -0.03 +0.06    +0.115 C 
DOCKED: BRANCH  31  32
DOCKED: ATOM     32  C   UNL d   1      47.732  27.986  22.100 +0.00 +0.16    +0.139 C 
DOCKED: ATOM     33  O   UNL d   1      47.431  28.875  22.884 -0.19 -0.96    -0.650 OA
DOCKED: BRANCH  32  34
DOCKED: ATOM     34  O   UNL d   1      46.758  27.154  21.664 -0.37 -1.18    -0.776 OA
DOCKED: ATOM     35  H   UNL d   1      46.883  26.210  21.497 +0.02 +0.17    +0.167 HD
DOCKED: ENDBRANCH  32  34
DOCKED: ENDBRANCH  31  32
DOCKED: ENDBRANCH  30  31
DOCKED: ENDBRANCH   6  30
DOCKED: BRANCH  29  36
DOCKED: ATOM     36  C   UNL d   1      43.647  27.561  19.435 +0.27 +0.12    +0.190 C 
DOCKED: BRANCH  36  37
DOCKED: ATOM     37  O   UNL d   1      44.005  27.505  20.786 -0.38 -0.53    -0.399 OA
DOCKED: ATOM     38  H   UNL d   1      44.990  27.344  20.784 +0.05 +0.29    +0.209 HD
DOCKED: ENDBRANCH  36  37
DOCKED: ENDBRANCH  29  36
DOCKED: BRANCH  22  39
DOCKED: ATOM     39  C   UNL d   1      48.194  23.801  18.342 -0.10 +0.04    +0.052 C 
DOCKED: BRANCH  39  40
DOCKED: ATOM     40  C   UNL d   1      48.832  24.462  19.576 -0.02 +0.06    +0.115 C 
DOCKED: BRANCH  40  41
DOCKED: ATOM     41  C   UNL d   1      47.941  24.490  20.800 -0.01 +0.07    +0.139 C 
DOCKED: ATOM     42  O   UNL d   1      46.789  24.090  20.711 +0.04 -0.33    -0.650 OA
DOCKED: BRANCH  41  43
DOCKED: ATOM     43  O   UNL d   1      48.410  24.864  22.011 +0.03 -0.39    -0.776 OA
DOCKED: ATOM     44  H   UNL d   1      48.100  25.657  22.466 +0.01 +0.11    +0.167 HD
DOCKED: ENDBRANCH  41  43
DOCKED: ENDBRANCH  40  41
DOCKED: ENDBRANCH  39  40
DOCKED: ENDBRANCH  22  39
DOCKED: BRANCH  12  45
DOCKED: ATOM     45  C   UNL d   1      40.842  32.133  16.724 -0.52 +0.00    +0.004 C 
DOCKED: ATOM     46  C   UNL d   1      40.650  32.975  15.712 -0.52 +0.00    +0.012 C 
DOCKED: ENDBRANCH  12  45
DOCKED: BRANCH  17  47
DOCKED: ATOM     47  C   UNL d   1      40.852  24.409  15.530 -0.53 +0.00    +0.004 C 
DOCKED: ATOM     48  C   UNL d   1      40.842  23.914  14.290 -0.59 +0.00    +0.012 C 
DOCKED: ENDBRANCH  17  47
DOCKED: TORSDOF 12
DOCKED: TER
DOCKED: ENDMDL
________________________________________________________________________________


	BEGINNING GENETIC ALGORITHM DOCKING 69 of 100
Run: 69 Seed: 567714340 2110841135 [ Run 69 of 100 GA/GALS ]
Beginning LAMARCKIAN GENETIC ALGORITHM (LGA), with a maximum of 25000000 energy evaluations.

Final-Value: -13.053


	FINAL GENETIC ALGORITHM DOCKED STATE
	_______________________________________________


Detailed state:  trans 7.963 39.720 -5.446 quatxyzw -0.886049 0.049504 0.458138 -0.050749 center 8.781 34.984 -0.736 ntor 12 15.7332 108.9416 -136.7583 115.9093 -20.3241 79.6858 106.4742 123.7448 29.9699 144.9647 178.5252 167.6471
State:	  7.963  39.720  -5.446  -0.887  0.050  0.459 -174.182     15.73  108.94 -136.76  115.91  -20.32   79.69  106.47  123.74   29.97  144.96  178.53  167.65

DOCKED: MODEL       69
DOCKED: USER    Run = 69
DOCKED: USER    DPF = D:/Protein_go_brrr/autodock/final/6BB5/heme_Co/dock.dpf
DOCKED: USER  
DOCKED: USER    Estimated Free Energy of Binding    =   -7.49 kcal/mol  [=(1)+(2)+(3)-(4)]
DOCKED: USER    Estimated Inhibition Constant, Ki   =    3.23 uM (micromolar)  [Temperature = 298.15 K]
DOCKED: USER    
DOCKED: USER    (1) Final Intermolecular Energy     =  -11.07 kcal/mol
DOCKED: USER        vdW + Hbond + desolv Energy     =   -8.93 kcal/mol
DOCKED: USER        Electrostatic Energy            =   -2.14 kcal/mol
DOCKED: USER    (2) Final Total Internal Energy     =   -1.98 kcal/mol
DOCKED: USER    (3) Torsional Free Energy           =   +3.58 kcal/mol
DOCKED: USER    (4) Unbound System's Energy  [=(2)] =   -1.98 kcal/mol
DOCKED: USER    
DOCKED: USER    
DOCKED: USER    NEWDPF move heme_Co_opt.pdbqt
DOCKED: USER    NEWDPF about 8.781000 34.984000 -0.736000
DOCKED: USER    NEWDPF tran0 7.962542 39.720270 -5.445857
DOCKED: USER    NEWDPF quaternion0 -0.886049 0.049504 0.458138 -0.050749
DOCKED: USER    NEWDPF axisangle0 -0.887193 0.049568 0.458729 -174.182067
DOCKED: USER    NEWDPF quat0 -0.887193 0.049568 0.458729 -174.182067
DOCKED: USER    NEWDPF dihe0 15.73 108.94 -136.76 115.91 -20.32 79.69 106.47 123.74 29.97 144.96 178.53 167.65 
DOCKED: USER  keepresnum = 1 
DOCKED: USER  
DOCKED: REMARK  12 active torsions:
DOCKED: REMARK  status: ('A' for Active; 'I' for Inactive)
DOCKED: REMARK    1  A    between atoms: C_6  and  C_10 
DOCKED: REMARK    2  A    between atoms: C_10  and  C_11 
DOCKED: REMARK    3  A    between atoms: C_11  and  C_12 
DOCKED: REMARK    4  A    between atoms: C_12  and  O_14 
DOCKED: REMARK    5  A    between atoms: C_17  and  C_20 
DOCKED: REMARK    6  A    between atoms: C_24  and  C_27 
DOCKED: REMARK    7  A    between atoms: C_31  and  C_34 
DOCKED: REMARK    8  A    between atoms: C_34  and  C_35 
DOCKED: REMARK    9  A    between atoms: C_35  and  C_36 
DOCKED: REMARK   10  A    between atoms: C_36  and  O_38 
DOCKED: REMARK   11  A    between atoms: FE_43  and  C_44 
DOCKED: REMARK   12  A    between atoms: C_44  and  O_45 
DOCKED: USER                              x       y       z     vdW  Elec       q    Type
DOCKED: USER                           _______ _______ _______ _____ _____    ______ ____
DOCKED: ROOT
DOCKED: ATOM      1  C   UNL d   1       7.468  39.191  -3.399 -0.33 -0.00    +0.064 A 
DOCKED: ATOM      2  C   UNL d   1       5.536  42.278  -6.456 -0.03 +0.01    +0.064 C 
DOCKED: ATOM      3  C   UNL d   1       8.989  41.355  -9.628 -0.13 -0.05    +0.064 A 
DOCKED: ATOM      4  C   UNL d   1      10.761  37.916  -6.678 -0.09 -0.01    +0.064 A 
DOCKED: ATOM      5  C   UNL d   1       6.707  40.129  -3.987 -0.26 +0.00    +0.066 A 
DOCKED: ATOM      6  C   UNL d   1       5.529  40.618  -3.389 -0.23 -0.00    -0.021 A 
DOCKED: ATOM      7  C   UNL d   1       4.961  41.497  -4.291 -0.17 -0.01    -0.025 A 
DOCKED: ATOM      8  C   UNL d   1       5.823  41.518  -5.392 -0.15 +0.01    +0.066 A 
DOCKED: ATOM      9  C   UNL d   1       3.655  42.292  -4.136 -0.15 +0.02    +0.051 C 
DOCKED: ATOM     10  C   UNL d   1       6.376  42.384  -7.623 -0.10 -0.00    +0.066 A 
DOCKED: ATOM     11  C   UNL d   1       6.203  43.268  -8.710 -0.10 +0.00    -0.021 A 
DOCKED: ATOM     12  C   UNL d   1       7.226  42.980  -9.618 -0.11 -0.00    +0.000 A 
DOCKED: ATOM     13  C   UNL d   1       7.953  41.954  -9.014 -0.14 -0.04    +0.070 A 
DOCKED: ATOM     14  C   UNL d   1       5.179  44.370  -8.810 -0.07 +0.01    +0.052 C 
DOCKED: ATOM     15  C   UNL d   1       9.813  40.252  -9.175 -0.20 -0.05    +0.066 A 
DOCKED: ATOM     16  C   UNL d   1      10.776  39.585  -9.919 -0.20 +0.01    -0.021 A 
DOCKED: ATOM     17  C   UNL d   1      11.288  38.590  -9.073 -0.34 -0.00    +0.000 A 
DOCKED: ATOM     18  C   UNL d   1      10.607  38.742  -7.870 -0.33 -0.03    +0.070 A 
DOCKED: ATOM     19  C   UNL d   1      11.156  39.903 -11.348 -0.11 -0.02    +0.052 C 
DOCKED: ATOM     20  C   UNL d   1      10.050  37.989  -5.528 -0.27 -0.01    +0.066 A 
DOCKED: ATOM     21  C   UNL d   1      10.265  37.116  -4.464 -0.45 +0.00    -0.025 A 
DOCKED: ATOM     22  C   UNL d   1       9.350  37.478  -3.493 -0.43 +0.00    -0.021 A 
DOCKED: ATOM     23  C   UNL d   1       8.607  38.556  -4.021 -0.36 -0.01    +0.066 A 
DOCKED: ATOM     24  C   UNL d   1      11.280  35.979  -4.383 -0.39 +0.00    +0.051 C 
DOCKED: ATOM     25  N   UNL d   1       6.917  40.685  -5.228 -0.14 +0.02    -0.248 N 
DOCKED: ATOM     26  N   UNL d   1       7.472  41.634  -7.783 -0.10 +0.08    -0.248 N 
DOCKED: ATOM     27  N   UNL d   1       9.716  39.721  -7.977 -0.20 +0.15    -0.248 N 
DOCKED: ATOM     28  N   UNL d   1       9.026  38.866  -5.254 -0.17 +0.08    -0.248 N 
DOCKED: ATOM     29 FE   UNL d   1       8.401  40.172  -6.682 -0.06 -0.00    +0.000 Fe
DOCKED: ENDROOT
DOCKED: BRANCH   6  30
DOCKED: ATOM     30  C   UNL d   1       4.945  40.191  -2.047 -0.30 +0.02    +0.052 C 
DOCKED: BRANCH  30  31
DOCKED: ATOM     31  C   UNL d   1       3.853  39.140  -2.247 -0.18 +0.06    +0.115 C 
DOCKED: BRANCH  31  32
DOCKED: ATOM     32  C   UNL d   1       2.815  39.169  -1.146 -0.09 +0.18    +0.139 C 
DOCKED: ATOM     33  O   UNL d   1       3.107  39.641  -0.058 -0.25 -1.39    -0.650 OA
DOCKED: BRANCH  32  34
DOCKED: ATOM     34  O   UNL d   1       1.549  38.731  -1.341 -0.47 -1.18    -0.776 OA
DOCKED: ATOM     35  H   UNL d   1       1.261  38.230  -2.117 +0.02 +0.13    +0.167 HD
DOCKED: ENDBRANCH  32  34
DOCKED: ENDBRANCH  31  32
DOCKED: ENDBRANCH  30  31
DOCKED: ENDBRANCH   6  30
DOCKED: BRANCH  29  36
DOCKED: ATOM     36  C   UNL d   1       7.036  38.757  -7.411 -0.09 -0.02    +0.190 C 
DOCKED: BRANCH  36  37
DOCKED: ATOM     37  O   UNL d   1       6.474  37.507  -7.136 -0.05 +0.00    -0.399 OA
DOCKED: ATOM     38  H   UNL d   1       6.950  37.186  -6.320 +0.07 -0.00    +0.209 HD
DOCKED: ENDBRANCH  36  37
DOCKED: ENDBRANCH  29  36
DOCKED: BRANCH  22  39
DOCKED: ATOM     39  C   UNL d   1       9.161  36.781  -2.158 -0.43 +0.00    +0.052 C 
DOCKED: BRANCH  39  40
DOCKED: ATOM     40  C   UNL d   1       8.103  35.671  -2.271 -0.36 +0.01    +0.115 C 
DOCKED: BRANCH  40  41
DOCKED: ATOM     41  C   UNL d   1       6.899  36.039  -3.113 -0.28 +0.01    +0.139 C 
DOCKED: ATOM     42  O   UNL d   1       5.878  36.424  -2.561 +0.03 -0.09    -0.650 OA
DOCKED: BRANCH  41  43
DOCKED: ATOM     43  O   UNL d   1       6.949  36.037  -4.463 +0.06 -0.03    -0.776 OA
DOCKED: ATOM     44  H   UNL d   1       6.641  36.782  -4.995 +0.06 +0.01    +0.167 HD
DOCKED: ENDBRANCH  41  43
DOCKED: ENDBRANCH  40  41
DOCKED: ENDBRANCH  39  40
DOCKED: ENDBRANCH  22  39
DOCKED: BRANCH  12  45
DOCKED: ATOM     45  C   UNL d   1       7.609  43.566 -10.971 -0.08 -0.00    +0.004 C 
DOCKED: ATOM     46  C   UNL d   1       8.628  44.347 -11.319 -0.12 -0.01    +0.012 C 
DOCKED: ENDBRANCH  12  45
DOCKED: BRANCH  17  47
DOCKED: ATOM     47  C   UNL d   1      12.301  37.529  -9.353 -0.28 -0.00    +0.004 C 
DOCKED: ATOM     48  C   UNL d   1      12.334  36.821 -10.485 -0.38 -0.00    +0.012 C 
DOCKED: ENDBRANCH  17  47
DOCKED: TORSDOF 12
DOCKED: TER
DOCKED: ENDMDL
________________________________________________________________________________


	BEGINNING GENETIC ALGORITHM DOCKING 70 of 100
Run: 70 Seed: 1431973893 1502562954 [ Run 70 of 100 GA/GALS ]
Beginning LAMARCKIAN GENETIC ALGORITHM (LGA), with a maximum of 25000000 energy evaluations.

Final-Value: -19.490


	FINAL GENETIC ALGORITHM DOCKED STATE
	_______________________________________________


Detailed state:  trans 40.766 28.860 15.735 quatxyzw 0.348300 -0.408460 -0.843054 0.033281 center 8.781 34.984 -0.736 ntor 12 147.9207 137.4147 -47.5404 -98.9969 -69.3065 2.1659 129.0866 127.9611 -55.8686 15.8036 -155.7422 -179.8006
State:	 40.766  28.860  15.735   0.348 -0.409 -0.844 176.186    147.92  137.41  -47.54  -99.00  -69.31    2.17  129.09  127.96  -55.87   15.80 -155.74 -179.80

DOCKED: MODEL       70
DOCKED: USER    Run = 70
DOCKED: USER    DPF = D:/Protein_go_brrr/autodock/final/6BB5/heme_Co/dock.dpf
DOCKED: USER  
DOCKED: USER    Estimated Free Energy of Binding    =  -13.60 kcal/mol  [=(1)+(2)+(3)-(4)]
DOCKED: USER    Estimated Inhibition Constant, Ki   =  107.26 pM (picomolar)  [Temperature = 298.15 K]
DOCKED: USER    
DOCKED: USER    (1) Final Intermolecular Energy     =  -17.18 kcal/mol
DOCKED: USER        vdW + Hbond + desolv Energy     =  -15.22 kcal/mol
DOCKED: USER        Electrostatic Energy            =   -1.96 kcal/mol
DOCKED: USER    (2) Final Total Internal Energy     =   -2.31 kcal/mol
DOCKED: USER    (3) Torsional Free Energy           =   +3.58 kcal/mol
DOCKED: USER    (4) Unbound System's Energy  [=(2)] =   -2.31 kcal/mol
DOCKED: USER    
DOCKED: USER    
DOCKED: USER    NEWDPF move heme_Co_opt.pdbqt
DOCKED: USER    NEWDPF about 8.781000 34.984000 -0.736000
DOCKED: USER    NEWDPF tran0 40.766489 28.860416 15.735078
DOCKED: USER    NEWDPF quaternion0 0.348300 -0.408460 -0.843054 0.033281
DOCKED: USER    NEWDPF axisangle0 0.348493 -0.408687 -0.843521 176.185558
DOCKED: USER    NEWDPF quat0 0.348493 -0.408687 -0.843521 176.185558
DOCKED: USER    NEWDPF dihe0 147.92 137.41 -47.54 -99.00 -69.31 2.17 129.09 127.96 -55.87 15.80 -155.74 -179.80 
DOCKED: USER  keepresnum = 1 
DOCKED: USER  
DOCKED: REMARK  12 active torsions:
DOCKED: REMARK  status: ('A' for Active; 'I' for Inactive)
DOCKED: REMARK    1  A    between atoms: C_6  and  C_10 
DOCKED: REMARK    2  A    between atoms: C_10  and  C_11 
DOCKED: REMARK    3  A    between atoms: C_11  and  C_12 
DOCKED: REMARK    4  A    between atoms: C_12  and  O_14 
DOCKED: REMARK    5  A    between atoms: C_17  and  C_20 
DOCKED: REMARK    6  A    between atoms: C_24  and  C_27 
DOCKED: REMARK    7  A    between atoms: C_31  and  C_34 
DOCKED: REMARK    8  A    between atoms: C_34  and  C_35 
DOCKED: REMARK    9  A    between atoms: C_35  and  C_36 
DOCKED: REMARK   10  A    between atoms: C_36  and  O_38 
DOCKED: REMARK   11  A    between atoms: FE_43  and  C_44 
DOCKED: REMARK   12  A    between atoms: C_44  and  O_45 
DOCKED: USER                              x       y       z     vdW  Elec       q    Type
DOCKED: USER                           _______ _______ _______ _____ _____    ______ ____
DOCKED: ROOT
DOCKED: ATOM      1  C   UNL d   1      42.534  28.366  16.896 -0.20 +0.02    +0.064 A 
DOCKED: ATOM      2  C   UNL d   1      40.397  32.504  15.935 -0.46 +0.01    +0.064 C 
DOCKED: ATOM      3  C   UNL d   1      37.320  30.283  13.032 -0.33 +0.01    +0.064 A 
DOCKED: ATOM      4  C   UNL d   1      39.240  25.996  14.297 -0.40 +0.01    +0.064 A 
DOCKED: ATOM      5  C   UNL d   1      42.199  29.664  16.818 -0.28 +0.01    +0.066 A 
DOCKED: ATOM      6  C   UNL d   1      42.838  30.649  17.597 -0.35 -0.00    -0.021 A 
DOCKED: ATOM      7  C   UNL d   1      42.199  31.844  17.331 -0.43 -0.00    -0.025 A 
DOCKED: ATOM      8  C   UNL d   1      41.209  31.541  16.390 -0.38 +0.01    +0.066 A 
DOCKED: ATOM      9  C   UNL d   1      42.497  33.226  17.933 -0.38 +0.00    +0.051 C 
DOCKED: ATOM     10  C   UNL d   1      39.369  32.292  14.947 -0.37 +0.01    +0.066 A 
DOCKED: ATOM     11  C   UNL d   1      38.579  33.283  14.326 -0.39 -0.00    -0.021 A 
DOCKED: ATOM     12  C   UNL d   1      37.693  32.609  13.481 -0.39 +0.00    +0.000 A 
DOCKED: ATOM     13  C   UNL d   1      38.015  31.261  13.640 -0.37 +0.01    +0.070 A 
DOCKED: ATOM     14  C   UNL d   1      38.741  34.775  14.471 -0.51 +0.00    +0.052 C 
DOCKED: ATOM     15  C   UNL d   1      37.481  28.846  13.124 -0.41 +0.01    +0.066 A 
DOCKED: ATOM     16  C   UNL d   1      36.637  27.886  12.583 -0.53 -0.00    -0.021 A 
DOCKED: ATOM     17  C   UNL d   1      37.185  26.648  12.947 -0.47 +0.00    +0.000 A 
DOCKED: ATOM     18  C   UNL d   1      38.334  26.951  13.670 -0.38 +0.01    +0.070 A 
DOCKED: ATOM     19  C   UNL d   1      35.390  28.170  11.775 -0.56 +0.00    +0.052 C 
DOCKED: ATOM     20  C   UNL d   1      40.314  26.268  15.076 -0.40 +0.01    +0.066 A 
DOCKED: ATOM     21  C   UNL d   1      41.087  25.263  15.653 -0.41 -0.00    -0.025 A 
DOCKED: ATOM     22  C   UNL d   1      42.062  25.917  16.385 -0.36 -0.00    -0.021 A 
DOCKED: ATOM     23  C   UNL d   1      41.826  27.299  16.226 -0.32 +0.01    +0.066 A 
DOCKED: ATOM     24  C   UNL d   1      40.895  23.754  15.530 -0.54 +0.01    +0.051 C 
DOCKED: ATOM     25  N   UNL d   1      41.190  30.199  16.050 +0.04 -0.06    -0.248 N 
DOCKED: ATOM     26  N   UNL d   1      39.065  31.075  14.483 -0.22 -0.04    -0.248 N 
DOCKED: ATOM     27  N   UNL d   1      38.463  28.269  13.781 -0.20 -0.05    -0.248 N 
DOCKED: ATOM     28  N   UNL d   1      40.767  27.516  15.437 -0.17 -0.06    -0.248 N 
DOCKED: ATOM     29 FE   UNL d   1      39.747  29.174  14.848 -0.08 +0.00    +0.000 Fe
DOCKED: ENDROOT
DOCKED: BRANCH   6  30
DOCKED: ATOM     30  C   UNL d   1      43.956  30.424  18.609 -0.33 +0.02    +0.052 C 
DOCKED: BRANCH  30  31
DOCKED: ATOM     31  C   UNL d   1      43.420  29.720  19.855 +0.13 +0.07    +0.115 C 
DOCKED: BRANCH  31  32
DOCKED: ATOM     32  C   UNL d   1      44.134  28.415  20.134 -0.18 +0.13    +0.139 C 
DOCKED: ATOM     33  O   UNL d   1      45.023  28.044  19.382 +0.00 -0.43    -0.650 OA
DOCKED: BRANCH  32  34
DOCKED: ATOM     34  O   UNL d   1      43.853  27.662  21.223 -0.26 -1.35    -0.776 OA
DOCKED: ATOM     35  H   UNL d   1      43.854  26.695  21.230 +0.05 +0.23    +0.167 HD
DOCKED: ENDBRANCH  32  34
DOCKED: ENDBRANCH  31  32
DOCKED: ENDBRANCH  30  31
DOCKED: ENDBRANCH   6  30
DOCKED: BRANCH  29  36
DOCKED: ATOM     36  C   UNL d   1      38.551  29.076  16.567 -0.10 +0.05    +0.190 C 
DOCKED: BRANCH  36  37
DOCKED: ATOM     37  O   UNL d   1      37.549  28.322  17.186 -0.57 -0.09    -0.399 OA
DOCKED: ATOM     38  H   UNL d   1      37.641  27.407  16.799 +0.12 +0.05    +0.209 HD
DOCKED: ENDBRANCH  36  37
DOCKED: ENDBRANCH  29  36
DOCKED: BRANCH  22  39
DOCKED: ATOM     39  C   UNL d   1      43.119  25.243  17.240 -0.32 +0.01    +0.052 C 
DOCKED: BRANCH  39  40
DOCKED: ATOM     40  C   UNL d   1      42.523  24.789  18.582 -0.37 +0.03    +0.115 C 
DOCKED: BRANCH  40  41
DOCKED: ATOM     41  C   UNL d   1      43.548  24.328  19.597 -0.29 +0.06    +0.139 C 
DOCKED: ATOM     42  O   UNL d   1      43.820  23.139  19.675 -0.42 -0.28    -0.650 OA
DOCKED: BRANCH  41  43
DOCKED: ATOM     43  O   UNL d   1      44.235  25.206  20.362 +0.06 -0.48    -0.776 OA
DOCKED: ATOM     44  H   UNL d   1      44.586  26.035  20.012 +0.06 +0.12    +0.167 HD
DOCKED: ENDBRANCH  41  43
DOCKED: ENDBRANCH  40  41
DOCKED: ENDBRANCH  39  40
DOCKED: ENDBRANCH  22  39
DOCKED: BRANCH  12  45
DOCKED: ATOM     45  C   UNL d   1      36.598  33.081  12.534 -0.55 +0.00    +0.004 C 
DOCKED: ATOM     46  C   UNL d   1      35.273  33.008  12.636 -0.65 +0.00    +0.012 C 
DOCKED: ENDBRANCH  12  45
DOCKED: BRANCH  17  47
DOCKED: ATOM     47  C   UNL d   1      36.671  25.268  12.700 -0.65 +0.00    +0.004 C 
DOCKED: ATOM     48  C   UNL d   1      35.870  24.616  13.547 -0.70 +0.00    +0.012 C 
DOCKED: ENDBRANCH  17  47
DOCKED: TORSDOF 12
DOCKED: TER
DOCKED: ENDMDL
________________________________________________________________________________


	BEGINNING GENETIC ALGORITHM DOCKING 71 of 100
Run: 71 Seed: 489373756 954987148 [ Run 71 of 100 GA/GALS ]
Beginning LAMARCKIAN GENETIC ALGORITHM (LGA), with a maximum of 25000000 energy evaluations.

Final-Value: -17.240


	FINAL GENETIC ALGORITHM DOCKED STATE
	_______________________________________________


Detailed state:  trans 40.703 28.598 15.699 quatxyzw -0.348930 0.373441 0.855756 -0.080450 center 8.781 34.984 -0.736 ntor 12 98.7157 133.5325 134.4056 -103.4657 -81.8409 16.7948 10.9941 -49.4647 -33.5537 38.5058 35.9234 169.0566
State:	 40.703  28.598  15.699  -0.350  0.375  0.859 -170.771     98.72  133.53  134.41 -103.47  -81.84   16.79   10.99  -49.46  -33.55   38.51   35.92  169.06

DOCKED: MODEL       71
DOCKED: USER    Run = 71
DOCKED: USER    DPF = D:/Protein_go_brrr/autodock/final/6BB5/heme_Co/dock.dpf
DOCKED: USER  
DOCKED: USER    Estimated Free Energy of Binding    =  -12.97 kcal/mol  [=(1)+(2)+(3)-(4)]
DOCKED: USER    Estimated Inhibition Constant, Ki   =  311.12 pM (picomolar)  [Temperature = 298.15 K]
DOCKED: USER    
DOCKED: USER    (1) Final Intermolecular Energy     =  -16.55 kcal/mol
DOCKED: USER        vdW + Hbond + desolv Energy     =  -15.34 kcal/mol
DOCKED: USER        Electrostatic Energy            =   -1.21 kcal/mol
DOCKED: USER    (2) Final Total Internal Energy     =   -0.69 kcal/mol
DOCKED: USER    (3) Torsional Free Energy           =   +3.58 kcal/mol
DOCKED: USER    (4) Unbound System's Energy  [=(2)] =   -0.69 kcal/mol
DOCKED: USER    
DOCKED: USER    
DOCKED: USER    NEWDPF move heme_Co_opt.pdbqt
DOCKED: USER    NEWDPF about 8.781000 34.984000 -0.736000
DOCKED: USER    NEWDPF tran0 40.703377 28.598270 15.698758
DOCKED: USER    NEWDPF quaternion0 -0.348930 0.373441 0.855756 -0.080450
DOCKED: USER    NEWDPF axisangle0 -0.350065 0.374655 0.858539 -170.771079
DOCKED: USER    NEWDPF quat0 -0.350065 0.374655 0.858539 -170.771079
DOCKED: USER    NEWDPF dihe0 98.72 133.53 134.41 -103.47 -81.84 16.79 10.99 -49.46 -33.55 38.51 35.92 169.06 
DOCKED: USER  keepresnum = 1 
DOCKED: USER  
DOCKED: REMARK  12 active torsions:
DOCKED: REMARK  status: ('A' for Active; 'I' for Inactive)
DOCKED: REMARK    1  A    between atoms: C_6  and  C_10 
DOCKED: REMARK    2  A    between atoms: C_10  and  C_11 
DOCKED: REMARK    3  A    between atoms: C_11  and  C_12 
DOCKED: REMARK    4  A    between atoms: C_12  and  O_14 
DOCKED: REMARK    5  A    between atoms: C_17  and  C_20 
DOCKED: REMARK    6  A    between atoms: C_24  and  C_27 
DOCKED: REMARK    7  A    between atoms: C_31  and  C_34 
DOCKED: REMARK    8  A    between atoms: C_34  and  C_35 
DOCKED: REMARK    9  A    between atoms: C_35  and  C_36 
DOCKED: REMARK   10  A    between atoms: C_36  and  O_38 
DOCKED: REMARK   11  A    between atoms: FE_43  and  C_44 
DOCKED: REMARK   12  A    between atoms: C_44  and  O_45 
DOCKED: USER                              x       y       z     vdW  Elec       q    Type
DOCKED: USER                           _______ _______ _______ _____ _____    ______ ____
DOCKED: ROOT
DOCKED: ATOM      1  C   UNL d   1      42.400  27.892  16.856 -0.12 +0.02    +0.064 A 
DOCKED: ATOM      2  C   UNL d   1      40.517  32.218  16.261 -0.46 +0.01    +0.064 C 
DOCKED: ATOM      3  C   UNL d   1      37.434  30.476  13.053 -0.35 +0.01    +0.064 A 
DOCKED: ATOM      4  C   UNL d   1      39.082  25.983  13.928 -0.41 +0.01    +0.064 A 
DOCKED: ATOM      5  C   UNL d   1      42.136  29.208  16.902 -0.22 +0.02    +0.066 A 
DOCKED: ATOM      6  C   UNL d   1      42.797  30.072  17.797 -0.28 -0.01    -0.021 A 
DOCKED: ATOM      7  C   UNL d   1      42.231  31.321  17.636 -0.42 -0.00    -0.025 A 
DOCKED: ATOM      8  C   UNL d   1      41.261  31.170  16.639 -0.37 +0.01    +0.066 A 
DOCKED: ATOM      9  C   UNL d   1      42.578  32.617  18.385 -0.42 +0.01    +0.051 C 
DOCKED: ATOM     10  C   UNL d   1      39.515  32.164  15.226 -0.37 +0.01    +0.066 A 
DOCKED: ATOM     11  C   UNL d   1      38.800  33.256  14.687 -0.41 -0.00    -0.021 A 
DOCKED: ATOM     12  C   UNL d   1      37.911  32.720  13.751 -0.39 +0.00    +0.000 A 
DOCKED: ATOM     13  C   UNL d   1      38.157  31.347  13.779 -0.38 +0.01    +0.070 A 
DOCKED: ATOM     14  C   UNL d   1      39.035  34.713  14.990 -0.55 +0.00    +0.052 C 
DOCKED: ATOM     15  C   UNL d   1      37.517  29.030  13.001 -0.41 +0.01    +0.066 A 
DOCKED: ATOM     16  C   UNL d   1      36.644  28.178  12.340 -0.55 -0.00    -0.021 A 
DOCKED: ATOM     17  C   UNL d   1      37.114  26.881  12.591 -0.49 +0.00    +0.000 A 
DOCKED: ATOM     18  C   UNL d   1      38.251  27.045  13.375 -0.38 +0.01    +0.070 A 
DOCKED: ATOM     19  C   UNL d   1      35.444  28.611  11.528 -0.48 +0.00    +0.052 C 
DOCKED: ATOM     20  C   UNL d   1      40.140  26.115  14.763 -0.40 +0.01    +0.066 A 
DOCKED: ATOM     21  C   UNL d   1      40.839  25.016  15.257 -0.45 -0.00    -0.025 A 
DOCKED: ATOM     22  C   UNL d   1      41.820  25.537  16.081 -0.36 -0.00    -0.021 A 
DOCKED: ATOM     23  C   UNL d   1      41.662  26.939  16.058 -0.35 +0.01    +0.066 A 
DOCKED: ATOM     24  C   UNL d   1      40.574  23.540  14.973 -0.54 +0.01    +0.051 C 
DOCKED: ATOM     25  N   UNL d   1      41.185  29.873  16.162 -0.01 -0.06    -0.248 N 
DOCKED: ATOM     26  N   UNL d   1      39.165  31.019  14.631 -0.21 -0.04    -0.248 N 
DOCKED: ATOM     27  N   UNL d   1      38.443  28.336  13.625 -0.19 -0.05    -0.248 N 
DOCKED: ATOM     28  N   UNL d   1      40.645  27.293  15.264 -0.20 -0.06    -0.248 N 
DOCKED: ATOM     29 FE   UNL d   1      39.734  29.055  14.818 -0.08 +0.00    +0.000 Fe
DOCKED: ENDROOT
DOCKED: BRANCH   6  30
DOCKED: ATOM     30  C   UNL d   1      43.865  29.684  18.814 -0.31 +0.02    +0.052 C 
DOCKED: BRANCH  30  31
DOCKED: ATOM     31  C   UNL d   1      45.166  30.438  18.540 -0.22 +0.04    +0.115 C 
DOCKED: BRANCH  31  32
DOCKED: ATOM     32  C   UNL d   1      45.901  30.802  19.813 -0.16 +0.07    +0.139 C 
DOCKED: ATOM     33  O   UNL d   1      46.096  31.979  20.078 -0.00 -0.23    -0.650 OA
DOCKED: BRANCH  32  34
DOCKED: ATOM     34  O   UNL d   1      46.310  29.865  20.699 -0.02 -0.64    -0.776 OA
DOCKED: ATOM     35  H   UNL d   1      47.195  29.474  20.707 +0.02 +0.12    +0.167 HD
DOCKED: ENDBRANCH  32  34
DOCKED: ENDBRANCH  31  32
DOCKED: ENDBRANCH  30  31
DOCKED: ENDBRANCH   6  30
DOCKED: BRANCH  29  36
DOCKED: ATOM     36  C   UNL d   1      38.474  28.851  16.481 -0.11 +0.05    +0.190 C 
DOCKED: BRANCH  36  37
DOCKED: ATOM     37  O   UNL d   1      37.564  27.980  17.090 -0.64 -0.09    -0.399 OA
DOCKED: ATOM     38  H   UNL d   1      37.772  27.083  16.705 +0.12 +0.05    +0.209 HD
DOCKED: ENDBRANCH  36  37
DOCKED: ENDBRANCH  29  36
DOCKED: BRANCH  22  39
DOCKED: ATOM     39  C   UNL d   1      42.809  24.723  16.894 -0.35 +0.01    +0.052 C 
DOCKED: BRANCH  39  40
DOCKED: ATOM     40  C   UNL d   1      42.236  24.403  18.284 -0.37 +0.03    +0.115 C 
DOCKED: BRANCH  40  41
DOCKED: ATOM     41  C   UNL d   1      43.272  24.333  19.386 -0.31 +0.05    +0.139 C 
DOCKED: ATOM     42  O   UNL d   1      43.572  25.352  19.992 -0.02 -0.34    -0.650 OA
DOCKED: BRANCH  41  43
DOCKED: ATOM     43  O   UNL d   1      43.813  23.158  19.779 -0.36 -0.34    -0.776 OA
DOCKED: ATOM     44  H   UNL d   1      44.747  23.067  20.008 +0.05 +0.08    +0.167 HD
DOCKED: ENDBRANCH  41  43
DOCKED: ENDBRANCH  40  41
DOCKED: ENDBRANCH  39  40
DOCKED: ENDBRANCH  22  39
DOCKED: BRANCH  12  45
DOCKED: ATOM     45  C   UNL d   1      36.877  33.345  12.824 -0.52 +0.00    +0.004 C 
DOCKED: ATOM     46  C   UNL d   1      35.549  33.271  12.834 -0.61 +0.00    +0.012 C 
DOCKED: ENDBRANCH  12  45
DOCKED: BRANCH  17  47
DOCKED: ATOM     47  C   UNL d   1      36.538  25.563  12.187 -0.59 +0.00    +0.004 C 
DOCKED: ATOM     48  C   UNL d   1      35.872  24.763  13.023 -0.71 +0.00    +0.012 C 
DOCKED: ENDBRANCH  17  47
DOCKED: TORSDOF 12
DOCKED: TER
DOCKED: ENDMDL
________________________________________________________________________________


	BEGINNING GENETIC ALGORITHM DOCKING 72 of 100
Run: 72 Seed: 1850852524 396233103 [ Run 72 of 100 GA/GALS ]
Beginning LAMARCKIAN GENETIC ALGORITHM (LGA), with a maximum of 25000000 energy evaluations.

Final-Value: -18.742


	FINAL GENETIC ALGORITHM DOCKED STATE
	_______________________________________________


Detailed state:  trans 40.660 28.859 15.707 quatxyzw -0.360940 0.403981 0.840088 -0.027811 center 8.781 34.984 -0.736 ntor 12 100.3151 131.9600 -126.7834 -98.5902 -77.4604 14.3985 107.4309 -180.0000 -28.9349 43.8595 -119.6477 174.2669
State:	 40.660  28.859  15.707  -0.361  0.404  0.840 -176.813    100.32  131.96 -126.78  -98.59  -77.46   14.40  107.43 -180.00  -28.93   43.86 -119.65  174.27

DOCKED: MODEL       72
DOCKED: USER    Run = 72
DOCKED: USER    DPF = D:/Protein_go_brrr/autodock/final/6BB5/heme_Co/dock.dpf
DOCKED: USER  
DOCKED: USER    Estimated Free Energy of Binding    =  -13.25 kcal/mol  [=(1)+(2)+(3)-(4)]
DOCKED: USER    Estimated Inhibition Constant, Ki   =  193.73 pM (picomolar)  [Temperature = 298.15 K]
DOCKED: USER    
DOCKED: USER    (1) Final Intermolecular Energy     =  -16.83 kcal/mol
DOCKED: USER        vdW + Hbond + desolv Energy     =  -15.05 kcal/mol
DOCKED: USER        Electrostatic Energy            =   -1.78 kcal/mol
DOCKED: USER    (2) Final Total Internal Energy     =   -1.91 kcal/mol
DOCKED: USER    (3) Torsional Free Energy           =   +3.58 kcal/mol
DOCKED: USER    (4) Unbound System's Energy  [=(2)] =   -1.91 kcal/mol
DOCKED: USER    
DOCKED: USER    
DOCKED: USER    NEWDPF move heme_Co_opt.pdbqt
DOCKED: USER    NEWDPF about 8.781000 34.984000 -0.736000
DOCKED: USER    NEWDPF tran0 40.659984 28.859444 15.707491
DOCKED: USER    NEWDPF quaternion0 -0.360940 0.403981 0.840088 -0.027811
DOCKED: USER    NEWDPF axisangle0 -0.361080 0.404138 0.840413 -176.812720
DOCKED: USER    NEWDPF quat0 -0.361080 0.404138 0.840413 -176.812720
DOCKED: USER    NEWDPF dihe0 100.32 131.96 -126.78 -98.59 -77.46 14.40 107.43 -180.00 -28.93 43.86 -119.65 174.27 
DOCKED: USER  keepresnum = 1 
DOCKED: USER  
DOCKED: REMARK  12 active torsions:
DOCKED: REMARK  status: ('A' for Active; 'I' for Inactive)
DOCKED: REMARK    1  A    between atoms: C_6  and  C_10 
DOCKED: REMARK    2  A    between atoms: C_10  and  C_11 
DOCKED: REMARK    3  A    between atoms: C_11  and  C_12 
DOCKED: REMARK    4  A    between atoms: C_12  and  O_14 
DOCKED: REMARK    5  A    between atoms: C_17  and  C_20 
DOCKED: REMARK    6  A    between atoms: C_24  and  C_27 
DOCKED: REMARK    7  A    between atoms: C_31  and  C_34 
DOCKED: REMARK    8  A    between atoms: C_34  and  C_35 
DOCKED: REMARK    9  A    between atoms: C_35  and  C_36 
DOCKED: REMARK   10  A    between atoms: C_36  and  O_38 
DOCKED: REMARK   11  A    between atoms: FE_43  and  C_44 
DOCKED: REMARK   12  A    between atoms: C_44  and  O_45 
DOCKED: USER                              x       y       z     vdW  Elec       q    Type
DOCKED: USER                           _______ _______ _______ _____ _____    ______ ____
DOCKED: ROOT
DOCKED: ATOM      1  C   UNL d   1      42.415  28.404  16.902 -0.15 +0.02    +0.064 A 
DOCKED: ATOM      2  C   UNL d   1      40.205  32.493  15.901 -0.46 +0.01    +0.064 C 
DOCKED: ATOM      3  C   UNL d   1      37.235  30.206  12.939 -0.30 +0.01    +0.064 A 
DOCKED: ATOM      4  C   UNL d   1      39.226  25.963  14.239 -0.40 +0.01    +0.064 A 
DOCKED: ATOM      5  C   UNL d   1      42.053  29.695  16.818 -0.28 +0.01    +0.066 A 
DOCKED: ATOM      6  C   UNL d   1      42.655  30.693  17.610 -0.37 -0.00    -0.021 A 
DOCKED: ATOM      7  C   UNL d   1      41.994  31.873  17.332 -0.44 -0.00    -0.025 A 
DOCKED: ATOM      8  C   UNL d   1      41.030  31.549  16.372 -0.38 +0.01    +0.066 A 
DOCKED: ATOM      9  C   UNL d   1      42.249  33.261  17.939 -0.33 +0.00    +0.051 C 
DOCKED: ATOM     10  C   UNL d   1      39.201  32.259  14.894 -0.37 +0.01    +0.066 A 
DOCKED: ATOM     11  C   UNL d   1      38.401  33.233  14.257 -0.39 -0.00    -0.021 A 
DOCKED: ATOM     12  C   UNL d   1      37.546  32.539  13.396 -0.41 +0.00    +0.000 A 
DOCKED: ATOM     13  C   UNL d   1      37.896  31.199  13.560 -0.37 +0.01    +0.070 A 
DOCKED: ATOM     14  C   UNL d   1      38.527  34.728  14.406 -0.50 +0.00    +0.052 C 
DOCKED: ATOM     15  C   UNL d   1      37.427  28.773  13.033 -0.42 +0.01    +0.066 A 
DOCKED: ATOM     16  C   UNL d   1      36.614  27.795  12.476 -0.54 -0.00    -0.021 A 
DOCKED: ATOM     17  C   UNL d   1      37.183  26.569  12.851 -0.47 +0.00    +0.000 A 
DOCKED: ATOM     18  C   UNL d   1      38.311  26.897  13.595 -0.38 +0.01    +0.070 A 
DOCKED: ATOM     19  C   UNL d   1      35.378  28.052  11.644 -0.50 +0.00    +0.052 C 
DOCKED: ATOM     20  C   UNL d   1      40.278  26.258  15.039 -0.40 +0.01    +0.066 A 
DOCKED: ATOM     21  C   UNL d   1      41.063  25.271  15.631 -0.41 -0.00    -0.025 A 
DOCKED: ATOM     22  C   UNL d   1      42.009  25.945  16.381 -0.37 -0.00    -0.021 A 
DOCKED: ATOM     23  C   UNL d   1      41.745  27.322  16.218 -0.31 +0.01    +0.066 A 
DOCKED: ATOM     24  C   UNL d   1      40.907  23.757  15.504 -0.54 +0.01    +0.051 C 
DOCKED: ATOM     25  N   UNL d   1      41.047  30.207  16.030 +0.01 -0.06    -0.248 N 
DOCKED: ATOM     26  N   UNL d   1      38.934  31.036  14.424 -0.22 -0.03    -0.248 N 
DOCKED: ATOM     27  N   UNL d   1      38.408  28.217  13.709 -0.21 -0.05    -0.248 N 
DOCKED: ATOM     28  N   UNL d   1      40.697  27.516  15.409 -0.17 -0.06    -0.248 N 
DOCKED: ATOM     29 FE   UNL d   1      39.651  29.150  14.801 -0.08 +0.00    +0.000 Fe
DOCKED: ENDROOT
DOCKED: BRANCH   6  30
DOCKED: ATOM     30  C   UNL d   1      43.758  30.492  18.643 -0.34 +0.02    +0.052 C 
DOCKED: BRANCH  30  31
DOCKED: ATOM     31  C   UNL d   1      43.583  29.156  19.363 -0.14 +0.06    +0.115 C 
DOCKED: BRANCH  31  32
DOCKED: ATOM     32  C   UNL d   1      44.903  28.555  19.796 -0.21 +0.11    +0.139 C 
DOCKED: ATOM     33  O   UNL d   1      45.932  28.896  19.231 +0.01 -0.36    -0.650 OA
DOCKED: BRANCH  32  34
DOCKED: ATOM     34  O   UNL d   1      44.992  27.684  20.828 -0.11 -1.15    -0.776 OA
DOCKED: ATOM     35  H   UNL d   1      45.001  26.722  20.728 +0.05 +0.19    +0.167 HD
DOCKED: ENDBRANCH  32  34
DOCKED: ENDBRANCH  31  32
DOCKED: ENDBRANCH  30  31
DOCKED: ENDBRANCH   6  30
DOCKED: BRANCH  29  36
DOCKED: ATOM     36  C   UNL d   1      38.425  29.025  16.497 -0.18 +0.05    +0.190 C 
DOCKED: BRANCH  36  37
DOCKED: ATOM     37  O   UNL d   1      37.562  28.168  17.187 -0.60 -0.10    -0.399 OA
DOCKED: ATOM     38  H   UNL d   1      37.783  27.255  16.850 +0.12 +0.05    +0.209 HD
DOCKED: ENDBRANCH  36  37
DOCKED: ENDBRANCH  29  36
DOCKED: BRANCH  22  39
DOCKED: ATOM     39  C   UNL d   1      43.064  25.295  17.256 -0.33 +0.01    +0.052 C 
DOCKED: BRANCH  39  40
DOCKED: ATOM     40  C   UNL d   1      42.489  24.960  18.642 -0.35 +0.03    +0.115 C 
DOCKED: BRANCH  40  41
DOCKED: ATOM     41  C   UNL d   1      43.451  25.187  19.789 -0.29 +0.06    +0.139 C 
DOCKED: ATOM     42  O   UNL d   1      44.620  24.851  19.665 +0.04 -0.33    -0.650 OA
DOCKED: BRANCH  41  43
DOCKED: ATOM     43  O   UNL d   1      43.073  25.830  20.916 -0.02 -0.57    -0.776 OA
DOCKED: ATOM     44  H   UNL d   1      43.501  26.641  21.220 +0.05 +0.21    +0.167 HD
DOCKED: ENDBRANCH  41  43
DOCKED: ENDBRANCH  40  41
DOCKED: ENDBRANCH  39  40
DOCKED: ENDBRANCH  22  39
DOCKED: BRANCH  12  45
DOCKED: ATOM     45  C   UNL d   1      36.460  32.987  12.428 -0.57 +0.00    +0.004 C 
DOCKED: ATOM     46  C   UNL d   1      35.135  32.891  12.508 -0.68 +0.00    +0.012 C 
DOCKED: ENDBRANCH  12  45
DOCKED: BRANCH  17  47
DOCKED: ATOM     47  C   UNL d   1      36.706  25.178  12.593 -0.66 +0.00    +0.004 C 
DOCKED: ATOM     48  C   UNL d   1      36.035  24.451  13.490 -0.71 +0.00    +0.012 C 
DOCKED: ENDBRANCH  17  47
DOCKED: TORSDOF 12
DOCKED: TER
DOCKED: ENDMDL
________________________________________________________________________________


	BEGINNING GENETIC ALGORITHM DOCKING 73 of 100
Run: 73 Seed: 1076301926 1208391599 [ Run 73 of 100 GA/GALS ]
Beginning LAMARCKIAN GENETIC ALGORITHM (LGA), with a maximum of 25000000 energy evaluations.

Final-Value: -10.944


	FINAL GENETIC ALGORITHM DOCKED STATE
	_______________________________________________


Detailed state:  trans 11.311 39.182 24.469 quatxyzw -0.026193 0.177975 0.379364 -0.907591 center 8.781 34.984 -0.736 ntor 12 -39.1742 107.0493 96.1719 117.8303 89.4809 166.7222 170.5817 167.8049 60.7466 -59.3125 164.0032 -180.0000
State:	 11.311  39.182  24.469  -0.062  0.424  0.904 -49.651    -39.17  107.05   96.17  117.83   89.48  166.72  170.58  167.80   60.75  -59.31  164.00 -180.00

DOCKED: MODEL       73
DOCKED: USER    Run = 73
DOCKED: USER    DPF = D:/Protein_go_brrr/autodock/final/6BB5/heme_Co/dock.dpf
DOCKED: USER  
DOCKED: USER    Estimated Free Energy of Binding    =   -6.54 kcal/mol  [=(1)+(2)+(3)-(4)]
DOCKED: USER    Estimated Inhibition Constant, Ki   =   16.04 uM (micromolar)  [Temperature = 298.15 K]
DOCKED: USER    
DOCKED: USER    (1) Final Intermolecular Energy     =  -10.12 kcal/mol
DOCKED: USER        vdW + Hbond + desolv Energy     =   -9.42 kcal/mol
DOCKED: USER        Electrostatic Energy            =   -0.70 kcal/mol
DOCKED: USER    (2) Final Total Internal Energy     =   -0.82 kcal/mol
DOCKED: USER    (3) Torsional Free Energy           =   +3.58 kcal/mol
DOCKED: USER    (4) Unbound System's Energy  [=(2)] =   -0.82 kcal/mol
DOCKED: USER    
DOCKED: USER    
DOCKED: USER    NEWDPF move heme_Co_opt.pdbqt
DOCKED: USER    NEWDPF about 8.781000 34.984000 -0.736000
DOCKED: USER    NEWDPF tran0 11.310513 39.181810 24.469347
DOCKED: USER    NEWDPF quaternion0 -0.026193 0.177975 0.379364 -0.907591
DOCKED: USER    NEWDPF axisangle0 -0.062386 0.423897 0.903559 -49.650873
DOCKED: USER    NEWDPF quat0 -0.062386 0.423897 0.903559 -49.650873
DOCKED: USER    NEWDPF dihe0 -39.17 107.05 96.17 117.83 89.48 166.72 170.58 167.80 60.75 -59.31 164.00 -180.00 
DOCKED: USER  keepresnum = 1 
DOCKED: USER  
DOCKED: REMARK  12 active torsions:
DOCKED: REMARK  status: ('A' for Active; 'I' for Inactive)
DOCKED: REMARK    1  A    between atoms: C_6  and  C_10 
DOCKED: REMARK    2  A    between atoms: C_10  and  C_11 
DOCKED: REMARK    3  A    between atoms: C_11  and  C_12 
DOCKED: REMARK    4  A    between atoms: C_12  and  O_14 
DOCKED: REMARK    5  A    between atoms: C_17  and  C_20 
DOCKED: REMARK    6  A    between atoms: C_24  and  C_27 
DOCKED: REMARK    7  A    between atoms: C_31  and  C_34 
DOCKED: REMARK    8  A    between atoms: C_34  and  C_35 
DOCKED: REMARK    9  A    between atoms: C_35  and  C_36 
DOCKED: REMARK   10  A    between atoms: C_36  and  O_38 
DOCKED: REMARK   11  A    between atoms: FE_43  and  C_44 
DOCKED: REMARK   12  A    between atoms: C_44  and  O_45 
DOCKED: USER                              x       y       z     vdW  Elec       q    Type
DOCKED: USER                           _______ _______ _______ _____ _____    ______ ____
DOCKED: ROOT
DOCKED: ATOM      1  C   UNL d   1       9.449  38.067  24.382 -0.23 -0.01    +0.064 A 
DOCKED: ATOM      2  C   UNL d   1      13.255  37.713  27.210 -0.28 -0.02    +0.064 C 
DOCKED: ATOM      3  C   UNL d   1      15.507  41.070  24.663 -0.31 -0.02    +0.064 A 
DOCKED: ATOM      4  C   UNL d   1      11.490  41.724  21.998 -0.07 -0.01    +0.064 A 
DOCKED: ATOM      5  C   UNL d   1      10.337  37.698  25.319 -0.24 -0.02    +0.066 A 
DOCKED: ATOM      6  C   UNL d   1      10.018  36.764  26.325 -0.25 +0.01    -0.021 A 
DOCKED: ATOM      7  C   UNL d   1      11.118  36.683  27.156 -0.23 +0.01    -0.025 A 
DOCKED: ATOM      8  C   UNL d   1      12.066  37.557  26.614 -0.26 -0.03    +0.066 A 
DOCKED: ATOM      9  C   UNL d   1      11.285  35.820  28.416 -0.09 -0.03    +0.051 C 
DOCKED: ATOM     10  C   UNL d   1      14.302  38.569  26.711 -0.25 -0.02    +0.066 A 
DOCKED: ATOM     11  C   UNL d   1      15.619  38.671  27.211 -0.27 +0.00    -0.021 A 
DOCKED: ATOM     12  C   UNL d   1      16.254  39.654  26.447 -0.30 -0.00    +0.000 A 
DOCKED: ATOM     13  C   UNL d   1      15.286  40.069  25.533 -0.28 -0.02    +0.070 A 
DOCKED: ATOM     14  C   UNL d   1      16.235  37.809  28.283 -0.30 -0.01    +0.052 C 
DOCKED: ATOM     15  C   UNL d   1      14.608  41.659  23.690 -0.27 -0.02    +0.066 A 
DOCKED: ATOM     16  C   UNL d   1      14.852  42.788  22.921 -0.32 +0.00    -0.021 A 
DOCKED: ATOM     17  C   UNL d   1      13.695  42.982  22.153 -0.30 -0.00    +0.000 A 
DOCKED: ATOM     18  C   UNL d   1      12.840  41.942  22.502 -0.25 -0.01    +0.070 A 
DOCKED: ATOM     19  C   UNL d   1      16.123  43.608  22.946 -0.26 -0.01    +0.052 C 
DOCKED: ATOM     20  C   UNL d   1      10.609  40.771  22.386 -0.20 -0.01    +0.066 A 
DOCKED: ATOM     21  C   UNL d   1       9.325  40.685  21.853 -0.18 +0.00    -0.025 A 
DOCKED: ATOM     22  C   UNL d   1       8.723  39.621  22.500 -0.20 +0.00    -0.021 A 
DOCKED: ATOM     23  C   UNL d   1       9.673  39.115  23.412 -0.23 -0.01    +0.066 A 
DOCKED: ATOM     24  C   UNL d   1       8.694  41.583  20.792 -0.19 -0.00    +0.051 C 
DOCKED: ATOM     25  N   UNL d   1      11.612  38.195  25.472 -0.08 +0.10    -0.248 N 
DOCKED: ATOM     26  N   UNL d   1      14.124  39.373  25.657 -0.02 +0.10    -0.248 N 
DOCKED: ATOM     27  N   UNL d   1      13.405  41.191  23.442 -0.13 +0.07    -0.248 N 
DOCKED: ATOM     28  N   UNL d   1      10.815  39.810  23.348 -0.14 +0.06    -0.248 N 
DOCKED: ATOM     29 FE   UNL d   1      12.558  39.782  24.395 +0.00 -0.00    +0.000 Fe
DOCKED: ENDROOT
DOCKED: BRANCH   6  30
DOCKED: ATOM     30  C   UNL d   1       8.683  36.052  26.514 -0.23 +0.00    +0.052 C 
DOCKED: BRANCH  30  31
DOCKED: ATOM     31  C   UNL d   1       7.991  36.537  27.787 -0.11 +0.01    +0.115 C 
DOCKED: BRANCH  31  32
DOCKED: ATOM     32  C   UNL d   1       7.724  35.412  28.764 -0.12 +0.05    +0.139 C 
DOCKED: ATOM     33  O   UNL d   1       8.576  34.553  28.938 -0.53 -0.59    -0.650 OA
DOCKED: BRANCH  32  34
DOCKED: ATOM     34  O   UNL d   1       6.586  35.349  29.493 +0.01 -0.19    -0.776 OA
DOCKED: ATOM     35  H   UNL d   1       6.183  36.107  29.938 +0.01 +0.02    +0.167 HD
DOCKED: ENDBRANCH  32  34
DOCKED: ENDBRANCH  31  32
DOCKED: ENDBRANCH  30  31
DOCKED: ENDBRANCH   6  30
DOCKED: BRANCH  29  36
DOCKED: ATOM     36  C   UNL d   1      11.749  41.084  25.824 -0.07 -0.03    +0.190 C 
DOCKED: BRANCH  36  37
DOCKED: ATOM     37  O   UNL d   1      11.112  41.116  27.069 -0.00 +0.04    -0.399 OA
DOCKED: ATOM     38  H   UNL d   1      10.941  40.159  27.294 +0.03 -0.03    +0.209 HD
DOCKED: ENDBRANCH  36  37
DOCKED: ENDBRANCH  29  36
DOCKED: BRANCH  22  39
DOCKED: ATOM     39  C   UNL d   1       7.291  39.163  22.296 -0.25 -0.00    +0.052 C 
DOCKED: BRANCH  39  40
DOCKED: ATOM     40  C   UNL d   1       6.315  40.076  23.057 -0.10 -0.00    +0.115 C 
DOCKED: BRANCH  40  41
DOCKED: ATOM     41  C   UNL d   1       5.376  40.865  22.169 -0.11 +0.01    +0.139 C 
DOCKED: ATOM     42  O   UNL d   1       5.840  41.561  21.276 -0.55 -0.10    -0.650 OA
DOCKED: BRANCH  41  43
DOCKED: ATOM     43  O   UNL d   1       4.034  40.754  22.279 -0.00 +0.00    -0.776 OA
DOCKED: ATOM     44  H   UNL d   1       3.492  41.421  22.722 +0.02 -0.00    +0.167 HD
DOCKED: ENDBRANCH  41  43
DOCKED: ENDBRANCH  40  41
DOCKED: ENDBRANCH  39  40
DOCKED: ENDBRANCH  22  39
DOCKED: BRANCH  12  45
DOCKED: ATOM     45  C   UNL d   1      17.663  40.232  26.464 -0.33 -0.00    +0.004 C 
DOCKED: ATOM     46  C   UNL d   1      18.664  40.098  25.598 -0.45 -0.00    +0.012 C 
DOCKED: ENDBRANCH  12  45
DOCKED: BRANCH  17  47
DOCKED: ATOM     47  C   UNL d   1      13.360  44.075  21.192 -0.24 -0.00    +0.004 C 
DOCKED: ATOM     48  C   UNL d   1      13.983  44.246  20.023 -0.30 -0.00    +0.012 C 
DOCKED: ENDBRANCH  17  47
DOCKED: TORSDOF 12
DOCKED: TER
DOCKED: ENDMDL
________________________________________________________________________________


	BEGINNING GENETIC ALGORITHM DOCKING 74 of 100
Run: 74 Seed: 553421171 563294414 [ Run 74 of 100 GA/GALS ]
Beginning LAMARCKIAN GENETIC ALGORITHM (LGA), with a maximum of 25000000 energy evaluations.

Final-Value: -13.730


	FINAL GENETIC ALGORITHM DOCKED STATE
	_______________________________________________


Detailed state:  trans 44.804 25.459 18.630 quatxyzw 0.557037 0.819100 -0.131886 -0.037295 center 8.781 34.984 -0.736 ntor 12 159.4400 116.6429 48.0630 15.9734 56.9125 139.8522 -123.2971 -174.7670 -139.7379 127.3800 176.6875 -1.8545
State:	 44.804  25.459  18.630   0.557  0.820 -0.132 -175.725    159.44  116.64   48.06   15.97   56.91  139.85 -123.30 -174.77 -139.74  127.38  176.69   -1.85

DOCKED: MODEL       74
DOCKED: USER    Run = 74
DOCKED: USER    DPF = D:/Protein_go_brrr/autodock/final/6BB5/heme_Co/dock.dpf
DOCKED: USER  
DOCKED: USER    Estimated Free Energy of Binding    =   -8.06 kcal/mol  [=(1)+(2)+(3)-(4)]
DOCKED: USER    Estimated Inhibition Constant, Ki   =    1.23 uM (micromolar)  [Temperature = 298.15 K]
DOCKED: USER    
DOCKED: USER    (1) Final Intermolecular Energy     =  -11.64 kcal/mol
DOCKED: USER        vdW + Hbond + desolv Energy     =   -8.28 kcal/mol
DOCKED: USER        Electrostatic Energy            =   -3.36 kcal/mol
DOCKED: USER    (2) Final Total Internal Energy     =   -2.09 kcal/mol
DOCKED: USER    (3) Torsional Free Energy           =   +3.58 kcal/mol
DOCKED: USER    (4) Unbound System's Energy  [=(2)] =   -2.09 kcal/mol
DOCKED: USER    
DOCKED: USER    
DOCKED: USER    NEWDPF move heme_Co_opt.pdbqt
DOCKED: USER    NEWDPF about 8.781000 34.984000 -0.736000
DOCKED: USER    NEWDPF tran0 44.804218 25.458940 18.630321
DOCKED: USER    NEWDPF quaternion0 0.557037 0.819100 -0.131886 -0.037295
DOCKED: USER    NEWDPF axisangle0 0.557425 0.819670 -0.131978 -175.725344
DOCKED: USER    NEWDPF quat0 0.557425 0.819670 -0.131978 -175.725344
DOCKED: USER    NEWDPF dihe0 159.44 116.64 48.06 15.97 56.91 139.85 -123.30 -174.77 -139.74 127.38 176.69 -1.85 
DOCKED: USER  keepresnum = 1 
DOCKED: USER  
DOCKED: REMARK  12 active torsions:
DOCKED: REMARK  status: ('A' for Active; 'I' for Inactive)
DOCKED: REMARK    1  A    between atoms: C_6  and  C_10 
DOCKED: REMARK    2  A    between atoms: C_10  and  C_11 
DOCKED: REMARK    3  A    between atoms: C_11  and  C_12 
DOCKED: REMARK    4  A    between atoms: C_12  and  O_14 
DOCKED: REMARK    5  A    between atoms: C_17  and  C_20 
DOCKED: REMARK    6  A    between atoms: C_24  and  C_27 
DOCKED: REMARK    7  A    between atoms: C_31  and  C_34 
DOCKED: REMARK    8  A    between atoms: C_34  and  C_35 
DOCKED: REMARK    9  A    between atoms: C_35  and  C_36 
DOCKED: REMARK   10  A    between atoms: C_36  and  O_38 
DOCKED: REMARK   11  A    between atoms: FE_43  and  C_44 
DOCKED: REMARK   12  A    between atoms: C_44  and  O_45 
DOCKED: USER                              x       y       z     vdW  Elec       q    Type
DOCKED: USER                           _______ _______ _______ _____ _____    ______ ____
DOCKED: ROOT
DOCKED: ATOM      1  C   UNL d   1      46.066  24.103  19.764 -0.08 +0.03    +0.064 A 
DOCKED: ATOM      2  C   UNL d   1      42.818  23.361  16.371 -0.31 +0.01    +0.064 C 
DOCKED: ATOM      3  C   UNL d   1      41.718  28.010  16.354 -0.28 +0.01    +0.064 A 
DOCKED: ATOM      4  C   UNL d   1      45.296  28.855  19.541 -0.19 +0.04    +0.064 A 
DOCKED: ATOM      5  C   UNL d   1      45.234  23.553  18.864 -0.14 +0.03    +0.066 A 
DOCKED: ATOM      6  C   UNL d   1      45.298  22.187  18.525 -0.16 -0.01    -0.021 A 
DOCKED: ATOM      7  C   UNL d   1      44.368  21.982  17.524 -0.16 -0.01    -0.025 A 
DOCKED: ATOM      8  C   UNL d   1      43.767  23.227  17.307 -0.24 +0.02    +0.066 A 
DOCKED: ATOM      9  C   UNL d   1      44.048  20.671  16.789 -0.12 +0.01    +0.051 C 
DOCKED: ATOM     10  C   UNL d   1      42.125  24.594  16.096 -0.31 +0.01    +0.066 A 
DOCKED: ATOM     11  C   UNL d   1      41.025  24.769  15.228 -0.43 -0.00    -0.021 A 
DOCKED: ATOM     12  C   UNL d   1      40.722  26.133  15.245 -0.44 +0.00    +0.000 A 
DOCKED: ATOM     13  C   UNL d   1      41.649  26.687  16.129 -0.35 +0.01    +0.070 A 
DOCKED: ATOM     14  C   UNL d   1      40.269  23.676  14.515 -0.54 +0.01    +0.052 C 
DOCKED: ATOM     15  C   UNL d   1      42.640  28.754  17.190 +0.04 +0.02    +0.066 A 
DOCKED: ATOM     16  C   UNL d   1      42.751  30.135  17.267 -0.34 -0.00    -0.021 A 
DOCKED: ATOM     17  C   UNL d   1      43.784  30.384  18.182 -0.31 +0.00    +0.000 A 
DOCKED: ATOM     18  C   UNL d   1      44.211  29.130  18.607 -0.24 +0.03    +0.070 A 
DOCKED: ATOM     19  C   UNL d   1      41.908  31.127  16.497 -0.37 +0.01    +0.052 C 
DOCKED: ATOM     20  C   UNL d   1      45.786  27.645  19.902 -0.14 +0.05    +0.066 A 
DOCKED: ATOM     21  C   UNL d   1      46.857  27.509  20.782 -0.10 -0.02    -0.025 A 
DOCKED: ATOM     22  C   UNL d   1      47.083  26.149  20.888 -0.06 -0.02    -0.021 A 
DOCKED: ATOM     23  C   UNL d   1      46.138  25.518  20.051 -0.07 +0.04    +0.066 A 
DOCKED: ATOM     24  C   UNL d   1      47.642  28.622  21.473 -0.09 +0.05    +0.051 C 
DOCKED: ATOM     25  N   UNL d   1      44.280  24.217  18.127 -0.11 -0.09    -0.248 N 
DOCKED: ATOM     26  N   UNL d   1      42.459  25.747  16.685 -0.20 -0.06    -0.248 N 
DOCKED: ATOM     27  N   UNL d   1      43.529  28.183  17.972 -0.10 -0.09    -0.248 N 
DOCKED: ATOM     28  N   UNL d   1      45.353  26.420  19.451 -0.07 -0.15    -0.248 N 
DOCKED: ATOM     29 FE   UNL d   1      43.884  26.318  18.048 -0.05 +0.00    +0.000 Fe
DOCKED: ENDROOT
DOCKED: BRANCH   6  30
DOCKED: ATOM     30  C   UNL d   1      46.269  21.155  19.087 -0.14 +0.02    +0.052 C 
DOCKED: BRANCH  30  31
DOCKED: ATOM     31  C   UNL d   1      47.434  20.933  18.123 -0.11 +0.09    +0.115 C 
DOCKED: BRANCH  31  32
DOCKED: ATOM     32  C   UNL d   1      47.888  22.216  17.461 -0.03 +0.19    +0.139 C 
DOCKED: ATOM     33  O   UNL d   1      48.945  22.726  17.799 -0.33 -0.88    -0.650 OA
DOCKED: BRANCH  32  34
DOCKED: ATOM     34  O   UNL d   1      47.181  22.799  16.465 -0.20 -1.04    -0.776 OA
DOCKED: ATOM     35  H   UNL d   1      47.219  23.741  16.249 +0.04 +0.18    +0.167 HD
DOCKED: ENDBRANCH  32  34
DOCKED: ENDBRANCH  31  32
DOCKED: ENDBRANCH  30  31
DOCKED: ENDBRANCH   6  30
DOCKED: BRANCH  29  36
DOCKED: ATOM     36  C   UNL d   1      45.310  26.414  16.514 +0.10 +0.07    +0.190 C 
DOCKED: BRANCH  36  37
DOCKED: ATOM     37  O   UNL d   1      46.345  25.695  15.909 -0.02 -0.19    -0.399 OA
DOCKED: ATOM     38  H   UNL d   1      46.354  24.814  16.377 +0.07 +0.12    +0.209 HD
DOCKED: ENDBRANCH  36  37
DOCKED: ENDBRANCH  29  36
DOCKED: BRANCH  22  39
DOCKED: ATOM     39  C   UNL d   1      48.190  25.502  21.699 -0.02 +0.03    +0.052 C 
DOCKED: BRANCH  39  40
DOCKED: ATOM     40  C   UNL d   1      47.650  24.996  23.047 -0.03 +0.08    +0.115 C 
DOCKED: BRANCH  40  41
DOCKED: ATOM     41  C   UNL d   1      47.016  26.068  23.908 +0.15 +0.19    +0.139 C 
DOCKED: ATOM     42  O   UNL d   1      47.498  27.192  23.915 -0.05 -0.98    -0.650 OA
DOCKED: BRANCH  41  43
DOCKED: ATOM     43  O   UNL d   1      45.879  25.841  24.603 -0.10 -1.34    -0.776 OA
DOCKED: ATOM     44  H   UNL d   1      45.787  25.105  25.223 +0.03 +0.16    +0.167 HD
DOCKED: ENDBRANCH  41  43
DOCKED: ENDBRANCH  40  41
DOCKED: ENDBRANCH  39  40
DOCKED: ENDBRANCH  22  39
DOCKED: BRANCH  12  45
DOCKED: ATOM     45  C   UNL d   1      39.659  26.969  14.546 -0.42 +0.00    +0.004 C 
DOCKED: ATOM     46  C   UNL d   1      38.617  26.602  13.805 -0.49 +0.00    +0.012 C 
DOCKED: ENDBRANCH  12  45
DOCKED: BRANCH  17  47
DOCKED: ATOM     47  C   UNL d   1      44.385  31.681  18.613 -0.34 +0.00    +0.004 C 
DOCKED: ATOM     48  C   UNL d   1      43.684  32.809  18.750 -0.42 +0.00    +0.012 C 
DOCKED: ENDBRANCH  17  47
DOCKED: TORSDOF 12
DOCKED: TER
DOCKED: ENDMDL
________________________________________________________________________________


	BEGINNING GENETIC ALGORITHM DOCKING 75 of 100
Run: 75 Seed: 1704627487 235751389 [ Run 75 of 100 GA/GALS ]
Beginning LAMARCKIAN GENETIC ALGORITHM (LGA), with a maximum of 25000000 energy evaluations.

Final-Value: -10.795


	FINAL GENETIC ALGORITHM DOCKED STATE
	_______________________________________________


Detailed state:  trans 42.579 44.760 3.063 quatxyzw -0.786079 0.473803 0.064226 -0.391746 center 8.781 34.984 -0.736 ntor 12 103.2675 101.1577 -143.3737 116.1748 142.4274 122.0854 175.2979 123.2125 -53.0774 72.6591 165.0811 180.0000
State:	 42.579  44.760   3.063  -0.854  0.515  0.070 -133.874    103.27  101.16 -143.37  116.17  142.43  122.09  175.30  123.21  -53.08   72.66  165.08  180.00

DOCKED: MODEL       75
DOCKED: USER    Run = 75
DOCKED: USER    DPF = D:/Protein_go_brrr/autodock/final/6BB5/heme_Co/dock.dpf
DOCKED: USER  
DOCKED: USER    Estimated Free Energy of Binding    =   -5.17 kcal/mol  [=(1)+(2)+(3)-(4)]
DOCKED: USER    Estimated Inhibition Constant, Ki   =  162.91 uM (micromolar)  [Temperature = 298.15 K]
DOCKED: USER    
DOCKED: USER    (1) Final Intermolecular Energy     =   -8.75 kcal/mol
DOCKED: USER        vdW + Hbond + desolv Energy     =   -5.76 kcal/mol
DOCKED: USER        Electrostatic Energy            =   -2.98 kcal/mol
DOCKED: USER    (2) Final Total Internal Energy     =   -2.05 kcal/mol
DOCKED: USER    (3) Torsional Free Energy           =   +3.58 kcal/mol
DOCKED: USER    (4) Unbound System's Energy  [=(2)] =   -2.05 kcal/mol
DOCKED: USER    
DOCKED: USER    
DOCKED: USER    NEWDPF move heme_Co_opt.pdbqt
DOCKED: USER    NEWDPF about 8.781000 34.984000 -0.736000
DOCKED: USER    NEWDPF tran0 42.578577 44.760052 3.062899
DOCKED: USER    NEWDPF quaternion0 -0.786079 0.473803 0.064226 -0.391746
DOCKED: USER    NEWDPF axisangle0 -0.854366 0.514963 0.069805 -133.873613
DOCKED: USER    NEWDPF quat0 -0.854366 0.514963 0.069805 -133.873613
DOCKED: USER    NEWDPF dihe0 103.27 101.16 -143.37 116.17 142.43 122.09 175.30 123.21 -53.08 72.66 165.08 180.00 
DOCKED: USER  keepresnum = 1 
DOCKED: USER  
DOCKED: REMARK  12 active torsions:
DOCKED: REMARK  status: ('A' for Active; 'I' for Inactive)
DOCKED: REMARK    1  A    between atoms: C_6  and  C_10 
DOCKED: REMARK    2  A    between atoms: C_10  and  C_11 
DOCKED: REMARK    3  A    between atoms: C_11  and  C_12 
DOCKED: REMARK    4  A    between atoms: C_12  and  O_14 
DOCKED: REMARK    5  A    between atoms: C_17  and  C_20 
DOCKED: REMARK    6  A    between atoms: C_24  and  C_27 
DOCKED: REMARK    7  A    between atoms: C_31  and  C_34 
DOCKED: REMARK    8  A    between atoms: C_34  and  C_35 
DOCKED: REMARK    9  A    between atoms: C_35  and  C_36 
DOCKED: REMARK   10  A    between atoms: C_36  and  O_38 
DOCKED: REMARK   11  A    between atoms: FE_43  and  C_44 
DOCKED: REMARK   12  A    between atoms: C_44  and  O_45 
DOCKED: USER                              x       y       z     vdW  Elec       q    Type
DOCKED: USER                           _______ _______ _______ _____ _____    ______ ____
DOCKED: ROOT
DOCKED: ATOM      1  C   UNL d   1      40.902  45.407   4.282 -0.18 +0.01    +0.064 A 
DOCKED: ATOM      2  C   UNL d   1      44.710  47.709   2.606 -0.08 -0.01    +0.064 C 
DOCKED: ATOM      3  C   UNL d   1      46.451  43.624   0.843 -0.05 -0.00    +0.064 A 
DOCKED: ATOM      4  C   UNL d   1      42.390  41.320   2.207 -0.14 +0.01    +0.064 A 
DOCKED: ATOM      5  C   UNL d   1      41.832  46.330   3.985 -0.18 -0.00    +0.066 A 
DOCKED: ATOM      6  C   UNL d   1      41.651  47.695   4.280 -0.19 +0.00    -0.021 A 
DOCKED: ATOM      7  C   UNL d   1      42.748  48.362   3.771 -0.11 +0.00    -0.025 A 
DOCKED: ATOM      8  C   UNL d   1      43.559  47.373   3.202 -0.11 -0.01    +0.066 A 
DOCKED: ATOM      9  C   UNL d   1      43.036  49.870   3.810 -0.13 -0.01    +0.051 C 
DOCKED: ATOM     10  C   UNL d   1      45.621  46.760   2.017 -0.04 -0.01    +0.066 A 
DOCKED: ATOM     11  C   UNL d   1      46.907  47.033   1.501 -0.02 +0.00    -0.021 A 
DOCKED: ATOM     12  C   UNL d   1      47.393  45.823   0.998 -0.02 -0.00    +0.000 A 
DOCKED: ATOM     13  C   UNL d   1      46.377  44.903   1.254 -0.04 -0.01    +0.070 A 
DOCKED: ATOM     14  C   UNL d   1      47.640  48.347   1.583 -0.01 -0.01    +0.052 C 
DOCKED: ATOM     15  C   UNL d   1      45.478  42.558   0.975 -0.07 +0.00    +0.066 A 
DOCKED: ATOM     16  C   UNL d   1      45.555  41.297   0.401 -0.07 -0.00    -0.021 A 
DOCKED: ATOM     17  C   UNL d   1      44.385  40.630   0.789 -0.10 +0.00    +0.000 A 
DOCKED: ATOM     18  C   UNL d   1      43.691  41.534   1.587 -0.09 +0.00    +0.070 A 
DOCKED: ATOM     19  C   UNL d   1      46.691  40.795  -0.462 -0.03 +0.00    +0.052 C 
DOCKED: ATOM     20  C   UNL d   1      41.657  42.213   2.914 -0.14 +0.01    +0.066 A 
DOCKED: ATOM     21  C   UNL d   1      40.401  41.901   3.431 -0.24 -0.00    -0.025 A 
DOCKED: ATOM     22  C   UNL d   1      39.960  43.052   4.059 -0.24 -0.00    -0.021 A 
DOCKED: ATOM     23  C   UNL d   1      40.972  44.020   3.883 -0.17 +0.01    +0.066 A 
DOCKED: ATOM     24  C   UNL d   1      39.648  40.579   3.315 -0.35 +0.01    +0.051 C 
DOCKED: ATOM     25  N   UNL d   1      43.019  46.105   3.326 -0.09 +0.02    -0.248 N 
DOCKED: ATOM     26  N   UNL d   1      45.330  45.458   1.920 -0.04 +0.03    -0.248 N 
DOCKED: ATOM     27  N   UNL d   1      44.357  42.681   1.651 -0.05 -0.01    -0.248 N 
DOCKED: ATOM     28  N   UNL d   1      42.000  43.517   3.189 -0.09 -0.02    -0.248 N 
DOCKED: ATOM     29 FE   UNL d   1      43.725  44.290   2.440 -0.03 +0.00    +0.000 Fe
DOCKED: ENDROOT
DOCKED: BRANCH   6  30
DOCKED: ATOM     30  C   UNL d   1      40.434  48.328   4.948 -0.29 +0.00    +0.052 C 
DOCKED: BRANCH  30  31
DOCKED: ATOM     31  C   UNL d   1      39.660  49.188   3.950 -0.14 +0.03    +0.115 C 
DOCKED: BRANCH  31  32
DOCKED: ATOM     32  C   UNL d   1      38.203  48.790   3.854 -0.14 +0.13    +0.139 C 
DOCKED: ATOM     33  O   UNL d   1      37.565  48.591   4.877 -0.50 -0.97    -0.650 OA
DOCKED: BRANCH  32  34
DOCKED: ATOM     34  O   UNL d   1      37.562  48.692   2.665 -0.26 -0.91    -0.776 OA
DOCKED: ATOM     35  H   UNL d   1      37.409  47.860   2.197 +0.02 +0.20    +0.167 HD
DOCKED: ENDBRANCH  32  34
DOCKED: ENDBRANCH  31  32
DOCKED: ENDBRANCH  30  31
DOCKED: ENDBRANCH   6  30
DOCKED: BRANCH  29  36
DOCKED: ATOM     36  C   UNL d   1      42.728  44.886   0.695 -0.02 +0.01    +0.190 C 
DOCKED: BRANCH  36  37
DOCKED: ATOM     37  O   UNL d   1      41.604  45.580   0.236 +0.00 -0.03    -0.399 OA
DOCKED: ATOM     38  H   UNL d   1      41.035  45.711   1.045 +0.01 +0.02    +0.209 HD
DOCKED: ENDBRANCH  36  37
DOCKED: ENDBRANCH  29  36
DOCKED: BRANCH  22  39
DOCKED: ATOM     39  C   UNL d   1      38.612  43.224   4.733 -0.23 +0.01    +0.052 C 
DOCKED: BRANCH  39  40
DOCKED: ATOM     40  C   UNL d   1      37.510  43.468   3.688 -0.15 +0.03    +0.115 C 
DOCKED: BRANCH  40  41
DOCKED: ATOM     41  C   UNL d   1      36.898  44.852   3.737 -0.18 +0.13    +0.139 C 
DOCKED: ATOM     42  O   UNL d   1      35.835  45.016   4.318 -0.47 -1.04    -0.650 OA
DOCKED: BRANCH  41  43
DOCKED: ATOM     43  O   UNL d   1      37.538  45.930   3.232 +0.02 -0.86    -0.776 OA
DOCKED: ATOM     44  H   UNL d   1      37.567  46.780   3.691 +0.04 +0.27    +0.167 HD
DOCKED: ENDBRANCH  41  43
DOCKED: ENDBRANCH  40  41
DOCKED: ENDBRANCH  39  40
DOCKED: ENDBRANCH  22  39
DOCKED: BRANCH  12  45
DOCKED: ATOM     45  C   UNL d   1      48.702  45.430   0.325 -0.01 -0.00    +0.004 C 
DOCKED: ATOM     46  C   UNL d   1      49.726  44.712   0.778 -0.01 -0.00    +0.012 C 
DOCKED: ENDBRANCH  12  45
DOCKED: BRANCH  17  47
DOCKED: ATOM     47  C   UNL d   1      43.895  39.268   0.419 -0.12 +0.00    +0.004 C 
DOCKED: ATOM     48  C   UNL d   1      43.647  38.306   1.311 -0.24 +0.00    +0.012 C 
DOCKED: ENDBRANCH  17  47
DOCKED: TORSDOF 12
DOCKED: TER
DOCKED: ENDMDL
________________________________________________________________________________


	BEGINNING GENETIC ALGORITHM DOCKING 76 of 100
Run: 76 Seed: 1888901392 184694281 [ Run 76 of 100 GA/GALS ]
Beginning LAMARCKIAN GENETIC ALGORITHM (LGA), with a maximum of 25000000 energy evaluations.

Final-Value: -11.141


	FINAL GENETIC ALGORITHM DOCKED STATE
	_______________________________________________


Detailed state:  trans 32.958 15.526 23.703 quatxyzw -0.652515 0.414247 -0.550309 0.315886 center 8.781 34.984 -0.736 ntor 12 138.9767 153.4637 -171.6646 108.2538 98.1440 122.1311 -128.3315 5.3068 -127.0760 16.4187 179.8851 7.0175
State:	 32.958  15.526  23.703  -0.688  0.437 -0.580 143.171    138.98  153.46 -171.66  108.25   98.14  122.13 -128.33    5.31 -127.08   16.42  179.89    7.02

DOCKED: MODEL       76
DOCKED: USER    Run = 76
DOCKED: USER    DPF = D:/Protein_go_brrr/autodock/final/6BB5/heme_Co/dock.dpf
DOCKED: USER  
DOCKED: USER    Estimated Free Energy of Binding    =   -5.51 kcal/mol  [=(1)+(2)+(3)-(4)]
DOCKED: USER    Estimated Inhibition Constant, Ki   =   91.94 uM (micromolar)  [Temperature = 298.15 K]
DOCKED: USER    
DOCKED: USER    (1) Final Intermolecular Energy     =   -9.09 kcal/mol
DOCKED: USER        vdW + Hbond + desolv Energy     =   -7.40 kcal/mol
DOCKED: USER        Electrostatic Energy            =   -1.69 kcal/mol
DOCKED: USER    (2) Final Total Internal Energy     =   -2.05 kcal/mol
DOCKED: USER    (3) Torsional Free Energy           =   +3.58 kcal/mol
DOCKED: USER    (4) Unbound System's Energy  [=(2)] =   -2.05 kcal/mol
DOCKED: USER    
DOCKED: USER    
DOCKED: USER    NEWDPF move heme_Co_opt.pdbqt
DOCKED: USER    NEWDPF about 8.781000 34.984000 -0.736000
DOCKED: USER    NEWDPF tran0 32.958397 15.526291 23.703304
DOCKED: USER    NEWDPF quaternion0 -0.652515 0.414247 -0.550309 0.315886
DOCKED: USER    NEWDPF axisangle0 -0.687728 0.436602 -0.580007 143.171372
DOCKED: USER    NEWDPF quat0 -0.687728 0.436602 -0.580007 143.171372
DOCKED: USER    NEWDPF dihe0 138.98 153.46 -171.66 108.25 98.14 122.13 -128.33 5.31 -127.08 16.42 179.89 7.02 
DOCKED: USER  keepresnum = 1 
DOCKED: USER  
DOCKED: REMARK  12 active torsions:
DOCKED: REMARK  status: ('A' for Active; 'I' for Inactive)
DOCKED: REMARK    1  A    between atoms: C_6  and  C_10 
DOCKED: REMARK    2  A    between atoms: C_10  and  C_11 
DOCKED: REMARK    3  A    between atoms: C_11  and  C_12 
DOCKED: REMARK    4  A    between atoms: C_12  and  O_14 
DOCKED: REMARK    5  A    between atoms: C_17  and  C_20 
DOCKED: REMARK    6  A    between atoms: C_24  and  C_27 
DOCKED: REMARK    7  A    between atoms: C_31  and  C_34 
DOCKED: REMARK    8  A    between atoms: C_34  and  C_35 
DOCKED: REMARK    9  A    between atoms: C_35  and  C_36 
DOCKED: REMARK   10  A    between atoms: C_36  and  O_38 
DOCKED: REMARK   11  A    between atoms: FE_43  and  C_44 
DOCKED: REMARK   12  A    between atoms: C_44  and  O_45 
DOCKED: USER                              x       y       z     vdW  Elec       q    Type
DOCKED: USER                           _______ _______ _______ _____ _____    ______ ____
DOCKED: ROOT
DOCKED: ATOM      1  C   UNL d   1      32.028  16.409  21.951 -0.28 +0.03    +0.064 A 
DOCKED: ATOM      2  C   UNL d   1      36.160  14.140  22.573 -0.24 -0.01    +0.064 C 
DOCKED: ATOM      3  C   UNL d   1      35.375  13.923  27.281 -0.10 -0.03    +0.064 A 
DOCKED: ATOM      4  C   UNL d   1      30.976  15.894  26.625 -0.15 -0.02    +0.064 A 
DOCKED: ATOM      5  C   UNL d   1      33.232  15.838  21.780 -0.25 +0.01    +0.066 A 
DOCKED: ATOM      6  C   UNL d   1      33.792  15.644  20.502 -0.30 -0.00    -0.021 A 
DOCKED: ATOM      7  C   UNL d   1      34.980  14.964  20.687 -0.29 -0.00    -0.025 A 
DOCKED: ATOM      8  C   UNL d   1      35.102  14.788  22.069 -0.23 -0.01    +0.066 A 
DOCKED: ATOM      9  C   UNL d   1      35.973  14.492  19.613 -0.30 +0.00    +0.051 C 
DOCKED: ATOM     10  C   UNL d   1      36.384  13.934  23.983 -0.17 -0.02    +0.066 A 
DOCKED: ATOM     11  C   UNL d   1      37.540  13.387  24.582 -0.14 +0.00    -0.021 A 
DOCKED: ATOM     12  C   UNL d   1      37.285  13.339  25.956 -0.09 -0.00    +0.000 A 
DOCKED: ATOM     13  C   UNL d   1      36.002  13.870  26.093 -0.13 -0.02    +0.070 A 
DOCKED: ATOM     14  C   UNL d   1      38.826  13.032  23.881 -0.15 -0.01    +0.052 C 
DOCKED: ATOM     15  C   UNL d   1      34.038  14.388  27.596 +0.03 -0.06    +0.066 A 
DOCKED: ATOM     16  C   UNL d   1      33.397  14.282  28.822 -0.07 +0.02    -0.021 A 
DOCKED: ATOM     17  C   UNL d   1      32.127  14.846  28.637 -0.13 -0.00    +0.000 A 
DOCKED: ATOM     18  C   UNL d   1      32.100  15.270  27.312 -0.14 -0.05    +0.070 A 
DOCKED: ATOM     19  C   UNL d   1      33.990  13.670  30.072 -0.06 -0.02    +0.052 C 
DOCKED: ATOM     20  C   UNL d   1      30.896  16.235  25.317 -0.22 -0.01    +0.066 A 
DOCKED: ATOM     21  C   UNL d   1      29.748  16.797  24.764 -0.20 -0.00    -0.025 A 
DOCKED: ATOM     22  C   UNL d   1      30.032  16.983  23.423 -0.25 -0.01    -0.021 A 
DOCKED: ATOM     23  C   UNL d   1      31.346  16.511  23.221 -0.26 +0.02    +0.066 A 
DOCKED: ATOM     24  C   UNL d   1      28.435  17.121  25.473 -0.16 +0.00    +0.051 C 
DOCKED: ATOM     25  N   UNL d   1      34.036  15.324  22.771 -0.15 +0.01    -0.248 N 
DOCKED: ATOM     26  N   UNL d   1      35.481  14.280  24.906 -0.11 +0.08    -0.248 N 
DOCKED: ATOM     27  N   UNL d   1      33.244  14.953  26.715 -0.07 +0.21    -0.248 N 
DOCKED: ATOM     28  N   UNL d   1      31.872  16.056  24.364 -0.18 +0.01    -0.248 N 
DOCKED: ATOM     29 FE   UNL d   1      33.613  15.130  24.860 -0.04 -0.00    +0.000 Fe
DOCKED: ENDROOT
DOCKED: BRANCH   6  30
DOCKED: ATOM     30  C   UNL d   1      33.163  16.025  19.166 -0.30 +0.03    +0.052 C 
DOCKED: BRANCH  30  31
DOCKED: ATOM     31  C   UNL d   1      32.441  14.827  18.550 -0.23 +0.07    +0.115 C 
DOCKED: BRANCH  31  32
DOCKED: ATOM     32  C   UNL d   1      31.484  14.170  19.521 -0.13 +0.10    +0.139 C 
DOCKED: ATOM     33  O   UNL d   1      30.285  14.387  19.424 -0.00 -0.96    -0.650 OA
DOCKED: BRANCH  32  34
DOCKED: ATOM     34  O   UNL d   1      31.907  13.304  20.471 +0.04 -0.29    -0.776 OA
DOCKED: ATOM     35  H   UNL d   1      31.617  13.324  21.393 +0.02 +0.06    +0.167 HD
DOCKED: ENDBRANCH  32  34
DOCKED: ENDBRANCH  31  32
DOCKED: ENDBRANCH  30  31
DOCKED: ENDBRANCH   6  30
DOCKED: BRANCH  29  36
DOCKED: ATOM     36  C   UNL d   1      32.778  13.262  24.402 -0.01 -0.01    +0.190 C 
DOCKED: BRANCH  36  37
DOCKED: ATOM     37  O   UNL d   1      32.084  12.566  23.407 +0.01 -0.03    -0.399 OA
DOCKED: ATOM     38  H   UNL d   1      32.502  12.859  22.550 +0.03 +0.02    +0.209 HD
DOCKED: ENDBRANCH  36  37
DOCKED: ENDBRANCH  29  36
DOCKED: BRANCH  22  39
DOCKED: ATOM     39  C   UNL d   1      29.065  17.524  22.386 -0.28 +0.04    +0.052 C 
DOCKED: BRANCH  39  40
DOCKED: ATOM     40  C   UNL d   1      29.468  18.945  21.959 -0.42 +0.06    +0.115 C 
DOCKED: BRANCH  40  41
DOCKED: ATOM     41  C   UNL d   1      28.428  19.666  21.126 -0.38 +0.08    +0.139 C 
DOCKED: ATOM     42  O   UNL d   1      28.268  20.868  21.279 -0.05 -0.15    -0.650 OA
DOCKED: BRANCH  41  43
DOCKED: ATOM     43  O   UNL d   1      27.732  19.033  20.157 -0.36 -0.91    -0.776 OA
DOCKED: ATOM     44  H   UNL d   1      27.225  19.509  19.486 -0.18 +0.10    +0.167 HD
DOCKED: ENDBRANCH  41  43
DOCKED: ENDBRANCH  40  41
DOCKED: ENDBRANCH  39  40
DOCKED: ENDBRANCH  22  39
DOCKED: BRANCH  12  45
DOCKED: ATOM     45  C   UNL d   1      38.109  12.874  27.149 -0.05 -0.00    +0.004 C 
DOCKED: ATOM     46  C   UNL d   1      38.821  13.567  28.033 -0.06 -0.00    +0.012 C 
DOCKED: ENDBRANCH  12  45
DOCKED: BRANCH  17  47
DOCKED: ATOM     47  C   UNL d   1      30.982  14.952  29.590 -0.11 -0.00    +0.004 C 
DOCKED: ATOM     48  C   UNL d   1      30.930  15.842  30.584 -0.12 -0.00    +0.012 C 
DOCKED: ENDBRANCH  17  47
DOCKED: TORSDOF 12
DOCKED: TER
DOCKED: ENDMDL
________________________________________________________________________________


	BEGINNING GENETIC ALGORITHM DOCKING 77 of 100
Run: 77 Seed: 1202172960 1238169720 [ Run 77 of 100 GA/GALS ]
Beginning LAMARCKIAN GENETIC ALGORITHM (LGA), with a maximum of 25000000 energy evaluations.

Final-Value: -12.322


	FINAL GENETIC ALGORITHM DOCKED STATE
	_______________________________________________


Detailed state:  trans 6.117 41.816 -6.661 quatxyzw -0.040663 -0.513715 0.018263 0.856802 center 8.781 34.984 -0.736 ntor 12 23.8187 -144.4402 -92.0313 91.1411 -88.1558 -164.4391 151.2058 150.0636 -51.7667 84.4839 -3.8437 -176.3213
State:	  6.117  41.816  -6.661  -0.079 -0.996  0.035 62.081     23.82 -144.44  -92.03   91.14  -88.16 -164.44  151.21  150.06  -51.77   84.48   -3.84 -176.32

DOCKED: MODEL       77
DOCKED: USER    Run = 77
DOCKED: USER    DPF = D:/Protein_go_brrr/autodock/final/6BB5/heme_Co/dock.dpf
DOCKED: USER  
DOCKED: USER    Estimated Free Energy of Binding    =   -8.01 kcal/mol  [=(1)+(2)+(3)-(4)]
DOCKED: USER    Estimated Inhibition Constant, Ki   =    1.35 uM (micromolar)  [Temperature = 298.15 K]
DOCKED: USER    
DOCKED: USER    (1) Final Intermolecular Energy     =  -11.59 kcal/mol
DOCKED: USER        vdW + Hbond + desolv Energy     =   -7.93 kcal/mol
DOCKED: USER        Electrostatic Energy            =   -3.66 kcal/mol
DOCKED: USER    (2) Final Total Internal Energy     =   -0.74 kcal/mol
DOCKED: USER    (3) Torsional Free Energy           =   +3.58 kcal/mol
DOCKED: USER    (4) Unbound System's Energy  [=(2)] =   -0.74 kcal/mol
DOCKED: USER    
DOCKED: USER    
DOCKED: USER    NEWDPF move heme_Co_opt.pdbqt
DOCKED: USER    NEWDPF about 8.781000 34.984000 -0.736000
DOCKED: USER    NEWDPF tran0 6.117218 41.815530 -6.661341
DOCKED: USER    NEWDPF quaternion0 -0.040663 -0.513715 0.018263 0.856802
DOCKED: USER    NEWDPF axisangle0 -0.078858 -0.996256 0.035418 62.081139
DOCKED: USER    NEWDPF quat0 -0.078858 -0.996256 0.035418 62.081139
DOCKED: USER    NEWDPF dihe0 23.82 -144.44 -92.03 91.14 -88.16 -164.44 151.21 150.06 -51.77 84.48 -3.84 -176.32 
DOCKED: USER  keepresnum = 1 
DOCKED: USER  
DOCKED: REMARK  12 active torsions:
DOCKED: REMARK  status: ('A' for Active; 'I' for Inactive)
DOCKED: REMARK    1  A    between atoms: C_6  and  C_10 
DOCKED: REMARK    2  A    between atoms: C_10  and  C_11 
DOCKED: REMARK    3  A    between atoms: C_11  and  C_12 
DOCKED: REMARK    4  A    between atoms: C_12  and  O_14 
DOCKED: REMARK    5  A    between atoms: C_17  and  C_20 
DOCKED: REMARK    6  A    between atoms: C_24  and  C_27 
DOCKED: REMARK    7  A    between atoms: C_31  and  C_34 
DOCKED: REMARK    8  A    between atoms: C_34  and  C_35 
DOCKED: REMARK    9  A    between atoms: C_35  and  C_36 
DOCKED: REMARK   10  A    between atoms: C_36  and  O_38 
DOCKED: REMARK   11  A    between atoms: FE_43  and  C_44 
DOCKED: REMARK   12  A    between atoms: C_44  and  O_45 
DOCKED: USER                              x       y       z     vdW  Elec       q    Type
DOCKED: USER                           _______ _______ _______ _____ _____    ______ ____
DOCKED: ROOT
DOCKED: ATOM      1  C   UNL d   1       4.494  42.367  -5.328 -0.09 +0.02    +0.064 A 
DOCKED: ATOM      2  C   UNL d   1       8.176  39.401  -4.823 -0.31 -0.01    +0.064 C 
DOCKED: ATOM      3  C   UNL d   1       9.440  40.134  -9.372 -0.16 -0.04    +0.064 A 
DOCKED: ATOM      4  C   UNL d   1       5.917  43.461  -9.800 -0.05 -0.00    +0.064 A 
DOCKED: ATOM      5  C   UNL d   1       5.386  41.475  -4.867 -0.16 +0.01    +0.066 A 
DOCKED: ATOM      6  C   UNL d   1       5.392  41.052  -3.523 -0.17 -0.00    -0.021 A 
DOCKED: ATOM      7  C   UNL d   1       6.476  40.209  -3.377 -0.30 -0.00    -0.025 A 
DOCKED: ATOM      8  C   UNL d   1       7.075  40.141  -4.639 -0.25 -0.00    +0.066 A 
DOCKED: ATOM      9  C   UNL d   1       6.944  39.488  -2.103 -0.28 +0.00    +0.051 C 
DOCKED: ATOM     10  C   UNL d   1       8.845  39.250  -6.090 -0.05 -0.03    +0.066 A 
DOCKED: ATOM     11  C   UNL d   1       9.919  38.380  -6.379 -0.22 +0.01    -0.021 A 
DOCKED: ATOM     12  C   UNL d   1      10.265  38.611  -7.714 -0.34 -0.00    +0.000 A 
DOCKED: ATOM     13  C   UNL d   1       9.371  39.593  -8.142 -0.24 -0.03    +0.070 A 
DOCKED: ATOM     14  C   UNL d   1      10.496  37.337  -5.456 -0.27 -0.00    +0.052 C 
DOCKED: ATOM     15  C   UNL d   1       8.636  41.188  -9.959 -0.10 -0.04    +0.066 A 
DOCKED: ATOM     16  C   UNL d   1       8.852  41.802 -11.184 -0.07 +0.01    -0.021 A 
DOCKED: ATOM     17  C   UNL d   1       7.840  42.764 -11.312 -0.05 -0.00    +0.000 A 
DOCKED: ATOM     18  C   UNL d   1       7.074  42.649 -10.157 -0.05 -0.02    +0.070 A 
DOCKED: ATOM     19  C   UNL d   1       9.968  41.466 -12.149 -0.06 -0.03    +0.052 C 
DOCKED: ATOM     20  C   UNL d   1       5.209  43.426  -8.646 -0.07 +0.00    +0.066 A 
DOCKED: ATOM     21  C   UNL d   1       4.138  44.284  -8.405 -0.06 -0.00    -0.025 A 
DOCKED: ATOM     22  C   UNL d   1       3.690  43.972  -7.134 -0.08 -0.01    -0.021 A 
DOCKED: ATOM     23  C   UNL d   1       4.524  42.939  -6.655 -0.04 +0.02    +0.066 A 
DOCKED: ATOM     24  C   UNL d   1       3.581  45.362  -9.331 -0.03 +0.01    +0.051 C 
DOCKED: ATOM     25  N   UNL d   1       6.417  40.911  -5.583 -0.10 +0.00    -0.248 N 
DOCKED: ATOM     26  N   UNL d   1       8.478  39.938  -7.177 -0.13 +0.10    -0.248 N 
DOCKED: ATOM     27  N   UNL d   1       7.595  41.722  -9.361 -0.04 +0.09    -0.248 N 
DOCKED: ATOM     28  N   UNL d   1       5.446  42.608  -7.566 -0.06 -0.02    -0.248 N 
DOCKED: ATOM     29 FE   UNL d   1       7.038  41.342  -7.584 -0.03 -0.00    +0.000 Fe
DOCKED: ENDROOT
DOCKED: BRANCH   6  30
DOCKED: ATOM     30  C   UNL d   1       4.443  41.509  -2.421 -0.03 +0.02    +0.052 C 
DOCKED: BRANCH  30  31
DOCKED: ATOM     31  C   UNL d   1       3.113  40.761  -2.513 -0.14 +0.06    +0.115 C 
DOCKED: BRANCH  31  32
DOCKED: ATOM     32  C   UNL d   1       2.734  40.094  -1.208 -0.13 +0.18    +0.139 C 
DOCKED: ATOM     33  O   UNL d   1       3.222  40.498  -0.163 -0.20 -1.05    -0.650 OA
DOCKED: BRANCH  32  34
DOCKED: ATOM     34  O   UNL d   1       1.829  39.089  -1.152 -0.45 -1.38    -0.776 OA
DOCKED: ATOM     35  H   UNL d   1       1.571  38.547  -1.911 +0.02 +0.16    +0.167 HD
DOCKED: ENDBRANCH  32  34
DOCKED: ENDBRANCH  31  32
DOCKED: ENDBRANCH  30  31
DOCKED: ENDBRANCH   6  30
DOCKED: BRANCH  29  36
DOCKED: ATOM     36  C   UNL d   1       8.262  42.833  -6.763 -0.12 -0.12    +0.190 C 
DOCKED: BRANCH  36  37
DOCKED: ATOM     37  O   UNL d   1       9.118  43.107  -5.692 -0.69 +0.28    -0.399 OA
DOCKED: ATOM     38  H   UNL d   1      10.038  43.023  -6.071 -0.40 -0.32    +0.209 HD
DOCKED: ENDBRANCH  36  37
DOCKED: ENDBRANCH  29  36
DOCKED: BRANCH  22  39
DOCKED: ATOM     39  C   UNL d   1       2.563  44.675  -6.402 -0.07 +0.02    +0.052 C 
DOCKED: BRANCH  39  40
DOCKED: ATOM     40  C   UNL d   1       3.022  46.052  -5.895 -0.16 +0.08    +0.115 C 
DOCKED: BRANCH  40  41
DOCKED: ATOM     41  C   UNL d   1       3.372  46.091  -4.422 -0.09 +0.18    +0.139 C 
DOCKED: ATOM     42  O   UNL d   1       2.476  46.021  -3.592 -0.06 -0.76    -0.650 OA
DOCKED: BRANCH  41  43
DOCKED: ATOM     43  O   UNL d   1       4.655  46.113  -3.997 -0.58 -1.15    -0.776 OA
DOCKED: ATOM     44  H   UNL d   1       5.174  45.308  -3.873 -0.19 +0.12    +0.167 HD
DOCKED: ENDBRANCH  41  43
DOCKED: ENDBRANCH  40  41
DOCKED: ENDBRANCH  39  40
DOCKED: ENDBRANCH  22  39
DOCKED: BRANCH  12  45
DOCKED: ATOM     45  C   UNL d   1      11.318  38.008  -8.633 -0.36 -0.00    +0.004 C 
DOCKED: ATOM     46  C   UNL d   1      11.302  36.888  -9.351 -0.39 -0.00    +0.012 C 
DOCKED: ENDBRANCH  12  45
DOCKED: BRANCH  17  47
DOCKED: ATOM     47  C   UNL d   1       7.608  43.767 -12.393 -0.02 -0.00    +0.004 C 
DOCKED: ATOM     48  C   UNL d   1       7.787  45.081 -12.232 -0.03 -0.00    +0.012 C 
DOCKED: ENDBRANCH  17  47
DOCKED: TORSDOF 12
DOCKED: TER
DOCKED: ENDMDL
________________________________________________________________________________


	BEGINNING GENETIC ALGORITHM DOCKING 78 of 100
Run: 78 Seed: 1872232137 82956226 [ Run 78 of 100 GA/GALS ]
Beginning LAMARCKIAN GENETIC ALGORITHM (LGA), with a maximum of 25000000 energy evaluations.

Final-Value: -9.906


	FINAL GENETIC ALGORITHM DOCKED STATE
	_______________________________________________


Detailed state:  trans 37.058 46.595 2.093 quatxyzw 0.861308 -0.052074 0.374892 0.338959 center 8.781 34.984 -0.736 ntor 12 -22.0385 110.7815 85.0961 -6.6395 -108.3872 161.7312 -114.6438 135.2892 168.5087 146.7036 11.7503 26.5115
State:	 37.058  46.595   2.093   0.916 -0.055  0.398 140.373    -22.04  110.78   85.10   -6.64 -108.39  161.73 -114.64  135.29  168.51  146.70   11.75   26.51

DOCKED: MODEL       78
DOCKED: USER    Run = 78
DOCKED: USER    DPF = D:/Protein_go_brrr/autodock/final/6BB5/heme_Co/dock.dpf
DOCKED: USER  
DOCKED: USER    Estimated Free Energy of Binding    =   -4.57 kcal/mol  [=(1)+(2)+(3)-(4)]
DOCKED: USER    Estimated Inhibition Constant, Ki   =  443.33 uM (micromolar)  [Temperature = 298.15 K]
DOCKED: USER    
DOCKED: USER    (1) Final Intermolecular Energy     =   -8.15 kcal/mol
DOCKED: USER        vdW + Hbond + desolv Energy     =   -5.66 kcal/mol
DOCKED: USER        Electrostatic Energy            =   -2.50 kcal/mol
DOCKED: USER    (2) Final Total Internal Energy     =   -1.75 kcal/mol
DOCKED: USER    (3) Torsional Free Energy           =   +3.58 kcal/mol
DOCKED: USER    (4) Unbound System's Energy  [=(2)] =   -1.75 kcal/mol
DOCKED: USER    
DOCKED: USER    
DOCKED: USER    NEWDPF move heme_Co_opt.pdbqt
DOCKED: USER    NEWDPF about 8.781000 34.984000 -0.736000
DOCKED: USER    NEWDPF tran0 37.058254 46.595122 2.093380
DOCKED: USER    NEWDPF quaternion0 0.861308 -0.052074 0.374892 0.338959
DOCKED: USER    NEWDPF axisangle0 0.915505 -0.055350 0.398482 140.373080
DOCKED: USER    NEWDPF quat0 0.915505 -0.055350 0.398482 140.373080
DOCKED: USER    NEWDPF dihe0 -22.04 110.78 85.10 -6.64 -108.39 161.73 -114.64 135.29 168.51 146.70 11.75 26.51 
DOCKED: USER  keepresnum = 1 
DOCKED: USER  
DOCKED: REMARK  12 active torsions:
DOCKED: REMARK  status: ('A' for Active; 'I' for Inactive)
DOCKED: REMARK    1  A    between atoms: C_6  and  C_10 
DOCKED: REMARK    2  A    between atoms: C_10  and  C_11 
DOCKED: REMARK    3  A    between atoms: C_11  and  C_12 
DOCKED: REMARK    4  A    between atoms: C_12  and  O_14 
DOCKED: REMARK    5  A    between atoms: C_17  and  C_20 
DOCKED: REMARK    6  A    between atoms: C_24  and  C_27 
DOCKED: REMARK    7  A    between atoms: C_31  and  C_34 
DOCKED: REMARK    8  A    between atoms: C_34  and  C_35 
DOCKED: REMARK    9  A    between atoms: C_35  and  C_36 
DOCKED: REMARK   10  A    between atoms: C_36  and  O_38 
DOCKED: REMARK   11  A    between atoms: FE_43  and  C_44 
DOCKED: REMARK   12  A    between atoms: C_44  and  O_45 
DOCKED: USER                              x       y       z     vdW  Elec       q    Type
DOCKED: USER                           _______ _______ _______ _____ _____    ______ ____
DOCKED: ROOT
DOCKED: ATOM      1  C   UNL d   1      35.181  46.416   1.017 -0.07 +0.06    +0.064 A 
DOCKED: ATOM      2  C   UNL d   1      38.186  50.052   1.616 -0.05 +0.03    +0.064 C 
DOCKED: ATOM      3  C   UNL d   1      40.835  47.421   4.597 -0.21 +0.00    +0.064 A 
DOCKED: ATOM      4  C   UNL d   1      37.998  43.572   3.701 -0.17 +0.02    +0.064 A 
DOCKED: ATOM      5  C   UNL d   1      35.787  47.614   0.990 -0.05 +0.07    +0.066 A 
DOCKED: ATOM      6  C   UNL d   1      35.341  48.659   0.157 -0.06 -0.01    -0.021 A 
DOCKED: ATOM      7  C   UNL d   1      36.230  49.703   0.317 -0.05 -0.01    -0.025 A 
DOCKED: ATOM      8  C   UNL d   1      37.170  49.258   1.253 -0.08 +0.04    +0.066 A 
DOCKED: ATOM      9  C   UNL d   1      36.209  51.074  -0.377 -0.02 +0.01    +0.051 C 
DOCKED: ATOM     10  C   UNL d   1      39.185  49.691   2.590 -0.05 +0.02    +0.066 A 
DOCKED: ATOM     11  C   UNL d   1      40.192  50.528   3.116 -0.05 -0.00    -0.021 A 
DOCKED: ATOM     12  C   UNL d   1      40.947  49.737   3.986 -0.15 +0.00    +0.000 A 
DOCKED: ATOM     13  C   UNL d   1      40.340  48.482   3.935 -0.12 +0.01    +0.070 A 
DOCKED: ATOM     14  C   UNL d   1      40.344  52.007   2.865 -0.04 +0.01    +0.052 C 
DOCKED: ATOM     15  C   UNL d   1      40.368  46.049   4.615 -0.20 +0.01    +0.066 A 
DOCKED: ATOM     16  C   UNL d   1      41.010  44.969   5.204 -0.36 -0.00    -0.021 A 
DOCKED: ATOM     17  C   UNL d   1      40.197  43.856   4.946 -0.31 +0.00    +0.000 A 
DOCKED: ATOM     18  C   UNL d   1      39.110  44.350   4.233 -0.17 +0.02    +0.070 A 
DOCKED: ATOM     19  C   UNL d   1      42.320  45.032   5.957 -0.33 +0.00    +0.052 C 
DOCKED: ATOM     20  C   UNL d   1      36.976  44.016   2.931 -0.15 +0.03    +0.066 A 
DOCKED: ATOM     21  C   UNL d   1      35.984  43.165   2.449 -0.14 -0.01    -0.025 A 
DOCKED: ATOM     22  C   UNL d   1      35.141  43.962   1.696 -0.10 -0.01    -0.021 A 
DOCKED: ATOM     23  C   UNL d   1      35.672  45.269   1.746 -0.07 +0.06    +0.066 A 
DOCKED: ATOM     24  C   UNL d   1      35.855  41.661   2.678 -0.22 +0.00    +0.051 C 
DOCKED: ATOM     25  N   UNL d   1      36.917  47.970   1.691 -0.04 -0.29    -0.248 N 
DOCKED: ATOM     26  N   UNL d   1      39.241  48.471   3.135 -0.04 -0.11    -0.248 N 
DOCKED: ATOM     27  N   UNL d   1      39.261  45.654   4.028 -0.07 -0.09    -0.248 N 
DOCKED: ATOM     28  N   UNL d   1      36.784  45.305   2.490 -0.08 -0.25    -0.248 N 
DOCKED: ATOM     29 FE   UNL d   1      38.156  46.740   2.929 -0.03 +0.00    +0.000 Fe
DOCKED: ENDROOT
DOCKED: BRANCH   6  30
DOCKED: ATOM     30  C   UNL d   1      34.160  48.612  -0.807 -0.02 +0.02    +0.052 C 
DOCKED: BRANCH  30  31
DOCKED: ATOM     31  C   UNL d   1      32.909  49.197  -0.153 -0.04 +0.04    +0.115 C 
DOCKED: BRANCH  31  32
DOCKED: ATOM     32  C   UNL d   1      33.065  49.364   1.343 -0.17 +0.09    +0.139 C 
DOCKED: ATOM     33  O   UNL d   1      33.040  50.485   1.829 -0.06 -0.36    -0.650 OA
DOCKED: BRANCH  32  34
DOCKED: ATOM     34  O   UNL d   1      33.183  48.303   2.175 -0.43 -1.14    -0.776 OA
DOCKED: ATOM     35  H   UNL d   1      32.833  47.422   1.986 +0.04 +0.19    +0.167 HD
DOCKED: ENDBRANCH  32  34
DOCKED: ENDBRANCH  31  32
DOCKED: ENDBRANCH  30  31
DOCKED: ENDBRANCH   6  30
DOCKED: BRANCH  29  36
DOCKED: ATOM     36  C   UNL d   1      39.233  46.274   1.192 -0.01 +0.05    +0.190 C 
DOCKED: BRANCH  36  37
DOCKED: ATOM     37  O   UNL d   1      39.358  46.598  -0.163 +0.01 -0.08    -0.399 OA
DOCKED: ATOM     38  H   UNL d   1      38.648  47.279  -0.330 +0.01 +0.05    +0.209 HD
DOCKED: ENDBRANCH  36  37
DOCKED: ENDBRANCH  29  36
DOCKED: BRANCH  22  39
DOCKED: ATOM     39  C   UNL d   1      33.931  43.476   0.920 -0.06 +0.02    +0.052 C 
DOCKED: BRANCH  39  40
DOCKED: ATOM     40  C   UNL d   1      32.687  44.303   1.282 -0.07 +0.05    +0.115 C 
DOCKED: BRANCH  40  41
DOCKED: ATOM     41  C   UNL d   1      32.583  44.668   2.748 -0.23 +0.08    +0.139 C 
DOCKED: ATOM     42  O   UNL d   1      32.054  43.884   3.523 -0.03 -0.29    -0.650 OA
DOCKED: BRANCH  41  43
DOCKED: ATOM     43  O   UNL d   1      33.137  45.798   3.240 +0.01 -1.06    -0.776 OA
DOCKED: ATOM     44  H   UNL d   1      32.652  46.631   3.299 +0.04 +0.21    +0.167 HD
DOCKED: ENDBRANCH  41  43
DOCKED: ENDBRANCH  40  41
DOCKED: ENDBRANCH  39  40
DOCKED: ENDBRANCH  22  39
DOCKED: BRANCH  12  45
DOCKED: ATOM     45  C   UNL d   1      42.155  50.025   4.868 -0.19 -0.00    +0.004 C 
DOCKED: ATOM     46  C   UNL d   1      43.003  51.050   4.867 -0.18 -0.00    +0.012 C 
DOCKED: ENDBRANCH  12  45
DOCKED: BRANCH  17  47
DOCKED: ATOM     47  C   UNL d   1      40.415  42.417   5.282 -0.48 +0.00    +0.004 C 
DOCKED: ATOM     48  C   UNL d   1      40.294  41.427   4.395 -0.34 +0.00    +0.012 C 
DOCKED: ENDBRANCH  17  47
DOCKED: TORSDOF 12
DOCKED: TER
DOCKED: ENDMDL
________________________________________________________________________________


	BEGINNING GENETIC ALGORITHM DOCKING 79 of 100
Run: 79 Seed: 1663643689 1117264908 [ Run 79 of 100 GA/GALS ]
Beginning LAMARCKIAN GENETIC ALGORITHM (LGA), with a maximum of 25000000 energy evaluations.

Final-Value: -10.272


	FINAL GENETIC ALGORITHM DOCKED STATE
	_______________________________________________


Detailed state:  trans 18.561 48.610 -3.533 quatxyzw 0.199372 -0.803897 0.195703 0.525073 center 8.781 34.984 -0.736 ntor 12 5.4497 99.2464 -151.3765 -108.4487 -94.4428 82.9048 67.7415 110.0038 -107.7856 145.6383 -7.3012 -179.9773
State:	 18.561  48.610  -3.533   0.234 -0.945  0.230 116.654      5.45   99.25 -151.38 -108.45  -94.44   82.90   67.74  110.00 -107.79  145.64   -7.30 -179.98

DOCKED: MODEL       79
DOCKED: USER    Run = 79
DOCKED: USER    DPF = D:/Protein_go_brrr/autodock/final/6BB5/heme_Co/dock.dpf
DOCKED: USER  
DOCKED: USER    Estimated Free Energy of Binding    =   -4.62 kcal/mol  [=(1)+(2)+(3)-(4)]
DOCKED: USER    Estimated Inhibition Constant, Ki   =  408.64 uM (micromolar)  [Temperature = 298.15 K]
DOCKED: USER    
DOCKED: USER    (1) Final Intermolecular Energy     =   -8.20 kcal/mol
DOCKED: USER        vdW + Hbond + desolv Energy     =   -8.35 kcal/mol
DOCKED: USER        Electrostatic Energy            =   +0.14 kcal/mol
DOCKED: USER    (2) Final Total Internal Energy     =   -2.07 kcal/mol
DOCKED: USER    (3) Torsional Free Energy           =   +3.58 kcal/mol
DOCKED: USER    (4) Unbound System's Energy  [=(2)] =   -2.07 kcal/mol
DOCKED: USER    
DOCKED: USER    
DOCKED: USER    NEWDPF move heme_Co_opt.pdbqt
DOCKED: USER    NEWDPF about 8.781000 34.984000 -0.736000
DOCKED: USER    NEWDPF tran0 18.561499 48.609570 -3.533472
DOCKED: USER    NEWDPF quaternion0 0.199372 -0.803897 0.195703 0.525073
DOCKED: USER    NEWDPF axisangle0 0.234263 -0.944586 0.229953 116.653706
DOCKED: USER    NEWDPF quat0 0.234263 -0.944586 0.229953 116.653706
DOCKED: USER    NEWDPF dihe0 5.45 99.25 -151.38 -108.45 -94.44 82.90 67.74 110.00 -107.79 145.64 -7.30 -179.98 
DOCKED: USER  keepresnum = 1 
DOCKED: USER  
DOCKED: REMARK  12 active torsions:
DOCKED: REMARK  status: ('A' for Active; 'I' for Inactive)
DOCKED: REMARK    1  A    between atoms: C_6  and  C_10 
DOCKED: REMARK    2  A    between atoms: C_10  and  C_11 
DOCKED: REMARK    3  A    between atoms: C_11  and  C_12 
DOCKED: REMARK    4  A    between atoms: C_12  and  O_14 
DOCKED: REMARK    5  A    between atoms: C_17  and  C_20 
DOCKED: REMARK    6  A    between atoms: C_24  and  C_27 
DOCKED: REMARK    7  A    between atoms: C_31  and  C_34 
DOCKED: REMARK    8  A    between atoms: C_34  and  C_35 
DOCKED: REMARK    9  A    between atoms: C_35  and  C_36 
DOCKED: REMARK   10  A    between atoms: C_36  and  O_38 
DOCKED: REMARK   11  A    between atoms: FE_43  and  C_44 
DOCKED: REMARK   12  A    between atoms: C_44  and  O_45 
DOCKED: USER                              x       y       z     vdW  Elec       q    Type
DOCKED: USER                           _______ _______ _______ _____ _____    ______ ____
DOCKED: ROOT
DOCKED: ATOM      1  C   UNL d   1      18.434  50.138  -1.996 -0.23 -0.02    +0.064 A 
DOCKED: ATOM      2  C   UNL d   1      21.720  46.838  -2.956 -0.26 -0.00    +0.064 C 
DOCKED: ATOM      3  C   UNL d   1      18.946  45.023  -6.398 -0.28 +0.00    +0.064 A 
DOCKED: ATOM      4  C   UNL d   1      15.746  48.619  -5.696 -0.15 -0.01    +0.064 A 
DOCKED: ATOM      5  C   UNL d   1      19.520  49.347  -1.981 -0.09 -0.02    +0.066 A 
DOCKED: ATOM      6  C   UNL d   1      20.619  49.602  -1.138 -0.21 +0.00    -0.021 A 
DOCKED: ATOM      7  C   UNL d   1      21.579  48.655  -1.437 -0.18 +0.00    -0.025 A 
DOCKED: ATOM      8  C   UNL d   1      21.019  47.854  -2.437 -0.21 -0.01    +0.066 A 
DOCKED: ATOM      9  C   UNL d   1      22.975  48.499  -0.814 -0.13 +0.00    +0.051 C 
DOCKED: ATOM     10  C   UNL d   1      21.217  45.944  -3.969 -0.25 -0.01    +0.066 A 
DOCKED: ATOM     11  C   UNL d   1      21.848  44.777  -4.454 -0.28 -0.00    -0.021 A 
DOCKED: ATOM     12  C   UNL d   1      21.016  44.266  -5.453 -0.32 +0.00    +0.000 A 
DOCKED: ATOM     13  C   UNL d   1      19.936  45.148  -5.496 -0.30 -0.00    +0.070 A 
DOCKED: ATOM     14  C   UNL d   1      23.113  44.159  -3.917 -0.30 +0.01    +0.052 C 
DOCKED: ATOM     15  C   UNL d   1      17.789  45.868  -6.616 -0.25 -0.00    +0.066 A 
DOCKED: ATOM     16  C   UNL d   1      16.880  45.766  -7.660 -0.28 +0.00    -0.021 A 
DOCKED: ATOM     17  C   UNL d   1      15.957  46.803  -7.463 -0.25 -0.00    +0.000 A 
DOCKED: ATOM     18  C   UNL d   1      16.367  47.447  -6.301 -0.19 -0.01    +0.070 A 
DOCKED: ATOM     19  C   UNL d   1      16.923  44.730  -8.761 -0.25 -0.00    +0.052 C 
DOCKED: ATOM     20  C   UNL d   1      16.176  49.315  -4.616 -0.17 -0.01    +0.066 A 
DOCKED: ATOM     21  C   UNL d   1      15.514  50.448  -4.150 -0.23 +0.00    -0.025 A 
DOCKED: ATOM     22  C   UNL d   1      16.250  50.891  -3.066 -0.32 +0.00    -0.021 A 
DOCKED: ATOM     23  C   UNL d   1      17.341  50.006  -2.931 -0.27 -0.02    +0.066 A 
DOCKED: ATOM     24  C   UNL d   1      14.252  51.090  -4.720 -0.22 -0.01    +0.051 C 
DOCKED: ATOM     25  N   UNL d   1      19.742  48.256  -2.790 +0.04 +0.09    -0.248 N 
DOCKED: ATOM     26  N   UNL d   1      20.032  46.130  -4.560 -0.19 +0.03    -0.248 N 
DOCKED: ATOM     27  N   UNL d   1      17.478  46.883  -5.841 -0.14 +0.03    -0.248 N 
DOCKED: ATOM     28  N   UNL d   1      17.301  49.052  -3.869 -0.13 +0.07    -0.248 N 
DOCKED: ATOM     29 FE   UNL d   1      18.540  47.531  -4.405 -0.05 -0.00    +0.000 Fe
DOCKED: ENDROOT
DOCKED: BRANCH   6  30
DOCKED: ATOM     30  C   UNL d   1      20.760  50.758  -0.152 -0.24 -0.01    +0.052 C 
DOCKED: BRANCH  30  31
DOCKED: ATOM     31  C   UNL d   1      19.936  50.493   1.107 -0.24 -0.04    +0.115 C 
DOCKED: BRANCH  31  32
DOCKED: ATOM     32  C   UNL d   1      20.519  49.383   1.956 -0.36 -0.02    +0.139 C 
DOCKED: ATOM     33  O   UNL d   1      20.608  48.256   1.492 -0.50 +0.00    -0.650 OA
DOCKED: BRANCH  32  34
DOCKED: ATOM     34  O   UNL d   1      20.992  49.607   3.203 +0.07 +0.05    -0.776 OA
DOCKED: ATOM     35  H   UNL d   1      20.978  50.468   3.644 +0.08 -0.01    +0.167 HD
DOCKED: ENDBRANCH  32  34
DOCKED: ENDBRANCH  31  32
DOCKED: ENDBRANCH  30  31
DOCKED: ENDBRANCH   6  30
DOCKED: BRANCH  29  36
DOCKED: ATOM     36  C   UNL d   1      19.628  48.824  -5.646 -0.03 -0.01    +0.190 C 
DOCKED: BRANCH  36  37
DOCKED: ATOM     37  O   UNL d   1      19.811  50.174  -5.961 +0.00 +0.02    -0.399 OA
DOCKED: ATOM     38  H   UNL d   1      19.036  50.643  -5.542 +0.02 -0.02    +0.209 HD
DOCKED: ENDBRANCH  36  37
DOCKED: ENDBRANCH  29  36
DOCKED: BRANCH  22  39
DOCKED: ATOM     39  C   UNL d   1      15.952  52.134  -2.250 -0.24 -0.01    +0.052 C 
DOCKED: BRANCH  39  40
DOCKED: ATOM     40  C   UNL d   1      16.430  53.396  -2.988 -0.13 -0.02    +0.115 C 
DOCKED: BRANCH  40  41
DOCKED: ATOM     41  C   UNL d   1      17.760  53.240  -3.695 -0.09 -0.01    +0.139 C 
DOCKED: ATOM     42  O   UNL d   1      18.733  53.856  -3.282 +0.00 +0.05    -0.650 OA
DOCKED: BRANCH  41  43
DOCKED: ATOM     43  O   UNL d   1      17.924  52.371  -4.717 +0.05 +0.07    -0.776 OA
DOCKED: ATOM     44  H   UNL d   1      18.747  51.888  -4.861 +0.02 -0.01    +0.167 HD
DOCKED: ENDBRANCH  41  43
DOCKED: ENDBRANCH  40  41
DOCKED: ENDBRANCH  39  40
DOCKED: ENDBRANCH  22  39
DOCKED: BRANCH  12  45
DOCKED: ATOM     45  C   UNL d   1      21.107  43.042  -6.355 -0.35 +0.00    +0.004 C 
DOCKED: ATOM     46  C   UNL d   1      21.201  42.946  -7.678 -0.23 +0.00    +0.012 C 
DOCKED: ENDBRANCH  12  45
DOCKED: BRANCH  17  47
DOCKED: ATOM     47  C   UNL d   1      14.797  47.219  -8.307 +0.03 -0.00    +0.004 C 
DOCKED: ATOM     48  C   UNL d   1      14.716  48.405  -8.915 -0.13 -0.00    +0.012 C 
DOCKED: ENDBRANCH  17  47
DOCKED: TORSDOF 12
DOCKED: TER
DOCKED: ENDMDL
________________________________________________________________________________


	BEGINNING GENETIC ALGORITHM DOCKING 80 of 100
Run: 80 Seed: 706391731 400159667 [ Run 80 of 100 GA/GALS ]
Beginning LAMARCKIAN GENETIC ALGORITHM (LGA), with a maximum of 25000000 energy evaluations.

Final-Value: -10.554


	FINAL GENETIC ALGORITHM DOCKED STATE
	_______________________________________________


Detailed state:  trans 37.235 54.528 12.881 quatxyzw -0.190678 -0.776752 -0.366263 0.475551 center 8.781 34.984 -0.736 ntor 12 -170.4660 81.9744 118.6371 116.6112 137.6982 146.8674 65.8295 -18.1337 -104.7975 121.1054 169.7195 -162.2399
State:	 37.235  54.528  12.881  -0.217 -0.883 -0.416 123.210   -170.47   81.97  118.64  116.61  137.70  146.87   65.83  -18.13 -104.80  121.11  169.72 -162.24

DOCKED: MODEL       80
DOCKED: USER    Run = 80
DOCKED: USER    DPF = D:/Protein_go_brrr/autodock/final/6BB5/heme_Co/dock.dpf
DOCKED: USER  
DOCKED: USER    Estimated Free Energy of Binding    =   -4.40 kcal/mol  [=(1)+(2)+(3)-(4)]
DOCKED: USER    Estimated Inhibition Constant, Ki   =  593.25 uM (micromolar)  [Temperature = 298.15 K]
DOCKED: USER    
DOCKED: USER    (1) Final Intermolecular Energy     =   -7.98 kcal/mol
DOCKED: USER        vdW + Hbond + desolv Energy     =   -5.77 kcal/mol
DOCKED: USER        Electrostatic Energy            =   -2.21 kcal/mol
DOCKED: USER    (2) Final Total Internal Energy     =   -2.57 kcal/mol
DOCKED: USER    (3) Torsional Free Energy           =   +3.58 kcal/mol
DOCKED: USER    (4) Unbound System's Energy  [=(2)] =   -2.57 kcal/mol
DOCKED: USER    
DOCKED: USER    
DOCKED: USER    NEWDPF move heme_Co_opt.pdbqt
DOCKED: USER    NEWDPF about 8.781000 34.984000 -0.736000
DOCKED: USER    NEWDPF tran0 37.235299 54.528447 12.880688
DOCKED: USER    NEWDPF quaternion0 -0.190678 -0.776752 -0.366263 0.475551
DOCKED: USER    NEWDPF axisangle0 -0.216756 -0.882986 -0.416356 123.209526
DOCKED: USER    NEWDPF quat0 -0.216756 -0.882986 -0.416356 123.209526
DOCKED: USER    NEWDPF dihe0 -170.47 81.97 118.64 116.61 137.70 146.87 65.83 -18.13 -104.80 121.11 169.72 -162.24 
DOCKED: USER  keepresnum = 1 
DOCKED: USER  
DOCKED: REMARK  12 active torsions:
DOCKED: REMARK  status: ('A' for Active; 'I' for Inactive)
DOCKED: REMARK    1  A    between atoms: C_6  and  C_10 
DOCKED: REMARK    2  A    between atoms: C_10  and  C_11 
DOCKED: REMARK    3  A    between atoms: C_11  and  C_12 
DOCKED: REMARK    4  A    between atoms: C_12  and  O_14 
DOCKED: REMARK    5  A    between atoms: C_17  and  C_20 
DOCKED: REMARK    6  A    between atoms: C_24  and  C_27 
DOCKED: REMARK    7  A    between atoms: C_31  and  C_34 
DOCKED: REMARK    8  A    between atoms: C_34  and  C_35 
DOCKED: REMARK    9  A    between atoms: C_35  and  C_36 
DOCKED: REMARK   10  A    between atoms: C_36  and  O_38 
DOCKED: REMARK   11  A    between atoms: FE_43  and  C_44 
DOCKED: REMARK   12  A    between atoms: C_44  and  O_45 
DOCKED: USER                              x       y       z     vdW  Elec       q    Type
DOCKED: USER                           _______ _______ _______ _____ _____    ______ ____
DOCKED: ROOT
DOCKED: ATOM      1  C   UNL d   1      37.382  53.281  14.652 -0.21 +0.03    +0.064 A 
DOCKED: ATOM      2  C   UNL d   1      40.203  53.787  10.858 -0.10 -0.02    +0.064 C 
DOCKED: ATOM      3  C   UNL d   1      37.026  56.730   8.840 -0.14 +0.02    +0.064 A 
DOCKED: ATOM      4  C   UNL d   1      34.306  56.533  12.869 +0.03 +0.00    +0.064 A 
DOCKED: ATOM      5  C   UNL d   1      38.369  53.174  13.748 -0.16 +0.02    +0.066 A 
DOCKED: ATOM      6  C   UNL d   1      39.542  52.438  14.005 -0.19 -0.00    -0.021 A 
DOCKED: ATOM      7  C   UNL d   1      40.367  52.607  12.911 -0.17 +0.00    -0.025 A 
DOCKED: ATOM      8  C   UNL d   1      39.656  53.425  12.026 -0.16 -0.00    +0.066 A 
DOCKED: ATOM      9  C   UNL d   1      41.773  52.028  12.692 -0.22 -0.02    +0.051 C 
DOCKED: ATOM     10  C   UNL d   1      39.538  54.603   9.874 -0.13 +0.02    +0.066 A 
DOCKED: ATOM     11  C   UNL d   1      40.000  54.902   8.573 -0.09 -0.01    -0.021 A 
DOCKED: ATOM     12  C   UNL d   1      39.052  55.758   8.006 -0.11 +0.00    +0.000 A 
DOCKED: ATOM     13  C   UNL d   1      38.079  55.908   8.994 -0.13 +0.04    +0.070 A 
DOCKED: ATOM     14  C   UNL d   1      41.219  54.320   7.904 -0.12 -0.01    +0.052 C 
DOCKED: ATOM     15  C   UNL d   1      35.960  57.043   9.772 -0.14 +0.02    +0.066 A 
DOCKED: ATOM     16  C   UNL d   1      34.980  58.012   9.606 -0.12 -0.00    -0.021 A 
DOCKED: ATOM     17  C   UNL d   1      34.195  57.961  10.767 -0.15 +0.00    +0.000 A 
DOCKED: ATOM     18  C   UNL d   1      34.749  56.949  11.544 -0.17 +0.01    +0.070 A 
DOCKED: ATOM     19  C   UNL d   1      34.834  58.914   8.401 -0.10 +0.01    +0.052 C 
DOCKED: ATOM     20  C   UNL d   1      34.881  55.613  13.680 -0.18 +0.01    +0.066 A 
DOCKED: ATOM     21  C   UNL d   1      34.382  55.325  14.948 -0.22 -0.00    -0.025 A 
DOCKED: ATOM     22  C   UNL d   1      35.232  54.369  15.475 -0.29 -0.01    -0.021 A 
DOCKED: ATOM     23  C   UNL d   1      36.222  54.129  14.498 -0.23 +0.03    +0.066 A 
DOCKED: ATOM     24  C   UNL d   1      33.167  55.944  15.634 -0.13 +0.01    +0.051 C 
DOCKED: ATOM     25  N   UNL d   1      38.413  53.787  12.516 -0.08 -0.05    -0.248 N 
DOCKED: ATOM     26  N   UNL d   1      38.346  55.165  10.101 -0.10 -0.13    -0.248 N 
DOCKED: ATOM     27  N   UNL d   1      35.817  56.446  10.934 -0.10 -0.06    -0.248 N 
DOCKED: ATOM     28  N   UNL d   1      36.014  54.881  13.411 -0.13 -0.06    -0.248 N 
DOCKED: ATOM     29 FE   UNL d   1      37.036  55.194  11.681 -0.04 +0.00    +0.000 Fe
DOCKED: ENDROOT
DOCKED: BRANCH   6  30
DOCKED: ATOM     30  C   UNL d   1      39.877  51.678  15.285 -0.24 +0.02    +0.052 C 
DOCKED: BRANCH  30  31
DOCKED: ATOM     31  C   UNL d   1      40.934  52.429  16.094 -0.14 +0.05    +0.115 C 
DOCKED: BRANCH  31  32
DOCKED: ATOM     32  C   UNL d   1      40.375  53.665  16.767 -0.08 +0.11    +0.139 C 
DOCKED: ATOM     33  O   UNL d   1      39.951  54.583  16.082 -0.00 -0.34    -0.650 OA
DOCKED: BRANCH  32  34
DOCKED: ATOM     34  O   UNL d   1      40.285  53.769  18.114 -0.43 -1.02    -0.776 OA
DOCKED: ATOM     35  H   UNL d   1      39.867  54.510  18.574 +0.00 +0.22    +0.167 HD
DOCKED: ENDBRANCH  32  34
DOCKED: ENDBRANCH  31  32
DOCKED: ENDBRANCH  30  31
DOCKED: ENDBRANCH   6  30
DOCKED: BRANCH  29  36
DOCKED: ATOM     36  C   UNL d   1      38.181  56.690  12.601 -0.01 +0.03    +0.190 C 
DOCKED: BRANCH  36  37
DOCKED: ATOM     37  O   UNL d   1      39.239  56.893  13.492 +0.01 -0.06    -0.399 OA
DOCKED: ATOM     38  H   UNL d   1      39.187  56.128  14.131 +0.02 +0.04    +0.209 HD
DOCKED: ENDBRANCH  36  37
DOCKED: ENDBRANCH  29  36
DOCKED: BRANCH  22  39
DOCKED: ATOM     39  C   UNL d   1      35.131  53.773  16.866 -0.16 +0.04    +0.052 C 
DOCKED: BRANCH  39  40
DOCKED: ATOM     40  C   UNL d   1      35.274  54.866  17.937 -0.15 +0.09    +0.115 C 
DOCKED: BRANCH  40  41
DOCKED: ATOM     41  C   UNL d   1      36.628  55.544  17.961 -0.09 +0.12    +0.139 C 
DOCKED: ATOM     42  O   UNL d   1      36.697  56.751  17.771 +0.02 -0.28    -0.650 OA
DOCKED: BRANCH  41  43
DOCKED: ATOM     43  O   UNL d   1      37.756  54.868  18.272 +0.03 -1.30    -0.776 OA
DOCKED: ATOM     44  H   UNL d   1      38.527  54.847  17.689 +0.00 +0.23    +0.167 HD
DOCKED: ENDBRANCH  41  43
DOCKED: ENDBRANCH  40  41
DOCKED: ENDBRANCH  39  40
DOCKED: ENDBRANCH  22  39
DOCKED: BRANCH  12  45
DOCKED: ATOM     45  C   UNL d   1      38.946  56.433   6.645 -0.10 +0.00    +0.004 C 
DOCKED: ATOM     46  C   UNL d   1      38.132  56.192   5.620 -0.14 +0.01    +0.012 C 
DOCKED: ENDBRANCH  12  45
DOCKED: BRANCH  17  47
DOCKED: ATOM     47  C   UNL d   1      33.037  58.812  11.174 -0.11 +0.00    +0.004 C 
DOCKED: ATOM     48  C   UNL d   1      31.799  58.342  11.342 -0.16 -0.00    +0.012 C 
DOCKED: ENDBRANCH  17  47
DOCKED: TORSDOF 12
DOCKED: TER
DOCKED: ENDMDL
________________________________________________________________________________


	BEGINNING GENETIC ALGORITHM DOCKING 81 of 100
Run: 81 Seed: 1061496961 1387741249 [ Run 81 of 100 GA/GALS ]
Beginning LAMARCKIAN GENETIC ALGORITHM (LGA), with a maximum of 25000000 energy evaluations.

Final-Value: -10.908


	FINAL GENETIC ALGORITHM DOCKED STATE
	_______________________________________________


Detailed state:  trans 1.219 35.051 0.074 quatxyzw -0.703311 0.472121 -0.529899 0.040777 center 8.781 34.984 -0.736 ntor 12 27.8222 88.0635 101.4412 1.4825 134.5164 149.9009 -140.8105 16.9790 154.7828 92.6764 2.0575 142.8034
State:	  1.219  35.051   0.074  -0.704  0.473 -0.530 175.326     27.82   88.06  101.44    1.48  134.52  149.90 -140.81   16.98  154.78   92.68    2.06  142.80

DOCKED: MODEL       81
DOCKED: USER    Run = 81
DOCKED: USER    DPF = D:/Protein_go_brrr/autodock/final/6BB5/heme_Co/dock.dpf
DOCKED: USER  
DOCKED: USER    Estimated Free Energy of Binding    =   -5.36 kcal/mol  [=(1)+(2)+(3)-(4)]
DOCKED: USER    Estimated Inhibition Constant, Ki   =  118.52 uM (micromolar)  [Temperature = 298.15 K]
DOCKED: USER    
DOCKED: USER    (1) Final Intermolecular Energy     =   -8.94 kcal/mol
DOCKED: USER        vdW + Hbond + desolv Energy     =   -6.69 kcal/mol
DOCKED: USER        Electrostatic Energy            =   -2.25 kcal/mol
DOCKED: USER    (2) Final Total Internal Energy     =   -1.97 kcal/mol
DOCKED: USER    (3) Torsional Free Energy           =   +3.58 kcal/mol
DOCKED: USER    (4) Unbound System's Energy  [=(2)] =   -1.97 kcal/mol
DOCKED: USER    
DOCKED: USER    
DOCKED: USER    NEWDPF move heme_Co_opt.pdbqt
DOCKED: USER    NEWDPF about 8.781000 34.984000 -0.736000
DOCKED: USER    NEWDPF tran0 1.219087 35.050610 0.073929
DOCKED: USER    NEWDPF quaternion0 -0.703311 0.472121 -0.529899 0.040777
DOCKED: USER    NEWDPF axisangle0 -0.703897 0.472514 -0.530340 175.326035
DOCKED: USER    NEWDPF quat0 -0.703897 0.472514 -0.530340 175.326035
DOCKED: USER    NEWDPF dihe0 27.82 88.06 101.44 1.48 134.52 149.90 -140.81 16.98 154.78 92.68 2.06 142.80 
DOCKED: USER  keepresnum = 1 
DOCKED: USER  
DOCKED: REMARK  12 active torsions:
DOCKED: REMARK  status: ('A' for Active; 'I' for Inactive)
DOCKED: REMARK    1  A    between atoms: C_6  and  C_10 
DOCKED: REMARK    2  A    between atoms: C_10  and  C_11 
DOCKED: REMARK    3  A    between atoms: C_11  and  C_12 
DOCKED: REMARK    4  A    between atoms: C_12  and  O_14 
DOCKED: REMARK    5  A    between atoms: C_17  and  C_20 
DOCKED: REMARK    6  A    between atoms: C_24  and  C_27 
DOCKED: REMARK    7  A    between atoms: C_31  and  C_34 
DOCKED: REMARK    8  A    between atoms: C_34  and  C_35 
DOCKED: REMARK    9  A    between atoms: C_35  and  C_36 
DOCKED: REMARK   10  A    between atoms: C_36  and  O_38 
DOCKED: REMARK   11  A    between atoms: FE_43  and  C_44 
DOCKED: REMARK   12  A    between atoms: C_44  and  O_45 
DOCKED: USER                              x       y       z     vdW  Elec       q    Type
DOCKED: USER                           _______ _______ _______ _____ _____    ______ ____
DOCKED: ROOT
DOCKED: ATOM      1  C   UNL d   1       0.280  36.451  -1.294 -0.09 +0.04    +0.064 A 
DOCKED: ATOM      2  C   UNL d   1       4.792  35.052  -0.754 -0.12 +0.01    +0.064 C 
DOCKED: ATOM      3  C   UNL d   1       3.571  32.467   3.075 -0.30 -0.00    +0.064 A 
DOCKED: ATOM      4  C   UNL d   1      -1.104  33.573   2.314 -0.07 +0.01    +0.064 A 
DOCKED: ATOM      5  C   UNL d   1       1.608  36.288  -1.406 -0.12 +0.04    +0.066 A 
DOCKED: ATOM      6  C   UNL d   1       2.342  36.843  -2.472 -0.09 -0.01    -0.021 A 
DOCKED: ATOM      7  C   UNL d   1       3.647  36.415  -2.323 -0.14 -0.01    -0.025 A 
DOCKED: ATOM      8  C   UNL d   1       3.656  35.631  -1.164 -0.17 +0.02    +0.066 A 
DOCKED: ATOM      9  C   UNL d   1       4.849  36.723  -3.229 -0.17 +0.01    +0.051 C 
DOCKED: ATOM     10  C   UNL d   1       4.904  34.250   0.439 -0.27 +0.01    +0.066 A 
DOCKED: ATOM     11  C   UNL d   1       6.092  33.732   0.999 -0.38 -0.00    -0.021 A 
DOCKED: ATOM     12  C   UNL d   1       5.707  32.986   2.117 -0.46 +0.00    +0.000 A 
DOCKED: ATOM     13  C   UNL d   1       4.319  33.114   2.163 -0.35 +0.01    +0.070 A 
DOCKED: ATOM     14  C   UNL d   1       7.496  34.023   0.537 -0.31 +0.01    +0.052 C 
DOCKED: ATOM     15  C   UNL d   1       2.131  32.444   3.234 -0.27 +0.00    +0.066 A 
DOCKED: ATOM     16  C   UNL d   1       1.412  31.639   4.107 -0.27 +0.00    -0.021 A 
DOCKED: ATOM     17  C   UNL d   1       0.063  31.953   3.890 -0.13 +0.00    +0.000 A 
DOCKED: ATOM     18  C   UNL d   1       0.066  32.940   2.910 -0.12 +0.01    +0.070 A 
DOCKED: ATOM     19  C   UNL d   1       2.010  30.642   5.074 -0.27 -0.01    +0.052 C 
DOCKED: ATOM     20  C   UNL d   1      -1.130  34.471   1.301 -0.08 +0.02    +0.066 A 
DOCKED: ATOM     21  C   UNL d   1      -2.321  34.981   0.789 -0.05 -0.01    -0.025 A 
DOCKED: ATOM     22  C   UNL d   1      -1.952  35.836  -0.233 -0.05 -0.01    -0.021 A 
DOCKED: ATOM     23  C   UNL d   1      -0.543  35.796  -0.303 -0.08 +0.03    +0.066 A 
DOCKED: ATOM     24  C   UNL d   1      -3.743  34.656   1.239 -0.02 +0.01    +0.051 C 
DOCKED: ATOM     25  N   UNL d   1       2.408  35.540  -0.572 -0.11 -0.11    -0.248 N 
DOCKED: ATOM     26  N   UNL d   1       3.840  33.924   1.181 -0.19 -0.05    -0.248 N 
DOCKED: ATOM     27  N   UNL d   1       1.312  33.186   2.522 -0.13 -0.04    -0.248 N 
DOCKED: ATOM     28  N   UNL d   1      -0.042  34.969   0.622 -0.08 -0.10    -0.248 N 
DOCKED: ATOM     29 FE   UNL d   1       1.824  34.294   1.066 -0.05 +0.00    +0.000 Fe
DOCKED: ENDROOT
DOCKED: BRANCH   6  30
DOCKED: ATOM     30  C   UNL d   1       1.787  37.678  -3.621 -0.03 +0.02    +0.052 C 
DOCKED: BRANCH  30  31
DOCKED: ATOM     31  C   UNL d   1       1.717  39.153  -3.229 -0.04 +0.05    +0.115 C 
DOCKED: BRANCH  31  32
DOCKED: ATOM     32  C   UNL d   1       1.563  39.347  -1.736 -0.05 +0.17    +0.139 C 
DOCKED: ATOM     33  O   UNL d   1       2.560  39.438  -1.035 -0.38 -1.03    -0.650 OA
DOCKED: BRANCH  32  34
DOCKED: ATOM     34  O   UNL d   1       0.349  39.471  -1.150 -0.13 -1.31    -0.776 OA
DOCKED: ATOM     35  H   UNL d   1      -0.475  39.134  -1.529 +0.01 +0.16    +0.167 HD
DOCKED: ENDBRANCH  32  34
DOCKED: ENDBRANCH  31  32
DOCKED: ENDBRANCH  30  31
DOCKED: ENDBRANCH   6  30
DOCKED: BRANCH  29  36
DOCKED: ATOM     36  C   UNL d   1       1.622  32.744  -0.331 -0.09 +0.02    +0.190 C 
DOCKED: BRANCH  36  37
DOCKED: ATOM     37  O   UNL d   1       1.680  32.463  -1.699 -0.04 -0.03    -0.399 OA
DOCKED: ATOM     38  H   UNL d   1       1.479  33.331  -2.148 +0.04 +0.03    +0.209 HD
DOCKED: ENDBRANCH  36  37
DOCKED: ENDBRANCH  29  36
DOCKED: BRANCH  22  39
DOCKED: ATOM     39  C   UNL d   1      -2.908  36.597  -1.132 -0.02 +0.01    +0.052 C 
DOCKED: BRANCH  39  40
DOCKED: ATOM     40  C   UNL d   1      -2.774  36.125  -2.590 -0.00 +0.02    +0.115 C 
DOCKED: BRANCH  40  41
DOCKED: ATOM     41  C   UNL d   1      -1.802  36.934  -3.422 +0.00 +0.03    +0.139 C 
DOCKED: ATOM     42  O   UNL d   1      -1.274  36.417  -4.396 +0.01 -0.11    -0.650 OA
DOCKED: BRANCH  41  43
DOCKED: ATOM     43  O   UNL d   1      -1.568  38.241  -3.169 +0.02 -0.24    -0.776 OA
DOCKED: ATOM     44  H   UNL d   1      -0.740  38.554  -2.781 +0.01 +0.08    +0.167 HD
DOCKED: ENDBRANCH  41  43
DOCKED: ENDBRANCH  40  41
DOCKED: ENDBRANCH  39  40
DOCKED: ENDBRANCH  22  39
DOCKED: BRANCH  12  45
DOCKED: ATOM     45  C   UNL d   1       6.489  32.187   3.151 -0.40 +0.00    +0.004 C 
DOCKED: ATOM     46  C   UNL d   1       7.780  31.873   3.207 -0.54 +0.00    +0.012 C 
DOCKED: ENDBRANCH  12  45
DOCKED: BRANCH  17  47
DOCKED: ATOM     47  C   UNL d   1      -1.165  31.358   4.497 -0.06 -0.00    +0.004 C 
DOCKED: ATOM     48  C   UNL d   1      -1.980  32.026   5.317 -0.04 +0.00    +0.012 C 
DOCKED: ENDBRANCH  17  47
DOCKED: TORSDOF 12
DOCKED: TER
DOCKED: ENDMDL
________________________________________________________________________________


	BEGINNING GENETIC ALGORITHM DOCKING 82 of 100
Run: 82 Seed: 562150314 6232378 [ Run 82 of 100 GA/GALS ]
Beginning LAMARCKIAN GENETIC ALGORITHM (LGA), with a maximum of 25000000 energy evaluations.

Final-Value: -9.967


	FINAL GENETIC ALGORITHM DOCKED STATE
	_______________________________________________


Detailed state:  trans 21.264 51.592 1.260 quatxyzw 0.754614 0.582610 0.297633 0.050382 center 8.781 34.984 -0.736 ntor 12 -169.1899 98.8215 -65.5436 128.7205 -71.3420 135.9795 32.0484 145.9743 179.8447 -59.2331 179.9681 136.9881
State:	 21.264  51.592   1.260   0.756  0.583  0.298 174.224   -169.19   98.82  -65.54  128.72  -71.34  135.98   32.05  145.97  179.84  -59.23  179.97  136.99

DOCKED: MODEL       82
DOCKED: USER    Run = 82
DOCKED: USER    DPF = D:/Protein_go_brrr/autodock/final/6BB5/heme_Co/dock.dpf
DOCKED: USER  
DOCKED: USER    Estimated Free Energy of Binding    =   -4.36 kcal/mol  [=(1)+(2)+(3)-(4)]
DOCKED: USER    Estimated Inhibition Constant, Ki   =  638.88 uM (micromolar)  [Temperature = 298.15 K]
DOCKED: USER    
DOCKED: USER    (1) Final Intermolecular Energy     =   -7.94 kcal/mol
DOCKED: USER        vdW + Hbond + desolv Energy     =   -6.79 kcal/mol
DOCKED: USER        Electrostatic Energy            =   -1.15 kcal/mol
DOCKED: USER    (2) Final Total Internal Energy     =   -2.03 kcal/mol
DOCKED: USER    (3) Torsional Free Energy           =   +3.58 kcal/mol
DOCKED: USER    (4) Unbound System's Energy  [=(2)] =   -2.03 kcal/mol
DOCKED: USER    
DOCKED: USER    
DOCKED: USER    NEWDPF move heme_Co_opt.pdbqt
DOCKED: USER    NEWDPF about 8.781000 34.984000 -0.736000
DOCKED: USER    NEWDPF tran0 21.263829 51.591913 1.259997
DOCKED: USER    NEWDPF quaternion0 0.754614 0.582610 0.297633 0.050382
DOCKED: USER    NEWDPF axisangle0 0.755574 0.583350 0.298011 174.224159
DOCKED: USER    NEWDPF quat0 0.755574 0.583350 0.298011 174.224159
DOCKED: USER    NEWDPF dihe0 -169.19 98.82 -65.54 128.72 -71.34 135.98 32.05 145.97 179.84 -59.23 179.97 136.99 
DOCKED: USER  keepresnum = 1 
DOCKED: USER  
DOCKED: REMARK  12 active torsions:
DOCKED: REMARK  status: ('A' for Active; 'I' for Inactive)
DOCKED: REMARK    1  A    between atoms: C_6  and  C_10 
DOCKED: REMARK    2  A    between atoms: C_10  and  C_11 
DOCKED: REMARK    3  A    between atoms: C_11  and  C_12 
DOCKED: REMARK    4  A    between atoms: C_12  and  O_14 
DOCKED: REMARK    5  A    between atoms: C_17  and  C_20 
DOCKED: REMARK    6  A    between atoms: C_24  and  C_27 
DOCKED: REMARK    7  A    between atoms: C_31  and  C_34 
DOCKED: REMARK    8  A    between atoms: C_34  and  C_35 
DOCKED: REMARK    9  A    between atoms: C_35  and  C_36 
DOCKED: REMARK   10  A    between atoms: C_36  and  O_38 
DOCKED: REMARK   11  A    between atoms: FE_43  and  C_44 
DOCKED: REMARK   12  A    between atoms: C_44  and  O_45 
DOCKED: USER                              x       y       z     vdW  Elec       q    Type
DOCKED: USER                           _______ _______ _______ _____ _____    ______ ____
DOCKED: ROOT
DOCKED: ATOM      1  C   UNL d   1      21.107  49.431   1.107 -0.24 -0.01    +0.064 A 
DOCKED: ATOM      2  C   UNL d   1      20.328  52.921  -2.028 -0.13 -0.01    +0.064 C 
DOCKED: ATOM      3  C   UNL d   1      21.105  56.194   1.365 -0.13 -0.01    +0.064 A 
DOCKED: ATOM      4  C   UNL d   1      22.283  52.656   4.490 -0.18 -0.00    +0.064 A 
DOCKED: ATOM      5  C   UNL d   1      20.802  50.144   0.010 -0.23 -0.01    +0.066 A 
DOCKED: ATOM      6  C   UNL d   1      20.573  49.533  -1.238 -0.21 +0.00    -0.021 A 
DOCKED: ATOM      7  C   UNL d   1      20.370  50.551  -2.149 -0.14 +0.00    -0.025 A 
DOCKED: ATOM      8  C   UNL d   1      20.467  51.738  -1.415 -0.15 -0.01    +0.066 A 
DOCKED: ATOM      9  C   UNL d   1      20.094  50.427  -3.655 -0.08 -0.01    +0.051 C 
DOCKED: ATOM     10  C   UNL d   1      20.386  54.192  -1.351 -0.12 -0.01    +0.066 A 
DOCKED: ATOM     11  C   UNL d   1      20.110  55.459  -1.910 -0.09 +0.00    -0.021 A 
DOCKED: ATOM     12  C   UNL d   1      20.340  56.395  -0.898 -0.10 -0.00    +0.000 A 
DOCKED: ATOM     13  C   UNL d   1      20.727  55.631   0.204 -0.12 -0.01    +0.070 A 
DOCKED: ATOM     14  C   UNL d   1      19.570  55.726  -3.292 -0.05 -0.00    +0.052 C 
DOCKED: ATOM     15  C   UNL d   1      21.581  55.563   2.581 -0.14 -0.01    +0.066 A 
DOCKED: ATOM     16  C   UNL d   1      22.095  56.209   3.697 -0.10 +0.00    -0.021 A 
DOCKED: ATOM     17  C   UNL d   1      22.438  55.192   4.600 -0.13 -0.00    +0.000 A 
DOCKED: ATOM     18  C   UNL d   1      22.090  54.003   3.968 -0.19 -0.00    +0.070 A 
DOCKED: ATOM     19  C   UNL d   1      22.236  57.706   3.856 -0.05 -0.00    +0.052 C 
DOCKED: ATOM     20  C   UNL d   1      22.033  51.484   3.859 -0.22 -0.00    +0.066 A 
DOCKED: ATOM     21  C   UNL d   1      22.294  50.250   4.452 -0.23 -0.00    -0.025 A 
DOCKED: ATOM     22  C   UNL d   1      21.938  49.302   3.511 -0.27 -0.00    -0.021 A 
DOCKED: ATOM     23  C   UNL d   1      21.484  50.009   2.377 -0.23 -0.01    +0.066 A 
DOCKED: ATOM     24  C   UNL d   1      22.874  49.988   5.839 -0.20 +0.00    +0.051 C 
DOCKED: ATOM     25  N   UNL d   1      20.728  51.516  -0.073 -0.13 +0.06    -0.248 N 
DOCKED: ATOM     26  N   UNL d   1      20.700  54.297  -0.055 +0.01 +0.07    -0.248 N 
DOCKED: ATOM     27  N   UNL d   1      21.611  54.261   2.755 -0.07 +0.06    -0.248 N 
DOCKED: ATOM     28  N   UNL d   1      21.542  51.330   2.583 -0.16 +0.04    -0.248 N 
DOCKED: ATOM     29 FE   UNL d   1      21.196  52.967   1.427 -0.05 -0.00    +0.000 Fe
DOCKED: ENDROOT
DOCKED: BRANCH   6  30
DOCKED: ATOM     30  C   UNL d   1      20.631  48.040  -1.544 -0.21 -0.01    +0.052 C 
DOCKED: BRANCH  30  31
DOCKED: ATOM     31  C   UNL d   1      22.003  47.659  -2.099 -0.19 -0.00    +0.115 C 
DOCKED: BRANCH  31  32
DOCKED: ATOM     32  C   UNL d   1      22.919  48.855  -2.246 -0.07 -0.00    +0.139 C 
DOCKED: ATOM     33  O   UNL d   1      23.028  49.398  -3.335 +0.02 +0.01    -0.650 OA
DOCKED: BRANCH  32  34
DOCKED: ATOM     34  O   UNL d   1      23.591  49.378  -1.193 +0.04 -0.01    -0.776 OA
DOCKED: ATOM     35  H   UNL d   1      24.110  50.193  -1.230 +0.02 +0.00    +0.167 HD
DOCKED: ENDBRANCH  32  34
DOCKED: ENDBRANCH  31  32
DOCKED: ENDBRANCH  30  31
DOCKED: ENDBRANCH   6  30
DOCKED: BRANCH  29  36
DOCKED: ATOM     36  C   UNL d   1      23.165  52.907   0.712 -0.05 -0.02    +0.190 C 
DOCKED: BRANCH  36  37
DOCKED: ATOM     37  O   UNL d   1      24.054  52.132  -0.041 +0.00 +0.01    -0.399 OA
DOCKED: ATOM     38  H   UNL d   1      23.617  51.239  -0.115 +0.02 -0.00    +0.209 HD
DOCKED: ENDBRANCH  36  37
DOCKED: ENDBRANCH  29  36
DOCKED: BRANCH  22  39
DOCKED: ATOM     39  C   UNL d   1      22.089  47.801   3.674 -0.38 +0.00    +0.052 C 
DOCKED: BRANCH  39  40
DOCKED: ATOM     40  C   UNL d   1      22.978  47.221   2.561 -0.30 +0.02    +0.115 C 
DOCKED: BRANCH  40  41
DOCKED: ATOM     41  C   UNL d   1      24.282  46.627   3.049 -0.26 +0.09    +0.139 C 
DOCKED: ATOM     42  O   UNL d   1      25.195  47.374   3.375 -0.07 -0.53    -0.650 OA
DOCKED: BRANCH  41  43
DOCKED: ATOM     43  O   UNL d   1      24.437  45.295   3.219 -0.52 -0.92    -0.776 OA
DOCKED: ATOM     44  H   UNL d   1      23.883  44.780   3.819 -0.50 +0.09    +0.167 HD
DOCKED: ENDBRANCH  41  43
DOCKED: ENDBRANCH  40  41
DOCKED: ENDBRANCH  39  40
DOCKED: ENDBRANCH  22  39
DOCKED: BRANCH  12  45
DOCKED: ATOM     45  C   UNL d   1      20.222  57.912  -0.840 -0.05 -0.00    +0.004 C 
DOCKED: ATOM     46  C   UNL d   1      19.476  58.693  -0.064 -0.05 -0.00    +0.012 C 
DOCKED: ENDBRANCH  12  45
DOCKED: BRANCH  17  47
DOCKED: ATOM     47  C   UNL d   1      23.092  55.287   5.939 -0.09 -0.00    +0.004 C 
DOCKED: ATOM     48  C   UNL d   1      24.410  55.191   6.124 -0.06 -0.00    +0.012 C 
DOCKED: ENDBRANCH  17  47
DOCKED: TORSDOF 12
DOCKED: TER
DOCKED: ENDMDL
________________________________________________________________________________


	BEGINNING GENETIC ALGORITHM DOCKING 83 of 100
Run: 83 Seed: 1546099574 320549374 [ Run 83 of 100 GA/GALS ]
Beginning LAMARCKIAN GENETIC ALGORITHM (LGA), with a maximum of 25000000 energy evaluations.

Final-Value: -11.020


	FINAL GENETIC ALGORITHM DOCKED STATE
	_______________________________________________


Detailed state:  trans 15.172 17.179 5.077 quatxyzw 0.793962 0.156171 -0.277848 -0.517722 center 8.781 34.984 -0.736 ntor 12 -101.7826 85.8500 -79.9097 97.1482 137.7461 131.2530 34.1523 -85.0435 125.4256 27.9887 -123.7663 174.0783
State:	 15.172  17.179   5.077   0.928  0.183 -0.325 -117.641   -101.78   85.85  -79.91   97.15  137.75  131.25   34.15  -85.04  125.43   27.99 -123.77  174.08

DOCKED: MODEL       83
DOCKED: USER    Run = 83
DOCKED: USER    DPF = D:/Protein_go_brrr/autodock/final/6BB5/heme_Co/dock.dpf
DOCKED: USER  
DOCKED: USER    Estimated Free Energy of Binding    =   -5.72 kcal/mol  [=(1)+(2)+(3)-(4)]
DOCKED: USER    Estimated Inhibition Constant, Ki   =   64.25 uM (micromolar)  [Temperature = 298.15 K]
DOCKED: USER    
DOCKED: USER    (1) Final Intermolecular Energy     =   -9.30 kcal/mol
DOCKED: USER        vdW + Hbond + desolv Energy     =   -7.06 kcal/mol
DOCKED: USER        Electrostatic Energy            =   -2.23 kcal/mol
DOCKED: USER    (2) Final Total Internal Energy     =   -1.72 kcal/mol
DOCKED: USER    (3) Torsional Free Energy           =   +3.58 kcal/mol
DOCKED: USER    (4) Unbound System's Energy  [=(2)] =   -1.72 kcal/mol
DOCKED: USER    
DOCKED: USER    
DOCKED: USER    NEWDPF move heme_Co_opt.pdbqt
DOCKED: USER    NEWDPF about 8.781000 34.984000 -0.736000
DOCKED: USER    NEWDPF tran0 15.171882 17.178878 5.076941
DOCKED: USER    NEWDPF quaternion0 0.793962 0.156171 -0.277848 -0.517722
DOCKED: USER    NEWDPF axisangle0 0.928014 0.182539 -0.324759 -117.640904
DOCKED: USER    NEWDPF quat0 0.928014 0.182539 -0.324759 -117.640904
DOCKED: USER    NEWDPF dihe0 -101.78 85.85 -79.91 97.15 137.75 131.25 34.15 -85.04 125.43 27.99 -123.77 174.08 
DOCKED: USER  keepresnum = 1 
DOCKED: USER  
DOCKED: REMARK  12 active torsions:
DOCKED: REMARK  status: ('A' for Active; 'I' for Inactive)
DOCKED: REMARK    1  A    between atoms: C_6  and  C_10 
DOCKED: REMARK    2  A    between atoms: C_10  and  C_11 
DOCKED: REMARK    3  A    between atoms: C_11  and  C_12 
DOCKED: REMARK    4  A    between atoms: C_12  and  O_14 
DOCKED: REMARK    5  A    between atoms: C_17  and  C_20 
DOCKED: REMARK    6  A    between atoms: C_24  and  C_27 
DOCKED: REMARK    7  A    between atoms: C_31  and  C_34 
DOCKED: REMARK    8  A    between atoms: C_34  and  C_35 
DOCKED: REMARK    9  A    between atoms: C_35  and  C_36 
DOCKED: REMARK   10  A    between atoms: C_36  and  O_38 
DOCKED: REMARK   11  A    between atoms: FE_43  and  C_44 
DOCKED: REMARK   12  A    between atoms: C_44  and  O_45 
DOCKED: USER                              x       y       z     vdW  Elec       q    Type
DOCKED: USER                           _______ _______ _______ _____ _____    ______ ____
DOCKED: ROOT
DOCKED: ATOM      1  C   UNL d   1      14.135  17.821   6.874 -0.18 +0.02    +0.064 A 
DOCKED: ATOM      2  C   UNL d   1      12.669  15.481   3.002 -0.16 +0.01    +0.064 C 
DOCKED: ATOM      3  C   UNL d   1      16.967  16.040   0.991 -0.12 -0.00    +0.064 A 
DOCKED: ATOM      4  C   UNL d   1      18.602  18.093   5.087 -0.11 +0.01    +0.064 A 
DOCKED: ATOM      5  C   UNL d   1      13.408  17.172   5.949 -0.17 +0.02    +0.066 A 
DOCKED: ATOM      6  C   UNL d   1      12.086  16.754   6.196 -0.25 -0.00    -0.021 A 
DOCKED: ATOM      7  C   UNL d   1      11.673  16.056   5.078 -0.23 -0.01    -0.025 A 
DOCKED: ATOM      8  C   UNL d   1      12.754  16.092   4.191 -0.14 +0.01    +0.066 A 
DOCKED: ATOM      9  C   UNL d   1      10.317  15.375   4.840 -0.37 +0.01    +0.051 C 
DOCKED: ATOM     10  C   UNL d   1      13.719  15.486   2.015 -0.11 +0.01    +0.066 A 
DOCKED: ATOM     11  C   UNL d   1      13.641  14.986   0.697 -0.13 -0.00    -0.021 A 
DOCKED: ATOM     12  C   UNL d   1      14.907  15.165   0.132 -0.13 +0.00    +0.000 A 
DOCKED: ATOM     13  C   UNL d   1      15.658  15.772   1.139 -0.06 +0.01    +0.070 A 
DOCKED: ATOM     14  C   UNL d   1      12.404  14.464   0.013 -0.15 +0.02    +0.052 C 
DOCKED: ATOM     15  C   UNL d   1      17.902  16.612   1.940 -0.07 -0.00    +0.066 A 
DOCKED: ATOM     16  C   UNL d   1      19.275  16.729   1.775 -0.09 +0.00    -0.021 A 
DOCKED: ATOM     17  C   UNL d   1      19.751  17.319   2.954 -0.09 -0.00    +0.000 A 
DOCKED: ATOM     18  C   UNL d   1      18.625  17.531   3.742 -0.10 +0.00    +0.070 A 
DOCKED: ATOM     19  C   UNL d   1      20.051  16.293   0.552 -0.06 -0.00    +0.052 C 
DOCKED: ATOM     20  C   UNL d   1      17.532  18.230   5.905 -0.16 +0.01    +0.066 A 
DOCKED: ATOM     21  C   UNL d   1      17.641  18.752   7.192 -0.19 -0.00    -0.025 A 
DOCKED: ATOM     22  C   UNL d   1      16.364  18.713   7.721 -0.21 -0.01    -0.021 A 
DOCKED: ATOM     23  C   UNL d   1      15.534  18.153   6.727 -0.18 +0.02    +0.066 A 
DOCKED: ATOM     24  C   UNL d   1      18.905  19.247   7.892 -0.18 +0.01    +0.051 C 
DOCKED: ATOM     25  N   UNL d   1      13.841  16.782   4.702 -0.08 -0.06    -0.248 N 
DOCKED: ATOM     26  N   UNL d   1      14.923  16.016   2.257 +0.00 -0.06    -0.248 N 
DOCKED: ATOM     27  N   UNL d   1      17.546  17.071   3.119 +0.04 -0.00    -0.248 N 
DOCKED: ATOM     28  N   UNL d   1      16.237  17.857   5.627 -0.12 -0.05    -0.248 N 
DOCKED: ATOM     29 FE   UNL d   1      15.804  16.937   3.867 -0.04 +0.00    +0.000 Fe
DOCKED: ENDROOT
DOCKED: BRANCH   6  30
DOCKED: ATOM     30  C   UNL d   1      11.295  16.952   7.485 -0.35 +0.01    +0.052 C 
DOCKED: BRANCH  30  31
DOCKED: ATOM     31  C   UNL d   1      12.193  16.742   8.704 -0.19 +0.05    +0.115 C 
DOCKED: BRANCH  31  32
DOCKED: ATOM     32  C   UNL d   1      12.857  15.382   8.704 -0.14 +0.11    +0.139 C 
DOCKED: ATOM     33  O   UNL d   1      12.346  14.464   9.327 -0.54 -0.68    -0.650 OA
DOCKED: BRANCH  32  34
DOCKED: ATOM     34  O   UNL d   1      13.982  15.133   7.994 +0.06 -0.43    -0.776 OA
DOCKED: ATOM     35  H   UNL d   1      14.005  14.616   7.176 +0.03 +0.06    +0.167 HD
DOCKED: ENDBRANCH  32  34
DOCKED: ENDBRANCH  31  32
DOCKED: ENDBRANCH  30  31
DOCKED: ENDBRANCH   6  30
DOCKED: BRANCH  29  36
DOCKED: ATOM     36  C   UNL d   1      16.194  15.063   4.722 -0.03 +0.03    +0.190 C 
DOCKED: BRANCH  36  37
DOCKED: ATOM     37  O   UNL d   1      15.789  14.199   5.745 +0.01 -0.07    -0.399 OA
DOCKED: ATOM     38  H   UNL d   1      15.418  14.797   6.454 +0.02 +0.05    +0.209 HD
DOCKED: ENDBRANCH  36  37
DOCKED: ENDBRANCH  29  36
DOCKED: BRANCH  22  39
DOCKED: ATOM     39  C   UNL d   1      15.981  19.132   9.128 -0.33 +0.01    +0.052 C 
DOCKED: BRANCH  39  40
DOCKED: ATOM     40  C   UNL d   1      16.212  17.978  10.119 -0.27 +0.07    +0.115 C 
DOCKED: BRANCH  40  41
DOCKED: ATOM     41  C   UNL d   1      15.399  18.077  11.393 -0.31 +0.15    +0.139 C 
DOCKED: ATOM     42  O   UNL d   1      14.186  18.221  11.319 -0.59 -0.95    -0.650 OA
DOCKED: BRANCH  41  43
DOCKED: ATOM     43  O   UNL d   1      15.965  17.923  12.610 -0.03 -0.78    -0.776 OA
DOCKED: ATOM     44  H   UNL d   1      16.246  17.063  12.947 -0.09 +0.17    +0.167 HD
DOCKED: ENDBRANCH  41  43
DOCKED: ENDBRANCH  40  41
DOCKED: ENDBRANCH  39  40
DOCKED: ENDBRANCH  22  39
DOCKED: BRANCH  12  45
DOCKED: ATOM     45  C   UNL d   1      15.484  14.852  -1.242 -0.15 +0.00    +0.004 C 
DOCKED: ATOM     46  C   UNL d   1      15.517  15.582  -2.354 -0.25 -0.00    +0.012 C 
DOCKED: ENDBRANCH  12  45
DOCKED: BRANCH  17  47
DOCKED: ATOM     47  C   UNL d   1      21.152  17.627   3.368 -0.03 +0.00    +0.004 C 
DOCKED: ATOM     48  C   UNL d   1      21.603  18.866   3.578 -0.04 +0.00    +0.012 C 
DOCKED: ENDBRANCH  17  47
DOCKED: TORSDOF 12
DOCKED: TER
DOCKED: ENDMDL
________________________________________________________________________________


	BEGINNING GENETIC ALGORITHM DOCKING 84 of 100
Run: 84 Seed: 1897348587 736987659 [ Run 84 of 100 GA/GALS ]
Beginning LAMARCKIAN GENETIC ALGORITHM (LGA), with a maximum of 25000000 energy evaluations.

Final-Value: -9.811


	FINAL GENETIC ALGORITHM DOCKED STATE
	_______________________________________________


Detailed state:  trans 2.075 40.900 -2.600 quatxyzw 0.782642 -0.555405 0.192237 0.205042 center 8.781 34.984 -0.736 ntor 12 81.6019 117.9569 -27.4864 -41.3990 125.2128 132.7228 74.0332 -48.1944 55.4268 178.8446 140.2038 -4.1314
State:	  2.075  40.900  -2.600   0.800 -0.567  0.196 156.336     81.60  117.96  -27.49  -41.40  125.21  132.72   74.03  -48.19   55.43  178.84  140.20   -4.13

DOCKED: MODEL       84
DOCKED: USER    Run = 84
DOCKED: USER    DPF = D:/Protein_go_brrr/autodock/final/6BB5/heme_Co/dock.dpf
DOCKED: USER  
DOCKED: USER    Estimated Free Energy of Binding    =   -5.45 kcal/mol  [=(1)+(2)+(3)-(4)]
DOCKED: USER    Estimated Inhibition Constant, Ki   =  101.62 uM (micromolar)  [Temperature = 298.15 K]
DOCKED: USER    
DOCKED: USER    (1) Final Intermolecular Energy     =   -9.03 kcal/mol
DOCKED: USER        vdW + Hbond + desolv Energy     =   -5.78 kcal/mol
DOCKED: USER        Electrostatic Energy            =   -3.25 kcal/mol
DOCKED: USER    (2) Final Total Internal Energy     =   -0.78 kcal/mol
DOCKED: USER    (3) Torsional Free Energy           =   +3.58 kcal/mol
DOCKED: USER    (4) Unbound System's Energy  [=(2)] =   -0.78 kcal/mol
DOCKED: USER    
DOCKED: USER    
DOCKED: USER    NEWDPF move heme_Co_opt.pdbqt
DOCKED: USER    NEWDPF about 8.781000 34.984000 -0.736000
DOCKED: USER    NEWDPF tran0 2.074750 40.900300 -2.600063
DOCKED: USER    NEWDPF quaternion0 0.782642 -0.555405 0.192237 0.205042
DOCKED: USER    NEWDPF axisangle0 0.799631 -0.567462 0.196410 156.336060
DOCKED: USER    NEWDPF quat0 0.799631 -0.567462 0.196410 156.336060
DOCKED: USER    NEWDPF dihe0 81.60 117.96 -27.49 -41.40 125.21 132.72 74.03 -48.19 55.43 178.84 140.20 -4.13 
DOCKED: USER  keepresnum = 1 
DOCKED: USER  
DOCKED: REMARK  12 active torsions:
DOCKED: REMARK  status: ('A' for Active; 'I' for Inactive)
DOCKED: REMARK    1  A    between atoms: C_6  and  C_10 
DOCKED: REMARK    2  A    between atoms: C_10  and  C_11 
DOCKED: REMARK    3  A    between atoms: C_11  and  C_12 
DOCKED: REMARK    4  A    between atoms: C_12  and  O_14 
DOCKED: REMARK    5  A    between atoms: C_17  and  C_20 
DOCKED: REMARK    6  A    between atoms: C_24  and  C_27 
DOCKED: REMARK    7  A    between atoms: C_31  and  C_34 
DOCKED: REMARK    8  A    between atoms: C_34  and  C_35 
DOCKED: REMARK    9  A    between atoms: C_35  and  C_36 
DOCKED: REMARK   10  A    between atoms: C_36  and  O_38 
DOCKED: REMARK   11  A    between atoms: FE_43  and  C_44 
DOCKED: REMARK   12  A    between atoms: C_44  and  O_45 
DOCKED: USER                              x       y       z     vdW  Elec       q    Type
DOCKED: USER                           _______ _______ _______ _____ _____    ______ ____
DOCKED: ROOT
DOCKED: ATOM      1  C   UNL d   1       0.633  42.495  -2.293 -0.03 +0.04    +0.064 A 
DOCKED: ATOM      2  C   UNL d   1       5.099  42.497  -3.924 +0.04 +0.02    +0.064 C 
DOCKED: ATOM      3  C   UNL d   1       5.484  37.828  -2.987 -0.15 +0.01    +0.064 A 
DOCKED: ATOM      4  C   UNL d   1       0.801  37.718  -1.677 -0.09 +0.05    +0.064 A 
DOCKED: ATOM      5  C   UNL d   1       1.837  42.846  -2.773 -0.06 +0.03    +0.066 A 
DOCKED: ATOM      6  C   UNL d   1       2.105  44.148  -3.238 -0.11 -0.01    -0.021 A 
DOCKED: ATOM      7  C   UNL d   1       3.395  44.137  -3.731 -0.23 -0.01    -0.025 A 
DOCKED: ATOM      8  C   UNL d   1       3.864  42.835  -3.531 -0.16 +0.03    +0.066 A 
DOCKED: ATOM      9  C   UNL d   1       4.170  45.300  -4.369 -0.25 +0.04    +0.051 C 
DOCKED: ATOM     10  C   UNL d   1       5.677  41.190  -3.736 -0.15 +0.01    +0.066 A 
DOCKED: ATOM     11  C   UNL d   1       7.012  40.812  -3.997 -0.34 +0.00    -0.021 A 
DOCKED: ATOM     12  C   UNL d   1       7.098  39.446  -3.711 -0.32 -0.00    +0.000 A 
DOCKED: ATOM     13  C   UNL d   1       5.816  39.096  -3.287 -0.21 +0.01    +0.070 A 
DOCKED: ATOM     14  C   UNL d   1       8.137  41.731  -4.399 -0.49 -0.01    +0.052 C 
DOCKED: ATOM     15  C   UNL d   1       4.202  37.283  -2.584 -0.12 +0.02    +0.066 A 
DOCKED: ATOM     16  C   UNL d   1       3.891  35.939  -2.430 -0.15 -0.00    -0.021 A 
DOCKED: ATOM     17  C   UNL d   1       2.541  35.902  -2.054 -0.12 +0.00    +0.000 A 
DOCKED: ATOM     18  C   UNL d   1       2.138  37.232  -1.993 -0.12 +0.04    +0.070 A 
DOCKED: ATOM     19  C   UNL d   1       4.850  34.788  -2.638 -0.08 +0.01    +0.052 C 
DOCKED: ATOM     20  C   UNL d   1       0.364  39.000  -1.695 -0.06 +0.07    +0.066 A 
DOCKED: ATOM     21  C   UNL d   1      -0.956  39.340  -1.407 -0.06 -0.02    -0.025 A 
DOCKED: ATOM     22  C   UNL d   1      -1.028  40.714  -1.548 -0.05 -0.02    -0.021 A 
DOCKED: ATOM     23  C   UNL d   1       0.260  41.146  -1.930 -0.05 +0.05    +0.066 A 
DOCKED: ATOM     24  C   UNL d   1      -2.100  38.400  -1.034 -0.06 +0.03    +0.051 C 
DOCKED: ATOM     25  N   UNL d   1       2.922  42.014  -2.934 -0.05 -0.11    -0.248 N 
DOCKED: ATOM     26  N   UNL d   1       4.973  40.163  -3.249 -0.11 -0.06    -0.248 N 
DOCKED: ATOM     27  N   UNL d   1       3.145  38.025  -2.344 -0.09 -0.12    -0.248 N 
DOCKED: ATOM     28  N   UNL d   1       1.105  40.112  -2.022 -0.06 -0.24    -0.248 N 
DOCKED: ATOM     29 FE   UNL d   1       3.037  39.901  -2.620 -0.03 +0.00    +0.000 Fe
DOCKED: ENDROOT
DOCKED: BRANCH   6  30
DOCKED: ATOM     30  C   UNL d   1       1.129  45.319  -3.276 -0.10 +0.03    +0.052 C 
DOCKED: BRANCH  30  31
DOCKED: ATOM     31  C   UNL d   1       1.224  46.055  -4.613 -0.08 +0.07    +0.115 C 
DOCKED: BRANCH  31  32
DOCKED: ATOM     32  C   UNL d   1       1.465  47.539  -4.439 -0.05 +0.15    +0.139 C 
DOCKED: ATOM     33  O   UNL d   1       0.693  48.197  -3.758 -0.09 -0.59    -0.650 OA
DOCKED: BRANCH  32  34
DOCKED: ATOM     34  O   UNL d   1       2.541  48.159  -4.978 +0.06 -1.37    -0.776 OA
DOCKED: ATOM     35  H   UNL d   1       2.619  48.399  -5.911 +0.02 +0.17    +0.167 HD
DOCKED: ENDBRANCH  32  34
DOCKED: ENDBRANCH  31  32
DOCKED: ENDBRANCH  30  31
DOCKED: ENDBRANCH   6  30
DOCKED: BRANCH  29  36
DOCKED: ATOM     36  C   UNL d   1       2.421  39.685  -4.612 -0.00 +0.05    +0.190 C 
DOCKED: BRANCH  36  37
DOCKED: ATOM     37  O   UNL d   1       1.761  40.347  -5.653 +0.01 -0.08    -0.399 OA
DOCKED: ATOM     38  H   UNL d   1       1.579  41.263  -5.300 +0.01 +0.05    +0.209 HD
DOCKED: ENDBRANCH  36  37
DOCKED: ENDBRANCH  29  36
DOCKED: BRANCH  22  39
DOCKED: ATOM     39  C   UNL d   1      -2.283  41.551  -1.387 -0.02 +0.02    +0.052 C 
DOCKED: BRANCH  39  40
DOCKED: ATOM     40  C   UNL d   1      -2.351  42.162   0.022 -0.03 +0.06    +0.115 C 
DOCKED: BRANCH  40  41
DOCKED: ATOM     41  C   UNL d   1      -1.270  41.677   0.966 -0.03 +0.16    +0.139 C 
DOCKED: ATOM     42  O   UNL d   1      -0.209  42.283   1.022 -0.45 -0.86    -0.650 OA
DOCKED: BRANCH  41  43
DOCKED: ATOM     43  O   UNL d   1      -1.477  40.645   1.813 -0.23 -1.10    -0.776 OA
DOCKED: ATOM     44  H   UNL d   1      -2.361  40.362   2.080 +0.01 +0.13    +0.167 HD
DOCKED: ENDBRANCH  41  43
DOCKED: ENDBRANCH  40  41
DOCKED: ENDBRANCH  39  40
DOCKED: ENDBRANCH  22  39
DOCKED: BRANCH  12  45
DOCKED: ATOM     45  C   UNL d   1       8.241  38.442  -3.773 -0.42 -0.00    +0.004 C 
DOCKED: ATOM     46  C   UNL d   1       9.108  38.176  -4.746 -0.44 -0.00    +0.012 C 
DOCKED: ENDBRANCH  12  45
DOCKED: BRANCH  17  47
DOCKED: ATOM     47  C   UNL d   1       1.649  34.729  -1.814 -0.10 +0.00    +0.004 C 
DOCKED: ATOM     48  C   UNL d   1       1.298  34.307  -0.596 -0.12 +0.00    +0.012 C 
DOCKED: ENDBRANCH  17  47
DOCKED: TORSDOF 12
DOCKED: TER
DOCKED: ENDMDL
________________________________________________________________________________


	BEGINNING GENETIC ALGORITHM DOCKING 85 of 100
Run: 85 Seed: 656030124 101499366 [ Run 85 of 100 GA/GALS ]
Beginning LAMARCKIAN GENETIC ALGORITHM (LGA), with a maximum of 25000000 energy evaluations.

Final-Value: -9.283


	FINAL GENETIC ALGORITHM DOCKED STATE
	_______________________________________________


Detailed state:  trans 36.052 45.819 1.927 quatxyzw 0.871423 0.307776 0.191698 0.330376 center 8.781 34.984 -0.736 ntor 12 -164.6704 109.7553 -56.7987 105.2584 158.2285 133.1176 46.3224 -78.8232 160.0548 -100.9967 -157.8507 -12.7832
State:	 36.052  45.819   1.927   0.923  0.326  0.203 141.417   -164.67  109.76  -56.80  105.26  158.23  133.12   46.32  -78.82  160.05 -101.00 -157.85  -12.78

DOCKED: MODEL       85
DOCKED: USER    Run = 85
DOCKED: USER    DPF = D:/Protein_go_brrr/autodock/final/6BB5/heme_Co/dock.dpf
DOCKED: USER  
DOCKED: USER    Estimated Free Energy of Binding    =   -3.38 kcal/mol  [=(1)+(2)+(3)-(4)]
DOCKED: USER    Estimated Inhibition Constant, Ki   =    3.33 mM (millimolar)  [Temperature = 298.15 K]
DOCKED: USER    
DOCKED: USER    (1) Final Intermolecular Energy     =   -6.96 kcal/mol
DOCKED: USER        vdW + Hbond + desolv Energy     =   -6.01 kcal/mol
DOCKED: USER        Electrostatic Energy            =   -0.95 kcal/mol
DOCKED: USER    (2) Final Total Internal Energy     =   -2.32 kcal/mol
DOCKED: USER    (3) Torsional Free Energy           =   +3.58 kcal/mol
DOCKED: USER    (4) Unbound System's Energy  [=(2)] =   -2.32 kcal/mol
DOCKED: USER    
DOCKED: USER    
DOCKED: USER    NEWDPF move heme_Co_opt.pdbqt
DOCKED: USER    NEWDPF about 8.781000 34.984000 -0.736000
DOCKED: USER    NEWDPF tran0 36.052374 45.818713 1.927064
DOCKED: USER    NEWDPF quaternion0 0.871423 0.307776 0.191698 0.330376
DOCKED: USER    NEWDPF axisangle0 0.923265 0.326086 0.203102 141.416742
DOCKED: USER    NEWDPF quat0 0.923265 0.326086 0.203102 141.416742
DOCKED: USER    NEWDPF dihe0 -164.67 109.76 -56.80 105.26 158.23 133.12 46.32 -78.82 160.05 -101.00 -157.85 -12.78 
DOCKED: USER  keepresnum = 1 
DOCKED: USER  
DOCKED: REMARK  12 active torsions:
DOCKED: REMARK  status: ('A' for Active; 'I' for Inactive)
DOCKED: REMARK    1  A    between atoms: C_6  and  C_10 
DOCKED: REMARK    2  A    between atoms: C_10  and  C_11 
DOCKED: REMARK    3  A    between atoms: C_11  and  C_12 
DOCKED: REMARK    4  A    between atoms: C_12  and  O_14 
DOCKED: REMARK    5  A    between atoms: C_17  and  C_20 
DOCKED: REMARK    6  A    between atoms: C_24  and  C_27 
DOCKED: REMARK    7  A    between atoms: C_31  and  C_34 
DOCKED: REMARK    8  A    between atoms: C_34  and  C_35 
DOCKED: REMARK    9  A    between atoms: C_35  and  C_36 
DOCKED: REMARK   10  A    between atoms: C_36  and  O_38 
DOCKED: REMARK   11  A    between atoms: FE_43  and  C_44 
DOCKED: REMARK   12  A    between atoms: C_44  and  O_45 
DOCKED: USER                              x       y       z     vdW  Elec       q    Type
DOCKED: USER                           _______ _______ _______ _____ _____    ______ ____
DOCKED: ROOT
DOCKED: ATOM      1  C   UNL d   1      34.846  44.141   1.261 -0.06 +0.03    +0.064 A 
DOCKED: ATOM      2  C   UNL d   1      34.498  48.823   0.510 -0.10 +0.05    +0.064 C 
DOCKED: ATOM      3  C   UNL d   1      38.150  49.610   3.490 -0.17 +0.05    +0.064 A 
DOCKED: ATOM      4  C   UNL d   1      38.773  44.810   3.973 -0.16 +0.02    +0.064 A 
DOCKED: ATOM      5  C   UNL d   1      34.459  45.365   0.865 -0.06 +0.04    +0.066 A 
DOCKED: ATOM      6  C   UNL d   1      33.439  45.555  -0.088 -0.02 -0.01    -0.021 A 
DOCKED: ATOM      7  C   UNL d   1      33.358  46.914  -0.319 -0.03 -0.01    -0.025 A 
DOCKED: ATOM      8  C   UNL d   1      34.320  47.496   0.514 -0.07 +0.05    +0.066 A 
DOCKED: ATOM      9  C   UNL d   1      32.417  47.651  -1.284 -0.00 +0.01    +0.051 C 
DOCKED: ATOM     10  C   UNL d   1      35.445  49.513   1.351 -0.12 +0.06    +0.066 A 
DOCKED: ATOM     11  C   UNL d   1      35.582  50.911   1.496 -0.15 -0.01    -0.021 A 
DOCKED: ATOM     12  C   UNL d   1      36.651  51.112   2.373 -0.16 +0.00    +0.000 A 
DOCKED: ATOM     13  C   UNL d   1      37.077  49.826   2.707 -0.11 +0.07    +0.070 A 
DOCKED: ATOM     14  C   UNL d   1      34.680  51.962   0.902 -0.11 +0.02    +0.052 C 
DOCKED: ATOM     15  C   UNL d   1      38.757  48.356   3.892 -0.16 +0.05    +0.066 A 
DOCKED: ATOM     16  C   UNL d   1      39.950  48.204   4.583 -0.22 -0.00    -0.021 A 
DOCKED: ATOM     17  C   UNL d   1      40.136  46.822   4.722 -0.24 +0.00    +0.000 A 
DOCKED: ATOM     18  C   UNL d   1      39.028  46.237   4.118 -0.15 +0.03    +0.070 A 
DOCKED: ATOM     19  C   UNL d   1      40.835  49.333   5.064 -0.24 -0.01    +0.052 C 
DOCKED: ATOM     20  C   UNL d   1      37.748  44.218   3.314 -0.15 +0.03    +0.066 A 
DOCKED: ATOM     21  C   UNL d   1      37.629  42.834   3.212 -0.17 -0.00    -0.025 A 
DOCKED: ATOM     22  C   UNL d   1      36.490  42.611   2.460 -0.14 -0.00    -0.021 A 
DOCKED: ATOM     23  C   UNL d   1      35.973  43.881   2.128 -0.11 +0.03    +0.066 A 
DOCKED: ATOM     24  C   UNL d   1      38.566  41.774   3.786 -0.30 +0.01    +0.051 C 
DOCKED: ATOM     25  N   UNL d   1      35.013  46.560   1.263 -0.01 -0.32    -0.248 N 
DOCKED: ATOM     26  N   UNL d   1      36.312  48.861   2.133 +0.10 -0.39    -0.248 N 
DOCKED: ATOM     27  N   UNL d   1      38.243  47.180   3.608 -0.10 -0.26    -0.248 N 
DOCKED: ATOM     28  N   UNL d   1      36.732  44.856   2.640 -0.09 -0.21    -0.248 N 
DOCKED: ATOM     29 FE   UNL d   1      36.724  46.885   2.506 -0.04 +0.00    +0.000 Fe
DOCKED: ENDROOT
DOCKED: BRANCH   6  30
DOCKED: ATOM     30  C   UNL d   1      32.643  44.465  -0.797 -0.01 +0.01    +0.052 C 
DOCKED: BRANCH  30  31
DOCKED: ATOM     31  C   UNL d   1      33.504  43.769  -1.850 +0.01 +0.02    +0.115 C 
DOCKED: BRANCH  31  32
DOCKED: ATOM     32  C   UNL d   1      34.673  44.621  -2.295 +0.01 +0.02    +0.139 C 
DOCKED: ATOM     33  O   UNL d   1      34.504  45.469  -3.158 +0.00 -0.08    -0.650 OA
DOCKED: BRANCH  32  34
DOCKED: ATOM     34  O   UNL d   1      35.898  44.509  -1.731 +0.01 -0.13    -0.776 OA
DOCKED: ATOM     35  H   UNL d   1      36.623  45.133  -1.876 +0.00 +0.03    +0.167 HD
DOCKED: ENDBRANCH  32  34
DOCKED: ENDBRANCH  31  32
DOCKED: ENDBRANCH  30  31
DOCKED: ENDBRANCH   6  30
DOCKED: BRANCH  29  36
DOCKED: ATOM     36  C   UNL d   1      37.873  46.796   0.754 -0.02 +0.09    +0.190 C 
DOCKED: BRANCH  36  37
DOCKED: ATOM     37  O   UNL d   1      37.863  46.323  -0.562 +0.01 -0.11    -0.399 OA
DOCKED: ATOM     38  H   UNL d   1      37.003  45.825  -0.649 +0.01 +0.06    +0.209 HD
DOCKED: ENDBRANCH  36  37
DOCKED: ENDBRANCH  29  36
DOCKED: BRANCH  22  39
DOCKED: ATOM     39  C   UNL d   1      35.970  41.251   2.033 -0.21 +0.00    +0.052 C 
DOCKED: BRANCH  39  40
DOCKED: ATOM     40  C   UNL d   1      35.027  40.671   3.100 -0.27 +0.01    +0.115 C 
DOCKED: BRANCH  40  41
DOCKED: ATOM     41  C   UNL d   1      33.668  41.337   3.161 -0.28 +0.02    +0.139 C 
DOCKED: ATOM     42  O   UNL d   1      32.954  41.331   2.168 +0.05 -0.09    -0.650 OA
DOCKED: BRANCH  41  43
DOCKED: ATOM     43  O   UNL d   1      33.185  41.861   4.309 -0.08 -0.13    -0.776 OA
DOCKED: ATOM     44  H   UNL d   1      33.168  41.367   5.139 -0.49 -0.01    +0.167 HD
DOCKED: ENDBRANCH  41  43
DOCKED: ENDBRANCH  40  41
DOCKED: ENDBRANCH  39  40
DOCKED: ENDBRANCH  22  39
DOCKED: BRANCH  12  45
DOCKED: ATOM     45  C   UNL d   1      37.303  52.364   2.946 -0.17 +0.00    +0.004 C 
DOCKED: ATOM     46  C   UNL d   1      37.117  52.982   4.109 -0.29 +0.01    +0.012 C 
DOCKED: ENDBRANCH  12  45
DOCKED: BRANCH  17  47
DOCKED: ATOM     47  C   UNL d   1      41.276  46.068   5.324 -0.42 -0.00    +0.004 C 
DOCKED: ATOM     48  C   UNL d   1      41.120  45.018   6.134 -0.50 -0.00    +0.012 C 
DOCKED: ENDBRANCH  17  47
DOCKED: TORSDOF 12
DOCKED: TER
DOCKED: ENDMDL
________________________________________________________________________________


	BEGINNING GENETIC ALGORITHM DOCKING 86 of 100
Run: 86 Seed: 1587454781 340285273 [ Run 86 of 100 GA/GALS ]
Beginning LAMARCKIAN GENETIC ALGORITHM (LGA), with a maximum of 25000000 energy evaluations.

Final-Value: -9.997


	FINAL GENETIC ALGORITHM DOCKED STATE
	_______________________________________________


Detailed state:  trans 24.915 15.561 13.851 quatxyzw -0.456870 -0.212157 0.789173 -0.351376 center 8.781 34.984 -0.736 ntor 12 33.7512 99.2234 -150.5939 -172.5831 134.2154 84.9918 -136.1468 120.4515 -170.3370 146.9914 12.2726 169.5663
State:	 24.915  15.561  13.851  -0.488 -0.227  0.843 -138.857     33.75   99.22 -150.59 -172.58  134.22   84.99 -136.15  120.45 -170.34  146.99   12.27  169.57

DOCKED: MODEL       86
DOCKED: USER    Run = 86
DOCKED: USER    DPF = D:/Protein_go_brrr/autodock/final/6BB5/heme_Co/dock.dpf
DOCKED: USER  
DOCKED: USER    Estimated Free Energy of Binding    =   -4.45 kcal/mol  [=(1)+(2)+(3)-(4)]
DOCKED: USER    Estimated Inhibition Constant, Ki   =  549.66 uM (micromolar)  [Temperature = 298.15 K]
DOCKED: USER    
DOCKED: USER    (1) Final Intermolecular Energy     =   -8.03 kcal/mol
DOCKED: USER        vdW + Hbond + desolv Energy     =   -6.00 kcal/mol
DOCKED: USER        Electrostatic Energy            =   -2.02 kcal/mol
DOCKED: USER    (2) Final Total Internal Energy     =   -1.97 kcal/mol
DOCKED: USER    (3) Torsional Free Energy           =   +3.58 kcal/mol
DOCKED: USER    (4) Unbound System's Energy  [=(2)] =   -1.97 kcal/mol
DOCKED: USER    
DOCKED: USER    
DOCKED: USER    NEWDPF move heme_Co_opt.pdbqt
DOCKED: USER    NEWDPF about 8.781000 34.984000 -0.736000
DOCKED: USER    NEWDPF tran0 24.915362 15.561427 13.851155
DOCKED: USER    NEWDPF quaternion0 -0.456870 -0.212157 0.789173 -0.351376
DOCKED: USER    NEWDPF axisangle0 -0.487987 -0.226607 0.842922 -138.856985
DOCKED: USER    NEWDPF quat0 -0.487987 -0.226607 0.842922 -138.856985
DOCKED: USER    NEWDPF dihe0 33.75 99.22 -150.59 -172.58 134.22 84.99 -136.15 120.45 -170.34 146.99 12.27 169.57 
DOCKED: USER  keepresnum = 1 
DOCKED: USER  
DOCKED: REMARK  12 active torsions:
DOCKED: REMARK  status: ('A' for Active; 'I' for Inactive)
DOCKED: REMARK    1  A    between atoms: C_6  and  C_10 
DOCKED: REMARK    2  A    between atoms: C_10  and  C_11 
DOCKED: REMARK    3  A    between atoms: C_11  and  C_12 
DOCKED: REMARK    4  A    between atoms: C_12  and  O_14 
DOCKED: REMARK    5  A    between atoms: C_17  and  C_20 
DOCKED: REMARK    6  A    between atoms: C_24  and  C_27 
DOCKED: REMARK    7  A    between atoms: C_31  and  C_34 
DOCKED: REMARK    8  A    between atoms: C_34  and  C_35 
DOCKED: REMARK    9  A    between atoms: C_35  and  C_36 
DOCKED: REMARK   10  A    between atoms: C_36  and  O_38 
DOCKED: REMARK   11  A    between atoms: FE_43  and  C_44 
DOCKED: REMARK   12  A    between atoms: C_44  and  O_45 
DOCKED: USER                              x       y       z     vdW  Elec       q    Type
DOCKED: USER                           _______ _______ _______ _____ _____    ______ ____
DOCKED: ROOT
DOCKED: ATOM      1  C   UNL d   1      26.124  13.794  14.212 -0.08 +0.02    +0.064 A 
DOCKED: ATOM      2  C   UNL d   1      23.411  16.449  17.076 -0.17 +0.03    +0.064 C 
DOCKED: ATOM      3  C   UNL d   1      22.595  19.526  13.513 -0.29 +0.01    +0.064 A 
DOCKED: ATOM      4  C   UNL d   1      25.044  16.629  10.468 -0.12 +0.01    +0.064 A 
DOCKED: ATOM      5  C   UNL d   1      25.473  14.313  15.266 -0.09 +0.02    +0.066 A 
DOCKED: ATOM      6  C   UNL d   1      25.412  13.650  16.507 -0.06 -0.01    -0.021 A 
DOCKED: ATOM      7  C   UNL d   1      24.605  14.413  17.328 -0.06 -0.01    -0.025 A 
DOCKED: ATOM      8  C   UNL d   1      24.221  15.516  16.558 -0.10 +0.03    +0.066 A 
DOCKED: ATOM      9  C   UNL d   1      24.201  14.128  18.782 -0.02 +0.02    +0.051 C 
DOCKED: ATOM     10  C   UNL d   1      22.984  17.630  16.369 -0.23 +0.03    +0.066 A 
DOCKED: ATOM     11  C   UNL d   1      22.252  18.713  16.902 -0.33 -0.01    -0.021 A 
DOCKED: ATOM     12  C   UNL d   1      22.031  19.598  15.842 -0.30 +0.00    +0.000 A 
DOCKED: ATOM     13  C   UNL d   1      22.654  18.997  14.748 -0.30 +0.02    +0.070 A 
DOCKED: ATOM     14  C   UNL d   1      21.882  18.914  18.349 -0.35 -0.00    +0.052 C 
DOCKED: ATOM     15  C   UNL d   1      23.134  19.016  12.268 -0.22 +0.01    +0.066 A 
DOCKED: ATOM     16  C   UNL d   1      22.913  19.537  11.001 -0.20 -0.00    -0.021 A 
DOCKED: ATOM     17  C   UNL d   1      23.615  18.703  10.119 -0.12 +0.00    +0.000 A 
DOCKED: ATOM     18  C   UNL d   1      24.225  17.746  10.922 -0.14 +0.01    +0.070 A 
DOCKED: ATOM     19  C   UNL d   1      22.075  20.757  10.688 -0.28 +0.01    +0.052 C 
DOCKED: ATOM     20  C   UNL d   1      25.576  15.637  11.221 -0.12 +0.01    +0.066 A 
DOCKED: ATOM     21  C   UNL d   1      26.316  14.596  10.665 -0.08 -0.00    -0.025 A 
DOCKED: ATOM     22  C   UNL d   1      26.665  13.779  11.724 -0.07 -0.00    -0.021 A 
DOCKED: ATOM     23  C   UNL d   1      26.106  14.359  12.882 -0.10 +0.02    +0.066 A 
DOCKED: ATOM     24  C   UNL d   1      26.657  14.379   9.193 -0.05 +0.01    +0.051 C 
DOCKED: ATOM     25  N   UNL d   1      24.749  15.483  15.278 +0.01 -0.10    -0.248 N 
DOCKED: ATOM     26  N   UNL d   1      23.278  17.836  15.081 -0.06 -0.10    -0.248 N 
DOCKED: ATOM     27  N   UNL d   1      23.892  17.945  12.193 -0.08 -0.07    -0.248 N 
DOCKED: ATOM     28  N   UNL d   1      25.444  15.483  12.582 -0.08 -0.07    -0.248 N 
DOCKED: ATOM     29 FE   UNL d   1      24.297  16.785  13.642 -0.05 +0.00    +0.000 Fe
DOCKED: ENDROOT
DOCKED: BRANCH   6  30
DOCKED: ATOM     30  C   UNL d   1      26.039  12.303  16.850 -0.02 +0.02    +0.052 C 
DOCKED: BRANCH  30  31
DOCKED: ATOM     31  C   UNL d   1      27.392  12.498  17.534 -0.04 +0.05    +0.115 C 
DOCKED: BRANCH  31  32
DOCKED: ATOM     32  C   UNL d   1      27.669  13.950  17.861 +0.03 +0.16    +0.139 C 
DOCKED: ATOM     33  O   UNL d   1      27.388  14.381  18.970 -0.34 -1.04    -0.650 OA
DOCKED: BRANCH  32  34
DOCKED: ATOM     34  O   UNL d   1      28.266  14.783  16.977 -0.31 -1.09    -0.776 OA
DOCKED: ATOM     35  H   UNL d   1      28.194  14.699  16.017 +0.04 +0.13    +0.167 HD
DOCKED: ENDBRANCH  32  34
DOCKED: ENDBRANCH  31  32
DOCKED: ENDBRANCH  30  31
DOCKED: ENDBRANCH   6  30
DOCKED: BRANCH  29  36
DOCKED: ATOM     36  C   UNL d   1      22.602  15.597  13.311 -0.07 +0.07    +0.190 C 
DOCKED: BRANCH  36  37
DOCKED: ATOM     37  O   UNL d   1      22.196  14.332  12.876 -0.00 -0.12    -0.399 OA
DOCKED: ATOM     38  H   UNL d   1      23.002  13.940  12.438 +0.02 +0.05    +0.209 HD
DOCKED: ENDBRANCH  36  37
DOCKED: ENDBRANCH  29  36
DOCKED: BRANCH  22  39
DOCKED: ATOM     39  C   UNL d   1      27.438  12.478  11.614 -0.03 +0.01    +0.052 C 
DOCKED: BRANCH  39  40
DOCKED: ATOM     40  C   UNL d   1      26.481  11.294  11.397 -0.01 +0.01    +0.115 C 
DOCKED: BRANCH  40  41
DOCKED: ATOM     41  C   UNL d   1      25.192  11.381  12.186 -0.01 +0.02    +0.139 C 
DOCKED: ATOM     42  O   UNL d   1      25.071  10.720  13.208 +0.00 -0.09    -0.650 OA
DOCKED: BRANCH  41  43
DOCKED: ATOM     43  O   UNL d   1      24.203  12.234  11.840 +0.01 -0.12    -0.776 OA
DOCKED: ATOM     44  H   UNL d   1      23.653  12.684  12.495 +0.01 +0.03    +0.167 HD
DOCKED: ENDBRANCH  41  43
DOCKED: ENDBRANCH  40  41
DOCKED: ENDBRANCH  39  40
DOCKED: ENDBRANCH  22  39
DOCKED: BRANCH  12  45
DOCKED: ATOM     45  C   UNL d   1      21.324  20.943  15.743 -0.56 +0.00    +0.004 C 
DOCKED: ATOM     46  C   UNL d   1      21.157  21.759  14.705 -0.46 -0.00    +0.012 C 
DOCKED: ENDBRANCH  12  45
DOCKED: BRANCH  17  47
DOCKED: ATOM     47  C   UNL d   1      23.690  18.740   8.628 -0.07 +0.00    +0.004 C 
DOCKED: ATOM     48  C   UNL d   1      24.802  19.041   7.952 -0.07 +0.00    +0.012 C 
DOCKED: ENDBRANCH  17  47
DOCKED: TORSDOF 12
DOCKED: TER
DOCKED: ENDMDL
________________________________________________________________________________


	BEGINNING GENETIC ALGORITHM DOCKING 87 of 100
Run: 87 Seed: 589842884 437621364 [ Run 87 of 100 GA/GALS ]
Beginning LAMARCKIAN GENETIC ALGORITHM (LGA), with a maximum of 25000000 energy evaluations.

Final-Value: -14.389


	FINAL GENETIC ALGORITHM DOCKED STATE
	_______________________________________________


Detailed state:  trans 45.672 26.389 18.518 quatxyzw -0.270337 0.368515 0.886016 -0.078043 center 8.781 34.984 -0.736 ntor 12 -84.6819 56.6682 101.0723 -32.8572 104.3079 154.7226 34.5134 -34.0528 153.9051 -150.7058 -158.3485 2.2600
State:	 45.672  26.389  18.518  -0.271  0.370  0.889 -171.048    -84.68   56.67  101.07  -32.86  104.31  154.72   34.51  -34.05  153.91 -150.71 -158.35    2.26

DOCKED: MODEL       87
DOCKED: USER    Run = 87
DOCKED: USER    DPF = D:/Protein_go_brrr/autodock/final/6BB5/heme_Co/dock.dpf
DOCKED: USER  
DOCKED: USER    Estimated Free Energy of Binding    =   -8.68 kcal/mol  [=(1)+(2)+(3)-(4)]
DOCKED: USER    Estimated Inhibition Constant, Ki   =  432.47 nM (nanomolar)  [Temperature = 298.15 K]
DOCKED: USER    
DOCKED: USER    (1) Final Intermolecular Energy     =  -12.26 kcal/mol
DOCKED: USER        vdW + Hbond + desolv Energy     =   -8.71 kcal/mol
DOCKED: USER        Electrostatic Energy            =   -3.55 kcal/mol
DOCKED: USER    (2) Final Total Internal Energy     =   -2.13 kcal/mol
DOCKED: USER    (3) Torsional Free Energy           =   +3.58 kcal/mol
DOCKED: USER    (4) Unbound System's Energy  [=(2)] =   -2.13 kcal/mol
DOCKED: USER    
DOCKED: USER    
DOCKED: USER    NEWDPF move heme_Co_opt.pdbqt
DOCKED: USER    NEWDPF about 8.781000 34.984000 -0.736000
DOCKED: USER    NEWDPF tran0 45.671922 26.388654 18.517740
DOCKED: USER    NEWDPF quaternion0 -0.270337 0.368515 0.886016 -0.078043
DOCKED: USER    NEWDPF axisangle0 -0.271164 0.369643 0.888726 -171.047849
DOCKED: USER    NEWDPF quat0 -0.271164 0.369643 0.888726 -171.047849
DOCKED: USER    NEWDPF dihe0 -84.68 56.67 101.07 -32.86 104.31 154.72 34.51 -34.05 153.91 -150.71 -158.35 2.26 
DOCKED: USER  keepresnum = 1 
DOCKED: USER  
DOCKED: REMARK  12 active torsions:
DOCKED: REMARK  status: ('A' for Active; 'I' for Inactive)
DOCKED: REMARK    1  A    between atoms: C_6  and  C_10 
DOCKED: REMARK    2  A    between atoms: C_10  and  C_11 
DOCKED: REMARK    3  A    between atoms: C_11  and  C_12 
DOCKED: REMARK    4  A    between atoms: C_12  and  O_14 
DOCKED: REMARK    5  A    between atoms: C_17  and  C_20 
DOCKED: REMARK    6  A    between atoms: C_24  and  C_27 
DOCKED: REMARK    7  A    between atoms: C_31  and  C_34 
DOCKED: REMARK    8  A    between atoms: C_34  and  C_35 
DOCKED: REMARK    9  A    between atoms: C_35  and  C_36 
DOCKED: REMARK   10  A    between atoms: C_36  and  O_38 
DOCKED: REMARK   11  A    between atoms: FE_43  and  C_44 
DOCKED: REMARK   12  A    between atoms: C_44  and  O_45 
DOCKED: USER                              x       y       z     vdW  Elec       q    Type
DOCKED: USER                           _______ _______ _______ _____ _____    ______ ____
DOCKED: ROOT
DOCKED: ATOM      1  C   UNL d   1      47.490  25.558  19.366 -0.04 +0.03    +0.064 A 
DOCKED: ATOM      2  C   UNL d   1      45.754  29.983  19.240 -0.20 +0.03    +0.064 C 
DOCKED: ATOM      3  C   UNL d   1      42.129  28.523  16.492 -0.22 +0.01    +0.064 A 
DOCKED: ATOM      4  C   UNL d   1      43.668  23.929  16.925 -0.23 +0.02    +0.064 A 
DOCKED: ATOM      5  C   UNL d   1      47.302  26.881  19.503 -0.06 +0.04    +0.066 A 
DOCKED: ATOM      6  C   UNL d   1      48.136  27.674  20.316 -0.05 -0.01    -0.021 A 
DOCKED: ATOM      7  C   UNL d   1      47.614  28.953  20.294 -0.09 -0.02    -0.025 A 
DOCKED: ATOM      8  C   UNL d   1      46.495  28.889  19.457 -0.12 +0.04    +0.066 A 
DOCKED: ATOM      9  C   UNL d   1      48.137  30.197  21.028 -0.08 +0.03    +0.051 C 
DOCKED: ATOM     10  C   UNL d   1      44.602  30.020  18.375 -0.23 +0.02    +0.066 A 
DOCKED: ATOM     11  C   UNL d   1      43.867  31.164  17.996 -0.30 -0.01    -0.021 A 
DOCKED: ATOM     12  C   UNL d   1      42.818  30.710  17.191 -0.35 +0.00    +0.000 A 
DOCKED: ATOM     13  C   UNL d   1      42.998  29.328  17.129 -0.28 +0.02    +0.070 A 
DOCKED: ATOM     14  C   UNL d   1      44.218  32.595  18.314 -0.32 +0.01    +0.052 C 
DOCKED: ATOM     15  C   UNL d   1      42.131  27.078  16.373 -0.32 +0.01    +0.066 A 
DOCKED: ATOM     16  C   UNL d   1      41.125  26.296  15.824 -0.41 -0.00    -0.021 A 
DOCKED: ATOM     17  C   UNL d   1      41.563  24.970  15.949 -0.41 +0.00    +0.000 A 
DOCKED: ATOM     18  C   UNL d   1      42.815  25.049  16.551 -0.27 +0.02    +0.070 A 
DOCKED: ATOM     19  C   UNL d   1      39.836  26.816  15.228 -0.44 +0.01    +0.052 C 
DOCKED: ATOM     20  C   UNL d   1      44.849  23.977  17.588 -0.17 +0.03    +0.066 A 
DOCKED: ATOM     21  C   UNL d   1      45.560  22.827  17.923 -0.17 -0.01    -0.025 A 
DOCKED: ATOM     22  C   UNL d   1      46.682  23.268  18.602 -0.10 -0.01    -0.021 A 
DOCKED: ATOM     23  C   UNL d   1      46.591  24.675  18.659 -0.07 +0.03    +0.066 A 
DOCKED: ATOM     24  C   UNL d   1      45.182  21.378  17.629 -0.18 +0.02    +0.051 C 
DOCKED: ATOM     25  N   UNL d   1      46.281  27.619  18.948 -0.06 -0.13    -0.248 N 
DOCKED: ATOM     26  N   UNL d   1      44.108  28.919  17.798 -0.15 -0.08    -0.248 N 
DOCKED: ATOM     27  N   UNL d   1      43.107  26.318  16.816 -0.18 -0.06    -0.248 N 
DOCKED: ATOM     28  N   UNL d   1      45.482  25.108  18.048 -0.07 -0.11    -0.248 N 
DOCKED: ATOM     29 FE   UNL d   1      44.602  26.927  17.819 -0.05 +0.00    +0.000 Fe
DOCKED: ENDROOT
DOCKED: BRANCH   6  30
DOCKED: ATOM     30  C   UNL d   1      49.329  27.195  21.137 -0.02 +0.02    +0.052 C 
DOCKED: BRANCH  30  31
DOCKED: ATOM     31  C   UNL d   1      48.857  26.430  22.373 -0.02 +0.07    +0.115 C 
DOCKED: BRANCH  31  32
DOCKED: ATOM     32  C   UNL d   1      47.493  26.884  22.848 +0.06 +0.19    +0.139 C 
DOCKED: ATOM     33  O   UNL d   1      47.414  27.727  23.729 +0.01 -1.12    -0.650 OA
DOCKED: BRANCH  32  34
DOCKED: ATOM     34  O   UNL d   1      46.350  26.421  22.292 -0.04 -1.38    -0.776 OA
DOCKED: ATOM     35  H   UNL d   1      45.914  26.824  21.529 +0.03 +0.29    +0.167 HD
DOCKED: ENDBRANCH  32  34
DOCKED: ENDBRANCH  31  32
DOCKED: ENDBRANCH  30  31
DOCKED: ENDBRANCH   6  30
DOCKED: BRANCH  29  36
DOCKED: ATOM     36  C   UNL d   1      43.606  26.701  19.650 -0.04 +0.11    +0.190 C 
DOCKED: BRANCH  36  37
DOCKED: ATOM     37  O   UNL d   1      43.764  26.859  21.031 -0.43 -0.52    -0.399 OA
DOCKED: ATOM     38  H   UNL d   1      44.562  26.308  21.263 +0.06 +0.28    +0.209 HD
DOCKED: ENDBRANCH  36  37
DOCKED: ENDBRANCH  29  36
DOCKED: BRANCH  22  39
DOCKED: ATOM     39  C   UNL d   1      47.744  22.376  19.218 -0.07 +0.03    +0.052 C 
DOCKED: BRANCH  39  40
DOCKED: ATOM     40  C   UNL d   1      49.011  22.361  18.347 -0.07 +0.12    +0.115 C 
DOCKED: BRANCH  40  41
DOCKED: ATOM     41  C   UNL d   1      49.173  23.577  17.459 -0.05 +0.17    +0.139 C 
DOCKED: ATOM     42  O   UNL d   1      49.982  24.441  17.768 -0.04 -0.50    -0.650 OA
DOCKED: BRANCH  41  43
DOCKED: ATOM     43  O   UNL d   1      48.511  23.693  16.287 -0.38 -1.41    -0.776 OA
DOCKED: ATOM     44  H   UNL d   1      47.772  24.303  16.166 +0.03 +0.18    +0.167 HD
DOCKED: ENDBRANCH  41  43
DOCKED: ENDBRANCH  40  41
DOCKED: ENDBRANCH  39  40
DOCKED: ENDBRANCH  22  39
DOCKED: BRANCH  12  45
DOCKED: ATOM     45  C   UNL d   1      41.685  31.421  16.464 -0.44 +0.00    +0.004 C 
DOCKED: ATOM     46  C   UNL d   1      40.905  32.428  16.849 -0.53 +0.00    +0.012 C 
DOCKED: ENDBRANCH  12  45
DOCKED: BRANCH  17  47
DOCKED: ATOM     47  C   UNL d   1      40.868  23.698  15.591 -0.57 +0.00    +0.004 C 
DOCKED: ATOM     48  C   UNL d   1      40.850  23.190  14.356 -0.58 +0.00    +0.012 C 
DOCKED: ENDBRANCH  17  47
DOCKED: TORSDOF 12
DOCKED: TER
DOCKED: ENDMDL
________________________________________________________________________________


	BEGINNING GENETIC ALGORITHM DOCKING 88 of 100
Run: 88 Seed: 386679402 1448502759 [ Run 88 of 100 GA/GALS ]
Beginning LAMARCKIAN GENETIC ALGORITHM (LGA), with a maximum of 25000000 energy evaluations.

Final-Value: -13.597


	FINAL GENETIC ALGORITHM DOCKED STATE
	_______________________________________________


Detailed state:  trans 44.857 24.951 17.627 quatxyzw -0.179964 0.316680 0.907454 -0.209415 center 8.781 34.984 -0.736 ntor 12 89.8428 69.6533 93.1238 -66.4967 67.1216 164.5857 -165.2599 67.5951 99.4074 60.9279 11.2347 116.9925
State:	 44.857  24.951  17.627  -0.184  0.324  0.928 -155.824     89.84   69.65   93.12  -66.50   67.12  164.59 -165.26   67.60   99.41   60.93   11.23  116.99

DOCKED: MODEL       88
DOCKED: USER    Run = 88
DOCKED: USER    DPF = D:/Protein_go_brrr/autodock/final/6BB5/heme_Co/dock.dpf
DOCKED: USER  
DOCKED: USER    Estimated Free Energy of Binding    =   -7.89 kcal/mol  [=(1)+(2)+(3)-(4)]
DOCKED: USER    Estimated Inhibition Constant, Ki   =    1.64 uM (micromolar)  [Temperature = 298.15 K]
DOCKED: USER    
DOCKED: USER    (1) Final Intermolecular Energy     =  -11.47 kcal/mol
DOCKED: USER        vdW + Hbond + desolv Energy     =   -9.01 kcal/mol
DOCKED: USER        Electrostatic Energy            =   -2.46 kcal/mol
DOCKED: USER    (2) Final Total Internal Energy     =   -2.12 kcal/mol
DOCKED: USER    (3) Torsional Free Energy           =   +3.58 kcal/mol
DOCKED: USER    (4) Unbound System's Energy  [=(2)] =   -2.12 kcal/mol
DOCKED: USER    
DOCKED: USER    
DOCKED: USER    NEWDPF move heme_Co_opt.pdbqt
DOCKED: USER    NEWDPF about 8.781000 34.984000 -0.736000
DOCKED: USER    NEWDPF tran0 44.856832 24.951396 17.626988
DOCKED: USER    NEWDPF quaternion0 -0.179964 0.316680 0.907454 -0.209415
DOCKED: USER    NEWDPF axisangle0 -0.184045 0.323861 0.928031 -155.823807
DOCKED: USER    NEWDPF quat0 -0.184045 0.323861 0.928031 -155.823807
DOCKED: USER    NEWDPF dihe0 89.84 69.65 93.12 -66.50 67.12 164.59 -165.26 67.60 99.41 60.93 11.23 116.99 
DOCKED: USER  keepresnum = 1 
DOCKED: USER  
DOCKED: REMARK  12 active torsions:
DOCKED: REMARK  status: ('A' for Active; 'I' for Inactive)
DOCKED: REMARK    1  A    between atoms: C_6  and  C_10 
DOCKED: REMARK    2  A    between atoms: C_10  and  C_11 
DOCKED: REMARK    3  A    between atoms: C_11  and  C_12 
DOCKED: REMARK    4  A    between atoms: C_12  and  O_14 
DOCKED: REMARK    5  A    between atoms: C_17  and  C_20 
DOCKED: REMARK    6  A    between atoms: C_24  and  C_27 
DOCKED: REMARK    7  A    between atoms: C_31  and  C_34 
DOCKED: REMARK    8  A    between atoms: C_34  and  C_35 
DOCKED: REMARK    9  A    between atoms: C_35  and  C_36 
DOCKED: REMARK   10  A    between atoms: C_36  and  O_38 
DOCKED: REMARK   11  A    between atoms: FE_43  and  C_44 
DOCKED: REMARK   12  A    between atoms: C_44  and  O_45 
DOCKED: USER                              x       y       z     vdW  Elec       q    Type
DOCKED: USER                           _______ _______ _______ _____ _____    ______ ____
DOCKED: ROOT
DOCKED: ATOM      1  C   UNL d   1      46.415  23.529  18.140 -0.11 +0.04    +0.064 A 
DOCKED: ATOM      2  C   UNL d   1      45.938  28.185  18.978 -0.16 +0.03    +0.064 C 
DOCKED: ATOM      3  C   UNL d   1      41.945  28.286  16.355 -0.29 +0.01    +0.064 A 
DOCKED: ATOM      4  C   UNL d   1      42.200  23.459  15.805 -0.28 +0.01    +0.064 A 
DOCKED: ATOM      5  C   UNL d   1      46.598  24.801  18.532 -0.08 +0.03    +0.066 A 
DOCKED: ATOM      6  C   UNL d   1      47.647  25.174  19.395 -0.04 -0.01    -0.021 A 
DOCKED: ATOM      7  C   UNL d   1      47.490  26.522  19.652 -0.05 -0.01    -0.025 A 
DOCKED: ATOM      8  C   UNL d   1      46.363  26.916  18.924 -0.09 +0.03    +0.066 A 
DOCKED: ATOM      9  C   UNL d   1      48.359  27.417  20.549 -0.04 +0.03    +0.051 C 
DOCKED: ATOM     10  C   UNL d   1      44.805  28.689  18.242 -0.19 +0.03    +0.066 A 
DOCKED: ATOM     11  C   UNL d   1      44.392  30.036  18.146 -0.26 -0.01    -0.021 A 
DOCKED: ATOM     12  C   UNL d   1      43.229  30.037  17.373 -0.33 +0.00    +0.000 A 
DOCKED: ATOM     13  C   UNL d   1      43.024  28.696  17.044 -0.25 +0.02    +0.070 A 
DOCKED: ATOM     14  C   UNL d   1      45.130  31.235  18.684 -0.25 +0.02    +0.052 C 
DOCKED: ATOM     15  C   UNL d   1      41.552  26.943  15.976 -0.35 +0.01    +0.066 A 
DOCKED: ATOM     16  C   UNL d   1      40.350  26.572  15.390 -0.42 -0.00    -0.021 A 
DOCKED: ATOM     17  C   UNL d   1      40.418  25.180  15.232 -0.44 +0.00    +0.000 A 
DOCKED: ATOM     18  C   UNL d   1      41.667  24.813  15.720 -0.33 +0.01    +0.070 A 
DOCKED: ATOM     19  C   UNL d   1      39.228  27.515  15.018 -0.39 +0.01    +0.052 C 
DOCKED: ATOM     20  C   UNL d   1      43.375  23.069  16.355 -0.03 +0.02    +0.066 A 
DOCKED: ATOM     21  C   UNL d   1      43.762  21.731  16.410 -0.22 -0.01    -0.025 A 
DOCKED: ATOM     22  C   UNL d   1      44.987  21.724  17.052 -0.21 -0.01    -0.021 A 
DOCKED: ATOM     23  C   UNL d   1      45.283  23.066  17.370 -0.17 +0.03    +0.066 A 
DOCKED: ATOM     24  C   UNL d   1      42.994  20.517  15.894 -0.29 +0.01    +0.051 C 
DOCKED: ATOM     25  N   UNL d   1      45.793  25.872  18.215 -0.07 -0.11    -0.248 N 
DOCKED: ATOM     26  N   UNL d   1      44.009  27.890  17.524 -0.14 -0.08    -0.248 N 
DOCKED: ATOM     27  N   UNL d   1      42.303  25.884  16.183 -0.20 -0.05    -0.248 N 
DOCKED: ATOM     28  N   UNL d   1      44.309  23.883  16.952 -0.12 -0.09    -0.248 N 
DOCKED: ATOM     29 FE   UNL d   1      43.945  25.875  17.138 -0.06 +0.00    +0.000 Fe
DOCKED: ENDROOT
DOCKED: BRANCH   6  30
DOCKED: ATOM     30  C   UNL d   1      48.697  24.250  20.002 -0.02 +0.03    +0.052 C 
DOCKED: BRANCH  30  31
DOCKED: ATOM     31  C   UNL d   1      49.970  24.255  19.157 -0.03 +0.06    +0.115 C 
DOCKED: BRANCH  31  32
DOCKED: ATOM     32  C   UNL d   1      49.880  23.320  17.970 -0.08 +0.14    +0.139 C 
DOCKED: ATOM     33  O   UNL d   1      49.070  23.550  17.085 -0.48 -1.03    -0.650 OA
DOCKED: BRANCH  32  34
DOCKED: ATOM     34  O   UNL d   1      50.704  22.255  17.831 -0.04 -0.94    -0.776 OA
DOCKED: ATOM     35  H   UNL d   1      50.541  21.387  18.225 +0.01 +0.17    +0.167 HD
DOCKED: ENDBRANCH  32  34
DOCKED: ENDBRANCH  31  32
DOCKED: ENDBRANCH  30  31
DOCKED: ENDBRANCH   6  30
DOCKED: BRANCH  29  36
DOCKED: ATOM     36  C   UNL d   1      43.000  25.554  18.982 -0.19 +0.07    +0.190 C 
DOCKED: BRANCH  36  37
DOCKED: ATOM     37  O   UNL d   1      43.227  25.531  20.361 -0.18 -0.23    -0.399 OA
DOCKED: ATOM     38  H   UNL d   1      44.091  25.043  20.471 +0.09 +0.13    +0.209 HD
DOCKED: ENDBRANCH  36  37
DOCKED: ENDBRANCH  29  36
DOCKED: BRANCH  22  39
DOCKED: ATOM     39  C   UNL d   1      45.792  20.484  17.396 -0.19 +0.03    +0.052 C 
DOCKED: BRANCH  39  40
DOCKED: ATOM     40  C   UNL d   1      46.462  20.637  18.772 -0.14 +0.05    +0.115 C 
DOCKED: BRANCH  40  41
DOCKED: ATOM     41  C   UNL d   1      47.963  20.441  18.761 -0.07 +0.09    +0.139 C 
DOCKED: ATOM     42  O   UNL d   1      48.526  20.072  19.782 +0.03 -0.28    -0.650 OA
DOCKED: BRANCH  41  43
DOCKED: ATOM     43  O   UNL d   1      48.689  20.578  17.629 +0.02 -1.03    -0.776 OA
DOCKED: ATOM     44  H   UNL d   1      49.184  21.382  17.423 +0.01 +0.33    +0.167 HD
DOCKED: ENDBRANCH  41  43
DOCKED: ENDBRANCH  40  41
DOCKED: ENDBRANCH  39  40
DOCKED: ENDBRANCH  22  39
DOCKED: BRANCH  12  45
DOCKED: ATOM     45  C   UNL d   1      42.302  31.146  16.892 -0.44 +0.00    +0.004 C 
DOCKED: ATOM     46  C   UNL d   1      41.386  31.854  17.549 -0.53 +0.00    +0.012 C 
DOCKED: ENDBRANCH  12  45
DOCKED: BRANCH  17  47
DOCKED: ATOM     47  C   UNL d   1      39.391  24.228  14.714 -0.40 +0.00    +0.004 C 
DOCKED: ATOM     48  C   UNL d   1      38.672  24.447  13.610 -0.51 +0.00    +0.012 C 
DOCKED: ENDBRANCH  17  47
DOCKED: TORSDOF 12
DOCKED: TER
DOCKED: ENDMDL
________________________________________________________________________________


	BEGINNING GENETIC ALGORITHM DOCKING 89 of 100
Run: 89 Seed: 261549382 1251398978 [ Run 89 of 100 GA/GALS ]
Beginning LAMARCKIAN GENETIC ALGORITHM (LGA), with a maximum of 25000000 energy evaluations.

Final-Value: -16.074


	FINAL GENETIC ALGORITHM DOCKED STATE
	_______________________________________________


Detailed state:  trans 8.875 34.542 -0.321 quatxyzw -0.015771 -0.000644 0.027882 0.999487 center 8.781 34.984 -0.736 ntor 12 -101.0867 122.5095 -116.0178 54.4132 -92.0942 38.4802 179.6475 36.5288 -40.8880 -68.2587 44.0684 -180.0000
State:	  8.875  34.542  -0.321  -0.492 -0.020  0.870  3.672   -101.09  122.51 -116.02   54.41  -92.09   38.48  179.65   36.53  -40.89  -68.26   44.07 -180.00

DOCKED: MODEL       89
DOCKED: USER    Run = 89
DOCKED: USER    DPF = D:/Protein_go_brrr/autodock/final/6BB5/heme_Co/dock.dpf
DOCKED: USER  
DOCKED: USER    Estimated Free Energy of Binding    =  -11.74 kcal/mol  [=(1)+(2)+(3)-(4)]
DOCKED: USER    Estimated Inhibition Constant, Ki   =    2.47 nM (nanomolar)  [Temperature = 298.15 K]
DOCKED: USER    
DOCKED: USER    (1) Final Intermolecular Energy     =  -15.32 kcal/mol
DOCKED: USER        vdW + Hbond + desolv Energy     =  -15.05 kcal/mol
DOCKED: USER        Electrostatic Energy            =   -0.28 kcal/mol
DOCKED: USER    (2) Final Total Internal Energy     =   -0.75 kcal/mol
DOCKED: USER    (3) Torsional Free Energy           =   +3.58 kcal/mol
DOCKED: USER    (4) Unbound System's Energy  [=(2)] =   -0.75 kcal/mol
DOCKED: USER    
DOCKED: USER    
DOCKED: USER    NEWDPF move heme_Co_opt.pdbqt
DOCKED: USER    NEWDPF about 8.781000 34.984000 -0.736000
DOCKED: USER    NEWDPF tran0 8.874792 34.541514 -0.321155
DOCKED: USER    NEWDPF quaternion0 -0.015771 -0.000644 0.027882 0.999487
DOCKED: USER    NEWDPF axisangle0 -0.492234 -0.020092 0.870231 3.672163
DOCKED: USER    NEWDPF quat0 -0.492234 -0.020092 0.870231 3.672163
DOCKED: USER    NEWDPF dihe0 -101.09 122.51 -116.02 54.41 -92.09 38.48 179.65 36.53 -40.89 -68.26 44.07 -180.00 
DOCKED: USER  keepresnum = 1 
DOCKED: USER  
DOCKED: REMARK  12 active torsions:
DOCKED: REMARK  status: ('A' for Active; 'I' for Inactive)
DOCKED: REMARK    1  A    between atoms: C_6  and  C_10 
DOCKED: REMARK    2  A    between atoms: C_10  and  C_11 
DOCKED: REMARK    3  A    between atoms: C_11  and  C_12 
DOCKED: REMARK    4  A    between atoms: C_12  and  O_14 
DOCKED: REMARK    5  A    between atoms: C_17  and  C_20 
DOCKED: REMARK    6  A    between atoms: C_24  and  C_27 
DOCKED: REMARK    7  A    between atoms: C_31  and  C_34 
DOCKED: REMARK    8  A    between atoms: C_34  and  C_35 
DOCKED: REMARK    9  A    between atoms: C_35  and  C_36 
DOCKED: REMARK   10  A    between atoms: C_36  and  O_38 
DOCKED: REMARK   11  A    between atoms: FE_43  and  C_44 
DOCKED: REMARK   12  A    between atoms: C_44  and  O_45 
DOCKED: USER                              x       y       z     vdW  Elec       q    Type
DOCKED: USER                           _______ _______ _______ _____ _____    ______ ____
DOCKED: ROOT
DOCKED: ATOM      1  C   UNL d   1       6.970  35.174  -1.151 -0.12 +0.01    +0.064 A 
DOCKED: ATOM      2  C   UNL d   1       8.081  32.332   2.496 -0.46 +0.00    +0.064 C 
DOCKED: ATOM      3  C   UNL d   1      12.721  32.699   1.418 -0.38 +0.00    +0.064 A 
DOCKED: ATOM      4  C   UNL d   1      11.643  35.910  -2.073 -0.42 +0.00    +0.064 A 
DOCKED: ATOM      5  C   UNL d   1       6.930  34.341  -0.098 -0.25 +0.01    +0.066 A 
DOCKED: ATOM      6  C   UNL d   1       5.727  34.034   0.567 -0.35 -0.00    -0.021 A 
DOCKED: ATOM      7  C   UNL d   1       6.057  33.227   1.637 -0.42 -0.00    -0.025 A 
DOCKED: ATOM      8  C   UNL d   1       7.445  33.064   1.572 -0.36 +0.01    +0.066 A 
DOCKED: ATOM      9  C   UNL d   1       5.115  32.626   2.691 -0.49 +0.00    +0.051 C 
DOCKED: ATOM     10  C   UNL d   1       9.501  32.086   2.494 -0.39 +0.00    +0.066 A 
DOCKED: ATOM     11  C   UNL d   1      10.207  31.215   3.352 -0.46 -0.00    -0.021 A 
DOCKED: ATOM     12  C   UNL d   1      11.558  31.338   3.013 -0.45 +0.00    +0.000 A 
DOCKED: ATOM     13  C   UNL d   1      11.574  32.263   1.969 -0.36 +0.00    +0.070 A 
DOCKED: ATOM     14  C   UNL d   1       9.603  30.266   4.355 -0.61 +0.00    +0.052 C 
DOCKED: ATOM     15  C   UNL d   1      12.924  33.683   0.373 -0.41 +0.00    +0.066 A 
DOCKED: ATOM     16  C   UNL d   1      14.142  34.195  -0.050 -0.49 -0.00    -0.021 A 
DOCKED: ATOM     17  C   UNL d   1      13.836  35.123  -1.055 -0.45 +0.00    +0.000 A 
DOCKED: ATOM     18  C   UNL d   1      12.451  35.092  -1.178 -0.39 +0.00    +0.070 A 
DOCKED: ATOM     19  C   UNL d   1      15.496  33.799   0.495 -0.35 +0.00    +0.052 C 
DOCKED: ATOM     20  C   UNL d   1      10.291  35.960  -2.149 -0.40 +0.00    +0.066 A 
DOCKED: ATOM     21  C   UNL d   1       9.627  36.814  -3.026 -0.44 -0.00    -0.025 A 
DOCKED: ATOM     22  C   UNL d   1       8.278  36.603  -2.803 -0.37 -0.00    -0.021 A 
DOCKED: ATOM     23  C   UNL d   1       8.186  35.631  -1.784 -0.30 +0.01    +0.066 A 
DOCKED: ATOM     24  C   UNL d   1      10.245  37.799  -4.015 -0.52 -0.01    +0.051 C 
DOCKED: ATOM     25  N   UNL d   1       8.011  33.738   0.503 +0.06 -0.04    -0.248 N 
DOCKED: ATOM     26  N   UNL d   1      10.325  32.672   1.619 -0.25 -0.01    -0.248 N 
DOCKED: ATOM     27  N   UNL d   1      11.939  34.246  -0.291 -0.21 -0.02    -0.248 N 
DOCKED: ATOM     28  N   UNL d   1       9.402  35.241  -1.384 +0.09 -0.06    -0.248 N 
DOCKED: ATOM     29 FE   UNL d   1      10.091  34.009   0.080 -0.08 +0.00    +0.000 Fe
DOCKED: ENDROOT
DOCKED: BRANCH   6  30
DOCKED: ATOM     30  C   UNL d   1       4.338  34.565   0.226 -0.30 +0.01    +0.052 C 
DOCKED: BRANCH  30  31
DOCKED: ATOM     31  C   UNL d   1       3.343  33.414   0.082 -0.20 +0.02    +0.115 C 
DOCKED: BRANCH  31  32
DOCKED: ATOM     32  C   UNL d   1       2.015  33.713   0.745 -0.16 +0.03    +0.139 C 
DOCKED: ATOM     33  O   UNL d   1       1.448  34.768   0.505 -0.01 -0.26    -0.650 OA
DOCKED: BRANCH  32  34
DOCKED: ATOM     34  O   UNL d   1       1.407  32.825   1.565 +0.06 -0.10    -0.776 OA
DOCKED: ATOM     35  H   UNL d   1       0.633  32.299   1.318 +0.04 +0.01    +0.167 HD
DOCKED: ENDBRANCH  32  34
DOCKED: ENDBRANCH  31  32
DOCKED: ENDBRANCH  30  31
DOCKED: ENDBRANCH   6  30
DOCKED: BRANCH  29  36
DOCKED: ATOM     36  C   UNL d   1      10.051  35.587   1.459 -0.27 +0.03    +0.190 C 
DOCKED: BRANCH  36  37
DOCKED: ATOM     37  O   UNL d   1      10.217  36.971   1.574 -0.31 -0.05    -0.399 OA
DOCKED: ATOM     38  H   UNL d   1      10.275  37.301   0.634 +0.12 +0.03    +0.209 HD
DOCKED: ENDBRANCH  36  37
DOCKED: ENDBRANCH  29  36
DOCKED: BRANCH  22  39
DOCKED: ATOM     39  C   UNL d   1       7.146  37.345  -3.489 -0.30 +0.00    +0.052 C 
DOCKED: BRANCH  39  40
DOCKED: ATOM     40  C   UNL d   1       6.951  38.736  -2.861 -0.32 +0.00    +0.115 C 
DOCKED: BRANCH  40  41
DOCKED: ATOM     41  C   UNL d   1       7.445  39.882  -3.718 -0.34 -0.01    +0.139 C 
DOCKED: ATOM     42  O   UNL d   1       7.245  41.032  -3.352 +0.00 +0.00    -0.650 OA
DOCKED: BRANCH  41  43
DOCKED: ATOM     43  O   UNL d   1       8.177  39.671  -4.834 +0.08 +0.20    -0.776 OA
DOCKED: ATOM     44  H   UNL d   1       9.116  39.894  -4.889 -0.44 -0.11    +0.167 HD
DOCKED: ENDBRANCH  41  43
DOCKED: ENDBRANCH  40  41
DOCKED: ENDBRANCH  39  40
DOCKED: ENDBRANCH  22  39
DOCKED: BRANCH  12  45
DOCKED: ATOM     45  C   UNL d   1      12.825  30.679   3.540 -0.65 +0.00    +0.004 C 
DOCKED: ATOM     46  C   UNL d   1      13.089  29.403   3.812 -0.76 +0.00    +0.012 C 
DOCKED: ENDBRANCH  12  45
DOCKED: BRANCH  17  47
DOCKED: ATOM     47  C   UNL d   1      14.741  36.026  -1.827 -0.58 +0.00    +0.004 C 
DOCKED: ATOM     48  C   UNL d   1      14.718  37.357  -1.724 -0.67 +0.00    +0.012 C 
DOCKED: ENDBRANCH  17  47
DOCKED: TORSDOF 12
DOCKED: TER
DOCKED: ENDMDL
________________________________________________________________________________


	BEGINNING GENETIC ALGORITHM DOCKING 90 of 100
Run: 90 Seed: 1554603254 1923681680 [ Run 90 of 100 GA/GALS ]
Beginning LAMARCKIAN GENETIC ALGORITHM (LGA), with a maximum of 25000000 energy evaluations.

Final-Value: -14.283


	FINAL GENETIC ALGORITHM DOCKED STATE
	_______________________________________________


Detailed state:  trans 45.520 27.757 17.793 quatxyzw -0.238688 0.336657 0.910019 0.039440 center 8.781 34.984 -0.736 ntor 12 -80.3550 76.1895 -32.0520 54.4027 102.3919 141.0009 46.4170 -156.5952 138.1479 -54.8016 -145.7315 -156.8004
State:	 45.520  27.757  17.793  -0.239  0.337  0.911 175.479    -80.35   76.19  -32.05   54.40  102.39  141.00   46.42 -156.60  138.15  -54.80 -145.73 -156.80

DOCKED: MODEL       90
DOCKED: USER    Run = 90
DOCKED: USER    DPF = D:/Protein_go_brrr/autodock/final/6BB5/heme_Co/dock.dpf
DOCKED: USER  
DOCKED: USER    Estimated Free Energy of Binding    =   -8.56 kcal/mol  [=(1)+(2)+(3)-(4)]
DOCKED: USER    Estimated Inhibition Constant, Ki   =  529.99 nM (nanomolar)  [Temperature = 298.15 K]
DOCKED: USER    
DOCKED: USER    (1) Final Intermolecular Energy     =  -12.14 kcal/mol
DOCKED: USER        vdW + Hbond + desolv Energy     =   -9.29 kcal/mol
DOCKED: USER        Electrostatic Energy            =   -2.85 kcal/mol
DOCKED: USER    (2) Final Total Internal Energy     =   -2.14 kcal/mol
DOCKED: USER    (3) Torsional Free Energy           =   +3.58 kcal/mol
DOCKED: USER    (4) Unbound System's Energy  [=(2)] =   -2.14 kcal/mol
DOCKED: USER    
DOCKED: USER    
DOCKED: USER    NEWDPF move heme_Co_opt.pdbqt
DOCKED: USER    NEWDPF about 8.781000 34.984000 -0.736000
DOCKED: USER    NEWDPF tran0 45.519678 27.757047 17.793368
DOCKED: USER    NEWDPF quaternion0 -0.238688 0.336657 0.910019 0.039440
DOCKED: USER    NEWDPF axisangle0 -0.238873 0.336919 0.910728 175.479303
DOCKED: USER    NEWDPF quat0 -0.238873 0.336919 0.910728 175.479303
DOCKED: USER    NEWDPF dihe0 -80.35 76.19 -32.05 54.40 102.39 141.00 46.42 -156.60 138.15 -54.80 -145.73 -156.80 
DOCKED: USER  keepresnum = 1 
DOCKED: USER  
DOCKED: REMARK  12 active torsions:
DOCKED: REMARK  status: ('A' for Active; 'I' for Inactive)
DOCKED: REMARK    1  A    between atoms: C_6  and  C_10 
DOCKED: REMARK    2  A    between atoms: C_10  and  C_11 
DOCKED: REMARK    3  A    between atoms: C_11  and  C_12 
DOCKED: REMARK    4  A    between atoms: C_12  and  O_14 
DOCKED: REMARK    5  A    between atoms: C_17  and  C_20 
DOCKED: REMARK    6  A    between atoms: C_24  and  C_27 
DOCKED: REMARK    7  A    between atoms: C_31  and  C_34 
DOCKED: REMARK    8  A    between atoms: C_34  and  C_35 
DOCKED: REMARK    9  A    between atoms: C_35  and  C_36 
DOCKED: REMARK   10  A    between atoms: C_36  and  O_38 
DOCKED: REMARK   11  A    between atoms: FE_43  and  C_44 
DOCKED: REMARK   12  A    between atoms: C_44  and  O_45 
DOCKED: USER                              x       y       z     vdW  Elec       q    Type
DOCKED: USER                           _______ _______ _______ _____ _____    ______ ____
DOCKED: ROOT
DOCKED: ATOM      1  C   UNL d   1      47.576  27.318  18.337 -0.10 +0.03    +0.064 A 
DOCKED: ATOM      2  C   UNL d   1      44.979  31.292  18.607 -0.26 +0.02    +0.064 C 
DOCKED: ATOM      3  C   UNL d   1      41.353  29.118  16.381 -0.21 +0.02    +0.064 A 
DOCKED: ATOM      4  C   UNL d   1      43.840  24.938  16.439 -0.15 +0.02    +0.064 A 
DOCKED: ATOM      5  C   UNL d   1      47.146  28.574  18.542 -0.10 +0.03    +0.066 A 
DOCKED: ATOM      6  C   UNL d   1      47.914  29.521  19.246 -0.07 -0.01    -0.021 A 
DOCKED: ATOM      7  C   UNL d   1      47.147  30.665  19.341 -0.11 -0.01    -0.025 A 
DOCKED: ATOM      8  C   UNL d   1      45.950  30.373  18.677 -0.16 +0.02    +0.066 A 
DOCKED: ATOM      9  C   UNL d   1      47.511  31.990  20.028 -0.09 +0.01    +0.051 C 
DOCKED: ATOM     10  C   UNL d   1      43.726  31.091  17.922 -0.27 +0.02    +0.066 A 
DOCKED: ATOM     11  C   UNL d   1      42.725  32.060  17.692 -0.40 -0.00    -0.021 A 
DOCKED: ATOM     12  C   UNL d   1      41.681  31.400  17.038 -0.44 +0.00    +0.000 A 
DOCKED: ATOM     13  C   UNL d   1      42.126  30.085  16.907 -0.32 +0.01    +0.070 A 
DOCKED: ATOM     14  C   UNL d   1      42.822  33.533  17.999 -0.33 +0.00    +0.052 C 
DOCKED: ATOM     15  C   UNL d   1      41.630  27.705  16.218 -0.27 +0.01    +0.066 A 
DOCKED: ATOM     16  C   UNL d   1      40.732  26.732  15.800 -0.41 -0.00    -0.021 A 
DOCKED: ATOM     17  C   UNL d   1      41.445  25.525  15.818 -0.41 +0.00    +0.000 A 
DOCKED: ATOM     18  C   UNL d   1      42.730  25.860  16.230 -0.19 +0.02    +0.070 A 
DOCKED: ATOM     19  C   UNL d   1      39.290  26.977  15.417 -0.43 +0.01    +0.052 C 
DOCKED: ATOM     20  C   UNL d   1      45.072  25.228  16.921 -0.21 +0.03    +0.066 A 
DOCKED: ATOM     21  C   UNL d   1      46.045  24.249  17.112 -0.20 -0.01    -0.025 A 
DOCKED: ATOM     22  C   UNL d   1      47.143  24.910  17.631 -0.16 -0.01    -0.021 A 
DOCKED: ATOM     23  C   UNL d   1      46.778  26.269  17.744 -0.13 +0.03    +0.066 A 
DOCKED: ATOM     24  C   UNL d   1      45.928  22.753  16.832 -0.20 +0.03    +0.051 C 
DOCKED: ATOM     25  N   UNL d   1      45.925  29.086  18.167 -0.09 -0.09    -0.248 N 
DOCKED: ATOM     26  N   UNL d   1      43.385  29.912  17.391 -0.19 -0.06    -0.248 N 
DOCKED: ATOM     27  N   UNL d   1      42.796  27.161  16.488 -0.21 -0.06    -0.248 N 
DOCKED: ATOM     28  N   UNL d   1      45.525  26.465  17.317 -0.11 -0.10    -0.248 N 
DOCKED: ATOM     29 FE   UNL d   1      44.270  28.064  17.277 -0.06 +0.00    +0.000 Fe
DOCKED: ENDROOT
DOCKED: BRANCH   6  30
DOCKED: ATOM     30  C   UNL d   1      49.289  29.297  19.867 -0.03 +0.02    +0.052 C 
DOCKED: BRANCH  30  31
DOCKED: ATOM     31  C   UNL d   1      49.224  28.211  20.940 -0.02 +0.05    +0.115 C 
DOCKED: BRANCH  31  32
DOCKED: ATOM     32  C   UNL d   1      48.017  28.361  21.841 -0.08 +0.12    +0.139 C 
DOCKED: ATOM     33  O   UNL d   1      48.066  29.134  22.786 -0.07 -0.61    -0.650 OA
DOCKED: BRANCH  32  34
DOCKED: ATOM     34  O   UNL d   1      46.860  27.700  21.607 -0.52 -1.20    -0.776 OA
DOCKED: ATOM     35  H   UNL d   1      46.169  28.009  21.005 +0.02 +0.24    +0.167 HD
DOCKED: ENDBRANCH  32  34
DOCKED: ENDBRANCH  31  32
DOCKED: ENDBRANCH  30  31
DOCKED: ENDBRANCH   6  30
DOCKED: BRANCH  29  36
DOCKED: ATOM     36  C   UNL d   1      43.629  27.639  19.228 +0.26 +0.11    +0.190 C 
DOCKED: BRANCH  36  37
DOCKED: ATOM     37  O   UNL d   1      44.045  27.644  20.563 -0.33 -0.47    -0.399 OA
DOCKED: ATOM     38  H   UNL d   1      45.001  27.362  20.535 +0.06 +0.25    +0.209 HD
DOCKED: ENDBRANCH  36  37
DOCKED: ENDBRANCH  29  36
DOCKED: BRANCH  22  39
DOCKED: ATOM     39  C   UNL d   1      48.444  24.256  18.055 -0.12 +0.04    +0.052 C 
DOCKED: BRANCH  39  40
DOCKED: ATOM     40  C   UNL d   1      48.182  23.143  19.083 -0.05 +0.07    +0.115 C 
DOCKED: BRANCH  40  41
DOCKED: ATOM     41  C   UNL d   1      48.634  21.766  18.643 -0.07 +0.12    +0.139 C 
DOCKED: ATOM     42  O   UNL d   1      48.835  21.554  17.455 -0.02 -1.19    -0.650 OA
DOCKED: BRANCH  41  43
DOCKED: ATOM     43  O   UNL d   1      48.907  20.789  19.535 +0.04 -0.42    -0.776 OA
DOCKED: ATOM     44  H   UNL d   1      49.181  20.975  20.443 +0.01 +0.07    +0.167 HD
DOCKED: ENDBRANCH  41  43
DOCKED: ENDBRANCH  40  41
DOCKED: ENDBRANCH  39  40
DOCKED: ENDBRANCH  22  39
DOCKED: BRANCH  12  45
DOCKED: ATOM     45  C   UNL d   1      40.331  31.863  16.508 -0.43 +0.00    +0.004 C 
DOCKED: ATOM     46  C   UNL d   1      40.003  32.933  15.788 -0.51 +0.00    +0.012 C 
DOCKED: ENDBRANCH  12  45
DOCKED: BRANCH  17  47
DOCKED: ATOM     47  C   UNL d   1      40.976  24.137  15.527 -0.54 +0.00    +0.004 C 
DOCKED: ATOM     48  C   UNL d   1      40.840  23.648  14.292 -0.61 +0.00    +0.012 C 
DOCKED: ENDBRANCH  17  47
DOCKED: TORSDOF 12
DOCKED: TER
DOCKED: ENDMDL
________________________________________________________________________________


	BEGINNING GENETIC ALGORITHM DOCKING 91 of 100
Run: 91 Seed: 1810609880 893204125 [ Run 91 of 100 GA/GALS ]
Beginning LAMARCKIAN GENETIC ALGORITHM (LGA), with a maximum of 25000000 energy evaluations.

Final-Value: -13.501


	FINAL GENETIC ALGORITHM DOCKED STATE
	_______________________________________________


Detailed state:  trans 45.777 26.625 19.110 quatxyzw 0.333363 -0.363062 -0.867975 0.060619 center 8.781 34.984 -0.736 ntor 12 -100.0351 -10.2120 8.7981 -25.5752 56.2789 153.3011 173.6591 -63.9233 -88.8356 127.6428 156.7107 4.3281
State:	 45.777  26.625  19.110   0.334 -0.364 -0.870 173.049   -100.04  -10.21    8.80  -25.58   56.28  153.30  173.66  -63.92  -88.84  127.64  156.71    4.33

DOCKED: MODEL       91
DOCKED: USER    Run = 91
DOCKED: USER    DPF = D:/Protein_go_brrr/autodock/final/6BB5/heme_Co/dock.dpf
DOCKED: USER  
DOCKED: USER    Estimated Free Energy of Binding    =   -9.15 kcal/mol  [=(1)+(2)+(3)-(4)]
DOCKED: USER    Estimated Inhibition Constant, Ki   =  195.03 nM (nanomolar)  [Temperature = 298.15 K]
DOCKED: USER    
DOCKED: USER    (1) Final Intermolecular Energy     =  -12.73 kcal/mol
DOCKED: USER        vdW + Hbond + desolv Energy     =   -9.01 kcal/mol
DOCKED: USER        Electrostatic Energy            =   -3.72 kcal/mol
DOCKED: USER    (2) Final Total Internal Energy     =   -0.77 kcal/mol
DOCKED: USER    (3) Torsional Free Energy           =   +3.58 kcal/mol
DOCKED: USER    (4) Unbound System's Energy  [=(2)] =   -0.77 kcal/mol
DOCKED: USER    
DOCKED: USER    
DOCKED: USER    NEWDPF move heme_Co_opt.pdbqt
DOCKED: USER    NEWDPF about 8.781000 34.984000 -0.736000
DOCKED: USER    NEWDPF tran0 45.777349 26.624604 19.110331
DOCKED: USER    NEWDPF quaternion0 0.333363 -0.363062 -0.867975 0.060619
DOCKED: USER    NEWDPF axisangle0 0.333977 -0.363731 -0.869574 173.049266
DOCKED: USER    NEWDPF quat0 0.333977 -0.363731 -0.869574 173.049266
DOCKED: USER    NEWDPF dihe0 -100.04 -10.21 8.80 -25.58 56.28 153.30 173.66 -63.92 -88.84 127.64 156.71 4.33 
DOCKED: USER  keepresnum = 1 
DOCKED: USER  
DOCKED: REMARK  12 active torsions:
DOCKED: REMARK  status: ('A' for Active; 'I' for Inactive)
DOCKED: REMARK    1  A    between atoms: C_6  and  C_10 
DOCKED: REMARK    2  A    between atoms: C_10  and  C_11 
DOCKED: REMARK    3  A    between atoms: C_11  and  C_12 
DOCKED: REMARK    4  A    between atoms: C_12  and  O_14 
DOCKED: REMARK    5  A    between atoms: C_17  and  C_20 
DOCKED: REMARK    6  A    between atoms: C_24  and  C_27 
DOCKED: REMARK    7  A    between atoms: C_31  and  C_34 
DOCKED: REMARK    8  A    between atoms: C_34  and  C_35 
DOCKED: REMARK    9  A    between atoms: C_35  and  C_36 
DOCKED: REMARK   10  A    between atoms: C_36  and  O_38 
DOCKED: REMARK   11  A    between atoms: FE_43  and  C_44 
DOCKED: REMARK   12  A    between atoms: C_44  and  O_45 
DOCKED: USER                              x       y       z     vdW  Elec       q    Type
DOCKED: USER                           _______ _______ _______ _____ _____    ______ ____
DOCKED: ROOT
DOCKED: ATOM      1  C   UNL d   1      47.549  25.956  20.173 -0.03 +0.04    +0.064 A 
DOCKED: ATOM      2  C   UNL d   1      45.506  30.227  19.740 -0.19 +0.04    +0.064 C 
DOCKED: ATOM      3  C   UNL d   1      42.327  28.436  16.656 -0.19 +0.01    +0.064 A 
DOCKED: ATOM      4  C   UNL d   1      44.154  23.986  17.377 -0.21 +0.02    +0.064 A 
DOCKED: ATOM      5  C   UNL d   1      47.247  27.262  20.253 -0.07 +0.05    +0.066 A 
DOCKED: ATOM      6  C   UNL d   1      47.923  28.133  21.129 -0.08 -0.02    -0.021 A 
DOCKED: ATOM      7  C   UNL d   1      47.312  29.366  21.016 -0.11 -0.02    -0.025 A 
DOCKED: ATOM      8  C   UNL d   1      46.300  29.199  20.065 -0.14 +0.05    +0.066 A 
DOCKED: ATOM      9  C   UNL d   1      47.654  30.661  21.769 -0.12 +0.03    +0.051 C 
DOCKED: ATOM     10  C   UNL d   1      44.457  30.157  18.754 -0.24 +0.03    +0.066 A 
DOCKED: ATOM     11  C   UNL d   1      43.683  31.233  18.267 -0.33 -0.01    -0.021 A 
DOCKED: ATOM     12  C   UNL d   1      42.767  30.683  17.366 -0.36 +0.00    +0.000 A 
DOCKED: ATOM     13  C   UNL d   1      43.057  29.319  17.361 -0.26 +0.02    +0.070 A 
DOCKED: ATOM     14  C   UNL d   1      43.887  32.693  18.582 -0.39 +0.01    +0.052 C 
DOCKED: ATOM     15  C   UNL d   1      42.452  26.994  16.577 -0.29 +0.02    +0.066 A 
DOCKED: ATOM     16  C   UNL d   1      41.575  26.125  15.944 -0.39 -0.00    -0.021 A 
DOCKED: ATOM     17  C   UNL d   1      42.096  24.840  16.151 -0.35 +0.00    +0.000 A 
DOCKED: ATOM     18  C   UNL d   1      43.264  25.029  16.882 -0.26 +0.02    +0.070 A 
DOCKED: ATOM     19  C   UNL d   1      40.323  26.531  15.197 -0.45 +0.01    +0.052 C 
DOCKED: ATOM     20  C   UNL d   1      45.247  24.139  18.162 -0.14 +0.03    +0.066 A 
DOCKED: ATOM     21  C   UNL d   1      46.003  23.055  18.604 -0.13 -0.01    -0.025 A 
DOCKED: ATOM     22  C   UNL d   1      47.006  23.595  19.388 -0.06 -0.01    -0.021 A 
DOCKED: ATOM     23  C   UNL d   1      46.803  24.991  19.396 -0.05 +0.03    +0.066 A 
DOCKED: ATOM     24  C   UNL d   1      45.770  21.576  18.310 -0.18 +0.02    +0.051 C 
DOCKED: ATOM     25  N   UNL d   1      46.241  27.907  19.571 -0.07 -0.16    -0.248 N 
DOCKED: ATOM     26  N   UNL d   1      44.115  29.010  18.157 -0.15 -0.09    -0.248 N 
DOCKED: ATOM     27  N   UNL d   1      43.428  26.321  17.143 -0.16 -0.07    -0.248 N 
DOCKED: ATOM     28  N   UNL d   1      45.738  25.325  18.657 -0.04 -0.12    -0.248 N 
DOCKED: ATOM     29 FE   UNL d   1      44.753  27.064  18.285 -0.04 +0.00    +0.000 Fe
DOCKED: ENDROOT
DOCKED: BRANCH   6  30
DOCKED: ATOM     30  C   UNL d   1      49.052  27.764  22.087 -0.04 +0.03    +0.052 C 
DOCKED: BRANCH  30  31
DOCKED: ATOM     31  C   UNL d   1      48.642  28.045  23.533 -0.06 +0.09    +0.115 C 
DOCKED: BRANCH  31  32
DOCKED: ATOM     32  C   UNL d   1      47.958  26.860  24.179 -0.05 +0.14    +0.139 C 
DOCKED: ATOM     33  O   UNL d   1      48.421  25.740  24.023 +0.00 -0.41    -0.650 OA
DOCKED: BRANCH  32  34
DOCKED: ATOM     34  O   UNL d   1      46.869  27.004  24.970 -0.24 -1.38    -0.776 OA
DOCKED: ATOM     35  H   UNL d   1      46.886  26.940  25.935 +0.01 +0.19    +0.167 HD
DOCKED: ENDBRANCH  32  34
DOCKED: ENDBRANCH  31  32
DOCKED: ENDBRANCH  30  31
DOCKED: ENDBRANCH   6  30
DOCKED: BRANCH  29  36
DOCKED: ATOM     36  C   UNL d   1      43.582  26.795  20.003 -0.00 +0.14    +0.190 C 
DOCKED: BRANCH  36  37
DOCKED: ATOM     37  O   UNL d   1      43.582  26.972  21.391 -0.65 -0.64    -0.399 OA
DOCKED: ATOM     38  H   UNL d   1      43.399  26.065  21.765 +0.08 +0.26    +0.209 HD
DOCKED: ENDBRANCH  36  37
DOCKED: ENDBRANCH  29  36
DOCKED: BRANCH  22  39
DOCKED: ATOM     39  C   UNL d   1      48.059  22.801  20.139 -0.03 +0.02    +0.052 C 
DOCKED: BRANCH  39  40
DOCKED: ATOM     40  C   UNL d   1      49.423  22.912  19.440 -0.03 +0.07    +0.115 C 
DOCKED: BRANCH  40  41
DOCKED: ATOM     41  C   UNL d   1      49.427  22.442  18.000 -0.04 +0.17    +0.139 C 
DOCKED: ATOM     42  O   UNL d   1      48.910  23.143  17.141 -0.44 -1.19    -0.650 OA
DOCKED: BRANCH  41  43
DOCKED: ATOM     43  O   UNL d   1      50.063  21.311  17.623 +0.04 -1.29    -0.776 OA
DOCKED: ATOM     44  H   UNL d   1      50.356  20.644  18.258 +0.01 +0.16    +0.167 HD
DOCKED: ENDBRANCH  41  43
DOCKED: ENDBRANCH  40  41
DOCKED: ENDBRANCH  39  40
DOCKED: ENDBRANCH  22  39
DOCKED: BRANCH  12  45
DOCKED: ATOM     45  C   UNL d   1      41.670  31.289  16.501 -0.44 +0.00    +0.004 C 
DOCKED: ATOM     46  C   UNL d   1      40.863  32.323  16.724 -0.52 +0.00    +0.012 C 
DOCKED: ENDBRANCH  12  45
DOCKED: BRANCH  17  47
DOCKED: ATOM     47  C   UNL d   1      41.543  23.511  15.754 -0.54 +0.00    +0.004 C 
DOCKED: ATOM     48  C   UNL d   1      40.858  23.304  14.627 -0.59 +0.00    +0.012 C 
DOCKED: ENDBRANCH  17  47
DOCKED: TORSDOF 12
DOCKED: TER
DOCKED: ENDMDL
________________________________________________________________________________


	BEGINNING GENETIC ALGORITHM DOCKING 92 of 100
Run: 92 Seed: 3387393 2437744 [ Run 92 of 100 GA/GALS ]
Beginning LAMARCKIAN GENETIC ALGORITHM (LGA), with a maximum of 25000000 energy evaluations.

Final-Value: -9.235


	FINAL GENETIC ALGORITHM DOCKED STATE
	_______________________________________________


Detailed state:  trans 35.857 29.489 -0.696 quatxyzw 0.850935 -0.363707 0.148800 0.348548 center 8.781 34.984 -0.736 ntor 12 54.1512 103.5462 48.2952 41.7556 138.5050 155.8231 -176.2353 90.8124 39.4606 -32.5126 -12.3701 -42.9514
State:	 35.857  29.489  -0.696   0.908 -0.388  0.159 139.203     54.15  103.55   48.30   41.76  138.51  155.82 -176.24   90.81   39.46  -32.51  -12.37  -42.95

DOCKED: MODEL       92
DOCKED: USER    Run = 92
DOCKED: USER    DPF = D:/Protein_go_brrr/autodock/final/6BB5/heme_Co/dock.dpf
DOCKED: USER  
DOCKED: USER    Estimated Free Energy of Binding    =   -5.28 kcal/mol  [=(1)+(2)+(3)-(4)]
DOCKED: USER    Estimated Inhibition Constant, Ki   =  134.83 uM (micromolar)  [Temperature = 298.15 K]
DOCKED: USER    
DOCKED: USER    (1) Final Intermolecular Energy     =   -8.86 kcal/mol
DOCKED: USER        vdW + Hbond + desolv Energy     =   -5.89 kcal/mol
DOCKED: USER        Electrostatic Energy            =   -2.97 kcal/mol
DOCKED: USER    (2) Final Total Internal Energy     =   -0.38 kcal/mol
DOCKED: USER    (3) Torsional Free Energy           =   +3.58 kcal/mol
DOCKED: USER    (4) Unbound System's Energy  [=(2)] =   -0.38 kcal/mol
DOCKED: USER    
DOCKED: USER    
DOCKED: USER    NEWDPF move heme_Co_opt.pdbqt
DOCKED: USER    NEWDPF about 8.781000 34.984000 -0.736000
DOCKED: USER    NEWDPF tran0 35.857388 29.489084 -0.695510
DOCKED: USER    NEWDPF quaternion0 0.850935 -0.363707 0.148800 0.348548
DOCKED: USER    NEWDPF axisangle0 0.907866 -0.388041 0.158755 139.202906
DOCKED: USER    NEWDPF quat0 0.907866 -0.388041 0.158755 139.202906
DOCKED: USER    NEWDPF dihe0 54.15 103.55 48.30 41.76 138.51 155.82 -176.24 90.81 39.46 -32.51 -12.37 -42.95 
DOCKED: USER  keepresnum = 1 
DOCKED: USER  
DOCKED: REMARK  12 active torsions:
DOCKED: REMARK  status: ('A' for Active; 'I' for Inactive)
DOCKED: REMARK    1  A    between atoms: C_6  and  C_10 
DOCKED: REMARK    2  A    between atoms: C_10  and  C_11 
DOCKED: REMARK    3  A    between atoms: C_11  and  C_12 
DOCKED: REMARK    4  A    between atoms: C_12  and  O_14 
DOCKED: REMARK    5  A    between atoms: C_17  and  C_20 
DOCKED: REMARK    6  A    between atoms: C_24  and  C_27 
DOCKED: REMARK    7  A    between atoms: C_31  and  C_34 
DOCKED: REMARK    8  A    between atoms: C_34  and  C_35 
DOCKED: REMARK    9  A    between atoms: C_35  and  C_36 
DOCKED: REMARK   10  A    between atoms: C_36  and  O_38 
DOCKED: REMARK   11  A    between atoms: FE_43  and  C_44 
DOCKED: REMARK   12  A    between atoms: C_44  and  O_45 
DOCKED: USER                              x       y       z     vdW  Elec       q    Type
DOCKED: USER                           _______ _______ _______ _____ _____    ______ ____
DOCKED: ROOT
DOCKED: ATOM      1  C   UNL d   1      33.832  30.230  -0.439 -0.06 +0.01    +0.064 A 
DOCKED: ATOM      2  C   UNL d   1      37.966  32.441  -1.236 -0.08 -0.00    +0.064 C 
DOCKED: ATOM      3  C   UNL d   1      40.300  28.287  -0.877 -0.06 -0.00    +0.064 A 
DOCKED: ATOM      4  C   UNL d   1      36.054  25.953  -0.446 -0.11 -0.01    +0.064 A 
DOCKED: ATOM      5  C   UNL d   1      34.794  31.144  -0.647 -0.04 +0.01    +0.066 A 
DOCKED: ATOM      6  C   UNL d   1      34.497  32.501  -0.879 -0.02 -0.00    -0.021 A 
DOCKED: ATOM      7  C   UNL d   1      35.698  33.134  -1.132 -0.03 -0.00    -0.025 A 
DOCKED: ATOM      8  C   UNL d   1      36.677  32.140  -1.028 -0.05 +0.00    +0.066 A 
DOCKED: ATOM      9  C   UNL d   1      35.932  34.616  -1.461 -0.04 +0.00    +0.051 C 
DOCKED: ATOM     10  C   UNL d   1      39.044  31.491  -1.125 -0.12 -0.00    +0.066 A 
DOCKED: ATOM     11  C   UNL d   1      40.426  31.772  -1.193 -0.19 +0.00    -0.021 A 
DOCKED: ATOM     12  C   UNL d   1      41.084  30.544  -1.081 -0.27 -0.00    +0.000 A 
DOCKED: ATOM     13  C   UNL d   1      40.058  29.609  -0.941 -0.21 -0.00    +0.070 A 
DOCKED: ATOM     14  C   UNL d   1      41.056  33.140  -1.262 -0.20 -0.00    +0.052 C 
DOCKED: ATOM     15  C   UNL d   1      39.364  27.184  -0.785 -0.21 +0.00    +0.066 A 
DOCKED: ATOM     16  C   UNL d   1      39.672  25.834  -0.869 -0.21 +0.00    -0.021 A 
DOCKED: ATOM     17  C   UNL d   1      38.450  25.157  -0.747 -0.16 -0.00    +0.000 A 
DOCKED: ATOM     18  C   UNL d   1      37.492  26.151  -0.581 -0.11 -0.00    +0.070 A 
DOCKED: ATOM     19  C   UNL d   1      41.059  25.261  -1.055 -0.20 +0.00    +0.052 C 
DOCKED: ATOM     20  C   UNL d   1      35.094  26.906  -0.370 -0.13 -0.00    +0.066 A 
DOCKED: ATOM     21  C   UNL d   1      33.740  26.592  -0.278 -0.15 +0.00    -0.025 A 
DOCKED: ATOM     22  C   UNL d   1      33.077  27.806  -0.246 -0.12 -0.00    -0.021 A 
DOCKED: ATOM     23  C   UNL d   1      34.067  28.808  -0.332 -0.10 +0.01    +0.066 A 
DOCKED: ATOM     24  C   UNL d   1      33.106  25.204  -0.244 -0.14 -0.01    +0.051 C 
DOCKED: ATOM     25  N   UNL d   1      36.146  30.898  -0.722 -0.03 -0.01    -0.248 N 
DOCKED: ATOM     26  N   UNL d   1      38.829  30.189  -0.911 -0.10 +0.01    -0.248 N 
DOCKED: ATOM     27  N   UNL d   1      38.068  27.346  -0.639 -0.12 +0.00    -0.248 N 
DOCKED: ATOM     28  N   UNL d   1      35.289  28.268  -0.410 -0.08 -0.01    -0.248 N 
DOCKED: ATOM     29 FE   UNL d   1      37.161  29.016  -0.677 -0.03 +0.00    +0.000 Fe
DOCKED: ENDROOT
DOCKED: BRANCH   6  30
DOCKED: ATOM     30  C   UNL d   1      33.110  33.133  -0.933 -0.02 +0.01    +0.052 C 
DOCKED: BRANCH  30  31
DOCKED: ATOM     31  C   UNL d   1      32.496  33.201   0.465 -0.07 +0.05    +0.115 C 
DOCKED: BRANCH  31  32
DOCKED: ATOM     32  C   UNL d   1      31.007  32.927   0.455 +0.04 +0.14    +0.139 C 
DOCKED: ATOM     33  O   UNL d   1      30.588  31.900  -0.058 -0.32 -0.97    -0.650 OA
DOCKED: BRANCH  32  34
DOCKED: ATOM     34  O   UNL d   1      30.120  33.764   1.041 -0.08 -0.80    -0.776 OA
DOCKED: ATOM     35  H   UNL d   1      30.095  34.720   0.895 +0.03 +0.09    +0.167 HD
DOCKED: ENDBRANCH  32  34
DOCKED: ENDBRANCH  31  32
DOCKED: ENDBRANCH  30  31
DOCKED: ENDBRANCH   6  30
DOCKED: BRANCH  29  36
DOCKED: ATOM     36  C   UNL d   1      36.911  28.959  -2.758 -0.02 +0.00    +0.190 C 
DOCKED: BRANCH  36  37
DOCKED: ATOM     37  O   UNL d   1      36.396  29.682  -3.839 -0.00 -0.01    -0.399 OA
DOCKED: ATOM     38  H   UNL d   1      35.884  30.432  -3.425 +0.00 +0.01    +0.209 HD
DOCKED: ENDBRANCH  36  37
DOCKED: ENDBRANCH  29  36
DOCKED: BRANCH  22  39
DOCKED: ATOM     39  C   UNL d   1      31.571  27.984  -0.200 -0.11 +0.02    +0.052 C 
DOCKED: BRANCH  39  40
DOCKED: ATOM     40  C   UNL d   1      30.980  27.291   1.038 -0.16 +0.04    +0.115 C 
DOCKED: BRANCH  40  41
DOCKED: ATOM     41  C   UNL d   1      29.844  28.047   1.695 -0.16 +0.13    +0.139 C 
DOCKED: ATOM     42  O   UNL d   1      29.865  28.226   2.905 -0.22 -0.69    -0.650 OA
DOCKED: BRANCH  41  43
DOCKED: ATOM     43  O   UNL d   1      28.850  28.606   0.970 -0.30 -1.06    -0.776 OA
DOCKED: ATOM     44  H   UNL d   1      28.319  28.100   0.340 +0.04 +0.09    +0.167 HD
DOCKED: ENDBRANCH  41  43
DOCKED: ENDBRANCH  40  41
DOCKED: ENDBRANCH  39  40
DOCKED: ENDBRANCH  22  39
DOCKED: BRANCH  12  45
DOCKED: ATOM     45  C   UNL d   1      42.555  30.151  -1.072 -0.42 -0.00    +0.004 C 
DOCKED: ATOM     46  C   UNL d   1      43.620  30.795  -0.603 -0.46 -0.00    +0.012 C 
DOCKED: ENDBRANCH  12  45
DOCKED: BRANCH  17  47
DOCKED: ATOM     47  C   UNL d   1      38.158  23.694  -0.828 -0.11 -0.00    +0.004 C 
DOCKED: ATOM     48  C   UNL d   1      37.665  22.984   0.190 -0.15 -0.00    +0.012 C 
DOCKED: ENDBRANCH  17  47
DOCKED: TORSDOF 12
DOCKED: TER
DOCKED: ENDMDL
________________________________________________________________________________


	BEGINNING GENETIC ALGORITHM DOCKING 93 of 100
Run: 93 Seed: 1887802378 398339154 [ Run 93 of 100 GA/GALS ]
Beginning LAMARCKIAN GENETIC ALGORITHM (LGA), with a maximum of 25000000 energy evaluations.

Final-Value: -15.077


	FINAL GENETIC ALGORITHM DOCKED STATE
	_______________________________________________


Detailed state:  trans 45.570 27.636 17.966 quatxyzw 0.243546 -0.350003 -0.904381 -0.016681 center 8.781 34.984 -0.736 ntor 12 29.6574 109.9130 -126.8597 48.8554 104.4301 117.3381 31.7265 124.2267 -178.6007 134.9214 -177.1912 172.2949
State:	 45.570  27.636  17.966   0.244 -0.350 -0.905 -178.088     29.66  109.91 -126.86   48.86  104.43  117.34   31.73  124.23 -178.60  134.92 -177.19  172.29

DOCKED: MODEL       93
DOCKED: USER    Run = 93
DOCKED: USER    DPF = D:/Protein_go_brrr/autodock/final/6BB5/heme_Co/dock.dpf
DOCKED: USER  
DOCKED: USER    Estimated Free Energy of Binding    =   -7.79 kcal/mol  [=(1)+(2)+(3)-(4)]
DOCKED: USER    Estimated Inhibition Constant, Ki   =    1.96 uM (micromolar)  [Temperature = 298.15 K]
DOCKED: USER    
DOCKED: USER    (1) Final Intermolecular Energy     =  -11.37 kcal/mol
DOCKED: USER        vdW + Hbond + desolv Energy     =   -9.02 kcal/mol
DOCKED: USER        Electrostatic Energy            =   -2.35 kcal/mol
DOCKED: USER    (2) Final Total Internal Energy     =   -3.71 kcal/mol
DOCKED: USER    (3) Torsional Free Energy           =   +3.58 kcal/mol
DOCKED: USER    (4) Unbound System's Energy  [=(2)] =   -3.71 kcal/mol
DOCKED: USER    
DOCKED: USER    
DOCKED: USER    NEWDPF move heme_Co_opt.pdbqt
DOCKED: USER    NEWDPF about 8.781000 34.984000 -0.736000
DOCKED: USER    NEWDPF tran0 45.570272 27.635814 17.966422
DOCKED: USER    NEWDPF quaternion0 0.243546 -0.350003 -0.904381 -0.016681
DOCKED: USER    NEWDPF axisangle0 0.243580 -0.350051 -0.904507 -178.088450
DOCKED: USER    NEWDPF quat0 0.243580 -0.350051 -0.904507 -178.088450
DOCKED: USER    NEWDPF dihe0 29.66 109.91 -126.86 48.86 104.43 117.34 31.73 124.23 -178.60 134.92 -177.19 172.29 
DOCKED: USER  keepresnum = 1 
DOCKED: USER  
DOCKED: REMARK  12 active torsions:
DOCKED: REMARK  status: ('A' for Active; 'I' for Inactive)
DOCKED: REMARK    1  A    between atoms: C_6  and  C_10 
DOCKED: REMARK    2  A    between atoms: C_10  and  C_11 
DOCKED: REMARK    3  A    between atoms: C_11  and  C_12 
DOCKED: REMARK    4  A    between atoms: C_12  and  O_14 
DOCKED: REMARK    5  A    between atoms: C_17  and  C_20 
DOCKED: REMARK    6  A    between atoms: C_24  and  C_27 
DOCKED: REMARK    7  A    between atoms: C_31  and  C_34 
DOCKED: REMARK    8  A    between atoms: C_34  and  C_35 
DOCKED: REMARK    9  A    between atoms: C_35  and  C_36 
DOCKED: REMARK   10  A    between atoms: C_36  and  O_38 
DOCKED: REMARK   11  A    between atoms: FE_43  and  C_44 
DOCKED: REMARK   12  A    between atoms: C_44  and  O_45 
DOCKED: USER                              x       y       z     vdW  Elec       q    Type
DOCKED: USER                           _______ _______ _______ _____ _____    ______ ____
DOCKED: ROOT
DOCKED: ATOM      1  C   UNL d   1      47.589  27.116  18.575 -0.08 +0.03    +0.064 A 
DOCKED: ATOM      2  C   UNL d   1      45.164  31.205  18.707 -0.24 +0.02    +0.064 C 
DOCKED: ATOM      3  C   UNL d   1      41.508  29.154  16.415 -0.20 +0.02    +0.064 A 
DOCKED: ATOM      4  C   UNL d   1      43.805  24.870  16.611 -0.18 +0.02    +0.064 A 
DOCKED: ATOM      5  C   UNL d   1      47.210  28.393  18.747 -0.09 +0.03    +0.066 A 
DOCKED: ATOM      6  C   UNL d   1      48.000  29.318  19.458 -0.07 -0.01    -0.021 A 
DOCKED: ATOM      7  C   UNL d   1      47.281  30.497  19.512 -0.10 -0.01    -0.025 A 
DOCKED: ATOM      8  C   UNL d   1      46.092  30.246  18.820 -0.15 +0.03    +0.066 A 
DOCKED: ATOM      9  C   UNL d   1      47.685  31.816  20.188 -0.08 +0.02    +0.051 C 
DOCKED: ATOM     10  C   UNL d   1      43.923  31.047  17.991 -0.27 +0.02    +0.066 A 
DOCKED: ATOM     11  C   UNL d   1      42.973  32.055  17.716 -0.37 -0.00    -0.021 A 
DOCKED: ATOM     12  C   UNL d   1      41.919  31.430  17.044 -0.43 +0.00    +0.000 A 
DOCKED: ATOM     13  C   UNL d   1      42.309  30.094  16.946 -0.32 +0.01    +0.070 A 
DOCKED: ATOM     14  C   UNL d   1      43.127  33.527  18.002 -0.38 +0.00    +0.052 C 
DOCKED: ATOM     15  C   UNL d   1      41.727  27.727  16.283 -0.28 +0.01    +0.066 A 
DOCKED: ATOM     16  C   UNL d   1      40.799  26.787  15.856 -0.40 -0.00    -0.021 A 
DOCKED: ATOM     17  C   UNL d   1      41.456  25.550  15.913 -0.41 +0.00    +0.000 A 
DOCKED: ATOM     18  C   UNL d   1      42.743  25.835  16.356 -0.28 +0.02    +0.070 A 
DOCKED: ATOM     19  C   UNL d   1      39.380  27.089  15.428 -0.43 +0.01    +0.052 C 
DOCKED: ATOM     20  C   UNL d   1      45.035  25.114  17.123 -0.20 +0.03    +0.066 A 
DOCKED: ATOM     21  C   UNL d   1      45.958  24.097  17.357 -0.18 -0.01    -0.025 A 
DOCKED: ATOM     22  C   UNL d   1      47.069  24.718  17.896 -0.13 -0.01    -0.021 A 
DOCKED: ATOM     23  C   UNL d   1      46.763  26.093  17.976 -0.12 +0.03    +0.066 A 
DOCKED: ATOM     24  C   UNL d   1      45.783  22.602  17.098 -0.21 +0.03    +0.051 C 
DOCKED: ATOM     25  N   UNL d   1      46.023  28.952  18.330 -0.08 -0.10    -0.248 N 
DOCKED: ATOM     26  N   UNL d   1      43.545  29.875  17.469 -0.18 -0.07    -0.248 N 
DOCKED: ATOM     27  N   UNL d   1      42.860  27.137  16.595 -0.21 -0.06    -0.248 N 
DOCKED: ATOM     28  N   UNL d   1      45.531  26.336  17.511 -0.11 -0.10    -0.248 N 
DOCKED: ATOM     29 FE   UNL d   1      44.350  27.988  17.410 -0.06 +0.00    +0.000 Fe
DOCKED: ENDROOT
DOCKED: BRANCH   6  30
DOCKED: ATOM     30  C   UNL d   1      49.346  29.045  20.120 -0.03 +0.02    +0.052 C 
DOCKED: BRANCH  30  31
DOCKED: ATOM     31  C   UNL d   1      49.154  28.657  21.586 -0.03 +0.06    +0.115 C 
DOCKED: BRANCH  31  32
DOCKED: ATOM     32  C   UNL d   1      47.698  28.657  21.998 -0.04 +0.15    +0.139 C 
DOCKED: ATOM     33  O   UNL d   1      47.236  29.630  22.574 -0.04 -0.81    -0.650 OA
DOCKED: BRANCH  32  34
DOCKED: ATOM     34  O   UNL d   1      46.870  27.627  21.705 -0.51 -1.24    -0.776 OA
DOCKED: ATOM     35  H   UNL d   1      47.164  26.718  21.556 +0.02 +0.18    +0.167 HD
DOCKED: ENDBRANCH  32  34
DOCKED: ENDBRANCH  31  32
DOCKED: ENDBRANCH  30  31
DOCKED: ENDBRANCH   6  30
DOCKED: BRANCH  29  36
DOCKED: ATOM     36  C   UNL d   1      43.637  27.626  19.348 +0.27 +0.11    +0.190 C 
DOCKED: BRANCH  36  37
DOCKED: ATOM     37  O   UNL d   1      44.050  27.295  20.643 -0.31 -0.47    -0.399 OA
DOCKED: ATOM     38  H   UNL d   1      45.035  27.156  20.571 +0.06 +0.24    +0.209 HD
DOCKED: ENDBRANCH  36  37
DOCKED: ENDBRANCH  29  36
DOCKED: BRANCH  22  39
DOCKED: ATOM     39  C   UNL d   1      48.329  24.015  18.368 -0.10 +0.04    +0.052 C 
DOCKED: BRANCH  39  40
DOCKED: ATOM     40  C   UNL d   1      48.176  23.547  19.824 -0.02 +0.06    +0.115 C 
DOCKED: BRANCH  40  41
DOCKED: ATOM     41  C   UNL d   1      47.699  24.621  20.779 -0.01 +0.07    +0.139 C 
DOCKED: ATOM     42  O   UNL d   1      48.518  25.227  21.456 +0.02 -0.33    -0.650 OA
DOCKED: BRANCH  41  43
DOCKED: ATOM     43  O   UNL d   1      46.401  24.991  20.840 +0.07 -0.51    -0.776 OA
DOCKED: ATOM     44  H   UNL d   1      46.110  25.896  20.667 +0.04 +0.14    +0.167 HD
DOCKED: ENDBRANCH  41  43
DOCKED: ENDBRANCH  40  41
DOCKED: ENDBRANCH  39  40
DOCKED: ENDBRANCH  22  39
DOCKED: BRANCH  12  45
DOCKED: ATOM     45  C   UNL d   1      40.606  31.942  16.468 -0.48 +0.00    +0.004 C 
DOCKED: ATOM     46  C   UNL d   1      40.329  33.062  15.805 -0.52 +0.00    +0.012 C 
DOCKED: ENDBRANCH  12  45
DOCKED: BRANCH  17  47
DOCKED: ATOM     47  C   UNL d   1      40.935  24.179  15.631 -0.53 +0.00    +0.004 C 
DOCKED: ATOM     48  C   UNL d   1      40.848  23.661  14.404 -0.61 +0.00    +0.012 C 
DOCKED: ENDBRANCH  17  47
DOCKED: TORSDOF 12
DOCKED: TER
DOCKED: ENDMDL
________________________________________________________________________________


	BEGINNING GENETIC ALGORITHM DOCKING 94 of 100
Run: 94 Seed: 1933552555 408733874 [ Run 94 of 100 GA/GALS ]
Beginning LAMARCKIAN GENETIC ALGORITHM (LGA), with a maximum of 25000000 energy evaluations.

Final-Value: -10.003


	FINAL GENETIC ALGORITHM DOCKED STATE
	_______________________________________________


Detailed state:  trans 19.809 45.929 -5.167 quatxyzw -0.692925 -0.316662 -0.173707 -0.624024 center 8.781 34.984 -0.736 ntor 12 -175.1240 119.1429 66.2343 118.4424 145.5814 130.2320 43.1377 138.5483 167.5571 -4.4386 -161.2557 178.1966
State:	 19.809  45.929  -5.167  -0.887 -0.405 -0.222 -102.779   -175.12  119.14   66.23  118.44  145.58  130.23   43.14  138.55  167.56   -4.44 -161.26  178.20

DOCKED: MODEL       94
DOCKED: USER    Run = 94
DOCKED: USER    DPF = D:/Protein_go_brrr/autodock/final/6BB5/heme_Co/dock.dpf
DOCKED: USER  
DOCKED: USER    Estimated Free Energy of Binding    =   -4.23 kcal/mol  [=(1)+(2)+(3)-(4)]
DOCKED: USER    Estimated Inhibition Constant, Ki   =  799.76 uM (micromolar)  [Temperature = 298.15 K]
DOCKED: USER    
DOCKED: USER    (1) Final Intermolecular Energy     =   -7.80 kcal/mol
DOCKED: USER        vdW + Hbond + desolv Energy     =   -7.31 kcal/mol
DOCKED: USER        Electrostatic Energy            =   -0.49 kcal/mol
DOCKED: USER    (2) Final Total Internal Energy     =   -2.20 kcal/mol
DOCKED: USER    (3) Torsional Free Energy           =   +3.58 kcal/mol
DOCKED: USER    (4) Unbound System's Energy  [=(2)] =   -2.20 kcal/mol
DOCKED: USER    
DOCKED: USER    
DOCKED: USER    NEWDPF move heme_Co_opt.pdbqt
DOCKED: USER    NEWDPF about 8.781000 34.984000 -0.736000
DOCKED: USER    NEWDPF tran0 19.808899 45.929305 -5.166985
DOCKED: USER    NEWDPF quaternion0 -0.692925 -0.316662 -0.173707 -0.624024
DOCKED: USER    NEWDPF axisangle0 -0.886768 -0.405247 -0.222301 -102.778836
DOCKED: USER    NEWDPF quat0 -0.886768 -0.405247 -0.222301 -102.778836
DOCKED: USER    NEWDPF dihe0 -175.12 119.14 66.23 118.44 145.58 130.23 43.14 138.55 167.56 -4.44 -161.26 178.20 
DOCKED: USER  keepresnum = 1 
DOCKED: USER  
DOCKED: REMARK  12 active torsions:
DOCKED: REMARK  status: ('A' for Active; 'I' for Inactive)
DOCKED: REMARK    1  A    between atoms: C_6  and  C_10 
DOCKED: REMARK    2  A    between atoms: C_10  and  C_11 
DOCKED: REMARK    3  A    between atoms: C_11  and  C_12 
DOCKED: REMARK    4  A    between atoms: C_12  and  O_14 
DOCKED: REMARK    5  A    between atoms: C_17  and  C_20 
DOCKED: REMARK    6  A    between atoms: C_24  and  C_27 
DOCKED: REMARK    7  A    between atoms: C_31  and  C_34 
DOCKED: REMARK    8  A    between atoms: C_34  and  C_35 
DOCKED: REMARK    9  A    between atoms: C_35  and  C_36 
DOCKED: REMARK   10  A    between atoms: C_36  and  O_38 
DOCKED: REMARK   11  A    between atoms: FE_43  and  C_44 
DOCKED: REMARK   12  A    between atoms: C_44  and  O_45 
DOCKED: USER                              x       y       z     vdW  Elec       q    Type
DOCKED: USER                           _______ _______ _______ _____ _____    ______ ____
DOCKED: ROOT
DOCKED: ATOM      1  C   UNL d   1      18.837  44.661  -6.637 -0.21 +0.00    +0.064 A 
DOCKED: ATOM      2  C   UNL d   1      17.447  48.636  -4.430 -0.20 -0.01    +0.064 C 
DOCKED: ATOM      3  C   UNL d   1      21.413  48.589  -1.766 -0.17 -0.01    +0.064 A 
DOCKED: ATOM      4  C   UNL d   1      23.035  44.749  -4.273 -0.24 +0.00    +0.064 A 
DOCKED: ATOM      5  C   UNL d   1      18.149  45.730  -6.205 -0.27 -0.00    +0.066 A 
DOCKED: ATOM      6  C   UNL d   1      16.937  46.130  -6.801 -0.30 +0.00    -0.021 A 
DOCKED: ATOM      7  C   UNL d   1      16.550  47.297  -6.171 -0.23 +0.00    -0.025 A 
DOCKED: ATOM      8  C   UNL d   1      17.532  47.550  -5.208 -0.20 -0.01    +0.066 A 
DOCKED: ATOM      9  C   UNL d   1      15.306  48.152  -6.455 -0.22 -0.01    +0.051 C 
DOCKED: ATOM     10  C   UNL d   1      18.395  48.964  -3.395 -0.00 -0.02    +0.066 A 
DOCKED: ATOM     11  C   UNL d   1      18.288  50.011  -2.453 -0.25 +0.01    -0.021 A 
DOCKED: ATOM     12  C   UNL d   1      19.456  49.971  -1.686 -0.26 -0.00    +0.000 A 
DOCKED: ATOM     13  C   UNL d   1      20.181  48.900  -2.207 -0.15 -0.02    +0.070 A 
DOCKED: ATOM     14  C   UNL d   1      17.098  50.913  -2.254 -0.30 -0.01    +0.052 C 
DOCKED: ATOM     15  C   UNL d   1      22.320  47.555  -2.223 -0.16 -0.00    +0.066 A 
DOCKED: ATOM     16  C   UNL d   1      23.637  47.379  -1.823 -0.12 -0.00    -0.021 A 
DOCKED: ATOM     17  C   UNL d   1      24.110  46.274  -2.545 -0.14 +0.00    +0.000 A 
DOCKED: ATOM     18  C   UNL d   1      23.035  45.851  -3.319 -0.21 +0.00    +0.070 A 
DOCKED: ATOM     19  C   UNL d   1      24.368  48.234  -0.812 -0.10 +0.00    +0.052 C 
DOCKED: ATOM     20  C   UNL d   1      22.030  44.373  -5.099 -0.24 +0.00    +0.066 A 
DOCKED: ATOM     21  C   UNL d   1      22.162  43.318  -5.999 -0.22 -0.00    -0.025 A 
DOCKED: ATOM     22  C   UNL d   1      20.957  43.251  -6.675 -0.29 -0.00    -0.021 A 
DOCKED: ATOM     23  C   UNL d   1      20.147  44.284  -6.157 -0.31 +0.00    +0.066 A 
DOCKED: ATOM     24  C   UNL d   1      23.383  42.430  -6.220 -0.17 +0.01    +0.051 C 
DOCKED: ATOM     25  N   UNL d   1      18.532  46.592  -5.202 -0.17 +0.03    -0.248 N 
DOCKED: ATOM     26  N   UNL d   1      19.514  48.257  -3.203 -0.04 +0.08    -0.248 N 
DOCKED: ATOM     27  N   UNL d   1      21.995  46.655  -3.125 -0.16 +0.01    -0.248 N 
DOCKED: ATOM     28  N   UNL d   1      20.794  44.967  -5.205 -0.19 +0.00    -0.248 N 
DOCKED: ATOM     29 FE   UNL d   1      20.367  46.622  -4.103 -0.05 -0.00    +0.000 Fe
DOCKED: ENDROOT
DOCKED: BRANCH   6  30
DOCKED: ATOM     30  C   UNL d   1      16.236  45.458  -7.977 -0.33 -0.01    +0.052 C 
DOCKED: BRANCH  30  31
DOCKED: ATOM     31  C   UNL d   1      16.930  45.814  -9.291 -0.15 -0.01    +0.115 C 
DOCKED: BRANCH  31  32
DOCKED: ATOM     32  C   UNL d   1      17.882  46.982  -9.143 -0.05 -0.00    +0.139 C 
DOCKED: ATOM     33  O   UNL d   1      17.456  48.122  -9.253 +0.03 +0.03    -0.650 OA
DOCKED: BRANCH  32  34
DOCKED: ATOM     34  O   UNL d   1      19.190  46.808  -8.842 +0.05 -0.01    -0.776 OA
DOCKED: ATOM     35  H   UNL d   1      19.823  47.530  -8.730 +0.01 +0.00    +0.167 HD
DOCKED: ENDBRANCH  32  34
DOCKED: ENDBRANCH  31  32
DOCKED: ENDBRANCH  30  31
DOCKED: ENDBRANCH   6  30
DOCKED: BRANCH  29  36
DOCKED: ATOM     36  C   UNL d   1      21.125  47.855  -5.620 -0.03 -0.01    +0.190 C 
DOCKED: BRANCH  36  37
DOCKED: ATOM     37  O   UNL d   1      20.962  48.192  -6.968 +0.00 +0.01    -0.399 OA
DOCKED: ATOM     38  H   UNL d   1      20.146  47.696  -7.259 +0.03 -0.00    +0.209 HD
DOCKED: ENDBRANCH  36  37
DOCKED: ENDBRANCH  29  36
DOCKED: BRANCH  22  39
DOCKED: ATOM     39  C   UNL d   1      20.632  42.286  -7.800 -0.04 +0.02    +0.052 C 
DOCKED: BRANCH  39  40
DOCKED: ATOM     40  C   UNL d   1      21.217  42.788  -9.131 -0.12 +0.03    +0.115 C 
DOCKED: BRANCH  40  41
DOCKED: ATOM     41  C   UNL d   1      21.152  41.782 -10.260 -0.06 +0.06    +0.139 C 
DOCKED: ATOM     42  O   UNL d   1      22.024  40.929 -10.353 -0.01 -0.22    -0.650 OA
DOCKED: BRANCH  41  43
DOCKED: ATOM     43  O   UNL d   1      20.109  41.744 -11.119 -0.08 -0.52    -0.776 OA
DOCKED: ATOM     44  H   UNL d   1      19.972  42.417 -11.799 +0.01 +0.07    +0.167 HD
DOCKED: ENDBRANCH  41  43
DOCKED: ENDBRANCH  40  41
DOCKED: ENDBRANCH  39  40
DOCKED: ENDBRANCH  22  39
DOCKED: BRANCH  12  45
DOCKED: ATOM     45  C   UNL d   1      19.958  50.806  -0.516 -0.30 -0.00    +0.004 C 
DOCKED: ATOM     46  C   UNL d   1      20.113  50.493   0.768 -0.37 -0.00    +0.012 C 
DOCKED: ENDBRANCH  12  45
DOCKED: BRANCH  17  47
DOCKED: ATOM     47  C   UNL d   1      25.473  45.665  -2.572 -0.14 +0.00    +0.004 C 
DOCKED: ATOM     48  C   UNL d   1      25.712  44.380  -2.298 -0.21 +0.00    +0.012 C 
DOCKED: ENDBRANCH  17  47
DOCKED: TORSDOF 12
DOCKED: TER
DOCKED: ENDMDL
________________________________________________________________________________


	BEGINNING GENETIC ALGORITHM DOCKING 95 of 100
Run: 95 Seed: 1411166632 706608797 [ Run 95 of 100 GA/GALS ]
Beginning LAMARCKIAN GENETIC ALGORITHM (LGA), with a maximum of 25000000 energy evaluations.

Final-Value: -14.430


	FINAL GENETIC ALGORITHM DOCKED STATE
	_______________________________________________


Detailed state:  trans 45.582 27.644 18.020 quatxyzw -0.252651 0.352582 0.900903 0.015056 center 8.781 34.984 -0.736 ntor 12 19.4362 91.2864 71.5571 43.6959 98.8428 146.7356 -135.5179 -151.6950 155.9536 57.0673 -154.7182 27.4428
State:	 45.582  27.644  18.020  -0.253  0.353  0.901 178.275     19.44   91.29   71.56   43.70   98.84  146.74 -135.52 -151.70  155.95   57.07 -154.72   27.44

DOCKED: MODEL       95
DOCKED: USER    Run = 95
DOCKED: USER    DPF = D:/Protein_go_brrr/autodock/final/6BB5/heme_Co/dock.dpf
DOCKED: USER  
DOCKED: USER    Estimated Free Energy of Binding    =   -9.17 kcal/mol  [=(1)+(2)+(3)-(4)]
DOCKED: USER    Estimated Inhibition Constant, Ki   =  189.49 nM (nanomolar)  [Temperature = 298.15 K]
DOCKED: USER    
DOCKED: USER    (1) Final Intermolecular Energy     =  -12.75 kcal/mol
DOCKED: USER        vdW + Hbond + desolv Energy     =   -9.45 kcal/mol
DOCKED: USER        Electrostatic Energy            =   -3.30 kcal/mol
DOCKED: USER    (2) Final Total Internal Energy     =   -1.68 kcal/mol
DOCKED: USER    (3) Torsional Free Energy           =   +3.58 kcal/mol
DOCKED: USER    (4) Unbound System's Energy  [=(2)] =   -1.68 kcal/mol
DOCKED: USER    
DOCKED: USER    
DOCKED: USER    NEWDPF move heme_Co_opt.pdbqt
DOCKED: USER    NEWDPF about 8.781000 34.984000 -0.736000
DOCKED: USER    NEWDPF tran0 45.581832 27.643935 18.019886
DOCKED: USER    NEWDPF quaternion0 -0.252651 0.352582 0.900903 0.015056
DOCKED: USER    NEWDPF axisangle0 -0.252680 0.352622 0.901005 178.274658
DOCKED: USER    NEWDPF quat0 -0.252680 0.352622 0.901005 178.274658
DOCKED: USER    NEWDPF dihe0 19.44 91.29 71.56 43.70 98.84 146.74 -135.52 -151.70 155.95 57.07 -154.72 27.44 
DOCKED: USER  keepresnum = 1 
DOCKED: USER  
DOCKED: REMARK  12 active torsions:
DOCKED: REMARK  status: ('A' for Active; 'I' for Inactive)
DOCKED: REMARK    1  A    between atoms: C_6  and  C_10 
DOCKED: REMARK    2  A    between atoms: C_10  and  C_11 
DOCKED: REMARK    3  A    between atoms: C_11  and  C_12 
DOCKED: REMARK    4  A    between atoms: C_12  and  O_14 
DOCKED: REMARK    5  A    between atoms: C_17  and  C_20 
DOCKED: REMARK    6  A    between atoms: C_24  and  C_27 
DOCKED: REMARK    7  A    between atoms: C_31  and  C_34 
DOCKED: REMARK    8  A    between atoms: C_34  and  C_35 
DOCKED: REMARK    9  A    between atoms: C_35  and  C_36 
DOCKED: REMARK   10  A    between atoms: C_36  and  O_38 
DOCKED: REMARK   11  A    between atoms: FE_43  and  C_44 
DOCKED: REMARK   12  A    between atoms: C_44  and  O_45 
DOCKED: USER                              x       y       z     vdW  Elec       q    Type
DOCKED: USER                           _______ _______ _______ _____ _____    ______ ____
DOCKED: ROOT
DOCKED: ATOM      1  C   UNL d   1      47.590  27.133  18.671 -0.08 +0.03    +0.064 A 
DOCKED: ATOM      2  C   UNL d   1      45.154  31.216  18.731 -0.25 +0.02    +0.064 C 
DOCKED: ATOM      3  C   UNL d   1      41.547  29.143  16.381 -0.22 +0.02    +0.064 A 
DOCKED: ATOM      4  C   UNL d   1      43.850  24.866  16.647 -0.19 +0.02    +0.064 A 
DOCKED: ATOM      5  C   UNL d   1      47.204  28.410  18.828 -0.09 +0.03    +0.066 A 
DOCKED: ATOM      6  C   UNL d   1      47.978  29.341  19.548 -0.07 -0.01    -0.021 A 
DOCKED: ATOM      7  C   UNL d   1      47.256  30.518  19.582 -0.10 -0.01    -0.025 A 
DOCKED: ATOM      8  C   UNL d   1      46.081  30.260  18.867 -0.15 +0.03    +0.066 A 
DOCKED: ATOM      9  C   UNL d   1      47.644  31.842  20.257 -0.09 +0.02    +0.051 C 
DOCKED: ATOM     10  C   UNL d   1      43.927  31.051  17.992 -0.27 +0.02    +0.066 A 
DOCKED: ATOM     11  C   UNL d   1      42.980  32.055  17.693 -0.37 -0.00    -0.021 A 
DOCKED: ATOM     12  C   UNL d   1      41.941  31.424  17.004 -0.43 +0.00    +0.000 A 
DOCKED: ATOM     13  C   UNL d   1      42.335  30.088  16.922 -0.32 +0.01    +0.070 A 
DOCKED: ATOM     14  C   UNL d   1      43.125  33.529  17.972 -0.37 +0.00    +0.052 C 
DOCKED: ATOM     15  C   UNL d   1      41.772  27.716  16.261 -0.29 +0.01    +0.066 A 
DOCKED: ATOM     16  C   UNL d   1      40.854  26.772  15.822 -0.40 -0.00    -0.021 A 
DOCKED: ATOM     17  C   UNL d   1      41.513  25.536  15.899 -0.40 +0.00    +0.000 A 
DOCKED: ATOM     18  C   UNL d   1      42.791  25.827  16.365 -0.28 +0.02    +0.070 A 
DOCKED: ATOM     19  C   UNL d   1      39.443  27.067  15.365 -0.43 +0.01    +0.052 C 
DOCKED: ATOM     20  C   UNL d   1      45.069  25.116  17.181 -0.20 +0.03    +0.066 A 
DOCKED: ATOM     21  C   UNL d   1      45.989  24.102  17.439 -0.17 -0.01    -0.025 A 
DOCKED: ATOM     22  C   UNL d   1      47.089  24.729  17.996 -0.12 -0.01    -0.021 A 
DOCKED: ATOM     23  C   UNL d   1      46.777  26.104  18.062 -0.12 +0.03    +0.066 A 
DOCKED: ATOM     24  C   UNL d   1      45.822  22.606  17.187 -0.20 +0.03    +0.051 C 
DOCKED: ATOM     25  N   UNL d   1      46.025  28.964  18.384 -0.08 -0.10    -0.248 N 
DOCKED: ATOM     26  N   UNL d   1      43.561  29.875  17.470 -0.18 -0.07    -0.248 N 
DOCKED: ATOM     27  N   UNL d   1      42.899  27.131  16.599 -0.21 -0.06    -0.248 N 
DOCKED: ATOM     28  N   UNL d   1      45.555  26.342  17.572 -0.11 -0.10    -0.248 N 
DOCKED: ATOM     29 FE   UNL d   1      44.371  27.990  17.438 -0.06 +0.00    +0.000 Fe
DOCKED: ENDROOT
DOCKED: BRANCH   6  30
DOCKED: ATOM     30  C   UNL d   1      49.312  29.075  20.238 -0.03 +0.02    +0.052 C 
DOCKED: BRANCH  30  31
DOCKED: ATOM     31  C   UNL d   1      49.113  28.190  21.468 -0.03 +0.06    +0.115 C 
DOCKED: BRANCH  31  32
DOCKED: ATOM     32  C   UNL d   1      47.722  28.315  22.050 -0.02 +0.16    +0.139 C 
DOCKED: ATOM     33  O   UNL d   1      46.859  27.513  21.724 -0.52 -1.05    -0.650 OA
DOCKED: BRANCH  32  34
DOCKED: ATOM     34  O   UNL d   1      47.409  29.262  22.965 -0.12 -1.06    -0.776 OA
DOCKED: ATOM     35  H   UNL d   1      47.956  30.038  23.153 +0.01 +0.13    +0.167 HD
DOCKED: ENDBRANCH  32  34
DOCKED: ENDBRANCH  31  32
DOCKED: ENDBRANCH  30  31
DOCKED: ENDBRANCH   6  30
DOCKED: BRANCH  29  36
DOCKED: ATOM     36  C   UNL d   1      43.623  27.637  19.364 +0.29 +0.11    +0.190 C 
DOCKED: BRANCH  36  37
DOCKED: ATOM     37  O   UNL d   1      43.947  27.737  20.721 -0.38 -0.51    -0.399 OA
DOCKED: ATOM     38  H   UNL d   1      44.944  27.754  20.746 +0.05 +0.29    +0.209 HD
DOCKED: ENDBRANCH  36  37
DOCKED: ENDBRANCH  29  36
DOCKED: BRANCH  22  39
DOCKED: ATOM     39  C   UNL d   1      48.340  24.032  18.496 -0.09 +0.03    +0.052 C 
DOCKED: BRANCH  39  40
DOCKED: ATOM     40  C   UNL d   1      49.599  24.680  17.896 -0.11 +0.08    +0.115 C 
DOCKED: BRANCH  40  41
DOCKED: ATOM     41  C   UNL d   1      50.555  23.702  17.246 -0.04 +0.16    +0.139 C 
DOCKED: ATOM     42  O   UNL d   1      50.417  22.504  17.451 -0.11 -1.02    -0.650 OA
DOCKED: BRANCH  41  43
DOCKED: ATOM     43  O   UNL d   1      51.505  24.110  16.376 +0.00 -0.76    -0.776 OA
DOCKED: ATOM     44  H   UNL d   1      52.329  24.525  16.663 +0.01 +0.10    +0.167 HD
DOCKED: ENDBRANCH  41  43
DOCKED: ENDBRANCH  40  41
DOCKED: ENDBRANCH  39  40
DOCKED: ENDBRANCH  22  39
DOCKED: BRANCH  12  45
DOCKED: ATOM     45  C   UNL d   1      40.638  31.930  16.400 -0.49 +0.00    +0.004 C 
DOCKED: ATOM     46  C   UNL d   1      40.350  33.084  15.804 -0.53 +0.00    +0.012 C 
DOCKED: ENDBRANCH  12  45
DOCKED: BRANCH  17  47
DOCKED: ATOM     47  C   UNL d   1      41.000  24.163  15.616 -0.53 +0.00    +0.004 C 
DOCKED: ATOM     48  C   UNL d   1      40.838  23.676  14.384 -0.61 +0.00    +0.012 C 
DOCKED: ENDBRANCH  17  47
DOCKED: TORSDOF 12
DOCKED: TER
DOCKED: ENDMDL
________________________________________________________________________________


	BEGINNING GENETIC ALGORITHM DOCKING 96 of 100
Run: 96 Seed: 1474959784 127112964 [ Run 96 of 100 GA/GALS ]
Beginning LAMARCKIAN GENETIC ALGORITHM (LGA), with a maximum of 25000000 energy evaluations.

Final-Value: -9.896


	FINAL GENETIC ALGORITHM DOCKED STATE
	_______________________________________________


Detailed state:  trans 17.905 45.335 -7.594 quatxyzw -0.503452 0.219194 -0.147007 -0.822727 center 8.781 34.984 -0.736 ntor 12 60.4010 124.5746 132.6127 120.1443 139.3147 115.4675 26.1269 -34.0028 -171.0128 123.3876 -177.1791 -180.0000
State:	 17.905  45.335  -7.594  -0.886  0.386 -0.259 -69.283     60.40  124.57  132.61  120.14  139.31  115.47   26.13  -34.00 -171.01  123.39 -177.18 -180.00

DOCKED: MODEL       96
DOCKED: USER    Run = 96
DOCKED: USER    DPF = D:/Protein_go_brrr/autodock/final/6BB5/heme_Co/dock.dpf
DOCKED: USER  
DOCKED: USER    Estimated Free Energy of Binding    =   -3.01 kcal/mol  [=(1)+(2)+(3)-(4)]
DOCKED: USER    Estimated Inhibition Constant, Ki   =    6.19 mM (millimolar)  [Temperature = 298.15 K]
DOCKED: USER    
DOCKED: USER    (1) Final Intermolecular Energy     =   -6.59 kcal/mol
DOCKED: USER        vdW + Hbond + desolv Energy     =   -6.69 kcal/mol
DOCKED: USER        Electrostatic Energy            =   +0.10 kcal/mol
DOCKED: USER    (2) Final Total Internal Energy     =   -3.30 kcal/mol
DOCKED: USER    (3) Torsional Free Energy           =   +3.58 kcal/mol
DOCKED: USER    (4) Unbound System's Energy  [=(2)] =   -3.30 kcal/mol
DOCKED: USER    
DOCKED: USER    
DOCKED: USER    NEWDPF move heme_Co_opt.pdbqt
DOCKED: USER    NEWDPF about 8.781000 34.984000 -0.736000
DOCKED: USER    NEWDPF tran0 17.904780 45.334980 -7.593949
DOCKED: USER    NEWDPF quaternion0 -0.503452 0.219194 -0.147007 -0.822727
DOCKED: USER    NEWDPF axisangle0 -0.885677 0.385608 -0.258616 -69.282667
DOCKED: USER    NEWDPF quat0 -0.885677 0.385608 -0.258616 -69.282667
DOCKED: USER    NEWDPF dihe0 60.40 124.57 132.61 120.14 139.31 115.47 26.13 -34.00 -171.01 123.39 -177.18 -180.00 
DOCKED: USER  keepresnum = 1 
DOCKED: USER  
DOCKED: REMARK  12 active torsions:
DOCKED: REMARK  status: ('A' for Active; 'I' for Inactive)
DOCKED: REMARK    1  A    between atoms: C_6  and  C_10 
DOCKED: REMARK    2  A    between atoms: C_10  and  C_11 
DOCKED: REMARK    3  A    between atoms: C_11  and  C_12 
DOCKED: REMARK    4  A    between atoms: C_12  and  O_14 
DOCKED: REMARK    5  A    between atoms: C_17  and  C_20 
DOCKED: REMARK    6  A    between atoms: C_24  and  C_27 
DOCKED: REMARK    7  A    between atoms: C_31  and  C_34 
DOCKED: REMARK    8  A    between atoms: C_34  and  C_35 
DOCKED: REMARK    9  A    between atoms: C_35  and  C_36 
DOCKED: REMARK   10  A    between atoms: C_36  and  O_38 
DOCKED: REMARK   11  A    between atoms: FE_43  and  C_44 
DOCKED: REMARK   12  A    between atoms: C_44  and  O_45 
DOCKED: USER                              x       y       z     vdW  Elec       q    Type
DOCKED: USER                           _______ _______ _______ _____ _____    ______ ____
DOCKED: ROOT
DOCKED: ATOM      1  C   UNL d   1      15.818  45.805  -7.965 -0.22 -0.01    +0.064 A 
DOCKED: ATOM      2  C   UNL d   1      18.745  46.880  -4.375 -0.27 -0.01    +0.064 C 
DOCKED: ATOM      3  C   UNL d   1      22.176  44.180  -6.316 -0.15 +0.01    +0.064 A 
DOCKED: ATOM      4  C   UNL d   1      19.340  43.379 -10.186 -0.05 +0.02    +0.064 A 
DOCKED: ATOM      5  C   UNL d   1      16.353  46.268  -6.824 -0.30 -0.01    +0.066 A 
DOCKED: ATOM      6  C   UNL d   1      15.667  47.172  -5.989 -0.32 +0.00    -0.021 A 
DOCKED: ATOM      7  C   UNL d   1      16.530  47.498  -4.961 -0.29 +0.00    -0.025 A 
DOCKED: ATOM      8  C   UNL d   1      17.698  46.767  -5.203 -0.27 -0.01    +0.066 A 
DOCKED: ATOM      9  C   UNL d   1      16.279  48.459  -3.789 -0.33 -0.01    +0.051 C 
DOCKED: ATOM     10  C   UNL d   1      19.977  46.148  -4.529 -0.28 -0.01    +0.066 A 
DOCKED: ATOM     11  C   UNL d   1      21.058  46.115  -3.621 -0.29 +0.00    -0.021 A 
DOCKED: ATOM     12  C   UNL d   1      22.043  45.317  -4.210 -0.27 -0.00    +0.000 A 
DOCKED: ATOM     13  C   UNL d   1      21.487  44.914  -5.424 -0.21 +0.00    +0.070 A 
DOCKED: ATOM     14  C   UNL d   1      21.087  46.732  -2.246 -0.20 -0.01    +0.052 C 
DOCKED: ATOM     15  C   UNL d   1      21.779  43.722  -7.633 -0.11 +0.01    +0.066 A 
DOCKED: ATOM     16  C   UNL d   1      22.591  43.091  -8.564 -0.07 -0.00    -0.021 A 
DOCKED: ATOM     17  C   UNL d   1      21.778  42.860  -9.683 -0.09 +0.00    +0.000 A 
DOCKED: ATOM     18  C   UNL d   1      20.525  43.355  -9.338 -0.10 +0.02    +0.070 A 
DOCKED: ATOM     19  C   UNL d   1      24.050  42.746  -8.365 -0.04 +0.01    +0.052 C 
DOCKED: ATOM     20  C   UNL d   1      18.136  43.933  -9.904 -0.11 +0.01    +0.066 A 
DOCKED: ATOM     21  C   UNL d   1      17.083  43.924 -10.816 -0.17 -0.00    -0.025 A 
DOCKED: ATOM     22  C   UNL d   1      16.044  44.591 -10.192 -0.22 +0.00    -0.021 A 
DOCKED: ATOM     23  C   UNL d   1      16.523  44.987  -8.925 -0.25 -0.01    +0.066 A 
DOCKED: ATOM     24  C   UNL d   1      17.071  43.328 -12.221 -0.12 +0.01    +0.051 C 
DOCKED: ATOM     25  N   UNL d   1      17.614  45.992  -6.347 -0.19 +0.02    -0.248 N 
DOCKED: ATOM     26  N   UNL d   1      20.217  45.370  -5.590 -0.15 +0.00    -0.248 N 
DOCKED: ATOM     27  N   UNL d   1      20.571  43.888  -8.122 -0.10 -0.04    -0.248 N 
DOCKED: ATOM     28  N   UNL d   1      17.790  44.592  -8.748 -0.15 -0.02    -0.248 N 
DOCKED: ATOM     29 FE   UNL d   1      19.178  44.876  -7.290 -0.05 +0.00    +0.000 Fe
DOCKED: ENDROOT
DOCKED: BRANCH   6  30
DOCKED: ATOM     30  C   UNL d   1      14.276  47.752  -6.225 -0.18 -0.01    +0.052 C 
DOCKED: BRANCH  30  31
DOCKED: ATOM     31  C   UNL d   1      14.369  49.089  -6.960 -0.16 -0.01    +0.115 C 
DOCKED: BRANCH  31  32
DOCKED: ATOM     32  C   UNL d   1      15.780  49.403  -7.410 -0.06 -0.01    +0.139 C 
DOCKED: ATOM     33  O   UNL d   1      16.441  50.222  -6.789 +0.04 +0.06    -0.650 OA
DOCKED: BRANCH  32  34
DOCKED: ATOM     34  O   UNL d   1      16.357  48.768  -8.457 +0.05 +0.06    -0.776 OA
DOCKED: ATOM     35  H   UNL d   1      15.984  48.740  -9.349 +0.02 -0.01    +0.167 HD
DOCKED: ENDBRANCH  32  34
DOCKED: ENDBRANCH  31  32
DOCKED: ENDBRANCH  30  31
DOCKED: ENDBRANCH   6  30
DOCKED: BRANCH  29  36
DOCKED: ATOM     36  C   UNL d   1      19.775  46.679  -8.177 -0.03 +0.00    +0.190 C 
DOCKED: BRANCH  36  37
DOCKED: ATOM     37  O   UNL d   1      19.283  47.850  -8.762 +0.00 +0.00    -0.399 OA
DOCKED: ATOM     38  H   UNL d   1      18.306  47.848  -8.558 +0.03 -0.01    +0.209 HD
DOCKED: ENDBRANCH  36  37
DOCKED: ENDBRANCH  29  36
DOCKED: BRANCH  22  39
DOCKED: ATOM     39  C   UNL d   1      14.690  44.886 -10.811 -0.09 -0.03    +0.052 C 
DOCKED: BRANCH  39  40
DOCKED: ATOM     40  C   UNL d   1      14.781  46.086 -11.768 -0.09 -0.03    +0.115 C 
DOCKED: BRANCH  40  41
DOCKED: ATOM     41  C   UNL d   1      15.188  47.385 -11.104 -0.06 -0.02    +0.139 C 
DOCKED: ATOM     42  O   UNL d   1      16.328  47.801 -11.253 +0.02 +0.04    -0.650 OA
DOCKED: BRANCH  41  43
DOCKED: ATOM     43  O   UNL d   1      14.300  48.144 -10.424 +0.02 +0.09    -0.776 OA
DOCKED: ATOM     44  H   UNL d   1      14.520  48.576  -9.588 +0.03 -0.02    +0.167 HD
DOCKED: ENDBRANCH  41  43
DOCKED: ENDBRANCH  40  41
DOCKED: ENDBRANCH  39  40
DOCKED: ENDBRANCH  22  39
DOCKED: BRANCH  12  45
DOCKED: ATOM     45  C   UNL d   1      23.429  44.877  -3.759 -0.31 +0.00    +0.004 C 
DOCKED: ATOM     46  C   UNL d   1      23.887  43.677  -3.414 -0.38 +0.00    +0.012 C 
DOCKED: ENDBRANCH  12  45
DOCKED: BRANCH  17  47
DOCKED: ATOM     47  C   UNL d   1      22.127  42.270 -11.010 -0.07 +0.00    +0.004 C 
DOCKED: ATOM     48  C   UNL d   1      21.589  41.141 -11.479 -0.10 +0.00    +0.012 C 
DOCKED: ENDBRANCH  17  47
DOCKED: TORSDOF 12
DOCKED: TER
DOCKED: ENDMDL
________________________________________________________________________________


	BEGINNING GENETIC ALGORITHM DOCKING 97 of 100
Run: 97 Seed: 1606631298 277866763 [ Run 97 of 100 GA/GALS ]
Beginning LAMARCKIAN GENETIC ALGORITHM (LGA), with a maximum of 25000000 energy evaluations.

Final-Value: -11.962


	FINAL GENETIC ALGORITHM DOCKED STATE
	_______________________________________________


Detailed state:  trans 45.286 28.152 18.135 quatxyzw -0.406192 0.390539 0.732577 0.381862 center 8.781 34.984 -0.736 ntor 12 27.9787 124.0972 -122.7553 125.0223 135.1421 83.6168 -146.8813 120.0692 88.2224 163.4017 35.1949 159.2110
State:	 45.286  28.152  18.135  -0.439  0.423  0.793 135.102     27.98  124.10 -122.76  125.02  135.14   83.62 -146.88  120.07   88.22  163.40   35.19  159.21

DOCKED: MODEL       97
DOCKED: USER    Run = 97
DOCKED: USER    DPF = D:/Protein_go_brrr/autodock/final/6BB5/heme_Co/dock.dpf
DOCKED: USER  
DOCKED: USER    Estimated Free Energy of Binding    =   -6.43 kcal/mol  [=(1)+(2)+(3)-(4)]
DOCKED: USER    Estimated Inhibition Constant, Ki   =   19.27 uM (micromolar)  [Temperature = 298.15 K]
DOCKED: USER    
DOCKED: USER    (1) Final Intermolecular Energy     =  -10.01 kcal/mol
DOCKED: USER        vdW + Hbond + desolv Energy     =   -8.41 kcal/mol
DOCKED: USER        Electrostatic Energy            =   -1.61 kcal/mol
DOCKED: USER    (2) Final Total Internal Energy     =   -1.95 kcal/mol
DOCKED: USER    (3) Torsional Free Energy           =   +3.58 kcal/mol
DOCKED: USER    (4) Unbound System's Energy  [=(2)] =   -1.95 kcal/mol
DOCKED: USER    
DOCKED: USER    
DOCKED: USER    NEWDPF move heme_Co_opt.pdbqt
DOCKED: USER    NEWDPF about 8.781000 34.984000 -0.736000
DOCKED: USER    NEWDPF tran0 45.285522 28.152023 18.135489
DOCKED: USER    NEWDPF quaternion0 -0.406192 0.390539 0.732577 0.381862
DOCKED: USER    NEWDPF axisangle0 -0.439497 0.422561 0.792644 135.101836
DOCKED: USER    NEWDPF quat0 -0.439497 0.422561 0.792644 135.101836
DOCKED: USER    NEWDPF dihe0 27.98 124.10 -122.76 125.02 135.14 83.62 -146.88 120.07 88.22 163.40 35.19 159.21 
DOCKED: USER  keepresnum = 1 
DOCKED: USER  
DOCKED: REMARK  12 active torsions:
DOCKED: REMARK  status: ('A' for Active; 'I' for Inactive)
DOCKED: REMARK    1  A    between atoms: C_6  and  C_10 
DOCKED: REMARK    2  A    between atoms: C_10  and  C_11 
DOCKED: REMARK    3  A    between atoms: C_11  and  C_12 
DOCKED: REMARK    4  A    between atoms: C_12  and  O_14 
DOCKED: REMARK    5  A    between atoms: C_17  and  C_20 
DOCKED: REMARK    6  A    between atoms: C_24  and  C_27 
DOCKED: REMARK    7  A    between atoms: C_31  and  C_34 
DOCKED: REMARK    8  A    between atoms: C_34  and  C_35 
DOCKED: REMARK    9  A    between atoms: C_35  and  C_36 
DOCKED: REMARK   10  A    between atoms: C_36  and  O_38 
DOCKED: REMARK   11  A    between atoms: FE_43  and  C_44 
DOCKED: REMARK   12  A    between atoms: C_44  and  O_45 
DOCKED: USER                              x       y       z     vdW  Elec       q    Type
DOCKED: USER                           _______ _______ _______ _____ _____    ______ ____
DOCKED: ROOT
DOCKED: ATOM      1  C   UNL d   1      46.898  29.425  18.840 -0.11 +0.03    +0.064 A 
DOCKED: ATOM      2  C   UNL d   1      42.440  30.372  17.482 -0.38 +0.01    +0.064 C 
DOCKED: ATOM      3  C   UNL d   1      41.808  25.803  16.237 -0.35 +0.01    +0.064 A 
DOCKED: ATOM      4  C   UNL d   1      46.224  24.732  17.975 -0.12 +0.03    +0.064 A 
DOCKED: ATOM      5  C   UNL d   1      45.739  30.026  18.527 -0.17 +0.02    +0.066 A 
DOCKED: ATOM      6  C   UNL d   1      45.501  31.385  18.813 -0.21 -0.01    -0.021 A 
DOCKED: ATOM      7  C   UNL d   1      44.198  31.649  18.438 -0.29 -0.01    -0.025 A 
DOCKED: ATOM      8  C   UNL d   1      43.702  30.445  17.924 -0.28 +0.02    +0.066 A 
DOCKED: ATOM      9  C   UNL d   1      43.435  32.977  18.553 -0.42 +0.01    +0.051 C 
DOCKED: ATOM     10  C   UNL d   1      41.852  29.185  16.913 -0.11 +0.02    +0.066 A 
DOCKED: ATOM     11  C   UNL d   1      40.582  29.082  16.304 -0.12 -0.01    -0.021 A 
DOCKED: ATOM     12  C   UNL d   1      40.426  27.740  15.947 -0.27 +0.00    +0.000 A 
DOCKED: ATOM     13  C   UNL d   1      41.613  27.128  16.351 -0.31 +0.02    +0.070 A 
DOCKED: ATOM     14  C   UNL d   1      39.640  30.220  16.008 -0.33 +0.01    +0.052 C 
DOCKED: ATOM     15  C   UNL d   1      42.945  25.002  16.648 -0.27 +0.02    +0.066 A 
DOCKED: ATOM     16  C   UNL d   1      43.024  23.617  16.633 -0.28 -0.00    -0.021 A 
DOCKED: ATOM     17  C   UNL d   1      44.295  23.303  17.136 -0.23 +0.00    +0.000 A 
DOCKED: ATOM     18  C   UNL d   1      44.899  24.527  17.403 -0.18 +0.03    +0.070 A 
DOCKED: ATOM     19  C   UNL d   1      41.933  22.681  16.163 -0.45 +0.00    +0.052 C 
DOCKED: ATOM     20  C   UNL d   1      46.798  25.908  18.323 -0.10 +0.03    +0.066 A 
DOCKED: ATOM     21  C   UNL d   1      48.065  25.975  18.899 -0.06 -0.01    -0.025 A 
DOCKED: ATOM     22  C   UNL d   1      48.298  27.318  19.133 -0.05 -0.01    -0.021 A 
DOCKED: ATOM     23  C   UNL d   1      47.148  28.008  18.695 -0.09 +0.03    +0.066 A 
DOCKED: ATOM     24  C   UNL d   1      49.001  24.815  19.229 -0.04 +0.03    +0.051 C 
DOCKED: ATOM     25  N   UNL d   1      44.637  29.425  17.961 -0.13 -0.08    -0.248 N 
DOCKED: ATOM     26  N   UNL d   1      42.496  28.014  16.884 -0.17 -0.06    -0.248 N 
DOCKED: ATOM     27  N   UNL d   1      44.055  25.515  17.129 -0.14 -0.08    -0.248 N 
DOCKED: ATOM     28  N   UNL d   1      46.237  27.159  18.207 -0.07 -0.11    -0.248 N 
DOCKED: ATOM     29 FE   UNL d   1      44.333  27.354  17.521 -0.05 +0.00    +0.000 Fe
DOCKED: ENDROOT
DOCKED: BRANCH   6  30
DOCKED: ATOM     30  C   UNL d   1      46.463  32.353  19.492 -0.16 +0.01    +0.052 C 
DOCKED: BRANCH  30  31
DOCKED: ATOM     31  C   UNL d   1      46.789  33.525  18.566 -0.14 +0.02    +0.115 C 
DOCKED: BRANCH  31  32
DOCKED: ATOM     32  C   UNL d   1      48.048  33.291  17.760 -0.12 +0.02    +0.139 C 
DOCKED: ATOM     33  O   UNL d   1      47.987  32.644  16.725 -0.02 -0.10    -0.650 OA
DOCKED: BRANCH  32  34
DOCKED: ATOM     34  O   UNL d   1      49.241  33.817  18.123 +0.04 -0.10    -0.776 OA
DOCKED: ATOM     35  H   UNL d   1      49.469  34.076  19.027 +0.02 +0.02    +0.167 HD
DOCKED: ENDBRANCH  32  34
DOCKED: ENDBRANCH  31  32
DOCKED: ENDBRANCH  30  31
DOCKED: ENDBRANCH   6  30
DOCKED: BRANCH  29  36
DOCKED: ATOM     36  C   UNL d   1      43.586  27.165  19.471 +0.16 +0.11    +0.190 C 
DOCKED: BRANCH  36  37
DOCKED: ATOM     37  O   UNL d   1      43.970  27.166  20.816 -0.35 -0.51    -0.399 OA
DOCKED: ATOM     38  H   UNL d   1      44.914  27.488  20.813 +0.05 +0.30    +0.209 HD
DOCKED: ENDBRANCH  36  37
DOCKED: ENDBRANCH  29  36
DOCKED: BRANCH  22  39
DOCKED: ATOM     39  C   UNL d   1      49.533  27.894  19.800 -0.02 +0.02    +0.052 C 
DOCKED: BRANCH  39  40
DOCKED: ATOM     40  C   UNL d   1      49.256  28.201  21.281 -0.02 +0.05    +0.115 C 
DOCKED: BRANCH  40  41
DOCKED: ATOM     41  C   UNL d   1      47.792  28.385  21.618 -0.07 +0.13    +0.139 C 
DOCKED: ATOM     42  O   UNL d   1      47.348  29.516  21.763 -0.14 -0.64    -0.650 OA
DOCKED: BRANCH  41  43
DOCKED: ATOM     43  O   UNL d   1      46.939  27.338  21.677 -0.44 -1.13    -0.776 OA
DOCKED: ATOM     44  H   UNL d   1      46.189  27.245  21.075 +0.02 +0.23    +0.167 HD
DOCKED: ENDBRANCH  41  43
DOCKED: ENDBRANCH  40  41
DOCKED: ENDBRANCH  39  40
DOCKED: ENDBRANCH  22  39
DOCKED: BRANCH  12  45
DOCKED: ATOM     45  C   UNL d   1      39.306  26.973  15.257 -0.47 +0.00    +0.004 C 
DOCKED: ATOM     46  C   UNL d   1      39.287  26.326  14.094 -0.49 +0.00    +0.012 C 
DOCKED: ENDBRANCH  12  45
DOCKED: BRANCH  17  47
DOCKED: ATOM     47  C   UNL d   1      44.911  21.970  17.408 -0.25 +0.00    +0.004 C 
DOCKED: ATOM     48  C   UNL d   1      45.959  21.490  16.734 -0.22 +0.01    +0.012 C 
DOCKED: ENDBRANCH  17  47
DOCKED: TORSDOF 12
DOCKED: TER
DOCKED: ENDMDL
________________________________________________________________________________


	BEGINNING GENETIC ALGORITHM DOCKING 98 of 100
Run: 98 Seed: 812180793 1590704641 [ Run 98 of 100 GA/GALS ]
Beginning LAMARCKIAN GENETIC ALGORITHM (LGA), with a maximum of 25000000 energy evaluations.

Final-Value: -10.384


	FINAL GENETIC ALGORITHM DOCKED STATE
	_______________________________________________


Detailed state:  trans 16.438 46.226 -8.948 quatxyzw 0.557559 0.295826 0.324958 0.704285 center 8.781 34.984 -0.736 ntor 12 -179.8732 113.8575 -90.7533 -79.4699 148.7847 132.1455 -126.3494 77.4198 -153.3860 79.9520 -169.2434 -11.3906
State:	 16.438  46.226  -8.948   0.785  0.417  0.458 90.456   -179.87  113.86  -90.75  -79.47  148.78  132.15 -126.35   77.42 -153.39   79.95 -169.24  -11.39

DOCKED: MODEL       98
DOCKED: USER    Run = 98
DOCKED: USER    DPF = D:/Protein_go_brrr/autodock/final/6BB5/heme_Co/dock.dpf
DOCKED: USER  
DOCKED: USER    Estimated Free Energy of Binding    =   -4.67 kcal/mol  [=(1)+(2)+(3)-(4)]
DOCKED: USER    Estimated Inhibition Constant, Ki   =  379.98 uM (micromolar)  [Temperature = 298.15 K]
DOCKED: USER    
DOCKED: USER    (1) Final Intermolecular Energy     =   -8.25 kcal/mol
DOCKED: USER        vdW + Hbond + desolv Energy     =   -7.33 kcal/mol
DOCKED: USER        Electrostatic Energy            =   -0.92 kcal/mol
DOCKED: USER    (2) Final Total Internal Energy     =   -2.14 kcal/mol
DOCKED: USER    (3) Torsional Free Energy           =   +3.58 kcal/mol
DOCKED: USER    (4) Unbound System's Energy  [=(2)] =   -2.14 kcal/mol
DOCKED: USER    
DOCKED: USER    
DOCKED: USER    NEWDPF move heme_Co_opt.pdbqt
DOCKED: USER    NEWDPF about 8.781000 34.984000 -0.736000
DOCKED: USER    NEWDPF tran0 16.438461 46.226143 -8.947871
DOCKED: USER    NEWDPF quaternion0 0.557559 0.295826 0.324958 0.704285
DOCKED: USER    NEWDPF axisangle0 0.785386 0.416705 0.457740 90.456416
DOCKED: USER    NEWDPF quat0 0.785386 0.416705 0.457740 90.456416
DOCKED: USER    NEWDPF dihe0 -179.87 113.86 -90.75 -79.47 148.78 132.15 -126.35 77.42 -153.39 79.95 -169.24 -11.39 
DOCKED: USER  keepresnum = 1 
DOCKED: USER  
DOCKED: REMARK  12 active torsions:
DOCKED: REMARK  status: ('A' for Active; 'I' for Inactive)
DOCKED: REMARK    1  A    between atoms: C_6  and  C_10 
DOCKED: REMARK    2  A    between atoms: C_10  and  C_11 
DOCKED: REMARK    3  A    between atoms: C_11  and  C_12 
DOCKED: REMARK    4  A    between atoms: C_12  and  O_14 
DOCKED: REMARK    5  A    between atoms: C_17  and  C_20 
DOCKED: REMARK    6  A    between atoms: C_24  and  C_27 
DOCKED: REMARK    7  A    between atoms: C_31  and  C_34 
DOCKED: REMARK    8  A    between atoms: C_34  and  C_35 
DOCKED: REMARK    9  A    between atoms: C_35  and  C_36 
DOCKED: REMARK   10  A    between atoms: C_36  and  O_38 
DOCKED: REMARK   11  A    between atoms: FE_43  and  C_44 
DOCKED: REMARK   12  A    between atoms: C_44  and  O_45 
DOCKED: USER                              x       y       z     vdW  Elec       q    Type
DOCKED: USER                           _______ _______ _______ _____ _____    ______ ____
DOCKED: ROOT
DOCKED: ATOM      1  C   UNL d   1      15.690  45.726 -10.924 -0.10 -0.01    +0.064 A 
DOCKED: ATOM      2  C   UNL d   1      14.165  48.772  -7.607 -0.17 -0.01    +0.064 C 
DOCKED: ATOM      3  C   UNL d   1      17.522  47.218  -4.583 -0.25 -0.01    +0.064 A 
DOCKED: ATOM      4  C   UNL d   1      19.341  44.374  -8.085 -0.16 +0.01    +0.064 A 
DOCKED: ATOM      5  C   UNL d   1      15.004  46.647 -10.227 -0.09 -0.01    +0.066 A 
DOCKED: ATOM      6  C   UNL d   1      13.961  47.397 -10.805 -0.10 +0.00    -0.021 A 
DOCKED: ATOM      7  C   UNL d   1      13.538  48.295  -9.845 -0.10 +0.00    -0.025 A 
DOCKED: ATOM      8  C   UNL d   1      14.328  48.043  -8.718 -0.04 -0.01    +0.066 A 
DOCKED: ATOM      9  C   UNL d   1      12.433  49.356  -9.969 -0.10 -0.00    +0.051 C 
DOCKED: ATOM     10  C   UNL d   1      14.913  48.568  -6.391 -0.18 -0.01    +0.066 A 
DOCKED: ATOM     11  C   UNL d   1      14.694  49.203  -5.149 -0.25 +0.00    -0.021 A 
DOCKED: ATOM     12  C   UNL d   1      15.684  48.728  -4.285 -0.30 -0.00    +0.000 A 
DOCKED: ATOM     13  C   UNL d   1      16.424  47.833  -5.057 -0.24 -0.01    +0.070 A 
DOCKED: ATOM     14  C   UNL d   1      13.551  50.124  -4.807 -0.31 -0.01    +0.052 C 
DOCKED: ATOM     15  C   UNL d   1      18.429  46.308  -5.254 -0.28 -0.01    +0.066 A 
DOCKED: ATOM     16  C   UNL d   1      19.628  45.822  -4.752 -0.34 +0.00    -0.021 A 
DOCKED: ATOM     17  C   UNL d   1      20.158  45.003  -5.760 -0.30 +0.00    +0.000 A 
DOCKED: ATOM     18  C   UNL d   1      19.228  45.041  -6.794 -0.23 +0.00    +0.070 A 
DOCKED: ATOM     19  C   UNL d   1      20.202  46.141  -3.390 -0.25 -0.01    +0.052 C 
DOCKED: ATOM     20  C   UNL d   1      18.494  44.466  -9.137 -0.15 +0.01    +0.066 A 
DOCKED: ATOM     21  C   UNL d   1      18.728  43.804 -10.341 -0.11 -0.01    -0.025 A 
DOCKED: ATOM     22  C   UNL d   1      17.677  44.152 -11.169 -0.12 -0.00    -0.021 A 
DOCKED: ATOM     23  C   UNL d   1      16.852  45.025 -10.427 -0.13 -0.00    +0.066 A 
DOCKED: ATOM     24  C   UNL d   1      19.907  42.901 -10.692 -0.06 +0.02    +0.051 C 
DOCKED: ATOM     25  N   UNL d   1      15.241  47.023  -8.925 -0.08 +0.03    -0.248 N 
DOCKED: ATOM     26  N   UNL d   1      15.922  47.694  -6.313 -0.11 +0.03    -0.248 N 
DOCKED: ATOM     27  N   UNL d   1      18.227  45.852  -6.470 -0.16 +0.01    -0.248 N 
DOCKED: ATOM     28  N   UNL d   1      17.345  45.220  -9.198 -0.12 +0.00    -0.248 N 
DOCKED: ATOM     29 FE   UNL d   1      16.823  46.401  -7.627 -0.04 -0.00    +0.000 Fe
DOCKED: ENDROOT
DOCKED: BRANCH   6  30
DOCKED: ATOM     30  C   UNL d   1      13.460  47.302 -12.242 -0.06 -0.01    +0.052 C 
DOCKED: BRANCH  30  31
DOCKED: ATOM     31  C   UNL d   1      14.307  48.177 -13.165 -0.01 -0.01    +0.115 C 
DOCKED: BRANCH  31  32
DOCKED: ATOM     32  C   UNL d   1      15.699  48.415 -12.619 -0.01 -0.01    +0.139 C 
DOCKED: ATOM     33  O   UNL d   1      16.645  47.810 -13.100 +0.01 +0.02    -0.650 OA
DOCKED: BRANCH  32  34
DOCKED: ATOM     34  O   UNL d   1      15.940  49.318 -11.640 +0.01 +0.04    -0.776 OA
DOCKED: ATOM     35  H   UNL d   1      16.805  49.456 -11.229 +0.00 -0.01    +0.167 HD
DOCKED: ENDBRANCH  32  34
DOCKED: ENDBRANCH  31  32
DOCKED: ENDBRANCH  30  31
DOCKED: ENDBRANCH   6  30
DOCKED: BRANCH  29  36
DOCKED: ATOM     36  C   UNL d   1      17.944  47.987  -8.417 -0.03 -0.01    +0.190 C 
DOCKED: BRANCH  36  37
DOCKED: ATOM     37  O   UNL d   1      18.052  48.829  -9.529 +0.00 +0.01    -0.399 OA
DOCKED: ATOM     38  H   UNL d   1      17.311  48.549 -10.136 +0.02 -0.01    +0.209 HD
DOCKED: ENDBRANCH  36  37
DOCKED: ENDBRANCH  29  36
DOCKED: BRANCH  22  39
DOCKED: ATOM     39  C   UNL d   1      17.514  43.718 -12.613 -0.08 +0.01    +0.052 C 
DOCKED: BRANCH  39  40
DOCKED: ATOM     40  C   UNL d   1      16.726  42.401 -12.699 -0.12 +0.03    +0.115 C 
DOCKED: BRANCH  40  41
DOCKED: ATOM     41  C   UNL d   1      17.571  41.188 -13.026 +0.00 +0.10    +0.139 C 
DOCKED: ATOM     42  O   UNL d   1      17.101  40.303 -13.728 -0.40 -0.44    -0.650 OA
DOCKED: BRANCH  41  43
DOCKED: ATOM     43  O   UNL d   1      18.862  41.095 -12.637 -0.55 -0.73    -0.776 OA
DOCKED: ATOM     44  H   UNL d   1      19.587  41.481 -13.145 +0.01 +0.08    +0.167 HD
DOCKED: ENDBRANCH  41  43
DOCKED: ENDBRANCH  40  41
DOCKED: ENDBRANCH  39  40
DOCKED: ENDBRANCH  22  39
DOCKED: BRANCH  12  45
DOCKED: ATOM     45  C   UNL d   1      16.003  49.002  -2.821 -0.31 -0.00    +0.004 C 
DOCKED: ATOM     46  C   UNL d   1      16.761  49.942  -2.261 -0.34 -0.00    +0.012 C 
DOCKED: ENDBRANCH  12  45
DOCKED: BRANCH  17  47
DOCKED: ATOM     47  C   UNL d   1      21.456  44.266  -5.806 -0.30 +0.00    +0.004 C 
DOCKED: ATOM     48  C   UNL d   1      21.554  42.962  -6.073 -0.31 +0.00    +0.012 C 
DOCKED: ENDBRANCH  17  47
DOCKED: TORSDOF 12
DOCKED: TER
DOCKED: ENDMDL
________________________________________________________________________________


	BEGINNING GENETIC ALGORITHM DOCKING 99 of 100
Run: 99 Seed: 1161007198 1920177043 [ Run 99 of 100 GA/GALS ]
Beginning LAMARCKIAN GENETIC ALGORITHM (LGA), with a maximum of 25000000 energy evaluations.

Final-Value: -14.412


	FINAL GENETIC ALGORITHM DOCKED STATE
	_______________________________________________


Detailed state:  trans 45.711 27.975 18.115 quatxyzw -0.285331 0.339997 0.893773 0.064479 center 8.781 34.984 -0.736 ntor 12 11.3604 105.1699 53.6486 74.1671 58.6177 133.0025 -138.8214 -129.7748 148.7251 67.3647 -149.7966 -1.3876
State:	 45.711  27.975  18.115  -0.286  0.341  0.896 172.606     11.36  105.17   53.65   74.17   58.62  133.00 -138.82 -129.77  148.73   67.36 -149.80   -1.39

DOCKED: MODEL       99
DOCKED: USER    Run = 99
DOCKED: USER    DPF = D:/Protein_go_brrr/autodock/final/6BB5/heme_Co/dock.dpf
DOCKED: USER  
DOCKED: USER    Estimated Free Energy of Binding    =   -9.15 kcal/mol  [=(1)+(2)+(3)-(4)]
DOCKED: USER    Estimated Inhibition Constant, Ki   =  197.15 nM (nanomolar)  [Temperature = 298.15 K]
DOCKED: USER    
DOCKED: USER    (1) Final Intermolecular Energy     =  -12.73 kcal/mol
DOCKED: USER        vdW + Hbond + desolv Energy     =   -9.31 kcal/mol
DOCKED: USER        Electrostatic Energy            =   -3.42 kcal/mol
DOCKED: USER    (2) Final Total Internal Energy     =   -1.68 kcal/mol
DOCKED: USER    (3) Torsional Free Energy           =   +3.58 kcal/mol
DOCKED: USER    (4) Unbound System's Energy  [=(2)] =   -1.68 kcal/mol
DOCKED: USER    
DOCKED: USER    
DOCKED: USER    NEWDPF move heme_Co_opt.pdbqt
DOCKED: USER    NEWDPF about 8.781000 34.984000 -0.736000
DOCKED: USER    NEWDPF tran0 45.710702 27.975103 18.115402
DOCKED: USER    NEWDPF quaternion0 -0.285331 0.339997 0.893773 0.064479
DOCKED: USER    NEWDPF axisangle0 -0.285926 0.340706 0.895637 172.606137
DOCKED: USER    NEWDPF quat0 -0.285926 0.340706 0.895637 172.606137
DOCKED: USER    NEWDPF dihe0 11.36 105.17 53.65 74.17 58.62 133.00 -138.82 -129.77 148.73 67.36 -149.80 -1.39 
DOCKED: USER  keepresnum = 1 
DOCKED: USER  
DOCKED: REMARK  12 active torsions:
DOCKED: REMARK  status: ('A' for Active; 'I' for Inactive)
DOCKED: REMARK    1  A    between atoms: C_6  and  C_10 
DOCKED: REMARK    2  A    between atoms: C_10  and  C_11 
DOCKED: REMARK    3  A    between atoms: C_11  and  C_12 
DOCKED: REMARK    4  A    between atoms: C_12  and  O_14 
DOCKED: REMARK    5  A    between atoms: C_17  and  C_20 
DOCKED: REMARK    6  A    between atoms: C_24  and  C_27 
DOCKED: REMARK    7  A    between atoms: C_31  and  C_34 
DOCKED: REMARK    8  A    between atoms: C_34  and  C_35 
DOCKED: REMARK    9  A    between atoms: C_35  and  C_36 
DOCKED: REMARK   10  A    between atoms: C_36  and  O_38 
DOCKED: REMARK   11  A    between atoms: FE_43  and  C_44 
DOCKED: REMARK   12  A    between atoms: C_44  and  O_45 
DOCKED: USER                              x       y       z     vdW  Elec       q    Type
DOCKED: USER                           _______ _______ _______ _____ _____    ______ ____
DOCKED: ROOT
DOCKED: ATOM      1  C   UNL d   1      47.746  27.709  18.824 -0.08 +0.03    +0.064 A 
DOCKED: ATOM      2  C   UNL d   1      44.843  31.475  18.786 -0.27 +0.02    +0.064 C 
DOCKED: ATOM      3  C   UNL d   1      41.574  28.977  16.357 -0.23 +0.02    +0.064 A 
DOCKED: ATOM      4  C   UNL d   1      44.358  25.005  16.719 -0.19 +0.02    +0.064 A 
DOCKED: ATOM      5  C   UNL d   1      47.208  28.932  18.960 -0.09 +0.03    +0.066 A 
DOCKED: ATOM      6  C   UNL d   1      47.846  29.952  19.694 -0.07 -0.01    -0.021 A 
DOCKED: ATOM      7  C   UNL d   1      46.989  31.035  19.699 -0.12 -0.01    -0.025 A 
DOCKED: ATOM      8  C   UNL d   1      45.873  30.636  18.955 -0.16 +0.02    +0.066 A 
DOCKED: ATOM      9  C   UNL d   1      47.198  32.399  20.373 -0.11 +0.01    +0.051 C 
DOCKED: ATOM     10  C   UNL d   1      43.666  31.162  18.016 -0.29 +0.02    +0.066 A 
DOCKED: ATOM     11  C   UNL d   1      42.615  32.046  17.684 -0.42 -0.00    -0.021 A 
DOCKED: ATOM     12  C   UNL d   1      41.678  31.292  16.972 -0.43 +0.00    +0.000 A 
DOCKED: ATOM     13  C   UNL d   1      42.229  30.012  16.911 -0.32 +0.01    +0.070 A 
DOCKED: ATOM     14  C   UNL d   1      42.577  33.528  17.955 -0.28 +0.00    +0.052 C 
DOCKED: ATOM     15  C   UNL d   1      41.969  27.586  16.255 -0.31 +0.01    +0.066 A 
DOCKED: ATOM     16  C   UNL d   1      41.182  26.538  15.799 -0.41 -0.00    -0.021 A 
DOCKED: ATOM     17  C   UNL d   1      41.980  25.390  15.903 -0.34 +0.00    +0.000 A 
DOCKED: ATOM     18  C   UNL d   1      43.201  25.833  16.401 -0.24 +0.02    +0.070 A 
DOCKED: ATOM     19  C   UNL d   1      39.759  26.662  15.302 -0.44 +0.01    +0.052 C 
DOCKED: ATOM     20  C   UNL d   1      45.524  25.400  17.284 -0.19 +0.03    +0.066 A 
DOCKED: ATOM     21  C   UNL d   1      46.550  24.504  17.574 -0.16 -0.01    -0.025 A 
DOCKED: ATOM     22  C   UNL d   1      47.552  25.260  18.156 -0.11 -0.01    -0.021 A 
DOCKED: ATOM     23  C   UNL d   1      47.078  26.588  18.202 -0.11 +0.03    +0.066 A 
DOCKED: ATOM     24  C   UNL d   1      46.569  22.997  17.329 -0.19 +0.04    +0.051 C 
DOCKED: ATOM     25  N   UNL d   1      45.984  29.340  18.481 -0.09 -0.10    -0.248 N 
DOCKED: ATOM     26  N   UNL d   1      43.456  29.949  17.494 -0.18 -0.06    -0.248 N 
DOCKED: ATOM     27  N   UNL d   1      43.148  27.141  16.627 -0.20 -0.06    -0.248 N 
DOCKED: ATOM     28  N   UNL d   1      45.850  26.677  17.677 -0.09 -0.10    -0.248 N 
DOCKED: ATOM     29 FE   UNL d   1      44.484  28.172  17.499 -0.05 +0.00    +0.000 Fe
DOCKED: ENDROOT
DOCKED: BRANCH   6  30
DOCKED: ATOM     30  C   UNL d   1      49.182  29.849  20.421 -0.03 +0.02    +0.052 C 
DOCKED: BRANCH  30  31
DOCKED: ATOM     31  C   UNL d   1      49.088  28.857  21.581 -0.03 +0.06    +0.115 C 
DOCKED: BRANCH  31  32
DOCKED: ATOM     32  C   UNL d   1      47.717  28.850  22.223 -0.03 +0.15    +0.139 C 
DOCKED: ATOM     33  O   UNL d   1      46.870  28.066  21.822 -0.55 -1.14    -0.650 OA
DOCKED: BRANCH  32  34
DOCKED: ATOM     34  O   UNL d   1      47.410  29.654  23.267 -0.01 -0.94    -0.776 OA
DOCKED: ATOM     35  H   UNL d   1      47.991  30.349  23.608 +0.01 +0.12    +0.167 HD
DOCKED: ENDBRANCH  32  34
DOCKED: ENDBRANCH  31  32
DOCKED: ENDBRANCH  30  31
DOCKED: ENDBRANCH   6  30
DOCKED: BRANCH  29  36
DOCKED: ATOM     36  C   UNL d   1      43.730  27.743  19.407 +0.21 +0.12    +0.190 C 
DOCKED: BRANCH  36  37
DOCKED: ATOM     37  O   UNL d   1      44.080  27.700  20.760 -0.38 -0.53    -0.399 OA
DOCKED: ATOM     38  H   UNL d   1      45.067  27.849  20.774 +0.05 +0.30    +0.209 HD
DOCKED: ENDBRANCH  36  37
DOCKED: ENDBRANCH  29  36
DOCKED: BRANCH  22  39
DOCKED: ATOM     39  C   UNL d   1      48.863  24.718  18.694 -0.07 +0.03    +0.052 C 
DOCKED: BRANCH  39  40
DOCKED: ATOM     40  C   UNL d   1      50.000  24.944  17.684 -0.11 +0.08    +0.115 C 
DOCKED: BRANCH  40  41
DOCKED: ATOM     41  C   UNL d   1      50.645  23.672  17.174 -0.02 +0.16    +0.139 C 
DOCKED: ATOM     42  O   UNL d   1      50.145  22.592  17.458 -0.17 -1.07    -0.650 OA
DOCKED: BRANCH  41  43
DOCKED: ATOM     43  O   UNL d   1      51.709  23.700  16.342 +0.03 -0.82    -0.776 OA
DOCKED: ATOM     44  H   UNL d   1      52.547  24.115  16.585 +0.01 +0.11    +0.167 HD
DOCKED: ENDBRANCH  41  43
DOCKED: ENDBRANCH  40  41
DOCKED: ENDBRANCH  39  40
DOCKED: ENDBRANCH  22  39
DOCKED: BRANCH  12  45
DOCKED: ATOM     45  C   UNL d   1      40.341  31.637  16.329 -0.47 +0.00    +0.004 C 
DOCKED: ATOM     46  C   UNL d   1      40.053  32.434  15.304 -0.49 +0.00    +0.012 C 
DOCKED: ENDBRANCH  12  45
DOCKED: BRANCH  17  47
DOCKED: ATOM     47  C   UNL d   1      41.641  23.964  15.618 -0.49 +0.00    +0.004 C 
DOCKED: ATOM     48  C   UNL d   1      40.851  23.581  14.612 -0.60 +0.00    +0.012 C 
DOCKED: ENDBRANCH  17  47
DOCKED: TORSDOF 12
DOCKED: TER
DOCKED: ENDMDL
________________________________________________________________________________


	BEGINNING GENETIC ALGORITHM DOCKING 100 of 100
Run: 100 Seed: 2027135717 1704443123 [ Run 100 of 100 GA/GALS ]
Beginning LAMARCKIAN GENETIC ALGORITHM (LGA), with a maximum of 25000000 energy evaluations.

Final-Value: -9.783


	FINAL GENETIC ALGORITHM DOCKED STATE
	_______________________________________________


Detailed state:  trans -0.163 31.331 7.333 quatxyzw 0.186130 -0.541923 0.360856 -0.735839 center 8.781 34.984 -0.736 ntor 12 -26.9467 79.7137 -30.6453 69.4274 -78.7162 157.9815 52.5378 173.4795 -133.6156 34.5100 -177.1463 -179.9572
State:	 -0.163  31.331   7.333   0.275 -0.800  0.533 -85.244    -26.95   79.71  -30.65   69.43  -78.72  157.98   52.54  173.48 -133.62   34.51 -177.15 -179.96

DOCKED: MODEL      100
DOCKED: USER    Run = 100
DOCKED: USER    DPF = D:/Protein_go_brrr/autodock/final/6BB5/heme_Co/dock.dpf
DOCKED: USER  
DOCKED: USER    Estimated Free Energy of Binding    =   -3.59 kcal/mol  [=(1)+(2)+(3)-(4)]
DOCKED: USER    Estimated Inhibition Constant, Ki   =    2.33 mM (millimolar)  [Temperature = 298.15 K]
DOCKED: USER    
DOCKED: USER    (1) Final Intermolecular Energy     =   -7.17 kcal/mol
DOCKED: USER        vdW + Hbond + desolv Energy     =   -6.84 kcal/mol
DOCKED: USER        Electrostatic Energy            =   -0.33 kcal/mol
DOCKED: USER    (2) Final Total Internal Energy     =   -2.61 kcal/mol
DOCKED: USER    (3) Torsional Free Energy           =   +3.58 kcal/mol
DOCKED: USER    (4) Unbound System's Energy  [=(2)] =   -2.61 kcal/mol
DOCKED: USER    
DOCKED: USER    
DOCKED: USER    NEWDPF move heme_Co_opt.pdbqt
DOCKED: USER    NEWDPF about 8.781000 34.984000 -0.736000
DOCKED: USER    NEWDPF tran0 -0.163253 31.330720 7.332757
DOCKED: USER    NEWDPF quaternion0 0.186130 -0.541923 0.360856 -0.735839
DOCKED: USER    NEWDPF axisangle0 0.274869 -0.800291 0.532898 -85.243742
DOCKED: USER    NEWDPF quat0 0.274869 -0.800291 0.532898 -85.243742
DOCKED: USER    NEWDPF dihe0 -26.95 79.71 -30.65 69.43 -78.72 157.98 52.54 173.48 -133.62 34.51 -177.15 -179.96 
DOCKED: USER  keepresnum = 1 
DOCKED: USER  
DOCKED: REMARK  12 active torsions:
DOCKED: REMARK  status: ('A' for Active; 'I' for Inactive)
DOCKED: REMARK    1  A    between atoms: C_6  and  C_10 
DOCKED: REMARK    2  A    between atoms: C_10  and  C_11 
DOCKED: REMARK    3  A    between atoms: C_11  and  C_12 
DOCKED: REMARK    4  A    between atoms: C_12  and  O_14 
DOCKED: REMARK    5  A    between atoms: C_17  and  C_20 
DOCKED: REMARK    6  A    between atoms: C_24  and  C_27 
DOCKED: REMARK    7  A    between atoms: C_31  and  C_34 
DOCKED: REMARK    8  A    between atoms: C_34  and  C_35 
DOCKED: REMARK    9  A    between atoms: C_35  and  C_36 
DOCKED: REMARK   10  A    between atoms: C_36  and  O_38 
DOCKED: REMARK   11  A    between atoms: FE_43  and  C_44 
DOCKED: REMARK   12  A    between atoms: C_44  and  O_45 
DOCKED: USER                              x       y       z     vdW  Elec       q    Type
DOCKED: USER                           _______ _______ _______ _____ _____    ______ ____
DOCKED: ROOT
DOCKED: ATOM      1  C   UNL d   1      -0.260  31.593   5.179 -0.11 -0.00    +0.064 A 
DOCKED: ATOM      2  C   UNL d   1      -0.596  27.741   7.947 -0.18 -0.04    +0.064 C 
DOCKED: ATOM      3  C   UNL d   1       0.394  30.380  11.805 -0.17 -0.00    +0.064 A 
DOCKED: ATOM      4  C   UNL d   1       0.362  34.391   9.053 -0.28 +0.00    +0.064 A 
DOCKED: ATOM      5  C   UNL d   1      -0.388  30.341   5.647 -0.10 -0.01    +0.066 A 
DOCKED: ATOM      6  C   UNL d   1      -0.757  29.266   4.814 -0.07 +0.01    -0.021 A 
DOCKED: ATOM      7  C   UNL d   1      -0.875  28.155   5.627 -0.10 +0.01    -0.025 A 
DOCKED: ATOM      8  C   UNL d   1      -0.558  28.596   6.916 -0.15 -0.03    +0.066 A 
DOCKED: ATOM      9  C   UNL d   1      -1.271  26.728   5.219 -0.06 -0.04    +0.051 C 
DOCKED: ATOM     10  C   UNL d   1      -0.261  28.097   9.303 -0.22 -0.02    +0.066 A 
DOCKED: ATOM     11  C   UNL d   1      -0.145  27.218  10.402 -0.25 +0.01    -0.021 A 
DOCKED: ATOM     12  C   UNL d   1       0.148  28.013  11.513 -0.23 -0.00    +0.000 A 
DOCKED: ATOM     13  C   UNL d   1       0.202  29.313  11.009 -0.20 -0.01    +0.070 A 
DOCKED: ATOM     14  C   UNL d   1      -0.218  25.713  10.352 -0.31 -0.03    +0.052 C 
DOCKED: ATOM     15  C   UNL d   1       0.426  31.788  11.463 -0.20 +0.00    +0.066 A 
DOCKED: ATOM     16  C   UNL d   1       0.484  32.851  12.354 -0.22 -0.00    -0.021 A 
DOCKED: ATOM     17  C   UNL d   1       0.472  34.010  11.565 -0.27 +0.00    +0.000 A 
DOCKED: ATOM     18  C   UNL d   1       0.425  33.561  10.249 -0.20 +0.00    +0.070 A 
DOCKED: ATOM     19  C   UNL d   1       0.544  32.729  13.860 -0.12 +0.00    +0.052 C 
DOCKED: ATOM     20  C   UNL d   1       0.228  33.979   7.770 -0.27 +0.01    +0.066 A 
DOCKED: ATOM     21  C   UNL d   1       0.143  34.875   6.706 -0.30 -0.00    -0.025 A 
DOCKED: ATOM     22  C   UNL d   1      -0.008  34.096   5.574 -0.25 -0.00    -0.021 A 
DOCKED: ATOM     23  C   UNL d   1      -0.019  32.753   6.007 -0.20 +0.00    +0.066 A 
DOCKED: ATOM     24  C   UNL d   1       0.182  36.400   6.767 -0.32 +0.02    +0.051 C 
DOCKED: ATOM     25  N   UNL d   1      -0.247  29.944   6.958 -0.10 +0.06    -0.248 N 
DOCKED: ATOM     26  N   UNL d   1       0.010  29.356   9.664 -0.15 +0.05    -0.248 N 
DOCKED: ATOM     27  N   UNL d   1       0.368  32.234  10.228 -0.11 -0.01    -0.248 N 
DOCKED: ATOM     28  N   UNL d   1       0.122  32.678   7.336 -0.12 -0.01    -0.248 N 
DOCKED: ATOM     29 FE   UNL d   1       0.079  31.160   8.687 -0.05 -0.00    +0.000 Fe
DOCKED: ENDROOT
DOCKED: BRANCH   6  30
DOCKED: ATOM     30  C   UNL d   1      -1.058  29.334   3.321 -0.03 -0.01    +0.052 C 
DOCKED: BRANCH  30  31
DOCKED: ATOM     31  C   UNL d   1      -2.555  29.537   3.084 -0.00 -0.01    +0.115 C 
DOCKED: BRANCH  31  32
DOCKED: ATOM     32  C   UNL d   1      -3.147  30.587   3.999 -0.00 -0.01    +0.139 C 
DOCKED: ATOM     33  O   UNL d   1      -3.378  30.307   5.166 +0.01 +0.04    -0.650 OA
DOCKED: BRANCH  32  34
DOCKED: ATOM     34  O   UNL d   1      -3.387  31.851   3.580 +0.01 -0.02    -0.776 OA
DOCKED: ATOM     35  H   UNL d   1      -2.863  32.310   2.908 +0.01 +0.01    +0.167 HD
DOCKED: ENDBRANCH  32  34
DOCKED: ENDBRANCH  31  32
DOCKED: ENDBRANCH  30  31
DOCKED: ENDBRANCH   6  30
DOCKED: BRANCH  29  36
DOCKED: ATOM     36  C   UNL d   1      -2.006  31.316   8.832 -0.02 -0.01    +0.190 C 
DOCKED: BRANCH  36  37
DOCKED: ATOM     37  O   UNL d   1      -3.200  30.877   8.250 +0.00 +0.02    -0.399 OA
DOCKED: ATOM     38  H   UNL d   1      -2.991  30.780   7.279 +0.01 -0.01    +0.209 HD
DOCKED: ENDBRANCH  36  37
DOCKED: ENDBRANCH  29  36
DOCKED: BRANCH  22  39
DOCKED: ATOM     39  C   UNL d   1      -0.197  34.622   4.163 -0.13 +0.02    +0.052 C 
DOCKED: BRANCH  39  40
DOCKED: ATOM     40  C   UNL d   1      -1.648  35.081   3.944 -0.12 +0.03    +0.115 C 
DOCKED: BRANCH  40  41
DOCKED: ATOM     41  C   UNL d   1      -2.131  34.966   2.514 -0.08 +0.04    +0.139 C 
DOCKED: ATOM     42  O   UNL d   1      -1.434  35.405   1.610 -0.03 -0.27    -0.650 OA
DOCKED: BRANCH  41  43
DOCKED: ATOM     43  O   UNL d   1      -3.272  34.313   2.200 +0.02 -0.12    -0.776 OA
DOCKED: ATOM     44  H   UNL d   1      -3.646  33.622   2.762 +0.01 +0.02    +0.167 HD
DOCKED: ENDBRANCH  41  43
DOCKED: ENDBRANCH  40  41
DOCKED: ENDBRANCH  39  40
DOCKED: ENDBRANCH  22  39
DOCKED: BRANCH  12  45
DOCKED: ATOM     45  C   UNL d   1       0.401  27.694  12.980 -0.22 -0.00    +0.004 C 
DOCKED: ATOM     46  C   UNL d   1       1.343  26.950  13.555 -0.28 -0.00    +0.012 C 
DOCKED: ENDBRANCH  12  45
DOCKED: BRANCH  17  47
DOCKED: ATOM     47  C   UNL d   1       0.454  35.445  11.979 -0.35 -0.00    +0.004 C 
DOCKED: ATOM     48  C   UNL d   1      -0.651  36.194  11.991 -0.31 +0.00    +0.012 C 
DOCKED: ENDBRANCH  17  47
DOCKED: TORSDOF 12
DOCKED: TER
DOCKED: ENDMDL
________________________________________________________________________________

DPF> analysis                             # perform a ranked cluster analysis


		CLUSTER ANALYSIS OF CONFORMATIONS
		_________________________________

Number of conformations = 100

RMSD cluster analysis will be performed using the ligand atoms only (48 / 48 total atoms).

Outputting structurally similar clusters, ranked in order of increasing energy.


________________________________________________________________________________

Number of distinct conformational clusters found = 46,  out of 100 runs,
Using an rmsd-tolerance of 2.0 A


	CLUSTERING HISTOGRAM
	____________________

________________________________________________________________________________
     |           |     |           |     |                                    
Clus | Lowest    | Run | Mean      | Num | Histogram                          
-ter | Binding   |     | Binding   | in  |                                    
Rank | Energy    |     | Energy    | Clus|    5    10   15   20   25   30   35
_____|___________|_____|___________|_____|____:____|____:____|____:____|____:___
   1 |    -13.60 |  70 |    -13.32 |  13 |#############
   2 |    -11.87 |  10 |    -11.66 |   5 |#####
   3 |    -11.01 |  40 |    -11.01 |   1 |#
   4 |     -9.17 |  95 |     -8.39 |  21 |#####################
   5 |     -8.38 |  27 |     -7.98 |   4 |####
   6 |     -8.28 |  20 |     -7.41 |   3 |###
   7 |     -8.06 |  74 |     -8.05 |   2 |##
   8 |     -8.01 |  77 |     -8.01 |   1 |#
   9 |     -6.91 |  45 |     -6.91 |   1 |#
  10 |     -6.87 |  16 |     -6.76 |   2 |##
  11 |     -6.80 |  41 |     -6.80 |   1 |#
  12 |     -6.74 |  25 |     -6.74 |   1 |#
  13 |     -6.54 |  73 |     -6.54 |   1 |#
  14 |     -6.43 |  97 |     -6.43 |   1 |#
  15 |     -6.33 |  46 |     -5.25 |   4 |####
  16 |     -6.23 |  48 |     -6.23 |   1 |#
  17 |     -6.14 |  18 |     -6.14 |   1 |#
  18 |     -5.72 |  83 |     -5.61 |   2 |##
  19 |     -5.62 |  59 |     -5.22 |   2 |##
  20 |     -5.51 |  76 |     -5.51 |   1 |#
  21 |     -5.45 |  84 |     -5.45 |   1 |#
  22 |     -5.36 |  81 |     -5.36 |   1 |#
  23 |     -5.20 |  38 |     -5.20 |   1 |#
  24 |     -5.17 |  75 |     -5.17 |   1 |#
  25 |     -5.05 |  54 |     -4.78 |   2 |##
  26 |     -5.04 |  62 |     -5.04 |   1 |#
  27 |     -4.75 |  35 |     -4.75 |   1 |#
  28 |     -4.67 |  98 |     -4.67 |   1 |#
  29 |     -4.65 |  12 |     -4.65 |   1 |#
  30 |     -4.62 |  79 |     -4.62 |   1 |#
  31 |     -4.59 |  24 |     -4.59 |   1 |#
  32 |     -4.58 |  56 |     -4.11 |   4 |####
  33 |     -4.57 |  78 |     -4.57 |   1 |#
  34 |     -4.45 |  86 |     -4.45 |   1 |#
  35 |     -4.40 |  80 |     -4.37 |   2 |##
  36 |     -4.36 |  82 |     -4.36 |   1 |#
  37 |     -4.34 |   6 |     -4.28 |   2 |##
  38 |     -4.14 |  17 |     -4.14 |   1 |#
  39 |     -4.05 |  14 |     -4.05 |   1 |#
  40 |     -3.59 | 100 |     -3.59 |   1 |#
  41 |     -3.56 |  37 |     -3.56 |   1 |#
  42 |     -3.42 |  43 |     -3.42 |   1 |#
  43 |     -3.38 |  85 |     -3.38 |   1 |#
  44 |     -3.01 |  96 |     -3.01 |   1 |#
  45 |     -2.82 |  47 |     -2.82 |   1 |#
  46 |     -2.79 |  30 |     -2.79 |   1 |#
_____|___________|_____|___________|_____|______________________________________


Number of multi-member conformational clusters found = 14, out of 100 runs.

	RMSD TABLE
	__________

_____________________________________________________________________
     |      |      |           |         |                 |
Rank | Sub- | Run  | Binding   | Cluster | Reference       | Grep
     | Rank |      | Energy    | RMSD    | RMSD            | Pattern
_____|______|______|___________|_________|_________________|___________
   1      1     70      -13.60      0.00     32.11           RANKING
   1      2     36      -13.57      0.53     32.05           RANKING
   1      3     13      -13.46      0.80     32.13           RANKING
   1      4      3      -13.44      0.61     32.10           RANKING
   1      5     22      -13.40      0.76     32.08           RANKING
   1      6      1      -13.34      0.86     32.08           RANKING
   1      7     39      -13.31      0.43     32.17           RANKING
   1      8      5      -13.30      0.35     31.97           RANKING
   1      9     72      -13.25      0.46     32.07           RANKING
   1     10     42      -13.23      0.60     32.18           RANKING
   1     11     31      -13.21      0.60     31.96           RANKING
   1     12     34      -13.09      0.72     32.13           RANKING
   1     13     71      -12.97      1.19     32.26           RANKING
   2      1     10      -11.87      0.00      1.55           RANKING
   2      2     53      -11.83      1.06      1.21           RANKING
   2      3     11      -11.75      0.97      1.05           RANKING
   2      4     89      -11.74      1.44      1.82           RANKING
   2      5      9      -11.11      0.89      0.79           RANKING
   3      1     40      -11.01      0.00     31.46           RANKING
   4      1     95       -9.17      0.00     37.43           RANKING
   4      2     91       -9.15      1.77     38.15           RANKING
   4      3     99       -9.15      0.51     37.51           RANKING
   4      4     49       -9.02      0.71     37.52           RANKING
   4      5     26       -8.93      0.45     37.41           RANKING
   4      6      2       -8.91      0.85     37.65           RANKING
   4      7     66       -8.85      0.67     37.34           RANKING
   4      8     33       -8.81      1.10     37.43           RANKING
   4      9     87       -8.68      1.45     37.61           RANKING
   4     10     90       -8.56      1.14     37.21           RANKING
   4     11     32       -8.47      1.37     37.65           RANKING
   4     12     67       -8.46      1.28     37.85           RANKING
   4     13     58       -8.42      1.32     37.22           RANKING
   4     14     15       -8.13      1.28     37.21           RANKING
   4     15     44       -8.05      1.31     37.20           RANKING
   4     16     68       -7.81      1.09     37.33           RANKING
   4     17     93       -7.79      0.87     37.15           RANKING
   4     18     28       -7.76      0.86     37.21           RANKING
   4     19     51       -7.68      1.52     37.40           RANKING
   4     20     60       -7.52      1.48     37.15           RANKING
   4     21     29       -6.87      1.62     37.28           RANKING
   5      1     27       -8.38      0.00     36.45           RANKING
   5      2     50       -7.90      1.97     37.23           RANKING
   5      3     88       -7.89      1.60     37.39           RANKING
   5      4      8       -7.74      1.93     37.16           RANKING
   6      1     20       -8.28      0.00      5.25           RANKING
   6      2     69       -7.49      1.12      5.44           RANKING
   6      3     52       -6.46      1.55      5.84           RANKING
   7      1     74       -8.06      0.00     37.31           RANKING
   7      2     55       -8.04      0.57     37.24           RANKING
   8      1     77       -8.01      0.00      7.20           RANKING
   9      1     45       -6.91      0.00     24.22           RANKING
  10      1     16       -6.87      0.00     17.69           RANKING
  10      2     21       -6.65      1.08     17.81           RANKING
  11      1     41       -6.80      0.00     24.31           RANKING
  12      1     25       -6.74      0.00     38.37           RANKING
  13      1     73       -6.54      0.00     23.61           RANKING
  14      1     97       -6.43      0.00     37.04           RANKING
  15      1     46       -6.33      0.00     23.26           RANKING
  15      2     92       -5.28      1.36     23.33           RANKING
  15      3      4       -5.07      1.13     22.71           RANKING
  15      4     19       -4.34      1.09     22.96           RANKING
  16      1     48       -6.23      0.00     39.43           RANKING
  17      1     18       -6.14      0.00     16.12           RANKING
  18      1     83       -5.72      0.00     17.48           RANKING
  18      2     57       -5.49      0.66     17.47           RANKING
  19      1     59       -5.62      0.00     38.30           RANKING
  19      2     61       -4.83      0.98     38.11           RANKING
  20      1     76       -5.51      0.00     34.79           RANKING
  21      1     84       -5.45      0.00      7.12           RANKING
  22      1     81       -5.36      0.00      5.04           RANKING
  23      1     38       -5.20      0.00     14.61           RANKING
  24      1     75       -5.17      0.00     30.46           RANKING
  25      1     54       -5.05      0.00     35.60           RANKING
  25      2     64       -4.51      1.80     36.39           RANKING
  26      1     62       -5.04      0.00     13.41           RANKING
  27      1     35       -4.75      0.00      5.16           RANKING
  28      1     98       -4.67      0.00     13.53           RANKING
  29      1     12       -4.65      0.00      5.69           RANKING
  30      1     79       -4.62      0.00     14.20           RANKING
  31      1     24       -4.59      0.00      3.28           RANKING
  32      1     56       -4.58      0.00     14.33           RANKING
  32      2     23       -3.96      1.90     14.38           RANKING
  32      3      7       -3.95      1.86     14.57           RANKING
  32      4     63       -3.95      1.80     14.58           RANKING
  33      1     78       -4.57      0.00     26.41           RANKING
  34      1     86       -4.45      0.00     24.36           RANKING
  35      1     80       -4.40      0.00     33.73           RANKING
  35      2     65       -4.33      1.79     33.19           RANKING
  36      1     82       -4.36      0.00     18.53           RANKING
  37      1      6       -4.34      0.00     13.99           RANKING
  37      2     94       -4.23      1.78     13.87           RANKING
  38      1     17       -4.14      0.00     31.80           RANKING
  39      1     14       -4.05      0.00     15.02           RANKING
  40      1    100       -3.59      0.00     10.18           RANKING
  41      1     37       -3.56      0.00     13.31           RANKING
  42      1     43       -3.42      0.00     22.77           RANKING
  43      1     85       -3.38      0.00     25.34           RANKING
  44      1     96       -3.01      0.00     13.13           RANKING
  45      1     47       -2.82      0.00     28.01           RANKING
  46      1     30       -2.79      0.00     24.37           RANKING
_______________________________________________________________________



	INFORMATION ENTROPY ANALYSIS FOR THIS CLUSTERING
	________________________________________________


Information entropy for this clustering = 0.71  (rmstol = 2.00 Angstrom)

_______________________________________________________________________


	STATISTICAL MECHANICAL ANALYSIS
	_______________________________


Partition function, Q =   101.26            at Temperature, T = 298.15 K
Free energy,        A ~ -2735.90 kcal/mol   at Temperature, T = 298.15 K
Internal energy,    U =    -7.43 kcal/mol   at Temperature, T = 298.15 K
Entropy,            S =     9.15 kcal/mol/K at Temperature, T = 298.15 K

_______________________________________________________________________


	LOWEST ENERGY DOCKED CONFORMATION from EACH CLUSTER
	___________________________________________________



Keeping original residue number (specified in the input PDBQ file) for outputting.

MODEL       70
USER    Run = 70
USER    Cluster Rank = 1
USER    Number of conformations in this cluster = 13
USER  
USER    RMSD from reference structure       = 32.110 A
USER  
USER    Estimated Free Energy of Binding    =  -13.60 kcal/mol  [=(1)+(2)+(3)-(4)]
USER    Estimated Inhibition Constant, Ki   =  107.26 pM (picomolar)  [Temperature = 298.15 K]
USER    
USER    (1) Final Intermolecular Energy     =  -17.18 kcal/mol
USER        vdW + Hbond + desolv Energy     =  -15.22 kcal/mol
USER        Electrostatic Energy            =   -1.96 kcal/mol
USER    (2) Final Total Internal Energy     =   -2.31 kcal/mol
USER    (3) Torsional Free Energy           =   +3.58 kcal/mol
USER    (4) Unbound System's Energy  [=(2)] =   -2.31 kcal/mol
USER    
USER    
USER  
USER    DPF = D:/Protein_go_brrr/autodock/final/6BB5/heme_Co/dock.dpf
USER    NEWDPF move	heme_Co_opt.pdbqt
USER    NEWDPF about	8.781000 34.984000 -0.736000
USER    NEWDPF tran0	40.766489 28.860416 15.735078
USER    NEWDPF axisangle0	0.348493 -0.408687 -0.843521 176.185558
USER    NEWDPF quaternion0	0.348300 -0.408460 -0.843054 0.033281
USER    NEWDPF dihe0	147.92 137.41 -47.54 -99.00 -69.31 2.17 129.09 127.96 -55.87 15.80 -155.74 -179.80 
USER  
USER                              x       y       z    vdW   Elec        q     RMS 
ATOM      1  C   UNL d   1      42.534  28.366  16.896 -0.20 +0.02    +0.064    32.110
ATOM      2  C   UNL d   1      40.397  32.504  15.935 -0.46 +0.01    +0.064    32.110
ATOM      3  C   UNL d   1      37.320  30.283  13.032 -0.33 +0.01    +0.064    32.110
ATOM      4  C   UNL d   1      39.240  25.996  14.297 -0.40 +0.01    +0.064    32.110
ATOM      5  C   UNL d   1      42.199  29.664  16.818 -0.28 +0.01    +0.066    32.110
ATOM      6  C   UNL d   1      42.838  30.649  17.597 -0.35 -0.00    -0.021    32.110
ATOM      7  C   UNL d   1      42.199  31.844  17.331 -0.43 -0.00    -0.025    32.110
ATOM      8  C   UNL d   1      41.209  31.541  16.390 -0.38 +0.01    +0.066    32.110
ATOM      9  C   UNL d   1      42.497  33.226  17.933 -0.38 +0.00    +0.051    32.110
ATOM     10  C   UNL d   1      39.369  32.292  14.947 -0.37 +0.01    +0.066    32.110
ATOM     11  C   UNL d   1      38.579  33.283  14.326 -0.39 -0.00    -0.021    32.110
ATOM     12  C   UNL d   1      37.693  32.609  13.481 -0.39 +0.00    +0.000    32.110
ATOM     13  C   UNL d   1      38.015  31.261  13.640 -0.37 +0.01    +0.070    32.110
ATOM     14  C   UNL d   1      38.741  34.775  14.471 -0.51 +0.00    +0.052    32.110
ATOM     15  C   UNL d   1      37.481  28.846  13.124 -0.41 +0.01    +0.066    32.110
ATOM     16  C   UNL d   1      36.637  27.886  12.583 -0.53 -0.00    -0.021    32.110
ATOM     17  C   UNL d   1      37.185  26.648  12.947 -0.47 +0.00    +0.000    32.110
ATOM     18  C   UNL d   1      38.334  26.951  13.670 -0.38 +0.01    +0.070    32.110
ATOM     19  C   UNL d   1      35.390  28.170  11.775 -0.56 +0.00    +0.052    32.110
ATOM     20  C   UNL d   1      40.314  26.268  15.076 -0.40 +0.01    +0.066    32.110
ATOM     21  C   UNL d   1      41.087  25.263  15.653 -0.41 -0.00    -0.025    32.110
ATOM     22  C   UNL d   1      42.062  25.917  16.385 -0.36 -0.00    -0.021    32.110
ATOM     23  C   UNL d   1      41.826  27.299  16.226 -0.32 +0.01    +0.066    32.110
ATOM     24  C   UNL d   1      40.895  23.754  15.530 -0.54 +0.01    +0.051    32.110
ATOM     25  N   UNL d   1      41.190  30.199  16.050 +0.04 -0.06    -0.248    32.110
ATOM     26  N   UNL d   1      39.065  31.075  14.483 -0.22 -0.04    -0.248    32.110
ATOM     27  N   UNL d   1      38.463  28.269  13.781 -0.20 -0.05    -0.248    32.110
ATOM     28  N   UNL d   1      40.767  27.516  15.437 -0.17 -0.06    -0.248    32.110
ATOM     29 FE   UNL d   1      39.747  29.174  14.848 -0.08 +0.00    +0.000    32.110
ATOM     30  C   UNL d   1      43.956  30.424  18.609 -0.33 +0.02    +0.052    32.110
ATOM     31  C   UNL d   1      43.420  29.720  19.855 +0.13 +0.07    +0.115    32.110
ATOM     32  C   UNL d   1      44.134  28.415  20.134 -0.18 +0.13    +0.139    32.110
ATOM     33  O   UNL d   1      45.023  28.044  19.382 +0.00 -0.43    -0.650    32.110
ATOM     34  O   UNL d   1      43.853  27.662  21.223 -0.26 -1.35    -0.776    32.110
ATOM     35  H   UNL d   1      43.854  26.695  21.230 +0.05 +0.23    +0.167    32.110
ATOM     36  C   UNL d   1      38.551  29.076  16.567 -0.10 +0.05    +0.190    32.110
ATOM     37  O   UNL d   1      37.549  28.322  17.186 -0.57 -0.09    -0.399    32.110
ATOM     38  H   UNL d   1      37.641  27.407  16.799 +0.12 +0.05    +0.209    32.110
ATOM     39  C   UNL d   1      43.119  25.243  17.240 -0.32 +0.01    +0.052    32.110
ATOM     40  C   UNL d   1      42.523  24.789  18.582 -0.37 +0.03    +0.115    32.110
ATOM     41  C   UNL d   1      43.548  24.328  19.597 -0.29 +0.06    +0.139    32.110
ATOM     42  O   UNL d   1      43.820  23.139  19.675 -0.42 -0.28    -0.650    32.110
ATOM     43  O   UNL d   1      44.235  25.206  20.362 +0.06 -0.48    -0.776    32.110
ATOM     44  H   UNL d   1      44.586  26.035  20.012 +0.06 +0.12    +0.167    32.110
ATOM     45  C   UNL d   1      36.598  33.081  12.534 -0.55 +0.00    +0.004    32.110
ATOM     46  C   UNL d   1      35.273  33.008  12.636 -0.65 +0.00    +0.012    32.110
ATOM     47  C   UNL d   1      36.671  25.268  12.700 -0.65 +0.00    +0.004    32.110
ATOM     48  C   UNL d   1      35.870  24.616  13.547 -0.70 +0.00    +0.012    32.110
TER
ENDMDL
MODEL       10
USER    Run = 10
USER    Cluster Rank = 2
USER    Number of conformations in this cluster = 5
USER  
USER    RMSD from reference structure       = 1.547 A
USER  
USER    Estimated Free Energy of Binding    =  -11.87 kcal/mol  [=(1)+(2)+(3)-(4)]
USER    Estimated Inhibition Constant, Ki   =    1.98 nM (nanomolar)  [Temperature = 298.15 K]
USER    
USER    (1) Final Intermolecular Energy     =  -15.45 kcal/mol
USER        vdW + Hbond + desolv Energy     =  -15.07 kcal/mol
USER        Electrostatic Energy            =   -0.39 kcal/mol
USER    (2) Final Total Internal Energy     =   -0.71 kcal/mol
USER    (3) Torsional Free Energy           =   +3.58 kcal/mol
USER    (4) Unbound System's Energy  [=(2)] =   -0.71 kcal/mol
USER    
USER    
USER  
USER    DPF = D:/Protein_go_brrr/autodock/final/6BB5/heme_Co/dock.dpf
USER    NEWDPF move	heme_Co_opt.pdbqt
USER    NEWDPF about	8.781000 34.984000 -0.736000
USER    NEWDPF tran0	8.847728 34.543125 -0.331576
USER    NEWDPF axisangle0	0.500722 0.029977 -0.865089 -3.649670
USER    NEWDPF quaternion0	0.015945 0.000955 -0.027548 -0.999493
USER    NEWDPF dihe0	-124.21 132.89 91.30 55.47 -88.89 35.29 114.00 -66.07 50.29 -57.22 -33.61 -175.84 
USER  
USER                              x       y       z    vdW   Elec        q     RMS 
ATOM      1  C   UNL d   1       6.942  35.175  -1.160 -0.11 +0.01    +0.064     1.547
ATOM      2  C   UNL d   1       8.057  32.332   2.485 -0.46 +0.00    +0.064     1.547
ATOM      3  C   UNL d   1      12.696  32.702   1.405 -0.38 +0.00    +0.064     1.547
ATOM      4  C   UNL d   1      11.614  35.914  -2.085 -0.42 +0.00    +0.064     1.547
ATOM      5  C   UNL d   1       6.903  34.342  -0.107 -0.25 +0.01    +0.066     1.547
ATOM      6  C   UNL d   1       5.700  34.033   0.558 -0.35 -0.00    -0.021     1.547
ATOM      7  C   UNL d   1       6.032  33.226   1.628 -0.42 -0.00    -0.025     1.547
ATOM      8  C   UNL d   1       7.420  33.064   1.562 -0.36 +0.01    +0.066     1.547
ATOM      9  C   UNL d   1       5.091  32.624   2.683 -0.49 +0.00    +0.051     1.547
ATOM     10  C   UNL d   1       9.477  32.087   2.483 -0.39 +0.00    +0.066     1.547
ATOM     11  C   UNL d   1      10.185  31.216   3.340 -0.46 -0.00    -0.021     1.547
ATOM     12  C   UNL d   1      11.535  31.341   3.000 -0.45 +0.00    +0.000     1.547
ATOM     13  C   UNL d   1      11.550  32.266   1.956 -0.37 +0.00    +0.070     1.547
ATOM     14  C   UNL d   1       9.581  30.266   4.343 -0.61 +0.00    +0.052     1.547
ATOM     15  C   UNL d   1      12.898  33.687   0.360 -0.41 +0.00    +0.066     1.547
ATOM     16  C   UNL d   1      14.116  34.200  -0.064 -0.48 -0.00    -0.021     1.547
ATOM     17  C   UNL d   1      13.808  35.128  -1.068 -0.45 +0.00    +0.000     1.547
ATOM     18  C   UNL d   1      12.423  35.097  -1.190 -0.39 +0.00    +0.070     1.547
ATOM     19  C   UNL d   1      15.470  33.805   0.480 -0.38 +0.00    +0.052     1.547
ATOM     20  C   UNL d   1      10.262  35.963  -2.160 -0.40 +0.00    +0.066     1.547
ATOM     21  C   UNL d   1       9.597  36.818  -3.036 -0.44 -0.00    -0.025     1.547
ATOM     22  C   UNL d   1       8.248  36.605  -2.812 -0.37 -0.00    -0.021     1.547
ATOM     23  C   UNL d   1       8.158  35.633  -1.794 -0.30 +0.01    +0.066     1.547
ATOM     24  C   UNL d   1      10.214  37.803  -4.025 -0.53 -0.01    +0.051     1.547
ATOM     25  N   UNL d   1       7.985  33.739   0.493 +0.05 -0.04    -0.248     1.547
ATOM     26  N   UNL d   1      10.300  32.674   1.607 -0.25 -0.01    -0.248     1.547
ATOM     27  N   UNL d   1      11.912  34.250  -0.303 -0.20 -0.02    -0.248     1.547
ATOM     28  N   UNL d   1       9.374  35.243  -1.394 +0.08 -0.06    -0.248     1.547
ATOM     29 FE   UNL d   1      10.064  34.011   0.068 -0.08 +0.00    +0.000     1.547
ATOM     30  C   UNL d   1       4.311  34.564   0.218 -0.30 +0.01    +0.052     1.547
ATOM     31  C   UNL d   1       4.014  34.376  -1.269 -0.19 +0.02    +0.115     1.547
ATOM     32  C   UNL d   1       3.475  35.635  -1.914 -0.14 +0.04    +0.139     1.547
ATOM     33  O   UNL d   1       3.060  36.541  -1.207 -0.02 -0.34    -0.650     1.547
ATOM     34  O   UNL d   1       3.480  35.813  -3.255 +0.05 -0.15    -0.776     1.547
ATOM     35  H   UNL d   1       3.841  36.594  -3.698 +0.04 +0.03    +0.167     1.547
ATOM     36  C   UNL d   1      10.024  35.589   1.449 -0.26 +0.03    +0.190     1.547
ATOM     37  O   UNL d   1      10.235  36.966   1.573 -0.31 -0.05    -0.399     1.547
ATOM     38  H   UNL d   1      10.171  37.320   0.643 +0.12 +0.03    +0.209     1.547
ATOM     39  C   UNL d   1       7.116  37.347  -3.497 -0.29 +0.00    +0.052     1.547
ATOM     40  C   UNL d   1       6.987  38.774  -2.940 -0.32 +0.00    +0.115     1.547
ATOM     41  C   UNL d   1       7.233  39.867  -3.959 -0.30 -0.01    +0.139     1.547
ATOM     42  O   UNL d   1       6.397  40.074  -4.828 +0.05 -0.00    -0.650     1.547
ATOM     43  O   UNL d   1       8.310  40.680  -3.883 +0.01 +0.19    -0.776     1.547
ATOM     44  H   UNL d   1       9.113  40.526  -4.397 -0.46 -0.11    +0.167     1.547
ATOM     45  C   UNL d   1      12.803  30.682   3.526 -0.65 +0.00    +0.004     1.547
ATOM     46  C   UNL d   1      13.074  29.404   3.780 -0.76 +0.00    +0.012     1.547
ATOM     47  C   UNL d   1      14.712  36.032  -1.841 -0.58 +0.00    +0.004     1.547
ATOM     48  C   UNL d   1      14.731  37.359  -1.692 -0.67 +0.00    +0.012     1.547
TER
ENDMDL
MODEL       40
USER    Run = 40
USER    Cluster Rank = 3
USER    Number of conformations in this cluster = 1
USER  
USER    RMSD from reference structure       = 31.456 A
USER  
USER    Estimated Free Energy of Binding    =  -11.01 kcal/mol  [=(1)+(2)+(3)-(4)]
USER    Estimated Inhibition Constant, Ki   =    8.45 nM (nanomolar)  [Temperature = 298.15 K]
USER    
USER    (1) Final Intermolecular Energy     =  -14.59 kcal/mol
USER        vdW + Hbond + desolv Energy     =  -14.21 kcal/mol
USER        Electrostatic Energy            =   -0.38 kcal/mol
USER    (2) Final Total Internal Energy     =   -0.73 kcal/mol
USER    (3) Torsional Free Energy           =   +3.58 kcal/mol
USER    (4) Unbound System's Energy  [=(2)] =   -0.73 kcal/mol
USER    
USER    
USER  
USER    DPF = D:/Protein_go_brrr/autodock/final/6BB5/heme_Co/dock.dpf
USER    NEWDPF move	heme_Co_opt.pdbqt
USER    NEWDPF about	8.781000 34.984000 -0.736000
USER    NEWDPF tran0	40.008910 30.548321 15.502733
USER    NEWDPF axisangle0	-0.645991 0.530885 0.548504 114.264118
USER    NEWDPF quaternion0	-0.542583 0.445903 0.460701 0.542705
USER    NEWDPF dihe0	90.41 114.12 104.95 -96.31 -64.39 -72.02 -175.10 180.00 66.95 69.84 33.71 -48.43 
USER  
USER                              x       y       z    vdW   Elec        q     RMS 
ATOM      1  C   UNL d   1      40.509  32.597  16.021 -0.41 +0.01    +0.064    31.456
ATOM      2  C   UNL d   1      37.015  30.728  13.392 -0.05 +0.01    +0.064    31.456
ATOM      3  C   UNL d   1      38.915  26.373  13.895 -0.39 +0.01    +0.064    31.456
ATOM      4  C   UNL d   1      42.275  28.200  16.900 -0.03 +0.02    +0.064    31.456
ATOM      5  C   UNL d   1      39.435  32.412  15.236 -0.38 +0.01    +0.066    31.456
ATOM      6  C   UNL d   1      38.556  33.463  14.911 -0.42 -0.00    -0.021    31.456
ATOM      7  C   UNL d   1      37.532  32.911  14.167 -0.38 -0.00    -0.025    31.456
ATOM      8  C   UNL d   1      37.838  31.550  14.056 -0.33 +0.01    +0.066    31.456
ATOM      9  C   UNL d   1      36.306  33.624  13.577 -0.50 +0.00    +0.051    31.456
ATOM     10  C   UNL d   1      37.260  29.320  13.203 -0.36 +0.01    +0.066    31.456
ATOM     11  C   UNL d   1      36.510  28.434  12.401 -0.55 -0.00    -0.021    31.456
ATOM     12  C   UNL d   1      37.088  27.172  12.562 -0.50 +0.00    +0.000    31.456
ATOM     13  C   UNL d   1      38.153  27.383  13.439 -0.38 +0.01    +0.070    31.456
ATOM     14  C   UNL d   1      35.381  28.807  11.475 -0.37 +0.00    +0.052    31.456
ATOM     15  C   UNL d   1      40.015  26.404  14.838 -0.39 +0.01    +0.066    31.456
ATOM     16  C   UNL d   1      40.667  25.305  15.378 -0.41 -0.00    -0.021    31.456
ATOM     17  C   UNL d   1      41.636  25.827  16.248 -0.39 +0.00    +0.000    31.456
ATOM     18  C   UNL d   1      41.509  27.209  16.156 -0.32 +0.01    +0.070    31.456
ATOM     19  C   UNL d   1      40.358  23.859  15.062 -0.54 +0.01    +0.052    31.456
ATOM     20  C   UNL d   1      42.111  29.545  16.893 -0.27 +0.01    +0.066    31.456
ATOM     21  C   UNL d   1      42.887  30.393  17.680 -0.34 -0.01    -0.025    31.456
ATOM     22  C   UNL d   1      42.420  31.670  17.425 -0.42 -0.00    -0.021    31.456
ATOM     23  C   UNL d   1      41.366  31.535  16.497 -0.38 +0.01    +0.066    31.456
ATOM     24  C   UNL d   1      44.006  30.005  18.643 -0.31 +0.02    +0.051    31.456
ATOM     25  N   UNL d   1      39.015  31.214  14.703 -0.23 -0.03    -0.248    31.456
ATOM     26  N   UNL d   1      38.289  28.692  13.782 -0.20 -0.05    -0.248    31.456
ATOM     27  N   UNL d   1      40.514  27.516  15.331 -0.18 -0.07    -0.248    31.456
ATOM     28  N   UNL d   1      41.174  30.250  16.174 -0.08 -0.06    -0.248    31.456
ATOM     29 FE   UNL d   1      39.811  29.257  15.038 -0.02 +0.00    +0.000    31.456
ATOM     30  C   UNL d   1      38.664  34.913  15.370 -0.57 +0.00    +0.052    31.456
ATOM     31  C   UNL d   1      38.843  35.845  14.172 -0.40 +0.01    +0.115    31.456
ATOM     32  C   UNL d   1      40.188  36.538  14.175 -0.54 +0.01    +0.139    31.456
ATOM     33  O   UNL d   1      41.209  35.869  14.228 +0.02 -0.07    -0.650    31.456
ATOM     34  O   UNL d   1      40.303  37.883  14.072 +0.02 -0.02    -0.776    31.456
ATOM     35  H   UNL d   1      40.262  38.491  14.823 -0.05 -0.02    +0.167    31.456
ATOM     36  C   UNL d   1      38.507  29.128  16.673 -0.06 +0.05    +0.190    31.456
ATOM     37  O   UNL d   1      37.575  28.287  17.292 -0.55 -0.10    -0.399    31.456
ATOM     38  H   UNL d   1      37.562  27.462  16.732 +0.12 +0.04    +0.209    31.456
ATOM     39  C   UNL d   1      42.920  32.938  18.090 -0.45 +0.01    +0.052    31.456
ATOM     40  C   UNL d   1      44.448  33.052  17.963 -0.13 +0.02    +0.115    31.456
ATOM     41  C   UNL d   1      45.191  33.002  19.282 -0.24 +0.03    +0.139    31.456
ATOM     42  O   UNL d   1      44.746  33.615  20.242 -0.03 -0.11    -0.650    31.456
ATOM     43  O   UNL d   1      46.285  32.228  19.452 +0.05 -0.21    -0.776    31.456
ATOM     44  H   UNL d   1      47.170  32.599  19.571 +0.04 +0.04    +0.167    31.456
ATOM     45  C   UNL d   1      36.771  25.801  11.978 -0.39 +0.00    +0.004    31.456
ATOM     46  C   UNL d   1      36.186  24.740  12.527 -0.70 +0.00    +0.012    31.456
ATOM     47  C   UNL d   1      42.590  25.116  17.150 -0.39 +0.00    +0.004    31.456
ATOM     48  C   UNL d   1      42.281  24.724  18.389 -0.43 +0.00    +0.012    31.456
TER
ENDMDL
MODEL       95
USER    Run = 95
USER    Cluster Rank = 4
USER    Number of conformations in this cluster = 21
USER  
USER    RMSD from reference structure       = 37.431 A
USER  
USER    Estimated Free Energy of Binding    =   -9.17 kcal/mol  [=(1)+(2)+(3)-(4)]
USER    Estimated Inhibition Constant, Ki   =  189.49 nM (nanomolar)  [Temperature = 298.15 K]
USER    
USER    (1) Final Intermolecular Energy     =  -12.75 kcal/mol
USER        vdW + Hbond + desolv Energy     =   -9.45 kcal/mol
USER        Electrostatic Energy            =   -3.30 kcal/mol
USER    (2) Final Total Internal Energy     =   -1.68 kcal/mol
USER    (3) Torsional Free Energy           =   +3.58 kcal/mol
USER    (4) Unbound System's Energy  [=(2)] =   -1.68 kcal/mol
USER    
USER    
USER  
USER    DPF = D:/Protein_go_brrr/autodock/final/6BB5/heme_Co/dock.dpf
USER    NEWDPF move	heme_Co_opt.pdbqt
USER    NEWDPF about	8.781000 34.984000 -0.736000
USER    NEWDPF tran0	45.581832 27.643935 18.019886
USER    NEWDPF axisangle0	-0.252680 0.352622 0.901005 178.274658
USER    NEWDPF quaternion0	-0.252651 0.352582 0.900903 0.015056
USER    NEWDPF dihe0	19.44 91.29 71.56 43.70 98.84 146.74 -135.52 -151.70 155.95 57.07 -154.72 27.44 
USER  
USER                              x       y       z    vdW   Elec        q     RMS 
ATOM      1  C   UNL d   1      47.590  27.133  18.671 -0.08 +0.03    +0.064    37.431
ATOM      2  C   UNL d   1      45.154  31.216  18.731 -0.25 +0.02    +0.064    37.431
ATOM      3  C   UNL d   1      41.547  29.143  16.381 -0.22 +0.02    +0.064    37.431
ATOM      4  C   UNL d   1      43.850  24.866  16.647 -0.19 +0.02    +0.064    37.431
ATOM      5  C   UNL d   1      47.204  28.410  18.828 -0.09 +0.03    +0.066    37.431
ATOM      6  C   UNL d   1      47.978  29.341  19.548 -0.07 -0.01    -0.021    37.431
ATOM      7  C   UNL d   1      47.256  30.518  19.582 -0.10 -0.01    -0.025    37.431
ATOM      8  C   UNL d   1      46.081  30.260  18.867 -0.15 +0.03    +0.066    37.431
ATOM      9  C   UNL d   1      47.644  31.842  20.257 -0.09 +0.02    +0.051    37.431
ATOM     10  C   UNL d   1      43.927  31.051  17.992 -0.27 +0.02    +0.066    37.431
ATOM     11  C   UNL d   1      42.980  32.055  17.693 -0.37 -0.00    -0.021    37.431
ATOM     12  C   UNL d   1      41.941  31.424  17.004 -0.43 +0.00    +0.000    37.431
ATOM     13  C   UNL d   1      42.335  30.088  16.922 -0.32 +0.01    +0.070    37.431
ATOM     14  C   UNL d   1      43.125  33.529  17.972 -0.37 +0.00    +0.052    37.431
ATOM     15  C   UNL d   1      41.772  27.716  16.261 -0.29 +0.01    +0.066    37.431
ATOM     16  C   UNL d   1      40.854  26.772  15.822 -0.40 -0.00    -0.021    37.431
ATOM     17  C   UNL d   1      41.513  25.536  15.899 -0.40 +0.00    +0.000    37.431
ATOM     18  C   UNL d   1      42.791  25.827  16.365 -0.28 +0.02    +0.070    37.431
ATOM     19  C   UNL d   1      39.443  27.067  15.365 -0.43 +0.01    +0.052    37.431
ATOM     20  C   UNL d   1      45.069  25.116  17.181 -0.20 +0.03    +0.066    37.431
ATOM     21  C   UNL d   1      45.989  24.102  17.439 -0.17 -0.01    -0.025    37.431
ATOM     22  C   UNL d   1      47.089  24.729  17.996 -0.12 -0.01    -0.021    37.431
ATOM     23  C   UNL d   1      46.777  26.104  18.062 -0.12 +0.03    +0.066    37.431
ATOM     24  C   UNL d   1      45.822  22.606  17.187 -0.20 +0.03    +0.051    37.431
ATOM     25  N   UNL d   1      46.025  28.964  18.384 -0.08 -0.10    -0.248    37.431
ATOM     26  N   UNL d   1      43.561  29.875  17.470 -0.18 -0.07    -0.248    37.431
ATOM     27  N   UNL d   1      42.899  27.131  16.599 -0.21 -0.06    -0.248    37.431
ATOM     28  N   UNL d   1      45.555  26.342  17.572 -0.11 -0.10    -0.248    37.431
ATOM     29 FE   UNL d   1      44.371  27.990  17.438 -0.06 +0.00    +0.000    37.431
ATOM     30  C   UNL d   1      49.312  29.075  20.238 -0.03 +0.02    +0.052    37.431
ATOM     31  C   UNL d   1      49.113  28.190  21.468 -0.03 +0.06    +0.115    37.431
ATOM     32  C   UNL d   1      47.722  28.315  22.050 -0.02 +0.16    +0.139    37.431
ATOM     33  O   UNL d   1      46.859  27.513  21.724 -0.52 -1.05    -0.650    37.431
ATOM     34  O   UNL d   1      47.409  29.262  22.965 -0.12 -1.06    -0.776    37.431
ATOM     35  H   UNL d   1      47.956  30.038  23.153 +0.01 +0.13    +0.167    37.431
ATOM     36  C   UNL d   1      43.623  27.637  19.364 +0.29 +0.11    +0.190    37.431
ATOM     37  O   UNL d   1      43.947  27.737  20.721 -0.38 -0.51    -0.399    37.431
ATOM     38  H   UNL d   1      44.944  27.754  20.746 +0.05 +0.29    +0.209    37.431
ATOM     39  C   UNL d   1      48.340  24.032  18.496 -0.09 +0.03    +0.052    37.431
ATOM     40  C   UNL d   1      49.599  24.680  17.896 -0.11 +0.08    +0.115    37.431
ATOM     41  C   UNL d   1      50.555  23.702  17.246 -0.04 +0.16    +0.139    37.431
ATOM     42  O   UNL d   1      50.417  22.504  17.451 -0.11 -1.02    -0.650    37.431
ATOM     43  O   UNL d   1      51.505  24.110  16.376 +0.00 -0.76    -0.776    37.431
ATOM     44  H   UNL d   1      52.329  24.525  16.663 +0.01 +0.10    +0.167    37.431
ATOM     45  C   UNL d   1      40.638  31.930  16.400 -0.49 +0.00    +0.004    37.431
ATOM     46  C   UNL d   1      40.350  33.084  15.804 -0.53 +0.00    +0.012    37.431
ATOM     47  C   UNL d   1      41.000  24.163  15.616 -0.53 +0.00    +0.004    37.431
ATOM     48  C   UNL d   1      40.838  23.676  14.384 -0.61 +0.00    +0.012    37.431
TER
ENDMDL
MODEL       27
USER    Run = 27
USER    Cluster Rank = 5
USER    Number of conformations in this cluster = 4
USER  
USER    RMSD from reference structure       = 36.452 A
USER  
USER    Estimated Free Energy of Binding    =   -8.38 kcal/mol  [=(1)+(2)+(3)-(4)]
USER    Estimated Inhibition Constant, Ki   =  720.46 nM (nanomolar)  [Temperature = 298.15 K]
USER    
USER    (1) Final Intermolecular Energy     =  -11.96 kcal/mol
USER        vdW + Hbond + desolv Energy     =   -9.32 kcal/mol
USER        Electrostatic Energy            =   -2.64 kcal/mol
USER    (2) Final Total Internal Energy     =   -2.04 kcal/mol
USER    (3) Torsional Free Energy           =   +3.58 kcal/mol
USER    (4) Unbound System's Energy  [=(2)] =   -2.04 kcal/mol
USER    
USER    
USER  
USER    DPF = D:/Protein_go_brrr/autodock/final/6BB5/heme_Co/dock.dpf
USER    NEWDPF move	heme_Co_opt.pdbqt
USER    NEWDPF about	8.781000 34.984000 -0.736000
USER    NEWDPF tran0	44.204695 24.681168 17.449983
USER    NEWDPF axisangle0	-0.226792 0.287107 0.930664 -152.388425
USER    NEWDPF quaternion0	-0.220240 0.278813 0.903777 -0.238632
USER    NEWDPF dihe0	-154.97 97.17 26.35 -27.17 39.59 143.72 33.11 100.72 -175.02 -82.23 -176.44 -40.73 
USER  
USER                              x       y       z    vdW   Elec        q     RMS 
ATOM      1  C   UNL d   1      45.680  23.202  18.041 -0.14 +0.03    +0.064    36.452
ATOM      2  C   UNL d   1      45.171  27.809  19.104 -0.20 +0.04    +0.064    36.452
ATOM      3  C   UNL d   1      41.490  28.139  16.076 -0.13 +0.02    +0.064    36.452
ATOM      4  C   UNL d   1      41.745  23.349  15.265 -0.36 +0.01    +0.064    36.452
ATOM      5  C   UNL d   1      45.835  24.445  18.527 -0.10 +0.03    +0.066    36.452
ATOM      6  C   UNL d   1      46.788  24.747  19.519 -0.05 -0.01    -0.021    36.452
ATOM      7  C   UNL d   1      46.620  26.080  19.840 -0.07 -0.02    -0.025    36.452
ATOM      8  C   UNL d   1      45.584  26.538  19.019 -0.11 +0.04    +0.066    36.452
ATOM      9  C   UNL d   1      47.397  26.904  20.878 -0.07 +0.04    +0.051    36.452
ATOM     10  C   UNL d   1      44.131  28.376  18.282 -0.22 +0.03    +0.066    36.452
ATOM     11  C   UNL d   1      43.748  29.734  18.224 -0.29 -0.01    -0.021    36.452
ATOM     12  C   UNL d   1      42.676  29.802  17.330 -0.32 +0.00    +0.000    36.452
ATOM     13  C   UNL d   1      42.492  28.487  16.901 -0.20 +0.02    +0.070    36.452
ATOM     14  C   UNL d   1      44.437  30.885  18.911 -0.30 +0.02    +0.052    36.452
ATOM     15  C   UNL d   1      41.124  26.828  15.576 -0.36 +0.01    +0.066    36.452
ATOM     16  C   UNL d   1      39.989  26.515  14.841 -0.41 -0.00    -0.021    36.452
ATOM     17  C   UNL d   1      40.057  25.134  14.607 -0.48 +0.00    +0.000    36.452
ATOM     18  C   UNL d   1      41.241  24.715  15.205 -0.37 +0.01    +0.070    36.452
ATOM     19  C   UNL d   1      38.925  27.499  14.409 -0.36 +0.01    +0.052    36.452
ATOM     20  C   UNL d   1      42.848  22.905  15.913 +0.22 +0.01    +0.066    36.452
ATOM     21  C   UNL d   1      43.210  21.560  15.928 -0.20 -0.00    -0.025    36.452
ATOM     22  C   UNL d   1      44.357  21.491  16.697 -0.22 -0.01    -0.021    36.452
ATOM     23  C   UNL d   1      44.634  22.807  17.127 -0.18 +0.03    +0.066    36.452
ATOM     24  C   UNL d   1      42.488  20.393  15.260 -0.07 +0.00    +0.051    36.452
ATOM     25  N   UNL d   1      45.083  25.548  18.191 -0.07 -0.11    -0.248    36.452
ATOM     26  N   UNL d   1      43.409  27.636  17.434 -0.15 -0.08    -0.248    36.452
ATOM     27  N   UNL d   1      41.835  25.745  15.798 -0.23 -0.05    -0.248    36.452
ATOM     28  N   UNL d   1      43.721  23.665  16.656 -0.08 -0.08    -0.248    36.452
ATOM     29 FE   UNL d   1      43.363  25.649  16.922 -0.06 +0.00    +0.000    36.452
ATOM     30  C   UNL d   1      47.754  23.769  20.179 -0.03 +0.03    +0.052    36.452
ATOM     31  C   UNL d   1      47.144  23.190  21.456 -0.04 +0.05    +0.115    36.452
ATOM     32  C   UNL d   1      45.729  23.673  21.690 -0.13 +0.07    +0.139    36.452
ATOM     33  O   UNL d   1      45.533  24.622  22.434 +0.02 -0.55    -0.650    36.452
ATOM     34  O   UNL d   1      44.668  23.116  21.061 -0.50 -0.40    -0.776    36.452
ATOM     35  H   UNL d   1      43.812  23.552  20.948 +0.06 +0.08    +0.167    36.452
ATOM     36  C   UNL d   1      42.219  25.237  18.630 -0.21 +0.05    +0.190    36.452
ATOM     37  O   UNL d   1      42.315  24.829  19.964 -0.16 -0.13    -0.399    36.452
ATOM     38  H   UNL d   1      43.232  24.445  20.049 +0.10 +0.09    +0.209    36.452
ATOM     39  C   UNL d   1      45.105  20.219  17.051 -0.17 +0.02    +0.052    36.452
ATOM     40  C   UNL d   1      45.606  19.513  15.780 -0.14 +0.06    +0.115    36.452
ATOM     41  C   UNL d   1      47.009  19.900  15.362 -0.06 +0.17    +0.139    36.452
ATOM     42  O   UNL d   1      47.190  20.389  14.255 -0.53 -1.07    -0.650    36.452
ATOM     43  O   UNL d   1      48.056  19.802  16.211 +0.12 -1.26    -0.776    36.452
ATOM     44  H   UNL d   1      48.112  19.115  16.888 +0.02 +0.16    +0.167    36.452
ATOM     45  C   UNL d   1      41.820  30.955  16.821 -0.45 +0.00    +0.004    36.452
ATOM     46  C   UNL d   1      41.388  32.051  17.439 -0.54 +0.00    +0.012    36.452
ATOM     47  C   UNL d   1      39.080  24.233  13.925 -0.52 +0.00    +0.004    36.452
ATOM     48  C   UNL d   1      38.115  24.672  13.112 -0.57 +0.00    +0.012    36.452
TER
ENDMDL
MODEL       20
USER    Run = 20
USER    Cluster Rank = 6
USER    Number of conformations in this cluster = 3
USER  
USER    RMSD from reference structure       = 5.254 A
USER  
USER    Estimated Free Energy of Binding    =   -8.28 kcal/mol  [=(1)+(2)+(3)-(4)]
USER    Estimated Inhibition Constant, Ki   =  856.84 nM (nanomolar)  [Temperature = 298.15 K]
USER    
USER    (1) Final Intermolecular Energy     =  -11.86 kcal/mol
USER        vdW + Hbond + desolv Energy     =   -9.74 kcal/mol
USER        Electrostatic Energy            =   -2.11 kcal/mol
USER    (2) Final Total Internal Energy     =   -0.66 kcal/mol
USER    (3) Torsional Free Energy           =   +3.58 kcal/mol
USER    (4) Unbound System's Energy  [=(2)] =   -0.66 kcal/mol
USER    
USER    
USER  
USER    DPF = D:/Protein_go_brrr/autodock/final/6BB5/heme_Co/dock.dpf
USER    NEWDPF move	heme_Co_opt.pdbqt
USER    NEWDPF about	8.781000 34.984000 -0.736000
USER    NEWDPF tran0	7.890053 39.501017 -5.316462
USER    NEWDPF axisangle0	-0.889899 0.013390 0.455962 -170.113182
USER    NEWDPF quaternion0	-0.886588 0.013341 0.454266 -0.086172
USER    NEWDPF dihe0	37.01 126.50 159.38 117.00 68.97 144.80 62.38 -134.23 29.84 -3.05 173.00 -39.75 
USER  
USER                              x       y       z    vdW   Elec        q     RMS 
ATOM      1  C   UNL d   1       7.386  38.764  -3.337 -0.31 -0.00    +0.064     5.254
ATOM      2  C   UNL d   1       5.396  42.068  -6.118 -0.05 +0.01    +0.064     5.254
ATOM      3  C   UNL d   1       8.918  41.559  -9.307 -0.14 -0.05    +0.064     5.254
ATOM      4  C   UNL d   1      10.760  37.910  -6.670 -0.09 -0.01    +0.064     5.254
ATOM      5  C   UNL d   1       6.603  39.730  -3.845 -0.24 +0.00    +0.066     5.254
ATOM      6  C   UNL d   1       5.403  40.124  -3.223 -0.23 -0.00    -0.021     5.254
ATOM      7  C   UNL d   1       4.818  41.066  -4.046 -0.16 -0.01    -0.025     5.254
ATOM      8  C   UNL d   1       5.694  41.219  -5.126 -0.16 +0.01    +0.066     5.254
ATOM      9  C   UNL d   1       3.486  41.803  -3.837 -0.12 +0.02    +0.051     5.254
ATOM     10  C   UNL d   1       6.248  42.311  -7.255 -0.10 +0.00    +0.066     5.254
ATOM     11  C   UNL d   1       6.061  43.289  -8.256 -0.08 -0.00    -0.021     5.254
ATOM     12  C   UNL d   1       7.104  43.120  -9.171 -0.14 -0.00    +0.000     5.254
ATOM     13  C   UNL d   1       7.855  42.064  -8.656 -0.16 -0.03    +0.070     5.254
ATOM     14  C   UNL d   1       5.004  44.363  -8.267 +0.07 +0.01    +0.052     5.254
ATOM     15  C   UNL d   1       9.771  40.443  -8.948 -0.22 -0.05    +0.066     5.254
ATOM     16  C   UNL d   1      10.764  39.880  -9.736 -0.22 +0.01    -0.021     5.254
ATOM     17  C   UNL d   1      11.297  38.825  -8.981 -0.36 -0.00    +0.000     5.254
ATOM     18  C   UNL d   1      10.596  38.840  -7.780 -0.34 -0.03    +0.070     5.254
ATOM     19  C   UNL d   1      11.153  40.344 -11.122 -0.13 -0.03    +0.052     5.254
ATOM     20  C   UNL d   1      10.032  37.850  -5.529 -0.30 -0.01    +0.066     5.254
ATOM     21  C   UNL d   1      10.262  36.887  -4.550 -0.40 +0.00    -0.025     5.254
ATOM     22  C   UNL d   1       9.323  37.126  -3.563 -0.42 +0.00    -0.021     5.254
ATOM     23  C   UNL d   1       8.553  38.226  -3.999 -0.35 -0.01    +0.066     5.254
ATOM     24  C   UNL d   1      11.311  35.778  -4.562 -0.23 +0.00    +0.051     5.254
ATOM     25  N   UNL d   1       6.811  40.408  -5.025 -0.12 +0.01    -0.248     5.254
ATOM     26  N   UNL d   1       7.369  41.613  -7.469 -0.11 +0.07    -0.248     5.254
ATOM     27  N   UNL d   1       9.675  39.797  -7.807 -0.20 +0.15    -0.248     5.254
ATOM     28  N   UNL d   1       8.978  38.666  -5.189 -0.20 +0.07    -0.248     5.254
ATOM     29 FE   UNL d   1       8.330  40.082  -6.496 -0.06 -0.00    +0.000     5.254
ATOM     30  C   UNL d   1       4.815  39.552  -1.937 -0.22 +0.02    +0.052     5.254
ATOM     31  C   UNL d   1       3.667  38.593  -2.251 -0.17 +0.06    +0.115     5.254
ATOM     32  C   UNL d   1       2.648  38.527  -1.134 -0.10 +0.17    +0.139     5.254
ATOM     33  O   UNL d   1       2.965  38.037  -0.060 -0.32 -1.05    -0.650     5.254
ATOM     34  O   UNL d   1       1.402  39.038  -1.267 -0.42 -1.36    -0.776     5.254
ATOM     35  H   UNL d   1       0.907  39.055  -2.098 +0.02 +0.15    +0.167     5.254
ATOM     36  C   UNL d   1       7.021  38.703  -7.379 -0.09 -0.02    +0.190     5.254
ATOM     37  O   UNL d   1       5.818  38.019  -7.173 -0.03 -0.00    -0.399     5.254
ATOM     38  H   UNL d   1       5.392  38.477  -6.395 +0.04 +0.01    +0.209     5.254
ATOM     39  C   UNL d   1       9.139  36.299  -2.305 -0.45 +0.00    +0.052     5.254
ATOM     40  C   UNL d   1      10.409  36.338  -1.439 -0.26 +0.01    +0.115     5.254
ATOM     41  C   UNL d   1      10.251  35.713  -0.069 -0.38 +0.03    +0.139     5.254
ATOM     42  O   UNL d   1       9.193  35.174   0.224 -1.00 -0.20    -0.650     5.254
ATOM     43  O   UNL d   1      11.277  35.658   0.809 +0.06 -0.08    -0.776     5.254
ATOM     44  H   UNL d   1      11.149  35.451   1.744 +0.10 +0.02    +0.167     5.254
ATOM     45  C   UNL d   1       7.485  43.844 -10.455 -0.11 -0.00    +0.004     5.254
ATOM     46  C   UNL d   1       8.495  44.671 -10.716 -0.17 -0.01    +0.012     5.254
ATOM     47  C   UNL d   1      12.347  37.827  -9.344 -0.28 -0.00    +0.004     5.254
ATOM     48  C   UNL d   1      13.512  38.155  -9.908 -0.39 +0.00    +0.012     5.254
TER
ENDMDL
MODEL       74
USER    Run = 74
USER    Cluster Rank = 7
USER    Number of conformations in this cluster = 2
USER  
USER    RMSD from reference structure       = 37.311 A
USER  
USER    Estimated Free Energy of Binding    =   -8.06 kcal/mol  [=(1)+(2)+(3)-(4)]
USER    Estimated Inhibition Constant, Ki   =    1.23 uM (micromolar)  [Temperature = 298.15 K]
USER    
USER    (1) Final Intermolecular Energy     =  -11.64 kcal/mol
USER        vdW + Hbond + desolv Energy     =   -8.28 kcal/mol
USER        Electrostatic Energy            =   -3.36 kcal/mol
USER    (2) Final Total Internal Energy     =   -2.09 kcal/mol
USER    (3) Torsional Free Energy           =   +3.58 kcal/mol
USER    (4) Unbound System's Energy  [=(2)] =   -2.09 kcal/mol
USER    
USER    
USER  
USER    DPF = D:/Protein_go_brrr/autodock/final/6BB5/heme_Co/dock.dpf
USER    NEWDPF move	heme_Co_opt.pdbqt
USER    NEWDPF about	8.781000 34.984000 -0.736000
USER    NEWDPF tran0	44.804218 25.458940 18.630321
USER    NEWDPF axisangle0	0.557425 0.819670 -0.131978 -175.725344
USER    NEWDPF quaternion0	0.557037 0.819100 -0.131886 -0.037295
USER    NEWDPF dihe0	159.44 116.64 48.06 15.97 56.91 139.85 -123.30 -174.77 -139.74 127.38 176.69 -1.85 
USER  
USER                              x       y       z    vdW   Elec        q     RMS 
ATOM      1  C   UNL d   1      46.066  24.103  19.764 -0.08 +0.03    +0.064    37.311
ATOM      2  C   UNL d   1      42.818  23.361  16.371 -0.31 +0.01    +0.064    37.311
ATOM      3  C   UNL d   1      41.718  28.010  16.354 -0.28 +0.01    +0.064    37.311
ATOM      4  C   UNL d   1      45.296  28.855  19.541 -0.19 +0.04    +0.064    37.311
ATOM      5  C   UNL d   1      45.234  23.553  18.864 -0.14 +0.03    +0.066    37.311
ATOM      6  C   UNL d   1      45.298  22.187  18.525 -0.16 -0.01    -0.021    37.311
ATOM      7  C   UNL d   1      44.368  21.982  17.524 -0.16 -0.01    -0.025    37.311
ATOM      8  C   UNL d   1      43.767  23.227  17.307 -0.24 +0.02    +0.066    37.311
ATOM      9  C   UNL d   1      44.048  20.671  16.789 -0.12 +0.01    +0.051    37.311
ATOM     10  C   UNL d   1      42.125  24.594  16.096 -0.31 +0.01    +0.066    37.311
ATOM     11  C   UNL d   1      41.025  24.769  15.228 -0.43 -0.00    -0.021    37.311
ATOM     12  C   UNL d   1      40.722  26.133  15.245 -0.44 +0.00    +0.000    37.311
ATOM     13  C   UNL d   1      41.649  26.687  16.129 -0.35 +0.01    +0.070    37.311
ATOM     14  C   UNL d   1      40.269  23.676  14.515 -0.54 +0.01    +0.052    37.311
ATOM     15  C   UNL d   1      42.640  28.754  17.190 +0.04 +0.02    +0.066    37.311
ATOM     16  C   UNL d   1      42.751  30.135  17.267 -0.34 -0.00    -0.021    37.311
ATOM     17  C   UNL d   1      43.784  30.384  18.182 -0.31 +0.00    +0.000    37.311
ATOM     18  C   UNL d   1      44.211  29.130  18.607 -0.24 +0.03    +0.070    37.311
ATOM     19  C   UNL d   1      41.908  31.127  16.497 -0.37 +0.01    +0.052    37.311
ATOM     20  C   UNL d   1      45.786  27.645  19.902 -0.14 +0.05    +0.066    37.311
ATOM     21  C   UNL d   1      46.857  27.509  20.782 -0.10 -0.02    -0.025    37.311
ATOM     22  C   UNL d   1      47.083  26.149  20.888 -0.06 -0.02    -0.021    37.311
ATOM     23  C   UNL d   1      46.138  25.518  20.051 -0.07 +0.04    +0.066    37.311
ATOM     24  C   UNL d   1      47.642  28.622  21.473 -0.09 +0.05    +0.051    37.311
ATOM     25  N   UNL d   1      44.280  24.217  18.127 -0.11 -0.09    -0.248    37.311
ATOM     26  N   UNL d   1      42.459  25.747  16.685 -0.20 -0.06    -0.248    37.311
ATOM     27  N   UNL d   1      43.529  28.183  17.972 -0.10 -0.09    -0.248    37.311
ATOM     28  N   UNL d   1      45.353  26.420  19.451 -0.07 -0.15    -0.248    37.311
ATOM     29 FE   UNL d   1      43.884  26.318  18.048 -0.05 +0.00    +0.000    37.311
ATOM     30  C   UNL d   1      46.269  21.155  19.087 -0.14 +0.02    +0.052    37.311
ATOM     31  C   UNL d   1      47.434  20.933  18.123 -0.11 +0.09    +0.115    37.311
ATOM     32  C   UNL d   1      47.888  22.216  17.461 -0.03 +0.19    +0.139    37.311
ATOM     33  O   UNL d   1      48.945  22.726  17.799 -0.33 -0.88    -0.650    37.311
ATOM     34  O   UNL d   1      47.181  22.799  16.465 -0.20 -1.04    -0.776    37.311
ATOM     35  H   UNL d   1      47.219  23.741  16.249 +0.04 +0.18    +0.167    37.311
ATOM     36  C   UNL d   1      45.310  26.414  16.514 +0.10 +0.07    +0.190    37.311
ATOM     37  O   UNL d   1      46.345  25.695  15.909 -0.02 -0.19    -0.399    37.311
ATOM     38  H   UNL d   1      46.354  24.814  16.377 +0.07 +0.12    +0.209    37.311
ATOM     39  C   UNL d   1      48.190  25.502  21.699 -0.02 +0.03    +0.052    37.311
ATOM     40  C   UNL d   1      47.650  24.996  23.047 -0.03 +0.08    +0.115    37.311
ATOM     41  C   UNL d   1      47.016  26.068  23.908 +0.15 +0.19    +0.139    37.311
ATOM     42  O   UNL d   1      47.498  27.192  23.915 -0.05 -0.98    -0.650    37.311
ATOM     43  O   UNL d   1      45.879  25.841  24.603 -0.10 -1.34    -0.776    37.311
ATOM     44  H   UNL d   1      45.787  25.105  25.223 +0.03 +0.16    +0.167    37.311
ATOM     45  C   UNL d   1      39.659  26.969  14.546 -0.42 +0.00    +0.004    37.311
ATOM     46  C   UNL d   1      38.617  26.602  13.805 -0.49 +0.00    +0.012    37.311
ATOM     47  C   UNL d   1      44.385  31.681  18.613 -0.34 +0.00    +0.004    37.311
ATOM     48  C   UNL d   1      43.684  32.809  18.750 -0.42 +0.00    +0.012    37.311
TER
ENDMDL
MODEL       77
USER    Run = 77
USER    Cluster Rank = 8
USER    Number of conformations in this cluster = 1
USER  
USER    RMSD from reference structure       = 7.200 A
USER  
USER    Estimated Free Energy of Binding    =   -8.01 kcal/mol  [=(1)+(2)+(3)-(4)]
USER    Estimated Inhibition Constant, Ki   =    1.35 uM (micromolar)  [Temperature = 298.15 K]
USER    
USER    (1) Final Intermolecular Energy     =  -11.59 kcal/mol
USER        vdW + Hbond + desolv Energy     =   -7.93 kcal/mol
USER        Electrostatic Energy            =   -3.66 kcal/mol
USER    (2) Final Total Internal Energy     =   -0.74 kcal/mol
USER    (3) Torsional Free Energy           =   +3.58 kcal/mol
USER    (4) Unbound System's Energy  [=(2)] =   -0.74 kcal/mol
USER    
USER    
USER  
USER    DPF = D:/Protein_go_brrr/autodock/final/6BB5/heme_Co/dock.dpf
USER    NEWDPF move	heme_Co_opt.pdbqt
USER    NEWDPF about	8.781000 34.984000 -0.736000
USER    NEWDPF tran0	6.117218 41.815530 -6.661341
USER    NEWDPF axisangle0	-0.078858 -0.996256 0.035418 62.081139
USER    NEWDPF quaternion0	-0.040663 -0.513715 0.018263 0.856802
USER    NEWDPF dihe0	23.82 -144.44 -92.03 91.14 -88.16 -164.44 151.21 150.06 -51.77 84.48 -3.84 -176.32 
USER  
USER                              x       y       z    vdW   Elec        q     RMS 
ATOM      1  C   UNL d   1       4.494  42.367  -5.328 -0.09 +0.02    +0.064     7.200
ATOM      2  C   UNL d   1       8.176  39.401  -4.823 -0.31 -0.01    +0.064     7.200
ATOM      3  C   UNL d   1       9.440  40.134  -9.372 -0.16 -0.04    +0.064     7.200
ATOM      4  C   UNL d   1       5.917  43.461  -9.800 -0.05 -0.00    +0.064     7.200
ATOM      5  C   UNL d   1       5.386  41.475  -4.867 -0.16 +0.01    +0.066     7.200
ATOM      6  C   UNL d   1       5.392  41.052  -3.523 -0.17 -0.00    -0.021     7.200
ATOM      7  C   UNL d   1       6.476  40.209  -3.377 -0.30 -0.00    -0.025     7.200
ATOM      8  C   UNL d   1       7.075  40.141  -4.639 -0.25 -0.00    +0.066     7.200
ATOM      9  C   UNL d   1       6.944  39.488  -2.103 -0.28 +0.00    +0.051     7.200
ATOM     10  C   UNL d   1       8.845  39.250  -6.090 -0.05 -0.03    +0.066     7.200
ATOM     11  C   UNL d   1       9.919  38.380  -6.379 -0.22 +0.01    -0.021     7.200
ATOM     12  C   UNL d   1      10.265  38.611  -7.714 -0.34 -0.00    +0.000     7.200
ATOM     13  C   UNL d   1       9.371  39.593  -8.142 -0.24 -0.03    +0.070     7.200
ATOM     14  C   UNL d   1      10.496  37.337  -5.456 -0.27 -0.00    +0.052     7.200
ATOM     15  C   UNL d   1       8.636  41.188  -9.959 -0.10 -0.04    +0.066     7.200
ATOM     16  C   UNL d   1       8.852  41.802 -11.184 -0.07 +0.01    -0.021     7.200
ATOM     17  C   UNL d   1       7.840  42.764 -11.312 -0.05 -0.00    +0.000     7.200
ATOM     18  C   UNL d   1       7.074  42.649 -10.157 -0.05 -0.02    +0.070     7.200
ATOM     19  C   UNL d   1       9.968  41.466 -12.149 -0.06 -0.03    +0.052     7.200
ATOM     20  C   UNL d   1       5.209  43.426  -8.646 -0.07 +0.00    +0.066     7.200
ATOM     21  C   UNL d   1       4.138  44.284  -8.405 -0.06 -0.00    -0.025     7.200
ATOM     22  C   UNL d   1       3.690  43.972  -7.134 -0.08 -0.01    -0.021     7.200
ATOM     23  C   UNL d   1       4.524  42.939  -6.655 -0.04 +0.02    +0.066     7.200
ATOM     24  C   UNL d   1       3.581  45.362  -9.331 -0.03 +0.01    +0.051     7.200
ATOM     25  N   UNL d   1       6.417  40.911  -5.583 -0.10 +0.00    -0.248     7.200
ATOM     26  N   UNL d   1       8.478  39.938  -7.177 -0.13 +0.10    -0.248     7.200
ATOM     27  N   UNL d   1       7.595  41.722  -9.361 -0.04 +0.09    -0.248     7.200
ATOM     28  N   UNL d   1       5.446  42.608  -7.566 -0.06 -0.02    -0.248     7.200
ATOM     29 FE   UNL d   1       7.038  41.342  -7.584 -0.03 -0.00    +0.000     7.200
ATOM     30  C   UNL d   1       4.443  41.509  -2.421 -0.03 +0.02    +0.052     7.200
ATOM     31  C   UNL d   1       3.113  40.761  -2.513 -0.14 +0.06    +0.115     7.200
ATOM     32  C   UNL d   1       2.734  40.094  -1.208 -0.13 +0.18    +0.139     7.200
ATOM     33  O   UNL d   1       3.222  40.498  -0.163 -0.20 -1.05    -0.650     7.200
ATOM     34  O   UNL d   1       1.829  39.089  -1.152 -0.45 -1.38    -0.776     7.200
ATOM     35  H   UNL d   1       1.571  38.547  -1.911 +0.02 +0.16    +0.167     7.200
ATOM     36  C   UNL d   1       8.262  42.833  -6.763 -0.12 -0.12    +0.190     7.200
ATOM     37  O   UNL d   1       9.118  43.107  -5.692 -0.69 +0.28    -0.399     7.200
ATOM     38  H   UNL d   1      10.038  43.023  -6.071 -0.40 -0.32    +0.209     7.200
ATOM     39  C   UNL d   1       2.563  44.675  -6.402 -0.07 +0.02    +0.052     7.200
ATOM     40  C   UNL d   1       3.022  46.052  -5.895 -0.16 +0.08    +0.115     7.200
ATOM     41  C   UNL d   1       3.372  46.091  -4.422 -0.09 +0.18    +0.139     7.200
ATOM     42  O   UNL d   1       2.476  46.021  -3.592 -0.06 -0.76    -0.650     7.200
ATOM     43  O   UNL d   1       4.655  46.113  -3.997 -0.58 -1.15    -0.776     7.200
ATOM     44  H   UNL d   1       5.174  45.308  -3.873 -0.19 +0.12    +0.167     7.200
ATOM     45  C   UNL d   1      11.318  38.008  -8.633 -0.36 -0.00    +0.004     7.200
ATOM     46  C   UNL d   1      11.302  36.888  -9.351 -0.39 -0.00    +0.012     7.200
ATOM     47  C   UNL d   1       7.608  43.767 -12.393 -0.02 -0.00    +0.004     7.200
ATOM     48  C   UNL d   1       7.787  45.081 -12.232 -0.03 -0.00    +0.012     7.200
TER
ENDMDL
MODEL       45
USER    Run = 45
USER    Cluster Rank = 9
USER    Number of conformations in this cluster = 1
USER  
USER    RMSD from reference structure       = 24.220 A
USER  
USER    Estimated Free Energy of Binding    =   -6.91 kcal/mol  [=(1)+(2)+(3)-(4)]
USER    Estimated Inhibition Constant, Ki   =    8.63 uM (micromolar)  [Temperature = 298.15 K]
USER    
USER    (1) Final Intermolecular Energy     =  -10.49 kcal/mol
USER        vdW + Hbond + desolv Energy     =   -9.73 kcal/mol
USER        Electrostatic Energy            =   -0.75 kcal/mol
USER    (2) Final Total Internal Energy     =   -0.63 kcal/mol
USER    (3) Torsional Free Energy           =   +3.58 kcal/mol
USER    (4) Unbound System's Energy  [=(2)] =   -0.63 kcal/mol
USER    
USER    
USER  
USER    DPF = D:/Protein_go_brrr/autodock/final/6BB5/heme_Co/dock.dpf
USER    NEWDPF move	heme_Co_opt.pdbqt
USER    NEWDPF about	8.781000 34.984000 -0.736000
USER    NEWDPF tran0	12.805320 39.142740 25.602001
USER    NEWDPF axisangle0	-0.194404 0.688844 0.698355 -136.674239
USER    NEWDPF quaternion0	-0.180674 0.640193 0.649032 -0.369145
USER    NEWDPF dihe0	40.48 103.08 -33.19 41.62 97.14 154.48 34.10 94.30 59.98 -48.32 7.53 -148.72 
USER  
USER                              x       y       z    vdW   Elec        q     RMS 
ATOM      1  C   UNL d   1      13.530  37.889  27.221 -0.23 -0.02    +0.064    24.220
ATOM      2  C   UNL d   1      15.475  41.558  24.904 -0.30 -0.01    +0.064    24.220
ATOM      3  C   UNL d   1      11.741  41.708  21.928 -0.01 -0.01    +0.064    24.220
ATOM      4  C   UNL d   1       9.556  38.216  24.515 -0.22 -0.01    +0.064    24.220
ATOM      5  C   UNL d   1      14.352  38.857  26.784 -0.23 -0.02    +0.066    24.220
ATOM      6  C   UNL d   1      15.549  39.180  27.454 -0.21 +0.00    -0.021    24.220
ATOM      7  C   UNL d   1      16.098  40.260  26.791 -0.20 +0.00    -0.025    24.220
ATOM      8  C   UNL d   1      15.222  40.540  25.736 -0.24 -0.01    +0.066    24.220
ATOM      9  C   UNL d   1      17.395  41.011  27.126 -0.18 -0.00    +0.051    24.220
ATOM     10  C   UNL d   1      14.647  41.905  23.777 -0.27 -0.02    +0.066    24.220
ATOM     11  C   UNL d   1      14.930  42.870  22.786 -0.34 +0.00    -0.021    24.220
ATOM     12  C   UNL d   1      13.826  42.890  21.929 -0.34 -0.00    +0.000    24.220
ATOM     13  C   UNL d   1      12.960  41.930  22.451 -0.25 -0.01    +0.070    24.220
ATOM     14  C   UNL d   1      16.216  43.641  22.634 -0.33 -0.01    +0.052    24.220
ATOM     15  C   UNL d   1      10.703  40.797  22.369 -0.20 -0.01    +0.066    24.220
ATOM     16  C   UNL d   1       9.409  40.721  21.872 -0.18 +0.00    -0.021    24.220
ATOM     17  C   UNL d   1       8.774  39.716  22.616 -0.19 -0.00    +0.000    24.220
ATOM     18  C   UNL d   1       9.739  39.246  23.501 -0.21 -0.01    +0.070    24.220
ATOM     19  C   UNL d   1       8.848  41.571  20.754 -0.17 -0.00    +0.052    24.220
ATOM     20  C   UNL d   1      10.452  37.803  25.442 -0.23 -0.02    +0.066    24.220
ATOM     21  C   UNL d   1      10.146  36.828  26.390 -0.25 +0.01    -0.025    24.220
ATOM     22  C   UNL d   1      11.283  36.692  27.165 -0.23 +0.01    -0.021    24.220
ATOM     23  C   UNL d   1      12.230  37.607  26.656 -0.26 -0.03    +0.066    24.220
ATOM     24  C   UNL d   1       8.829  36.076  26.561 -0.25 -0.00    +0.051    24.220
ATOM     25  N   UNL d   1      14.135  39.683  25.704 -0.10 +0.09    -0.248    24.220
ATOM     26  N   UNL d   1      13.481  41.295  23.535 -0.14 +0.07    -0.248    24.220
ATOM     27  N   UNL d   1      10.866  39.933  23.346 -0.13 +0.06    -0.248    24.220
ATOM     28  N   UNL d   1      11.730  38.283  25.615 -0.13 +0.10    -0.248    24.220
ATOM     29 FE   UNL d   1      12.402  39.812  24.456 -0.05 -0.00    +0.000    24.220
ATOM     30  C   UNL d   1      16.086  38.525  28.722 -0.18 -0.00    +0.052    24.220
ATOM     31  C   UNL d   1      17.016  37.363  28.373 -0.28 +0.00    +0.115    24.220
ATOM     32  C   UNL d   1      16.551  36.052  28.970 -0.31 -0.00    +0.139    24.220
ATOM     33  O   UNL d   1      17.016  35.679  30.036 -0.05 -0.07    -0.650    24.220
ATOM     34  O   UNL d   1      15.595  35.295  28.382 -0.23 +0.21    -0.776    24.220
ATOM     35  H   UNL d   1      15.493  35.194  27.426 -0.45 -0.11    +0.167    24.220
ATOM     36  C   UNL d   1      11.657  41.211  25.829 -0.06 -0.03    +0.190    24.220
ATOM     37  O   UNL d   1      11.961  41.869  27.025 -0.00 +0.04    -0.399    24.220
ATOM     38  H   UNL d   1      12.774  41.406  27.373 +0.03 -0.02    +0.209    24.220
ATOM     39  C   UNL d   1      11.423  35.779  28.369 -0.03 -0.03    +0.052    24.220
ATOM     40  C   UNL d   1      10.214  35.928  29.307 -0.12 -0.01    +0.115    24.220
ATOM     41  C   UNL d   1       9.514  34.626  29.636 -0.11 +0.06    +0.139    24.220
ATOM     42  O   UNL d   1       8.306  34.537  29.469 -0.47 -0.47    -0.650    24.220
ATOM     43  O   UNL d   1      10.201  33.530  30.028 -0.25 -0.47    -0.776    24.220
ATOM     44  H   UNL d   1      11.120  33.374  29.773 +0.00 -0.00    +0.167    24.220
ATOM     45  C   UNL d   1      13.501  43.689  20.674 -0.30 -0.00    +0.004    24.220
ATOM     46  C   UNL d   1      14.294  44.147  19.710 -0.30 -0.00    +0.012    24.220
ATOM     47  C   UNL d   1       7.359  39.242  22.566 -0.24 -0.00    +0.004    24.220
ATOM     48  C   UNL d   1       6.876  38.465  21.594 -0.33 -0.00    +0.012    24.220
TER
ENDMDL
MODEL       16
USER    Run = 16
USER    Cluster Rank = 10
USER    Number of conformations in this cluster = 2
USER  
USER    RMSD from reference structure       = 17.693 A
USER  
USER    Estimated Free Energy of Binding    =   -6.87 kcal/mol  [=(1)+(2)+(3)-(4)]
USER    Estimated Inhibition Constant, Ki   =    9.27 uM (micromolar)  [Temperature = 298.15 K]
USER    
USER    (1) Final Intermolecular Energy     =  -10.45 kcal/mol
USER        vdW + Hbond + desolv Energy     =   -8.09 kcal/mol
USER        Electrostatic Energy            =   -2.35 kcal/mol
USER    (2) Final Total Internal Energy     =   -0.70 kcal/mol
USER    (3) Torsional Free Energy           =   +3.58 kcal/mol
USER    (4) Unbound System's Energy  [=(2)] =   -0.70 kcal/mol
USER    
USER    
USER  
USER    DPF = D:/Protein_go_brrr/autodock/final/6BB5/heme_Co/dock.dpf
USER    NEWDPF move	heme_Co_opt.pdbqt
USER    NEWDPF about	8.781000 34.984000 -0.736000
USER    NEWDPF tran0	19.724256 19.559722 8.815097
USER    NEWDPF axisangle0	0.972439 0.232268 0.020334 -167.360148
USER    NEWDPF quaternion0	0.966529 0.230857 0.020210 -0.110080
USER    NEWDPF dihe0	112.89 115.37 -117.62 42.94 -91.88 -98.26 -43.81 153.99 75.40 -10.12 -0.86 180.00 
USER  
USER                              x       y       z    vdW   Elec        q     RMS 
ATOM      1  C   UNL d   1      18.141  18.427   9.777 -0.19 +0.02    +0.064    17.693
ATOM      2  C   UNL d   1      18.425  20.546   5.530 -0.24 +0.01    +0.064    17.693
ATOM      3  C   UNL d   1      22.708  22.334   6.667 -0.08 +0.01    +0.064    17.693
ATOM      4  C   UNL d   1      22.612  19.864  10.857 -0.18 +0.01    +0.064    17.693
ATOM      5  C   UNL d   1      17.888  18.904   8.548 -0.20 +0.01    +0.066    17.693
ATOM      6  C   UNL d   1      16.734  18.540   7.827 -0.20 -0.01    -0.021    17.693
ATOM      7  C   UNL d   1      16.833  19.139   6.587 -0.24 -0.01    -0.025    17.693
ATOM      8  C   UNL d   1      18.034  19.857   6.609 -0.24 +0.01    +0.066    17.693
ATOM      9  C   UNL d   1      15.844  19.049   5.415 -0.17 +0.01    +0.051    17.693
ATOM     10  C   UNL d   1      19.631  21.335   5.470 -0.17 +0.01    +0.066    17.693
ATOM     11  C   UNL d   1      20.027  22.191   4.420 -0.23 -0.00    -0.021    17.693
ATOM     12  C   UNL d   1      21.277  22.702   4.779 -0.13 +0.00    +0.000    17.693
ATOM     13  C   UNL d   1      21.545  22.131   6.024 -0.10 +0.01    +0.070    17.693
ATOM     14  C   UNL d   1      19.207  22.557   3.209 -0.31 +0.00    +0.052    17.693
ATOM     15  C   UNL d   1      23.170  21.785   7.927 -0.10 +0.01    +0.066    17.693
ATOM     16  C   UNL d   1      24.441  21.919   8.466 -0.17 -0.00    -0.021    17.693
ATOM     17  C   UNL d   1      24.420  21.206   9.674 -0.26 +0.00    +0.000    17.693
ATOM     18  C   UNL d   1      23.126  20.706   9.784 -0.16 +0.01    +0.070    17.693
ATOM     19  C   UNL d   1      25.584  22.687   7.839 -0.22 +0.01    +0.052    17.693
ATOM     20  C   UNL d   1      21.386  19.295  10.943 -0.16 +0.01    +0.066    17.693
ATOM     21  C   UNL d   1      21.020  18.474  12.007 -0.18 -0.01    -0.025    17.693
ATOM     22  C   UNL d   1      19.726  18.069  11.738 -0.12 -0.01    -0.021    17.693
ATOM     23  C   UNL d   1      19.368  18.657  10.506 -0.18 +0.02    +0.066    17.693
ATOM     24  C   UNL d   1      21.869  18.079  13.213 -0.24 +0.02    +0.051    17.693
ATOM     25  N   UNL d   1      18.705  19.734   7.814 -0.13 -0.04    -0.248    17.693
ATOM     26  N   UNL d   1      20.524  21.349   6.465 -0.03 -0.03    -0.248    17.693
ATOM     27  N   UNL d   1      22.419  21.045   8.712 -0.06 -0.03    -0.248    17.693
ATOM     28  N   UNL d   1      20.371  19.398  10.020 -0.10 -0.05    -0.248    17.693
ATOM     29 FE   UNL d   1      20.672  20.427   8.293 -0.04 +0.00    +0.000    17.693
ATOM     30  C   UNL d   1      15.634  17.591   8.291 -0.16 +0.02    +0.052    17.693
ATOM     31  C   UNL d   1      14.622  18.329   9.167 -0.28 +0.06    +0.115    17.693
ATOM     32  C   UNL d   1      14.754  17.968  10.631 -0.12 +0.16    +0.139    17.693
ATOM     33  O   UNL d   1      13.931  18.389  11.430 -0.54 -0.92    -0.650    17.693
ATOM     34  O   UNL d   1      15.732  17.149  11.083 -0.12 -0.98    -0.776    17.693
ATOM     35  H   UNL d   1      16.487  17.443  11.610 +0.06 +0.15    +0.167    17.693
ATOM     36  C   UNL d   1      21.389  18.693   7.358 -0.03 +0.02    +0.190    17.693
ATOM     37  O   UNL d   1      22.034  18.234   6.205 +0.00 -0.03    -0.399    17.693
ATOM     38  H   UNL d   1      22.226  19.057   5.674 +0.01 +0.01    +0.209    17.693
ATOM     39  C   UNL d   1      18.908  17.115  12.589 +0.08 +0.04    +0.052    17.693
ATOM     40  C   UNL d   1      19.332  15.660  12.334 -0.15 +0.07    +0.115    17.693
ATOM     41  C   UNL d   1      18.855  14.677  13.382 -0.15 +0.10    +0.139    17.693
ATOM     42  O   UNL d   1      19.314  14.738  14.514 -0.26 -0.73    -0.650    17.693
ATOM     43  O   UNL d   1      17.869  13.788  13.126 +0.01 -0.44    -0.776    17.693
ATOM     44  H   UNL d   1      16.998  13.845  13.539 -0.37 +0.11    +0.167    17.693
ATOM     45  C   UNL d   1      22.235  23.674   4.103 -0.13 +0.00    +0.004    17.693
ATOM     46  C   UNL d   1      21.995  24.741   3.346 -0.20 +0.00    +0.012    17.693
ATOM     47  C   UNL d   1      25.520  20.949  10.649 -0.43 +0.00    +0.004    17.693
ATOM     48  C   UNL d   1      26.029  19.737  10.884 -0.50 +0.00    +0.012    17.693
TER
ENDMDL
MODEL       41
USER    Run = 41
USER    Cluster Rank = 11
USER    Number of conformations in this cluster = 1
USER  
USER    RMSD from reference structure       = 24.314 A
USER  
USER    Estimated Free Energy of Binding    =   -6.80 kcal/mol  [=(1)+(2)+(3)-(4)]
USER    Estimated Inhibition Constant, Ki   =   10.38 uM (micromolar)  [Temperature = 298.15 K]
USER    
USER    (1) Final Intermolecular Energy     =  -10.38 kcal/mol
USER        vdW + Hbond + desolv Energy     =   -7.33 kcal/mol
USER        Electrostatic Energy            =   -3.04 kcal/mol
USER    (2) Final Total Internal Energy     =   -0.72 kcal/mol
USER    (3) Torsional Free Energy           =   +3.58 kcal/mol
USER    (4) Unbound System's Energy  [=(2)] =   -0.72 kcal/mol
USER    
USER    
USER  
USER    DPF = D:/Protein_go_brrr/autodock/final/6BB5/heme_Co/dock.dpf
USER    NEWDPF move	heme_Co_opt.pdbqt
USER    NEWDPF about	8.781000 34.984000 -0.736000
USER    NEWDPF tran0	23.907167 16.434046 15.543385
USER    NEWDPF axisangle0	-0.695503 0.172959 0.697396 -165.950402
USER    NEWDPF quaternion0	-0.690282 0.171660 0.692160 -0.122299
USER    NEWDPF dihe0	39.61 155.94 -3.68 14.14 135.97 -89.08 51.46 -0.66 119.09 112.18 13.87 15.42 
USER  
USER                              x       y       z    vdW   Elec        q     RMS 
ATOM      1  C   UNL d   1      24.514  15.765  17.518 -0.12 +0.03    +0.064    24.314
ATOM      2  C   UNL d   1      22.161  19.621  16.035 -0.36 +0.01    +0.064    24.314
ATOM      3  C   UNL d   1      22.835  18.329  11.485 -0.14 +0.01    +0.064    24.314
ATOM      4  C   UNL d   1      24.904  14.188  12.981 -0.07 +0.02    +0.064    24.314
ATOM      5  C   UNL d   1      23.853  16.932  17.446 -0.18 +0.02    +0.066    24.314
ATOM      6  C   UNL d   1      23.402  17.608  18.597 -0.20 -0.00    -0.021    24.314
ATOM      7  C   UNL d   1      22.700  18.714  18.160 -0.25 -0.00    -0.025    24.314
ATOM      8  C   UNL d   1      22.767  18.675  16.763 -0.27 +0.01    +0.066    24.314
ATOM      9  C   UNL d   1      21.988  19.775  19.013 -0.23 -0.01    +0.051    24.314
ATOM     10  C   UNL d   1      22.198  19.679  14.595 -0.37 +0.01    +0.066    24.314
ATOM     11  C   UNL d   1      21.702  20.719  13.779 -0.35 -0.00    -0.021    24.314
ATOM     12  C   UNL d   1      21.916  20.318  12.457 -0.36 +0.00    +0.000    24.314
ATOM     13  C   UNL d   1      22.534  19.072  12.564 -0.25 +0.02    +0.070    24.314
ATOM     14  C   UNL d   1      21.155  22.041  14.253 -0.51 -0.00    +0.052    24.314
ATOM     15  C   UNL d   1      23.424  17.006  11.414 -0.10 +0.02    +0.066    24.314
ATOM     16  C   UNL d   1      23.575  16.232  10.272 -0.05 -0.00    -0.021    24.314
ATOM     17  C   UNL d   1      24.169  15.036  10.699 -0.04 +0.00    +0.000    24.314
ATOM     18  C   UNL d   1      24.350  15.182  12.070 -0.07 +0.02    +0.070    24.314
ATOM     19  C   UNL d   1      23.165  16.641   8.875 -0.02 +0.01    +0.052    24.314
ATOM     20  C   UNL d   1      25.010  14.274  14.329 -0.08 +0.02    +0.066    24.314
ATOM     21  C   UNL d   1      25.528  13.236  15.101 -0.05 -0.01    -0.025    24.314
ATOM     22  C   UNL d   1      25.455  13.674  16.411 -0.06 -0.01    -0.021    24.314
ATOM     23  C   UNL d   1      24.880  14.962  16.373 -0.09 +0.03    +0.066    24.314
ATOM     24  C   UNL d   1      26.048  11.885  14.617 -0.02 +0.01    +0.051    24.314
ATOM     25  N   UNL d   1      23.480  17.585  16.294 -0.14 -0.09    -0.248    24.314
ATOM     26  N   UNL d   1      22.755  18.713  13.857 -0.19 -0.08    -0.248    24.314
ATOM     27  N   UNL d   1      23.867  16.355  12.466 -0.07 -0.07    -0.248    24.314
ATOM     28  N   UNL d   1      24.607  15.328  15.115 -0.02 -0.10    -0.248    24.314
ATOM     29 FE   UNL d   1      23.687  16.931  14.267 -0.05 +0.00    +0.000    24.314
ATOM     30  C   UNL d   1      23.574  17.155  20.043 -0.13 +0.01    +0.052    24.314
ATOM     31  C   UNL d   1      24.766  17.861  20.689 -0.14 +0.04    +0.115    24.314
ATOM     32  C   UNL d   1      26.075  17.522  20.010 -0.22 +0.14    +0.139    24.314
ATOM     33  O   UNL d   1      26.615  16.451  20.247 -0.01 -1.06    -0.650    24.314
ATOM     34  O   UNL d   1      26.650  18.348  19.106 -0.47 -0.95    -0.776    24.314
ATOM     35  H   UNL d   1      26.621  19.314  19.156 -0.24 +0.09    +0.167    24.314
ATOM     36  C   UNL d   1      21.819  16.007  14.493 -0.11 +0.13    +0.190    24.314
ATOM     37  O   UNL d   1      20.502  16.027  14.023 -0.07 -0.41    -0.399    24.314
ATOM     38  H   UNL d   1      20.585  16.125  13.033 +0.04 +0.13    +0.209    24.314
ATOM     39  C   UNL d   1      25.856  12.867  17.632 -0.03 +0.02    +0.052    24.314
ATOM     40  C   UNL d   1      27.027  13.540  18.366 -0.08 +0.09    +0.115    24.314
ATOM     41  C   UNL d   1      28.361  13.415  17.661 -0.08 +0.12    +0.139    24.314
ATOM     42  O   UNL d   1      29.102  14.387  17.605 -0.22 -0.99    -0.650    24.314
ATOM     43  O   UNL d   1      28.796  12.235  17.167 +0.03 -0.33    -0.776    24.314
ATOM     44  H   UNL d   1      28.264  11.429  17.204 +0.01 +0.05    +0.167    24.314
ATOM     45  C   UNL d   1      21.625  20.973  11.113 -0.38 +0.00    +0.004    24.314
ATOM     46  C   UNL d   1      21.160  22.185  10.824 -0.49 +0.00    +0.012    24.314
ATOM     47  C   UNL d   1      24.509  13.808   9.919 -0.02 +0.00    +0.004    24.314
ATOM     48  C   UNL d   1      25.759  13.387   9.715 -0.03 +0.00    +0.012    24.314
TER
ENDMDL
MODEL       25
USER    Run = 25
USER    Cluster Rank = 12
USER    Number of conformations in this cluster = 1
USER  
USER    RMSD from reference structure       = 38.367 A
USER  
USER    Estimated Free Energy of Binding    =   -6.74 kcal/mol  [=(1)+(2)+(3)-(4)]
USER    Estimated Inhibition Constant, Ki   =   11.55 uM (micromolar)  [Temperature = 298.15 K]
USER    
USER    (1) Final Intermolecular Energy     =  -10.32 kcal/mol
USER        vdW + Hbond + desolv Energy     =   -7.92 kcal/mol
USER        Electrostatic Energy            =   -2.40 kcal/mol
USER    (2) Final Total Internal Energy     =   -2.43 kcal/mol
USER    (3) Torsional Free Energy           =   +3.58 kcal/mol
USER    (4) Unbound System's Energy  [=(2)] =   -2.43 kcal/mol
USER    
USER    
USER  
USER    DPF = D:/Protein_go_brrr/autodock/final/6BB5/heme_Co/dock.dpf
USER    NEWDPF move	heme_Co_opt.pdbqt
USER    NEWDPF about	8.781000 34.984000 -0.736000
USER    NEWDPF tran0	46.198654 24.673759 17.737753
USER    NEWDPF axisangle0	0.410746 -0.427998 -0.805050 -136.598884
USER    NEWDPF quaternion0	0.381636 -0.397666 -0.747995 -0.369756
USER    NEWDPF dihe0	-52.40 163.17 -48.67 40.96 -91.54 50.36 97.06 -14.20 131.82 179.99 -142.71 179.67 
USER  
USER                              x       y       z    vdW   Elec        q     RMS 
ATOM      1  C   UNL d   1      47.901  25.861  18.378 -0.08 +0.03    +0.064    38.367
ATOM      2  C   UNL d   1      43.458  27.042  17.162 -0.29 +0.02    +0.064    38.367
ATOM      3  C   UNL d   1      42.537  22.506  15.976 -0.25 +0.01    +0.064    38.367
ATOM      4  C   UNL d   1      46.944  21.207  17.574 -0.13 +0.05    +0.064    38.367
ATOM      5  C   UNL d   1      46.766  26.523  18.098 -0.11 +0.03    +0.066    38.367
ATOM      6  C   UNL d   1      46.612  27.894  18.381 -0.12 -0.01    -0.021    38.367
ATOM      7  C   UNL d   1      45.314  28.226  18.047 -0.17 -0.01    -0.025    38.367
ATOM      8  C   UNL d   1      44.736  27.049  17.560 -0.19 +0.02    +0.066    38.367
ATOM      9  C   UNL d   1      44.628  29.595  18.177 -0.26 +0.02    +0.051    38.367
ATOM     10  C   UNL d   1      42.787  25.885  16.622 -0.29 +0.02    +0.066    38.367
ATOM     11  C   UNL d   1      41.494  25.847  16.057 -0.39 -0.00    -0.021    38.367
ATOM     12  C   UNL d   1      41.252  24.513  15.716 -0.45 +0.00    +0.000    38.367
ATOM     13  C   UNL d   1      42.417  23.841  16.086 -0.26 +0.01    +0.070    38.367
ATOM     14  C   UNL d   1      40.605  27.033  15.783 -0.43 +0.01    +0.052    38.367
ATOM     15  C   UNL d   1      43.641  21.647  16.355 -0.23 +0.02    +0.066    38.367
ATOM     16  C   UNL d   1      43.645  20.259  16.349 -0.26 -0.00    -0.021    38.367
ATOM     17  C   UNL d   1      44.913  19.880  16.812 -0.18 +0.00    +0.000    38.367
ATOM     18  C   UNL d   1      45.591  21.071  17.048 -0.17 +0.04    +0.070    38.367
ATOM     19  C   UNL d   1      42.489  19.381  15.923 -0.17 +0.00    +0.052    38.367
ATOM     20  C   UNL d   1      47.593  22.352  17.893 -0.11 +0.06    +0.066    38.367
ATOM     21  C   UNL d   1      48.880  22.353  18.426 -0.07 -0.02    -0.025    38.367
ATOM     22  C   UNL d   1      49.194  23.683  18.641 -0.07 -0.02    -0.021    38.367
ATOM     23  C   UNL d   1      48.068  24.432  18.236 -0.09 +0.04    +0.066    38.367
ATOM     24  C   UNL d   1      49.762  21.146  18.734 -0.06 +0.04    +0.051    38.367
ATOM     25  N   UNL d   1      45.615  25.979  17.575 -0.10 -0.10    -0.248    38.367
ATOM     26  N   UNL d   1      43.365  24.680  16.581 -0.15 -0.07    -0.248    38.367
ATOM     27  N   UNL d   1      44.794  22.102  16.794 -0.11 -0.11    -0.248    38.367
ATOM     28  N   UNL d   1      47.096  23.630  17.785 -0.08 -0.18    -0.248    38.367
ATOM     29 FE   UNL d   1      45.183  23.925  17.162 -0.05 +0.00    +0.000    38.367
ATOM     30  C   UNL d   1      47.648  28.813  19.020 -0.09 +0.02    +0.052    38.367
ATOM     31  C   UNL d   1      48.058  28.286  20.395 -0.06 +0.07    +0.115    38.367
ATOM     32  C   UNL d   1      46.866  27.964  21.269 -0.02 +0.18    +0.139    38.367
ATOM     33  O   UNL d   1      45.845  28.626  21.161 -0.27 -1.09    -0.650    38.367
ATOM     34  O   UNL d   1      46.874  26.929  22.141 -0.30 -1.27    -0.776    38.367
ATOM     35  H   UNL d   1      47.049  26.010  21.893 +0.02 +0.17    +0.167    38.367
ATOM     36  C   UNL d   1      44.494  23.789  19.137 -0.18 +0.08    +0.190    38.367
ATOM     37  O   UNL d   1      44.834  23.307  20.405 -0.48 -0.20    -0.399    38.367
ATOM     38  H   UNL d   1      45.758  23.646  20.570 +0.06 +0.10    +0.209    38.367
ATOM     39  C   UNL d   1      50.480  24.195  19.262 -0.03 +0.03    +0.052    38.367
ATOM     40  C   UNL d   1      50.440  24.046  20.792 +0.01 +0.04    +0.115    38.367
ATOM     41  C   UNL d   1      49.113  23.564  21.339 +0.01 +0.05    +0.139    38.367
ATOM     42  O   UNL d   1      49.082  22.558  22.033 +0.02 -0.21    -0.650    38.367
ATOM     43  O   UNL d   1      47.972  24.264  21.153 +0.05 -0.37    -0.776    38.367
ATOM     44  H   UNL d   1      47.932  25.225  21.240 +0.02 +0.09    +0.167    38.367
ATOM     45  C   UNL d   1      40.070  23.804  15.070 -0.45 +0.00    +0.004    38.367
ATOM     46  C   UNL d   1      39.197  24.229  14.161 -0.53 +0.00    +0.012    38.367
ATOM     47  C   UNL d   1      45.464  18.517  17.074 -0.18 +0.00    +0.004    38.367
ATOM     48  C   UNL d   1      45.776  18.070  18.293 -0.19 +0.00    +0.012    38.367
TER
ENDMDL
MODEL       73
USER    Run = 73
USER    Cluster Rank = 13
USER    Number of conformations in this cluster = 1
USER  
USER    RMSD from reference structure       = 23.612 A
USER  
USER    Estimated Free Energy of Binding    =   -6.54 kcal/mol  [=(1)+(2)+(3)-(4)]
USER    Estimated Inhibition Constant, Ki   =   16.04 uM (micromolar)  [Temperature = 298.15 K]
USER    
USER    (1) Final Intermolecular Energy     =  -10.12 kcal/mol
USER        vdW + Hbond + desolv Energy     =   -9.42 kcal/mol
USER        Electrostatic Energy            =   -0.70 kcal/mol
USER    (2) Final Total Internal Energy     =   -0.82 kcal/mol
USER    (3) Torsional Free Energy           =   +3.58 kcal/mol
USER    (4) Unbound System's Energy  [=(2)] =   -0.82 kcal/mol
USER    
USER    
USER  
USER    DPF = D:/Protein_go_brrr/autodock/final/6BB5/heme_Co/dock.dpf
USER    NEWDPF move	heme_Co_opt.pdbqt
USER    NEWDPF about	8.781000 34.984000 -0.736000
USER    NEWDPF tran0	11.310513 39.181810 24.469347
USER    NEWDPF axisangle0	-0.062386 0.423897 0.903559 -49.650873
USER    NEWDPF quaternion0	-0.026193 0.177975 0.379364 -0.907591
USER    NEWDPF dihe0	-39.17 107.05 96.17 117.83 89.48 166.72 170.58 167.80 60.75 -59.31 164.00 -180.00 
USER  
USER                              x       y       z    vdW   Elec        q     RMS 
ATOM      1  C   UNL d   1       9.449  38.067  24.382 -0.23 -0.01    +0.064    23.612
ATOM      2  C   UNL d   1      13.255  37.713  27.210 -0.28 -0.02    +0.064    23.612
ATOM      3  C   UNL d   1      15.507  41.070  24.663 -0.31 -0.02    +0.064    23.612
ATOM      4  C   UNL d   1      11.490  41.724  21.998 -0.07 -0.01    +0.064    23.612
ATOM      5  C   UNL d   1      10.337  37.698  25.319 -0.24 -0.02    +0.066    23.612
ATOM      6  C   UNL d   1      10.018  36.764  26.325 -0.25 +0.01    -0.021    23.612
ATOM      7  C   UNL d   1      11.118  36.683  27.156 -0.23 +0.01    -0.025    23.612
ATOM      8  C   UNL d   1      12.066  37.557  26.614 -0.26 -0.03    +0.066    23.612
ATOM      9  C   UNL d   1      11.285  35.820  28.416 -0.09 -0.03    +0.051    23.612
ATOM     10  C   UNL d   1      14.302  38.569  26.711 -0.25 -0.02    +0.066    23.612
ATOM     11  C   UNL d   1      15.619  38.671  27.211 -0.27 +0.00    -0.021    23.612
ATOM     12  C   UNL d   1      16.254  39.654  26.447 -0.30 -0.00    +0.000    23.612
ATOM     13  C   UNL d   1      15.286  40.069  25.533 -0.28 -0.02    +0.070    23.612
ATOM     14  C   UNL d   1      16.235  37.809  28.283 -0.30 -0.01    +0.052    23.612
ATOM     15  C   UNL d   1      14.608  41.659  23.690 -0.27 -0.02    +0.066    23.612
ATOM     16  C   UNL d   1      14.852  42.788  22.921 -0.32 +0.00    -0.021    23.612
ATOM     17  C   UNL d   1      13.695  42.982  22.153 -0.30 -0.00    +0.000    23.612
ATOM     18  C   UNL d   1      12.840  41.942  22.502 -0.25 -0.01    +0.070    23.612
ATOM     19  C   UNL d   1      16.123  43.608  22.946 -0.26 -0.01    +0.052    23.612
ATOM     20  C   UNL d   1      10.609  40.771  22.386 -0.20 -0.01    +0.066    23.612
ATOM     21  C   UNL d   1       9.325  40.685  21.853 -0.18 +0.00    -0.025    23.612
ATOM     22  C   UNL d   1       8.723  39.621  22.500 -0.20 +0.00    -0.021    23.612
ATOM     23  C   UNL d   1       9.673  39.115  23.412 -0.23 -0.01    +0.066    23.612
ATOM     24  C   UNL d   1       8.694  41.583  20.792 -0.19 -0.00    +0.051    23.612
ATOM     25  N   UNL d   1      11.612  38.195  25.472 -0.08 +0.10    -0.248    23.612
ATOM     26  N   UNL d   1      14.124  39.373  25.657 -0.02 +0.10    -0.248    23.612
ATOM     27  N   UNL d   1      13.405  41.191  23.442 -0.13 +0.07    -0.248    23.612
ATOM     28  N   UNL d   1      10.815  39.810  23.348 -0.14 +0.06    -0.248    23.612
ATOM     29 FE   UNL d   1      12.558  39.782  24.395 +0.00 -0.00    +0.000    23.612
ATOM     30  C   UNL d   1       8.683  36.052  26.514 -0.23 +0.00    +0.052    23.612
ATOM     31  C   UNL d   1       7.991  36.537  27.787 -0.11 +0.01    +0.115    23.612
ATOM     32  C   UNL d   1       7.724  35.412  28.764 -0.12 +0.05    +0.139    23.612
ATOM     33  O   UNL d   1       8.576  34.553  28.938 -0.53 -0.59    -0.650    23.612
ATOM     34  O   UNL d   1       6.586  35.349  29.493 +0.01 -0.19    -0.776    23.612
ATOM     35  H   UNL d   1       6.183  36.107  29.938 +0.01 +0.02    +0.167    23.612
ATOM     36  C   UNL d   1      11.749  41.084  25.824 -0.07 -0.03    +0.190    23.612
ATOM     37  O   UNL d   1      11.112  41.116  27.069 -0.00 +0.04    -0.399    23.612
ATOM     38  H   UNL d   1      10.941  40.159  27.294 +0.03 -0.03    +0.209    23.612
ATOM     39  C   UNL d   1       7.291  39.163  22.296 -0.25 -0.00    +0.052    23.612
ATOM     40  C   UNL d   1       6.315  40.076  23.057 -0.10 -0.00    +0.115    23.612
ATOM     41  C   UNL d   1       5.376  40.865  22.169 -0.11 +0.01    +0.139    23.612
ATOM     42  O   UNL d   1       5.840  41.561  21.276 -0.55 -0.10    -0.650    23.612
ATOM     43  O   UNL d   1       4.034  40.754  22.279 -0.00 +0.00    -0.776    23.612
ATOM     44  H   UNL d   1       3.492  41.421  22.722 +0.02 -0.00    +0.167    23.612
ATOM     45  C   UNL d   1      17.663  40.232  26.464 -0.33 -0.00    +0.004    23.612
ATOM     46  C   UNL d   1      18.664  40.098  25.598 -0.45 -0.00    +0.012    23.612
ATOM     47  C   UNL d   1      13.360  44.075  21.192 -0.24 -0.00    +0.004    23.612
ATOM     48  C   UNL d   1      13.983  44.246  20.023 -0.30 -0.00    +0.012    23.612
TER
ENDMDL
MODEL       97
USER    Run = 97
USER    Cluster Rank = 14
USER    Number of conformations in this cluster = 1
USER  
USER    RMSD from reference structure       = 37.042 A
USER  
USER    Estimated Free Energy of Binding    =   -6.43 kcal/mol  [=(1)+(2)+(3)-(4)]
USER    Estimated Inhibition Constant, Ki   =   19.27 uM (micromolar)  [Temperature = 298.15 K]
USER    
USER    (1) Final Intermolecular Energy     =  -10.01 kcal/mol
USER        vdW + Hbond + desolv Energy     =   -8.41 kcal/mol
USER        Electrostatic Energy            =   -1.61 kcal/mol
USER    (2) Final Total Internal Energy     =   -1.95 kcal/mol
USER    (3) Torsional Free Energy           =   +3.58 kcal/mol
USER    (4) Unbound System's Energy  [=(2)] =   -1.95 kcal/mol
USER    
USER    
USER  
USER    DPF = D:/Protein_go_brrr/autodock/final/6BB5/heme_Co/dock.dpf
USER    NEWDPF move	heme_Co_opt.pdbqt
USER    NEWDPF about	8.781000 34.984000 -0.736000
USER    NEWDPF tran0	45.285522 28.152023 18.135489
USER    NEWDPF axisangle0	-0.439497 0.422561 0.792644 135.101836
USER    NEWDPF quaternion0	-0.406192 0.390539 0.732577 0.381862
USER    NEWDPF dihe0	27.98 124.10 -122.76 125.02 135.14 83.62 -146.88 120.07 88.22 163.40 35.19 159.21 
USER  
USER                              x       y       z    vdW   Elec        q     RMS 
ATOM      1  C   UNL d   1      46.898  29.425  18.840 -0.11 +0.03    +0.064    37.042
ATOM      2  C   UNL d   1      42.440  30.372  17.482 -0.38 +0.01    +0.064    37.042
ATOM      3  C   UNL d   1      41.808  25.803  16.237 -0.35 +0.01    +0.064    37.042
ATOM      4  C   UNL d   1      46.224  24.732  17.975 -0.12 +0.03    +0.064    37.042
ATOM      5  C   UNL d   1      45.739  30.026  18.527 -0.17 +0.02    +0.066    37.042
ATOM      6  C   UNL d   1      45.501  31.385  18.813 -0.21 -0.01    -0.021    37.042
ATOM      7  C   UNL d   1      44.198  31.649  18.438 -0.29 -0.01    -0.025    37.042
ATOM      8  C   UNL d   1      43.702  30.445  17.924 -0.28 +0.02    +0.066    37.042
ATOM      9  C   UNL d   1      43.435  32.977  18.553 -0.42 +0.01    +0.051    37.042
ATOM     10  C   UNL d   1      41.852  29.185  16.913 -0.11 +0.02    +0.066    37.042
ATOM     11  C   UNL d   1      40.582  29.082  16.304 -0.12 -0.01    -0.021    37.042
ATOM     12  C   UNL d   1      40.426  27.740  15.947 -0.27 +0.00    +0.000    37.042
ATOM     13  C   UNL d   1      41.613  27.128  16.351 -0.31 +0.02    +0.070    37.042
ATOM     14  C   UNL d   1      39.640  30.220  16.008 -0.33 +0.01    +0.052    37.042
ATOM     15  C   UNL d   1      42.945  25.002  16.648 -0.27 +0.02    +0.066    37.042
ATOM     16  C   UNL d   1      43.024  23.617  16.633 -0.28 -0.00    -0.021    37.042
ATOM     17  C   UNL d   1      44.295  23.303  17.136 -0.23 +0.00    +0.000    37.042
ATOM     18  C   UNL d   1      44.899  24.527  17.403 -0.18 +0.03    +0.070    37.042
ATOM     19  C   UNL d   1      41.933  22.681  16.163 -0.45 +0.00    +0.052    37.042
ATOM     20  C   UNL d   1      46.798  25.908  18.323 -0.10 +0.03    +0.066    37.042
ATOM     21  C   UNL d   1      48.065  25.975  18.899 -0.06 -0.01    -0.025    37.042
ATOM     22  C   UNL d   1      48.298  27.318  19.133 -0.05 -0.01    -0.021    37.042
ATOM     23  C   UNL d   1      47.148  28.008  18.695 -0.09 +0.03    +0.066    37.042
ATOM     24  C   UNL d   1      49.001  24.815  19.229 -0.04 +0.03    +0.051    37.042
ATOM     25  N   UNL d   1      44.637  29.425  17.961 -0.13 -0.08    -0.248    37.042
ATOM     26  N   UNL d   1      42.496  28.014  16.884 -0.17 -0.06    -0.248    37.042
ATOM     27  N   UNL d   1      44.055  25.515  17.129 -0.14 -0.08    -0.248    37.042
ATOM     28  N   UNL d   1      46.237  27.159  18.207 -0.07 -0.11    -0.248    37.042
ATOM     29 FE   UNL d   1      44.333  27.354  17.521 -0.05 +0.00    +0.000    37.042
ATOM     30  C   UNL d   1      46.463  32.353  19.492 -0.16 +0.01    +0.052    37.042
ATOM     31  C   UNL d   1      46.789  33.525  18.566 -0.14 +0.02    +0.115    37.042
ATOM     32  C   UNL d   1      48.048  33.291  17.760 -0.12 +0.02    +0.139    37.042
ATOM     33  O   UNL d   1      47.987  32.644  16.725 -0.02 -0.10    -0.650    37.042
ATOM     34  O   UNL d   1      49.241  33.817  18.123 +0.04 -0.10    -0.776    37.042
ATOM     35  H   UNL d   1      49.469  34.076  19.027 +0.02 +0.02    +0.167    37.042
ATOM     36  C   UNL d   1      43.586  27.165  19.471 +0.16 +0.11    +0.190    37.042
ATOM     37  O   UNL d   1      43.970  27.166  20.816 -0.35 -0.51    -0.399    37.042
ATOM     38  H   UNL d   1      44.914  27.488  20.813 +0.05 +0.30    +0.209    37.042
ATOM     39  C   UNL d   1      49.533  27.894  19.800 -0.02 +0.02    +0.052    37.042
ATOM     40  C   UNL d   1      49.256  28.201  21.281 -0.02 +0.05    +0.115    37.042
ATOM     41  C   UNL d   1      47.792  28.385  21.618 -0.07 +0.13    +0.139    37.042
ATOM     42  O   UNL d   1      47.348  29.516  21.763 -0.14 -0.64    -0.650    37.042
ATOM     43  O   UNL d   1      46.939  27.338  21.677 -0.44 -1.13    -0.776    37.042
ATOM     44  H   UNL d   1      46.189  27.245  21.075 +0.02 +0.23    +0.167    37.042
ATOM     45  C   UNL d   1      39.306  26.973  15.257 -0.47 +0.00    +0.004    37.042
ATOM     46  C   UNL d   1      39.287  26.326  14.094 -0.49 +0.00    +0.012    37.042
ATOM     47  C   UNL d   1      44.911  21.970  17.408 -0.25 +0.00    +0.004    37.042
ATOM     48  C   UNL d   1      45.959  21.490  16.734 -0.22 +0.01    +0.012    37.042
TER
ENDMDL
MODEL       46
USER    Run = 46
USER    Cluster Rank = 15
USER    Number of conformations in this cluster = 4
USER  
USER    RMSD from reference structure       = 23.256 A
USER  
USER    Estimated Free Energy of Binding    =   -6.33 kcal/mol  [=(1)+(2)+(3)-(4)]
USER    Estimated Inhibition Constant, Ki   =   23.02 uM (micromolar)  [Temperature = 298.15 K]
USER    
USER    (1) Final Intermolecular Energy     =   -9.91 kcal/mol
USER        vdW + Hbond + desolv Energy     =   -7.10 kcal/mol
USER        Electrostatic Energy            =   -2.80 kcal/mol
USER    (2) Final Total Internal Energy     =   -1.59 kcal/mol
USER    (3) Torsional Free Energy           =   +3.58 kcal/mol
USER    (4) Unbound System's Energy  [=(2)] =   -1.59 kcal/mol
USER    
USER    
USER  
USER    DPF = D:/Protein_go_brrr/autodock/final/6BB5/heme_Co/dock.dpf
USER    NEWDPF move	heme_Co_opt.pdbqt
USER    NEWDPF about	8.781000 34.984000 -0.736000
USER    NEWDPF tran0	35.886617 29.390134 0.282614
USER    NEWDPF axisangle0	-0.914810 0.403596 0.015252 -127.480747
USER    NEWDPF quaternion0	-0.820400 0.361944 0.013678 -0.442439
USER    NEWDPF dihe0	70.83 101.72 -58.53 137.15 137.73 142.56 -141.18 -146.12 -37.71 44.51 161.90 158.80 
USER  
USER                              x       y       z    vdW   Elec        q     RMS 
ATOM      1  C   UNL d   1      33.904  29.717   1.105 -0.18 +0.01    +0.064    23.256
ATOM      2  C   UNL d   1      37.557  32.655   0.307 -0.21 -0.01    +0.064    23.256
ATOM      3  C   UNL d   1      40.279  28.966  -1.037 -0.18 -0.00    +0.064    23.256
ATOM      4  C   UNL d   1      36.450  25.998  -0.598 -0.13 -0.00    +0.064    23.256
ATOM      5  C   UNL d   1      34.713  30.786   1.021 -0.14 +0.01    +0.066    23.256
ATOM      6  C   UNL d   1      34.252  32.094   1.271 -0.12 -0.00    -0.021    23.256
ATOM      7  C   UNL d   1      35.310  32.944   1.015 -0.13 -0.00    -0.025    23.256
ATOM      8  C   UNL d   1      36.375  32.119   0.637 -0.15 -0.00    +0.066    23.256
ATOM      9  C   UNL d   1      35.333  34.477   1.119 -0.19 -0.00    +0.051    23.256
ATOM     10  C   UNL d   1      38.716  31.885  -0.069 -0.22 -0.01    +0.066    23.256
ATOM     11  C   UNL d   1      40.021  32.377  -0.290 -0.27 +0.00    -0.021    23.256
ATOM     12  C   UNL d   1      40.795  31.279  -0.676 -0.27 -0.00    +0.000    23.256
ATOM     13  C   UNL d   1      39.911  30.200  -0.651 -0.24 -0.01    +0.070    23.256
ATOM     14  C   UNL d   1      40.495  33.787  -0.048 -0.33 -0.00    +0.052    23.256
ATOM     15  C   UNL d   1      39.487  27.754  -1.122 -0.19 -0.00    +0.066    23.256
ATOM     16  C   UNL d   1      39.891  26.544  -1.667 -0.16 -0.00    -0.021    23.256
ATOM     17  C   UNL d   1      38.789  25.685  -1.546 -0.12 -0.00    +0.000    23.256
ATOM     18  C   UNL d   1      37.802  26.438  -0.918 -0.13 -0.00    +0.070    23.256
ATOM     19  C   UNL d   1      41.253  26.260  -2.261 -0.15 +0.00    +0.052    23.256
ATOM     20  C   UNL d   1      35.446  26.736  -0.067 -0.11 -0.00    +0.066    23.256
ATOM     21  C   UNL d   1      34.177  26.211   0.161 -0.22 +0.00    -0.025    23.256
ATOM     22  C   UNL d   1      33.429  27.253   0.679 -0.24 -0.00    -0.021    23.256
ATOM     23  C   UNL d   1      34.283  28.374   0.730 -0.09 +0.01    +0.066    23.256
ATOM     24  C   UNL d   1      33.692  24.791  -0.119 -0.16 -0.01    +0.051    23.256
ATOM     25  N   UNL d   1      36.035  30.777   0.637 -0.10 -0.01    -0.248    23.256
ATOM     26  N   UNL d   1      38.669  30.558  -0.229 -0.15 +0.02    -0.248    23.256
ATOM     27  N   UNL d   1      38.242  27.673  -0.708 -0.13 +0.00    -0.248    23.256
ATOM     28  N   UNL d   1      35.505  28.067   0.277 +0.05 -0.01    -0.248    23.256
ATOM     29 FE   UNL d   1      37.201  29.131  -0.075 -0.04 +0.00    +0.000    23.256
ATOM     30  C   UNL d   1      32.834  32.500   1.657 -0.14 +0.03    +0.052    23.256
ATOM     31  C   UNL d   1      32.192  33.330   0.546 -0.07 +0.05    +0.115    23.256
ATOM     32  C   UNL d   1      30.733  32.986   0.337 +0.13 +0.15    +0.139    23.256
ATOM     33  O   UNL d   1      29.878  33.579   0.977 -0.16 -0.79    -0.650    23.256
ATOM     34  O   UNL d   1      30.335  32.069  -0.575 -0.43 -0.85    -0.776    23.256
ATOM     35  H   UNL d   1      30.530  31.123  -0.516 +0.01 +0.20    +0.167    23.256
ATOM     36  C   UNL d   1      36.521  29.625  -1.995 -0.04 +0.00    +0.190    23.256
ATOM     37  O   UNL d   1      35.583  30.405  -2.678 +0.00 -0.02    -0.399    23.256
ATOM     38  H   UNL d   1      34.956  30.729  -1.972 +0.02 +0.02    +0.209    23.256
ATOM     39  C   UNL d   1      31.957  27.184   1.041 -0.18 +0.01    +0.052    23.256
ATOM     40  C   UNL d   1      31.095  27.798  -0.074 -0.11 +0.04    +0.115    23.256
ATOM     41  C   UNL d   1      29.917  28.609   0.422 -0.01 +0.14    +0.139    23.256
ATOM     42  O   UNL d   1      29.645  28.602   1.615 -0.46 -1.09    -0.650    23.256
ATOM     43  O   UNL d   1      29.209  29.412  -0.403 +0.01 -0.82    -0.776    23.256
ATOM     44  H   UNL d   1      29.627  30.078  -0.965 +0.02 +0.15    +0.167    23.256
ATOM     45  C   UNL d   1      42.264  31.123  -1.047 -0.38 -0.00    +0.004    23.256
ATOM     46  C   UNL d   1      43.185  30.275  -0.597 -0.49 -0.00    +0.012    23.256
ATOM     47  C   UNL d   1      38.620  24.278  -2.016 -0.06 -0.00    +0.004    23.256
ATOM     48  C   UNL d   1      38.435  23.243  -1.193 -0.07 -0.00    +0.012    23.256
TER
ENDMDL
MODEL       48
USER    Run = 48
USER    Cluster Rank = 16
USER    Number of conformations in this cluster = 1
USER  
USER    RMSD from reference structure       = 39.428 A
USER  
USER    Estimated Free Energy of Binding    =   -6.23 kcal/mol  [=(1)+(2)+(3)-(4)]
USER    Estimated Inhibition Constant, Ki   =   27.26 uM (micromolar)  [Temperature = 298.15 K]
USER    
USER    (1) Final Intermolecular Energy     =   -9.81 kcal/mol
USER        vdW + Hbond + desolv Energy     =   -6.91 kcal/mol
USER        Electrostatic Energy            =   -2.90 kcal/mol
USER    (2) Final Total Internal Energy     =   -2.41 kcal/mol
USER    (3) Torsional Free Energy           =   +3.58 kcal/mol
USER    (4) Unbound System's Energy  [=(2)] =   -2.41 kcal/mol
USER    
USER    
USER  
USER    DPF = D:/Protein_go_brrr/autodock/final/6BB5/heme_Co/dock.dpf
USER    NEWDPF move	heme_Co_opt.pdbqt
USER    NEWDPF about	8.781000 34.984000 -0.736000
USER    NEWDPF tran0	46.368366 20.458949 17.739208
USER    NEWDPF axisangle0	0.287696 0.941173 -0.177268 -166.588379
USER    NEWDPF quaternion0	0.285728 0.934734 -0.176055 -0.116771
USER    NEWDPF dihe0	177.01 132.21 -21.10 -91.02 -4.78 -141.68 -175.25 -32.51 -102.89 180.00 -180.00 178.60 
USER  
USER                              x       y       z    vdW   Elec        q     RMS 
ATOM      1  C   UNL d   1      48.122  20.228  18.999 -0.06 +0.04    +0.064    39.428
ATOM      2  C   UNL d   1      46.012  17.309  15.894 -0.06 +0.02    +0.064    39.428
ATOM      3  C   UNL d   1      42.488  20.473  15.257 -0.02 +0.00    +0.064    39.428
ATOM      4  C   UNL d   1      44.822  23.630  18.130 -0.17 +0.03    +0.064    39.428
ATOM      5  C   UNL d   1      47.785  19.183  18.225 -0.06 +0.04    +0.066    39.428
ATOM      6  C   UNL d   1      48.621  18.058  18.083 -0.02 -0.01    -0.021    39.428
ATOM      7  C   UNL d   1      48.015  17.225  17.164 -0.02 -0.01    -0.025    39.428
ATOM      8  C   UNL d   1      46.828  17.868  16.797 -0.05 +0.03    +0.066    39.428
ATOM      9  C   UNL d   1      48.522  15.872  16.640 -0.00 +0.02    +0.051    39.428
ATOM     10  C   UNL d   1      44.758  17.884  15.475 -0.10 +0.02    +0.066    39.428
ATOM     11  C   UNL d   1      43.792  17.282  14.640 -0.13 -0.00    -0.021    39.428
ATOM     12  C   UNL d   1      42.773  18.225  14.474 -0.28 +0.00    +0.000    39.428
ATOM     13  C   UNL d   1      43.186  19.324  15.228 -0.28 +0.01    +0.070    39.428
ATOM     14  C   UNL d   1      43.815  15.866  14.125 -0.08 +0.01    +0.052    39.428
ATOM     15  C   UNL d   1      42.793  21.717  15.937 -0.20 +0.01    +0.066    39.428
ATOM     16  C   UNL d   1      42.104  22.915  15.809 -0.37 -0.00    -0.021    39.428
ATOM     17  C   UNL d   1      42.775  23.829  16.633 -0.33 +0.00    +0.000    39.428
ATOM     18  C   UNL d   1      43.814  23.110  17.214 -0.23 +0.02    +0.070    39.428
ATOM     19  C   UNL d   1      40.885  23.137  14.942 -0.56 +0.00    +0.052    39.428
ATOM     20  C   UNL d   1      45.891  22.973  18.639 -0.12 +0.03    +0.066    39.428
ATOM     21  C   UNL d   1      46.812  23.592  19.482 -0.06 -0.01    -0.025    39.428
ATOM     22  C   UNL d   1      47.759  22.627  19.772 -0.04 -0.01    -0.021    39.428
ATOM     23  C   UNL d   1      47.372  21.461  19.077 -0.08 +0.04    +0.066    39.428
ATOM     24  C   UNL d   1      46.802  25.038  19.971 -0.06 +0.03    +0.051    39.428
ATOM     25  N   UNL d   1      46.657  19.081  17.443 -0.06 -0.13    -0.248    39.428
ATOM     26  N   UNL d   1      44.359  19.095  15.877 -0.11 -0.08    -0.248    39.428
ATOM     27  N   UNL d   1      43.813  21.864  16.753 -0.16 -0.07    -0.248    39.428
ATOM     28  N   UNL d   1      46.243  21.667  18.388 -0.09 -0.13    -0.248    39.428
ATOM     29 FE   UNL d   1      45.152  20.557  17.080 -0.05 +0.00    +0.000    39.428
ATOM     30  C   UNL d   1      49.979  17.845  18.745 -0.01 +0.02    +0.052    39.428
ATOM     31  C   UNL d   1      51.107  18.260  17.801 -0.02 +0.06    +0.115    39.428
ATOM     32  C   UNL d   1      51.248  19.763  17.696 -0.05 +0.12    +0.139    39.428
ATOM     33  O   UNL d   1      51.403  20.425  18.711 -0.00 -0.40    -0.650    39.428
ATOM     34  O   UNL d   1      51.256  20.401  16.502 -0.31 -1.50    -0.776    39.428
ATOM     35  H   UNL d   1      51.244  21.363  16.399 +0.02 +0.40    +0.167    39.428
ATOM     36  C   UNL d   1      46.344  21.218  15.488 -0.12 +0.20    +0.190    39.428
ATOM     37  O   UNL d   1      46.875  20.825  14.255 -0.64 -0.58    -0.399    39.428
ATOM     38  H   UNL d   1      46.315  20.049  13.970 +0.07 +0.18    +0.209    39.428
ATOM     39  C   UNL d   1      49.000  22.839  20.619 -0.01 +0.02    +0.052    39.428
ATOM     40  C   UNL d   1      50.106  23.524  19.799 -0.01 +0.06    +0.115    39.428
ATOM     41  C   UNL d   1      49.774  23.707  18.333 -0.08 +0.11    +0.139    39.428
ATOM     42  O   UNL d   1      49.485  24.821  17.920 -0.01 -0.44    -0.650    39.428
ATOM     43  O   UNL d   1      49.873  22.689  17.449 -0.22 -1.31    -0.776    39.428
ATOM     44  H   UNL d   1      50.347  21.872  17.650 +0.00 +0.26    +0.167    39.428
ATOM     45  C   UNL d   1      41.456  18.207  13.710 -0.44 +0.00    +0.004    39.428
ATOM     46  C   UNL d   1      41.138  18.711  12.520 -0.41 +0.00    +0.012    39.428
ATOM     47  C   UNL d   1      42.522  25.286  16.846 -0.39 +0.00    +0.004    39.428
ATOM     48  C   UNL d   1      41.943  26.074  15.937 -0.41 +0.00    +0.012    39.428
TER
ENDMDL
MODEL       18
USER    Run = 18
USER    Cluster Rank = 17
USER    Number of conformations in this cluster = 1
USER  
USER    RMSD from reference structure       = 16.123 A
USER  
USER    Estimated Free Energy of Binding    =   -6.14 kcal/mol  [=(1)+(2)+(3)-(4)]
USER    Estimated Inhibition Constant, Ki   =   31.66 uM (micromolar)  [Temperature = 298.15 K]
USER    
USER    (1) Final Intermolecular Energy     =   -9.72 kcal/mol
USER        vdW + Hbond + desolv Energy     =   -8.68 kcal/mol
USER        Electrostatic Energy            =   -1.04 kcal/mol
USER    (2) Final Total Internal Energy     =   -0.79 kcal/mol
USER    (3) Torsional Free Energy           =   +3.58 kcal/mol
USER    (4) Unbound System's Energy  [=(2)] =   -0.79 kcal/mol
USER    
USER    
USER  
USER    DPF = D:/Protein_go_brrr/autodock/final/6BB5/heme_Co/dock.dpf
USER    NEWDPF move	heme_Co_opt.pdbqt
USER    NEWDPF about	8.781000 34.984000 -0.736000
USER    NEWDPF tran0	24.308876 23.789370 5.212805
USER    NEWDPF axisangle0	0.002152 -0.976610 -0.215006 115.075212
USER    NEWDPF quaternion0	0.001816 -0.824009 -0.181410 0.536746
USER    NEWDPF dihe0	122.39 152.16 -59.98 -95.79 118.63 -58.97 -166.26 -75.72 85.84 125.95 16.06 -157.69 
USER  
USER                              x       y       z    vdW   Elec        q     RMS 
ATOM      1  C   UNL d   1      24.279  23.629   7.378 -0.16 +0.01    +0.064    16.123
ATOM      2  C   UNL d   1      27.573  22.509   4.137 -0.09 +0.00    +0.064    16.123
ATOM      3  C   UNL d   1      24.539  23.619   0.616 -0.02 -0.01    +0.064    16.123
ATOM      4  C   UNL d   1      21.294  25.134   3.908 -0.13 +0.01    +0.064    16.123
ATOM      5  C   UNL d   1      25.389  23.207   6.751 -0.13 +0.01    +0.066    16.123
ATOM      6  C   UNL d   1      26.556  22.852   7.455 -0.23 -0.00    -0.021    16.123
ATOM      7  C   UNL d   1      27.516  22.550   6.509 -0.18 -0.00    -0.025    16.123
ATOM      8  C   UNL d   1      26.889  22.717   5.269 -0.09 +0.00    +0.066    16.123
ATOM      9  C   UNL d   1      28.972  22.120   6.747 -0.26 -0.00    +0.051    16.123
ATOM     10  C   UNL d   1      27.005  22.631   2.817 -0.04 -0.00    +0.066    16.123
ATOM     11  C   UNL d   1      27.627  22.291   1.596 -0.03 +0.00    -0.021    16.123
ATOM     12  C   UNL d   1      26.719  22.621   0.586 -0.01 -0.00    +0.000    16.123
ATOM     13  C   UNL d   1      25.608  23.124   1.264 -0.01 -0.01    +0.070    16.123
ATOM     14  C   UNL d   1      28.961  21.609   1.434 -0.05 -0.01    +0.052    16.123
ATOM     15  C   UNL d   1      23.335  24.222   1.153 -0.06 -0.01    +0.066    16.123
ATOM     16  C   UNL d   1      22.332  24.846   0.426 -0.15 +0.01    -0.021    16.123
ATOM     17  C   UNL d   1      21.395  25.287   1.371 -0.28 -0.00    +0.000    16.123
ATOM     18  C   UNL d   1      21.894  24.881   2.604 -0.16 -0.01    +0.070    16.123
ATOM     19  C   UNL d   1      22.303  24.995  -1.079 -0.20 -0.02    +0.052    16.123
ATOM     20  C   UNL d   1      21.803  24.826   5.124 -0.12 +0.01    +0.066    16.123
ATOM     21  C   UNL d   1      21.149  25.154   6.309 -0.26 -0.01    -0.025    16.123
ATOM     22  C   UNL d   1      21.972  24.706   7.326 -0.25 -0.00    -0.021    16.123
ATOM     23  C   UNL d   1      23.103  24.133   6.706 -0.15 +0.01    +0.066    16.123
ATOM     24  C   UNL d   1      19.814  25.876   6.467 -0.41 +0.01    +0.051    16.123
ATOM     25  N   UNL d   1      25.569  23.118   5.389 -0.03 -0.03    -0.248    16.123
ATOM     26  N   UNL d   1      25.761  23.077   2.615 -0.01 +0.00    -0.248    16.123
ATOM     27  N   UNL d   1      23.066  24.277   2.439 -0.05 +0.02    -0.248    16.123
ATOM     28  N   UNL d   1      23.006  24.205   5.373 -0.07 -0.04    -0.248    16.123
ATOM     29 FE   UNL d   1      24.241  23.732   3.829 -0.02 +0.00    +0.000    16.123
ATOM     30  C   UNL d   1      26.752  22.886   8.967 -0.27 +0.01    +0.052    16.123
ATOM     31  C   UNL d   1      26.606  21.485   9.559 -0.39 +0.02    +0.115    16.123
ATOM     32  C   UNL d   1      25.213  21.224  10.089 -0.29 +0.02    +0.139    16.123
ATOM     33  O   UNL d   1      24.268  21.213   9.315 +0.02 -0.07    -0.650    16.123
ATOM     34  O   UNL d   1      24.981  20.954  11.395 -0.01 -0.09    -0.776    16.123
ATOM     35  H   UNL d   1      24.437  21.504  11.976 -0.52 -0.02    +0.167    16.123
ATOM     36  C   UNL d   1      25.151  25.617   3.949 +0.01 +0.04    +0.190    16.123
ATOM     37  O   UNL d   1      25.531  26.722   3.181 -0.11 -0.05    -0.399    16.123
ATOM     38  H   UNL d   1      24.788  26.846   2.525 -0.12 -0.09    +0.209    16.123
ATOM     39  C   UNL d   1      21.712  24.881   8.811 -0.42 +0.01    +0.052    16.123
ATOM     40  C   UNL d   1      21.523  26.367   9.157 -0.49 +0.02    +0.115    16.123
ATOM     41  C   UNL d   1      22.712  27.243   8.821 -0.30 +0.05    +0.139    16.123
ATOM     42  O   UNL d   1      23.066  27.349   7.655 -0.57 -0.53    -0.650    16.123
ATOM     43  O   UNL d   1      23.340  27.980   9.763 -0.14 -0.31    -0.776    16.123
ATOM     44  H   UNL d   1      22.870  28.600  10.337 -0.25 +0.02    +0.167    16.123
ATOM     45  C   UNL d   1      26.765  22.502  -0.931 -0.01 -0.00    +0.004    16.123
ATOM     46  C   UNL d   1      26.953  23.429  -1.867 -0.00 -0.00    +0.012    16.123
ATOM     47  C   UNL d   1      20.142  26.076   1.176 -0.54 -0.00    +0.004    16.123
ATOM     48  C   UNL d   1      18.929  25.524   1.089 -0.62 -0.00    +0.012    16.123
TER
ENDMDL
MODEL       83
USER    Run = 83
USER    Cluster Rank = 18
USER    Number of conformations in this cluster = 2
USER  
USER    RMSD from reference structure       = 17.476 A
USER  
USER    Estimated Free Energy of Binding    =   -5.72 kcal/mol  [=(1)+(2)+(3)-(4)]
USER    Estimated Inhibition Constant, Ki   =   64.25 uM (micromolar)  [Temperature = 298.15 K]
USER    
USER    (1) Final Intermolecular Energy     =   -9.30 kcal/mol
USER        vdW + Hbond + desolv Energy     =   -7.06 kcal/mol
USER        Electrostatic Energy            =   -2.23 kcal/mol
USER    (2) Final Total Internal Energy     =   -1.72 kcal/mol
USER    (3) Torsional Free Energy           =   +3.58 kcal/mol
USER    (4) Unbound System's Energy  [=(2)] =   -1.72 kcal/mol
USER    
USER    
USER  
USER    DPF = D:/Protein_go_brrr/autodock/final/6BB5/heme_Co/dock.dpf
USER    NEWDPF move	heme_Co_opt.pdbqt
USER    NEWDPF about	8.781000 34.984000 -0.736000
USER    NEWDPF tran0	15.171882 17.178878 5.076941
USER    NEWDPF axisangle0	0.928014 0.182539 -0.324759 -117.640904
USER    NEWDPF quaternion0	0.793962 0.156171 -0.277848 -0.517722
USER    NEWDPF dihe0	-101.78 85.85 -79.91 97.15 137.75 131.25 34.15 -85.04 125.43 27.99 -123.77 174.08 
USER  
USER                              x       y       z    vdW   Elec        q     RMS 
ATOM      1  C   UNL d   1      14.135  17.821   6.874 -0.18 +0.02    +0.064    17.476
ATOM      2  C   UNL d   1      12.669  15.481   3.002 -0.16 +0.01    +0.064    17.476
ATOM      3  C   UNL d   1      16.967  16.040   0.991 -0.12 -0.00    +0.064    17.476
ATOM      4  C   UNL d   1      18.602  18.093   5.087 -0.11 +0.01    +0.064    17.476
ATOM      5  C   UNL d   1      13.408  17.172   5.949 -0.17 +0.02    +0.066    17.476
ATOM      6  C   UNL d   1      12.086  16.754   6.196 -0.25 -0.00    -0.021    17.476
ATOM      7  C   UNL d   1      11.673  16.056   5.078 -0.23 -0.01    -0.025    17.476
ATOM      8  C   UNL d   1      12.754  16.092   4.191 -0.14 +0.01    +0.066    17.476
ATOM      9  C   UNL d   1      10.317  15.375   4.840 -0.37 +0.01    +0.051    17.476
ATOM     10  C   UNL d   1      13.719  15.486   2.015 -0.11 +0.01    +0.066    17.476
ATOM     11  C   UNL d   1      13.641  14.986   0.697 -0.13 -0.00    -0.021    17.476
ATOM     12  C   UNL d   1      14.907  15.165   0.132 -0.13 +0.00    +0.000    17.476
ATOM     13  C   UNL d   1      15.658  15.772   1.139 -0.06 +0.01    +0.070    17.476
ATOM     14  C   UNL d   1      12.404  14.464   0.013 -0.15 +0.02    +0.052    17.476
ATOM     15  C   UNL d   1      17.902  16.612   1.940 -0.07 -0.00    +0.066    17.476
ATOM     16  C   UNL d   1      19.275  16.729   1.775 -0.09 +0.00    -0.021    17.476
ATOM     17  C   UNL d   1      19.751  17.319   2.954 -0.09 -0.00    +0.000    17.476
ATOM     18  C   UNL d   1      18.625  17.531   3.742 -0.10 +0.00    +0.070    17.476
ATOM     19  C   UNL d   1      20.051  16.293   0.552 -0.06 -0.00    +0.052    17.476
ATOM     20  C   UNL d   1      17.532  18.230   5.905 -0.16 +0.01    +0.066    17.476
ATOM     21  C   UNL d   1      17.641  18.752   7.192 -0.19 -0.00    -0.025    17.476
ATOM     22  C   UNL d   1      16.364  18.713   7.721 -0.21 -0.01    -0.021    17.476
ATOM     23  C   UNL d   1      15.534  18.153   6.727 -0.18 +0.02    +0.066    17.476
ATOM     24  C   UNL d   1      18.905  19.247   7.892 -0.18 +0.01    +0.051    17.476
ATOM     25  N   UNL d   1      13.841  16.782   4.702 -0.08 -0.06    -0.248    17.476
ATOM     26  N   UNL d   1      14.923  16.016   2.257 +0.00 -0.06    -0.248    17.476
ATOM     27  N   UNL d   1      17.546  17.071   3.119 +0.04 -0.00    -0.248    17.476
ATOM     28  N   UNL d   1      16.237  17.857   5.627 -0.12 -0.05    -0.248    17.476
ATOM     29 FE   UNL d   1      15.804  16.937   3.867 -0.04 +0.00    +0.000    17.476
ATOM     30  C   UNL d   1      11.295  16.952   7.485 -0.35 +0.01    +0.052    17.476
ATOM     31  C   UNL d   1      12.193  16.742   8.704 -0.19 +0.05    +0.115    17.476
ATOM     32  C   UNL d   1      12.857  15.382   8.704 -0.14 +0.11    +0.139    17.476
ATOM     33  O   UNL d   1      12.346  14.464   9.327 -0.54 -0.68    -0.650    17.476
ATOM     34  O   UNL d   1      13.982  15.133   7.994 +0.06 -0.43    -0.776    17.476
ATOM     35  H   UNL d   1      14.005  14.616   7.176 +0.03 +0.06    +0.167    17.476
ATOM     36  C   UNL d   1      16.194  15.063   4.722 -0.03 +0.03    +0.190    17.476
ATOM     37  O   UNL d   1      15.789  14.199   5.745 +0.01 -0.07    -0.399    17.476
ATOM     38  H   UNL d   1      15.418  14.797   6.454 +0.02 +0.05    +0.209    17.476
ATOM     39  C   UNL d   1      15.981  19.132   9.128 -0.33 +0.01    +0.052    17.476
ATOM     40  C   UNL d   1      16.212  17.978  10.119 -0.27 +0.07    +0.115    17.476
ATOM     41  C   UNL d   1      15.399  18.077  11.393 -0.31 +0.15    +0.139    17.476
ATOM     42  O   UNL d   1      14.186  18.221  11.319 -0.59 -0.95    -0.650    17.476
ATOM     43  O   UNL d   1      15.965  17.923  12.610 -0.03 -0.78    -0.776    17.476
ATOM     44  H   UNL d   1      16.246  17.063  12.947 -0.09 +0.17    +0.167    17.476
ATOM     45  C   UNL d   1      15.484  14.852  -1.242 -0.15 +0.00    +0.004    17.476
ATOM     46  C   UNL d   1      15.517  15.582  -2.354 -0.25 -0.00    +0.012    17.476
ATOM     47  C   UNL d   1      21.152  17.627   3.368 -0.03 +0.00    +0.004    17.476
ATOM     48  C   UNL d   1      21.603  18.866   3.578 -0.04 +0.00    +0.012    17.476
TER
ENDMDL
MODEL       59
USER    Run = 59
USER    Cluster Rank = 19
USER    Number of conformations in this cluster = 2
USER  
USER    RMSD from reference structure       = 38.302 A
USER  
USER    Estimated Free Energy of Binding    =   -5.62 kcal/mol  [=(1)+(2)+(3)-(4)]
USER    Estimated Inhibition Constant, Ki   =   76.58 uM (micromolar)  [Temperature = 298.15 K]
USER    
USER    (1) Final Intermolecular Energy     =   -9.19 kcal/mol
USER        vdW + Hbond + desolv Energy     =   -6.51 kcal/mol
USER        Electrostatic Energy            =   -2.69 kcal/mol
USER    (2) Final Total Internal Energy     =   -2.21 kcal/mol
USER    (3) Torsional Free Energy           =   +3.58 kcal/mol
USER    (4) Unbound System's Energy  [=(2)] =   -2.21 kcal/mol
USER    
USER    
USER  
USER    DPF = D:/Protein_go_brrr/autodock/final/6BB5/heme_Co/dock.dpf
USER    NEWDPF move	heme_Co_opt.pdbqt
USER    NEWDPF about	8.781000 34.984000 -0.736000
USER    NEWDPF tran0	43.179533 16.496848 15.839118
USER    NEWDPF axisangle0	-0.091315 0.669778 -0.736925 -129.732645
USER    NEWDPF quaternion0	-0.082669 0.606363 -0.667153 -0.424732
USER    NEWDPF dihe0	-81.99 128.96 127.36 116.42 140.71 89.60 -56.92 -43.00 -61.69 100.66 151.30 179.93 
USER  
USER                              x       y       z    vdW   Elec        q     RMS 
ATOM      1  C   UNL d   1      44.091  18.463  15.970 -0.20 +0.02    +0.064    38.302
ATOM      2  C   UNL d   1      44.399  14.608  18.737 -0.20 +0.01    +0.064    38.302
ATOM      3  C   UNL d   1      41.108  12.390  16.076 -0.07 +0.01    +0.064    38.302
ATOM      4  C   UNL d   1      41.058  16.168  13.012 -0.19 +0.00    +0.064    38.302
ATOM      5  C   UNL d   1      44.390  17.587  16.943 -0.20 +0.02    +0.066    38.302
ATOM      6  C   UNL d   1      45.388  17.846  17.902 -0.17 -0.01    -0.021    38.302
ATOM      7  C   UNL d   1      45.489  16.716  18.688 -0.18 -0.01    -0.025    38.302
ATOM      8  C   UNL d   1      44.538  15.821  18.186 -0.21 +0.01    +0.066    38.302
ATOM      9  C   UNL d   1      46.440  16.471  19.870 -0.14 +0.01    +0.051    38.302
ATOM     10  C   UNL d   1      43.430  13.632  18.305 -0.16 +0.01    +0.066    38.302
ATOM     11  C   UNL d   1      43.138  12.399  18.929 -0.12 -0.00    -0.021    38.302
ATOM     12  C   UNL d   1      42.173  11.775  18.135 -0.11 +0.00    +0.000    38.302
ATOM     13  C   UNL d   1      41.938  12.676  17.095 -0.07 +0.01    +0.070    38.302
ATOM     14  C   UNL d   1      43.687  11.915  20.246 -0.07 +0.00    +0.052    38.302
ATOM     15  C   UNL d   1      40.790  13.177  14.901 -0.11 +0.01    +0.066    38.302
ATOM     16  C   UNL d   1      40.035  12.762  13.813 -0.10 -0.00    -0.021    38.302
ATOM     17  C   UNL d   1      40.020  13.848  12.925 -0.14 +0.00    +0.000    38.302
ATOM     18  C   UNL d   1      40.755  14.848  13.552 -0.17 +0.00    +0.070    38.302
ATOM     19  C   UNL d   1      39.384  11.405  13.663 -0.05 +0.00    +0.052    38.302
ATOM     20  C   UNL d   1      41.842  17.124  13.564 -0.24 +0.01    +0.066    38.302
ATOM     21  C   UNL d   1      42.088  18.341  12.931 -0.29 -0.00    -0.025    38.302
ATOM     22  C   UNL d   1      42.936  19.035  13.774 -0.28 -0.00    -0.021    38.302
ATOM     23  C   UNL d   1      43.177  18.196  14.883 -0.22 +0.01    +0.066    38.302
ATOM     24  C   UNL d   1      41.557  18.812  11.580 -0.35 +0.00    +0.051    38.302
ATOM     25  N   UNL d   1      43.838  16.337  17.108 -0.16 -0.06    -0.248    38.302
ATOM     26  N   UNL d   1      42.657  13.822  17.230 +0.06 -0.05    -0.248    38.302
ATOM     27  N   UNL d   1      41.224  14.403  14.712 -0.08 -0.03    -0.248    38.302
ATOM     28  N   UNL d   1      42.519  17.038  14.758 -0.14 -0.04    -0.248    38.302
ATOM     29 FE   UNL d   1      42.453  15.316  15.837 -0.05 +0.00    +0.000    38.302
ATOM     30  C   UNL d   1      46.256  19.097  17.997 -0.16 +0.02    +0.052    38.302
ATOM     31  C   UNL d   1      47.738  18.726  17.977 -0.06 +0.06    +0.115    38.302
ATOM     32  C   UNL d   1      48.456  19.277  16.764 -0.04 +0.16    +0.139    38.302
ATOM     33  O   UNL d   1      49.669  19.160  16.678 -0.22 -0.88    -0.650    38.302
ATOM     34  O   UNL d   1      47.790  19.859  15.739 +0.05 -1.33    -0.776    38.302
ATOM     35  H   UNL d   1      47.411  19.375  14.992 +0.03 +0.20    +0.167    38.302
ATOM     36  C   UNL d   1      44.120  14.576  14.803 -0.04 +0.03    +0.190    38.302
ATOM     37  O   UNL d   1      45.201  14.968  14.007 +0.00 -0.09    -0.399    38.302
ATOM     38  H   UNL d   1      45.271  15.955  14.137 +0.03 +0.06    +0.209    38.302
ATOM     39  C   UNL d   1      43.531  20.403  13.493 -0.26 +0.01    +0.052    38.302
ATOM     40  C   UNL d   1      44.719  20.289  12.524 -0.25 +0.05    +0.115    38.302
ATOM     41  C   UNL d   1      46.040  19.969  13.191 -0.28 +0.09    +0.139    38.302
ATOM     42  O   UNL d   1      46.413  18.806  13.255 +0.02 -0.40    -0.650    38.302
ATOM     43  O   UNL d   1      46.863  20.943  13.641 -0.51 -0.98    -0.776    38.302
ATOM     44  H   UNL d   1      47.277  20.911  14.513 +0.03 +0.36    +0.167    38.302
ATOM     45  C   UNL d   1      41.435  10.448  18.248 -0.06 +0.00    +0.004    38.302
ATOM     46  C   UNL d   1      40.168  10.184  18.556 -0.06 +0.00    +0.012    38.302
ATOM     47  C   UNL d   1      39.417  13.958  11.563 -0.12 +0.00    +0.004    38.302
ATOM     48  C   UNL d   1      38.463  14.836  11.248 -0.20 +0.00    +0.012    38.302
TER
ENDMDL
MODEL       76
USER    Run = 76
USER    Cluster Rank = 20
USER    Number of conformations in this cluster = 1
USER  
USER    RMSD from reference structure       = 34.791 A
USER  
USER    Estimated Free Energy of Binding    =   -5.51 kcal/mol  [=(1)+(2)+(3)-(4)]
USER    Estimated Inhibition Constant, Ki   =   91.94 uM (micromolar)  [Temperature = 298.15 K]
USER    
USER    (1) Final Intermolecular Energy     =   -9.09 kcal/mol
USER        vdW + Hbond + desolv Energy     =   -7.40 kcal/mol
USER        Electrostatic Energy            =   -1.69 kcal/mol
USER    (2) Final Total Internal Energy     =   -2.05 kcal/mol
USER    (3) Torsional Free Energy           =   +3.58 kcal/mol
USER    (4) Unbound System's Energy  [=(2)] =   -2.05 kcal/mol
USER    
USER    
USER  
USER    DPF = D:/Protein_go_brrr/autodock/final/6BB5/heme_Co/dock.dpf
USER    NEWDPF move	heme_Co_opt.pdbqt
USER    NEWDPF about	8.781000 34.984000 -0.736000
USER    NEWDPF tran0	32.958397 15.526291 23.703304
USER    NEWDPF axisangle0	-0.687728 0.436602 -0.580007 143.171372
USER    NEWDPF quaternion0	-0.652515 0.414247 -0.550309 0.315886
USER    NEWDPF dihe0	138.98 153.46 -171.66 108.25 98.14 122.13 -128.33 5.31 -127.08 16.42 179.89 7.02 
USER  
USER                              x       y       z    vdW   Elec        q     RMS 
ATOM      1  C   UNL d   1      32.028  16.409  21.951 -0.28 +0.03    +0.064    34.791
ATOM      2  C   UNL d   1      36.160  14.140  22.573 -0.24 -0.01    +0.064    34.791
ATOM      3  C   UNL d   1      35.375  13.923  27.281 -0.10 -0.03    +0.064    34.791
ATOM      4  C   UNL d   1      30.976  15.894  26.625 -0.15 -0.02    +0.064    34.791
ATOM      5  C   UNL d   1      33.232  15.838  21.780 -0.25 +0.01    +0.066    34.791
ATOM      6  C   UNL d   1      33.792  15.644  20.502 -0.30 -0.00    -0.021    34.791
ATOM      7  C   UNL d   1      34.980  14.964  20.687 -0.29 -0.00    -0.025    34.791
ATOM      8  C   UNL d   1      35.102  14.788  22.069 -0.23 -0.01    +0.066    34.791
ATOM      9  C   UNL d   1      35.973  14.492  19.613 -0.30 +0.00    +0.051    34.791
ATOM     10  C   UNL d   1      36.384  13.934  23.983 -0.17 -0.02    +0.066    34.791
ATOM     11  C   UNL d   1      37.540  13.387  24.582 -0.14 +0.00    -0.021    34.791
ATOM     12  C   UNL d   1      37.285  13.339  25.956 -0.09 -0.00    +0.000    34.791
ATOM     13  C   UNL d   1      36.002  13.870  26.093 -0.13 -0.02    +0.070    34.791
ATOM     14  C   UNL d   1      38.826  13.032  23.881 -0.15 -0.01    +0.052    34.791
ATOM     15  C   UNL d   1      34.038  14.388  27.596 +0.03 -0.06    +0.066    34.791
ATOM     16  C   UNL d   1      33.397  14.282  28.822 -0.07 +0.02    -0.021    34.791
ATOM     17  C   UNL d   1      32.127  14.846  28.637 -0.13 -0.00    +0.000    34.791
ATOM     18  C   UNL d   1      32.100  15.270  27.312 -0.14 -0.05    +0.070    34.791
ATOM     19  C   UNL d   1      33.990  13.670  30.072 -0.06 -0.02    +0.052    34.791
ATOM     20  C   UNL d   1      30.896  16.235  25.317 -0.22 -0.01    +0.066    34.791
ATOM     21  C   UNL d   1      29.748  16.797  24.764 -0.20 -0.00    -0.025    34.791
ATOM     22  C   UNL d   1      30.032  16.983  23.423 -0.25 -0.01    -0.021    34.791
ATOM     23  C   UNL d   1      31.346  16.511  23.221 -0.26 +0.02    +0.066    34.791
ATOM     24  C   UNL d   1      28.435  17.121  25.473 -0.16 +0.00    +0.051    34.791
ATOM     25  N   UNL d   1      34.036  15.324  22.771 -0.15 +0.01    -0.248    34.791
ATOM     26  N   UNL d   1      35.481  14.280  24.906 -0.11 +0.08    -0.248    34.791
ATOM     27  N   UNL d   1      33.244  14.953  26.715 -0.07 +0.21    -0.248    34.791
ATOM     28  N   UNL d   1      31.872  16.056  24.364 -0.18 +0.01    -0.248    34.791
ATOM     29 FE   UNL d   1      33.613  15.130  24.860 -0.04 -0.00    +0.000    34.791
ATOM     30  C   UNL d   1      33.163  16.025  19.166 -0.30 +0.03    +0.052    34.791
ATOM     31  C   UNL d   1      32.441  14.827  18.550 -0.23 +0.07    +0.115    34.791
ATOM     32  C   UNL d   1      31.484  14.170  19.521 -0.13 +0.10    +0.139    34.791
ATOM     33  O   UNL d   1      30.285  14.387  19.424 -0.00 -0.96    -0.650    34.791
ATOM     34  O   UNL d   1      31.907  13.304  20.471 +0.04 -0.29    -0.776    34.791
ATOM     35  H   UNL d   1      31.617  13.324  21.393 +0.02 +0.06    +0.167    34.791
ATOM     36  C   UNL d   1      32.778  13.262  24.402 -0.01 -0.01    +0.190    34.791
ATOM     37  O   UNL d   1      32.084  12.566  23.407 +0.01 -0.03    -0.399    34.791
ATOM     38  H   UNL d   1      32.502  12.859  22.550 +0.03 +0.02    +0.209    34.791
ATOM     39  C   UNL d   1      29.065  17.524  22.386 -0.28 +0.04    +0.052    34.791
ATOM     40  C   UNL d   1      29.468  18.945  21.959 -0.42 +0.06    +0.115    34.791
ATOM     41  C   UNL d   1      28.428  19.666  21.126 -0.38 +0.08    +0.139    34.791
ATOM     42  O   UNL d   1      28.268  20.868  21.279 -0.05 -0.15    -0.650    34.791
ATOM     43  O   UNL d   1      27.732  19.033  20.157 -0.36 -0.91    -0.776    34.791
ATOM     44  H   UNL d   1      27.225  19.509  19.486 -0.18 +0.10    +0.167    34.791
ATOM     45  C   UNL d   1      38.109  12.874  27.149 -0.05 -0.00    +0.004    34.791
ATOM     46  C   UNL d   1      38.821  13.567  28.033 -0.06 -0.00    +0.012    34.791
ATOM     47  C   UNL d   1      30.982  14.952  29.590 -0.11 -0.00    +0.004    34.791
ATOM     48  C   UNL d   1      30.930  15.842  30.584 -0.12 -0.00    +0.012    34.791
TER
ENDMDL
MODEL       84
USER    Run = 84
USER    Cluster Rank = 21
USER    Number of conformations in this cluster = 1
USER  
USER    RMSD from reference structure       = 7.115 A
USER  
USER    Estimated Free Energy of Binding    =   -5.45 kcal/mol  [=(1)+(2)+(3)-(4)]
USER    Estimated Inhibition Constant, Ki   =  101.62 uM (micromolar)  [Temperature = 298.15 K]
USER    
USER    (1) Final Intermolecular Energy     =   -9.03 kcal/mol
USER        vdW + Hbond + desolv Energy     =   -5.78 kcal/mol
USER        Electrostatic Energy            =   -3.25 kcal/mol
USER    (2) Final Total Internal Energy     =   -0.78 kcal/mol
USER    (3) Torsional Free Energy           =   +3.58 kcal/mol
USER    (4) Unbound System's Energy  [=(2)] =   -0.78 kcal/mol
USER    
USER    
USER  
USER    DPF = D:/Protein_go_brrr/autodock/final/6BB5/heme_Co/dock.dpf
USER    NEWDPF move	heme_Co_opt.pdbqt
USER    NEWDPF about	8.781000 34.984000 -0.736000
USER    NEWDPF tran0	2.074750 40.900300 -2.600063
USER    NEWDPF axisangle0	0.799631 -0.567462 0.196410 156.336060
USER    NEWDPF quaternion0	0.782642 -0.555405 0.192237 0.205042
USER    NEWDPF dihe0	81.60 117.96 -27.49 -41.40 125.21 132.72 74.03 -48.19 55.43 178.84 140.20 -4.13 
USER  
USER                              x       y       z    vdW   Elec        q     RMS 
ATOM      1  C   UNL d   1       0.633  42.495  -2.293 -0.03 +0.04    +0.064     7.115
ATOM      2  C   UNL d   1       5.099  42.497  -3.924 +0.04 +0.02    +0.064     7.115
ATOM      3  C   UNL d   1       5.484  37.828  -2.987 -0.15 +0.01    +0.064     7.115
ATOM      4  C   UNL d   1       0.801  37.718  -1.677 -0.09 +0.05    +0.064     7.115
ATOM      5  C   UNL d   1       1.837  42.846  -2.773 -0.06 +0.03    +0.066     7.115
ATOM      6  C   UNL d   1       2.105  44.148  -3.238 -0.11 -0.01    -0.021     7.115
ATOM      7  C   UNL d   1       3.395  44.137  -3.731 -0.23 -0.01    -0.025     7.115
ATOM      8  C   UNL d   1       3.864  42.835  -3.531 -0.16 +0.03    +0.066     7.115
ATOM      9  C   UNL d   1       4.170  45.300  -4.369 -0.25 +0.04    +0.051     7.115
ATOM     10  C   UNL d   1       5.677  41.190  -3.736 -0.15 +0.01    +0.066     7.115
ATOM     11  C   UNL d   1       7.012  40.812  -3.997 -0.34 +0.00    -0.021     7.115
ATOM     12  C   UNL d   1       7.098  39.446  -3.711 -0.32 -0.00    +0.000     7.115
ATOM     13  C   UNL d   1       5.816  39.096  -3.287 -0.21 +0.01    +0.070     7.115
ATOM     14  C   UNL d   1       8.137  41.731  -4.399 -0.49 -0.01    +0.052     7.115
ATOM     15  C   UNL d   1       4.202  37.283  -2.584 -0.12 +0.02    +0.066     7.115
ATOM     16  C   UNL d   1       3.891  35.939  -2.430 -0.15 -0.00    -0.021     7.115
ATOM     17  C   UNL d   1       2.541  35.902  -2.054 -0.12 +0.00    +0.000     7.115
ATOM     18  C   UNL d   1       2.138  37.232  -1.993 -0.12 +0.04    +0.070     7.115
ATOM     19  C   UNL d   1       4.850  34.788  -2.638 -0.08 +0.01    +0.052     7.115
ATOM     20  C   UNL d   1       0.364  39.000  -1.695 -0.06 +0.07    +0.066     7.115
ATOM     21  C   UNL d   1      -0.956  39.340  -1.407 -0.06 -0.02    -0.025     7.115
ATOM     22  C   UNL d   1      -1.028  40.714  -1.548 -0.05 -0.02    -0.021     7.115
ATOM     23  C   UNL d   1       0.260  41.146  -1.930 -0.05 +0.05    +0.066     7.115
ATOM     24  C   UNL d   1      -2.100  38.400  -1.034 -0.06 +0.03    +0.051     7.115
ATOM     25  N   UNL d   1       2.922  42.014  -2.934 -0.05 -0.11    -0.248     7.115
ATOM     26  N   UNL d   1       4.973  40.163  -3.249 -0.11 -0.06    -0.248     7.115
ATOM     27  N   UNL d   1       3.145  38.025  -2.344 -0.09 -0.12    -0.248     7.115
ATOM     28  N   UNL d   1       1.105  40.112  -2.022 -0.06 -0.24    -0.248     7.115
ATOM     29 FE   UNL d   1       3.037  39.901  -2.620 -0.03 +0.00    +0.000     7.115
ATOM     30  C   UNL d   1       1.129  45.319  -3.276 -0.10 +0.03    +0.052     7.115
ATOM     31  C   UNL d   1       1.224  46.055  -4.613 -0.08 +0.07    +0.115     7.115
ATOM     32  C   UNL d   1       1.465  47.539  -4.439 -0.05 +0.15    +0.139     7.115
ATOM     33  O   UNL d   1       0.693  48.197  -3.758 -0.09 -0.59    -0.650     7.115
ATOM     34  O   UNL d   1       2.541  48.159  -4.978 +0.06 -1.37    -0.776     7.115
ATOM     35  H   UNL d   1       2.619  48.399  -5.911 +0.02 +0.17    +0.167     7.115
ATOM     36  C   UNL d   1       2.421  39.685  -4.612 -0.00 +0.05    +0.190     7.115
ATOM     37  O   UNL d   1       1.761  40.347  -5.653 +0.01 -0.08    -0.399     7.115
ATOM     38  H   UNL d   1       1.579  41.263  -5.300 +0.01 +0.05    +0.209     7.115
ATOM     39  C   UNL d   1      -2.283  41.551  -1.387 -0.02 +0.02    +0.052     7.115
ATOM     40  C   UNL d   1      -2.351  42.162   0.022 -0.03 +0.06    +0.115     7.115
ATOM     41  C   UNL d   1      -1.270  41.677   0.966 -0.03 +0.16    +0.139     7.115
ATOM     42  O   UNL d   1      -0.209  42.283   1.022 -0.45 -0.86    -0.650     7.115
ATOM     43  O   UNL d   1      -1.477  40.645   1.813 -0.23 -1.10    -0.776     7.115
ATOM     44  H   UNL d   1      -2.361  40.362   2.080 +0.01 +0.13    +0.167     7.115
ATOM     45  C   UNL d   1       8.241  38.442  -3.773 -0.42 -0.00    +0.004     7.115
ATOM     46  C   UNL d   1       9.108  38.176  -4.746 -0.44 -0.00    +0.012     7.115
ATOM     47  C   UNL d   1       1.649  34.729  -1.814 -0.10 +0.00    +0.004     7.115
ATOM     48  C   UNL d   1       1.298  34.307  -0.596 -0.12 +0.00    +0.012     7.115
TER
ENDMDL
MODEL       81
USER    Run = 81
USER    Cluster Rank = 22
USER    Number of conformations in this cluster = 1
USER  
USER    RMSD from reference structure       = 5.040 A
USER  
USER    Estimated Free Energy of Binding    =   -5.36 kcal/mol  [=(1)+(2)+(3)-(4)]
USER    Estimated Inhibition Constant, Ki   =  118.52 uM (micromolar)  [Temperature = 298.15 K]
USER    
USER    (1) Final Intermolecular Energy     =   -8.94 kcal/mol
USER        vdW + Hbond + desolv Energy     =   -6.69 kcal/mol
USER        Electrostatic Energy            =   -2.25 kcal/mol
USER    (2) Final Total Internal Energy     =   -1.97 kcal/mol
USER    (3) Torsional Free Energy           =   +3.58 kcal/mol
USER    (4) Unbound System's Energy  [=(2)] =   -1.97 kcal/mol
USER    
USER    
USER  
USER    DPF = D:/Protein_go_brrr/autodock/final/6BB5/heme_Co/dock.dpf
USER    NEWDPF move	heme_Co_opt.pdbqt
USER    NEWDPF about	8.781000 34.984000 -0.736000
USER    NEWDPF tran0	1.219087 35.050610 0.073929
USER    NEWDPF axisangle0	-0.703897 0.472514 -0.530340 175.326035
USER    NEWDPF quaternion0	-0.703311 0.472121 -0.529899 0.040777
USER    NEWDPF dihe0	27.82 88.06 101.44 1.48 134.52 149.90 -140.81 16.98 154.78 92.68 2.06 142.80 
USER  
USER                              x       y       z    vdW   Elec        q     RMS 
ATOM      1  C   UNL d   1       0.280  36.451  -1.294 -0.09 +0.04    +0.064     5.040
ATOM      2  C   UNL d   1       4.792  35.052  -0.754 -0.12 +0.01    +0.064     5.040
ATOM      3  C   UNL d   1       3.571  32.467   3.075 -0.30 -0.00    +0.064     5.040
ATOM      4  C   UNL d   1      -1.104  33.573   2.314 -0.07 +0.01    +0.064     5.040
ATOM      5  C   UNL d   1       1.608  36.288  -1.406 -0.12 +0.04    +0.066     5.040
ATOM      6  C   UNL d   1       2.342  36.843  -2.472 -0.09 -0.01    -0.021     5.040
ATOM      7  C   UNL d   1       3.647  36.415  -2.323 -0.14 -0.01    -0.025     5.040
ATOM      8  C   UNL d   1       3.656  35.631  -1.164 -0.17 +0.02    +0.066     5.040
ATOM      9  C   UNL d   1       4.849  36.723  -3.229 -0.17 +0.01    +0.051     5.040
ATOM     10  C   UNL d   1       4.904  34.250   0.439 -0.27 +0.01    +0.066     5.040
ATOM     11  C   UNL d   1       6.092  33.732   0.999 -0.38 -0.00    -0.021     5.040
ATOM     12  C   UNL d   1       5.707  32.986   2.117 -0.46 +0.00    +0.000     5.040
ATOM     13  C   UNL d   1       4.319  33.114   2.163 -0.35 +0.01    +0.070     5.040
ATOM     14  C   UNL d   1       7.496  34.023   0.537 -0.31 +0.01    +0.052     5.040
ATOM     15  C   UNL d   1       2.131  32.444   3.234 -0.27 +0.00    +0.066     5.040
ATOM     16  C   UNL d   1       1.412  31.639   4.107 -0.27 +0.00    -0.021     5.040
ATOM     17  C   UNL d   1       0.063  31.953   3.890 -0.13 +0.00    +0.000     5.040
ATOM     18  C   UNL d   1       0.066  32.940   2.910 -0.12 +0.01    +0.070     5.040
ATOM     19  C   UNL d   1       2.010  30.642   5.074 -0.27 -0.01    +0.052     5.040
ATOM     20  C   UNL d   1      -1.130  34.471   1.301 -0.08 +0.02    +0.066     5.040
ATOM     21  C   UNL d   1      -2.321  34.981   0.789 -0.05 -0.01    -0.025     5.040
ATOM     22  C   UNL d   1      -1.952  35.836  -0.233 -0.05 -0.01    -0.021     5.040
ATOM     23  C   UNL d   1      -0.543  35.796  -0.303 -0.08 +0.03    +0.066     5.040
ATOM     24  C   UNL d   1      -3.743  34.656   1.239 -0.02 +0.01    +0.051     5.040
ATOM     25  N   UNL d   1       2.408  35.540  -0.572 -0.11 -0.11    -0.248     5.040
ATOM     26  N   UNL d   1       3.840  33.924   1.181 -0.19 -0.05    -0.248     5.040
ATOM     27  N   UNL d   1       1.312  33.186   2.522 -0.13 -0.04    -0.248     5.040
ATOM     28  N   UNL d   1      -0.042  34.969   0.622 -0.08 -0.10    -0.248     5.040
ATOM     29 FE   UNL d   1       1.824  34.294   1.066 -0.05 +0.00    +0.000     5.040
ATOM     30  C   UNL d   1       1.787  37.678  -3.621 -0.03 +0.02    +0.052     5.040
ATOM     31  C   UNL d   1       1.717  39.153  -3.229 -0.04 +0.05    +0.115     5.040
ATOM     32  C   UNL d   1       1.563  39.347  -1.736 -0.05 +0.17    +0.139     5.040
ATOM     33  O   UNL d   1       2.560  39.438  -1.035 -0.38 -1.03    -0.650     5.040
ATOM     34  O   UNL d   1       0.349  39.471  -1.150 -0.13 -1.31    -0.776     5.040
ATOM     35  H   UNL d   1      -0.475  39.134  -1.529 +0.01 +0.16    +0.167     5.040
ATOM     36  C   UNL d   1       1.622  32.744  -0.331 -0.09 +0.02    +0.190     5.040
ATOM     37  O   UNL d   1       1.680  32.463  -1.699 -0.04 -0.03    -0.399     5.040
ATOM     38  H   UNL d   1       1.479  33.331  -2.148 +0.04 +0.03    +0.209     5.040
ATOM     39  C   UNL d   1      -2.908  36.597  -1.132 -0.02 +0.01    +0.052     5.040
ATOM     40  C   UNL d   1      -2.774  36.125  -2.590 -0.00 +0.02    +0.115     5.040
ATOM     41  C   UNL d   1      -1.802  36.934  -3.422 +0.00 +0.03    +0.139     5.040
ATOM     42  O   UNL d   1      -1.274  36.417  -4.396 +0.01 -0.11    -0.650     5.040
ATOM     43  O   UNL d   1      -1.568  38.241  -3.169 +0.02 -0.24    -0.776     5.040
ATOM     44  H   UNL d   1      -0.740  38.554  -2.781 +0.01 +0.08    +0.167     5.040
ATOM     45  C   UNL d   1       6.489  32.187   3.151 -0.40 +0.00    +0.004     5.040
ATOM     46  C   UNL d   1       7.780  31.873   3.207 -0.54 +0.00    +0.012     5.040
ATOM     47  C   UNL d   1      -1.165  31.358   4.497 -0.06 -0.00    +0.004     5.040
ATOM     48  C   UNL d   1      -1.980  32.026   5.317 -0.04 +0.00    +0.012     5.040
TER
ENDMDL
MODEL       38
USER    Run = 38
USER    Cluster Rank = 23
USER    Number of conformations in this cluster = 1
USER  
USER    RMSD from reference structure       = 14.609 A
USER  
USER    Estimated Free Energy of Binding    =   -5.20 kcal/mol  [=(1)+(2)+(3)-(4)]
USER    Estimated Inhibition Constant, Ki   =  153.83 uM (micromolar)  [Temperature = 298.15 K]
USER    
USER    (1) Final Intermolecular Energy     =   -8.78 kcal/mol
USER        vdW + Hbond + desolv Energy     =   -7.85 kcal/mol
USER        Electrostatic Energy            =   -0.93 kcal/mol
USER    (2) Final Total Internal Energy     =   -1.97 kcal/mol
USER    (3) Torsional Free Energy           =   +3.58 kcal/mol
USER    (4) Unbound System's Energy  [=(2)] =   -1.97 kcal/mol
USER    
USER    
USER  
USER    DPF = D:/Protein_go_brrr/autodock/final/6BB5/heme_Co/dock.dpf
USER    NEWDPF move	heme_Co_opt.pdbqt
USER    NEWDPF about	8.781000 34.984000 -0.736000
USER    NEWDPF tran0	23.077307 47.154571 -1.642186
USER    NEWDPF axisangle0	-0.195527 0.962635 -0.187356 -123.078639
USER    NEWDPF quaternion0	-0.171897 0.846295 -0.164713 -0.476556
USER    NEWDPF dihe0	92.34 101.87 39.71 51.89 130.41 156.06 163.20 158.41 -131.13 144.21 -24.85 29.64 
USER  
USER                              x       y       z    vdW   Elec        q     RMS 
ATOM      1  C   UNL d   1      23.218  48.561   0.006 -0.11 +0.00    +0.064    14.609
ATOM      2  C   UNL d   1      26.186  45.210  -1.597 -0.13 +0.01    +0.064    14.609
ATOM      3  C   UNL d   1      22.923  43.791  -4.785 -0.19 +0.01    +0.064    14.609
ATOM      4  C   UNL d   1      20.024  47.454  -3.428 -0.18 -0.01    +0.064    14.609
ATOM      5  C   UNL d   1      24.255  47.726  -0.173 -0.09 +0.01    +0.066    14.609
ATOM      6  C   UNL d   1      25.461  47.867   0.542 -0.10 -0.00    -0.021    14.609
ATOM      7  C   UNL d   1      26.326  46.907   0.056 -0.11 -0.01    -0.025    14.609
ATOM      8  C   UNL d   1      25.607  46.211  -0.921 +0.00 +0.01    +0.066    14.609
ATOM      9  C   UNL d   1      27.777  46.642   0.486 -0.10 +0.02    +0.051    14.609
ATOM     10  C   UNL d   1      25.518  44.420  -2.601 -0.17 +0.01    +0.066    14.609
ATOM     11  C   UNL d   1      26.023  43.270  -3.244 -0.19 -0.00    -0.021    14.609
ATOM     12  C   UNL d   1      25.050  42.875  -4.166 -0.24 +0.00    +0.000    14.609
ATOM     13  C   UNL d   1      24.020  43.803  -4.008 -0.26 +0.01    +0.070    14.609
ATOM     14  C   UNL d   1      27.310  42.557  -2.917 -0.13 +0.01    +0.052    14.609
ATOM     15  C   UNL d   1      21.793  44.700  -4.795 -0.25 +0.00    +0.066    14.609
ATOM     16  C   UNL d   1      20.760  44.719  -5.721 -0.28 -0.00    -0.021    14.609
ATOM     17  C   UNL d   1      19.922  45.775  -5.335 -0.27 -0.00    +0.000    14.609
ATOM     18  C   UNL d   1      20.504  46.308  -4.190 -0.26 -0.01    +0.070    14.609
ATOM     19  C   UNL d   1      20.614  43.772  -6.891 -0.29 +0.01    +0.052    14.609
ATOM     20  C   UNL d   1      20.618  48.044  -2.363 -0.20 -0.01    +0.066    14.609
ATOM     21  C   UNL d   1      20.077  49.164  -1.736 -0.18 +0.01    -0.025    14.609
ATOM     22  C   UNL d   1      20.962  49.488  -0.723 -0.21 +0.00    -0.021    14.609
ATOM     23  C   UNL d   1      22.013  48.550  -0.792 -0.17 -0.00    +0.066    14.609
ATOM     24  C   UNL d   1      18.790  49.902  -2.095 -0.23 -0.02    +0.051    14.609
ATOM     25  N   UNL d   1      24.319  46.693  -1.081 +0.11 -0.04    -0.248    14.609
ATOM     26  N   UNL d   1      24.280  44.703  -3.023 -0.18 -0.03    -0.248    14.609
ATOM     27  N   UNL d   1      21.632  45.663  -3.915 -0.19 +0.01    -0.248    14.609
ATOM     28  N   UNL d   1      21.810  47.675  -1.784 -0.15 +0.01    -0.248    14.609
ATOM     29 FE   UNL d   1      22.894  46.150  -2.580 -0.05 +0.00    +0.000    14.609
ATOM     30  C   UNL d   1      25.781  48.934   1.583 -0.07 +0.01    +0.052    14.609
ATOM     31  C   UNL d   1      24.792  48.863   2.747 -0.10 +0.02    +0.115    14.609
ATOM     32  C   UNL d   1      24.590  47.449   3.246 -0.22 +0.08    +0.139    14.609
ATOM     33  O   UNL d   1      25.524  46.661   3.217 +0.02 -0.96    -0.650    14.609
ATOM     34  O   UNL d   1      23.414  47.036   3.773 +0.10 -0.19    -0.776    14.609
ATOM     35  H   UNL d   1      22.683  46.671   3.255 -0.40 -0.00    +0.167    14.609
ATOM     36  C   UNL d   1      23.888  47.489  -3.851 -0.05 +0.01    +0.190    14.609
ATOM     37  O   UNL d   1      24.971  48.372  -3.911 -0.00 -0.02    -0.399    14.609
ATOM     38  H   UNL d   1      25.280  48.463  -2.966 +0.02 +0.01    +0.209    14.609
ATOM     39  C   UNL d   1      20.831  50.676   0.212 -0.25 -0.01    +0.052    14.609
ATOM     40  C   UNL d   1      21.019  50.238   1.674 -0.27 -0.02    +0.115    14.609
ATOM     41  C   UNL d   1      20.341  48.930   2.026 -0.38 -0.01    +0.139    14.609
ATOM     42  O   UNL d   1      19.123  48.851   1.962 -0.41 +0.16    -0.650    14.609
ATOM     43  O   UNL d   1      21.052  47.820   2.326 -0.06 +0.01    -0.776    14.609
ATOM     44  H   UNL d   1      21.805  47.833   2.931 +0.08 +0.00    +0.167    14.609
ATOM     45  C   UNL d   1      24.966  41.723  -5.158 -0.21 +0.00    +0.004    14.609
ATOM     46  C   UNL d   1      25.282  40.437  -5.022 -0.22 +0.00    +0.012    14.609
ATOM     47  C   UNL d   1      18.691  46.306  -5.993 -0.26 -0.00    +0.004    14.609
ATOM     48  C   UNL d   1      17.462  46.145  -5.497 -0.38 -0.00    +0.012    14.609
TER
ENDMDL
MODEL       75
USER    Run = 75
USER    Cluster Rank = 24
USER    Number of conformations in this cluster = 1
USER  
USER    RMSD from reference structure       = 30.458 A
USER  
USER    Estimated Free Energy of Binding    =   -5.17 kcal/mol  [=(1)+(2)+(3)-(4)]
USER    Estimated Inhibition Constant, Ki   =  162.91 uM (micromolar)  [Temperature = 298.15 K]
USER    
USER    (1) Final Intermolecular Energy     =   -8.75 kcal/mol
USER        vdW + Hbond + desolv Energy     =   -5.76 kcal/mol
USER        Electrostatic Energy            =   -2.98 kcal/mol
USER    (2) Final Total Internal Energy     =   -2.05 kcal/mol
USER    (3) Torsional Free Energy           =   +3.58 kcal/mol
USER    (4) Unbound System's Energy  [=(2)] =   -2.05 kcal/mol
USER    
USER    
USER  
USER    DPF = D:/Protein_go_brrr/autodock/final/6BB5/heme_Co/dock.dpf
USER    NEWDPF move	heme_Co_opt.pdbqt
USER    NEWDPF about	8.781000 34.984000 -0.736000
USER    NEWDPF tran0	42.578577 44.760052 3.062899
USER    NEWDPF axisangle0	-0.854366 0.514963 0.069805 -133.873613
USER    NEWDPF quaternion0	-0.786079 0.473803 0.064226 -0.391746
USER    NEWDPF dihe0	103.27 101.16 -143.37 116.17 142.43 122.09 175.30 123.21 -53.08 72.66 165.08 180.00 
USER  
USER                              x       y       z    vdW   Elec        q     RMS 
ATOM      1  C   UNL d   1      40.902  45.407   4.282 -0.18 +0.01    +0.064    30.458
ATOM      2  C   UNL d   1      44.710  47.709   2.606 -0.08 -0.01    +0.064    30.458
ATOM      3  C   UNL d   1      46.451  43.624   0.843 -0.05 -0.00    +0.064    30.458
ATOM      4  C   UNL d   1      42.390  41.320   2.207 -0.14 +0.01    +0.064    30.458
ATOM      5  C   UNL d   1      41.832  46.330   3.985 -0.18 -0.00    +0.066    30.458
ATOM      6  C   UNL d   1      41.651  47.695   4.280 -0.19 +0.00    -0.021    30.458
ATOM      7  C   UNL d   1      42.748  48.362   3.771 -0.11 +0.00    -0.025    30.458
ATOM      8  C   UNL d   1      43.559  47.373   3.202 -0.11 -0.01    +0.066    30.458
ATOM      9  C   UNL d   1      43.036  49.870   3.810 -0.13 -0.01    +0.051    30.458
ATOM     10  C   UNL d   1      45.621  46.760   2.017 -0.04 -0.01    +0.066    30.458
ATOM     11  C   UNL d   1      46.907  47.033   1.501 -0.02 +0.00    -0.021    30.458
ATOM     12  C   UNL d   1      47.393  45.823   0.998 -0.02 -0.00    +0.000    30.458
ATOM     13  C   UNL d   1      46.377  44.903   1.254 -0.04 -0.01    +0.070    30.458
ATOM     14  C   UNL d   1      47.640  48.347   1.583 -0.01 -0.01    +0.052    30.458
ATOM     15  C   UNL d   1      45.478  42.558   0.975 -0.07 +0.00    +0.066    30.458
ATOM     16  C   UNL d   1      45.555  41.297   0.401 -0.07 -0.00    -0.021    30.458
ATOM     17  C   UNL d   1      44.385  40.630   0.789 -0.10 +0.00    +0.000    30.458
ATOM     18  C   UNL d   1      43.691  41.534   1.587 -0.09 +0.00    +0.070    30.458
ATOM     19  C   UNL d   1      46.691  40.795  -0.462 -0.03 +0.00    +0.052    30.458
ATOM     20  C   UNL d   1      41.657  42.213   2.914 -0.14 +0.01    +0.066    30.458
ATOM     21  C   UNL d   1      40.401  41.901   3.431 -0.24 -0.00    -0.025    30.458
ATOM     22  C   UNL d   1      39.960  43.052   4.059 -0.24 -0.00    -0.021    30.458
ATOM     23  C   UNL d   1      40.972  44.020   3.883 -0.17 +0.01    +0.066    30.458
ATOM     24  C   UNL d   1      39.648  40.579   3.315 -0.35 +0.01    +0.051    30.458
ATOM     25  N   UNL d   1      43.019  46.105   3.326 -0.09 +0.02    -0.248    30.458
ATOM     26  N   UNL d   1      45.330  45.458   1.920 -0.04 +0.03    -0.248    30.458
ATOM     27  N   UNL d   1      44.357  42.681   1.651 -0.05 -0.01    -0.248    30.458
ATOM     28  N   UNL d   1      42.000  43.517   3.189 -0.09 -0.02    -0.248    30.458
ATOM     29 FE   UNL d   1      43.725  44.290   2.440 -0.03 +0.00    +0.000    30.458
ATOM     30  C   UNL d   1      40.434  48.328   4.948 -0.29 +0.00    +0.052    30.458
ATOM     31  C   UNL d   1      39.660  49.188   3.950 -0.14 +0.03    +0.115    30.458
ATOM     32  C   UNL d   1      38.203  48.790   3.854 -0.14 +0.13    +0.139    30.458
ATOM     33  O   UNL d   1      37.565  48.591   4.877 -0.50 -0.97    -0.650    30.458
ATOM     34  O   UNL d   1      37.562  48.692   2.665 -0.26 -0.91    -0.776    30.458
ATOM     35  H   UNL d   1      37.409  47.860   2.197 +0.02 +0.20    +0.167    30.458
ATOM     36  C   UNL d   1      42.728  44.886   0.695 -0.02 +0.01    +0.190    30.458
ATOM     37  O   UNL d   1      41.604  45.580   0.236 +0.00 -0.03    -0.399    30.458
ATOM     38  H   UNL d   1      41.035  45.711   1.045 +0.01 +0.02    +0.209    30.458
ATOM     39  C   UNL d   1      38.612  43.224   4.733 -0.23 +0.01    +0.052    30.458
ATOM     40  C   UNL d   1      37.510  43.468   3.688 -0.15 +0.03    +0.115    30.458
ATOM     41  C   UNL d   1      36.898  44.852   3.737 -0.18 +0.13    +0.139    30.458
ATOM     42  O   UNL d   1      35.835  45.016   4.318 -0.47 -1.04    -0.650    30.458
ATOM     43  O   UNL d   1      37.538  45.930   3.232 +0.02 -0.86    -0.776    30.458
ATOM     44  H   UNL d   1      37.567  46.780   3.691 +0.04 +0.27    +0.167    30.458
ATOM     45  C   UNL d   1      48.702  45.430   0.325 -0.01 -0.00    +0.004    30.458
ATOM     46  C   UNL d   1      49.726  44.712   0.778 -0.01 -0.00    +0.012    30.458
ATOM     47  C   UNL d   1      43.895  39.268   0.419 -0.12 +0.00    +0.004    30.458
ATOM     48  C   UNL d   1      43.647  38.306   1.311 -0.24 +0.00    +0.012    30.458
TER
ENDMDL
MODEL       54
USER    Run = 54
USER    Cluster Rank = 25
USER    Number of conformations in this cluster = 2
USER  
USER    RMSD from reference structure       = 35.601 A
USER  
USER    Estimated Free Energy of Binding    =   -5.05 kcal/mol  [=(1)+(2)+(3)-(4)]
USER    Estimated Inhibition Constant, Ki   =  197.30 uM (micromolar)  [Temperature = 298.15 K]
USER    
USER    (1) Final Intermolecular Energy     =   -8.63 kcal/mol
USER        vdW + Hbond + desolv Energy     =   -6.00 kcal/mol
USER        Electrostatic Energy            =   -2.64 kcal/mol
USER    (2) Final Total Internal Energy     =   -0.87 kcal/mol
USER    (3) Torsional Free Energy           =   +3.58 kcal/mol
USER    (4) Unbound System's Energy  [=(2)] =   -0.87 kcal/mol
USER    
USER    
USER  
USER    DPF = D:/Protein_go_brrr/autodock/final/6BB5/heme_Co/dock.dpf
USER    NEWDPF move	heme_Co_opt.pdbqt
USER    NEWDPF about	8.781000 34.984000 -0.736000
USER    NEWDPF tran0	33.401945 50.817132 24.644781
USER    NEWDPF axisangle0	0.294026 0.328742 0.897484 56.158019
USER    NEWDPF quaternion0	0.138395 0.154735 0.422436 0.882299
USER    NEWDPF dihe0	24.45 114.94 -78.38 121.47 132.47 163.22 -163.45 -134.04 -111.03 -22.38 -22.42 164.87 
USER  
USER                              x       y       z    vdW   Elec        q     RMS 
ATOM      1  C   UNL d   1      32.776  52.160  23.057 -0.16 +0.02    +0.064    35.601
ATOM      2  C   UNL d   1      30.846  51.067  27.263 -0.15 +0.01    +0.064    35.601
ATOM      3  C   UNL d   1      34.228  47.774  28.002 -0.17 +0.00    +0.064    35.601
ATOM      4  C   UNL d   1      36.438  49.140  23.889 -0.12 +0.01    +0.064    35.601
ATOM      5  C   UNL d   1      31.980  52.078  24.135 -0.16 +0.02    +0.066    35.601
ATOM      6  C   UNL d   1      30.890  52.950  24.328 -0.12 -0.01    -0.021    35.601
ATOM      7  C   UNL d   1      30.348  52.643  25.560 -0.08 -0.01    -0.025    35.601
ATOM      8  C   UNL d   1      31.118  51.587  26.059 -0.15 +0.02    +0.066    35.601
ATOM      9  C   UNL d   1      29.151  53.310  26.255 -0.03 +0.02    +0.051    35.601
ATOM     10  C   UNL d   1      31.566  49.963  27.846 -0.15 +0.00    +0.066    35.601
ATOM     11  C   UNL d   1      31.243  49.281  29.040 -0.10 -0.00    -0.021    35.601
ATOM     12  C   UNL d   1      32.243  48.323  29.229 -0.13 +0.00    +0.000    35.601
ATOM     13  C   UNL d   1      33.093  48.483  28.134 -0.14 -0.00    +0.070    35.601
ATOM     14  C   UNL d   1      30.004  49.482  29.875 -0.06 +0.00    +0.052    35.601
ATOM     15  C   UNL d   1      35.243  47.847  26.969 -0.15 +0.00    +0.066    35.601
ATOM     16  C   UNL d   1      36.464  47.189  26.968 -0.15 -0.00    -0.021    35.601
ATOM     17  C   UNL d   1      37.107  47.581  25.785 -0.11 +0.00    +0.000    35.601
ATOM     18  C   UNL d   1      36.215  48.438  25.147 -0.13 +0.01    +0.070    35.601
ATOM     19  C   UNL d   1      36.957  46.251  28.047 -0.16 +0.01    +0.052    35.601
ATOM     20  C   UNL d   1      35.624  50.044  23.294 -0.09 +0.02    +0.066    35.601
ATOM     21  C   UNL d   1      35.964  50.680  22.102 -0.22 -0.01    -0.025    35.601
ATOM     22  C   UNL d   1      34.914  51.535  21.822 -0.24 -0.01    -0.021    35.601
ATOM     23  C   UNL d   1      33.983  51.386  22.872 -0.16 +0.02    +0.066    35.601
ATOM     24  C   UNL d   1      37.237  50.497  21.279 -0.16 +0.05    +0.051    35.601
ATOM     25  N   UNL d   1      32.132  51.213  25.195 -0.15 -0.06    -0.248    35.601
ATOM     26  N   UNL d   1      32.652  49.436  27.271 -0.11 +0.01    -0.248    35.601
ATOM     27  N   UNL d   1      35.129  48.597  25.896 -0.08 -0.00    -0.248    35.601
ATOM     28  N   UNL d   1      34.410  50.486  23.767 -0.00 -0.08    -0.248    35.601
ATOM     29 FE   UNL d   1      33.721  49.828  25.563 -0.05 +0.00    +0.000    35.601
ATOM     30  C   UNL d   1      30.452  54.077  23.399 -0.08 +0.02    +0.052    35.601
ATOM     31  C   UNL d   1      30.051  53.522  22.032 -0.15 +0.05    +0.115    35.601
ATOM     32  C   UNL d   1      28.799  52.675  22.099 -0.15 +0.14    +0.139    35.601
ATOM     33  O   UNL d   1      27.731  53.201  22.373 +0.00 -0.82    -0.650    35.601
ATOM     34  O   UNL d   1      28.812  51.351  21.817 -0.40 -0.99    -0.776    35.601
ATOM     35  H   UNL d   1      29.606  50.799  21.833 -0.21 +0.11    +0.167    35.601
ATOM     36  C   UNL d   1      34.709  51.395  26.543 -0.04 +0.02    +0.190    35.601
ATOM     37  O   UNL d   1      34.538  52.704  27.006 +0.00 -0.05    -0.399    35.601
ATOM     38  H   UNL d   1      33.590  52.930  26.791 +0.02 +0.03    +0.209    35.601
ATOM     39  C   UNL d   1      34.845  52.488  20.644 -0.27 +0.04    +0.052    35.601
ATOM     40  C   UNL d   1      35.363  53.880  21.041 -0.11 +0.09    +0.115    35.601
ATOM     41  C   UNL d   1      35.958  54.675  19.897 -0.04 +0.15    +0.139    35.601
ATOM     42  O   UNL d   1      35.921  54.214  18.765 -0.32 -1.07    -0.650    35.601
ATOM     43  O   UNL d   1      36.452  55.919  20.079 +0.02 -0.48    -0.776    35.601
ATOM     44  H   UNL d   1      35.885  56.685  20.238 +0.01 +0.06    +0.167    35.601
ATOM     45  C   UNL d   1      32.482  47.269  30.302 -0.13 +0.00    +0.004    35.601
ATOM     46  C   UNL d   1      32.451  45.941  30.233 -0.26 +0.00    +0.012    35.601
ATOM     47  C   UNL d   1      38.471  47.241  25.282 -0.07 +0.00    +0.004    35.601
ATOM     48  C   UNL d   1      38.693  46.462  24.221 -0.12 +0.00    +0.012    35.601
TER
ENDMDL
MODEL       62
USER    Run = 62
USER    Cluster Rank = 26
USER    Number of conformations in this cluster = 1
USER  
USER    RMSD from reference structure       = 13.407 A
USER  
USER    Estimated Free Energy of Binding    =   -5.04 kcal/mol  [=(1)+(2)+(3)-(4)]
USER    Estimated Inhibition Constant, Ki   =  201.56 uM (micromolar)  [Temperature = 298.15 K]
USER    
USER    (1) Final Intermolecular Energy     =   -8.62 kcal/mol
USER        vdW + Hbond + desolv Energy     =   -7.46 kcal/mol
USER        Electrostatic Energy            =   -1.16 kcal/mol
USER    (2) Final Total Internal Energy     =   -2.16 kcal/mol
USER    (3) Torsional Free Energy           =   +3.58 kcal/mol
USER    (4) Unbound System's Energy  [=(2)] =   -2.16 kcal/mol
USER    
USER    
USER  
USER    DPF = D:/Protein_go_brrr/autodock/final/6BB5/heme_Co/dock.dpf
USER    NEWDPF move	heme_Co_opt.pdbqt
USER    NEWDPF about	8.781000 34.984000 -0.736000
USER    NEWDPF tran0	19.354172 44.529230 -8.233687
USER    NEWDPF axisangle0	0.671815 0.680071 0.293544 104.287233
USER    NEWDPF quaternion0	0.530432 0.536951 0.231768 0.613684
USER    NEWDPF dihe0	58.03 127.05 134.58 -17.17 141.96 87.48 141.41 -35.07 63.40 -147.43 23.74 151.49 
USER  
USER                              x       y       z    vdW   Elec        q     RMS 
ATOM      1  C   UNL d   1      19.520  43.377 -10.067 -0.06 +0.02    +0.064    13.407
ATOM      2  C   UNL d   1      16.103  46.220  -8.378 -0.23 -0.01    +0.064    13.407
ATOM      3  C   UNL d   1      18.515  46.753  -4.288 -0.16 -0.01    +0.064    13.407
ATOM      4  C   UNL d   1      22.196  44.166  -6.138 -0.17 +0.01    +0.064    13.407
ATOM      5  C   UNL d   1      18.392  44.085  -9.892 -0.12 +0.01    +0.066    13.407
ATOM      6  C   UNL d   1      17.438  44.236 -10.917 -0.14 -0.00    -0.021    13.407
ATOM      7  C   UNL d   1      16.460  45.081 -10.429 -0.15 +0.00    -0.025    13.407
ATOM      8  C   UNL d   1      16.850  45.395  -9.123 -0.19 -0.00    +0.066    13.407
ATOM      9  C   UNL d   1      15.201  45.582 -11.153 -0.14 -0.01    +0.051    13.407
ATOM     10  C   UNL d   1      16.411  46.580  -7.017 -0.25 -0.01    +0.066    13.407
ATOM     11  C   UNL d   1      15.597  47.326  -6.137 -0.30 +0.00    -0.021    13.407
ATOM     12  C   UNL d   1      16.323  47.463  -4.950 -0.33 -0.00    +0.000    13.407
ATOM     13  C   UNL d   1      17.517  46.782  -5.189 -0.27 -0.01    +0.070    13.407
ATOM     14  C   UNL d   1      14.185  47.784  -6.399 -0.11 -0.01    +0.052    13.407
ATOM     15  C   UNL d   1      19.827  46.145  -4.389 -0.29 -0.01    +0.066    13.407
ATOM     16  C   UNL d   1      20.867  46.275  -3.479 -0.28 +0.00    -0.021    13.407
ATOM     17  C   UNL d   1      21.932  45.533  -4.010 -0.28 -0.00    +0.000    13.407
ATOM     18  C   UNL d   1      21.450  44.993  -5.197 -0.23 +0.00    +0.070    13.407
ATOM     19  C   UNL d   1      20.812  47.069  -2.193 -0.22 -0.01    +0.052    13.407
ATOM     20  C   UNL d   1      21.778  43.701  -7.339 -0.13 +0.01    +0.066    13.407
ATOM     21  C   UNL d   1      22.600  42.945  -8.172 -0.08 -0.00    -0.025    13.407
ATOM     22  C   UNL d   1      21.845  42.679  -9.299 -0.09 -0.00    -0.021    13.407
ATOM     23  C   UNL d   1      20.594  43.300  -9.103 -0.11 +0.02    +0.066    13.407
ATOM     24  C   UNL d   1      24.042  42.515  -7.915 -0.06 +0.01    +0.051    13.407
ATOM     25  N   UNL d   1      18.041  44.788  -8.762 -0.13 -0.02    -0.248    13.407
ATOM     26  N   UNL d   1      17.545  46.201  -6.418 -0.17 +0.02    -0.248    13.407
ATOM     27  N   UNL d   1      20.204  45.403  -5.406 -0.16 +0.01    -0.248    13.407
ATOM     28  N   UNL d   1      20.550  43.922  -7.918 -0.11 -0.04    -0.248    13.407
ATOM     29 FE   UNL d   1      19.189  45.111  -6.986 -0.05 +0.00    +0.000    13.407
ATOM     30  C   UNL d   1      17.517  43.656 -12.325 -0.10 +0.01    +0.052    13.407
ATOM     31  C   UNL d   1      16.516  42.514 -12.492 -0.13 +0.02    +0.115    13.407
ATOM     32  C   UNL d   1      17.191  41.196 -12.808 -0.00 +0.10    +0.139    13.407
ATOM     33  O   UNL d   1      18.403  41.098 -12.688 -0.54 -0.65    -0.650    13.407
ATOM     34  O   UNL d   1      16.488  40.100 -13.178 -0.20 -0.62    -0.776    13.407
ATOM     35  H   UNL d   1      15.856  40.080 -13.910 +0.01 +0.06    +0.167    13.407
ATOM     36  C   UNL d   1      19.979  46.803  -7.939 -0.03 +0.00    +0.190    13.407
ATOM     37  O   UNL d   1      20.793  47.204  -9.003 +0.00 -0.01    -0.399    13.407
ATOM     38  H   UNL d   1      20.893  46.389  -9.571 +0.01 +0.01    +0.209    13.407
ATOM     39  C   UNL d   1      22.329  41.924 -10.523 -0.07 +0.01    +0.052    13.407
ATOM     40  C   UNL d   1      22.550  42.885 -11.703 -0.02 +0.02    +0.115    13.407
ATOM     41  C   UNL d   1      22.880  44.306 -11.297 -0.01 +0.01    +0.139    13.407
ATOM     42  O   UNL d   1      24.037  44.696 -11.370 +0.00 -0.04    -0.650    13.407
ATOM     43  O   UNL d   1      21.917  45.184 -10.937 +0.02 -0.06    -0.776    13.407
ATOM     44  H   UNL d   1      22.034  45.816 -10.215 +0.01 +0.01    +0.167    13.407
ATOM     45  C   UNL d   1      16.020  48.139  -3.620 -0.37 -0.00    +0.004    13.407
ATOM     46  C   UNL d   1      15.206  49.150  -3.328 -0.42 -0.00    +0.012    13.407
ATOM     47  C   UNL d   1      23.324  45.363  -3.497 -0.28 +0.00    +0.004    13.407
ATOM     48  C   UNL d   1      23.852  44.179  -3.177 -0.35 +0.00    +0.012    13.407
TER
ENDMDL
MODEL       35
USER    Run = 35
USER    Cluster Rank = 27
USER    Number of conformations in this cluster = 1
USER  
USER    RMSD from reference structure       = 5.158 A
USER  
USER    Estimated Free Energy of Binding    =   -4.75 kcal/mol  [=(1)+(2)+(3)-(4)]
USER    Estimated Inhibition Constant, Ki   =  329.35 uM (micromolar)  [Temperature = 298.15 K]
USER    
USER    (1) Final Intermolecular Energy     =   -8.33 kcal/mol
USER        vdW + Hbond + desolv Energy     =   -6.59 kcal/mol
USER        Electrostatic Energy            =   -1.74 kcal/mol
USER    (2) Final Total Internal Energy     =   -1.74 kcal/mol
USER    (3) Torsional Free Energy           =   +3.58 kcal/mol
USER    (4) Unbound System's Energy  [=(2)] =   -1.74 kcal/mol
USER    
USER    
USER  
USER    DPF = D:/Protein_go_brrr/autodock/final/6BB5/heme_Co/dock.dpf
USER    NEWDPF move	heme_Co_opt.pdbqt
USER    NEWDPF about	8.781000 34.984000 -0.736000
USER    NEWDPF tran0	2.460723 33.363804 -0.336924
USER    NEWDPF axisangle0	0.225750 -0.815812 -0.532436 -118.457530
USER    NEWDPF quaternion0	0.193968 -0.700959 -0.457478 -0.511612
USER    NEWDPF dihe0	-118.40 41.65 158.79 118.62 109.97 176.97 26.70 21.07 165.66 -13.56 -164.71 -62.92 
USER  
USER                              x       y       z    vdW   Elec        q     RMS 
ATOM      1  C   UNL d   1       4.096  34.672  -0.913 -0.19 +0.01    +0.064     5.158
ATOM      2  C   UNL d   1      -0.273  34.048  -2.684 -0.03 +0.01    +0.064     5.158
ATOM      3  C   UNL d   1      -1.037  30.450   0.367 -0.02 -0.00    +0.064     5.158
ATOM      4  C   UNL d   1       3.273  31.320   2.450 -0.25 -0.00    +0.064     5.158
ATOM      5  C   UNL d   1       2.972  34.742  -1.645 -0.12 +0.01    +0.066     5.158
ATOM      6  C   UNL d   1       2.776  35.739  -2.621 -0.09 -0.01    -0.021     5.158
ATOM      7  C   UNL d   1       1.498  35.567  -3.115 -0.04 -0.01    -0.025     5.158
ATOM      8  C   UNL d   1       0.975  34.464  -2.433 -0.04 +0.01    +0.066     5.158
ATOM      9  C   UNL d   1       0.783  36.402  -4.189 -0.02 +0.01    +0.051     5.158
ATOM     10  C   UNL d   1      -0.887  32.907  -2.051 -0.02 +0.01    +0.066     5.158
ATOM     11  C   UNL d   1      -2.138  32.336  -2.370 -0.00 -0.00    -0.021     5.158
ATOM     12  C   UNL d   1      -2.333  31.287  -1.468 -0.00 +0.00    +0.000     5.158
ATOM     13  C   UNL d   1      -1.185  31.287  -0.676 -0.02 +0.00    +0.070     5.158
ATOM     14  C   UNL d   1      -3.025  32.722  -3.526 +0.00 +0.00    +0.052     5.158
ATOM     15  C   UNL d   1       0.054  30.350   1.317 -0.05 -0.00    +0.066     5.158
ATOM     16  C   UNL d   1       0.080  29.561   2.459 -0.06 +0.00    -0.021     5.158
ATOM     17  C   UNL d   1       1.320  29.811   3.064 -0.17 -0.00    +0.000     5.158
ATOM     18  C   UNL d   1       1.961  30.722   2.232 -0.17 -0.00    +0.070     5.158
ATOM     19  C   UNL d   1      -1.029  28.640   2.914 -0.04 -0.01    +0.052     5.158
ATOM     20  C   UNL d   1       3.879  32.272   1.701 -0.21 +0.00    +0.066     5.158
ATOM     21  C   UNL d   1       5.127  32.795   2.032 -0.40 -0.00    -0.025     5.158
ATOM     22  C   UNL d   1       5.403  33.743   1.064 -0.37 -0.00    -0.021     5.158
ATOM     23  C   UNL d   1       4.296  33.760   0.190 -0.24 +0.01    +0.066     5.158
ATOM     24  C   UNL d   1       6.006  32.425   3.225 -0.41 +0.00    +0.051     5.158
ATOM     25  N   UNL d   1       1.868  33.929  -1.520 -0.04 -0.04    -0.248     5.158
ATOM     26  N   UNL d   1      -0.287  32.231  -1.065 -0.01 -0.02    -0.248     5.158
ATOM     27  N   UNL d   1       1.166  31.043   1.218 -0.06 -0.00    -0.248     5.158
ATOM     28  N   UNL d   1       3.370  32.872   0.573 -0.11 -0.03    -0.248     5.158
ATOM     29 FE   UNL d   1       1.499  32.401  -0.069 -0.03 +0.00    +0.000     5.158
ATOM     30  C   UNL d   1       3.751  36.851  -2.993 -0.13 +0.01    +0.052     5.158
ATOM     31  C   UNL d   1       3.665  37.999  -1.987 -0.15 +0.06    +0.115     5.158
ATOM     32  C   UNL d   1       2.410  37.935  -1.144 -0.15 +0.15    +0.139     5.158
ATOM     33  O   UNL d   1       1.477  38.683  -1.396 -0.50 -0.95    -0.650     5.158
ATOM     34  O   UNL d   1       2.264  37.037  -0.141 +0.14 -0.89    -0.776     5.158
ATOM     35  H   UNL d   1       1.545  36.393  -0.088 +0.03 +0.15    +0.167     5.158
ATOM     36  C   UNL d   1       0.680  33.904   1.140 -0.11 +0.05    +0.190     5.158
ATOM     37  O   UNL d   1       0.108  35.180   1.099 -0.07 -0.20    -0.399     5.158
ATOM     38  H   UNL d   1       0.866  35.793   0.884 +0.07 +0.16    +0.209     5.158
ATOM     39  C   UNL d   1       6.636  34.627   1.025 -0.32 +0.01    +0.052     5.158
ATOM     40  C   UNL d   1       7.881  33.842   1.469 -0.23 +0.01    +0.115     5.158
ATOM     41  C   UNL d   1       9.195  34.461   1.042 -0.27 +0.03    +0.139     5.158
ATOM     42  O   UNL d   1      10.220  34.162   1.640 -0.07 -0.07    -0.650     5.158
ATOM     43  O   UNL d   1       9.282  35.271  -0.036 -0.92 -0.26    -0.776     5.158
ATOM     44  H   UNL d   1      10.049  35.834  -0.203 +0.09 +0.03    +0.167     5.158
ATOM     45  C   UNL d   1      -3.458  30.278  -1.277 -0.00 -0.00    +0.004     5.158
ATOM     46  C   UNL d   1      -3.492  28.967  -1.502 -0.01 -0.00    +0.012     5.158
ATOM     47  C   UNL d   1       1.875  29.293   4.351 -0.33 -0.00    +0.004     5.158
ATOM     48  C   UNL d   1       2.563  28.153   4.451 -0.41 -0.00    +0.012     5.158
TER
ENDMDL
MODEL       98
USER    Run = 98
USER    Cluster Rank = 28
USER    Number of conformations in this cluster = 1
USER  
USER    RMSD from reference structure       = 13.527 A
USER  
USER    Estimated Free Energy of Binding    =   -4.67 kcal/mol  [=(1)+(2)+(3)-(4)]
USER    Estimated Inhibition Constant, Ki   =  379.98 uM (micromolar)  [Temperature = 298.15 K]
USER    
USER    (1) Final Intermolecular Energy     =   -8.25 kcal/mol
USER        vdW + Hbond + desolv Energy     =   -7.33 kcal/mol
USER        Electrostatic Energy            =   -0.92 kcal/mol
USER    (2) Final Total Internal Energy     =   -2.14 kcal/mol
USER    (3) Torsional Free Energy           =   +3.58 kcal/mol
USER    (4) Unbound System's Energy  [=(2)] =   -2.14 kcal/mol
USER    
USER    
USER  
USER    DPF = D:/Protein_go_brrr/autodock/final/6BB5/heme_Co/dock.dpf
USER    NEWDPF move	heme_Co_opt.pdbqt
USER    NEWDPF about	8.781000 34.984000 -0.736000
USER    NEWDPF tran0	16.438461 46.226143 -8.947871
USER    NEWDPF axisangle0	0.785386 0.416705 0.457740 90.456416
USER    NEWDPF quaternion0	0.557559 0.295826 0.324958 0.704285
USER    NEWDPF dihe0	-179.87 113.86 -90.75 -79.47 148.78 132.15 -126.35 77.42 -153.39 79.95 -169.24 -11.39 
USER  
USER                              x       y       z    vdW   Elec        q     RMS 
ATOM      1  C   UNL d   1      15.690  45.726 -10.924 -0.10 -0.01    +0.064    13.527
ATOM      2  C   UNL d   1      14.165  48.772  -7.607 -0.17 -0.01    +0.064    13.527
ATOM      3  C   UNL d   1      17.522  47.218  -4.583 -0.25 -0.01    +0.064    13.527
ATOM      4  C   UNL d   1      19.341  44.374  -8.085 -0.16 +0.01    +0.064    13.527
ATOM      5  C   UNL d   1      15.004  46.647 -10.227 -0.09 -0.01    +0.066    13.527
ATOM      6  C   UNL d   1      13.961  47.397 -10.805 -0.10 +0.00    -0.021    13.527
ATOM      7  C   UNL d   1      13.538  48.295  -9.845 -0.10 +0.00    -0.025    13.527
ATOM      8  C   UNL d   1      14.328  48.043  -8.718 -0.04 -0.01    +0.066    13.527
ATOM      9  C   UNL d   1      12.433  49.356  -9.969 -0.10 -0.00    +0.051    13.527
ATOM     10  C   UNL d   1      14.913  48.568  -6.391 -0.18 -0.01    +0.066    13.527
ATOM     11  C   UNL d   1      14.694  49.203  -5.149 -0.25 +0.00    -0.021    13.527
ATOM     12  C   UNL d   1      15.684  48.728  -4.285 -0.30 -0.00    +0.000    13.527
ATOM     13  C   UNL d   1      16.424  47.833  -5.057 -0.24 -0.01    +0.070    13.527
ATOM     14  C   UNL d   1      13.551  50.124  -4.807 -0.31 -0.01    +0.052    13.527
ATOM     15  C   UNL d   1      18.429  46.308  -5.254 -0.28 -0.01    +0.066    13.527
ATOM     16  C   UNL d   1      19.628  45.822  -4.752 -0.34 +0.00    -0.021    13.527
ATOM     17  C   UNL d   1      20.158  45.003  -5.760 -0.30 +0.00    +0.000    13.527
ATOM     18  C   UNL d   1      19.228  45.041  -6.794 -0.23 +0.00    +0.070    13.527
ATOM     19  C   UNL d   1      20.202  46.141  -3.390 -0.25 -0.01    +0.052    13.527
ATOM     20  C   UNL d   1      18.494  44.466  -9.137 -0.15 +0.01    +0.066    13.527
ATOM     21  C   UNL d   1      18.728  43.804 -10.341 -0.11 -0.01    -0.025    13.527
ATOM     22  C   UNL d   1      17.677  44.152 -11.169 -0.12 -0.00    -0.021    13.527
ATOM     23  C   UNL d   1      16.852  45.025 -10.427 -0.13 -0.00    +0.066    13.527
ATOM     24  C   UNL d   1      19.907  42.901 -10.692 -0.06 +0.02    +0.051    13.527
ATOM     25  N   UNL d   1      15.241  47.023  -8.925 -0.08 +0.03    -0.248    13.527
ATOM     26  N   UNL d   1      15.922  47.694  -6.313 -0.11 +0.03    -0.248    13.527
ATOM     27  N   UNL d   1      18.227  45.852  -6.470 -0.16 +0.01    -0.248    13.527
ATOM     28  N   UNL d   1      17.345  45.220  -9.198 -0.12 +0.00    -0.248    13.527
ATOM     29 FE   UNL d   1      16.823  46.401  -7.627 -0.04 -0.00    +0.000    13.527
ATOM     30  C   UNL d   1      13.460  47.302 -12.242 -0.06 -0.01    +0.052    13.527
ATOM     31  C   UNL d   1      14.307  48.177 -13.165 -0.01 -0.01    +0.115    13.527
ATOM     32  C   UNL d   1      15.699  48.415 -12.619 -0.01 -0.01    +0.139    13.527
ATOM     33  O   UNL d   1      16.645  47.810 -13.100 +0.01 +0.02    -0.650    13.527
ATOM     34  O   UNL d   1      15.940  49.318 -11.640 +0.01 +0.04    -0.776    13.527
ATOM     35  H   UNL d   1      16.805  49.456 -11.229 +0.00 -0.01    +0.167    13.527
ATOM     36  C   UNL d   1      17.944  47.987  -8.417 -0.03 -0.01    +0.190    13.527
ATOM     37  O   UNL d   1      18.052  48.829  -9.529 +0.00 +0.01    -0.399    13.527
ATOM     38  H   UNL d   1      17.311  48.549 -10.136 +0.02 -0.01    +0.209    13.527
ATOM     39  C   UNL d   1      17.514  43.718 -12.613 -0.08 +0.01    +0.052    13.527
ATOM     40  C   UNL d   1      16.726  42.401 -12.699 -0.12 +0.03    +0.115    13.527
ATOM     41  C   UNL d   1      17.571  41.188 -13.026 +0.00 +0.10    +0.139    13.527
ATOM     42  O   UNL d   1      17.101  40.303 -13.728 -0.40 -0.44    -0.650    13.527
ATOM     43  O   UNL d   1      18.862  41.095 -12.637 -0.55 -0.73    -0.776    13.527
ATOM     44  H   UNL d   1      19.587  41.481 -13.145 +0.01 +0.08    +0.167    13.527
ATOM     45  C   UNL d   1      16.003  49.002  -2.821 -0.31 -0.00    +0.004    13.527
ATOM     46  C   UNL d   1      16.761  49.942  -2.261 -0.34 -0.00    +0.012    13.527
ATOM     47  C   UNL d   1      21.456  44.266  -5.806 -0.30 +0.00    +0.004    13.527
ATOM     48  C   UNL d   1      21.554  42.962  -6.073 -0.31 +0.00    +0.012    13.527
TER
ENDMDL
MODEL       12
USER    Run = 12
USER    Cluster Rank = 29
USER    Number of conformations in this cluster = 1
USER  
USER    RMSD from reference structure       = 5.691 A
USER  
USER    Estimated Free Energy of Binding    =   -4.65 kcal/mol  [=(1)+(2)+(3)-(4)]
USER    Estimated Inhibition Constant, Ki   =  389.95 uM (micromolar)  [Temperature = 298.15 K]
USER    
USER    (1) Final Intermolecular Energy     =   -8.23 kcal/mol
USER        vdW + Hbond + desolv Energy     =   -5.28 kcal/mol
USER        Electrostatic Energy            =   -2.95 kcal/mol
USER    (2) Final Total Internal Energy     =   -2.67 kcal/mol
USER    (3) Torsional Free Energy           =   +3.58 kcal/mol
USER    (4) Unbound System's Energy  [=(2)] =   -2.67 kcal/mol
USER    
USER    
USER  
USER    DPF = D:/Protein_go_brrr/autodock/final/6BB5/heme_Co/dock.dpf
USER    NEWDPF move	heme_Co_opt.pdbqt
USER    NEWDPF about	8.781000 34.984000 -0.736000
USER    NEWDPF tran0	4.182230 39.143182 -5.176855
USER    NEWDPF axisangle0	-0.234784 -0.775192 -0.586476 74.011967
USER    NEWDPF quaternion0	-0.141316 -0.466587 -0.352999 0.798573
USER    NEWDPF dihe0	146.95 106.28 -89.63 51.99 -83.92 125.56 4.87 140.17 -100.47 78.29 179.83 -163.34 
USER  
USER                              x       y       z    vdW   Elec        q     RMS 
ATOM      1  C   UNL d   1       2.638  38.064  -4.097 -0.02 +0.02    +0.064     5.691
ATOM      2  C   UNL d   1       7.340  37.436  -4.427 -0.26 +0.00    +0.064     5.691
ATOM      3  C   UNL d   1       7.622  40.954  -7.647 -0.15 -0.02    +0.064     5.691
ATOM      4  C   UNL d   1       2.883  41.871  -7.041 -0.01 +0.01    +0.064     5.691
ATOM      5  C   UNL d   1       3.897  37.610  -3.977 -0.06 +0.01    +0.066     5.691
ATOM      6  C   UNL d   1       4.244  36.603  -3.055 -0.13 -0.00    -0.021     5.691
ATOM      7  C   UNL d   1       5.613  36.441  -3.139 -0.20 -0.00    -0.025     5.691
ATOM      8  C   UNL d   1       6.040  37.343  -4.119 -0.16 +0.01    +0.066     5.691
ATOM      9  C   UNL d   1       6.499  35.479  -2.332 -0.31 +0.01    +0.051     5.691
ATOM     10  C   UNL d   1       7.869  38.315  -5.439 -0.21 -0.01    +0.066     5.691
ATOM     11  C   UNL d   1       9.201  38.359  -5.906 -0.26 +0.01    -0.021     5.691
ATOM     12  C   UNL d   1       9.254  39.391  -6.847 -0.12 -0.00    +0.000     5.691
ATOM     13  C   UNL d   1       7.952  39.890  -6.894 -0.17 -0.02    +0.070     5.691
ATOM     14  C   UNL d   1      10.309  37.407  -5.534 -0.26 -0.01    +0.052     5.691
ATOM     15  C   UNL d   1       6.346  41.630  -7.775 -0.09 -0.01    +0.066     5.691
ATOM     16  C   UNL d   1       6.106  42.813  -8.459 -0.10 +0.00    -0.021     5.691
ATOM     17  C   UNL d   1       4.741  43.083  -8.285 -0.07 +0.00    +0.000     5.691
ATOM     18  C   UNL d   1       4.251  42.030  -7.520 -0.04 +0.01    +0.070     5.691
ATOM     19  C   UNL d   1       7.141  43.611  -9.220 -0.16 -0.01    +0.052     5.691
ATOM     20  C   UNL d   1       2.403  40.902  -6.225 -0.00 +0.01    +0.066     5.691
ATOM     21  C   UNL d   1       1.075  40.875  -5.804 +0.00 -0.00    -0.025     5.691
ATOM     22  C   UNL d   1       0.968  39.772  -4.977 +0.00 -0.00    -0.021     5.691
ATOM     23  C   UNL d   1       2.249  39.183  -4.925 -0.00 +0.01    +0.066     5.691
ATOM     24  C   UNL d   1      -0.034  41.864  -6.156 +0.00 +0.01    +0.051     5.691
ATOM     25  N   UNL d   1       4.997  38.076  -4.660 -0.03 -0.03    -0.248     5.691
ATOM     26  N   UNL d   1       7.104  39.202  -6.084 -0.07 +0.02    -0.248     5.691
ATOM     27  N   UNL d   1       5.240  41.200  -7.209 -0.03 -0.01    -0.248     5.691
ATOM     28  N   UNL d   1       3.121  39.865  -5.677 +0.00 -0.04    -0.248     5.691
ATOM     29 FE   UNL d   1       5.122  39.731  -6.010 -0.02 +0.00    +0.000     5.691
ATOM     30  C   UNL d   1       3.304  35.896  -2.084 -0.15 +0.02    +0.052     5.691
ATOM     31  C   UNL d   1       3.352  36.562  -0.709 -0.07 +0.07    +0.115     5.691
ATOM     32  C   UNL d   1       2.557  37.849  -0.663 -0.03 +0.18    +0.139     5.691
ATOM     33  O   UNL d   1       3.104  38.881  -0.304 -0.47 -1.16    -0.650     5.691
ATOM     34  O   UNL d   1       1.263  37.907  -1.054 -0.47 -1.06    -0.776     5.691
ATOM     35  H   UNL d   1       0.588  38.449  -0.622 +0.02 +0.37    +0.167     5.691
ATOM     36  C   UNL d   1       5.506  40.926  -4.331 -0.16 +0.03    +0.190     5.691
ATOM     37  O   UNL d   1       5.255  41.034  -2.960 -0.08 -0.09    -0.399     5.691
ATOM     38  H   UNL d   1       4.597  40.311  -2.762 +0.08 +0.07    +0.209     5.691
ATOM     39  C   UNL d   1      -0.283  39.351  -4.230 +0.00 +0.01    +0.052     5.691
ATOM     40  C   UNL d   1      -0.713  40.440  -3.233 -0.01 +0.05    +0.115     5.691
ATOM     41  C   UNL d   1      -0.461  40.093  -1.781 -0.06 +0.12    +0.139     5.691
ATOM     42  O   UNL d   1      -1.263  39.385  -1.188 -0.02 -0.56    -0.650     5.691
ATOM     43  O   UNL d   1       0.670  40.472  -1.146 -0.01 -1.23    -0.776     5.691
ATOM     44  H   UNL d   1       1.494  39.971  -1.209 +0.03 +0.30    +0.167     5.691
ATOM     45  C   UNL d   1      10.374  39.947  -7.716 -0.34 -0.00    +0.004     5.691
ATOM     46  C   UNL d   1      11.309  39.323  -8.428 -0.45 -0.01    +0.012     5.691
ATOM     47  C   UNL d   1       3.934  44.254  -8.742 -0.06 +0.00    +0.004     5.691
ATOM     48  C   UNL d   1       3.513  45.223  -7.925 -0.08 +0.00    +0.012     5.691
TER
ENDMDL
MODEL       79
USER    Run = 79
USER    Cluster Rank = 30
USER    Number of conformations in this cluster = 1
USER  
USER    RMSD from reference structure       = 14.198 A
USER  
USER    Estimated Free Energy of Binding    =   -4.62 kcal/mol  [=(1)+(2)+(3)-(4)]
USER    Estimated Inhibition Constant, Ki   =  408.64 uM (micromolar)  [Temperature = 298.15 K]
USER    
USER    (1) Final Intermolecular Energy     =   -8.20 kcal/mol
USER        vdW + Hbond + desolv Energy     =   -8.35 kcal/mol
USER        Electrostatic Energy            =   +0.14 kcal/mol
USER    (2) Final Total Internal Energy     =   -2.07 kcal/mol
USER    (3) Torsional Free Energy           =   +3.58 kcal/mol
USER    (4) Unbound System's Energy  [=(2)] =   -2.07 kcal/mol
USER    
USER    
USER  
USER    DPF = D:/Protein_go_brrr/autodock/final/6BB5/heme_Co/dock.dpf
USER    NEWDPF move	heme_Co_opt.pdbqt
USER    NEWDPF about	8.781000 34.984000 -0.736000
USER    NEWDPF tran0	18.561499 48.609570 -3.533472
USER    NEWDPF axisangle0	0.234263 -0.944586 0.229953 116.653706
USER    NEWDPF quaternion0	0.199372 -0.803897 0.195703 0.525073
USER    NEWDPF dihe0	5.45 99.25 -151.38 -108.45 -94.44 82.90 67.74 110.00 -107.79 145.64 -7.30 -179.98 
USER  
USER                              x       y       z    vdW   Elec        q     RMS 
ATOM      1  C   UNL d   1      18.434  50.138  -1.996 -0.23 -0.02    +0.064    14.198
ATOM      2  C   UNL d   1      21.720  46.838  -2.956 -0.26 -0.00    +0.064    14.198
ATOM      3  C   UNL d   1      18.946  45.023  -6.398 -0.28 +0.00    +0.064    14.198
ATOM      4  C   UNL d   1      15.746  48.619  -5.696 -0.15 -0.01    +0.064    14.198
ATOM      5  C   UNL d   1      19.520  49.347  -1.981 -0.09 -0.02    +0.066    14.198
ATOM      6  C   UNL d   1      20.619  49.602  -1.138 -0.21 +0.00    -0.021    14.198
ATOM      7  C   UNL d   1      21.579  48.655  -1.437 -0.18 +0.00    -0.025    14.198
ATOM      8  C   UNL d   1      21.019  47.854  -2.437 -0.21 -0.01    +0.066    14.198
ATOM      9  C   UNL d   1      22.975  48.499  -0.814 -0.13 +0.00    +0.051    14.198
ATOM     10  C   UNL d   1      21.217  45.944  -3.969 -0.25 -0.01    +0.066    14.198
ATOM     11  C   UNL d   1      21.848  44.777  -4.454 -0.28 -0.00    -0.021    14.198
ATOM     12  C   UNL d   1      21.016  44.266  -5.453 -0.32 +0.00    +0.000    14.198
ATOM     13  C   UNL d   1      19.936  45.148  -5.496 -0.30 -0.00    +0.070    14.198
ATOM     14  C   UNL d   1      23.113  44.159  -3.917 -0.30 +0.01    +0.052    14.198
ATOM     15  C   UNL d   1      17.789  45.868  -6.616 -0.25 -0.00    +0.066    14.198
ATOM     16  C   UNL d   1      16.880  45.766  -7.660 -0.28 +0.00    -0.021    14.198
ATOM     17  C   UNL d   1      15.957  46.803  -7.463 -0.25 -0.00    +0.000    14.198
ATOM     18  C   UNL d   1      16.367  47.447  -6.301 -0.19 -0.01    +0.070    14.198
ATOM     19  C   UNL d   1      16.923  44.730  -8.761 -0.25 -0.00    +0.052    14.198
ATOM     20  C   UNL d   1      16.176  49.315  -4.616 -0.17 -0.01    +0.066    14.198
ATOM     21  C   UNL d   1      15.514  50.448  -4.150 -0.23 +0.00    -0.025    14.198
ATOM     22  C   UNL d   1      16.250  50.891  -3.066 -0.32 +0.00    -0.021    14.198
ATOM     23  C   UNL d   1      17.341  50.006  -2.931 -0.27 -0.02    +0.066    14.198
ATOM     24  C   UNL d   1      14.252  51.090  -4.720 -0.22 -0.01    +0.051    14.198
ATOM     25  N   UNL d   1      19.742  48.256  -2.790 +0.04 +0.09    -0.248    14.198
ATOM     26  N   UNL d   1      20.032  46.130  -4.560 -0.19 +0.03    -0.248    14.198
ATOM     27  N   UNL d   1      17.478  46.883  -5.841 -0.14 +0.03    -0.248    14.198
ATOM     28  N   UNL d   1      17.301  49.052  -3.869 -0.13 +0.07    -0.248    14.198
ATOM     29 FE   UNL d   1      18.540  47.531  -4.405 -0.05 -0.00    +0.000    14.198
ATOM     30  C   UNL d   1      20.760  50.758  -0.152 -0.24 -0.01    +0.052    14.198
ATOM     31  C   UNL d   1      19.936  50.493   1.107 -0.24 -0.04    +0.115    14.198
ATOM     32  C   UNL d   1      20.519  49.383   1.956 -0.36 -0.02    +0.139    14.198
ATOM     33  O   UNL d   1      20.608  48.256   1.492 -0.50 +0.00    -0.650    14.198
ATOM     34  O   UNL d   1      20.992  49.607   3.203 +0.07 +0.05    -0.776    14.198
ATOM     35  H   UNL d   1      20.978  50.468   3.644 +0.08 -0.01    +0.167    14.198
ATOM     36  C   UNL d   1      19.628  48.824  -5.646 -0.03 -0.01    +0.190    14.198
ATOM     37  O   UNL d   1      19.811  50.174  -5.961 +0.00 +0.02    -0.399    14.198
ATOM     38  H   UNL d   1      19.036  50.643  -5.542 +0.02 -0.02    +0.209    14.198
ATOM     39  C   UNL d   1      15.952  52.134  -2.250 -0.24 -0.01    +0.052    14.198
ATOM     40  C   UNL d   1      16.430  53.396  -2.988 -0.13 -0.02    +0.115    14.198
ATOM     41  C   UNL d   1      17.760  53.240  -3.695 -0.09 -0.01    +0.139    14.198
ATOM     42  O   UNL d   1      18.733  53.856  -3.282 +0.00 +0.05    -0.650    14.198
ATOM     43  O   UNL d   1      17.924  52.371  -4.717 +0.05 +0.07    -0.776    14.198
ATOM     44  H   UNL d   1      18.747  51.888  -4.861 +0.02 -0.01    +0.167    14.198
ATOM     45  C   UNL d   1      21.107  43.042  -6.355 -0.35 +0.00    +0.004    14.198
ATOM     46  C   UNL d   1      21.201  42.946  -7.678 -0.23 +0.00    +0.012    14.198
ATOM     47  C   UNL d   1      14.797  47.219  -8.307 +0.03 -0.00    +0.004    14.198
ATOM     48  C   UNL d   1      14.716  48.405  -8.915 -0.13 -0.00    +0.012    14.198
TER
ENDMDL
MODEL       24
USER    Run = 24
USER    Cluster Rank = 31
USER    Number of conformations in this cluster = 1
USER  
USER    RMSD from reference structure       = 3.279 A
USER  
USER    Estimated Free Energy of Binding    =   -4.59 kcal/mol  [=(1)+(2)+(3)-(4)]
USER    Estimated Inhibition Constant, Ki   =  434.49 uM (micromolar)  [Temperature = 298.15 K]
USER    
USER    (1) Final Intermolecular Energy     =   -8.17 kcal/mol
USER        vdW + Hbond + desolv Energy     =   -7.64 kcal/mol
USER        Electrostatic Energy            =   -0.52 kcal/mol
USER    (2) Final Total Internal Energy     =   -3.85 kcal/mol
USER    (3) Torsional Free Energy           =   +3.58 kcal/mol
USER    (4) Unbound System's Energy  [=(2)] =   -3.85 kcal/mol
USER    
USER    
USER  
USER    DPF = D:/Protein_go_brrr/autodock/final/6BB5/heme_Co/dock.dpf
USER    NEWDPF move	heme_Co_opt.pdbqt
USER    NEWDPF about	8.781000 34.984000 -0.736000
USER    NEWDPF tran0	3.803815 34.681760 -3.302981
USER    NEWDPF axisangle0	-0.580353 -0.726321 0.368305 -24.746293
USER    NEWDPF quaternion0	-0.124357 -0.155634 0.078919 -0.976773
USER    NEWDPF dihe0	137.09 99.49 -53.91 80.87 83.67 120.91 -123.33 -21.69 -123.71 -174.69 179.71 174.19 
USER  
USER                              x       y       z    vdW   Elec        q     RMS 
ATOM      1  C   UNL d   1       2.204  34.600  -4.769 -0.09 +0.01    +0.064     3.279
ATOM      2  C   UNL d   1       2.485  33.114  -0.261 -0.16 +0.01    +0.064     3.279
ATOM      3  C   UNL d   1       7.102  34.332  -0.107 -0.20 +0.01    +0.064     3.279
ATOM      4  C   UNL d   1       6.742  36.211  -4.580 -0.20 +0.00    +0.064     3.279
ATOM      5  C   UNL d   1       1.951  34.071  -3.561 -0.08 +0.01    +0.066     3.279
ATOM      6  C   UNL d   1       0.660  33.652  -3.184 -0.05 -0.00    -0.021     3.279
ATOM      7  C   UNL d   1       0.743  33.243  -1.868 -0.06 -0.00    -0.025     3.279
ATOM      8  C   UNL d   1       2.082  33.415  -1.503 -0.10 +0.01    +0.066     3.279
ATOM      9  C   UNL d   1      -0.387  32.709  -0.974 -0.04 +0.00    +0.051     3.279
ATOM     10  C   UNL d   1       3.846  33.233   0.197 -0.20 +0.01    +0.066     3.279
ATOM     11  C   UNL d   1       4.359  32.803   1.440 -0.29 -0.00    -0.021     3.279
ATOM     12  C   UNL d   1       5.708  33.167   1.457 -0.41 +0.00    +0.000     3.279
ATOM     13  C   UNL d   1       5.922  33.779   0.221 -0.31 +0.01    +0.070     3.279
ATOM     14  C   UNL d   1       3.615  32.014   2.487 -0.37 +0.00    +0.052     3.279
ATOM     15  C   UNL d   1       7.480  35.046  -1.312 -0.23 +0.01    +0.066     3.279
ATOM     16  C   UNL d   1       8.674  35.720  -1.529 -0.32 -0.00    -0.021     3.279
ATOM     17  C   UNL d   1       8.573  36.265  -2.816 -0.41 +0.00    +0.000     3.279
ATOM     18  C   UNL d   1       7.329  35.865  -3.292 -0.28 +0.00    +0.070     3.279
ATOM     19  C   UNL d   1       9.817  35.817  -0.544 -0.36 +0.01    +0.052     3.279
ATOM     20  C   UNL d   1       5.501  35.906  -5.029 -0.20 +0.00    +0.066     3.279
ATOM     21  C   UNL d   1       5.037  36.326  -6.274 -0.17 -0.00    -0.025     3.279
ATOM     22  C   UNL d   1       3.741  35.851  -6.368 -0.12 -0.00    -0.021     3.279
ATOM     23  C   UNL d   1       3.473  35.171  -5.161 -0.12 +0.01    +0.066     3.279
ATOM     24  C   UNL d   1       5.783  37.155  -7.315 -0.15 +0.00    +0.051     3.279
ATOM     25  N   UNL d   1       2.855  33.921  -2.534 -0.06 -0.03    -0.248     3.279
ATOM     26  N   UNL d   1       4.810  33.768  -0.561 -0.15 -0.03    -0.248     3.279
ATOM     27  N   UNL d   1       6.693  35.166  -2.357 -0.22 -0.02    -0.248     3.279
ATOM     28  N   UNL d   1       4.535  35.203  -4.347 -0.09 -0.03    -0.248     3.279
ATOM     29 FE   UNL d   1       4.888  34.581  -2.444 -0.05 +0.00    +0.000     3.279
ATOM     30  C   UNL d   1      -0.604  33.724  -4.034 -0.02 +0.00    +0.052     3.279
ATOM     31  C   UNL d   1      -1.399  34.988  -3.709 -0.00 +0.02    +0.115     3.279
ATOM     32  C   UNL d   1      -0.565  36.244  -3.839 -0.00 +0.03    +0.139     3.279
ATOM     33  O   UNL d   1      -0.754  36.995  -4.785 +0.01 -0.11    -0.650     3.279
ATOM     34  O   UNL d   1       0.358  36.592  -2.912 +0.03 -0.26    -0.776     3.279
ATOM     35  H   UNL d   1       1.258  36.877  -3.121 +0.02 +0.06    +0.167     3.279
ATOM     36  C   UNL d   1       4.148  36.392  -1.690 -0.04 +0.06    +0.190     3.279
ATOM     37  O   UNL d   1       3.065  37.273  -1.771 -0.09 -0.22    -0.399     3.279
ATOM     38  H   UNL d   1       2.562  36.987  -2.584 +0.04 +0.08    +0.209     3.279
ATOM     39  C   UNL d   1       2.796  36.098  -7.529 -0.07 +0.01    +0.052     3.279
ATOM     40  C   UNL d   1       2.080  37.449  -7.368 -0.02 +0.01    +0.115     3.279
ATOM     41  C   UNL d   1       2.459  38.212  -6.116 -0.01 +0.02    +0.139     3.279
ATOM     42  O   UNL d   1       3.019  39.295  -6.222 +0.02 -0.09    -0.650     3.279
ATOM     43  O   UNL d   1       2.120  37.771  -4.885 +0.03 -0.15    -0.776     3.279
ATOM     44  H   UNL d   1       1.227  37.473  -4.668 +0.01 +0.04    +0.167     3.279
ATOM     45  C   UNL d   1       6.818  32.992   2.484 -0.46 +0.00    +0.004     3.279
ATOM     46  C   UNL d   1       7.487  31.904   2.860 -0.54 +0.00    +0.012     3.279
ATOM     47  C   UNL d   1       9.528  37.142  -3.558 -0.50 -0.00    +0.004     3.279
ATOM     48  C   UNL d   1      10.766  36.769  -3.891 -0.59 -0.00    +0.012     3.279
TER
ENDMDL
MODEL       56
USER    Run = 56
USER    Cluster Rank = 32
USER    Number of conformations in this cluster = 4
USER  
USER    RMSD from reference structure       = 14.328 A
USER  
USER    Estimated Free Energy of Binding    =   -4.58 kcal/mol  [=(1)+(2)+(3)-(4)]
USER    Estimated Inhibition Constant, Ki   =  440.04 uM (micromolar)  [Temperature = 298.15 K]
USER    
USER    (1) Final Intermolecular Energy     =   -8.16 kcal/mol
USER        vdW + Hbond + desolv Energy     =   -8.36 kcal/mol
USER        Electrostatic Energy            =   +0.20 kcal/mol
USER    (2) Final Total Internal Energy     =   -2.03 kcal/mol
USER    (3) Torsional Free Energy           =   +3.58 kcal/mol
USER    (4) Unbound System's Energy  [=(2)] =   -2.03 kcal/mol
USER    
USER    
USER  
USER    DPF = D:/Protein_go_brrr/autodock/final/6BB5/heme_Co/dock.dpf
USER    NEWDPF move	heme_Co_opt.pdbqt
USER    NEWDPF about	8.781000 34.984000 -0.736000
USER    NEWDPF tran0	20.995981 47.494453 -3.190516
USER    NEWDPF axisangle0	0.103348 -0.979118 0.175065 136.052879
USER    NEWDPF quaternion0	0.095840 -0.907991 0.162348 0.374179
USER    NEWDPF dihe0	154.10 106.03 17.78 53.59 123.69 150.10 -130.00 -56.76 -136.27 97.50 -179.28 57.69 
USER  
USER                              x       y       z    vdW   Elec        q     RMS 
ATOM      1  C   UNL d   1      21.723  48.719  -1.552 -0.15 -0.00    +0.064    14.328
ATOM      2  C   UNL d   1      23.634  45.043  -3.885 -0.25 +0.01    +0.064    14.328
ATOM      3  C   UNL d   1      19.593  44.471  -6.369 -0.31 +0.00    +0.064    14.328
ATOM      4  C   UNL d   1      17.757  48.460  -4.276 -0.15 -0.02    +0.064    14.328
ATOM      5  C   UNL d   1      22.529  47.734  -1.981 -0.15 +0.00    +0.066    14.328
ATOM      6  C   UNL d   1      23.858  47.607  -1.532 -0.10 -0.00    -0.021    14.328
ATOM      7  C   UNL d   1      24.415  46.553  -2.229 -0.12 -0.00    -0.025    14.328
ATOM      8  C   UNL d   1      23.398  46.072  -3.061 -0.17 +0.00    +0.066    14.328
ATOM      9  C   UNL d   1      25.848  46.007  -2.127 -0.11 +0.01    +0.051    14.328
ATOM     10  C   UNL d   1      22.643  44.464  -4.757 -0.24 +0.00    +0.066    14.328
ATOM     11  C   UNL d   1      22.786  43.299  -5.541 -0.20 -0.00    -0.021    14.328
ATOM     12  C   UNL d   1      21.592  43.153  -6.252 -0.27 +0.00    +0.000    14.328
ATOM     13  C   UNL d   1      20.806  44.230  -5.841 -0.29 +0.00    +0.070    14.328
ATOM     14  C   UNL d   1      23.958  42.350  -5.523 -0.15 +0.01    +0.052    14.328
ATOM     15  C   UNL d   1      18.673  45.559  -6.101 -0.27 -0.00    +0.066    14.328
ATOM     16  C   UNL d   1      17.497  45.830  -6.786 -0.28 +0.00    -0.021    14.328
ATOM     17  C   UNL d   1      16.965  46.982  -6.188 -0.25 -0.00    +0.000    14.328
ATOM     18  C   UNL d   1      17.853  47.313  -5.170 -0.21 -0.01    +0.070    14.328
ATOM     19  C   UNL d   1      16.946  45.020  -7.938 -0.25 -0.00    +0.052    14.328
ATOM     20  C   UNL d   1      18.651  48.851  -3.337 -0.00 -0.02    +0.066    14.328
ATOM     21  C   UNL d   1      18.465  49.994  -2.563 -0.24 +0.01    -0.025    14.328
ATOM     22  C   UNL d   1      19.579  50.078  -1.748 -0.24 +0.01    -0.021    14.328
ATOM     23  C   UNL d   1      20.402  48.980  -2.076 -0.16 -0.01    +0.066    14.328
ATOM     24  C   UNL d   1      17.293  50.970  -2.611 -0.31 -0.01    +0.051    14.328
ATOM     25  N   UNL d   1      22.217  46.782  -2.924 -0.15 +0.00    -0.248    14.328
ATOM     26  N   UNL d   1      21.421  44.990  -4.896 -0.18 +0.00    -0.248    14.328
ATOM     27  N   UNL d   1      18.873  46.462  -5.167 -0.16 +0.02    -0.248    14.328
ATOM     28  N   UNL d   1      19.845  48.236  -3.039 -0.05 +0.07    -0.248    14.328
ATOM     29 FE   UNL d   1      20.445  46.615  -4.110 -0.05 -0.00    +0.000    14.328
ATOM     30  C   UNL d   1      24.573  48.516  -0.537 -0.08 +0.01    +0.052    14.328
ATOM     31  C   UNL d   1      25.370  49.594  -1.272 -0.02 +0.01    +0.115    14.328
ATOM     32  C   UNL d   1      24.608  50.177  -2.442 -0.01 +0.00    +0.139    14.328
ATOM     33  O   UNL d   1      24.046  51.255  -2.317 +0.01 +0.00    -0.650    14.328
ATOM     34  O   UNL d   1      24.567  49.565  -3.649 +0.01 -0.02    -0.776    14.328
ATOM     35  H   UNL d   1      23.825  49.629  -4.266 +0.01 +0.00    +0.167    14.328
ATOM     36  C   UNL d   1      21.396  47.858  -5.504 -0.03 -0.01    +0.190    14.328
ATOM     37  O   UNL d   1      22.554  48.613  -5.716 +0.00 +0.00    -0.399    14.328
ATOM     38  H   UNL d   1      23.039  48.590  -4.844 +0.02 -0.00    +0.209    14.328
ATOM     39  C   UNL d   1      19.862  51.192  -0.757 -0.23 -0.01    +0.052    14.328
ATOM     40  C   UNL d   1      20.869  50.728   0.308 -0.22 -0.02    +0.115    14.328
ATOM     41  C   UNL d   1      20.242  50.057   1.512 -0.35 -0.03    +0.139    14.328
ATOM     42  O   UNL d   1      19.926  48.878   1.443 -0.57 +0.08    -0.650    14.328
ATOM     43  O   UNL d   1      20.101  50.702   2.691 -0.01 +0.18    -0.776    14.328
ATOM     44  H   UNL d   1      20.060  51.665   2.755 -0.23 -0.07    +0.167    14.328
ATOM     45  C   UNL d   1      21.099  42.116  -7.252 -0.30 +0.00    +0.004    14.328
ATOM     46  C   UNL d   1      21.164  40.787  -7.225 -0.28 +0.00    +0.012    14.328
ATOM     47  C   UNL d   1      15.748  47.768  -6.548 -0.25 -0.00    +0.004    14.328
ATOM     48  C   UNL d   1      14.593  47.685  -5.884 -0.39 -0.00    +0.012    14.328
TER
ENDMDL
MODEL       78
USER    Run = 78
USER    Cluster Rank = 33
USER    Number of conformations in this cluster = 1
USER  
USER    RMSD from reference structure       = 26.407 A
USER  
USER    Estimated Free Energy of Binding    =   -4.57 kcal/mol  [=(1)+(2)+(3)-(4)]
USER    Estimated Inhibition Constant, Ki   =  443.33 uM (micromolar)  [Temperature = 298.15 K]
USER    
USER    (1) Final Intermolecular Energy     =   -8.15 kcal/mol
USER        vdW + Hbond + desolv Energy     =   -5.66 kcal/mol
USER        Electrostatic Energy            =   -2.50 kcal/mol
USER    (2) Final Total Internal Energy     =   -1.75 kcal/mol
USER    (3) Torsional Free Energy           =   +3.58 kcal/mol
USER    (4) Unbound System's Energy  [=(2)] =   -1.75 kcal/mol
USER    
USER    
USER  
USER    DPF = D:/Protein_go_brrr/autodock/final/6BB5/heme_Co/dock.dpf
USER    NEWDPF move	heme_Co_opt.pdbqt
USER    NEWDPF about	8.781000 34.984000 -0.736000
USER    NEWDPF tran0	37.058254 46.595122 2.093380
USER    NEWDPF axisangle0	0.915505 -0.055350 0.398482 140.373080
USER    NEWDPF quaternion0	0.861308 -0.052074 0.374892 0.338959
USER    NEWDPF dihe0	-22.04 110.78 85.10 -6.64 -108.39 161.73 -114.64 135.29 168.51 146.70 11.75 26.51 
USER  
USER                              x       y       z    vdW   Elec        q     RMS 
ATOM      1  C   UNL d   1      35.181  46.416   1.017 -0.07 +0.06    +0.064    26.407
ATOM      2  C   UNL d   1      38.186  50.052   1.616 -0.05 +0.03    +0.064    26.407
ATOM      3  C   UNL d   1      40.835  47.421   4.597 -0.21 +0.00    +0.064    26.407
ATOM      4  C   UNL d   1      37.998  43.572   3.701 -0.17 +0.02    +0.064    26.407
ATOM      5  C   UNL d   1      35.787  47.614   0.990 -0.05 +0.07    +0.066    26.407
ATOM      6  C   UNL d   1      35.341  48.659   0.157 -0.06 -0.01    -0.021    26.407
ATOM      7  C   UNL d   1      36.230  49.703   0.317 -0.05 -0.01    -0.025    26.407
ATOM      8  C   UNL d   1      37.170  49.258   1.253 -0.08 +0.04    +0.066    26.407
ATOM      9  C   UNL d   1      36.209  51.074  -0.377 -0.02 +0.01    +0.051    26.407
ATOM     10  C   UNL d   1      39.185  49.691   2.590 -0.05 +0.02    +0.066    26.407
ATOM     11  C   UNL d   1      40.192  50.528   3.116 -0.05 -0.00    -0.021    26.407
ATOM     12  C   UNL d   1      40.947  49.737   3.986 -0.15 +0.00    +0.000    26.407
ATOM     13  C   UNL d   1      40.340  48.482   3.935 -0.12 +0.01    +0.070    26.407
ATOM     14  C   UNL d   1      40.344  52.007   2.865 -0.04 +0.01    +0.052    26.407
ATOM     15  C   UNL d   1      40.368  46.049   4.615 -0.20 +0.01    +0.066    26.407
ATOM     16  C   UNL d   1      41.010  44.969   5.204 -0.36 -0.00    -0.021    26.407
ATOM     17  C   UNL d   1      40.197  43.856   4.946 -0.31 +0.00    +0.000    26.407
ATOM     18  C   UNL d   1      39.110  44.350   4.233 -0.17 +0.02    +0.070    26.407
ATOM     19  C   UNL d   1      42.320  45.032   5.957 -0.33 +0.00    +0.052    26.407
ATOM     20  C   UNL d   1      36.976  44.016   2.931 -0.15 +0.03    +0.066    26.407
ATOM     21  C   UNL d   1      35.984  43.165   2.449 -0.14 -0.01    -0.025    26.407
ATOM     22  C   UNL d   1      35.141  43.962   1.696 -0.10 -0.01    -0.021    26.407
ATOM     23  C   UNL d   1      35.672  45.269   1.746 -0.07 +0.06    +0.066    26.407
ATOM     24  C   UNL d   1      35.855  41.661   2.678 -0.22 +0.00    +0.051    26.407
ATOM     25  N   UNL d   1      36.917  47.970   1.691 -0.04 -0.29    -0.248    26.407
ATOM     26  N   UNL d   1      39.241  48.471   3.135 -0.04 -0.11    -0.248    26.407
ATOM     27  N   UNL d   1      39.261  45.654   4.028 -0.07 -0.09    -0.248    26.407
ATOM     28  N   UNL d   1      36.784  45.305   2.490 -0.08 -0.25    -0.248    26.407
ATOM     29 FE   UNL d   1      38.156  46.740   2.929 -0.03 +0.00    +0.000    26.407
ATOM     30  C   UNL d   1      34.160  48.612  -0.807 -0.02 +0.02    +0.052    26.407
ATOM     31  C   UNL d   1      32.909  49.197  -0.153 -0.04 +0.04    +0.115    26.407
ATOM     32  C   UNL d   1      33.065  49.364   1.343 -0.17 +0.09    +0.139    26.407
ATOM     33  O   UNL d   1      33.040  50.485   1.829 -0.06 -0.36    -0.650    26.407
ATOM     34  O   UNL d   1      33.183  48.303   2.175 -0.43 -1.14    -0.776    26.407
ATOM     35  H   UNL d   1      32.833  47.422   1.986 +0.04 +0.19    +0.167    26.407
ATOM     36  C   UNL d   1      39.233  46.274   1.192 -0.01 +0.05    +0.190    26.407
ATOM     37  O   UNL d   1      39.358  46.598  -0.163 +0.01 -0.08    -0.399    26.407
ATOM     38  H   UNL d   1      38.648  47.279  -0.330 +0.01 +0.05    +0.209    26.407
ATOM     39  C   UNL d   1      33.931  43.476   0.920 -0.06 +0.02    +0.052    26.407
ATOM     40  C   UNL d   1      32.687  44.303   1.282 -0.07 +0.05    +0.115    26.407
ATOM     41  C   UNL d   1      32.583  44.668   2.748 -0.23 +0.08    +0.139    26.407
ATOM     42  O   UNL d   1      32.054  43.884   3.523 -0.03 -0.29    -0.650    26.407
ATOM     43  O   UNL d   1      33.137  45.798   3.240 +0.01 -1.06    -0.776    26.407
ATOM     44  H   UNL d   1      32.652  46.631   3.299 +0.04 +0.21    +0.167    26.407
ATOM     45  C   UNL d   1      42.155  50.025   4.868 -0.19 -0.00    +0.004    26.407
ATOM     46  C   UNL d   1      43.003  51.050   4.867 -0.18 -0.00    +0.012    26.407
ATOM     47  C   UNL d   1      40.415  42.417   5.282 -0.48 +0.00    +0.004    26.407
ATOM     48  C   UNL d   1      40.294  41.427   4.395 -0.34 +0.00    +0.012    26.407
TER
ENDMDL
MODEL       86
USER    Run = 86
USER    Cluster Rank = 34
USER    Number of conformations in this cluster = 1
USER  
USER    RMSD from reference structure       = 24.363 A
USER  
USER    Estimated Free Energy of Binding    =   -4.45 kcal/mol  [=(1)+(2)+(3)-(4)]
USER    Estimated Inhibition Constant, Ki   =  549.66 uM (micromolar)  [Temperature = 298.15 K]
USER    
USER    (1) Final Intermolecular Energy     =   -8.03 kcal/mol
USER        vdW + Hbond + desolv Energy     =   -6.00 kcal/mol
USER        Electrostatic Energy            =   -2.02 kcal/mol
USER    (2) Final Total Internal Energy     =   -1.97 kcal/mol
USER    (3) Torsional Free Energy           =   +3.58 kcal/mol
USER    (4) Unbound System's Energy  [=(2)] =   -1.97 kcal/mol
USER    
USER    
USER  
USER    DPF = D:/Protein_go_brrr/autodock/final/6BB5/heme_Co/dock.dpf
USER    NEWDPF move	heme_Co_opt.pdbqt
USER    NEWDPF about	8.781000 34.984000 -0.736000
USER    NEWDPF tran0	24.915362 15.561427 13.851155
USER    NEWDPF axisangle0	-0.487987 -0.226607 0.842922 -138.856985
USER    NEWDPF quaternion0	-0.456870 -0.212157 0.789173 -0.351376
USER    NEWDPF dihe0	33.75 99.22 -150.59 -172.58 134.22 84.99 -136.15 120.45 -170.34 146.99 12.27 169.57 
USER  
USER                              x       y       z    vdW   Elec        q     RMS 
ATOM      1  C   UNL d   1      26.124  13.794  14.212 -0.08 +0.02    +0.064    24.363
ATOM      2  C   UNL d   1      23.411  16.449  17.076 -0.17 +0.03    +0.064    24.363
ATOM      3  C   UNL d   1      22.595  19.526  13.513 -0.29 +0.01    +0.064    24.363
ATOM      4  C   UNL d   1      25.044  16.629  10.468 -0.12 +0.01    +0.064    24.363
ATOM      5  C   UNL d   1      25.473  14.313  15.266 -0.09 +0.02    +0.066    24.363
ATOM      6  C   UNL d   1      25.412  13.650  16.507 -0.06 -0.01    -0.021    24.363
ATOM      7  C   UNL d   1      24.605  14.413  17.328 -0.06 -0.01    -0.025    24.363
ATOM      8  C   UNL d   1      24.221  15.516  16.558 -0.10 +0.03    +0.066    24.363
ATOM      9  C   UNL d   1      24.201  14.128  18.782 -0.02 +0.02    +0.051    24.363
ATOM     10  C   UNL d   1      22.984  17.630  16.369 -0.23 +0.03    +0.066    24.363
ATOM     11  C   UNL d   1      22.252  18.713  16.902 -0.33 -0.01    -0.021    24.363
ATOM     12  C   UNL d   1      22.031  19.598  15.842 -0.30 +0.00    +0.000    24.363
ATOM     13  C   UNL d   1      22.654  18.997  14.748 -0.30 +0.02    +0.070    24.363
ATOM     14  C   UNL d   1      21.882  18.914  18.349 -0.35 -0.00    +0.052    24.363
ATOM     15  C   UNL d   1      23.134  19.016  12.268 -0.22 +0.01    +0.066    24.363
ATOM     16  C   UNL d   1      22.913  19.537  11.001 -0.20 -0.00    -0.021    24.363
ATOM     17  C   UNL d   1      23.615  18.703  10.119 -0.12 +0.00    +0.000    24.363
ATOM     18  C   UNL d   1      24.225  17.746  10.922 -0.14 +0.01    +0.070    24.363
ATOM     19  C   UNL d   1      22.075  20.757  10.688 -0.28 +0.01    +0.052    24.363
ATOM     20  C   UNL d   1      25.576  15.637  11.221 -0.12 +0.01    +0.066    24.363
ATOM     21  C   UNL d   1      26.316  14.596  10.665 -0.08 -0.00    -0.025    24.363
ATOM     22  C   UNL d   1      26.665  13.779  11.724 -0.07 -0.00    -0.021    24.363
ATOM     23  C   UNL d   1      26.106  14.359  12.882 -0.10 +0.02    +0.066    24.363
ATOM     24  C   UNL d   1      26.657  14.379   9.193 -0.05 +0.01    +0.051    24.363
ATOM     25  N   UNL d   1      24.749  15.483  15.278 +0.01 -0.10    -0.248    24.363
ATOM     26  N   UNL d   1      23.278  17.836  15.081 -0.06 -0.10    -0.248    24.363
ATOM     27  N   UNL d   1      23.892  17.945  12.193 -0.08 -0.07    -0.248    24.363
ATOM     28  N   UNL d   1      25.444  15.483  12.582 -0.08 -0.07    -0.248    24.363
ATOM     29 FE   UNL d   1      24.297  16.785  13.642 -0.05 +0.00    +0.000    24.363
ATOM     30  C   UNL d   1      26.039  12.303  16.850 -0.02 +0.02    +0.052    24.363
ATOM     31  C   UNL d   1      27.392  12.498  17.534 -0.04 +0.05    +0.115    24.363
ATOM     32  C   UNL d   1      27.669  13.950  17.861 +0.03 +0.16    +0.139    24.363
ATOM     33  O   UNL d   1      27.388  14.381  18.970 -0.34 -1.04    -0.650    24.363
ATOM     34  O   UNL d   1      28.266  14.783  16.977 -0.31 -1.09    -0.776    24.363
ATOM     35  H   UNL d   1      28.194  14.699  16.017 +0.04 +0.13    +0.167    24.363
ATOM     36  C   UNL d   1      22.602  15.597  13.311 -0.07 +0.07    +0.190    24.363
ATOM     37  O   UNL d   1      22.196  14.332  12.876 -0.00 -0.12    -0.399    24.363
ATOM     38  H   UNL d   1      23.002  13.940  12.438 +0.02 +0.05    +0.209    24.363
ATOM     39  C   UNL d   1      27.438  12.478  11.614 -0.03 +0.01    +0.052    24.363
ATOM     40  C   UNL d   1      26.481  11.294  11.397 -0.01 +0.01    +0.115    24.363
ATOM     41  C   UNL d   1      25.192  11.381  12.186 -0.01 +0.02    +0.139    24.363
ATOM     42  O   UNL d   1      25.071  10.720  13.208 +0.00 -0.09    -0.650    24.363
ATOM     43  O   UNL d   1      24.203  12.234  11.840 +0.01 -0.12    -0.776    24.363
ATOM     44  H   UNL d   1      23.653  12.684  12.495 +0.01 +0.03    +0.167    24.363
ATOM     45  C   UNL d   1      21.324  20.943  15.743 -0.56 +0.00    +0.004    24.363
ATOM     46  C   UNL d   1      21.157  21.759  14.705 -0.46 -0.00    +0.012    24.363
ATOM     47  C   UNL d   1      23.690  18.740   8.628 -0.07 +0.00    +0.004    24.363
ATOM     48  C   UNL d   1      24.802  19.041   7.952 -0.07 +0.00    +0.012    24.363
TER
ENDMDL
MODEL       80
USER    Run = 80
USER    Cluster Rank = 35
USER    Number of conformations in this cluster = 2
USER  
USER    RMSD from reference structure       = 33.726 A
USER  
USER    Estimated Free Energy of Binding    =   -4.40 kcal/mol  [=(1)+(2)+(3)-(4)]
USER    Estimated Inhibition Constant, Ki   =  593.25 uM (micromolar)  [Temperature = 298.15 K]
USER    
USER    (1) Final Intermolecular Energy     =   -7.98 kcal/mol
USER        vdW + Hbond + desolv Energy     =   -5.77 kcal/mol
USER        Electrostatic Energy            =   -2.21 kcal/mol
USER    (2) Final Total Internal Energy     =   -2.57 kcal/mol
USER    (3) Torsional Free Energy           =   +3.58 kcal/mol
USER    (4) Unbound System's Energy  [=(2)] =   -2.57 kcal/mol
USER    
USER    
USER  
USER    DPF = D:/Protein_go_brrr/autodock/final/6BB5/heme_Co/dock.dpf
USER    NEWDPF move	heme_Co_opt.pdbqt
USER    NEWDPF about	8.781000 34.984000 -0.736000
USER    NEWDPF tran0	37.235299 54.528447 12.880688
USER    NEWDPF axisangle0	-0.216756 -0.882986 -0.416356 123.209526
USER    NEWDPF quaternion0	-0.190678 -0.776752 -0.366263 0.475551
USER    NEWDPF dihe0	-170.47 81.97 118.64 116.61 137.70 146.87 65.83 -18.13 -104.80 121.11 169.72 -162.24 
USER  
USER                              x       y       z    vdW   Elec        q     RMS 
ATOM      1  C   UNL d   1      37.382  53.281  14.652 -0.21 +0.03    +0.064    33.726
ATOM      2  C   UNL d   1      40.203  53.787  10.858 -0.10 -0.02    +0.064    33.726
ATOM      3  C   UNL d   1      37.026  56.730   8.840 -0.14 +0.02    +0.064    33.726
ATOM      4  C   UNL d   1      34.306  56.533  12.869 +0.03 +0.00    +0.064    33.726
ATOM      5  C   UNL d   1      38.369  53.174  13.748 -0.16 +0.02    +0.066    33.726
ATOM      6  C   UNL d   1      39.542  52.438  14.005 -0.19 -0.00    -0.021    33.726
ATOM      7  C   UNL d   1      40.367  52.607  12.911 -0.17 +0.00    -0.025    33.726
ATOM      8  C   UNL d   1      39.656  53.425  12.026 -0.16 -0.00    +0.066    33.726
ATOM      9  C   UNL d   1      41.773  52.028  12.692 -0.22 -0.02    +0.051    33.726
ATOM     10  C   UNL d   1      39.538  54.603   9.874 -0.13 +0.02    +0.066    33.726
ATOM     11  C   UNL d   1      40.000  54.902   8.573 -0.09 -0.01    -0.021    33.726
ATOM     12  C   UNL d   1      39.052  55.758   8.006 -0.11 +0.00    +0.000    33.726
ATOM     13  C   UNL d   1      38.079  55.908   8.994 -0.13 +0.04    +0.070    33.726
ATOM     14  C   UNL d   1      41.219  54.320   7.904 -0.12 -0.01    +0.052    33.726
ATOM     15  C   UNL d   1      35.960  57.043   9.772 -0.14 +0.02    +0.066    33.726
ATOM     16  C   UNL d   1      34.980  58.012   9.606 -0.12 -0.00    -0.021    33.726
ATOM     17  C   UNL d   1      34.195  57.961  10.767 -0.15 +0.00    +0.000    33.726
ATOM     18  C   UNL d   1      34.749  56.949  11.544 -0.17 +0.01    +0.070    33.726
ATOM     19  C   UNL d   1      34.834  58.914   8.401 -0.10 +0.01    +0.052    33.726
ATOM     20  C   UNL d   1      34.881  55.613  13.680 -0.18 +0.01    +0.066    33.726
ATOM     21  C   UNL d   1      34.382  55.325  14.948 -0.22 -0.00    -0.025    33.726
ATOM     22  C   UNL d   1      35.232  54.369  15.475 -0.29 -0.01    -0.021    33.726
ATOM     23  C   UNL d   1      36.222  54.129  14.498 -0.23 +0.03    +0.066    33.726
ATOM     24  C   UNL d   1      33.167  55.944  15.634 -0.13 +0.01    +0.051    33.726
ATOM     25  N   UNL d   1      38.413  53.787  12.516 -0.08 -0.05    -0.248    33.726
ATOM     26  N   UNL d   1      38.346  55.165  10.101 -0.10 -0.13    -0.248    33.726
ATOM     27  N   UNL d   1      35.817  56.446  10.934 -0.10 -0.06    -0.248    33.726
ATOM     28  N   UNL d   1      36.014  54.881  13.411 -0.13 -0.06    -0.248    33.726
ATOM     29 FE   UNL d   1      37.036  55.194  11.681 -0.04 +0.00    +0.000    33.726
ATOM     30  C   UNL d   1      39.877  51.678  15.285 -0.24 +0.02    +0.052    33.726
ATOM     31  C   UNL d   1      40.934  52.429  16.094 -0.14 +0.05    +0.115    33.726
ATOM     32  C   UNL d   1      40.375  53.665  16.767 -0.08 +0.11    +0.139    33.726
ATOM     33  O   UNL d   1      39.951  54.583  16.082 -0.00 -0.34    -0.650    33.726
ATOM     34  O   UNL d   1      40.285  53.769  18.114 -0.43 -1.02    -0.776    33.726
ATOM     35  H   UNL d   1      39.867  54.510  18.574 +0.00 +0.22    +0.167    33.726
ATOM     36  C   UNL d   1      38.181  56.690  12.601 -0.01 +0.03    +0.190    33.726
ATOM     37  O   UNL d   1      39.239  56.893  13.492 +0.01 -0.06    -0.399    33.726
ATOM     38  H   UNL d   1      39.187  56.128  14.131 +0.02 +0.04    +0.209    33.726
ATOM     39  C   UNL d   1      35.131  53.773  16.866 -0.16 +0.04    +0.052    33.726
ATOM     40  C   UNL d   1      35.274  54.866  17.937 -0.15 +0.09    +0.115    33.726
ATOM     41  C   UNL d   1      36.628  55.544  17.961 -0.09 +0.12    +0.139    33.726
ATOM     42  O   UNL d   1      36.697  56.751  17.771 +0.02 -0.28    -0.650    33.726
ATOM     43  O   UNL d   1      37.756  54.868  18.272 +0.03 -1.30    -0.776    33.726
ATOM     44  H   UNL d   1      38.527  54.847  17.689 +0.00 +0.23    +0.167    33.726
ATOM     45  C   UNL d   1      38.946  56.433   6.645 -0.10 +0.00    +0.004    33.726
ATOM     46  C   UNL d   1      38.132  56.192   5.620 -0.14 +0.01    +0.012    33.726
ATOM     47  C   UNL d   1      33.037  58.812  11.174 -0.11 +0.00    +0.004    33.726
ATOM     48  C   UNL d   1      31.799  58.342  11.342 -0.16 -0.00    +0.012    33.726
TER
ENDMDL
MODEL       82
USER    Run = 82
USER    Cluster Rank = 36
USER    Number of conformations in this cluster = 1
USER  
USER    RMSD from reference structure       = 18.531 A
USER  
USER    Estimated Free Energy of Binding    =   -4.36 kcal/mol  [=(1)+(2)+(3)-(4)]
USER    Estimated Inhibition Constant, Ki   =  638.88 uM (micromolar)  [Temperature = 298.15 K]
USER    
USER    (1) Final Intermolecular Energy     =   -7.94 kcal/mol
USER        vdW + Hbond + desolv Energy     =   -6.79 kcal/mol
USER        Electrostatic Energy            =   -1.15 kcal/mol
USER    (2) Final Total Internal Energy     =   -2.03 kcal/mol
USER    (3) Torsional Free Energy           =   +3.58 kcal/mol
USER    (4) Unbound System's Energy  [=(2)] =   -2.03 kcal/mol
USER    
USER    
USER  
USER    DPF = D:/Protein_go_brrr/autodock/final/6BB5/heme_Co/dock.dpf
USER    NEWDPF move	heme_Co_opt.pdbqt
USER    NEWDPF about	8.781000 34.984000 -0.736000
USER    NEWDPF tran0	21.263829 51.591913 1.259997
USER    NEWDPF axisangle0	0.755574 0.583350 0.298011 174.224159
USER    NEWDPF quaternion0	0.754614 0.582610 0.297633 0.050382
USER    NEWDPF dihe0	-169.19 98.82 -65.54 128.72 -71.34 135.98 32.05 145.97 179.84 -59.23 179.97 136.99 
USER  
USER                              x       y       z    vdW   Elec        q     RMS 
ATOM      1  C   UNL d   1      21.107  49.431   1.107 -0.24 -0.01    +0.064    18.531
ATOM      2  C   UNL d   1      20.328  52.921  -2.028 -0.13 -0.01    +0.064    18.531
ATOM      3  C   UNL d   1      21.105  56.194   1.365 -0.13 -0.01    +0.064    18.531
ATOM      4  C   UNL d   1      22.283  52.656   4.490 -0.18 -0.00    +0.064    18.531
ATOM      5  C   UNL d   1      20.802  50.144   0.010 -0.23 -0.01    +0.066    18.531
ATOM      6  C   UNL d   1      20.573  49.533  -1.238 -0.21 +0.00    -0.021    18.531
ATOM      7  C   UNL d   1      20.370  50.551  -2.149 -0.14 +0.00    -0.025    18.531
ATOM      8  C   UNL d   1      20.467  51.738  -1.415 -0.15 -0.01    +0.066    18.531
ATOM      9  C   UNL d   1      20.094  50.427  -3.655 -0.08 -0.01    +0.051    18.531
ATOM     10  C   UNL d   1      20.386  54.192  -1.351 -0.12 -0.01    +0.066    18.531
ATOM     11  C   UNL d   1      20.110  55.459  -1.910 -0.09 +0.00    -0.021    18.531
ATOM     12  C   UNL d   1      20.340  56.395  -0.898 -0.10 -0.00    +0.000    18.531
ATOM     13  C   UNL d   1      20.727  55.631   0.204 -0.12 -0.01    +0.070    18.531
ATOM     14  C   UNL d   1      19.570  55.726  -3.292 -0.05 -0.00    +0.052    18.531
ATOM     15  C   UNL d   1      21.581  55.563   2.581 -0.14 -0.01    +0.066    18.531
ATOM     16  C   UNL d   1      22.095  56.209   3.697 -0.10 +0.00    -0.021    18.531
ATOM     17  C   UNL d   1      22.438  55.192   4.600 -0.13 -0.00    +0.000    18.531
ATOM     18  C   UNL d   1      22.090  54.003   3.968 -0.19 -0.00    +0.070    18.531
ATOM     19  C   UNL d   1      22.236  57.706   3.856 -0.05 -0.00    +0.052    18.531
ATOM     20  C   UNL d   1      22.033  51.484   3.859 -0.22 -0.00    +0.066    18.531
ATOM     21  C   UNL d   1      22.294  50.250   4.452 -0.23 -0.00    -0.025    18.531
ATOM     22  C   UNL d   1      21.938  49.302   3.511 -0.27 -0.00    -0.021    18.531
ATOM     23  C   UNL d   1      21.484  50.009   2.377 -0.23 -0.01    +0.066    18.531
ATOM     24  C   UNL d   1      22.874  49.988   5.839 -0.20 +0.00    +0.051    18.531
ATOM     25  N   UNL d   1      20.728  51.516  -0.073 -0.13 +0.06    -0.248    18.531
ATOM     26  N   UNL d   1      20.700  54.297  -0.055 +0.01 +0.07    -0.248    18.531
ATOM     27  N   UNL d   1      21.611  54.261   2.755 -0.07 +0.06    -0.248    18.531
ATOM     28  N   UNL d   1      21.542  51.330   2.583 -0.16 +0.04    -0.248    18.531
ATOM     29 FE   UNL d   1      21.196  52.967   1.427 -0.05 -0.00    +0.000    18.531
ATOM     30  C   UNL d   1      20.631  48.040  -1.544 -0.21 -0.01    +0.052    18.531
ATOM     31  C   UNL d   1      22.003  47.659  -2.099 -0.19 -0.00    +0.115    18.531
ATOM     32  C   UNL d   1      22.919  48.855  -2.246 -0.07 -0.00    +0.139    18.531
ATOM     33  O   UNL d   1      23.028  49.398  -3.335 +0.02 +0.01    -0.650    18.531
ATOM     34  O   UNL d   1      23.591  49.378  -1.193 +0.04 -0.01    -0.776    18.531
ATOM     35  H   UNL d   1      24.110  50.193  -1.230 +0.02 +0.00    +0.167    18.531
ATOM     36  C   UNL d   1      23.165  52.907   0.712 -0.05 -0.02    +0.190    18.531
ATOM     37  O   UNL d   1      24.054  52.132  -0.041 +0.00 +0.01    -0.399    18.531
ATOM     38  H   UNL d   1      23.617  51.239  -0.115 +0.02 -0.00    +0.209    18.531
ATOM     39  C   UNL d   1      22.089  47.801   3.674 -0.38 +0.00    +0.052    18.531
ATOM     40  C   UNL d   1      22.978  47.221   2.561 -0.30 +0.02    +0.115    18.531
ATOM     41  C   UNL d   1      24.282  46.627   3.049 -0.26 +0.09    +0.139    18.531
ATOM     42  O   UNL d   1      25.195  47.374   3.375 -0.07 -0.53    -0.650    18.531
ATOM     43  O   UNL d   1      24.437  45.295   3.219 -0.52 -0.92    -0.776    18.531
ATOM     44  H   UNL d   1      23.883  44.780   3.819 -0.50 +0.09    +0.167    18.531
ATOM     45  C   UNL d   1      20.222  57.912  -0.840 -0.05 -0.00    +0.004    18.531
ATOM     46  C   UNL d   1      19.476  58.693  -0.064 -0.05 -0.00    +0.012    18.531
ATOM     47  C   UNL d   1      23.092  55.287   5.939 -0.09 -0.00    +0.004    18.531
ATOM     48  C   UNL d   1      24.410  55.191   6.124 -0.06 -0.00    +0.012    18.531
TER
ENDMDL
MODEL        6
USER    Run = 6
USER    Cluster Rank = 37
USER    Number of conformations in this cluster = 2
USER  
USER    RMSD from reference structure       = 13.994 A
USER  
USER    Estimated Free Energy of Binding    =   -4.34 kcal/mol  [=(1)+(2)+(3)-(4)]
USER    Estimated Inhibition Constant, Ki   =  663.88 uM (micromolar)  [Temperature = 298.15 K]
USER    
USER    (1) Final Intermolecular Energy     =   -7.92 kcal/mol
USER        vdW + Hbond + desolv Energy     =   -7.77 kcal/mol
USER        Electrostatic Energy            =   -0.14 kcal/mol
USER    (2) Final Total Internal Energy     =   -3.14 kcal/mol
USER    (3) Torsional Free Energy           =   +3.58 kcal/mol
USER    (4) Unbound System's Energy  [=(2)] =   -3.14 kcal/mol
USER    
USER    
USER  
USER    DPF = D:/Protein_go_brrr/autodock/final/6BB5/heme_Co/dock.dpf
USER    NEWDPF move	heme_Co_opt.pdbqt
USER    NEWDPF about	8.781000 34.984000 -0.736000
USER    NEWDPF tran0	18.561079 46.765808 -5.172819
USER    NEWDPF axisangle0	-0.757709 -0.619480 -0.205235 -121.854769
USER    NEWDPF quaternion0	-0.662241 -0.541428 -0.179376 -0.485918
USER    NEWDPF dihe0	-107.85 129.51 -149.84 1.03 96.78 124.23 58.81 148.30 -111.68 102.53 162.12 176.53 
USER  
USER                              x       y       z    vdW   Elec        q     RMS 
ATOM      1  C   UNL d   1      18.575  45.033  -6.481 -0.27 +0.00    +0.064    13.994
ATOM      2  C   UNL d   1      15.566  48.690  -6.055 -0.17 -0.01    +0.064    13.994
ATOM      3  C   UNL d   1      18.019  50.318  -2.292 -0.27 -0.02    +0.064    13.994
ATOM      4  C   UNL d   1      21.325  46.810  -2.945 -0.26 -0.01    +0.064    13.994
ATOM      5  C   UNL d   1      17.552  45.892  -6.619 -0.26 -0.00    +0.066    13.994
ATOM      6  C   UNL d   1      16.629  45.791  -7.678 -0.29 +0.00    -0.021    13.994
ATOM      7  C   UNL d   1      15.772  46.868  -7.562 -0.23 +0.00    -0.025    13.994
ATOM      8  C   UNL d   1      16.198  47.570  -6.429 -0.18 -0.01    +0.066    13.994
ATOM      9  C   UNL d   1      14.592  47.236  -8.476 +0.13 -0.01    +0.051    13.994
ATOM     10  C   UNL d   1      15.916  49.463  -4.890 -0.15 -0.01    +0.066    13.994
ATOM     11  C   UNL d   1      15.208  50.566  -4.365 -0.21 +0.00    -0.021    13.994
ATOM     12  C   UNL d   1      15.943  51.019  -3.266 -0.32 -0.00    +0.000    13.994
ATOM     13  C   UNL d   1      17.035  50.154  -3.194 -0.26 -0.02    +0.070    13.994
ATOM     14  C   UNL d   1      13.871  51.075  -4.839 -0.22 -0.01    +0.052    13.994
ATOM     15  C   UNL d   1      19.238  49.555  -2.111 -0.09 -0.02    +0.066    13.994
ATOM     16  C   UNL d   1      20.284  49.866  -1.254 -0.23 +0.00    -0.021    13.994
ATOM     17  C   UNL d   1      21.241  48.858  -1.440 -0.20 -0.00    +0.000    13.994
ATOM     18  C   UNL d   1      20.694  48.000  -2.388 -0.20 -0.01    +0.070    13.994
ATOM     19  C   UNL d   1      20.333  51.061  -0.328 -0.25 -0.01    +0.052    13.994
ATOM     20  C   UNL d   1      20.850  46.009  -3.929 -0.26 -0.01    +0.066    13.994
ATOM     21  C   UNL d   1      21.565  44.913  -4.405 -0.27 +0.00    -0.025    13.994
ATOM     22  C   UNL d   1      20.784  44.364  -5.406 -0.33 -0.00    -0.021    13.994
ATOM     23  C   UNL d   1      19.627  45.166  -5.499 -0.32 -0.00    +0.066    13.994
ATOM     24  C   UNL d   1      22.936  44.424  -3.945 -0.32 +0.00    +0.051    13.994
ATOM     25  N   UNL d   1      17.295  46.984  -5.822 -0.14 +0.03    -0.248    13.994
ATOM     26  N   UNL d   1      16.988  49.180  -4.142 -0.11 +0.06    -0.248    13.994
ATOM     27  N   UNL d   1      19.514  48.463  -2.787 +0.05 +0.09    -0.248    13.994
ATOM     28  N   UNL d   1      19.664  46.164  -4.608 -0.20 +0.03    -0.248    13.994
ATOM     29 FE   UNL d   1      18.473  47.764  -4.215 -0.05 -0.00    +0.000    13.994
ATOM     30  C   UNL d   1      16.632  44.749  -8.791 -0.28 -0.00    +0.052    13.994
ATOM     31  C   UNL d   1      16.920  45.406 -10.141 -0.13 -0.01    +0.115    13.994
ATOM     32  C   UNL d   1      18.324  45.966 -10.222 -0.05 +0.00    +0.139    13.994
ATOM     33  O   UNL d   1      18.613  46.958  -9.570 +0.03 +0.00    -0.650    13.994
ATOM     34  O   UNL d   1      19.291  45.374 -10.960 +0.04 -0.06    -0.776    13.994
ATOM     35  H   UNL d   1      20.071  44.940 -10.588 +0.02 +0.02    +0.167    13.994
ATOM     36  C   UNL d   1      19.484  48.901  -5.657 -0.03 -0.02    +0.190    13.994
ATOM     37  O   UNL d   1      19.884  48.900  -6.997 +0.00 +0.01    -0.399    13.994
ATOM     38  H   UNL d   1      19.336  48.187  -7.428 +0.02 -0.01    +0.209    13.994
ATOM     39  C   UNL d   1      21.165  43.173  -6.266 -0.32 +0.01    +0.052    13.994
ATOM     40  C   UNL d   1      22.077  43.610  -7.424 -0.12 +0.01    +0.115    13.994
ATOM     41  C   UNL d   1      21.340  44.160  -8.627 -0.08 +0.02    +0.139    13.994
ATOM     42  O   UNL d   1      20.731  43.392  -9.358 -0.01 -0.16    -0.650    13.994
ATOM     43  O   UNL d   1      21.263  45.488  -8.866 +0.04 -0.05    -0.776    13.994
ATOM     44  H   UNL d   1      20.473  45.904  -9.236 +0.02 +0.01    +0.167    13.994
ATOM     45  C   UNL d   1      15.730  52.150  -2.270 -0.31 -0.00    +0.004    13.994
ATOM     46  C   UNL d   1      14.826  53.126  -2.247 -0.39 -0.00    +0.012    13.994
ATOM     47  C   UNL d   1      22.597  48.706  -0.833 -0.15 +0.00    +0.004    13.994
ATOM     48  C   UNL d   1      22.801  48.313   0.427 -0.19 +0.00    +0.012    13.994
TER
ENDMDL
MODEL       17
USER    Run = 17
USER    Cluster Rank = 38
USER    Number of conformations in this cluster = 1
USER  
USER    RMSD from reference structure       = 31.795 A
USER  
USER    Estimated Free Energy of Binding    =   -4.14 kcal/mol  [=(1)+(2)+(3)-(4)]
USER    Estimated Inhibition Constant, Ki   =  928.57 uM (micromolar)  [Temperature = 298.15 K]
USER    
USER    (1) Final Intermolecular Energy     =   -7.72 kcal/mol
USER        vdW + Hbond + desolv Energy     =   -5.74 kcal/mol
USER        Electrostatic Energy            =   -1.98 kcal/mol
USER    (2) Final Total Internal Energy     =   -3.19 kcal/mol
USER    (3) Torsional Free Energy           =   +3.58 kcal/mol
USER    (4) Unbound System's Energy  [=(2)] =   -3.19 kcal/mol
USER    
USER    
USER  
USER    DPF = D:/Protein_go_brrr/autodock/final/6BB5/heme_Co/dock.dpf
USER    NEWDPF move	heme_Co_opt.pdbqt
USER    NEWDPF about	8.781000 34.984000 -0.736000
USER    NEWDPF tran0	42.178632 48.334990 4.638611
USER    NEWDPF axisangle0	-0.973718 0.227391 -0.012915 -135.583343
USER    NEWDPF quaternion0	-0.901483 0.210522 -0.011957 -0.377975
USER    NEWDPF dihe0	135.90 98.82 150.24 116.67 54.00 99.09 -118.86 -66.27 -92.04 127.71 162.89 -179.96 
USER  
USER                              x       y       z    vdW   Elec        q     RMS 
ATOM      1  C   UNL d   1      40.077  48.200   5.169 -0.27 +0.00    +0.064    31.795
ATOM      2  C   UNL d   1      42.885  51.901   4.155 -0.10 -0.01    +0.064    31.795
ATOM      3  C   UNL d   1      46.674  49.003   3.891 -0.10 -0.02    +0.064    31.795
ATOM      4  C   UNL d   1      43.764  45.160   4.543 -0.00 -0.01    +0.064    31.795
ATOM      5  C   UNL d   1      40.572  49.429   4.947 -0.21 -0.01    +0.066    31.795
ATOM      6  C   UNL d   1      39.744  50.566   4.872 -0.22 -0.00    -0.021    31.795
ATOM      7  C   UNL d   1      40.561  51.633   4.556 -0.14 -0.00    -0.025    31.795
ATOM      8  C   UNL d   1      41.854  51.105   4.467 -0.14 -0.01    +0.066    31.795
ATOM      9  C   UNL d   1      40.155  53.099   4.340 -0.12 +0.02    +0.051    31.795
ATOM     10  C   UNL d   1      44.252  51.453   4.067 -0.07 -0.01    +0.066    31.795
ATOM     11  C   UNL d   1      45.395  52.262   3.883 -0.03 +0.00    -0.021    31.795
ATOM     12  C   UNL d   1      46.486  51.392   3.814 -0.03 -0.00    +0.000    31.795
ATOM     13  C   UNL d   1      45.932  50.121   3.973 -0.07 -0.02    +0.070    31.795
ATOM     14  C   UNL d   1      45.429  53.769   3.874 -0.01 -0.00    +0.052    31.795
ATOM     15  C   UNL d   1      46.260  47.616   3.978 -0.16 -0.03    +0.066    31.795
ATOM     16  C   UNL d   1      47.055  46.504   3.740 -0.17 +0.01    -0.021    31.795
ATOM     17  C   UNL d   1      46.219  45.393   3.924 -0.27 -0.00    +0.000    31.795
ATOM     18  C   UNL d   1      44.981  45.917   4.278 -0.29 -0.03    +0.070    31.795
ATOM     19  C   UNL d   1      48.519  46.536   3.360 -0.10 -0.02    +0.052    31.795
ATOM     20  C   UNL d   1      42.528  45.650   4.804 -0.33 -0.01    +0.066    31.795
ATOM     21  C   UNL d   1      41.427  44.821   5.006 -0.35 -0.00    -0.025    31.795
ATOM     22  C   UNL d   1      40.355  45.669   5.217 -0.30 -0.00    -0.021    31.795
ATOM     23  C   UNL d   1      40.858  46.984   5.121 -0.26 -0.00    +0.066    31.795
ATOM     24  C   UNL d   1      41.392  43.295   4.979 -0.30 +0.01    +0.051    31.795
ATOM     25  N   UNL d   1      41.891  49.743   4.711 -0.15 +0.06    -0.248    31.795
ATOM     26  N   UNL d   1      44.589  50.164   4.182 -0.08 +0.07    -0.248    31.795
ATOM     27  N   UNL d   1      45.034  47.244   4.271 -0.05 +0.13    -0.248    31.795
ATOM     28  N   UNL d   1      42.172  46.977   4.869 -0.09 +0.05    -0.248    31.795
ATOM     29 FE   UNL d   1      43.554  48.417   4.479 -0.05 -0.00    +0.000    31.795
ATOM     30  C   UNL d   1      38.226  50.597   5.019 -0.27 +0.04    +0.052    31.795
ATOM     31  C   UNL d   1      37.566  50.976   3.694 -0.16 +0.07    +0.115    31.795
ATOM     32  C   UNL d   1      37.341  49.777   2.798 -0.11 +0.12    +0.139    31.795
ATOM     33  O   UNL d   1      36.201  49.398   2.576 +0.05 -1.00    -0.650    31.795
ATOM     34  O   UNL d   1      38.365  49.134   2.189 +0.03 -0.44    -0.776    31.795
ATOM     35  H   UNL d   1      38.483  48.174   2.193 +0.03 +0.10    +0.167    31.795
ATOM     36  C   UNL d   1      43.076  48.356   2.439 -0.04 -0.01    +0.190    31.795
ATOM     37  O   UNL d   1      42.037  48.074   1.545 +0.01 -0.02    -0.399    31.795
ATOM     38  H   UNL d   1      41.355  47.590   2.090 +0.03 +0.02    +0.209    31.795
ATOM     39  C   UNL d   1      38.918  45.234   5.434 -0.35 +0.02    +0.052    31.795
ATOM     40  C   UNL d   1      38.257  44.860   4.097 -0.21 +0.05    +0.115    31.795
ATOM     41  C   UNL d   1      38.257  45.971   3.068 -0.11 +0.10    +0.139    31.795
ATOM     42  O   UNL d   1      39.307  46.284   2.525 +0.05 -0.24    -0.650    31.795
ATOM     43  O   UNL d   1      37.112  46.569   2.668 +0.13 -1.19    -0.776    31.795
ATOM     44  H   UNL d   1      37.096  47.457   2.290 +0.02 +0.25    +0.167    31.795
ATOM     45  C   UNL d   1      47.982  51.614   3.635 -0.02 -0.00    +0.004    31.795
ATOM     46  C   UNL d   1      48.985  51.486   4.499 -0.02 -0.00    +0.012    31.795
ATOM     47  C   UNL d   1      46.510  43.939   3.741 -0.08 -0.00    +0.004    31.795
ATOM     48  C   UNL d   1      47.707  43.393   3.967 -0.26 -0.00    +0.012    31.795
TER
ENDMDL
MODEL       14
USER    Run = 14
USER    Cluster Rank = 39
USER    Number of conformations in this cluster = 1
USER  
USER    RMSD from reference structure       = 15.022 A
USER  
USER    Estimated Free Energy of Binding    =   -4.05 kcal/mol  [=(1)+(2)+(3)-(4)]
USER    Estimated Inhibition Constant, Ki   =    1.08 mM (millimolar)  [Temperature = 298.15 K]
USER    
USER    (1) Final Intermolecular Energy     =   -7.63 kcal/mol
USER        vdW + Hbond + desolv Energy     =   -6.44 kcal/mol
USER        Electrostatic Energy            =   -1.19 kcal/mol
USER    (2) Final Total Internal Energy     =   -2.98 kcal/mol
USER    (3) Torsional Free Energy           =   +3.58 kcal/mol
USER    (4) Unbound System's Energy  [=(2)] =   -2.98 kcal/mol
USER    
USER    
USER  
USER    DPF = D:/Protein_go_brrr/autodock/final/6BB5/heme_Co/dock.dpf
USER    NEWDPF move	heme_Co_opt.pdbqt
USER    NEWDPF about	8.781000 34.984000 -0.736000
USER    NEWDPF tran0	27.050135 37.067658 -1.206620
USER    NEWDPF axisangle0	0.781970 0.338712 0.523257 165.041294
USER    NEWDPF quaternion0	0.775317 0.335830 0.518805 0.130169
USER    NEWDPF dihe0	167.95 109.24 53.82 110.26 158.43 125.68 -121.47 -34.94 -108.74 143.68 -179.68 -159.36 
USER  
USER                              x       y       z    vdW   Elec        q     RMS 
ATOM      1  C   UNL d   1      26.311  35.484  -2.496 -0.17 +0.00    +0.064    15.022
ATOM      2  C   UNL d   1      27.542  39.995  -3.361 -0.16 +0.00    +0.064    15.022
ATOM      3  C   UNL d   1      28.240  40.739   1.307 -0.17 +0.00    +0.064    15.022
ATOM      4  C   UNL d   1      27.361  36.034   2.175 -0.22 +0.01    +0.064    15.022
ATOM      5  C   UNL d   1      26.561  36.672  -3.071 -0.19 +0.00    +0.066    15.022
ATOM      6  C   UNL d   1      26.532  36.846  -4.468 -0.13 -0.00    -0.021    15.022
ATOM      7  C   UNL d   1      26.912  38.151  -4.715 -0.12 -0.00    -0.025    15.022
ATOM      8  C   UNL d   1      27.141  38.721  -3.458 -0.17 +0.00    +0.066    15.022
ATOM      9  C   UNL d   1      27.060  38.848  -6.076 -0.06 +0.00    +0.051    15.022
ATOM     10  C   UNL d   1      27.776  40.674  -2.111 -0.14 +0.01    +0.066    15.022
ATOM     11  C   UNL d   1      28.062  42.046  -1.936 -0.11 -0.00    -0.021    15.022
ATOM     12  C   UNL d   1      28.257  42.236  -0.566 -0.13 +0.00    +0.000    15.022
ATOM     13  C   UNL d   1      28.064  40.973  -0.005 -0.13 +0.01    +0.070    15.022
ATOM     14  C   UNL d   1      28.049  43.103  -3.010 -0.07 +0.01    +0.052    15.022
ATOM     15  C   UNL d   1      28.135  39.494   2.042 -0.20 -0.01    +0.066    15.022
ATOM     16  C   UNL d   1      28.471  39.292   3.373 -0.27 +0.01    -0.021    15.022
ATOM     17  C   UNL d   1      28.222  37.936   3.627 -0.29 -0.00    +0.000    15.022
ATOM     18  C   UNL d   1      27.735  37.419   2.431 -0.22 -0.01    +0.070    15.022
ATOM     19  C   UNL d   1      28.997  40.352   4.315 -0.37 -0.03    +0.052    15.022
ATOM     20  C   UNL d   1      26.967  35.490   0.999 -0.20 +0.01    +0.066    15.022
ATOM     21  C   UNL d   1      26.668  34.136   0.869 -0.28 -0.01    -0.025    15.022
ATOM     22  C   UNL d   1      26.334  33.954  -0.461 -0.23 -0.00    -0.021    15.022
ATOM     23  C   UNL d   1      26.459  35.214  -1.084 -0.17 +0.01    +0.066    15.022
ATOM     24  C   UNL d   1      26.718  33.063   1.953 -0.27 +0.04    +0.051    15.022
ATOM     25  N   UNL d   1      26.925  37.829  -2.421 -0.14 -0.01    -0.248    15.022
ATOM     26  N   UNL d   1      27.718  40.041  -0.934 -0.04 -0.02    -0.248    15.022
ATOM     27  N   UNL d   1      27.725  38.368   1.501 -0.13 +0.01    -0.248    15.022
ATOM     28  N   UNL d   1      26.844  36.146  -0.204 +0.04 -0.03    -0.248    15.022
ATOM     29 FE   UNL d   1      27.348  38.111  -0.343 -0.06 +0.00    +0.000    15.022
ATOM     30  C   UNL d   1      26.231  35.776  -5.513 -0.06 -0.00    +0.052    15.022
ATOM     31  C   UNL d   1      27.527  35.167  -6.046 -0.01 -0.00    +0.115    15.022
ATOM     32  C   UNL d   1      28.238  34.324  -5.009 -0.01 +0.00    +0.139    15.022
ATOM     33  O   UNL d   1      28.262  33.108  -5.136 +0.01 +0.01    -0.650    15.022
ATOM     34  O   UNL d   1      28.896  34.876  -3.963 +0.03 -0.04    -0.776    15.022
ATOM     35  H   UNL d   1      29.165  34.390  -3.172 +0.01 +0.02    +0.167    15.022
ATOM     36  C   UNL d   1      29.329  37.595  -0.791 -0.06 +0.02    +0.190    15.022
ATOM     37  O   UNL d   1      30.112  36.838  -1.669 -0.00 -0.04    -0.399    15.022
ATOM     38  H   UNL d   1      29.457  36.352  -2.243 +0.02 +0.02    +0.209    15.022
ATOM     39  C   UNL d   1      25.980  32.626  -1.105 -0.12 +0.00    +0.052    15.022
ATOM     40  C   UNL d   1      27.126  31.616  -0.932 -0.15 +0.04    +0.115    15.022
ATOM     41  C   UNL d   1      28.508  32.196  -1.145 -0.08 +0.10    +0.139    15.022
ATOM     42  O   UNL d   1      29.209  32.445  -0.174 -0.27 -1.12    -0.650    15.022
ATOM     43  O   UNL d   1      29.024  32.366  -2.382 +0.03 -0.22    -0.776    15.022
ATOM     44  H   UNL d   1      28.606  32.930  -3.046 +0.02 +0.02    +0.167    15.022
ATOM     45  C   UNL d   1      28.582  43.462   0.277 -0.14 +0.00    +0.004    15.022
ATOM     46  C   UNL d   1      27.800  44.223   1.038 -0.20 +0.01    +0.012    15.022
ATOM     47  C   UNL d   1      28.458  37.139   4.868 -0.31 -0.00    +0.004    15.022
ATOM     48  C   UNL d   1      27.582  36.257   5.356 -0.36 -0.01    +0.012    15.022
TER
ENDMDL
MODEL      100
USER    Run = 100
USER    Cluster Rank = 40
USER    Number of conformations in this cluster = 1
USER  
USER    RMSD from reference structure       = 10.181 A
USER  
USER    Estimated Free Energy of Binding    =   -3.59 kcal/mol  [=(1)+(2)+(3)-(4)]
USER    Estimated Inhibition Constant, Ki   =    2.33 mM (millimolar)  [Temperature = 298.15 K]
USER    
USER    (1) Final Intermolecular Energy     =   -7.17 kcal/mol
USER        vdW + Hbond + desolv Energy     =   -6.84 kcal/mol
USER        Electrostatic Energy            =   -0.33 kcal/mol
USER    (2) Final Total Internal Energy     =   -2.61 kcal/mol
USER    (3) Torsional Free Energy           =   +3.58 kcal/mol
USER    (4) Unbound System's Energy  [=(2)] =   -2.61 kcal/mol
USER    
USER    
USER  
USER    DPF = D:/Protein_go_brrr/autodock/final/6BB5/heme_Co/dock.dpf
USER    NEWDPF move	heme_Co_opt.pdbqt
USER    NEWDPF about	8.781000 34.984000 -0.736000
USER    NEWDPF tran0	-0.163253 31.330720 7.332757
USER    NEWDPF axisangle0	0.274869 -0.800291 0.532898 -85.243742
USER    NEWDPF quaternion0	0.186130 -0.541923 0.360856 -0.735839
USER    NEWDPF dihe0	-26.95 79.71 -30.65 69.43 -78.72 157.98 52.54 173.48 -133.62 34.51 -177.15 -179.96 
USER  
USER                              x       y       z    vdW   Elec        q     RMS 
ATOM      1  C   UNL d   1      -0.260  31.593   5.179 -0.11 -0.00    +0.064    10.181
ATOM      2  C   UNL d   1      -0.596  27.741   7.947 -0.18 -0.04    +0.064    10.181
ATOM      3  C   UNL d   1       0.394  30.380  11.805 -0.17 -0.00    +0.064    10.181
ATOM      4  C   UNL d   1       0.362  34.391   9.053 -0.28 +0.00    +0.064    10.181
ATOM      5  C   UNL d   1      -0.388  30.341   5.647 -0.10 -0.01    +0.066    10.181
ATOM      6  C   UNL d   1      -0.757  29.266   4.814 -0.07 +0.01    -0.021    10.181
ATOM      7  C   UNL d   1      -0.875  28.155   5.627 -0.10 +0.01    -0.025    10.181
ATOM      8  C   UNL d   1      -0.558  28.596   6.916 -0.15 -0.03    +0.066    10.181
ATOM      9  C   UNL d   1      -1.271  26.728   5.219 -0.06 -0.04    +0.051    10.181
ATOM     10  C   UNL d   1      -0.261  28.097   9.303 -0.22 -0.02    +0.066    10.181
ATOM     11  C   UNL d   1      -0.145  27.218  10.402 -0.25 +0.01    -0.021    10.181
ATOM     12  C   UNL d   1       0.148  28.013  11.513 -0.23 -0.00    +0.000    10.181
ATOM     13  C   UNL d   1       0.202  29.313  11.009 -0.20 -0.01    +0.070    10.181
ATOM     14  C   UNL d   1      -0.218  25.713  10.352 -0.31 -0.03    +0.052    10.181
ATOM     15  C   UNL d   1       0.426  31.788  11.463 -0.20 +0.00    +0.066    10.181
ATOM     16  C   UNL d   1       0.484  32.851  12.354 -0.22 -0.00    -0.021    10.181
ATOM     17  C   UNL d   1       0.472  34.010  11.565 -0.27 +0.00    +0.000    10.181
ATOM     18  C   UNL d   1       0.425  33.561  10.249 -0.20 +0.00    +0.070    10.181
ATOM     19  C   UNL d   1       0.544  32.729  13.860 -0.12 +0.00    +0.052    10.181
ATOM     20  C   UNL d   1       0.228  33.979   7.770 -0.27 +0.01    +0.066    10.181
ATOM     21  C   UNL d   1       0.143  34.875   6.706 -0.30 -0.00    -0.025    10.181
ATOM     22  C   UNL d   1      -0.008  34.096   5.574 -0.25 -0.00    -0.021    10.181
ATOM     23  C   UNL d   1      -0.019  32.753   6.007 -0.20 +0.00    +0.066    10.181
ATOM     24  C   UNL d   1       0.182  36.400   6.767 -0.32 +0.02    +0.051    10.181
ATOM     25  N   UNL d   1      -0.247  29.944   6.958 -0.10 +0.06    -0.248    10.181
ATOM     26  N   UNL d   1       0.010  29.356   9.664 -0.15 +0.05    -0.248    10.181
ATOM     27  N   UNL d   1       0.368  32.234  10.228 -0.11 -0.01    -0.248    10.181
ATOM     28  N   UNL d   1       0.122  32.678   7.336 -0.12 -0.01    -0.248    10.181
ATOM     29 FE   UNL d   1       0.079  31.160   8.687 -0.05 -0.00    +0.000    10.181
ATOM     30  C   UNL d   1      -1.058  29.334   3.321 -0.03 -0.01    +0.052    10.181
ATOM     31  C   UNL d   1      -2.555  29.537   3.084 -0.00 -0.01    +0.115    10.181
ATOM     32  C   UNL d   1      -3.147  30.587   3.999 -0.00 -0.01    +0.139    10.181
ATOM     33  O   UNL d   1      -3.378  30.307   5.166 +0.01 +0.04    -0.650    10.181
ATOM     34  O   UNL d   1      -3.387  31.851   3.580 +0.01 -0.02    -0.776    10.181
ATOM     35  H   UNL d   1      -2.863  32.310   2.908 +0.01 +0.01    +0.167    10.181
ATOM     36  C   UNL d   1      -2.006  31.316   8.832 -0.02 -0.01    +0.190    10.181
ATOM     37  O   UNL d   1      -3.200  30.877   8.250 +0.00 +0.02    -0.399    10.181
ATOM     38  H   UNL d   1      -2.991  30.780   7.279 +0.01 -0.01    +0.209    10.181
ATOM     39  C   UNL d   1      -0.197  34.622   4.163 -0.13 +0.02    +0.052    10.181
ATOM     40  C   UNL d   1      -1.648  35.081   3.944 -0.12 +0.03    +0.115    10.181
ATOM     41  C   UNL d   1      -2.131  34.966   2.514 -0.08 +0.04    +0.139    10.181
ATOM     42  O   UNL d   1      -1.434  35.405   1.610 -0.03 -0.27    -0.650    10.181
ATOM     43  O   UNL d   1      -3.272  34.313   2.200 +0.02 -0.12    -0.776    10.181
ATOM     44  H   UNL d   1      -3.646  33.622   2.762 +0.01 +0.02    +0.167    10.181
ATOM     45  C   UNL d   1       0.401  27.694  12.980 -0.22 -0.00    +0.004    10.181
ATOM     46  C   UNL d   1       1.343  26.950  13.555 -0.28 -0.00    +0.012    10.181
ATOM     47  C   UNL d   1       0.454  35.445  11.979 -0.35 -0.00    +0.004    10.181
ATOM     48  C   UNL d   1      -0.651  36.194  11.991 -0.31 +0.00    +0.012    10.181
TER
ENDMDL
MODEL       37
USER    Run = 37
USER    Cluster Rank = 41
USER    Number of conformations in this cluster = 1
USER  
USER    RMSD from reference structure       = 13.315 A
USER  
USER    Estimated Free Energy of Binding    =   -3.56 kcal/mol  [=(1)+(2)+(3)-(4)]
USER    Estimated Inhibition Constant, Ki   =    2.47 mM (millimolar)  [Temperature = 298.15 K]
USER    
USER    (1) Final Intermolecular Energy     =   -7.14 kcal/mol
USER        vdW + Hbond + desolv Energy     =   -6.63 kcal/mol
USER        Electrostatic Energy            =   -0.51 kcal/mol
USER    (2) Final Total Internal Energy     =   -2.16 kcal/mol
USER    (3) Torsional Free Energy           =   +3.58 kcal/mol
USER    (4) Unbound System's Energy  [=(2)] =   -2.16 kcal/mol
USER    
USER    
USER  
USER    DPF = D:/Protein_go_brrr/autodock/final/6BB5/heme_Co/dock.dpf
USER    NEWDPF move	heme_Co_opt.pdbqt
USER    NEWDPF about	8.781000 34.984000 -0.736000
USER    NEWDPF tran0	24.978466 38.518480 -4.858749
USER    NEWDPF axisangle0	0.398084 -0.578048 0.712313 143.032530
USER    NEWDPF quaternion0	0.377548 -0.548229 0.675567 0.317035
USER    NEWDPF dihe0	-175.38 107.62 -69.43 98.73 153.22 134.11 38.53 -87.22 161.94 -65.58 -161.41 -154.57 
USER  
USER                              x       y       z    vdW   Elec        q     RMS 
ATOM      1  C   UNL d   1      25.251  40.476  -5.759 -0.15 +0.01    +0.064    13.315
ATOM      2  C   UNL d   1      27.769  38.069  -2.522 -0.17 +0.00    +0.064    13.315
ATOM      3  C   UNL d   1      24.474  34.610  -2.475 -0.28 -0.01    +0.064    13.315
ATOM      4  C   UNL d   1      22.079  36.861  -6.061 -0.19 +0.01    +0.064    13.315
ATOM      5  C   UNL d   1      26.163  40.090  -4.851 -0.17 +0.01    +0.066    13.315
ATOM      6  C   UNL d   1      27.345  40.821  -4.622 -0.09 -0.00    -0.021    13.315
ATOM      7  C   UNL d   1      28.082  40.107  -3.698 -0.09 -0.00    -0.025    13.315
ATOM      8  C   UNL d   1      27.312  38.979  -3.392 -0.16 +0.00    +0.066    13.315
ATOM      9  C   UNL d   1      29.460  40.458  -3.117 -0.04 +0.00    +0.051    13.315
ATOM     10  C   UNL d   1      27.037  36.892  -2.126 -0.16 +0.00    +0.066    13.315
ATOM     11  C   UNL d   1      27.398  35.974  -1.116 -0.16 -0.00    -0.021    13.315
ATOM     12  C   UNL d   1      26.418  34.978  -1.121 -0.20 +0.00    +0.000    13.315
ATOM     13  C   UNL d   1      25.527  35.367  -2.122 -0.14 -0.00    +0.070    13.315
ATOM     14  C   UNL d   1      28.554  36.110  -0.158 -0.12 +0.01    +0.052    13.315
ATOM     15  C   UNL d   1      23.489  34.832  -3.515 -0.28 -0.01    +0.066    13.315
ATOM     16  C   UNL d   1      22.509  33.939  -3.926 -0.38 +0.01    -0.021    13.315
ATOM     17  C   UNL d   1      21.817  34.583  -4.962 -0.32 -0.00    +0.000    13.315
ATOM     18  C   UNL d   1      22.421  35.829  -5.090 -0.20 -0.00    +0.070    13.315
ATOM     19  C   UNL d   1      22.278  32.563  -3.343 -0.30 -0.04    +0.052    13.315
ATOM     20  C   UNL d   1      22.706  38.044  -6.263 -0.18 +0.01    +0.066    13.315
ATOM     21  C   UNL d   1      22.307  38.939  -7.253 -0.20 -0.01    -0.025    13.315
ATOM     22  C   UNL d   1      23.185  40.004  -7.170 -0.16 -0.00    -0.021    13.315
ATOM     23  C   UNL d   1      24.092  39.698  -6.133 -0.12 +0.01    +0.066    13.315
ATOM     24  C   UNL d   1      21.156  38.779  -8.244 -0.20 +0.02    +0.051    13.315
ATOM     25  N   UNL d   1      26.116  38.946  -4.088 -0.18 -0.02    -0.248    13.315
ATOM     26  N   UNL d   1      25.873  36.554  -2.690 -0.16 -0.00    -0.248    13.315
ATOM     27  N   UNL d   1      23.431  35.931  -4.234 -0.12 +0.03    -0.248    13.315
ATOM     28  N   UNL d   1      23.807  38.512  -5.583 -0.14 -0.03    -0.248    13.315
ATOM     29 FE   UNL d   1      24.692  37.351  -4.167 -0.06 -0.00    +0.000    13.315
ATOM     30  C   UNL d   1      27.771  42.105  -5.326 -0.04 +0.00    +0.052    13.315
ATOM     31  C   UNL d   1      28.308  41.798  -6.723 -0.01 +0.01    +0.115    13.315
ATOM     32  C   UNL d   1      28.731  40.353  -6.875 -0.01 +0.01    +0.139    13.315
ATOM     33  O   UNL d   1      29.886  40.037  -6.632 +0.00 -0.03    -0.650    13.315
ATOM     34  O   UNL d   1      27.857  39.382  -7.227 +0.02 -0.03    -0.776    13.315
ATOM     35  H   UNL d   1      28.091  38.449  -7.326 +0.01 +0.01    +0.167    13.315
ATOM     36  C   UNL d   1      25.922  36.475  -5.621 -0.06 -0.00    +0.190    13.315
ATOM     37  O   UNL d   1      26.929  36.763  -6.549 -0.00 -0.00    -0.399    13.315
ATOM     38  H   UNL d   1      27.027  37.755  -6.522 +0.02 +0.01    +0.209    13.315
ATOM     39  C   UNL d   1      23.188  41.215  -8.084 -0.11 +0.01    +0.052    13.315
ATOM     40  C   UNL d   1      23.235  40.782  -9.559 -0.05 +0.02    +0.115    13.315
ATOM     41  C   UNL d   1      21.946  41.009 -10.319 -0.09 +0.05    +0.139    13.315
ATOM     42  O   UNL d   1      21.413  42.109 -10.278 -0.01 -0.21    -0.650    13.315
ATOM     43  O   UNL d   1      21.412  40.055 -11.113 -0.02 -0.40    -0.776    13.315
ATOM     44  H   UNL d   1      21.864  39.720 -11.899 +0.01 +0.06    +0.167    13.315
ATOM     45  C   UNL d   1      26.211  33.720  -0.288 -0.29 +0.00    +0.004    13.315
ATOM     46  C   UNL d   1      25.548  33.535   0.850 -0.40 +0.00    +0.012    13.315
ATOM     47  C   UNL d   1      20.705  34.080  -5.822 +0.01 +0.00    +0.004    13.315
ATOM     48  C   UNL d   1      19.585  34.769  -6.057 -0.47 +0.00    +0.012    13.315
TER
ENDMDL
MODEL       43
USER    Run = 43
USER    Cluster Rank = 42
USER    Number of conformations in this cluster = 1
USER  
USER    RMSD from reference structure       = 22.767 A
USER  
USER    Estimated Free Energy of Binding    =   -3.42 kcal/mol  [=(1)+(2)+(3)-(4)]
USER    Estimated Inhibition Constant, Ki   =    3.11 mM (millimolar)  [Temperature = 298.15 K]
USER    
USER    (1) Final Intermolecular Energy     =   -7.00 kcal/mol
USER        vdW + Hbond + desolv Energy     =   -6.14 kcal/mol
USER        Electrostatic Energy            =   -0.86 kcal/mol
USER    (2) Final Total Internal Energy     =   -3.04 kcal/mol
USER    (3) Torsional Free Energy           =   +3.58 kcal/mol
USER    (4) Unbound System's Energy  [=(2)] =   -3.04 kcal/mol
USER    
USER    
USER  
USER    DPF = D:/Protein_go_brrr/autodock/final/6BB5/heme_Co/dock.dpf
USER    NEWDPF move	heme_Co_opt.pdbqt
USER    NEWDPF about	8.781000 34.984000 -0.736000
USER    NEWDPF tran0	5.134756 19.863383 19.914339
USER    NEWDPF axisangle0	0.244772 0.196989 -0.949359 133.630647
USER    NEWDPF quaternion0	0.225004 0.181080 -0.872689 0.393696
USER    NEWDPF dihe0	33.40 117.76 -118.67 116.66 98.37 119.94 18.16 -176.85 -156.45 94.47 178.35 -179.11 
USER  
USER                              x       y       z    vdW   Elec        q     RMS 
ATOM      1  C   UNL d   1       6.427  18.183  19.444 -0.09 +0.02    +0.064    22.767
ATOM      2  C   UNL d   1       5.297  20.292  23.553 -0.18 +0.00    +0.064    22.767
ATOM      3  C   UNL d   1       2.804  23.622  21.201 -0.11 +0.00    +0.064    22.767
ATOM      4  C   UNL d   1       3.623  21.266  17.025 -0.20 -0.00    +0.064    22.767
ATOM      5  C   UNL d   1       6.331  18.535  20.737 -0.23 +0.01    +0.066    22.767
ATOM      6  C   UNL d   1       6.883  17.751  21.768 -0.28 -0.00    -0.021    22.767
ATOM      7  C   UNL d   1       6.533  18.355  22.959 -0.23 -0.00    -0.025    22.767
ATOM      8  C   UNL d   1       5.797  19.491  22.604 -0.21 +0.01    +0.066    22.767
ATOM      9  C   UNL d   1       6.870  17.893  24.385 -0.19 +0.00    +0.051    22.767
ATOM     10  C   UNL d   1       4.551  21.496  23.282 +0.02 +0.01    +0.066    22.767
ATOM     11  C   UNL d   1       4.121  22.452  24.228 -0.12 -0.00    -0.021    22.767
ATOM     12  C   UNL d   1       3.400  23.414  23.514 -0.14 -0.00    +0.000    22.767
ATOM     13  C   UNL d   1       3.454  22.981  22.189 -0.10 +0.00    +0.070    22.767
ATOM     14  C   UNL d   1       4.469  22.477  25.694 -0.09 -0.00    +0.052    22.767
ATOM     15  C   UNL d   1       2.709  23.286  19.794 -0.10 +0.00    +0.066    22.767
ATOM     16  C   UNL d   1       1.902  23.908  18.852 -0.07 +0.00    -0.021    22.767
ATOM     17  C   UNL d   1       2.133  23.231  17.647 -0.10 -0.00    +0.000    22.767
ATOM     18  C   UNL d   1       3.079  22.256  17.946 -0.12 +0.00    +0.070    22.767
ATOM     19  C   UNL d   1       0.978  25.075  19.123 -0.04 -0.00    +0.052    22.767
ATOM     20  C   UNL d   1       4.478  20.255  17.312 -0.18 -0.00    +0.066    22.767
ATOM     21  C   UNL d   1       4.902  19.344  16.347 -0.26 +0.00    -0.025    22.767
ATOM     22  C   UNL d   1       5.734  18.460  17.010 -0.23 -0.00    -0.021    22.767
ATOM     23  C   UNL d   1       5.767  18.872  18.359 -0.20 +0.01    +0.066    22.767
ATOM     24  C   UNL d   1       4.517  19.304  14.871 -0.32 -0.01    +0.051    22.767
ATOM     25  N   UNL d   1       5.662  19.630  21.233 -0.16 -0.04    -0.248    22.767
ATOM     26  N   UNL d   1       4.197  21.852  22.043 -0.04 -0.05    -0.248    22.767
ATOM     27  N   UNL d   1       3.376  22.299  19.240 -0.07 -0.02    -0.248    22.767
ATOM     28  N   UNL d   1       5.006  19.957  18.546 -0.09 -0.02    -0.248    22.767
ATOM     29 FE   UNL d   1       4.452  21.042  20.174 -0.04 +0.00    +0.000    22.767
ATOM     30  C   UNL d   1       7.640  16.437  21.606 -0.32 +0.02    +0.052    22.767
ATOM     31  C   UNL d   1       6.708  15.248  21.837 -0.17 +0.03    +0.115    22.767
ATOM     32  C   UNL d   1       5.251  15.610  21.643 -0.05 +0.03    +0.139    22.767
ATOM     33  O   UNL d   1       4.503  15.628  22.609 +0.03 -0.07    -0.650    22.767
ATOM     34  O   UNL d   1       4.755  15.964  20.435 +0.05 -0.15    -0.776    22.767
ATOM     35  H   UNL d   1       5.104  15.649  19.590 +0.03 +0.05    +0.167    22.767
ATOM     36  C   UNL d   1       2.839  19.748  20.517 -0.03 +0.01    +0.190    22.767
ATOM     37  O   UNL d   1       2.499  18.396  20.623 +0.00 -0.02    -0.399    22.767
ATOM     38  H   UNL d   1       3.366  17.907  20.553 +0.02 +0.02    +0.209    22.767
ATOM     39  C   UNL d   1       6.405  17.250  16.388 -0.25 +0.01    +0.052    22.767
ATOM     40  C   UNL d   1       5.403  16.093  16.233 -0.16 +0.01    +0.115    22.767
ATOM     41  C   UNL d   1       5.351  15.149  17.416 -0.11 +0.05    +0.139    22.767
ATOM     42  O   UNL d   1       6.389  14.853  17.991 -0.42 -0.68    -0.650    22.767
ATOM     43  O   UNL d   1       4.179  14.693  17.909 +0.03 -0.12    -0.776    22.767
ATOM     44  H   UNL d   1       3.849  14.945  18.781 +0.01 +0.02    +0.167    22.767
ATOM     45  C   UNL d   1       2.686  24.694  23.927 -0.10 -0.00    +0.004    22.767
ATOM     46  C   UNL d   1       3.004  25.969  23.717 -0.18 -0.00    +0.012    22.767
ATOM     47  C   UNL d   1       1.496  23.420  16.309 -0.15 -0.00    +0.004    22.767
ATOM     48  C   UNL d   1       1.803  24.422  15.482 -0.19 -0.00    +0.012    22.767
TER
ENDMDL
MODEL       85
USER    Run = 85
USER    Cluster Rank = 43
USER    Number of conformations in this cluster = 1
USER  
USER    RMSD from reference structure       = 25.343 A
USER  
USER    Estimated Free Energy of Binding    =   -3.38 kcal/mol  [=(1)+(2)+(3)-(4)]
USER    Estimated Inhibition Constant, Ki   =    3.33 mM (millimolar)  [Temperature = 298.15 K]
USER    
USER    (1) Final Intermolecular Energy     =   -6.96 kcal/mol
USER        vdW + Hbond + desolv Energy     =   -6.01 kcal/mol
USER        Electrostatic Energy            =   -0.95 kcal/mol
USER    (2) Final Total Internal Energy     =   -2.32 kcal/mol
USER    (3) Torsional Free Energy           =   +3.58 kcal/mol
USER    (4) Unbound System's Energy  [=(2)] =   -2.32 kcal/mol
USER    
USER    
USER  
USER    DPF = D:/Protein_go_brrr/autodock/final/6BB5/heme_Co/dock.dpf
USER    NEWDPF move	heme_Co_opt.pdbqt
USER    NEWDPF about	8.781000 34.984000 -0.736000
USER    NEWDPF tran0	36.052374 45.818713 1.927064
USER    NEWDPF axisangle0	0.923265 0.326086 0.203102 141.416742
USER    NEWDPF quaternion0	0.871423 0.307776 0.191698 0.330376
USER    NEWDPF dihe0	-164.67 109.76 -56.80 105.26 158.23 133.12 46.32 -78.82 160.05 -101.00 -157.85 -12.78 
USER  
USER                              x       y       z    vdW   Elec        q     RMS 
ATOM      1  C   UNL d   1      34.846  44.141   1.261 -0.06 +0.03    +0.064    25.343
ATOM      2  C   UNL d   1      34.498  48.823   0.510 -0.10 +0.05    +0.064    25.343
ATOM      3  C   UNL d   1      38.150  49.610   3.490 -0.17 +0.05    +0.064    25.343
ATOM      4  C   UNL d   1      38.773  44.810   3.973 -0.16 +0.02    +0.064    25.343
ATOM      5  C   UNL d   1      34.459  45.365   0.865 -0.06 +0.04    +0.066    25.343
ATOM      6  C   UNL d   1      33.439  45.555  -0.088 -0.02 -0.01    -0.021    25.343
ATOM      7  C   UNL d   1      33.358  46.914  -0.319 -0.03 -0.01    -0.025    25.343
ATOM      8  C   UNL d   1      34.320  47.496   0.514 -0.07 +0.05    +0.066    25.343
ATOM      9  C   UNL d   1      32.417  47.651  -1.284 -0.00 +0.01    +0.051    25.343
ATOM     10  C   UNL d   1      35.445  49.513   1.351 -0.12 +0.06    +0.066    25.343
ATOM     11  C   UNL d   1      35.582  50.911   1.496 -0.15 -0.01    -0.021    25.343
ATOM     12  C   UNL d   1      36.651  51.112   2.373 -0.16 +0.00    +0.000    25.343
ATOM     13  C   UNL d   1      37.077  49.826   2.707 -0.11 +0.07    +0.070    25.343
ATOM     14  C   UNL d   1      34.680  51.962   0.902 -0.11 +0.02    +0.052    25.343
ATOM     15  C   UNL d   1      38.757  48.356   3.892 -0.16 +0.05    +0.066    25.343
ATOM     16  C   UNL d   1      39.950  48.204   4.583 -0.22 -0.00    -0.021    25.343
ATOM     17  C   UNL d   1      40.136  46.822   4.722 -0.24 +0.00    +0.000    25.343
ATOM     18  C   UNL d   1      39.028  46.237   4.118 -0.15 +0.03    +0.070    25.343
ATOM     19  C   UNL d   1      40.835  49.333   5.064 -0.24 -0.01    +0.052    25.343
ATOM     20  C   UNL d   1      37.748  44.218   3.314 -0.15 +0.03    +0.066    25.343
ATOM     21  C   UNL d   1      37.629  42.834   3.212 -0.17 -0.00    -0.025    25.343
ATOM     22  C   UNL d   1      36.490  42.611   2.460 -0.14 -0.00    -0.021    25.343
ATOM     23  C   UNL d   1      35.973  43.881   2.128 -0.11 +0.03    +0.066    25.343
ATOM     24  C   UNL d   1      38.566  41.774   3.786 -0.30 +0.01    +0.051    25.343
ATOM     25  N   UNL d   1      35.013  46.560   1.263 -0.01 -0.32    -0.248    25.343
ATOM     26  N   UNL d   1      36.312  48.861   2.133 +0.10 -0.39    -0.248    25.343
ATOM     27  N   UNL d   1      38.243  47.180   3.608 -0.10 -0.26    -0.248    25.343
ATOM     28  N   UNL d   1      36.732  44.856   2.640 -0.09 -0.21    -0.248    25.343
ATOM     29 FE   UNL d   1      36.724  46.885   2.506 -0.04 +0.00    +0.000    25.343
ATOM     30  C   UNL d   1      32.643  44.465  -0.797 -0.01 +0.01    +0.052    25.343
ATOM     31  C   UNL d   1      33.504  43.769  -1.850 +0.01 +0.02    +0.115    25.343
ATOM     32  C   UNL d   1      34.673  44.621  -2.295 +0.01 +0.02    +0.139    25.343
ATOM     33  O   UNL d   1      34.504  45.469  -3.158 +0.00 -0.08    -0.650    25.343
ATOM     34  O   UNL d   1      35.898  44.509  -1.731 +0.01 -0.13    -0.776    25.343
ATOM     35  H   UNL d   1      36.623  45.133  -1.876 +0.00 +0.03    +0.167    25.343
ATOM     36  C   UNL d   1      37.873  46.796   0.754 -0.02 +0.09    +0.190    25.343
ATOM     37  O   UNL d   1      37.863  46.323  -0.562 +0.01 -0.11    -0.399    25.343
ATOM     38  H   UNL d   1      37.003  45.825  -0.649 +0.01 +0.06    +0.209    25.343
ATOM     39  C   UNL d   1      35.970  41.251   2.033 -0.21 +0.00    +0.052    25.343
ATOM     40  C   UNL d   1      35.027  40.671   3.100 -0.27 +0.01    +0.115    25.343
ATOM     41  C   UNL d   1      33.668  41.337   3.161 -0.28 +0.02    +0.139    25.343
ATOM     42  O   UNL d   1      32.954  41.331   2.168 +0.05 -0.09    -0.650    25.343
ATOM     43  O   UNL d   1      33.185  41.861   4.309 -0.08 -0.13    -0.776    25.343
ATOM     44  H   UNL d   1      33.168  41.367   5.139 -0.49 -0.01    +0.167    25.343
ATOM     45  C   UNL d   1      37.303  52.364   2.946 -0.17 +0.00    +0.004    25.343
ATOM     46  C   UNL d   1      37.117  52.982   4.109 -0.29 +0.01    +0.012    25.343
ATOM     47  C   UNL d   1      41.276  46.068   5.324 -0.42 -0.00    +0.004    25.343
ATOM     48  C   UNL d   1      41.120  45.018   6.134 -0.50 -0.00    +0.012    25.343
TER
ENDMDL
MODEL       96
USER    Run = 96
USER    Cluster Rank = 44
USER    Number of conformations in this cluster = 1
USER  
USER    RMSD from reference structure       = 13.134 A
USER  
USER    Estimated Free Energy of Binding    =   -3.01 kcal/mol  [=(1)+(2)+(3)-(4)]
USER    Estimated Inhibition Constant, Ki   =    6.19 mM (millimolar)  [Temperature = 298.15 K]
USER    
USER    (1) Final Intermolecular Energy     =   -6.59 kcal/mol
USER        vdW + Hbond + desolv Energy     =   -6.69 kcal/mol
USER        Electrostatic Energy            =   +0.10 kcal/mol
USER    (2) Final Total Internal Energy     =   -3.30 kcal/mol
USER    (3) Torsional Free Energy           =   +3.58 kcal/mol
USER    (4) Unbound System's Energy  [=(2)] =   -3.30 kcal/mol
USER    
USER    
USER  
USER    DPF = D:/Protein_go_brrr/autodock/final/6BB5/heme_Co/dock.dpf
USER    NEWDPF move	heme_Co_opt.pdbqt
USER    NEWDPF about	8.781000 34.984000 -0.736000
USER    NEWDPF tran0	17.904780 45.334980 -7.593949
USER    NEWDPF axisangle0	-0.885677 0.385608 -0.258616 -69.282667
USER    NEWDPF quaternion0	-0.503452 0.219194 -0.147007 -0.822727
USER    NEWDPF dihe0	60.40 124.57 132.61 120.14 139.31 115.47 26.13 -34.00 -171.01 123.39 -177.18 -180.00 
USER  
USER                              x       y       z    vdW   Elec        q     RMS 
ATOM      1  C   UNL d   1      15.818  45.805  -7.965 -0.22 -0.01    +0.064    13.134
ATOM      2  C   UNL d   1      18.745  46.880  -4.375 -0.27 -0.01    +0.064    13.134
ATOM      3  C   UNL d   1      22.176  44.180  -6.316 -0.15 +0.01    +0.064    13.134
ATOM      4  C   UNL d   1      19.340  43.379 -10.186 -0.05 +0.02    +0.064    13.134
ATOM      5  C   UNL d   1      16.353  46.268  -6.824 -0.30 -0.01    +0.066    13.134
ATOM      6  C   UNL d   1      15.667  47.172  -5.989 -0.32 +0.00    -0.021    13.134
ATOM      7  C   UNL d   1      16.530  47.498  -4.961 -0.29 +0.00    -0.025    13.134
ATOM      8  C   UNL d   1      17.698  46.767  -5.203 -0.27 -0.01    +0.066    13.134
ATOM      9  C   UNL d   1      16.279  48.459  -3.789 -0.33 -0.01    +0.051    13.134
ATOM     10  C   UNL d   1      19.977  46.148  -4.529 -0.28 -0.01    +0.066    13.134
ATOM     11  C   UNL d   1      21.058  46.115  -3.621 -0.29 +0.00    -0.021    13.134
ATOM     12  C   UNL d   1      22.043  45.317  -4.210 -0.27 -0.00    +0.000    13.134
ATOM     13  C   UNL d   1      21.487  44.914  -5.424 -0.21 +0.00    +0.070    13.134
ATOM     14  C   UNL d   1      21.087  46.732  -2.246 -0.20 -0.01    +0.052    13.134
ATOM     15  C   UNL d   1      21.779  43.722  -7.633 -0.11 +0.01    +0.066    13.134
ATOM     16  C   UNL d   1      22.591  43.091  -8.564 -0.07 -0.00    -0.021    13.134
ATOM     17  C   UNL d   1      21.778  42.860  -9.683 -0.09 +0.00    +0.000    13.134
ATOM     18  C   UNL d   1      20.525  43.355  -9.338 -0.10 +0.02    +0.070    13.134
ATOM     19  C   UNL d   1      24.050  42.746  -8.365 -0.04 +0.01    +0.052    13.134
ATOM     20  C   UNL d   1      18.136  43.933  -9.904 -0.11 +0.01    +0.066    13.134
ATOM     21  C   UNL d   1      17.083  43.924 -10.816 -0.17 -0.00    -0.025    13.134
ATOM     22  C   UNL d   1      16.044  44.591 -10.192 -0.22 +0.00    -0.021    13.134
ATOM     23  C   UNL d   1      16.523  44.987  -8.925 -0.25 -0.01    +0.066    13.134
ATOM     24  C   UNL d   1      17.071  43.328 -12.221 -0.12 +0.01    +0.051    13.134
ATOM     25  N   UNL d   1      17.614  45.992  -6.347 -0.19 +0.02    -0.248    13.134
ATOM     26  N   UNL d   1      20.217  45.370  -5.590 -0.15 +0.00    -0.248    13.134
ATOM     27  N   UNL d   1      20.571  43.888  -8.122 -0.10 -0.04    -0.248    13.134
ATOM     28  N   UNL d   1      17.790  44.592  -8.748 -0.15 -0.02    -0.248    13.134
ATOM     29 FE   UNL d   1      19.178  44.876  -7.290 -0.05 +0.00    +0.000    13.134
ATOM     30  C   UNL d   1      14.276  47.752  -6.225 -0.18 -0.01    +0.052    13.134
ATOM     31  C   UNL d   1      14.369  49.089  -6.960 -0.16 -0.01    +0.115    13.134
ATOM     32  C   UNL d   1      15.780  49.403  -7.410 -0.06 -0.01    +0.139    13.134
ATOM     33  O   UNL d   1      16.441  50.222  -6.789 +0.04 +0.06    -0.650    13.134
ATOM     34  O   UNL d   1      16.357  48.768  -8.457 +0.05 +0.06    -0.776    13.134
ATOM     35  H   UNL d   1      15.984  48.740  -9.349 +0.02 -0.01    +0.167    13.134
ATOM     36  C   UNL d   1      19.775  46.679  -8.177 -0.03 +0.00    +0.190    13.134
ATOM     37  O   UNL d   1      19.283  47.850  -8.762 +0.00 +0.00    -0.399    13.134
ATOM     38  H   UNL d   1      18.306  47.848  -8.558 +0.03 -0.01    +0.209    13.134
ATOM     39  C   UNL d   1      14.690  44.886 -10.811 -0.09 -0.03    +0.052    13.134
ATOM     40  C   UNL d   1      14.781  46.086 -11.768 -0.09 -0.03    +0.115    13.134
ATOM     41  C   UNL d   1      15.188  47.385 -11.104 -0.06 -0.02    +0.139    13.134
ATOM     42  O   UNL d   1      16.328  47.801 -11.253 +0.02 +0.04    -0.650    13.134
ATOM     43  O   UNL d   1      14.300  48.144 -10.424 +0.02 +0.09    -0.776    13.134
ATOM     44  H   UNL d   1      14.520  48.576  -9.588 +0.03 -0.02    +0.167    13.134
ATOM     45  C   UNL d   1      23.429  44.877  -3.759 -0.31 +0.00    +0.004    13.134
ATOM     46  C   UNL d   1      23.887  43.677  -3.414 -0.38 +0.00    +0.012    13.134
ATOM     47  C   UNL d   1      22.127  42.270 -11.010 -0.07 +0.00    +0.004    13.134
ATOM     48  C   UNL d   1      21.589  41.141 -11.479 -0.10 +0.00    +0.012    13.134
TER
ENDMDL
MODEL       47
USER    Run = 47
USER    Cluster Rank = 45
USER    Number of conformations in this cluster = 1
USER  
USER    RMSD from reference structure       = 28.006 A
USER  
USER    Estimated Free Energy of Binding    =   -2.82 kcal/mol  [=(1)+(2)+(3)-(4)]
USER    Estimated Inhibition Constant, Ki   =    8.57 mM (millimolar)  [Temperature = 298.15 K]
USER    
USER    (1) Final Intermolecular Energy     =   -6.40 kcal/mol
USER        vdW + Hbond + desolv Energy     =   -3.59 kcal/mol
USER        Electrostatic Energy            =   -2.81 kcal/mol
USER    (2) Final Total Internal Energy     =   -3.89 kcal/mol
USER    (3) Torsional Free Energy           =   +3.58 kcal/mol
USER    (4) Unbound System's Energy  [=(2)] =   -3.89 kcal/mol
USER    
USER    
USER  
USER    DPF = D:/Protein_go_brrr/autodock/final/6BB5/heme_Co/dock.dpf
USER    NEWDPF move	heme_Co_opt.pdbqt
USER    NEWDPF about	8.781000 34.984000 -0.736000
USER    NEWDPF tran0	40.201019 45.613195 1.568161
USER    NEWDPF axisangle0	-0.629865 0.635576 0.446446 -151.396124
USER    NEWDPF quaternion0	-0.610344 0.615877 0.432609 -0.247032
USER    NEWDPF dihe0	116.08 96.72 -37.59 -96.00 142.36 120.42 -122.64 -37.70 -122.17 -155.80 175.10 155.51 
USER  
USER                              x       y       z    vdW   Elec        q     RMS 
ATOM      1  C   UNL d   1      40.167  45.886   3.722 -0.10 +0.01    +0.064    28.006
ATOM      2  C   UNL d   1      41.732  48.642   0.178 +0.00 +0.00    +0.064    28.006
ATOM      3  C   UNL d   1      40.791  45.181  -2.979 +0.00 +0.00    +0.064    28.006
ATOM      4  C   UNL d   1      38.830  42.494   0.570 -0.03 +0.01    +0.064    28.006
ATOM      5  C   UNL d   1      40.697  46.879   2.990 -0.05 +0.01    +0.066    28.006
ATOM      6  C   UNL d   1      41.045  48.121   3.557 -0.11 -0.00    -0.021    28.006
ATOM      7  C   UNL d   1      41.477  48.925   2.520 -0.03 -0.00    -0.025    28.006
ATOM      8  C   UNL d   1      41.390  48.135   1.369 -0.00 +0.01    +0.066    28.006
ATOM      9  C   UNL d   1      41.956  50.383   2.595 -0.03 +0.00    +0.051    28.006
ATOM     10  C   UNL d   1      41.700  47.897  -1.056 +0.00 +0.00    +0.066    28.006
ATOM     11  C   UNL d   1      42.177  48.327  -2.313 +0.00 -0.00    -0.021    28.006
ATOM     12  C   UNL d   1      41.894  47.297  -3.215 +0.00 +0.00    +0.000    28.006
ATOM     13  C   UNL d   1      41.278  46.313  -2.441 +0.00 +0.00    +0.070    28.006
ATOM     14  C   UNL d   1      42.936  49.599  -2.592 +0.00 +0.00    +0.052    28.006
ATOM     15  C   UNL d   1      40.084  44.089  -2.340 -0.00 +0.00    +0.066    28.006
ATOM     16  C   UNL d   1      39.478  43.016  -2.978 -0.00 -0.00    -0.021    28.006
ATOM     17  C   UNL d   1      38.909  42.239  -1.959 -0.01 +0.00    +0.000    28.006
ATOM     18  C   UNL d   1      39.228  42.894  -0.774 -0.00 +0.01    +0.070    28.006
ATOM     19  C   UNL d   1      39.463  42.778  -4.472 +0.00 +0.00    +0.052    28.006
ATOM     20  C   UNL d   1      39.054  43.160   1.728 -0.04 +0.01    +0.066    28.006
ATOM     21  C   UNL d   1      38.590  42.693   2.956 -0.16 -0.00    -0.025    28.006
ATOM     22  C   UNL d   1      38.986  43.636   3.887 -0.19 -0.00    -0.021    28.006
ATOM     23  C   UNL d   1      39.667  44.645   3.174 -0.08 +0.01    +0.066    28.006
ATOM     24  C   UNL d   1      37.791  41.421   3.227 -0.29 +0.01    +0.051    28.006
ATOM     25  N   UNL d   1      40.915  46.861   1.632 +0.00 -0.03    -0.248    28.006
ATOM     26  N   UNL d   1      41.212  46.654  -1.126 +0.00 -0.02    -0.248    28.006
ATOM     27  N   UNL d   1      39.902  44.007  -1.041 +0.00 -0.02    -0.248    28.006
ATOM     28  N   UNL d   1      39.708  44.362   1.867 -0.01 -0.05    -0.248    28.006
ATOM     29 FE   UNL d   1      40.378  45.347   0.219 -0.00 +0.00    +0.000    28.006
ATOM     30  C   UNL d   1      40.886  48.531   5.017 -0.26 -0.00    +0.052    28.006
ATOM     31  C   UNL d   1      39.641  49.398   5.200 -0.28 +0.01    +0.115    28.006
ATOM     32  C   UNL d   1      38.385  48.718   4.700 -0.24 +0.11    +0.139    28.006
ATOM     33  O   UNL d   1      37.565  48.304   5.506 -0.32 -0.81    -0.650    28.006
ATOM     34  O   UNL d   1      38.113  48.592   3.380 -0.37 -0.79    -0.776    28.006
ATOM     35  H   UNL d   1      38.106  47.751   2.904 +0.03 +0.17    +0.167    28.006
ATOM     36  C   UNL d   1      38.537  46.334   0.032 +0.00 +0.05    +0.190    28.006
ATOM     37  O   UNL d   1      37.589  47.069   0.751 -0.01 -0.21    -0.399    28.006
ATOM     38  H   UNL d   1      37.802  46.892   1.710 +0.02 +0.15    +0.209    28.006
ATOM     39  C   UNL d   1      38.666  43.596   5.370 -0.20 +0.01    +0.052    28.006
ATOM     40  C   UNL d   1      37.536  44.581   5.709 -0.27 +0.05    +0.115    28.006
ATOM     41  C   UNL d   1      36.710  45.018   4.517 -0.17 +0.15    +0.139    28.006
ATOM     42  O   UNL d   1      35.622  44.497   4.320 -0.55 -0.63    -0.650    28.006
ATOM     43  O   UNL d   1      37.104  46.032   3.714 +0.19 -1.31    -0.776    28.006
ATOM     44  H   UNL d   1      37.619  46.781   4.038 +0.04 +0.26    +0.167    28.006
ATOM     45  C   UNL d   1      42.150  47.122  -4.706 +0.00 +0.00    +0.004    28.006
ATOM     46  C   UNL d   1      41.320  47.205  -5.742 +0.00 +0.00    +0.012    28.006
ATOM     47  C   UNL d   1      38.080  41.001  -2.053 -0.02 +0.00    +0.004    28.006
ATOM     48  C   UNL d   1      38.424  39.839  -1.493 -0.05 +0.00    +0.012    28.006
TER
ENDMDL
MODEL       30
USER    Run = 30
USER    Cluster Rank = 46
USER    Number of conformations in this cluster = 1
USER  
USER    RMSD from reference structure       = 24.366 A
USER  
USER    Estimated Free Energy of Binding    =   -2.79 kcal/mol  [=(1)+(2)+(3)-(4)]
USER    Estimated Inhibition Constant, Ki   =    9.02 mM (millimolar)  [Temperature = 298.15 K]
USER    
USER    (1) Final Intermolecular Energy     =   -6.37 kcal/mol
USER        vdW + Hbond + desolv Energy     =   -6.26 kcal/mol
USER        Electrostatic Energy            =   -0.11 kcal/mol
USER    (2) Final Total Internal Energy     =   -3.62 kcal/mol
USER    (3) Torsional Free Energy           =   +3.58 kcal/mol
USER    (4) Unbound System's Energy  [=(2)] =   -3.62 kcal/mol
USER    
USER    
USER  
USER    DPF = D:/Protein_go_brrr/autodock/final/6BB5/heme_Co/dock.dpf
USER    NEWDPF move	heme_Co_opt.pdbqt
USER    NEWDPF about	8.781000 34.984000 -0.736000
USER    NEWDPF tran0	36.165233 27.600793 -0.069259
USER    NEWDPF axisangle0	0.987874 0.005679 -0.155153 116.650297
USER    NEWDPF quaternion0	0.840722 0.004833 -0.132042 0.525098
USER    NEWDPF dihe0	-94.43 107.13 -73.39 -9.75 143.12 106.87 59.27 -26.93 159.15 -153.80 -153.32 162.66 
USER  
USER                              x       y       z    vdW   Elec        q     RMS 
ATOM      1  C   UNL d   1      34.426  26.344   0.261 -0.21 -0.01    +0.064    24.366
ATOM      2  C   UNL d   1      35.140  31.014   0.795 -0.16 +0.01    +0.064    24.366
ATOM      3  C   UNL d   1      39.763  30.468  -0.279 -0.26 -0.01    +0.064    24.366
ATOM      4  C   UNL d   1      38.978  25.758  -1.207 -0.14 -0.00    +0.064    24.366
ATOM      5  C   UNL d   1      34.289  27.654   0.521 -0.17 +0.00    +0.066    24.366
ATOM      6  C   UNL d   1      33.038  28.232   0.812 -0.23 -0.00    -0.021    24.366
ATOM      7  C   UNL d   1      33.247  29.591   0.944 -0.20 -0.01    -0.025    24.366
ATOM      8  C   UNL d   1      34.618  29.782   0.744 -0.13 +0.01    +0.066    24.366
ATOM      9  C   UNL d   1      32.206  30.680   1.245 -0.08 +0.04    +0.051    24.366
ATOM     10  C   UNL d   1      36.542  31.305   0.628 -0.17 -0.00    +0.066    24.366
ATOM     11  C   UNL d   1      37.171  32.556   0.809 -0.21 +0.00    -0.021    24.366
ATOM     12  C   UNL d   1      38.520  32.367   0.493 -0.28 -0.00    +0.000    24.366
ATOM     13  C   UNL d   1      38.615  31.017   0.156 -0.25 -0.01    +0.070    24.366
ATOM     14  C   UNL d   1      36.527  33.810   1.341 -0.29 -0.00    +0.052    24.366
ATOM     15  C   UNL d   1      40.027  29.112  -0.717 -0.19 -0.00    +0.066    24.366
ATOM     16  C   UNL d   1      41.200  28.646  -1.293 -0.18 +0.00    -0.021    24.366
ATOM     17  C   UNL d   1      40.978  27.288  -1.564 -0.19 +0.00    +0.000    24.366
ATOM     18  C   UNL d   1      39.687  27.028  -1.115 -0.19 +0.00    +0.070    24.366
ATOM     19  C   UNL d   1      42.438  29.475  -1.555 -0.31 -0.00    +0.052    24.366
ATOM     20  C   UNL d   1      37.695  25.503  -0.856 -0.12 -0.00    +0.066    24.366
ATOM     21  C   UNL d   1      37.113  24.249  -1.025 -0.09 +0.00    -0.025    24.366
ATOM     22  C   UNL d   1      35.809  24.380  -0.584 -0.12 +0.00    -0.021    24.366
ATOM     23  C   UNL d   1      35.655  25.722  -0.175 -0.14 -0.01    +0.066    24.366
ATOM     24  C   UNL d   1      37.761  22.991  -1.598 -0.04 -0.00    +0.051    24.366
ATOM     25  N   UNL d   1      35.290  28.599   0.486 -0.03 -0.02    -0.248    24.366
ATOM     26  N   UNL d   1      37.430  30.364   0.292 -0.14 +0.01    -0.248    24.366
ATOM     27  N   UNL d   1      39.141  28.144  -0.645 -0.15 +0.00    -0.248    24.366
ATOM     28  N   UNL d   1      36.794  26.406  -0.341 -0.01 +0.01    -0.248    24.366
ATOM     29 FE   UNL d   1      37.329  28.354  -0.113 -0.05 +0.00    +0.000    24.366
ATOM     30  C   UNL d   1      31.696  27.510   0.876 -0.22 +0.01    +0.052    24.366
ATOM     31  C   UNL d   1      31.264  27.054  -0.517 -0.07 +0.02    +0.115    24.366
ATOM     32  C   UNL d   1      31.921  27.859  -1.618 -0.02 +0.02    +0.139    24.366
ATOM     33  O   UNL d   1      31.594  29.024  -1.786 +0.03 -0.15    -0.650    24.366
ATOM     34  O   UNL d   1      32.899  27.344  -2.397 +0.03 -0.03    -0.776    24.366
ATOM     35  H   UNL d   1      33.844  27.498  -2.257 +0.02 +0.00    +0.167    24.366
ATOM     36  C   UNL d   1      36.690  28.782  -2.063 -0.04 +0.00    +0.190    24.366
ATOM     37  O   UNL d   1      35.715  28.457  -3.013 -0.00 -0.01    -0.399    24.366
ATOM     38  H   UNL d   1      35.200  27.706  -2.605 +0.02 +0.00    +0.209    24.366
ATOM     39  C   UNL d   1      34.755  23.289  -0.617 -0.09 -0.01    +0.052    24.366
ATOM     40  C   UNL d   1      33.883  23.415  -1.877 -0.02 -0.01    +0.115    24.366
ATOM     41  C   UNL d   1      34.517  24.209  -2.999 -0.01 -0.01    +0.139    24.366
ATOM     42  O   UNL d   1      34.857  23.632  -4.022 +0.00 +0.03    -0.650    24.366
ATOM     43  O   UNL d   1      34.638  25.554  -2.937 +0.02 +0.03    -0.776    24.366
ATOM     44  H   UNL d   1      33.875  26.145  -2.952 +0.01 -0.00    +0.167    24.366
ATOM     45  C   UNL d   1      39.725  33.297   0.489 -0.42 -0.00    +0.004    24.366
ATOM     46  C   UNL d   1      39.794  34.626   0.479 -0.38 -0.00    +0.012    24.366
ATOM     47  C   UNL d   1      41.864  26.293  -2.239 -0.18 +0.00    +0.004    24.366
ATOM     48  C   UNL d   1      42.271  25.159  -1.662 -0.17 +0.00    +0.012    24.366
TER
ENDMDL


AVSFLD: # AVS field file
AVSFLD: #
AVSFLD: # Created by AutoDock
AVSFLD: #
AVSFLD: ndim=2           # number of dimensions in the field
AVSFLD: nspace=1         # number of physical coordinates
AVSFLD: veclen=7         # vector size
AVSFLD: dim1=48          # atoms
AVSFLD: dim2=46          # conformations
AVSFLD: data=Real       # data type (byte,integer,Real,double)
AVSFLD: field=uniform    # field coordinate layout
AVSFLD: label= x y z vdW Elec q RMS
AVSFLD: variable 1 file = D:/Protein_go_brrr/autodock/final/6BB5/heme_Co/dock.dlg.pdb filetype = ascii offset = 5 stride = 12
AVSFLD: variable 2 file = D:/Protein_go_brrr/autodock/final/6BB5/heme_Co/dock.dlg.pdb filetype = ascii offset = 6 stride = 12
AVSFLD: variable 3 file = D:/Protein_go_brrr/autodock/final/6BB5/heme_Co/dock.dlg.pdb filetype = ascii offset = 7 stride = 12
AVSFLD: variable 4 file = D:/Protein_go_brrr/autodock/final/6BB5/heme_Co/dock.dlg.pdb filetype = ascii offset = 8 stride = 12
AVSFLD: variable 5 file = D:/Protein_go_brrr/autodock/final/6BB5/heme_Co/dock.dlg.pdb filetype = ascii offset = 9 stride = 12
AVSFLD: variable 6 file = D:/Protein_go_brrr/autodock/final/6BB5/heme_Co/dock.dlg.pdb filetype = ascii offset = 10 stride = 12
AVSFLD: variable 7 file = D:/Protein_go_brrr/autodock/final/6BB5/heme_Co/dock.dlg.pdb filetype = ascii offset = 11 stride = 12
AVSFLD: # end of file

>>> Closing the docking parameter file (DPF)...
This docking finished at:			9:18 09" p.m., 01/17/2026


________________________________________________________________________________

D:/autodockScripts/autodock4.exe: Successful Completion on "ACER"

Real= 9h 02m 43.86s,  CPU= 6m 25.69s,  System= 33.47s
________________________________________________________________________________

