          AutoDock 4.2 Release 4.2.6   
         (C) 1989-2012 The Scripps Research Institute
        AutoDock comes with ABSOLUTELY NO WARRANTY.
        AutoDock is free software, and you are welcome
        to redistribute it under certain conditions;
        for details type 'autodock4 -C'

                     main.cc  $Revision: 1.213 $

                   Compiled on Jul 18 2014 at 15:34:58


This file was created at:			11:24 18" a.m., 01/15/2026
                   on host:		"ACER"
Current Working Directory = "D:\Protein_go_brrr\autodock\final\AncB\heme_CO"

      ________________________________________________________________

                   SETTING UP DEFAULT PARAMETER LIBRARY
      ________________________________________________________________


Random number generator was seeded with values 11692, 1768472658.
Docking parameter file (DPF) used for this docking:		D:/Protein_go_brrr/autodock/final/AncB/heme_Co/dock.dpf
DPF> autodock_parameter_version 4.2       # used by autodock to validate parameter set

	Autodock parameter version 4.2.
DPF> outlev 1                             # diagnostic output level

Output Level = 1  ADT-COMPATIBLE OUTPUT DURING DOCKING.
DPF> intelec                              # calculate internal electrostatics

Electrostatic energies will be calculated for all non-bonds between moving atoms.
DPF> seed pid time                        # seeds for random generator

Random number generator was seeded with values 11692, 1768472658.
DPF> ligand_types A C OA N Fe HD          # atoms types in ligand

DPF> fld opt_AncB.maps.fld                # grid_data_file

Opening Grid Map Dimensions file:		opt_AncB.maps.fld
Grid Point Spacing =				0.692 Angstroms

Even Number of User-specified Grid Points =	126 x-points
						126 y-points
						126 z-points

Coordinates of Central Grid Point of Maps =	(-0.470, 0.127, 0.025)
Macromolecule file used to create Grid Maps =	opt_AncB.pdbqt
Grid Parameter file used to create Grid Maps =	D:/Protein_go_brrr/autodock/final/AncB/heme_Co/grid.gpf
Minimum coordinates in grid = (-44.066, -43.469, -43.571)
Maximum coordinates in grid = (43.126, 43.723, 43.621)

DPF> map opt_AncB.A.map                   # atom-specific affinity map

DPF> map opt_AncB.C.map                   # atom-specific affinity map

DPF> map opt_AncB.OA.map                  # atom-specific affinity map

DPF> map opt_AncB.N.map                   # atom-specific affinity map

DPF> map opt_AncB.Fe.map                  # atom-specific affinity map

DPF> map opt_AncB.HD.map                  # atom-specific affinity map

DPF> elecmap opt_AncB.e.map               # electrostatics map

DPF> desolvmap opt_AncB.d.map             # desolvation map

DPF> move heme_Co_opt.pdbqt               # small molecule

1,4-interactions will be _ignored_ in the non-bonded internal energy calculation.

Ligand PDBQT file = "heme_Co_opt.pdbqt"

INPUT LIGAND PDBQT FILE:
________________________

INPUT-LIGAND-PDBQT: REMARK  12 active torsions:
INPUT-LIGAND-PDBQT: REMARK  status: ('A' for Active; 'I' for Inactive)
INPUT-LIGAND-PDBQT: REMARK    1  A    between atoms: C_6  and  C_10 
INPUT-LIGAND-PDBQT: REMARK    2  A    between atoms: C_10  and  C_11 
INPUT-LIGAND-PDBQT: REMARK    3  A    between atoms: C_11  and  C_12 
INPUT-LIGAND-PDBQT: REMARK    4  A    between atoms: C_12  and  O_14 
INPUT-LIGAND-PDBQT: REMARK    5  A    between atoms: C_17  and  C_20 
INPUT-LIGAND-PDBQT: REMARK    6  A    between atoms: C_24  and  C_27 
INPUT-LIGAND-PDBQT: REMARK    7  A    between atoms: C_31  and  C_34 
INPUT-LIGAND-PDBQT: REMARK    8  A    between atoms: C_34  and  C_35 
INPUT-LIGAND-PDBQT: REMARK    9  A    between atoms: C_35  and  C_36 
INPUT-LIGAND-PDBQT: REMARK   10  A    between atoms: C_36  and  O_38 
INPUT-LIGAND-PDBQT: REMARK   11  A    between atoms: FE_43  and  C_44 
INPUT-LIGAND-PDBQT: REMARK   12  A    between atoms: C_44  and  O_45 
INPUT-LIGAND-PDBQT: ROOT
INPUT-LIGAND-PDBQT: ATOM      1  C   UNL d   1       6.846  35.483  -1.586  0.00  0.00     0.064 A 
INPUT-LIGAND-PDBQT: ATOM      2  C   UNL d   1       8.105  32.823   2.149  0.00  0.00     0.064 C 
INPUT-LIGAND-PDBQT: ATOM      3  C   UNL d   1      12.720  33.414   1.062  0.00  0.00     0.064 A 
INPUT-LIGAND-PDBQT: ATOM      4  C   UNL d   1      11.472  36.449  -2.529  0.00  0.00     0.064 A 
INPUT-LIGAND-PDBQT: ATOM      5  C   UNL d   1       6.850  34.683  -0.507  0.00  0.00     0.066 A 
INPUT-LIGAND-PDBQT: ATOM      6  C   UNL d   1       5.664  34.330   0.166  0.00  0.00    -0.021 A 
INPUT-LIGAND-PDBQT: ATOM      7  C   UNL d   1       6.037  33.577   1.262  0.00  0.00    -0.025 A 
INPUT-LIGAND-PDBQT: ATOM      8  C   UNL d   1       7.432  33.489   1.202  0.00  0.00     0.066 A 
INPUT-LIGAND-PDBQT: ATOM      9  C   UNL d   1       5.127  32.958   2.334  0.00  0.00     0.051 C 
INPUT-LIGAND-PDBQT: ATOM     10  C   UNL d   1       9.537  32.657   2.156  0.00  0.00     0.066 A 
INPUT-LIGAND-PDBQT: ATOM     11  C   UNL d   1      10.289  31.854   3.041  0.00  0.00    -0.021 A 
INPUT-LIGAND-PDBQT: ATOM     12  C   UNL d   1      11.631  32.042   2.699  0.00  0.00     0.000 A 
INPUT-LIGAND-PDBQT: ATOM     13  C   UNL d   1      11.598  32.933   1.626  0.00  0.00     0.070 A 
INPUT-LIGAND-PDBQT: ATOM     14  C   UNL d   1       9.736  30.905   4.073  0.00  0.00     0.052 C 
INPUT-LIGAND-PDBQT: ATOM     15  C   UNL d   1      12.870  34.375  -0.013  0.00  0.00     0.066 A 
INPUT-LIGAND-PDBQT: ATOM     16  C   UNL d   1      14.059  34.940  -0.452  0.00  0.00    -0.021 A 
INPUT-LIGAND-PDBQT: ATOM     17  C   UNL d   1      13.704  35.818  -1.486  0.00  0.00     0.000 A 
INPUT-LIGAND-PDBQT: ATOM     18  C   UNL d   1      12.323  35.706  -1.608  0.00  0.00     0.070 A 
INPUT-LIGAND-PDBQT: ATOM     19  C   UNL d   1      15.432  34.638   0.106  0.00  0.00     0.052 C 
INPUT-LIGAND-PDBQT: ATOM     20  C   UNL d   1      10.120  36.421  -2.607  0.00  0.00     0.066 A 
INPUT-LIGAND-PDBQT: ATOM     21  C   UNL d   1       9.411  37.209  -3.511  0.00  0.00    -0.025 A 
INPUT-LIGAND-PDBQT: ATOM     22  C   UNL d   1       8.076  36.930  -3.282  0.00  0.00    -0.021 A 
INPUT-LIGAND-PDBQT: ATOM     23  C   UNL d   1       8.036  35.987  -2.233  0.00  0.00     0.066 A 
INPUT-LIGAND-PDBQT: ATOM     24  C   UNL d   1       9.976  38.195  -4.530  0.00  0.00     0.051 C 
INPUT-LIGAND-PDBQT: ATOM     25  N   UNL d   1       7.962  34.160   0.113  0.00  0.00    -0.248 N 
INPUT-LIGAND-PDBQT: ATOM     26  N   UNL d   1      10.329  33.260   1.263  0.00  0.00    -0.248 N 
INPUT-LIGAND-PDBQT: ATOM     27  N   UNL d   1      11.857  34.861  -0.695  0.00  0.00    -0.248 N 
INPUT-LIGAND-PDBQT: ATOM     28  N   UNL d   1       9.271  35.678  -1.820  0.00  0.00    -0.248 N 
INPUT-LIGAND-PDBQT: ATOM     29 FE   UNL d   1      10.024  34.533  -0.318  0.00  0.00     0.000 Fe
INPUT-LIGAND-PDBQT: ENDROOT
INPUT-LIGAND-PDBQT: BRANCH   6  30
INPUT-LIGAND-PDBQT: ATOM     30  C   UNL d   1       4.249  34.772  -0.192  0.00  0.00     0.052 C 
INPUT-LIGAND-PDBQT: BRANCH  30  31
INPUT-LIGAND-PDBQT: ATOM     31  C   UNL d   1       3.660  33.865  -1.272  0.00  0.00     0.115 C 
INPUT-LIGAND-PDBQT: BRANCH  31  32
INPUT-LIGAND-PDBQT: ATOM     32  C   UNL d   1       2.237  34.239  -1.627  0.00  0.00     0.139 C 
INPUT-LIGAND-PDBQT: ATOM     33  O   UNL d   1       1.374  33.374  -1.641  0.00  0.00    -0.650 OA
INPUT-LIGAND-PDBQT: BRANCH  32  34
INPUT-LIGAND-PDBQT: ATOM     34  O   UNL d   1       1.874  35.517  -1.885  0.00  0.00    -0.776 OA
INPUT-LIGAND-PDBQT: ATOM     35  H   UNL d   1       2.467  36.277  -1.807  0.00  0.00     0.167 HD
INPUT-LIGAND-PDBQT: ENDBRANCH  32  34
INPUT-LIGAND-PDBQT: ENDBRANCH  31  32
INPUT-LIGAND-PDBQT: ENDBRANCH  30  31
INPUT-LIGAND-PDBQT: ENDBRANCH   6  30
INPUT-LIGAND-PDBQT: BRANCH  29  36
INPUT-LIGAND-PDBQT: ATOM     36  C   UNL d   1       9.893  36.149   1.011  0.00  0.00     0.190 C 
INPUT-LIGAND-PDBQT: BRANCH  36  37
INPUT-LIGAND-PDBQT: ATOM     37  O   UNL d   1      10.463  37.389   1.317  0.00  0.00    -0.399 OA
INPUT-LIGAND-PDBQT: ATOM     38  H   UNL d   1      10.901  37.258   2.204  0.00  0.00     0.209 HD
INPUT-LIGAND-PDBQT: ENDBRANCH  36  37
INPUT-LIGAND-PDBQT: ENDBRANCH  29  36
INPUT-LIGAND-PDBQT: BRANCH  22  39
INPUT-LIGAND-PDBQT: ATOM     39  C   UNL d   1       6.906  37.586  -3.991  0.00  0.00     0.052 C 
INPUT-LIGAND-PDBQT: BRANCH  39  40
INPUT-LIGAND-PDBQT: ATOM     40  C   UNL d   1       6.343  36.659  -5.081  0.00  0.00     0.115 C 
INPUT-LIGAND-PDBQT: BRANCH  40  41
INPUT-LIGAND-PDBQT: ATOM     41  C   UNL d   1       5.088  37.175  -5.753  0.00  0.00     0.139 C 
INPUT-LIGAND-PDBQT: ATOM     42  O   UNL d   1       4.969  37.063  -6.965  0.00  0.00    -0.650 OA
INPUT-LIGAND-PDBQT: BRANCH  41  43
INPUT-LIGAND-PDBQT: ATOM     43  O   UNL d   1       4.056  37.678  -5.040  0.00  0.00    -0.776 OA
INPUT-LIGAND-PDBQT: ATOM     44  H   UNL d   1       4.103  37.816  -4.085  0.00  0.00     0.167 HD
INPUT-LIGAND-PDBQT: ENDBRANCH  41  43
INPUT-LIGAND-PDBQT: ENDBRANCH  40  41
INPUT-LIGAND-PDBQT: ENDBRANCH  39  40
INPUT-LIGAND-PDBQT: ENDBRANCH  22  39
INPUT-LIGAND-PDBQT: BRANCH  12  45
INPUT-LIGAND-PDBQT: ATOM     45  C   UNL d   1      12.932  31.471   3.247  0.00  0.00     0.004 C 
INPUT-LIGAND-PDBQT: ATOM     46  C   UNL d   1      13.165  30.727   4.325  0.00  0.00     0.012 C 
INPUT-LIGAND-PDBQT: ENDBRANCH  12  45
INPUT-LIGAND-PDBQT: BRANCH  17  47
INPUT-LIGAND-PDBQT: ATOM     47  C   UNL d   1      14.559  36.745  -2.286  0.00  0.00     0.004 C 
INPUT-LIGAND-PDBQT: ATOM     48  C   UNL d   1      15.750  37.188  -1.876  0.00  0.00     0.012 C 
INPUT-LIGAND-PDBQT: ENDBRANCH  17  47
INPUT-LIGAND-PDBQT: TORSDOF 12
________________________________________________________________________________

Total charge on ligand                               =	-2.002 e
REMARK  12 active torsions:
REMARK  status: ('A' for Active; 'I' for Inactive)
REMARK    1  A    between atoms: C_6  and  C_10 
REMARK    2  A    between atoms: C_10  and  C_11 
REMARK    3  A    between atoms: C_11  and  C_12 
REMARK    4  A    between atoms: C_12  and  O_14 
REMARK    5  A    between atoms: C_17  and  C_20 
REMARK    6  A    between atoms: C_24  and  C_27 
REMARK    7  A    between atoms: C_31  and  C_34 
REMARK    8  A    between atoms: C_34  and  C_35 
REMARK    9  A    between atoms: C_35  and  C_36 
REMARK   10  A    between atoms: C_36  and  O_38 
REMARK   11  A    between atoms: FE_43  and  C_44 
REMARK   12  A    between atoms: C_44  and  O_45 


Number of Rotatable Bonds in Small Molecule =	12 torsions
Number of atoms in ligand:  48

Number of non-hydrogen atoms in ligand:  45

Number of vibrational degrees of freedom of ligand:  138


Number of torsional degrees of freedom = 12
Estimated loss of torsional free energy upon binding = +3.5796 kcal/mol


DPF> about 8.781 34.984 -0.736            # small molecule center

Small molecule center of rotation =	(+8.781, +34.984, -0.736)

DPF> tran0 random                         # initial coordinates/A or random

Initial translation =			(40.980, 22.484, -43.292) Angstroms
DPF> quaternion0 random                   # initial orientation

Each run will begin with a new, random initial orientation.
Initial quaternion,  (x,y,z,w) =	( 0.549, -0.780, 0.180, 0.240 ),
DPF> dihe0 random                         # initial dihedrals (relative) or random

DPF> torsdof 12                            # torsional degrees of freedom

Number of torsional degrees of freedom = 12
Free energy coefficient for torsional degrees of freedom = 0.2983, the factory default value.

Estimated loss of torsional free energy upon binding = +3.5796 kcal/mol

DPF> rmstol 2.0                           # cluster_tolerance/A

Maximum RMS tolerance for conformational cluster analysis = 2.00 Angstroms
DPF> extnrg 1000.0                        # external grid energy

External grid energy (beyond grid map walls) = 1000.00

DPF> e0max 0.0 10000                      # max initial energy; max number of retries

Using user-specified maximum number of retries for simanneal initialization, 10000 retries.
If the simanneal initial energy is greater than e0max, 0.000,
then a new, random initial state will be created.

DPF> ga_pop_size 150                      # number of individuals in population

A population of 150 individuals will be used
DPF> ga_num_evals 25000000                # maximum number of energy evaluations

There will be at most 25000000 function evaluations used.
DPF> ga_num_generations 27000             # maximum number of generations

The GA will run for at most 27000 generations.
DPF> ga_elitism 1                         # number of top individuals to survive to next generation

The 1 best will be preserved each GA generation.
DPF> ga_mutation_rate 0.02                # rate of gene mutation

The mutation rate is 0.020000.
DPF> ga_crossover_rate 0.8                # rate of crossover

The crossover rate is 0.800000.
DPF> ga_window_size 10                    # 

The GA's selection window is 10 generations.
DPF> ga_cauchy_alpha 0.0                  # Alpha parameter of Cauchy distribution

The alpha parameter (for the Cauchy distribution) is being set to 0.000000.
DPF> ga_cauchy_beta 1.0                   # Beta parameter Cauchy distribution

The beta parameter (for the Cauchy distribution) is being set to 1.000000.
DPF> set_ga                               # set the above parameters for GA or LGA

DPF> sw_max_its 300                       # iterations of Solis & Wets local search

Solis & Wets algorithms will perform at most 300 iterations.
DPF> sw_max_succ 4                        # consecutive successes before changing rho

Solis & Wets algorithms expand rho every 4 in a row successes.
DPF> sw_max_fail 4                        # consecutive failures before changing rho

Solis & Wets algorithms contract rho every 4 in a row failures.
DPF> sw_rho 1.0                           # size of local search space to sample

rho is set to 1.000000.
DPF> sw_lb_rho 0.01                       # lower bound on rho

rho will never get smaller than 0.010000.
DPF> ls_search_freq 0.06                  # probability of performing local search on individual

Local search will be performed with frequency 0.060000.
DPF> set_psw1                             # set the above pseudo-Solis & Wets parameters

Creating a new Local Search object using the pseudo-Solis-Wets algorithm (pSW1) with the current settings.

DPF> unbound_model bound                  # state of unbound ligand

DPF> ga_run 100                           # do this many hybrid GA-LS runs

centering ligand on specified point: 8.781 34.984 -0.736
Furthest true ligand atom from "about" center is 7.934 Angstroms (maxrad).
Number of requested GA dockings = 100 runs
Unbound model to be used is 'same as bound' [AutoDock 4.2 default].

	BEGINNING GENETIC ALGORITHM DOCKING 1 of 100
Run: 1 Seed: 177089389 1349624885 [ Run 1 of 100 GA/GALS ]
Beginning LAMARCKIAN GENETIC ALGORITHM (LGA), with a maximum of 25000000 energy evaluations.

Final-Value: -11.276


	FINAL GENETIC ALGORITHM DOCKED STATE
	_______________________________________________


Detailed state:  trans -8.523 -2.109 -12.127 quatxyzw -0.683004 0.130662 -0.718455 -0.015985 center 8.781 34.984 -0.736 ntor 12 160.1350 110.3959 25.6254 -49.4846 137.8326 142.1902 -124.9222 75.5109 -140.1624 -80.4621 176.2225 -178.4597
State:	 -8.523  -2.109 -12.127  -0.683  0.131 -0.719 -178.168    160.13  110.40   25.63  -49.48  137.83  142.19 -124.92   75.51 -140.16  -80.46  176.22 -178.46

DOCKED: MODEL        1
DOCKED: USER    Run = 1
DOCKED: USER    DPF = D:/Protein_go_brrr/autodock/final/AncB/heme_Co/dock.dpf
DOCKED: USER  
DOCKED: USER    Estimated Free Energy of Binding    =   -5.56 kcal/mol  [=(1)+(2)+(3)-(4)]
DOCKED: USER    Estimated Inhibition Constant, Ki   =   83.36 uM (micromolar)  [Temperature = 298.15 K]
DOCKED: USER    
DOCKED: USER    (1) Final Intermolecular Energy     =   -9.14 kcal/mol
DOCKED: USER        vdW + Hbond + desolv Energy     =   -6.16 kcal/mol
DOCKED: USER        Electrostatic Energy            =   -2.99 kcal/mol
DOCKED: USER    (2) Final Total Internal Energy     =   -2.13 kcal/mol
DOCKED: USER    (3) Torsional Free Energy           =   +3.58 kcal/mol
DOCKED: USER    (4) Unbound System's Energy  [=(2)] =   -2.13 kcal/mol
DOCKED: USER    
DOCKED: USER    
DOCKED: USER    NEWDPF move heme_Co_opt.pdbqt
DOCKED: USER    NEWDPF about 8.781000 34.984000 -0.736000
DOCKED: USER    NEWDPF tran0 -8.522692 -2.108668 -12.126906
DOCKED: USER    NEWDPF quaternion0 -0.683004 0.130662 -0.718455 -0.015985
DOCKED: USER    NEWDPF axisangle0 -0.683091 0.130679 -0.718547 -178.168162
DOCKED: USER    NEWDPF quat0 -0.683091 0.130679 -0.718547 -178.168162
DOCKED: USER    NEWDPF dihe0 160.13 110.40 25.63 -49.48 137.83 142.19 -124.92 75.51 -140.16 -80.46 176.22 -178.46 
DOCKED: USER  keepresnum = 1 
DOCKED: USER  
DOCKED: REMARK  12 active torsions:
DOCKED: REMARK  status: ('A' for Active; 'I' for Inactive)
DOCKED: REMARK    1  A    between atoms: C_6  and  C_10 
DOCKED: REMARK    2  A    between atoms: C_10  and  C_11 
DOCKED: REMARK    3  A    between atoms: C_11  and  C_12 
DOCKED: REMARK    4  A    between atoms: C_12  and  O_14 
DOCKED: REMARK    5  A    between atoms: C_17  and  C_20 
DOCKED: REMARK    6  A    between atoms: C_24  and  C_27 
DOCKED: REMARK    7  A    between atoms: C_31  and  C_34 
DOCKED: REMARK    8  A    between atoms: C_34  and  C_35 
DOCKED: REMARK    9  A    between atoms: C_35  and  C_36 
DOCKED: REMARK   10  A    between atoms: C_36  and  O_38 
DOCKED: REMARK   11  A    between atoms: FE_43  and  C_44 
DOCKED: REMARK   12  A    between atoms: C_44  and  O_45 
DOCKED: USER                              x       y       z     vdW  Elec       q    Type
DOCKED: USER                           _______ _______ _______ _____ _____    ______ ____
DOCKED: ROOT
DOCKED: ATOM      1  C   UNL d   1      -9.309  -2.060 -14.150 -0.00 +0.03    +0.064 A 
DOCKED: ATOM      2  C   UNL d   1      -5.298  -0.365 -12.240 -0.15 +0.08    +0.064 C 
DOCKED: ATOM      3  C   UNL d   1      -6.768  -1.685  -7.889 +0.04 +0.02    +0.064 A 
DOCKED: ATOM      4  C   UNL d   1     -10.697  -3.768  -9.863 -0.08 +0.02    +0.064 A 
DOCKED: ATOM      5  C   UNL d   1      -8.122  -1.467 -13.943 -0.02 +0.05    +0.066 A 
DOCKED: ATOM      6  C   UNL d   1      -7.325  -0.999 -15.006 -0.03 -0.02    -0.021 A 
DOCKED: ATOM      7  C   UNL d   1      -6.152  -0.529 -14.448 -0.07 -0.03    -0.025 A 
DOCKED: ATOM      8  C   UNL d   1      -6.290  -0.715 -13.068 -0.08 +0.08    +0.066 A 
DOCKED: ATOM      9  C   UNL d   1      -4.939   0.074 -15.172 -0.06 +0.08    +0.051 C 
DOCKED: ATOM     10  C   UNL d   1      -5.361  -0.494 -10.805 -0.16 +0.06    +0.066 A 
DOCKED: ATOM     11  C   UNL d   1      -4.414  -0.018  -9.873 -0.27 -0.01    -0.021 A 
DOCKED: ATOM     12  C   UNL d   1      -4.869  -0.413  -8.612 -0.33 +0.00    +0.000 A 
DOCKED: ATOM     13  C   UNL d   1      -6.063  -1.088  -8.867 -0.20 +0.03    +0.070 A 
DOCKED: ATOM     14  C   UNL d   1      -3.212   0.839 -10.181 -0.34 +0.04    +0.052 C 
DOCKED: ATOM     15  C   UNL d   1      -7.987  -2.464  -7.980 -0.23 +0.02    +0.066 A 
DOCKED: ATOM     16  C   UNL d   1      -8.587  -3.177  -6.950 -0.36 -0.01    -0.021 A 
DOCKED: ATOM     17  C   UNL d   1      -9.719  -3.781  -7.515 -0.27 +0.00    +0.000 A 
DOCKED: ATOM     18  C   UNL d   1      -9.730  -3.375  -8.846 -0.13 +0.02    +0.070 A 
DOCKED: ATOM     19  C   UNL d   1      -8.081  -3.254  -5.527 -0.46 +0.01    +0.052 C 
DOCKED: ATOM     20  C   UNL d   1     -10.679  -3.455 -11.181 -0.04 +0.03    +0.066 A 
DOCKED: ATOM     21  C   UNL d   1     -11.646  -3.923 -12.069 -0.05 -0.01    -0.025 A 
DOCKED: ATOM     22  C   UNL d   1     -11.288  -3.423 -13.307 -0.02 -0.01    -0.021 A 
DOCKED: ATOM     23  C   UNL d   1     -10.105  -2.678 -13.114 -0.01 +0.03    +0.066 A 
DOCKED: ATOM     24  C   UNL d   1     -12.841  -4.820 -11.757 -0.09 +0.04    +0.051 C 
DOCKED: ATOM     25  N   UNL d   1      -7.503  -1.289 -12.727 -0.03 -0.19    -0.248 N 
DOCKED: ATOM     26  N   UNL d   1      -6.387  -1.088 -10.187 -0.09 -0.15    -0.248 N 
DOCKED: ATOM     27  N   UNL d   1      -8.668  -2.616  -9.094 -0.08 -0.09    -0.248 N 
DOCKED: ATOM     28  N   UNL d   1      -9.732  -2.697 -11.829 -0.01 -0.11    -0.248 N 
DOCKED: ATOM     29 FE   UNL d   1      -8.123  -1.993 -10.804 -0.02 +0.00    +0.000 Fe
DOCKED: ENDROOT
DOCKED: BRANCH   6  30
DOCKED: ATOM     30  C   UNL d   1      -7.652  -1.081 -16.493 -0.01 +0.03    +0.052 C 
DOCKED: BRANCH  30  31
DOCKED: ATOM     31  C   UNL d   1      -6.923  -2.259 -17.140 -0.02 +0.09    +0.115 C 
DOCKED: BRANCH  31  32
DOCKED: ATOM     32  C   UNL d   1      -6.867  -3.470 -16.234 -0.06 +0.13    +0.139 C 
DOCKED: ATOM     33  O   UNL d   1      -7.590  -4.428 -16.466 +0.03 -0.48    -0.650 OA
DOCKED: BRANCH  32  34
DOCKED: ATOM     34  O   UNL d   1      -6.004  -3.550 -15.195 -0.52 -1.30    -0.776 OA
DOCKED: ATOM     35  H   UNL d   1      -6.139  -4.109 -14.417 +0.03 +0.25    +0.167 HD
DOCKED: ENDBRANCH  32  34
DOCKED: ENDBRANCH  31  32
DOCKED: ENDBRANCH  30  31
DOCKED: ENDBRANCH   6  30
DOCKED: BRANCH  29  36
DOCKED: ATOM     36  C   UNL d   1      -7.056  -3.747 -11.227 -0.14 +0.13    +0.190 C 
DOCKED: BRANCH  36  37
DOCKED: ATOM     37  O   UNL d   1      -6.423  -4.444 -12.261 -0.13 -0.37    -0.399 OA
DOCKED: ATOM     38  H   UNL d   1      -6.584  -3.893 -13.078 +0.05 +0.24    +0.209 HD
DOCKED: ENDBRANCH  36  37
DOCKED: ENDBRANCH  29  36
DOCKED: BRANCH  22  39
DOCKED: ATOM     39  C   UNL d   1     -12.011  -3.703 -14.612 -0.01 +0.03    +0.052 C 
DOCKED: BRANCH  39  40
DOCKED: ATOM     40  C   UNL d   1     -11.665  -5.107 -15.133 -0.04 +0.07    +0.115 C 
DOCKED: BRANCH  40  41
DOCKED: ATOM     41  C   UNL d   1     -12.644  -6.186 -14.719 -0.04 +0.16    +0.139 C 
DOCKED: ATOM     42  O   UNL d   1     -12.232  -7.319 -14.509 -0.41 -1.25    -0.650 OA
DOCKED: BRANCH  41  43
DOCKED: ATOM     43  O   UNL d   1     -13.947  -5.912 -14.490 -0.05 -0.84    -0.776 OA
DOCKED: ATOM     44  H   UNL d   1     -14.424  -5.221 -14.966 +0.01 +0.11    +0.167 HD
DOCKED: ENDBRANCH  41  43
DOCKED: ENDBRANCH  40  41
DOCKED: ENDBRANCH  39  40
DOCKED: ENDBRANCH  22  39
DOCKED: BRANCH  12  45
DOCKED: ATOM     45  C   UNL d   1      -4.327  -0.214  -7.203 -0.30 +0.00    +0.004 C 
DOCKED: ATOM     46  C   UNL d   1      -3.158  -0.560  -6.669 -0.54 +0.00    +0.012 C 
DOCKED: ENDBRANCH  12  45
DOCKED: BRANCH  17  47
DOCKED: ATOM     47  C   UNL d   1     -10.708  -4.715  -6.900 -0.15 +0.00    +0.004 C 
DOCKED: ATOM     48  C   UNL d   1     -12.001  -4.420  -6.741 -0.24 +0.00    +0.012 C 
DOCKED: ENDBRANCH  17  47
DOCKED: TORSDOF 12
DOCKED: TER
DOCKED: ENDMDL
________________________________________________________________________________


	BEGINNING GENETIC ALGORITHM DOCKING 2 of 100
Run: 2 Seed: 2094628404 1624369625 [ Run 2 of 100 GA/GALS ]
Beginning LAMARCKIAN GENETIC ALGORITHM (LGA), with a maximum of 25000000 energy evaluations.

Final-Value: -12.849


	FINAL GENETIC ALGORITHM DOCKED STATE
	_______________________________________________


Detailed state:  trans -5.131 -11.308 12.598 quatxyzw -0.685532 -0.182976 -0.667285 0.226487 center 8.781 34.984 -0.736 ntor 12 -25.5292 88.4085 52.0215 25.2887 136.2350 124.0058 47.6033 -21.2777 1.4947 88.5404 -36.0074 167.7364
State:	 -5.131 -11.308  12.598  -0.704 -0.188 -0.685 153.819    -25.53   88.41   52.02   25.29  136.24  124.01   47.60  -21.28    1.49   88.54  -36.01  167.74

DOCKED: MODEL        2
DOCKED: USER    Run = 2
DOCKED: USER    DPF = D:/Protein_go_brrr/autodock/final/AncB/heme_Co/dock.dpf
DOCKED: USER  
DOCKED: USER    Estimated Free Energy of Binding    =   -7.48 kcal/mol  [=(1)+(2)+(3)-(4)]
DOCKED: USER    Estimated Inhibition Constant, Ki   =    3.29 uM (micromolar)  [Temperature = 298.15 K]
DOCKED: USER    
DOCKED: USER    (1) Final Intermolecular Energy     =  -11.06 kcal/mol
DOCKED: USER        vdW + Hbond + desolv Energy     =   -7.56 kcal/mol
DOCKED: USER        Electrostatic Energy            =   -3.50 kcal/mol
DOCKED: USER    (2) Final Total Internal Energy     =   -1.79 kcal/mol
DOCKED: USER    (3) Torsional Free Energy           =   +3.58 kcal/mol
DOCKED: USER    (4) Unbound System's Energy  [=(2)] =   -1.79 kcal/mol
DOCKED: USER    
DOCKED: USER    
DOCKED: USER    NEWDPF move heme_Co_opt.pdbqt
DOCKED: USER    NEWDPF about 8.781000 34.984000 -0.736000
DOCKED: USER    NEWDPF tran0 -5.131320 -11.307980 12.597728
DOCKED: USER    NEWDPF quaternion0 -0.685532 -0.182976 -0.667285 0.226487
DOCKED: USER    NEWDPF axisangle0 -0.703822 -0.187858 -0.685087 153.819354
DOCKED: USER    NEWDPF quat0 -0.703822 -0.187858 -0.685087 153.819354
DOCKED: USER    NEWDPF dihe0 -25.53 88.41 52.02 25.29 136.24 124.01 47.60 -21.28 1.49 88.54 -36.01 167.74 
DOCKED: USER  keepresnum = 1 
DOCKED: USER  
DOCKED: REMARK  12 active torsions:
DOCKED: REMARK  status: ('A' for Active; 'I' for Inactive)
DOCKED: REMARK    1  A    between atoms: C_6  and  C_10 
DOCKED: REMARK    2  A    between atoms: C_10  and  C_11 
DOCKED: REMARK    3  A    between atoms: C_11  and  C_12 
DOCKED: REMARK    4  A    between atoms: C_12  and  O_14 
DOCKED: REMARK    5  A    between atoms: C_17  and  C_20 
DOCKED: REMARK    6  A    between atoms: C_24  and  C_27 
DOCKED: REMARK    7  A    between atoms: C_31  and  C_34 
DOCKED: REMARK    8  A    between atoms: C_34  and  C_35 
DOCKED: REMARK    9  A    between atoms: C_35  and  C_36 
DOCKED: REMARK   10  A    between atoms: C_36  and  O_38 
DOCKED: REMARK   11  A    between atoms: FE_43  and  C_44 
DOCKED: REMARK   12  A    between atoms: C_44  and  O_45 
DOCKED: USER                              x       y       z     vdW  Elec       q    Type
DOCKED: USER                           _______ _______ _______ _____ _____    ______ ____
DOCKED: ROOT
DOCKED: ATOM      1  C   UNL d   1      -6.087 -12.736  11.270 -0.23 +0.03    +0.064 A 
DOCKED: ATOM      2  C   UNL d   1      -2.170 -10.079  10.817 -0.23 +0.01    +0.064 C 
DOCKED: ATOM      3  C   UNL d   1      -3.089  -7.945  14.992 -0.14 +0.01    +0.064 A 
DOCKED: ATOM      4  C   UNL d   1      -6.881 -10.917  15.662 -0.15 +0.04    +0.064 A 
DOCKED: ATOM      5  C   UNL d   1      -4.969 -12.141  10.823 -0.19 +0.03    +0.066 A 
DOCKED: ATOM      6  C   UNL d   1      -4.330 -12.549   9.635 -0.16 -0.01    -0.021 A 
DOCKED: ATOM      7  C   UNL d   1      -3.182 -11.790   9.520 -0.16 -0.01    -0.025 A 
DOCKED: ATOM      8  C   UNL d   1      -3.178 -10.941  10.633 -0.17 +0.02    +0.066 A 
DOCKED: ATOM      9  C   UNL d   1      -2.119 -11.850   8.413 -0.20 +0.01    +0.051 C 
DOCKED: ATOM     10  C   UNL d   1      -2.094  -9.149  11.916 -0.18 +0.02    +0.066 A 
DOCKED: ATOM     11  C   UNL d   1      -1.138  -8.125  12.090 -0.25 -0.00    -0.021 A 
DOCKED: ATOM     12  C   UNL d   1      -1.432  -7.516  13.313 -0.22 +0.00    +0.000 A 
DOCKED: ATOM     13  C   UNL d   1      -2.549  -8.203  13.788 -0.14 +0.02    +0.070 A 
DOCKED: ATOM     14  C   UNL d   1      -0.083  -7.711  11.097 -0.29 +0.01    +0.052 C 
DOCKED: ATOM     15  C   UNL d   1      -4.205  -8.588  15.657 -0.12 +0.02    +0.066 A 
DOCKED: ATOM     16  C   UNL d   1      -4.621  -8.371  16.963 -0.13 -0.00    -0.021 A 
DOCKED: ATOM     17  C   UNL d   1      -5.713  -9.228  17.161 -0.12 +0.00    +0.000 A 
DOCKED: ATOM     18  C   UNL d   1      -5.888  -9.891  15.951 -0.09 +0.04    +0.070 A 
DOCKED: ATOM     19  C   UNL d   1      -3.991  -7.398  17.934 -0.07 -0.00    +0.052 C 
DOCKED: ATOM     20  C   UNL d   1      -7.015 -11.637  14.522 -0.22 +0.04    +0.066 A 
DOCKED: ATOM     21  C   UNL d   1      -7.988 -12.623  14.375 -0.27 -0.01    -0.025 A 
DOCKED: ATOM     22  C   UNL d   1      -7.802 -13.145  13.108 -0.31 -0.01    -0.021 A 
DOCKED: ATOM     23  C   UNL d   1      -6.708 -12.454  12.545 -0.28 +0.04    +0.066 A 
DOCKED: ATOM     24  C   UNL d   1      -9.031 -13.062  15.399 -0.16 +0.02    +0.051 C 
DOCKED: ATOM     25  N   UNL d   1      -4.277 -11.133  11.453 -0.12 -0.10    -0.248 N 
DOCKED: ATOM     26  N   UNL d   1      -2.982  -9.153  12.916 -0.06 -0.08    -0.248 N 
DOCKED: ATOM     27  N   UNL d   1      -4.953  -9.507  15.088 -0.06 -0.15    -0.248 N 
DOCKED: ATOM     28  N   UNL d   1      -6.228 -11.541  13.398 -0.15 -0.15    -0.248 N 
DOCKED: ATOM     29 FE   UNL d   1      -4.638 -10.274  13.379 -0.05 +0.00    +0.000 Fe
DOCKED: ENDROOT
DOCKED: BRANCH   6  30
DOCKED: ATOM     30  C   UNL d   1      -4.770 -13.675   8.706 -0.15 +0.03    +0.052 C 
DOCKED: BRANCH  30  31
DOCKED: ATOM     31  C   UNL d   1      -6.261 -13.558   8.389 -0.24 +0.10    +0.115 C 
DOCKED: BRANCH  31  32
DOCKED: ATOM     32  C   UNL d   1      -6.741 -14.652   7.459 -0.24 +0.22    +0.139 C 
DOCKED: ATOM     33  O   UNL d   1      -6.570 -14.535   6.255 -0.21 -1.33    -0.650 OA
DOCKED: BRANCH  32  34
DOCKED: ATOM     34  O   UNL d   1      -7.315 -15.787   7.923 -0.41 -1.91    -0.776 OA
DOCKED: ATOM     35  H   UNL d   1      -7.114 -16.187   8.780 +0.02 +0.34    +0.167 HD
DOCKED: ENDBRANCH  32  34
DOCKED: ENDBRANCH  31  32
DOCKED: ENDBRANCH  30  31
DOCKED: ENDBRANCH   6  30
DOCKED: BRANCH  29  36
DOCKED: ATOM     36  C   UNL d   1      -3.401 -11.776  14.157 -0.03 +0.05    +0.190 C 
DOCKED: BRANCH  36  37
DOCKED: ATOM     37  O   UNL d   1      -2.987 -13.096  13.952 +0.00 -0.08    -0.399 OA
DOCKED: ATOM     38  H   UNL d   1      -3.730 -13.521  13.438 +0.02 +0.05    +0.209 HD
DOCKED: ENDBRANCH  36  37
DOCKED: ENDBRANCH  29  36
DOCKED: BRANCH  22  39
DOCKED: ATOM     39  C   UNL d   1      -8.592 -14.290  12.503 +0.03 +0.02    +0.052 C 
DOCKED: BRANCH  39  40
DOCKED: ATOM     40  C   UNL d   1      -7.911 -15.636  12.799 -0.18 +0.05    +0.115 C 
DOCKED: BRANCH  40  41
DOCKED: ATOM     41  C   UNL d   1      -7.034 -16.152  11.678 -0.12 +0.08    +0.139 C 
DOCKED: ATOM     42  O   UNL d   1      -5.833 -16.285  11.871 +0.03 -0.29    -0.650 OA
DOCKED: BRANCH  41  43
DOCKED: ATOM     43  O   UNL d   1      -7.553 -16.553  10.497 +0.01 -0.92    -0.776 OA
DOCKED: ATOM     44  H   UNL d   1      -8.081 -15.969   9.937 -0.24 +0.29    +0.167 HD
DOCKED: ENDBRANCH  41  43
DOCKED: ENDBRANCH  40  41
DOCKED: ENDBRANCH  39  40
DOCKED: ENDBRANCH  22  39
DOCKED: BRANCH  12  45
DOCKED: ATOM     45  C   UNL d   1      -0.800  -6.359  14.075 -0.32 +0.00    +0.004 C 
DOCKED: ATOM     46  C   UNL d   1       0.032  -5.405  13.667 -0.41 -0.00    +0.012 C 
DOCKED: ENDBRANCH  12  45
DOCKED: BRANCH  17  47
DOCKED: ATOM     47  C   UNL d   1      -6.523  -9.472  18.393 -0.07 +0.00    +0.004 C 
DOCKED: ATOM     48  C   UNL d   1      -7.816  -9.158  18.499 -0.12 +0.00    +0.012 C 
DOCKED: ENDBRANCH  17  47
DOCKED: TORSDOF 12
DOCKED: TER
DOCKED: ENDMDL
________________________________________________________________________________


	BEGINNING GENETIC ALGORITHM DOCKING 3 of 100
Run: 3 Seed: 6865718 864371486 [ Run 3 of 100 GA/GALS ]
Beginning LAMARCKIAN GENETIC ALGORITHM (LGA), with a maximum of 25000000 energy evaluations.

Final-Value: -12.225


	FINAL GENETIC ALGORITHM DOCKED STATE
	_______________________________________________


Detailed state:  trans -7.438 -1.640 -12.167 quatxyzw 0.003997 0.616785 -0.516100 0.594307 center 8.781 34.984 -0.736 ntor 12 -166.6208 112.2751 163.4932 83.7908 116.8926 135.5986 32.2813 151.5316 -176.1158 163.5914 -171.8938 -4.2683
State:	 -7.438  -1.640 -12.167   0.005  0.767 -0.642 107.073   -166.62  112.28  163.49   83.79  116.89  135.60   32.28  151.53 -176.12  163.59 -171.89   -4.27

DOCKED: MODEL        3
DOCKED: USER    Run = 3
DOCKED: USER    DPF = D:/Protein_go_brrr/autodock/final/AncB/heme_Co/dock.dpf
DOCKED: USER  
DOCKED: USER    Estimated Free Energy of Binding    =   -6.38 kcal/mol  [=(1)+(2)+(3)-(4)]
DOCKED: USER    Estimated Inhibition Constant, Ki   =   21.11 uM (micromolar)  [Temperature = 298.15 K]
DOCKED: USER    
DOCKED: USER    (1) Final Intermolecular Energy     =   -9.96 kcal/mol
DOCKED: USER        vdW + Hbond + desolv Energy     =   -7.01 kcal/mol
DOCKED: USER        Electrostatic Energy            =   -2.95 kcal/mol
DOCKED: USER    (2) Final Total Internal Energy     =   -2.27 kcal/mol
DOCKED: USER    (3) Torsional Free Energy           =   +3.58 kcal/mol
DOCKED: USER    (4) Unbound System's Energy  [=(2)] =   -2.27 kcal/mol
DOCKED: USER    
DOCKED: USER    
DOCKED: USER    NEWDPF move heme_Co_opt.pdbqt
DOCKED: USER    NEWDPF about 8.781000 34.984000 -0.736000
DOCKED: USER    NEWDPF tran0 -7.437833 -1.640087 -12.166927
DOCKED: USER    NEWDPF quaternion0 0.003997 0.616785 -0.516100 0.594307
DOCKED: USER    NEWDPF axisangle0 0.004969 0.766918 -0.641726 107.073456
DOCKED: USER    NEWDPF quat0 0.004969 0.766918 -0.641726 107.073456
DOCKED: USER    NEWDPF dihe0 -166.62 112.28 163.49 83.79 116.89 135.60 32.28 151.53 -176.12 163.59 -171.89 -4.27 
DOCKED: USER  keepresnum = 1 
DOCKED: USER  
DOCKED: REMARK  12 active torsions:
DOCKED: REMARK  status: ('A' for Active; 'I' for Inactive)
DOCKED: REMARK    1  A    between atoms: C_6  and  C_10 
DOCKED: REMARK    2  A    between atoms: C_10  and  C_11 
DOCKED: REMARK    3  A    between atoms: C_11  and  C_12 
DOCKED: REMARK    4  A    between atoms: C_12  and  O_14 
DOCKED: REMARK    5  A    between atoms: C_17  and  C_20 
DOCKED: REMARK    6  A    between atoms: C_24  and  C_27 
DOCKED: REMARK    7  A    between atoms: C_31  and  C_34 
DOCKED: REMARK    8  A    between atoms: C_34  and  C_35 
DOCKED: REMARK    9  A    between atoms: C_35  and  C_36 
DOCKED: REMARK   10  A    between atoms: C_36  and  O_38 
DOCKED: REMARK   11  A    between atoms: FE_43  and  C_44 
DOCKED: REMARK   12  A    between atoms: C_44  and  O_45 
DOCKED: USER                              x       y       z     vdW  Elec       q    Type
DOCKED: USER                           _______ _______ _______ _____ _____    ______ ____
DOCKED: ROOT
DOCKED: ATOM      1  C   UNL d   1      -6.547  -2.066 -14.101 +0.13 +0.09    +0.064 A 
DOCKED: ATOM      2  C   UNL d   1      -8.051  -4.891 -10.584 -0.33 +0.03    +0.064 C 
DOCKED: ATOM      3  C   UNL d   1      -8.964  -1.074  -7.858 -0.18 +0.02    +0.064 A 
DOCKED: ATOM      4  C   UNL d   1      -7.797   1.841 -11.574 -0.07 +0.04    +0.064 A 
DOCKED: ATOM      5  C   UNL d   1      -6.857  -3.120 -13.327 -0.13 +0.08    +0.066 A 
DOCKED: ATOM      6  C   UNL d   1      -6.790  -4.443 -13.804 -0.17 -0.02    -0.021 A 
DOCKED: ATOM      7  C   UNL d   1      -7.249  -5.257 -12.787 -0.26 -0.02    -0.025 A 
DOCKED: ATOM      8  C   UNL d   1      -7.561  -4.397 -11.728 -0.22 +0.04    +0.066 A 
DOCKED: ATOM      9  C   UNL d   1      -7.396  -6.786 -12.797 -0.32 +0.03    +0.051 C 
DOCKED: ATOM     10  C   UNL d   1      -8.376  -4.087  -9.432 -0.24 +0.03    +0.066 A 
DOCKED: ATOM     11  C   UNL d   1      -8.760  -4.557  -8.157 -0.37 -0.01    -0.021 A 
DOCKED: ATOM     12  C   UNL d   1      -9.017  -3.423  -7.381 -0.32 +0.00    +0.000 A 
DOCKED: ATOM     13  C   UNL d   1      -8.758  -2.349  -8.233 -0.18 +0.02    +0.070 A 
DOCKED: ATOM     14  C   UNL d   1      -8.781  -5.994  -7.705 -0.54 +0.01    +0.052 C 
DOCKED: ATOM     15  C   UNL d   1      -8.801   0.147  -8.623 -0.14 +0.02    +0.066 A 
DOCKED: ATOM     16  C   UNL d   1      -9.170   1.424  -8.223 -0.20 -0.00    -0.021 A 
DOCKED: ATOM     17  C   UNL d   1      -8.838   2.268  -9.292 -0.14 +0.00    +0.000 A 
DOCKED: ATOM     18  C   UNL d   1      -8.274   1.439 -10.256 -0.08 +0.03    +0.070 A 
DOCKED: ATOM     19  C   UNL d   1      -9.801   1.779  -6.895 -0.22 +0.01    +0.052 C 
DOCKED: ATOM     20  C   UNL d   1      -7.326   1.042 -12.560 -0.05 +0.05    +0.066 A 
DOCKED: ATOM     21  C   UNL d   1      -6.931   1.543 -13.798 -0.06 -0.02    -0.025 A 
DOCKED: ATOM     22  C   UNL d   1      -6.538   0.442 -14.538 -0.05 -0.02    -0.021 A 
DOCKED: ATOM     23  C   UNL d   1      -6.726  -0.686 -13.711 -0.06 +0.07    +0.066 A 
DOCKED: ATOM     24  C   UNL d   1      -6.945   2.997 -14.263 -0.09 +0.05    +0.051 C 
DOCKED: ATOM     25  N   UNL d   1      -7.322  -3.068 -12.032 -0.09 -0.19    -0.248 N 
DOCKED: ATOM     26  N   UNL d   1      -8.317  -2.752  -9.455 -0.09 -0.10    -0.248 N 
DOCKED: ATOM     27  N   UNL d   1      -8.296   0.179  -9.836 -0.04 -0.09    -0.248 N 
DOCKED: ATOM     28  N   UNL d   1      -7.205  -0.328 -12.514 -0.02 -0.19    -0.248 N 
DOCKED: ATOM     29 FE   UNL d   1      -7.836  -1.346 -10.872 -0.02 +0.00    +0.000 Fe
DOCKED: ENDROOT
DOCKED: BRANCH   6  30
DOCKED: ATOM     30  C   UNL d   1      -6.379  -4.885 -15.205 -0.16 +0.06    +0.052 C 
DOCKED: BRANCH  30  31
DOCKED: ATOM     31  C   UNL d   1      -7.588  -4.898 -16.140 -0.05 +0.09    +0.115 C 
DOCKED: BRANCH  31  32
DOCKED: ATOM     32  C   UNL d   1      -8.853  -4.427 -15.454 -0.02 +0.08    +0.139 C 
DOCKED: ATOM     33  O   UNL d   1      -9.637  -5.252 -15.008 +0.03 -0.39    -0.650 OA
DOCKED: BRANCH  32  34
DOCKED: ATOM     34  O   UNL d   1      -9.126  -3.114 -15.274 +0.03 -0.44    -0.776 OA
DOCKED: ATOM     35  H   UNL d   1      -9.854  -2.779 -14.733 +0.01 +0.08    +0.167 HD
DOCKED: ENDBRANCH  32  34
DOCKED: ENDBRANCH  31  32
DOCKED: ENDBRANCH  30  31
DOCKED: ENDBRANCH   6  30
DOCKED: BRANCH  29  36
DOCKED: ATOM     36  C   UNL d   1      -9.761  -1.512 -11.686 -0.01 +0.08    +0.190 C 
DOCKED: BRANCH  36  37
DOCKED: ATOM     37  O   UNL d   1     -10.478  -2.076 -12.746 +0.00 -0.17    -0.399 OA
DOCKED: ATOM     38  H   UNL d   1      -9.793  -2.553 -13.294 +0.02 +0.10    +0.209 HD
DOCKED: ENDBRANCH  36  37
DOCKED: ENDBRANCH  29  36
DOCKED: BRANCH  22  39
DOCKED: ATOM     39  C   UNL d   1      -6.071   0.473 -15.981 -0.03 +0.05    +0.052 C 
DOCKED: BRANCH  39  40
DOCKED: ATOM     40  C   UNL d   1      -4.535   0.488 -16.054 -0.06 +0.14    +0.115 C 
DOCKED: BRANCH  40  41
DOCKED: ATOM     41  C   UNL d   1      -3.854   0.987 -14.797 -0.11 +0.22    +0.139 C 
DOCKED: ATOM     42  O   UNL d   1      -3.932   2.172 -14.505 -0.53 -1.52    -0.650 OA
DOCKED: BRANCH  41  43
DOCKED: ATOM     43  O   UNL d   1      -3.236   0.143 -13.941 -0.05 -1.55    -0.776 OA
DOCKED: ATOM     44  H   UNL d   1      -2.679   0.455 -13.216 +0.04 +0.27    +0.167 HD
DOCKED: ENDBRANCH  41  43
DOCKED: ENDBRANCH  40  41
DOCKED: ENDBRANCH  39  40
DOCKED: ENDBRANCH  22  39
DOCKED: BRANCH  12  45
DOCKED: ATOM     45  C   UNL d   1      -9.455  -3.231  -5.935 -0.50 +0.00    +0.004 C 
DOCKED: ATOM     46  C   UNL d   1      -8.774  -3.358  -4.800 -0.64 +0.00    +0.012 C 
DOCKED: ENDBRANCH  12  45
DOCKED: BRANCH  17  47
DOCKED: ATOM     47  C   UNL d   1      -9.063   3.735  -9.455 -0.15 +0.00    +0.004 C 
DOCKED: ATOM     48  C   UNL d   1      -8.143   4.659  -9.165 -0.28 +0.00    +0.012 C 
DOCKED: ENDBRANCH  17  47
DOCKED: TORSDOF 12
DOCKED: TER
DOCKED: ENDMDL
________________________________________________________________________________


	BEGINNING GENETIC ALGORITHM DOCKING 4 of 100
Run: 4 Seed: 193203129 220293081 [ Run 4 of 100 GA/GALS ]
Beginning LAMARCKIAN GENETIC ALGORITHM (LGA), with a maximum of 25000000 energy evaluations.

Final-Value: -11.496


	FINAL GENETIC ALGORITHM DOCKED STATE
	_______________________________________________


Detailed state:  trans 0.887 -4.032 -17.658 quatxyzw 0.748418 0.083103 0.037151 0.656950 center 8.781 34.984 -0.736 ntor 12 35.0663 87.9879 -50.3605 -90.0341 134.0575 158.1616 -123.3700 178.7797 79.1033 41.2454 25.5860 121.4991
State:	  0.887  -4.032 -17.658   0.993  0.110  0.049 97.865     35.07   87.99  -50.36  -90.03  134.06  158.16 -123.37  178.78   79.10   41.25   25.59  121.50

DOCKED: MODEL        4
DOCKED: USER    Run = 4
DOCKED: USER    DPF = D:/Protein_go_brrr/autodock/final/AncB/heme_Co/dock.dpf
DOCKED: USER  
DOCKED: USER    Estimated Free Energy of Binding    =   -6.24 kcal/mol  [=(1)+(2)+(3)-(4)]
DOCKED: USER    Estimated Inhibition Constant, Ki   =   26.59 uM (micromolar)  [Temperature = 298.15 K]
DOCKED: USER    
DOCKED: USER    (1) Final Intermolecular Energy     =   -9.82 kcal/mol
DOCKED: USER        vdW + Hbond + desolv Energy     =   -6.41 kcal/mol
DOCKED: USER        Electrostatic Energy            =   -3.41 kcal/mol
DOCKED: USER    (2) Final Total Internal Energy     =   -1.67 kcal/mol
DOCKED: USER    (3) Torsional Free Energy           =   +3.58 kcal/mol
DOCKED: USER    (4) Unbound System's Energy  [=(2)] =   -1.67 kcal/mol
DOCKED: USER    
DOCKED: USER    
DOCKED: USER    NEWDPF move heme_Co_opt.pdbqt
DOCKED: USER    NEWDPF about 8.781000 34.984000 -0.736000
DOCKED: USER    NEWDPF tran0 0.886850 -4.031618 -17.657506
DOCKED: USER    NEWDPF quaternion0 0.748418 0.083103 0.037151 0.656950
DOCKED: USER    NEWDPF axisangle0 0.992684 0.110226 0.049276 97.864614
DOCKED: USER    NEWDPF quat0 0.992684 0.110226 0.049276 97.864614
DOCKED: USER    NEWDPF dihe0 35.07 87.99 -50.36 -90.03 134.06 158.16 -123.37 178.78 79.10 41.25 25.59 121.50 
DOCKED: USER  keepresnum = 1 
DOCKED: USER  
DOCKED: REMARK  12 active torsions:
DOCKED: REMARK  status: ('A' for Active; 'I' for Inactive)
DOCKED: REMARK    1  A    between atoms: C_6  and  C_10 
DOCKED: REMARK    2  A    between atoms: C_10  and  C_11 
DOCKED: REMARK    3  A    between atoms: C_11  and  C_12 
DOCKED: REMARK    4  A    between atoms: C_12  and  O_14 
DOCKED: REMARK    5  A    between atoms: C_17  and  C_20 
DOCKED: REMARK    6  A    between atoms: C_24  and  C_27 
DOCKED: REMARK    7  A    between atoms: C_31  and  C_34 
DOCKED: REMARK    8  A    between atoms: C_34  and  C_35 
DOCKED: REMARK    9  A    between atoms: C_35  and  C_36 
DOCKED: REMARK   10  A    between atoms: C_36  and  O_38 
DOCKED: REMARK   11  A    between atoms: FE_43  and  C_44 
DOCKED: REMARK   12  A    between atoms: C_44  and  O_45 
DOCKED: USER                              x       y       z     vdW  Elec       q    Type
DOCKED: USER                           _______ _______ _______ _____ _____    ______ ____
DOCKED: ROOT
DOCKED: ATOM      1  C   UNL d   1      -0.884  -5.080 -18.350 -0.18 +0.04    +0.064 A 
DOCKED: ATOM      2  C   UNL d   1      -0.307  -0.962 -16.044 -0.12 +0.06    +0.064 C 
DOCKED: ATOM      3  C   UNL d   1       4.392  -1.762 -15.715 -0.18 +0.01    +0.064 A 
DOCKED: ATOM      4  C   UNL d   1       3.883  -5.783 -18.405 -0.04 +0.00    +0.064 A 
DOCKED: ATOM      5  C   UNL d   1      -1.077  -3.914 -17.712 -0.16 +0.05    +0.066 A 
DOCKED: ATOM      6  C   UNL d   1      -2.340  -3.294 -17.653 -0.12 -0.02    -0.021 A 
DOCKED: ATOM      7  C   UNL d   1      -2.162  -2.089 -17.003 -0.01 -0.03    -0.025 A 
DOCKED: ATOM      8  C   UNL d   1      -0.803  -2.032 -16.679 -0.12 +0.07    +0.066 A 
DOCKED: ATOM      9  C   UNL d   1      -3.222  -1.021 -16.692 +0.01 +0.08    +0.051 C 
DOCKED: ATOM     10  C   UNL d   1       1.072  -0.827 -15.647 -0.10 +0.04    +0.066 A 
DOCKED: ATOM     11  C   UNL d   1       1.625   0.205 -14.857 -0.15 -0.01    -0.021 A 
DOCKED: ATOM     12  C   UNL d   1       2.996  -0.055 -14.774 -0.23 +0.00    +0.000 A 
DOCKED: ATOM     13  C   UNL d   1       3.175  -1.229 -15.506 -0.14 +0.02    +0.070 A 
DOCKED: ATOM     14  C   UNL d   1       0.862   1.301 -14.159 -0.21 +0.04    +0.052 C 
DOCKED: ATOM     15  C   UNL d   1       4.764  -2.932 -16.485 -0.14 +0.01    +0.066 A 
DOCKED: ATOM     16  C   UNL d   1       6.055  -3.346 -16.783 -0.14 -0.00    -0.021 A 
DOCKED: ATOM     17  C   UNL d   1       5.913  -4.504 -17.561 -0.13 +0.00    +0.000 A 
DOCKED: ATOM     18  C   UNL d   1       4.542  -4.716 -17.662 -0.16 +0.01    +0.070 A 
DOCKED: ATOM     19  C   UNL d   1       7.323  -2.653 -16.336 -0.25 +0.01    +0.052 C 
DOCKED: ATOM     20  C   UNL d   1       2.553  -5.959 -18.590 -0.15 +0.01    +0.066 A 
DOCKED: ATOM     21  C   UNL d   1       2.040  -7.004 -19.356 -0.19 -0.01    -0.025 A 
DOCKED: ATOM     22  C   UNL d   1       0.667  -6.844 -19.334 -0.20 -0.01    -0.021 A 
DOCKED: ATOM     23  C   UNL d   1       0.408  -5.693 -18.560 -0.20 +0.03    +0.066 A 
DOCKED: ATOM     24  C   UNL d   1       2.821  -8.091 -20.090 -0.16 +0.01    +0.051 C 
DOCKED: ATOM     25  N   UNL d   1      -0.107  -3.152 -17.101 -0.10 -0.18    -0.248 N 
DOCKED: ATOM     26  N   UNL d   1       2.003  -1.724 -15.986 -0.02 -0.12    -0.248 N 
DOCKED: ATOM     27  N   UNL d   1       3.888  -3.743 -17.036 -0.06 -0.05    -0.248 N 
DOCKED: ATOM     28  N   UNL d   1       1.547  -5.153 -18.110 -0.15 -0.08    -0.248 N 
DOCKED: ATOM     29 FE   UNL d   1       2.009  -3.469 -17.068 -0.04 +0.00    +0.000 Fe
DOCKED: ENDROOT
DOCKED: BRANCH   6  30
DOCKED: ATOM     30  C   UNL d   1      -3.636  -3.810 -18.270 -0.11 +0.05    +0.052 C 
DOCKED: BRANCH  30  31
DOCKED: ATOM     31  C   UNL d   1      -4.604  -4.270 -17.181 -0.14 +0.14    +0.115 C 
DOCKED: BRANCH  31  32
DOCKED: ATOM     32  C   UNL d   1      -4.648  -5.777 -17.046 -0.18 +0.20    +0.139 C 
DOCKED: ATOM     33  O   UNL d   1      -4.124  -6.309 -16.079 -0.09 -0.95    -0.650 OA
DOCKED: BRANCH  32  34
DOCKED: ATOM     34  O   UNL d   1      -5.295  -6.558 -17.942 +0.08 -1.55    -0.776 OA
DOCKED: ATOM     35  H   UNL d   1      -5.392  -6.344 -18.880 +0.01 +0.27    +0.167 HD
DOCKED: ENDBRANCH  32  34
DOCKED: ENDBRANCH  31  32
DOCKED: ENDBRANCH  30  31
DOCKED: ENDBRANCH   6  30
DOCKED: BRANCH  29  36
DOCKED: ATOM     36  C   UNL d   1       2.089  -2.362 -18.847 -0.04 +0.07    +0.190 C 
DOCKED: BRANCH  36  37
DOCKED: ATOM     37  O   UNL d   1       1.300  -1.631 -19.741 +0.00 -0.14    -0.399 OA
DOCKED: ATOM     38  H   UNL d   1       0.379  -1.999 -19.630 +0.01 +0.09    +0.209 HD
DOCKED: ENDBRANCH  36  37
DOCKED: ENDBRANCH  29  36
DOCKED: BRANCH  22  39
DOCKED: ATOM     39  C   UNL d   1      -0.332  -7.714 -20.073 -0.17 +0.03    +0.052 C 
DOCKED: BRANCH  39  40
DOCKED: ATOM     40  C   UNL d   1      -1.421  -6.852 -20.732 -0.11 +0.08    +0.115 C 
DOCKED: BRANCH  40  41
DOCKED: ATOM     41  C   UNL d   1      -2.799  -7.479 -20.735 +0.06 +0.18    +0.139 C 
DOCKED: ATOM     42  O   UNL d   1      -2.916  -8.664 -21.014 -0.18 -0.88    -0.650 OA
DOCKED: BRANCH  41  43
DOCKED: ATOM     43  O   UNL d   1      -3.895  -6.788 -20.353 -0.52 -1.24    -0.776 OA
DOCKED: ATOM     44  H   UNL d   1      -3.906  -6.223 -19.569 +0.01 +0.26    +0.167 HD
DOCKED: ENDBRANCH  41  43
DOCKED: ENDBRANCH  40  41
DOCKED: ENDBRANCH  39  40
DOCKED: ENDBRANCH  22  39
DOCKED: BRANCH  12  45
DOCKED: ATOM     45  C   UNL d   1       4.147   0.656 -14.075 -0.45 +0.00    +0.004 C 
DOCKED: ATOM     46  C   UNL d   1       5.052   1.509 -14.546 -0.54 +0.00    +0.012 C 
DOCKED: ENDBRANCH  12  45
DOCKED: BRANCH  17  47
DOCKED: ATOM     47  C   UNL d   1       6.957  -5.345 -18.218 -0.09 +0.00    +0.004 C 
DOCKED: ATOM     48  C   UNL d   1       7.236  -6.597 -17.848 -0.14 +0.00    +0.012 C 
DOCKED: ENDBRANCH  17  47
DOCKED: TORSDOF 12
DOCKED: TER
DOCKED: ENDMDL
________________________________________________________________________________


	BEGINNING GENETIC ALGORITHM DOCKING 5 of 100
Run: 5 Seed: 314185306 431445379 [ Run 5 of 100 GA/GALS ]
Beginning LAMARCKIAN GENETIC ALGORITHM (LGA), with a maximum of 25000000 energy evaluations.

Final-Value: -12.149


	FINAL GENETIC ALGORITHM DOCKED STATE
	_______________________________________________


Detailed state:  trans -7.403 -1.492 -12.211 quatxyzw -0.008870 -0.607651 0.507457 -0.610875 center 8.781 34.984 -0.736 ntor 12 -133.6016 98.5932 117.2956 62.2021 93.9187 133.6425 46.0130 -22.9749 153.9759 177.0694 -161.5728 -10.5221
State:	 -7.403  -1.492 -12.211  -0.011 -0.768  0.641 -104.694   -133.60   98.59  117.30   62.20   93.92  133.64   46.01  -22.97  153.98  177.07 -161.57  -10.52

DOCKED: MODEL        5
DOCKED: USER    Run = 5
DOCKED: USER    DPF = D:/Protein_go_brrr/autodock/final/AncB/heme_Co/dock.dpf
DOCKED: USER  
DOCKED: USER    Estimated Free Energy of Binding    =   -6.33 kcal/mol  [=(1)+(2)+(3)-(4)]
DOCKED: USER    Estimated Inhibition Constant, Ki   =   23.03 uM (micromolar)  [Temperature = 298.15 K]
DOCKED: USER    
DOCKED: USER    (1) Final Intermolecular Energy     =   -9.91 kcal/mol
DOCKED: USER        vdW + Hbond + desolv Energy     =   -7.04 kcal/mol
DOCKED: USER        Electrostatic Energy            =   -2.87 kcal/mol
DOCKED: USER    (2) Final Total Internal Energy     =   -2.24 kcal/mol
DOCKED: USER    (3) Torsional Free Energy           =   +3.58 kcal/mol
DOCKED: USER    (4) Unbound System's Energy  [=(2)] =   -2.24 kcal/mol
DOCKED: USER    
DOCKED: USER    
DOCKED: USER    NEWDPF move heme_Co_opt.pdbqt
DOCKED: USER    NEWDPF about 8.781000 34.984000 -0.736000
DOCKED: USER    NEWDPF tran0 -7.402904 -1.491746 -12.210575
DOCKED: USER    NEWDPF quaternion0 -0.008870 -0.607651 0.507457 -0.610875
DOCKED: USER    NEWDPF axisangle0 -0.011203 -0.767501 0.640950 -104.694384
DOCKED: USER    NEWDPF quat0 -0.011203 -0.767501 0.640950 -104.694384
DOCKED: USER    NEWDPF dihe0 -133.60 98.59 117.30 62.20 93.92 133.64 46.01 -22.97 153.98 177.07 -161.57 -10.52 
DOCKED: USER  keepresnum = 1 
DOCKED: USER  
DOCKED: REMARK  12 active torsions:
DOCKED: REMARK  status: ('A' for Active; 'I' for Inactive)
DOCKED: REMARK    1  A    between atoms: C_6  and  C_10 
DOCKED: REMARK    2  A    between atoms: C_10  and  C_11 
DOCKED: REMARK    3  A    between atoms: C_11  and  C_12 
DOCKED: REMARK    4  A    between atoms: C_12  and  O_14 
DOCKED: REMARK    5  A    between atoms: C_17  and  C_20 
DOCKED: REMARK    6  A    between atoms: C_24  and  C_27 
DOCKED: REMARK    7  A    between atoms: C_31  and  C_34 
DOCKED: REMARK    8  A    between atoms: C_34  and  C_35 
DOCKED: REMARK    9  A    between atoms: C_35  and  C_36 
DOCKED: REMARK   10  A    between atoms: C_36  and  O_38 
DOCKED: REMARK   11  A    between atoms: FE_43  and  C_44 
DOCKED: REMARK   12  A    between atoms: C_44  and  O_45 
DOCKED: USER                              x       y       z     vdW  Elec       q    Type
DOCKED: USER                           _______ _______ _______ _____ _____    ______ ____
DOCKED: ROOT
DOCKED: ATOM      1  C   UNL d   1      -6.578  -1.955 -14.165 +0.05 +0.09    +0.064 A 
DOCKED: ATOM      2  C   UNL d   1      -8.083  -4.714 -10.596 -0.31 +0.03    +0.064 C 
DOCKED: ATOM      3  C   UNL d   1      -8.796  -0.858  -7.867 -0.19 +0.02    +0.064 A 
DOCKED: ATOM      4  C   UNL d   1      -7.630   2.002 -11.625 -0.09 +0.04    +0.064 A 
DOCKED: ATOM      5  C   UNL d   1      -6.902  -2.994 -13.378 -0.12 +0.08    +0.066 A 
DOCKED: ATOM      6  C   UNL d   1      -6.892  -4.321 -13.850 -0.16 -0.02    -0.021 A 
DOCKED: ATOM      7  C   UNL d   1      -7.351  -5.115 -12.818 -0.24 -0.02    -0.025 A 
DOCKED: ATOM      8  C   UNL d   1      -7.606  -4.242 -11.755 -0.20 +0.04    +0.066 A 
DOCKED: ATOM      9  C   UNL d   1      -7.549  -6.639 -12.817 -0.29 +0.03    +0.051 C 
DOCKED: ATOM     10  C   UNL d   1      -8.350  -3.895  -9.440 -0.23 +0.03    +0.066 A 
DOCKED: ATOM     11  C   UNL d   1      -8.716  -4.346  -8.153 -0.34 -0.01    -0.021 A 
DOCKED: ATOM     12  C   UNL d   1      -8.914  -3.202  -7.376 -0.31 +0.00    +0.000 A 
DOCKED: ATOM     13  C   UNL d   1      -8.642  -2.140  -8.240 -0.18 +0.02    +0.070 A 
DOCKED: ATOM     14  C   UNL d   1      -8.774  -5.781  -7.694 -0.53 +0.01    +0.052 C 
DOCKED: ATOM     15  C   UNL d   1      -8.612   0.354  -8.641 -0.15 +0.02    +0.066 A 
DOCKED: ATOM     16  C   UNL d   1      -8.928   1.644  -8.238 -0.22 -0.00    -0.021 A 
DOCKED: ATOM     17  C   UNL d   1      -8.595   2.472  -9.319 -0.16 +0.00    +0.000 A 
DOCKED: ATOM     18  C   UNL d   1      -8.085   1.621 -10.294 -0.09 +0.03    +0.070 A 
DOCKED: ATOM     19  C   UNL d   1      -9.511   2.026  -6.896 -0.13 +0.01    +0.052 C 
DOCKED: ATOM     20  C   UNL d   1      -7.212   1.183 -12.619 -0.06 +0.05    +0.066 A 
DOCKED: ATOM     21  C   UNL d   1      -6.833   1.666 -13.870 -0.07 -0.02    -0.025 A 
DOCKED: ATOM     22  C   UNL d   1      -6.497   0.550 -14.614 -0.05 -0.02    -0.021 A 
DOCKED: ATOM     23  C   UNL d   1      -6.700  -0.568 -13.778 -0.06 +0.07    +0.066 A 
DOCKED: ATOM     24  C   UNL d   1      -6.811   3.117 -14.341 -0.08 +0.05    +0.051 C 
DOCKED: ATOM     25  N   UNL d   1      -7.331  -2.922 -12.072 -0.08 -0.19    -0.248 N 
DOCKED: ATOM     26  N   UNL d   1      -8.247  -2.562  -9.471 -0.09 -0.10    -0.248 N 
DOCKED: ATOM     27  N   UNL d   1      -8.139   0.364  -9.867 -0.04 -0.10    -0.248 N 
DOCKED: ATOM     28  N   UNL d   1      -7.135  -0.189 -12.570 -0.02 -0.19    -0.248 N 
DOCKED: ATOM     29 FE   UNL d   1      -7.757  -1.180 -10.907 -0.02 +0.00    +0.000 Fe
DOCKED: ENDROOT
DOCKED: BRANCH   6  30
DOCKED: ATOM     30  C   UNL d   1      -6.534  -4.783 -15.259 -0.15 +0.05    +0.052 C 
DOCKED: BRANCH  30  31
DOCKED: ATOM     31  C   UNL d   1      -7.691  -4.519 -16.221 -0.04 +0.08    +0.115 C 
DOCKED: BRANCH  31  32
DOCKED: ATOM     32  C   UNL d   1      -9.035  -4.534 -15.525 -0.02 +0.08    +0.139 C 
DOCKED: ATOM     33  O   UNL d   1      -9.599  -5.600 -15.328 +0.03 -0.39    -0.650 OA
DOCKED: BRANCH  32  34
DOCKED: ATOM     34  O   UNL d   1      -9.618  -3.401 -15.067 +0.03 -0.41    -0.776 OA
DOCKED: ATOM     35  H   UNL d   1     -10.067  -3.328 -14.213 +0.02 +0.09    +0.167 HD
DOCKED: ENDBRANCH  32  34
DOCKED: ENDBRANCH  31  32
DOCKED: ENDBRANCH  30  31
DOCKED: ENDBRANCH   6  30
DOCKED: BRANCH  29  36
DOCKED: ATOM     36  C   UNL d   1      -9.707  -1.284 -11.670 -0.01 +0.08    +0.190 C 
DOCKED: BRANCH  36  37
DOCKED: ATOM     37  O   UNL d   1     -10.465  -1.804 -12.724 +0.00 -0.16    -0.399 OA
DOCKED: ATOM     38  H   UNL d   1      -9.795  -2.077 -13.411 +0.01 +0.10    +0.209 HD
DOCKED: ENDBRANCH  36  37
DOCKED: ENDBRANCH  29  36
DOCKED: BRANCH  22  39
DOCKED: ATOM     39  C   UNL d   1      -6.067   0.559 -16.069 -0.03 +0.05    +0.052 C 
DOCKED: BRANCH  39  40
DOCKED: ATOM     40  C   UNL d   1      -4.538   0.679 -16.183 -0.05 +0.13    +0.115 C 
DOCKED: BRANCH  40  41
DOCKED: ATOM     41  C   UNL d   1      -3.834   0.962 -14.872 -0.11 +0.22    +0.139 C 
DOCKED: ATOM     42  O   UNL d   1      -3.071   0.126 -14.410 -0.20 -1.29    -0.650 OA
DOCKED: BRANCH  41  43
DOCKED: ATOM     43  O   UNL d   1      -3.959   2.151 -14.242 -0.44 -1.77    -0.776 OA
DOCKED: ATOM     44  H   UNL d   1      -4.271   2.225 -13.330 +0.02 +0.33    +0.167 HD
DOCKED: ENDBRANCH  41  43
DOCKED: ENDBRANCH  40  41
DOCKED: ENDBRANCH  39  40
DOCKED: ENDBRANCH  22  39
DOCKED: BRANCH  12  45
DOCKED: ATOM     45  C   UNL d   1      -9.308  -2.990  -5.921 -0.50 +0.00    +0.004 C 
DOCKED: ATOM     46  C   UNL d   1      -8.775  -3.471  -4.801 -0.63 +0.00    +0.012 C 
DOCKED: ENDBRANCH  12  45
DOCKED: BRANCH  17  47
DOCKED: ATOM     47  C   UNL d   1      -8.776   3.946  -9.483 -0.18 +0.00    +0.004 C 
DOCKED: ATOM     48  C   UNL d   1      -8.041   4.855  -8.838 -0.32 +0.00    +0.012 C 
DOCKED: ENDBRANCH  17  47
DOCKED: TORSDOF 12
DOCKED: TER
DOCKED: ENDMDL
________________________________________________________________________________


	BEGINNING GENETIC ALGORITHM DOCKING 6 of 100
Run: 6 Seed: 541293044 2077966504 [ Run 6 of 100 GA/GALS ]
Beginning LAMARCKIAN GENETIC ALGORITHM (LGA), with a maximum of 25000000 energy evaluations.

Final-Value: -12.193


	FINAL GENETIC ALGORITHM DOCKED STATE
	_______________________________________________


Detailed state:  trans -4.792 1.582 -13.491 quatxyzw -0.378330 0.479633 -0.740139 0.281092 center 8.781 34.984 -0.736 ntor 12 -91.8284 103.8513 97.3912 0.4308 87.9974 117.3292 40.7372 175.9525 167.9780 146.0810 -168.0169 7.2227
State:	 -4.792   1.582 -13.491  -0.394  0.500 -0.771 147.349    -91.83  103.85   97.39    0.43   88.00  117.33   40.74  175.95  167.98  146.08 -168.02    7.22

DOCKED: MODEL        6
DOCKED: USER    Run = 6
DOCKED: USER    DPF = D:/Protein_go_brrr/autodock/final/AncB/heme_Co/dock.dpf
DOCKED: USER  
DOCKED: USER    Estimated Free Energy of Binding    =   -6.44 kcal/mol  [=(1)+(2)+(3)-(4)]
DOCKED: USER    Estimated Inhibition Constant, Ki   =   18.99 uM (micromolar)  [Temperature = 298.15 K]
DOCKED: USER    
DOCKED: USER    (1) Final Intermolecular Energy     =  -10.02 kcal/mol
DOCKED: USER        vdW + Hbond + desolv Energy     =   -6.35 kcal/mol
DOCKED: USER        Electrostatic Energy            =   -3.67 kcal/mol
DOCKED: USER    (2) Final Total Internal Energy     =   -2.17 kcal/mol
DOCKED: USER    (3) Torsional Free Energy           =   +3.58 kcal/mol
DOCKED: USER    (4) Unbound System's Energy  [=(2)] =   -2.17 kcal/mol
DOCKED: USER    
DOCKED: USER    
DOCKED: USER    NEWDPF move heme_Co_opt.pdbqt
DOCKED: USER    NEWDPF about 8.781000 34.984000 -0.736000
DOCKED: USER    NEWDPF tran0 -4.791788 1.581620 -13.490985
DOCKED: USER    NEWDPF quaternion0 -0.378330 0.479633 -0.740139 0.281092
DOCKED: USER    NEWDPF axisangle0 -0.394225 0.499784 -0.771235 147.349204
DOCKED: USER    NEWDPF quat0 -0.394225 0.499784 -0.771235 147.349204
DOCKED: USER    NEWDPF dihe0 -91.83 103.85 97.39 0.43 88.00 117.33 40.74 175.95 167.98 146.08 -168.02 7.22 
DOCKED: USER  keepresnum = 1 
DOCKED: USER  
DOCKED: REMARK  12 active torsions:
DOCKED: REMARK  status: ('A' for Active; 'I' for Inactive)
DOCKED: REMARK    1  A    between atoms: C_6  and  C_10 
DOCKED: REMARK    2  A    between atoms: C_10  and  C_11 
DOCKED: REMARK    3  A    between atoms: C_11  and  C_12 
DOCKED: REMARK    4  A    between atoms: C_12  and  O_14 
DOCKED: REMARK    5  A    between atoms: C_17  and  C_20 
DOCKED: REMARK    6  A    between atoms: C_24  and  C_27 
DOCKED: REMARK    7  A    between atoms: C_31  and  C_34 
DOCKED: REMARK    8  A    between atoms: C_34  and  C_35 
DOCKED: REMARK    9  A    between atoms: C_35  and  C_36 
DOCKED: REMARK   10  A    between atoms: C_36  and  O_38 
DOCKED: REMARK   11  A    between atoms: FE_43  and  C_44 
DOCKED: REMARK   12  A    between atoms: C_44  and  O_45 
DOCKED: USER                              x       y       z     vdW  Elec       q    Type
DOCKED: USER                           _______ _______ _______ _____ _____    ______ ____
DOCKED: ROOT
DOCKED: ATOM      1  C   UNL d   1      -4.352   2.072 -15.560 +0.09 +0.10    +0.064 A 
DOCKED: ATOM      2  C   UNL d   1      -1.895  -0.291 -12.245 -0.22 +0.09    +0.064 C 
DOCKED: ATOM      3  C   UNL d   1      -5.236   0.732  -8.986 -0.29 +0.03    +0.064 A 
DOCKED: ATOM      4  C   UNL d   1      -7.949   2.820 -12.442 -0.07 +0.04    +0.064 A 
DOCKED: ATOM      5  C   UNL d   1      -3.418   1.383 -14.885 -0.10 +0.11    +0.066 A 
DOCKED: ATOM      6  C   UNL d   1      -2.288   0.833 -15.523 -0.09 -0.03    -0.021 A 
DOCKED: ATOM      7  C   UNL d   1      -1.591   0.129 -14.561 -0.11 -0.04    -0.025 A 
DOCKED: ATOM      8  C   UNL d   1      -2.315   0.293 -13.375 -0.13 +0.11    +0.066 A 
DOCKED: ATOM      9  C   UNL d   1      -0.291  -0.672 -14.736 -0.17 +0.05    +0.051 C 
DOCKED: ATOM     10  C   UNL d   1      -2.559  -0.158 -10.973 -0.26 +0.07    +0.066 A 
DOCKED: ATOM     11  C   UNL d   1      -2.095  -0.628  -9.725 -0.34 -0.01    -0.021 A 
DOCKED: ATOM     12  C   UNL d   1      -3.086  -0.313  -8.792 -0.39 +0.00    +0.000 A 
DOCKED: ATOM     13  C   UNL d   1      -4.074   0.335  -9.535 -0.28 +0.04    +0.070 A 
DOCKED: ATOM     14  C   UNL d   1      -0.748  -1.247  -9.450 -0.29 +0.03    +0.052 C 
DOCKED: ATOM     15  C   UNL d   1      -6.380   1.365  -9.612 -0.22 +0.03    +0.066 A 
DOCKED: ATOM     16  C   UNL d   1      -7.608   1.617  -9.018 -0.24 -0.01    -0.021 A 
DOCKED: ATOM     17  C   UNL d   1      -8.395   2.217 -10.011 -0.12 +0.00    +0.000 A 
DOCKED: ATOM     18  C   UNL d   1      -7.576   2.299 -11.132 -0.11 +0.04    +0.070 A 
DOCKED: ATOM     19  C   UNL d   1      -7.974   1.291  -7.587 -0.32 +0.01    +0.052 C 
DOCKED: ATOM     20  C   UNL d   1      -7.199   2.830 -13.569 -0.08 +0.06    +0.066 A 
DOCKED: ATOM     21  C   UNL d   1      -7.681   3.326 -14.779 -0.05 -0.02    -0.025 A 
DOCKED: ATOM     22  C   UNL d   1      -6.655   3.150 -15.689 -0.06 -0.02    -0.021 A 
DOCKED: ATOM     23  C   UNL d   1      -5.594   2.540 -14.988 +0.10 +0.10    +0.066 A 
DOCKED: ATOM     24  C   UNL d   1      -9.059   3.920 -15.059 -0.02 +0.02    +0.051 C 
DOCKED: ATOM     25  N   UNL d   1      -3.448   1.069 -13.545 -0.13 -0.40    -0.248 N 
DOCKED: ATOM     26  N   UNL d   1      -3.729   0.478 -10.842 -0.15 -0.23    -0.248 N 
DOCKED: ATOM     27  N   UNL d   1      -6.393   1.754 -10.867 -0.11 -0.17    -0.248 N 
DOCKED: ATOM     28  N   UNL d   1      -5.920   2.343 -13.705 -0.06 -0.32    -0.248 N 
DOCKED: ATOM     29 FE   UNL d   1      -5.010   1.434 -12.129 -0.04 +0.00    +0.000 Fe
DOCKED: ENDROOT
DOCKED: BRANCH   6  30
DOCKED: ATOM     30  C   UNL d   1      -1.950   0.920 -17.008 -0.03 +0.05    +0.052 C 
DOCKED: BRANCH  30  31
DOCKED: ATOM     31  C   UNL d   1      -2.681  -0.172 -17.789 -0.02 +0.10    +0.115 C 
DOCKED: BRANCH  31  32
DOCKED: ATOM     32  C   UNL d   1      -3.262  -1.238 -16.886 +0.01 +0.20    +0.139 C 
DOCKED: ATOM     33  O   UNL d   1      -2.579  -2.205 -16.582 -0.13 -1.13    -0.650 OA
DOCKED: BRANCH  32  34
DOCKED: ATOM     34  O   UNL d   1      -4.504  -1.134 -16.359 -0.00 -1.25    -0.776 OA
DOCKED: ATOM     35  H   UNL d   1      -4.693  -0.791 -15.475 +0.01 +0.33    +0.167 HD
DOCKED: ENDBRANCH  32  34
DOCKED: ENDBRANCH  31  32
DOCKED: ENDBRANCH  30  31
DOCKED: ENDBRANCH   6  30
DOCKED: BRANCH  29  36
DOCKED: ATOM     36  C   UNL d   1      -5.810  -0.416 -12.705 -0.09 +0.24    +0.190 C 
DOCKED: BRANCH  36  37
DOCKED: ATOM     37  O   UNL d   1      -6.007  -1.249 -13.810 -0.16 -0.65    -0.399 OA
DOCKED: ATOM     38  H   UNL d   1      -5.758  -0.691 -14.600 +0.02 +0.32    +0.209 HD
DOCKED: ENDBRANCH  36  37
DOCKED: ENDBRANCH  29  36
DOCKED: BRANCH  22  39
DOCKED: ATOM     39  C   UNL d   1      -6.722   3.492 -17.166 -0.02 +0.04    +0.052 C 
DOCKED: BRANCH  39  40
DOCKED: ATOM     40  C   UNL d   1      -5.855   4.722 -17.478 -0.04 +0.10    +0.115 C 
DOCKED: BRANCH  40  41
DOCKED: ATOM     41  C   UNL d   1      -5.914   5.811 -16.428 +0.00 +0.16    +0.139 C 
DOCKED: ATOM     42  O   UNL d   1      -6.999   6.154 -15.981 -0.03 -0.51    -0.650 OA
DOCKED: BRANCH  41  43
DOCKED: ATOM     43  O   UNL d   1      -4.792   6.355 -15.905 -0.43 -1.56    -0.776 OA
DOCKED: ATOM     44  H   UNL d   1      -4.471   7.229 -16.161 +0.01 +0.21    +0.167 HD
DOCKED: ENDBRANCH  41  43
DOCKED: ENDBRANCH  40  41
DOCKED: ENDBRANCH  39  40
DOCKED: ENDBRANCH  22  39
DOCKED: BRANCH  12  45
DOCKED: ATOM     45  C   UNL d   1      -3.205  -0.531  -7.290 -0.52 +0.00    +0.004 C 
DOCKED: ATOM     46  C   UNL d   1      -2.438  -1.223  -6.452 -0.50 +0.00    +0.012 C 
DOCKED: ENDBRANCH  12  45
DOCKED: BRANCH  17  47
DOCKED: ATOM     47  C   UNL d   1      -9.825   2.647  -9.966 -0.07 +0.00    +0.004 C 
DOCKED: ATOM     48  C   UNL d   1     -10.271   3.641  -9.195 -0.08 +0.00    +0.012 C 
DOCKED: ENDBRANCH  17  47
DOCKED: TORSDOF 12
DOCKED: TER
DOCKED: ENDMDL
________________________________________________________________________________


	BEGINNING GENETIC ALGORITHM DOCKING 7 of 100
Run: 7 Seed: 861100119 804835739 [ Run 7 of 100 GA/GALS ]
Beginning LAMARCKIAN GENETIC ALGORITHM (LGA), with a maximum of 25000000 energy evaluations.

Final-Value: -11.616


	FINAL GENETIC ALGORITHM DOCKED STATE
	_______________________________________________


Detailed state:  trans -1.125 -14.721 4.679 quatxyzw -0.717381 -0.332067 -0.215319 0.573353 center 8.781 34.984 -0.736 ntor 12 -4.0612 109.8455 -20.1048 -113.4160 78.7246 149.2915 -170.1356 -61.2125 102.9498 66.7977 59.3015 102.3956
State:	 -1.125 -14.721   4.679  -0.876 -0.405 -0.263 110.031     -4.06  109.85  -20.10 -113.42   78.72  149.29 -170.14  -61.21  102.95   66.80   59.30  102.40

DOCKED: MODEL        7
DOCKED: USER    Run = 7
DOCKED: USER    DPF = D:/Protein_go_brrr/autodock/final/AncB/heme_Co/dock.dpf
DOCKED: USER  
DOCKED: USER    Estimated Free Energy of Binding    =   -7.82 kcal/mol  [=(1)+(2)+(3)-(4)]
DOCKED: USER    Estimated Inhibition Constant, Ki   =    1.85 uM (micromolar)  [Temperature = 298.15 K]
DOCKED: USER    
DOCKED: USER    (1) Final Intermolecular Energy     =  -11.40 kcal/mol
DOCKED: USER        vdW + Hbond + desolv Energy     =   -6.39 kcal/mol
DOCKED: USER        Electrostatic Energy            =   -5.01 kcal/mol
DOCKED: USER    (2) Final Total Internal Energy     =   -0.22 kcal/mol
DOCKED: USER    (3) Torsional Free Energy           =   +3.58 kcal/mol
DOCKED: USER    (4) Unbound System's Energy  [=(2)] =   -0.22 kcal/mol
DOCKED: USER    
DOCKED: USER    
DOCKED: USER    NEWDPF move heme_Co_opt.pdbqt
DOCKED: USER    NEWDPF about 8.781000 34.984000 -0.736000
DOCKED: USER    NEWDPF tran0 -1.125447 -14.720590 4.678699
DOCKED: USER    NEWDPF quaternion0 -0.717381 -0.332067 -0.215319 0.573353
DOCKED: USER    NEWDPF axisangle0 -0.875593 -0.405301 -0.262806 110.031301
DOCKED: USER    NEWDPF quat0 -0.875593 -0.405301 -0.262806 110.031301
DOCKED: USER    NEWDPF dihe0 -4.06 109.85 -20.10 -113.42 78.72 149.29 -170.14 -61.21 102.95 66.80 59.30 102.40 
DOCKED: USER  keepresnum = 1 
DOCKED: USER  
DOCKED: REMARK  12 active torsions:
DOCKED: REMARK  status: ('A' for Active; 'I' for Inactive)
DOCKED: REMARK    1  A    between atoms: C_6  and  C_10 
DOCKED: REMARK    2  A    between atoms: C_10  and  C_11 
DOCKED: REMARK    3  A    between atoms: C_11  and  C_12 
DOCKED: REMARK    4  A    between atoms: C_12  and  O_14 
DOCKED: REMARK    5  A    between atoms: C_17  and  C_20 
DOCKED: REMARK    6  A    between atoms: C_24  and  C_27 
DOCKED: REMARK    7  A    between atoms: C_31  and  C_34 
DOCKED: REMARK    8  A    between atoms: C_34  and  C_35 
DOCKED: REMARK    9  A    between atoms: C_35  and  C_36 
DOCKED: REMARK   10  A    between atoms: C_36  and  O_38 
DOCKED: REMARK   11  A    between atoms: FE_43  and  C_44 
DOCKED: REMARK   12  A    between atoms: C_44  and  O_45 
DOCKED: USER                              x       y       z     vdW  Elec       q    Type
DOCKED: USER                           _______ _______ _______ _____ _____    ______ ____
DOCKED: ROOT
DOCKED: ATOM      1  C   UNL d   1      -2.926 -15.603   5.512 -0.07 +0.04    +0.064 A 
DOCKED: ATOM      2  C   UNL d   1      -0.096 -16.907   1.920 -0.09 +0.02    +0.064 C 
DOCKED: ATOM      3  C   UNL d   1       2.459 -12.902   2.430 -0.18 +0.01    +0.064 A 
DOCKED: ATOM      4  C   UNL d   1      -0.178 -11.734   6.348 -0.21 +0.01    +0.064 A 
DOCKED: ATOM      5  C   UNL d   1      -2.363 -16.236   4.470 -0.05 +0.04    +0.066 A 
DOCKED: ATOM      6  C   UNL d   1      -2.794 -17.508   4.046 -0.05 -0.01    -0.021 A 
DOCKED: ATOM      7  C   UNL d   1      -1.955 -17.892   3.018 -0.05 -0.01    -0.025 A 
DOCKED: ATOM      8  C   UNL d   1      -1.058 -16.831   2.848 -0.07 +0.03    +0.066 A 
DOCKED: ATOM      9  C   UNL d   1      -1.982 -19.203   2.218 -0.03 +0.02    +0.051 C 
DOCKED: ATOM     10  C   UNL d   1       0.854 -15.855   1.655 -0.12 +0.02    +0.066 A 
DOCKED: ATOM     11  C   UNL d   1       1.797 -15.815   0.604 -0.14 -0.00    -0.021 A 
DOCKED: ATOM     12  C   UNL d   1       2.526 -14.635   0.775 -0.16 +0.00    +0.000 A 
DOCKED: ATOM     13  C   UNL d   1       1.967 -14.038   1.906 -0.16 +0.01    +0.070 A 
DOCKED: ATOM     14  C   UNL d   1       1.911 -16.800  -0.530 -0.17 +0.00    +0.052 C 
DOCKED: ATOM     15  C   UNL d   1       2.042 -12.180   3.616 -0.19 +0.01    +0.066 A 
DOCKED: ATOM     16  C   UNL d   1       2.685 -11.090   4.186 -0.21 -0.00    -0.021 A 
DOCKED: ATOM     17  C   UNL d   1       1.930 -10.752   5.318 -0.24 +0.00    +0.000 A 
DOCKED: ATOM     18  C   UNL d   1       0.871 -11.654   5.339 -0.21 +0.01    +0.070 A 
DOCKED: ATOM     19  C   UNL d   1       3.943 -10.440   3.656 -0.27 -0.00    +0.052 C 
DOCKED: ATOM     20  C   UNL d   1      -1.167 -12.656   6.437 -0.11 +0.02    +0.066 A 
DOCKED: ATOM     21  C   UNL d   1      -2.096 -12.650   7.475 -0.16 -0.01    -0.025 A 
DOCKED: ATOM     22  C   UNL d   1      -2.919 -13.738   7.244 -0.11 -0.01    -0.021 A 
DOCKED: ATOM     23  C   UNL d   1      -2.439 -14.364   6.075 +0.03 +0.03    +0.066 A 
DOCKED: ATOM     24  C   UNL d   1      -2.185 -11.669   8.641 -0.20 +0.01    +0.051 C 
DOCKED: ATOM     25  N   UNL d   1      -1.291 -15.789   3.730 -0.06 -0.13    -0.248 N 
DOCKED: ATOM     26  N   UNL d   1       0.921 -14.749   2.403 -0.11 -0.07    -0.248 N 
DOCKED: ATOM     27  N   UNL d   1       0.987 -12.508   4.329 -0.14 -0.06    -0.248 N 
DOCKED: ATOM     28  N   UNL d   1      -1.377 -13.714   5.584 +0.10 -0.08    -0.248 N 
DOCKED: ATOM     29 FE   UNL d   1      -0.087 -14.051   4.049 -0.05 +0.00    +0.000 Fe
DOCKED: ENDROOT
DOCKED: BRANCH   6  30
DOCKED: ATOM     30  C   UNL d   1      -3.911 -18.343   4.664 -0.04 +0.04    +0.052 C 
DOCKED: BRANCH  30  31
DOCKED: ATOM     31  C   UNL d   1      -4.678 -19.101   3.580 -0.07 +0.12    +0.115 C 
DOCKED: BRANCH  31  32
DOCKED: ATOM     32  C   UNL d   1      -5.671 -18.221   2.853 +0.05 +0.28    +0.139 C 
DOCKED: ATOM     33  O   UNL d   1      -5.272 -17.238   2.247 -0.20 -1.48    -0.650 OA
DOCKED: BRANCH  32  34
DOCKED: ATOM     34  O   UNL d   1      -6.992 -18.513   2.809 -0.24 -1.80    -0.776 OA
DOCKED: ATOM     35  H   UNL d   1      -7.376 -19.341   3.129 +0.01 +0.27    +0.167 HD
DOCKED: ENDBRANCH  32  34
DOCKED: ENDBRANCH  31  32
DOCKED: ENDBRANCH  30  31
DOCKED: ENDBRANCH   6  30
DOCKED: BRANCH  29  36
DOCKED: ATOM     36  C   UNL d   1       1.111 -15.246   5.287 -0.03 +0.04    +0.190 C 
DOCKED: BRANCH  36  37
DOCKED: ATOM     37  O   UNL d   1       1.201 -16.520   5.856 +0.00 -0.08    -0.399 OA
DOCKED: ATOM     38  H   UNL d   1       0.362 -16.984   5.581 +0.01 +0.05    +0.209 HD
DOCKED: ENDBRANCH  36  37
DOCKED: ENDBRANCH  29  36
DOCKED: BRANCH  22  39
DOCKED: ATOM     39  C   UNL d   1      -4.061 -14.182   8.139 -0.09 +0.03    +0.052 C 
DOCKED: BRANCH  39  40
DOCKED: ATOM     40  C   UNL d   1      -4.358 -15.677   7.938 -0.04 +0.08    +0.115 C 
DOCKED: BRANCH  40  41
DOCKED: ATOM     41  C   UNL d   1      -5.754 -15.975   7.435 -0.13 +0.19    +0.139 C 
DOCKED: ATOM     42  O   UNL d   1      -6.017 -15.792   6.255 -0.53 -1.49    -0.650 OA
DOCKED: BRANCH  41  43
DOCKED: ATOM     43  O   UNL d   1      -6.696 -16.521   8.236 -0.58 -1.38    -0.776 OA
DOCKED: ATOM     44  H   UNL d   1      -6.484 -16.922   9.089 +0.02 +0.22    +0.167 HD
DOCKED: ENDBRANCH  41  43
DOCKED: ENDBRANCH  40  41
DOCKED: ENDBRANCH  39  40
DOCKED: ENDBRANCH  22  39
DOCKED: BRANCH  12  45
DOCKED: ATOM     45  C   UNL d   1       3.666 -13.996  -0.007 -0.23 +0.00    +0.004 C 
DOCKED: ATOM     46  C   UNL d   1       4.890 -13.646   0.378 -0.24 -0.00    +0.012 C 
DOCKED: ENDBRANCH  12  45
DOCKED: BRANCH  17  47
DOCKED: ATOM     47  C   UNL d   1       2.178  -9.703   6.351 -0.26 +0.00    +0.004 C 
DOCKED: ATOM     48  C   UNL d   1       2.318  -8.406   6.066 -0.30 +0.00    +0.012 C 
DOCKED: ENDBRANCH  17  47
DOCKED: TORSDOF 12
DOCKED: TER
DOCKED: ENDMDL
________________________________________________________________________________


	BEGINNING GENETIC ALGORITHM DOCKING 8 of 100
Run: 8 Seed: 1418805514 1239486270 [ Run 8 of 100 GA/GALS ]
Beginning LAMARCKIAN GENETIC ALGORITHM (LGA), with a maximum of 25000000 energy evaluations.

Final-Value: -10.432


	FINAL GENETIC ALGORITHM DOCKED STATE
	_______________________________________________


Detailed state:  trans 16.909 0.573 -11.135 quatxyzw 0.611818 -0.448871 -0.377740 -0.530571 center 8.781 34.984 -0.736 ntor 12 -117.5135 128.8134 -18.6123 -94.0273 -89.0139 91.3292 -6.1690 -88.2972 93.1397 -29.3538 20.7116 24.3612
State:	 16.909   0.573 -11.135   0.722 -0.530 -0.446 -115.912   -117.51  128.81  -18.61  -94.03  -89.01   91.33   -6.17  -88.30   93.14  -29.35   20.71   24.36

DOCKED: MODEL        8
DOCKED: USER    Run = 8
DOCKED: USER    DPF = D:/Protein_go_brrr/autodock/final/AncB/heme_Co/dock.dpf
DOCKED: USER  
DOCKED: USER    Estimated Free Energy of Binding    =   -4.63 kcal/mol  [=(1)+(2)+(3)-(4)]
DOCKED: USER    Estimated Inhibition Constant, Ki   =  407.13 uM (micromolar)  [Temperature = 298.15 K]
DOCKED: USER    
DOCKED: USER    (1) Final Intermolecular Energy     =   -8.20 kcal/mol
DOCKED: USER        vdW + Hbond + desolv Energy     =   -6.50 kcal/mol
DOCKED: USER        Electrostatic Energy            =   -1.70 kcal/mol
DOCKED: USER    (2) Final Total Internal Energy     =   -2.23 kcal/mol
DOCKED: USER    (3) Torsional Free Energy           =   +3.58 kcal/mol
DOCKED: USER    (4) Unbound System's Energy  [=(2)] =   -2.23 kcal/mol
DOCKED: USER    
DOCKED: USER    
DOCKED: USER    NEWDPF move heme_Co_opt.pdbqt
DOCKED: USER    NEWDPF about 8.781000 34.984000 -0.736000
DOCKED: USER    NEWDPF tran0 16.909331 0.573311 -11.135187
DOCKED: USER    NEWDPF quaternion0 0.611818 -0.448871 -0.377740 -0.530571
DOCKED: USER    NEWDPF axisangle0 0.721790 -0.529554 -0.445636 -115.911918
DOCKED: USER    NEWDPF quat0 0.721790 -0.529554 -0.445636 -115.911918
DOCKED: USER    NEWDPF dihe0 -117.51 128.81 -18.61 -94.03 -89.01 91.33 -6.17 -88.30 93.14 -29.35 20.71 24.36 
DOCKED: USER  keepresnum = 1 
DOCKED: USER  
DOCKED: REMARK  12 active torsions:
DOCKED: REMARK  status: ('A' for Active; 'I' for Inactive)
DOCKED: REMARK    1  A    between atoms: C_6  and  C_10 
DOCKED: REMARK    2  A    between atoms: C_10  and  C_11 
DOCKED: REMARK    3  A    between atoms: C_11  and  C_12 
DOCKED: REMARK    4  A    between atoms: C_12  and  O_14 
DOCKED: REMARK    5  A    between atoms: C_17  and  C_20 
DOCKED: REMARK    6  A    between atoms: C_24  and  C_27 
DOCKED: REMARK    7  A    between atoms: C_31  and  C_34 
DOCKED: REMARK    8  A    between atoms: C_34  and  C_35 
DOCKED: REMARK    9  A    between atoms: C_35  and  C_36 
DOCKED: REMARK   10  A    between atoms: C_36  and  O_38 
DOCKED: REMARK   11  A    between atoms: FE_43  and  C_44 
DOCKED: REMARK   12  A    between atoms: C_44  and  O_45 
DOCKED: USER                              x       y       z     vdW  Elec       q    Type
DOCKED: USER                           _______ _______ _______ _____ _____    ______ ____
DOCKED: ROOT
DOCKED: ATOM      1  C   UNL d   1      17.030   2.658 -10.540 -0.14 +0.05    +0.064 A 
DOCKED: ATOM      2  C   UNL d   1      14.312   0.394 -13.718 -0.27 +0.02    +0.064 C 
DOCKED: ATOM      3  C   UNL d   1      16.682  -3.673 -12.904 -0.09 +0.02    +0.064 A 
DOCKED: ATOM      4  C   UNL d   1      19.213  -1.477  -9.377 -0.07 +0.02    +0.064 A 
DOCKED: ATOM      5  C   UNL d   1      16.137   2.347 -11.495 -0.21 +0.03    +0.066 A 
DOCKED: ATOM      6  C   UNL d   1      15.188   3.277 -11.962 -0.29 -0.01    -0.021 A 
DOCKED: ATOM      7  C   UNL d   1      14.388   2.609 -12.867 -0.32 -0.01    -0.025 A 
DOCKED: ATOM      8  C   UNL d   1      14.892   1.305 -12.926 -0.25 +0.02    +0.066 A 
DOCKED: ATOM      9  C   UNL d   1      13.190   3.162 -13.655 -0.41 +0.01    +0.051 C 
DOCKED: ATOM     10  C   UNL d   1      14.776  -0.963 -13.863 -0.16 +0.02    +0.066 A 
DOCKED: ATOM     11  C   UNL d   1      14.299  -1.924 -14.780 -0.18 -0.01    -0.021 A 
DOCKED: ATOM     12  C   UNL d   1      15.010  -3.100 -14.523 -0.15 +0.00    +0.000 A 
DOCKED: ATOM     13  C   UNL d   1      15.875  -2.766 -13.481 -0.08 +0.02    +0.070 A 
DOCKED: ATOM     14  C   UNL d   1      13.299  -1.687 -15.882 -0.21 +0.01    +0.052 C 
DOCKED: ATOM     15  C   UNL d   1      17.596  -3.515 -11.789 -0.07 +0.02    +0.066 A 
DOCKED: ATOM     16  C   UNL d   1      18.294  -4.528 -11.147 -0.04 -0.01    -0.021 A 
DOCKED: ATOM     17  C   UNL d   1      19.024  -3.900 -10.128 -0.04 +0.00    +0.000 A 
DOCKED: ATOM     18  C   UNL d   1      18.724  -2.546 -10.239 -0.05 +0.02    +0.070 A 
DOCKED: ATOM     19  C   UNL d   1      18.243  -5.995 -11.511 -0.03 +0.02    +0.052 C 
DOCKED: ATOM     20  C   UNL d   1      18.869  -0.168  -9.412 -0.09 +0.02    +0.066 A 
DOCKED: ATOM     21  C   UNL d   1      19.380   0.760  -8.507 -0.12 -0.01    -0.025 A 
DOCKED: ATOM     22  C   UNL d   1      18.790   1.966  -8.836 -0.17 -0.01    -0.021 A 
DOCKED: ATOM     23  C   UNL d   1      17.933   1.711  -9.927 -0.16 +0.04    +0.066 A 
DOCKED: ATOM     24  C   UNL d   1      20.366   0.505  -7.370 -0.10 +0.02    +0.051 C 
DOCKED: ATOM     25  N   UNL d   1      15.980   1.116 -12.090 -0.12 -0.09    -0.248 N 
DOCKED: ATOM     26  N   UNL d   1      15.772  -1.459 -13.120 -0.10 -0.08    -0.248 N 
DOCKED: ATOM     27  N   UNL d   1      17.848  -2.358 -11.220 -0.04 -0.07    -0.248 N 
DOCKED: ATOM     28  N   UNL d   1      17.976   0.420 -10.278 -0.06 -0.09    -0.248 N 
DOCKED: ATOM     29 FE   UNL d   1      16.971  -0.722 -11.627 -0.03 +0.00    +0.000 Fe
DOCKED: ENDROOT
DOCKED: BRANCH   6  30
DOCKED: ATOM     30  C   UNL d   1      15.018   4.718 -11.491 -0.38 +0.04    +0.052 C 
DOCKED: BRANCH  30  31
DOCKED: ATOM     31  C   UNL d   1      15.568   5.692 -12.532 -0.34 +0.06    +0.115 C 
DOCKED: BRANCH  31  32
DOCKED: ATOM     32  C   UNL d   1      17.039   5.984 -12.329 -0.24 +0.08    +0.139 C 
DOCKED: ATOM     33  O   UNL d   1      17.439   7.136 -12.410 -0.05 -0.35    -0.650 OA
DOCKED: BRANCH  32  34
DOCKED: ATOM     34  O   UNL d   1      17.926   5.013 -12.011 +0.06 -0.43    -0.776 OA
DOCKED: ATOM     35  H   UNL d   1      18.478   5.020 -11.217 +0.04 +0.11    +0.167 HD
DOCKED: ENDBRANCH  32  34
DOCKED: ENDBRANCH  31  32
DOCKED: ENDBRANCH  30  31
DOCKED: ENDBRANCH   6  30
DOCKED: BRANCH  29  36
DOCKED: ATOM     36  C   UNL d   1      15.443  -1.065 -10.233 -0.31 +0.07    +0.190 C 
DOCKED: BRANCH  36  37
DOCKED: ATOM     37  O   UNL d   1      14.876  -0.565  -9.056 -0.20 -0.11    -0.399 OA
DOCKED: ATOM     38  H   UNL d   1      15.235   0.362  -8.972 -0.43 +0.04    +0.209 HD
DOCKED: ENDBRANCH  36  37
DOCKED: ENDBRANCH  29  36
DOCKED: BRANCH  22  39
DOCKED: ATOM     39  C   UNL d   1      18.994   3.276  -8.096 -0.15 +0.05    +0.052 C 
DOCKED: BRANCH  39  40
DOCKED: ATOM     40  C   UNL d   1      19.446   4.381  -9.065 -0.09 +0.11    +0.115 C 
DOCKED: BRANCH  40  41
DOCKED: ATOM     41  C   UNL d   1      18.911   5.759  -8.734 +0.10 +0.19    +0.139 C 
DOCKED: ATOM     42  O   UNL d   1      19.021   6.185  -7.592 -0.22 -0.81    -0.650 OA
DOCKED: BRANCH  41  43
DOCKED: ATOM     43  O   UNL d   1      18.393   6.567  -9.685 +0.03 -0.87    -0.776 OA
DOCKED: ATOM     44  H   UNL d   1      18.492   6.388 -10.629 +0.04 +0.14    +0.167 HD
DOCKED: ENDBRANCH  41  43
DOCKED: ENDBRANCH  40  41
DOCKED: ENDBRANCH  39  40
DOCKED: ENDBRANCH  22  39
DOCKED: BRANCH  12  45
DOCKED: ATOM     45  C   UNL d   1      14.986  -4.486 -15.153 -0.09 +0.00    +0.004 C 
DOCKED: ATOM     46  C   UNL d   1      14.435  -5.620 -14.728 -0.11 +0.00    +0.012 C 
DOCKED: ENDBRANCH  12  45
DOCKED: BRANCH  17  47
DOCKED: ATOM     47  C   UNL d   1      19.903  -4.496  -9.078 -0.03 +0.00    +0.004 C 
DOCKED: ATOM     48  C   UNL d   1      19.590  -4.520  -7.780 -0.07 +0.00    +0.012 C 
DOCKED: ENDBRANCH  17  47
DOCKED: TORSDOF 12
DOCKED: TER
DOCKED: ENDMDL
________________________________________________________________________________


	BEGINNING GENETIC ALGORITHM DOCKING 9 of 100
Run: 9 Seed: 1138323966 1981888537 [ Run 9 of 100 GA/GALS ]
Beginning LAMARCKIAN GENETIC ALGORITHM (LGA), with a maximum of 25000000 energy evaluations.

Final-Value: -13.163


	FINAL GENETIC ALGORITHM DOCKED STATE
	_______________________________________________


Detailed state:  trans -7.723 -1.439 -12.376 quatxyzw -0.460176 -0.237968 -0.765672 -0.381254 center 8.781 34.984 -0.736 ntor 12 -121.8024 121.4627 41.0040 93.2825 129.9957 129.3671 31.6884 -76.5645 170.3925 -32.0306 179.8780 -154.2720
State:	 -7.723  -1.439 -12.376  -0.498 -0.257 -0.828 -135.177   -121.80  121.46   41.00   93.28  130.00  129.37   31.69  -76.56  170.39  -32.03  179.88 -154.27

DOCKED: MODEL        9
DOCKED: USER    Run = 9
DOCKED: USER    DPF = D:/Protein_go_brrr/autodock/final/AncB/heme_Co/dock.dpf
DOCKED: USER  
DOCKED: USER    Estimated Free Energy of Binding    =   -7.64 kcal/mol  [=(1)+(2)+(3)-(4)]
DOCKED: USER    Estimated Inhibition Constant, Ki   =    2.50 uM (micromolar)  [Temperature = 298.15 K]
DOCKED: USER    
DOCKED: USER    (1) Final Intermolecular Energy     =  -11.22 kcal/mol
DOCKED: USER        vdW + Hbond + desolv Energy     =   -7.04 kcal/mol
DOCKED: USER        Electrostatic Energy            =   -4.18 kcal/mol
DOCKED: USER    (2) Final Total Internal Energy     =   -1.94 kcal/mol
DOCKED: USER    (3) Torsional Free Energy           =   +3.58 kcal/mol
DOCKED: USER    (4) Unbound System's Energy  [=(2)] =   -1.94 kcal/mol
DOCKED: USER    
DOCKED: USER    
DOCKED: USER    NEWDPF move heme_Co_opt.pdbqt
DOCKED: USER    NEWDPF about 8.781000 34.984000 -0.736000
DOCKED: USER    NEWDPF tran0 -7.723177 -1.439046 -12.376357
DOCKED: USER    NEWDPF quaternion0 -0.460176 -0.237968 -0.765672 -0.381254
DOCKED: USER    NEWDPF axisangle0 -0.497773 -0.257411 -0.828228 -135.177243
DOCKED: USER    NEWDPF quat0 -0.497773 -0.257411 -0.828228 -135.177243
DOCKED: USER    NEWDPF dihe0 -121.80 121.46 41.00 93.28 130.00 129.37 31.69 -76.56 170.39 -32.03 179.88 -154.27 
DOCKED: USER  keepresnum = 1 
DOCKED: USER  
DOCKED: REMARK  12 active torsions:
DOCKED: REMARK  status: ('A' for Active; 'I' for Inactive)
DOCKED: REMARK    1  A    between atoms: C_6  and  C_10 
DOCKED: REMARK    2  A    between atoms: C_10  and  C_11 
DOCKED: REMARK    3  A    between atoms: C_11  and  C_12 
DOCKED: REMARK    4  A    between atoms: C_12  and  O_14 
DOCKED: REMARK    5  A    between atoms: C_17  and  C_20 
DOCKED: REMARK    6  A    between atoms: C_24  and  C_27 
DOCKED: REMARK    7  A    between atoms: C_31  and  C_34 
DOCKED: REMARK    8  A    between atoms: C_34  and  C_35 
DOCKED: REMARK    9  A    between atoms: C_35  and  C_36 
DOCKED: REMARK   10  A    between atoms: C_36  and  O_38 
DOCKED: REMARK   11  A    between atoms: FE_43  and  C_44 
DOCKED: REMARK   12  A    between atoms: C_44  and  O_45 
DOCKED: USER                              x       y       z     vdW  Elec       q    Type
DOCKED: USER                           _______ _______ _______ _____ _____    ______ ____
DOCKED: ROOT
DOCKED: ATOM      1  C   UNL d   1      -7.214  -1.639 -14.478 -0.05 +0.06    +0.064 A 
DOCKED: ATOM      2  C   UNL d   1      -7.755   2.159 -11.668 -0.10 +0.04    +0.064 C 
DOCKED: ATOM      3  C   UNL d   1      -9.169  -0.654  -8.074 -0.16 +0.02    +0.064 A 
DOCKED: ATOM      4  C   UNL d   1      -8.254  -4.576 -10.802 -0.24 +0.03    +0.064 A 
DOCKED: ATOM      5  C   UNL d   1      -7.293  -0.391 -13.985 -0.03 +0.06    +0.066 A 
DOCKED: ATOM      6  C   UNL d   1      -6.886   0.733 -14.729 -0.03 -0.02    -0.021 A 
DOCKED: ATOM      7  C   UNL d   1      -7.023   1.830 -13.901 -0.07 -0.02    -0.025 A 
DOCKED: ATOM      8  C   UNL d   1      -7.524   1.330 -12.694 -0.05 +0.04    +0.066 A 
DOCKED: ATOM      9  C   UNL d   1      -6.699   3.298 -14.220 -0.07 +0.06    +0.051 C 
DOCKED: ATOM     10  C   UNL d   1      -8.294   1.741 -10.398 -0.08 +0.03    +0.066 A 
DOCKED: ATOM     11  C   UNL d   1      -8.691   2.578  -9.333 -0.15 -0.01    -0.021 A 
DOCKED: ATOM     12  C   UNL d   1      -9.102   1.732  -8.299 -0.21 +0.00    +0.000 A 
DOCKED: ATOM     13  C   UNL d   1      -8.939   0.445  -8.814 -0.12 +0.02    +0.070 A 
DOCKED: ATOM     14  C   UNL d   1      -8.755   4.084  -9.358 -0.18 +0.02    +0.052 C 
DOCKED: ATOM     15  C   UNL d   1      -9.002  -2.051  -8.426 -0.15 +0.02    +0.066 A 
DOCKED: ATOM     16  C   UNL d   1      -9.118  -3.135  -7.568 -0.26 -0.01    -0.021 A 
DOCKED: ATOM     17  C   UNL d   1      -8.853  -4.269  -8.350 -0.33 +0.00    +0.000 A 
DOCKED: ATOM     18  C   UNL d   1      -8.612  -3.785  -9.632 -0.20 +0.03    +0.070 A 
DOCKED: ATOM     19  C   UNL d   1      -9.461  -3.057  -6.097 -0.44 +0.01    +0.052 C 
DOCKED: ATOM     20  C   UNL d   1      -7.931  -4.122 -12.037 -0.16 +0.04    +0.066 A 
DOCKED: ATOM     21  C   UNL d   1      -7.569  -4.980 -13.073 -0.19 -0.02    -0.025 A 
DOCKED: ATOM     22  C   UNL d   1      -7.292  -4.163 -14.154 -0.13 -0.02    -0.021 A 
DOCKED: ATOM     23  C   UNL d   1      -7.488  -2.836 -13.716 -0.09 +0.06    +0.066 A 
DOCKED: ATOM     24  C   UNL d   1      -7.472  -6.503 -13.031 -0.32 +0.03    +0.051 C 
DOCKED: ATOM     25  N   UNL d   1      -7.706  -0.042 -12.720 -0.01 -0.17    -0.248 N 
DOCKED: ATOM     26  N   UNL d   1      -8.504   0.454 -10.102 -0.03 -0.09    -0.248 N 
DOCKED: ATOM     27  N   UNL d   1      -8.679  -2.459  -9.633 -0.06 -0.10    -0.248 N 
DOCKED: ATOM     28  N   UNL d   1      -7.873  -2.807 -12.435 -0.05 -0.18    -0.248 N 
DOCKED: ATOM     29 FE   UNL d   1      -8.222  -1.325 -11.087 -0.02 +0.00    +0.000 Fe
DOCKED: ENDROOT
DOCKED: BRANCH   6  30
DOCKED: ATOM     30  C   UNL d   1      -6.314   0.730 -16.143 -0.02 +0.04    +0.052 C 
DOCKED: BRANCH  30  31
DOCKED: ATOM     31  C   UNL d   1      -4.786   0.748 -16.105 -0.05 +0.13    +0.115 C 
DOCKED: BRANCH  31  32
DOCKED: ATOM     32  C   UNL d   1      -4.247   1.042 -14.721 -0.11 +0.22    +0.139 C 
DOCKED: ATOM     33  O   UNL d   1      -3.903   2.181 -14.441 -0.51 -1.52    -0.650 OA
DOCKED: BRANCH  32  34
DOCKED: ATOM     34  O   UNL d   1      -4.176   0.091 -13.761 +0.09 -1.46    -0.776 OA
DOCKED: ATOM     35  H   UNL d   1      -4.562   0.180 -12.879 +0.03 +0.26    +0.167 HD
DOCKED: ENDBRANCH  32  34
DOCKED: ENDBRANCH  31  32
DOCKED: ENDBRANCH  30  31
DOCKED: ENDBRANCH   6  30
DOCKED: BRANCH  29  36
DOCKED: ATOM     36  C   UNL d   1      -6.192  -1.289 -10.566 -0.13 +0.14    +0.190 C 
DOCKED: BRANCH  36  37
DOCKED: ATOM     37  O   UNL d   1      -4.909  -1.103 -11.092 -0.22 -0.45    -0.399 OA
DOCKED: ATOM     38  H   UNL d   1      -5.059  -0.792 -12.028 +0.05 +0.31    +0.209 HD
DOCKED: ENDBRANCH  36  37
DOCKED: ENDBRANCH  29  36
DOCKED: BRANCH  22  39
DOCKED: ATOM     39  C   UNL d   1      -6.801  -4.634 -15.510 -0.13 +0.05    +0.052 C 
DOCKED: BRANCH  39  40
DOCKED: ATOM     40  C   UNL d   1      -5.558  -5.525 -15.358 -0.01 +0.14    +0.115 C 
DOCKED: BRANCH  40  41
DOCKED: ATOM     41  C   UNL d   1      -5.502  -6.691 -16.324 -0.12 +0.20    +0.139 C 
DOCKED: ATOM     42  O   UNL d   1      -5.464  -6.471 -17.526 -0.17 -1.13    -0.650 OA
DOCKED: BRANCH  41  43
DOCKED: ATOM     43  O   UNL d   1      -5.405  -7.967 -15.891 -0.44 -1.18    -0.776 OA
DOCKED: ATOM     44  H   UNL d   1      -5.965  -8.321 -15.188 +0.07 +0.14    +0.167 HD
DOCKED: ENDBRANCH  41  43
DOCKED: ENDBRANCH  40  41
DOCKED: ENDBRANCH  39  40
DOCKED: ENDBRANCH  22  39
DOCKED: BRANCH  12  45
DOCKED: ATOM     45  C   UNL d   1      -9.646   1.990  -6.900 -0.19 +0.00    +0.004 C 
DOCKED: ATOM     46  C   UNL d   1     -10.885   2.236  -6.485 -0.22 -0.00    +0.012 C 
DOCKED: ENDBRANCH  12  45
DOCKED: BRANCH  17  47
DOCKED: ATOM     47  C   UNL d   1      -8.772  -5.705  -7.950 -0.55 +0.00    +0.004 C 
DOCKED: ATOM     48  C   UNL d   1      -9.692  -6.615  -8.278 -0.47 +0.00    +0.012 C 
DOCKED: ENDBRANCH  17  47
DOCKED: TORSDOF 12
DOCKED: TER
DOCKED: ENDMDL
________________________________________________________________________________


	BEGINNING GENETIC ALGORITHM DOCKING 10 of 100
Run: 10 Seed: 444876659 974948066 [ Run 10 of 100 GA/GALS ]
Beginning LAMARCKIAN GENETIC ALGORITHM (LGA), with a maximum of 25000000 energy evaluations.

Final-Value: -12.354


	FINAL GENETIC ALGORITHM DOCKED STATE
	_______________________________________________


Detailed state:  trans -7.621 -1.725 -11.701 quatxyzw 0.031067 -0.637319 0.505800 -0.580539 center 8.781 34.984 -0.736 ntor 12 -154.3242 134.2281 175.2213 126.5864 118.2479 116.9213 56.0545 -97.8019 164.0047 -112.0536 -155.9318 -44.0895
State:	 -7.621  -1.725 -11.701   0.038 -0.783  0.621 -109.023   -154.32  134.23  175.22  126.59  118.25  116.92   56.05  -97.80  164.00 -112.05 -155.93  -44.09

DOCKED: MODEL       10
DOCKED: USER    Run = 10
DOCKED: USER    DPF = D:/Protein_go_brrr/autodock/final/AncB/heme_Co/dock.dpf
DOCKED: USER  
DOCKED: USER    Estimated Free Energy of Binding    =   -6.53 kcal/mol  [=(1)+(2)+(3)-(4)]
DOCKED: USER    Estimated Inhibition Constant, Ki   =   16.29 uM (micromolar)  [Temperature = 298.15 K]
DOCKED: USER    
DOCKED: USER    (1) Final Intermolecular Energy     =  -10.11 kcal/mol
DOCKED: USER        vdW + Hbond + desolv Energy     =   -7.30 kcal/mol
DOCKED: USER        Electrostatic Energy            =   -2.81 kcal/mol
DOCKED: USER    (2) Final Total Internal Energy     =   -2.24 kcal/mol
DOCKED: USER    (3) Torsional Free Energy           =   +3.58 kcal/mol
DOCKED: USER    (4) Unbound System's Energy  [=(2)] =   -2.24 kcal/mol
DOCKED: USER    
DOCKED: USER    
DOCKED: USER    NEWDPF move heme_Co_opt.pdbqt
DOCKED: USER    NEWDPF about 8.781000 34.984000 -0.736000
DOCKED: USER    NEWDPF tran0 -7.621092 -1.725052 -11.700864
DOCKED: USER    NEWDPF quaternion0 0.031067 -0.637319 0.505800 -0.580539
DOCKED: USER    NEWDPF axisangle0 0.038156 -0.782724 0.621198 -109.023009
DOCKED: USER    NEWDPF quat0 0.038156 -0.782724 0.621198 -109.023009
DOCKED: USER    NEWDPF dihe0 -154.32 134.23 175.22 126.59 118.25 116.92 56.05 -97.80 164.00 -112.05 -155.93 -44.09 
DOCKED: USER  keepresnum = 1 
DOCKED: USER  
DOCKED: REMARK  12 active torsions:
DOCKED: REMARK  status: ('A' for Active; 'I' for Inactive)
DOCKED: REMARK    1  A    between atoms: C_6  and  C_10 
DOCKED: REMARK    2  A    between atoms: C_10  and  C_11 
DOCKED: REMARK    3  A    between atoms: C_11  and  C_12 
DOCKED: REMARK    4  A    between atoms: C_12  and  O_14 
DOCKED: REMARK    5  A    between atoms: C_17  and  C_20 
DOCKED: REMARK    6  A    between atoms: C_24  and  C_27 
DOCKED: REMARK    7  A    between atoms: C_31  and  C_34 
DOCKED: REMARK    8  A    between atoms: C_34  and  C_35 
DOCKED: REMARK    9  A    between atoms: C_35  and  C_36 
DOCKED: REMARK   10  A    between atoms: C_36  and  O_38 
DOCKED: REMARK   11  A    between atoms: FE_43  and  C_44 
DOCKED: REMARK   12  A    between atoms: C_44  and  O_45 
DOCKED: USER                              x       y       z     vdW  Elec       q    Type
DOCKED: USER                           _______ _______ _______ _____ _____    ______ ____
DOCKED: ROOT
DOCKED: ATOM      1  C   UNL d   1      -6.705  -1.963 -13.655 -0.09 +0.08    +0.064 A 
DOCKED: ATOM      2  C   UNL d   1      -8.092  -5.110 -10.371 -0.36 +0.03    +0.064 C 
DOCKED: ATOM      3  C   UNL d   1      -9.187  -1.555  -7.373 -0.21 +0.01    +0.064 A 
DOCKED: ATOM      4  C   UNL d   1      -8.141   1.682 -10.850 -0.07 +0.03    +0.064 A 
DOCKED: ATOM      5  C   UNL d   1      -6.969  -3.085 -12.965 -0.14 +0.07    +0.066 A 
DOCKED: ATOM      6  C   UNL d   1      -6.840  -4.364 -13.540 -0.17 -0.02    -0.021 A 
DOCKED: ATOM      7  C   UNL d   1      -7.266  -5.272 -12.590 -0.28 -0.02    -0.025 A 
DOCKED: ATOM      8  C   UNL d   1      -7.620  -4.510 -11.472 -0.24 +0.04    +0.066 A 
DOCKED: ATOM      9  C   UNL d   1      -7.342  -6.802 -12.716 -0.31 +0.03    +0.051 C 
DOCKED: ATOM     10  C   UNL d   1      -8.456  -4.412  -9.164 -0.27 +0.03    +0.066 A 
DOCKED: ATOM     11  C   UNL d   1      -8.824  -4.993  -7.931 -0.43 -0.01    -0.021 A 
DOCKED: ATOM     12  C   UNL d   1      -9.134  -3.934  -7.074 -0.38 +0.00    +0.000 A 
DOCKED: ATOM     13  C   UNL d   1      -8.922  -2.788  -7.841 -0.22 +0.02    +0.070 A 
DOCKED: ATOM     14  C   UNL d   1      -8.781  -6.460  -7.588 -0.46 +0.02    +0.052 C 
DOCKED: ATOM     15  C   UNL d   1      -9.077  -0.274  -8.042 -0.17 +0.02    +0.066 A 
DOCKED: ATOM     16  C   UNL d   1      -9.505   0.951  -7.550 -0.24 -0.00    -0.021 A 
DOCKED: ATOM     17  C   UNL d   1      -9.208   1.887  -8.550 -0.18 +0.00    +0.000 A 
DOCKED: ATOM     18  C   UNL d   1      -8.604   1.160  -9.570 -0.09 +0.02    +0.070 A 
DOCKED: ATOM     19  C   UNL d   1     -10.156   1.176  -6.203 -0.04 +0.00    +0.052 C 
DOCKED: ATOM     20  C   UNL d   1      -7.630   0.981 -11.890 -0.05 +0.04    +0.066 A 
DOCKED: ATOM     21  C   UNL d   1      -7.254   1.591 -13.084 -0.07 -0.02    -0.025 A 
DOCKED: ATOM     22  C   UNL d   1      -6.809   0.569 -13.902 -0.05 -0.02    -0.021 A 
DOCKED: ATOM     23  C   UNL d   1      -6.948  -0.626 -13.164 -0.06 +0.06    +0.066 A 
DOCKED: ATOM     24  C   UNL d   1      -7.333   3.074 -13.438 -0.10 +0.04    +0.051 C 
DOCKED: ATOM     25  N   UNL d   1      -7.441  -3.152 -11.673 -0.09 -0.17    -0.248 N 
DOCKED: ATOM     26  N   UNL d   1      -8.458  -3.077  -9.086 -0.11 -0.09    -0.248 N 
DOCKED: ATOM     27  N   UNL d   1      -8.570  -0.128  -9.246 -0.05 -0.08    -0.248 N 
DOCKED: ATOM     28  N   UNL d   1      -7.447  -0.381 -11.947 -0.02 -0.16    -0.248 N 
DOCKED: ATOM     29 FE   UNL d   1      -8.037  -1.548 -10.390 -0.03 +0.00    +0.000 Fe
DOCKED: ENDROOT
DOCKED: BRANCH   6  30
DOCKED: ATOM     30  C   UNL d   1      -6.405  -4.681 -14.967 -0.13 +0.06    +0.052 C 
DOCKED: BRANCH  30  31
DOCKED: ATOM     31  C   UNL d   1      -7.502  -4.298 -15.960 -0.05 +0.09    +0.115 C 
DOCKED: BRANCH  31  32
DOCKED: ATOM     32  C   UNL d   1      -8.850  -4.126 -15.294 -0.02 +0.08    +0.139 C 
DOCKED: ATOM     33  O   UNL d   1      -9.465  -5.114 -14.919 +0.03 -0.39    -0.650 OA
DOCKED: BRANCH  32  34
DOCKED: ATOM     34  O   UNL d   1      -9.382  -2.905 -15.053 +0.03 -0.42    -0.776 OA
DOCKED: ATOM     35  H   UNL d   1     -10.063  -2.730 -14.390 +0.01 +0.08    +0.167 HD
DOCKED: ENDBRANCH  32  34
DOCKED: ENDBRANCH  31  32
DOCKED: ENDBRANCH  30  31
DOCKED: ENDBRANCH   6  30
DOCKED: BRANCH  29  36
DOCKED: ATOM     36  C   UNL d   1      -9.950  -1.739 -11.228 -0.02 +0.07    +0.190 C 
DOCKED: BRANCH  36  37
DOCKED: ATOM     37  O   UNL d   1     -10.619  -1.996 -12.428 +0.00 -0.16    -0.399 OA
DOCKED: ATOM     38  H   UNL d   1      -9.950  -2.464 -13.000 +0.02 +0.10    +0.209 HD
DOCKED: ENDBRANCH  36  37
DOCKED: ENDBRANCH  29  36
DOCKED: BRANCH  22  39
DOCKED: ATOM     39  C   UNL d   1      -6.338   0.730 -15.335 -0.04 +0.05    +0.052 C 
DOCKED: BRANCH  39  40
DOCKED: ATOM     40  C   UNL d   1      -5.171   1.728 -15.415 -0.06 +0.15    +0.115 C 
DOCKED: BRANCH  40  41
DOCKED: ATOM     41  C   UNL d   1      -3.932   1.301 -14.656 -0.10 +0.23    +0.139 C 
DOCKED: ATOM     42  O   UNL d   1      -3.583   0.130 -14.690 -0.16 -1.24    -0.650 OA
DOCKED: BRANCH  41  43
DOCKED: ATOM     43  O   UNL d   1      -3.150   2.197 -14.013 -0.30 -1.74    -0.776 OA
DOCKED: ATOM     44  H   UNL d   1      -2.345   1.941 -13.544 +0.04 +0.28    +0.167 HD
DOCKED: ENDBRANCH  41  43
DOCKED: ENDBRANCH  40  41
DOCKED: ENDBRANCH  39  40
DOCKED: ENDBRANCH  22  39
DOCKED: BRANCH  12  45
DOCKED: ATOM     45  C   UNL d   1      -9.586  -3.872  -5.621 -0.52 +0.00    +0.004 C 
DOCKED: ATOM     46  C   UNL d   1      -9.005  -3.326  -4.556 -0.60 +0.00    +0.012 C 
DOCKED: ENDBRANCH  12  45
DOCKED: BRANCH  17  47
DOCKED: ATOM     47  C   UNL d   1      -9.499   3.351  -8.603 -0.17 +0.00    +0.004 C 
DOCKED: ATOM     48  C   UNL d   1      -8.615   4.292  -8.263 -0.30 +0.00    +0.012 C 
DOCKED: ENDBRANCH  17  47
DOCKED: TORSDOF 12
DOCKED: TER
DOCKED: ENDMDL
________________________________________________________________________________


	BEGINNING GENETIC ALGORITHM DOCKING 11 of 100
Run: 11 Seed: 163679316 1858040914 [ Run 11 of 100 GA/GALS ]
Beginning LAMARCKIAN GENETIC ALGORITHM (LGA), with a maximum of 25000000 energy evaluations.

Final-Value: -12.697


	FINAL GENETIC ALGORITHM DOCKED STATE
	_______________________________________________


Detailed state:  trans -7.154 -1.121 -13.236 quatxyzw -0.489998 -0.205319 -0.760870 -0.372590 center 8.781 34.984 -0.736 ntor 12 -137.6341 93.0344 15.5946 125.2573 87.2212 160.1918 38.2266 -21.4610 165.0574 -43.5513 -174.0928 180.0000
State:	 -7.154  -1.121 -13.236  -0.528 -0.221 -0.820 -136.249   -137.63   93.03   15.59  125.26   87.22  160.19   38.23  -21.46  165.06  -43.55 -174.09  180.00

DOCKED: MODEL       11
DOCKED: USER    Run = 11
DOCKED: USER    DPF = D:/Protein_go_brrr/autodock/final/AncB/heme_Co/dock.dpf
DOCKED: USER  
DOCKED: USER    Estimated Free Energy of Binding    =   -7.05 kcal/mol  [=(1)+(2)+(3)-(4)]
DOCKED: USER    Estimated Inhibition Constant, Ki   =    6.76 uM (micromolar)  [Temperature = 298.15 K]
DOCKED: USER    
DOCKED: USER    (1) Final Intermolecular Energy     =  -10.63 kcal/mol
DOCKED: USER        vdW + Hbond + desolv Energy     =   -6.52 kcal/mol
DOCKED: USER        Electrostatic Energy            =   -4.12 kcal/mol
DOCKED: USER    (2) Final Total Internal Energy     =   -2.06 kcal/mol
DOCKED: USER    (3) Torsional Free Energy           =   +3.58 kcal/mol
DOCKED: USER    (4) Unbound System's Energy  [=(2)] =   -2.06 kcal/mol
DOCKED: USER    
DOCKED: USER    
DOCKED: USER    NEWDPF move heme_Co_opt.pdbqt
DOCKED: USER    NEWDPF about 8.781000 34.984000 -0.736000
DOCKED: USER    NEWDPF tran0 -7.153905 -1.120810 -13.236294
DOCKED: USER    NEWDPF quaternion0 -0.489998 -0.205319 -0.760870 -0.372590
DOCKED: USER    NEWDPF axisangle0 -0.528017 -0.221250 -0.819906 -136.249095
DOCKED: USER    NEWDPF quat0 -0.528017 -0.221250 -0.819906 -136.249095
DOCKED: USER    NEWDPF dihe0 -137.63 93.03 15.59 125.26 87.22 160.19 38.23 -21.46 165.06 -43.55 -174.09 180.00 
DOCKED: USER  keepresnum = 1 
DOCKED: USER  
DOCKED: REMARK  12 active torsions:
DOCKED: REMARK  status: ('A' for Active; 'I' for Inactive)
DOCKED: REMARK    1  A    between atoms: C_6  and  C_10 
DOCKED: REMARK    2  A    between atoms: C_10  and  C_11 
DOCKED: REMARK    3  A    between atoms: C_11  and  C_12 
DOCKED: REMARK    4  A    between atoms: C_12  and  O_14 
DOCKED: REMARK    5  A    between atoms: C_17  and  C_20 
DOCKED: REMARK    6  A    between atoms: C_24  and  C_27 
DOCKED: REMARK    7  A    between atoms: C_31  and  C_34 
DOCKED: REMARK    8  A    between atoms: C_34  and  C_35 
DOCKED: REMARK    9  A    between atoms: C_35  and  C_36 
DOCKED: REMARK   10  A    between atoms: C_36  and  O_38 
DOCKED: REMARK   11  A    between atoms: FE_43  and  C_44 
DOCKED: REMARK   12  A    between atoms: C_44  and  O_45 
DOCKED: USER                              x       y       z     vdW  Elec       q    Type
DOCKED: USER                           _______ _______ _______ _____ _____    ______ ____
DOCKED: ROOT
DOCKED: ATOM      1  C   UNL d   1      -6.806  -1.307 -15.372 -0.04 +0.07    +0.064 A 
DOCKED: ATOM      2  C   UNL d   1      -6.940   2.460 -12.474 -0.12 +0.05    +0.064 C 
DOCKED: ATOM      3  C   UNL d   1      -8.248  -0.342  -8.831 -0.14 +0.02    +0.064 A 
DOCKED: ATOM      4  C   UNL d   1      -7.743  -4.255 -11.676 -0.20 +0.04    +0.064 A 
DOCKED: ATOM      5  C   UNL d   1      -6.782  -0.067 -14.856 -0.03 +0.06    +0.066 A 
DOCKED: ATOM      6  C   UNL d   1      -6.367   1.048 -15.610 -0.03 -0.02    -0.021 A 
DOCKED: ATOM      7  C   UNL d   1      -6.386   2.134 -14.758 -0.07 -0.03    -0.025 A 
DOCKED: ATOM      8  C   UNL d   1      -6.827   1.640 -13.526 -0.07 +0.06    +0.066 A 
DOCKED: ATOM      9  C   UNL d   1      -6.006   3.589 -15.076 +0.09 +0.08    +0.051 C 
DOCKED: ATOM     10  C   UNL d   1      -7.411   2.047 -11.175 -0.12 +0.04    +0.066 A 
DOCKED: ATOM     11  C   UNL d   1      -7.685   2.884 -10.071 -0.19 -0.01    -0.021 A 
DOCKED: ATOM     12  C   UNL d   1      -8.068   2.041  -9.024 -0.22 +0.00    +0.000 A 
DOCKED: ATOM     13  C   UNL d   1      -8.012   0.758  -9.568 -0.11 +0.03    +0.070 A 
DOCKED: ATOM     14  C   UNL d   1      -7.669   4.391 -10.069 -0.19 +0.03    +0.052 C 
DOCKED: ATOM     15  C   UNL d   1      -8.183  -1.738  -9.215 -0.14 +0.02    +0.066 A 
DOCKED: ATOM     16  C   UNL d   1      -8.297  -2.831  -8.367 -0.24 -0.01    -0.021 A 
DOCKED: ATOM     17  C   UNL d   1      -8.150  -3.962  -9.183 -0.28 +0.00    +0.000 A 
DOCKED: ATOM     18  C   UNL d   1      -7.974  -3.468 -10.471 -0.16 +0.04    +0.070 A 
DOCKED: ATOM     19  C   UNL d   1      -8.531  -2.762  -6.874 -0.37 +0.01    +0.052 C 
DOCKED: ATOM     20  C   UNL d   1      -7.483  -3.795 -12.924 -0.14 +0.05    +0.066 A 
DOCKED: ATOM     21  C   UNL d   1      -7.242  -4.651 -13.996 -0.15 -0.02    -0.025 A 
DOCKED: ATOM     22  C   UNL d   1      -6.997  -3.830 -15.081 -0.10 -0.02    -0.021 A 
DOCKED: ATOM     23  C   UNL d   1      -7.090  -2.503 -14.611 -0.07 +0.07    +0.066 A 
DOCKED: ATOM     24  C   UNL d   1      -7.225  -6.177 -13.984 -0.24 +0.04    +0.051 C 
DOCKED: ATOM     25  N   UNL d   1      -7.085   0.280 -13.559 -0.02 -0.21    -0.248 N 
DOCKED: ATOM     26  N   UNL d   1      -7.668   0.767 -10.884 -0.03 -0.13    -0.248 N 
DOCKED: ATOM     27  N   UNL d   1      -7.969  -2.140 -10.448 -0.06 -0.12    -0.248 N 
DOCKED: ATOM     28  N   UNL d   1      -7.382  -2.477 -13.305 -0.06 -0.23    -0.248 N 
DOCKED: ATOM     29 FE   UNL d   1      -7.554  -1.004 -11.913 -0.02 +0.00    +0.000 Fe
DOCKED: ENDROOT
DOCKED: BRANCH   6  30
DOCKED: ATOM     30  C   UNL d   1      -5.897   1.041 -17.061 -0.01 +0.04    +0.052 C 
DOCKED: BRANCH  30  31
DOCKED: ATOM     31  C   UNL d   1      -4.385   0.827 -17.135 -0.02 +0.11    +0.115 C 
DOCKED: BRANCH  31  32
DOCKED: ATOM     32  C   UNL d   1      -3.701   1.083 -15.810 -0.07 +0.19    +0.139 C 
DOCKED: ATOM     33  O   UNL d   1      -3.275   2.200 -15.559 -0.39 -1.18    -0.650 OA
DOCKED: BRANCH  32  34
DOCKED: ATOM     34  O   UNL d   1      -3.585   0.121 -14.864 -0.15 -1.45    -0.776 OA
DOCKED: ATOM     35  H   UNL d   1      -3.668   0.280 -13.914 +0.03 +0.32    +0.167 HD
DOCKED: ENDBRANCH  32  34
DOCKED: ENDBRANCH  31  32
DOCKED: ENDBRANCH  30  31
DOCKED: ENDBRANCH   6  30
DOCKED: BRANCH  29  36
DOCKED: ATOM     36  C   UNL d   1      -5.493  -1.087 -11.538 -0.13 +0.22    +0.190 C 
DOCKED: BRANCH  36  37
DOCKED: ATOM     37  O   UNL d   1      -4.264  -0.560 -11.946 -0.33 -0.64    -0.399 OA
DOCKED: ATOM     38  H   UNL d   1      -4.431  -0.199 -12.861 +0.05 +0.38    +0.209 HD
DOCKED: ENDBRANCH  36  37
DOCKED: ENDBRANCH  29  36
DOCKED: BRANCH  22  39
DOCKED: ATOM     39  C   UNL d   1      -6.630  -4.301 -16.476 -0.09 +0.05    +0.052 C 
DOCKED: BRANCH  39  40
DOCKED: ATOM     40  C   UNL d   1      -5.146  -4.696 -16.542 -0.14 +0.15    +0.115 C 
DOCKED: BRANCH  40  41
DOCKED: ATOM     41  C   UNL d   1      -4.887  -6.047 -17.176 -0.15 +0.21    +0.139 C 
DOCKED: ATOM     42  O   UNL d   1      -4.242  -6.107 -18.213 -0.06 -1.06    -0.650 OA
DOCKED: BRANCH  41  43
DOCKED: ATOM     43  O   UNL d   1      -5.274  -7.197 -16.581 -0.29 -1.56    -0.776 OA
DOCKED: ATOM     44  H   UNL d   1      -5.978  -7.228 -15.920 +0.05 +0.20    +0.167 HD
DOCKED: ENDBRANCH  41  43
DOCKED: ENDBRANCH  40  41
DOCKED: ENDBRANCH  39  40
DOCKED: ENDBRANCH  22  39
DOCKED: BRANCH  12  45
DOCKED: ATOM     45  C   UNL d   1      -8.497   2.301  -7.586 -0.35 +0.00    +0.004 C 
DOCKED: ATOM     46  C   UNL d   1      -9.652   2.061  -6.970 -0.18 +0.00    +0.012 C 
DOCKED: ENDBRANCH  12  45
DOCKED: BRANCH  17  47
DOCKED: ATOM     47  C   UNL d   1      -8.119  -5.408  -8.812 -0.22 +0.00    +0.004 C 
DOCKED: ATOM     48  C   UNL d   1      -9.166  -6.061  -8.302 -0.54 +0.00    +0.012 C 
DOCKED: ENDBRANCH  17  47
DOCKED: TORSDOF 12
DOCKED: TER
DOCKED: ENDMDL
________________________________________________________________________________


	BEGINNING GENETIC ALGORITHM DOCKING 12 of 100
Run: 12 Seed: 273959415 1770221144 [ Run 12 of 100 GA/GALS ]
Beginning LAMARCKIAN GENETIC ALGORITHM (LGA), with a maximum of 25000000 energy evaluations.

Final-Value: -12.798


	FINAL GENETIC ALGORITHM DOCKED STATE
	_______________________________________________


Detailed state:  trans -5.066 -11.765 12.571 quatxyzw 0.667334 0.204712 0.678712 -0.228272 center 8.781 34.984 -0.736 ntor 12 73.8780 107.1415 -131.6401 45.1479 133.6079 140.9252 -13.0418 175.8417 30.0803 52.2802 -7.3906 152.9644
State:	 -5.066 -11.765  12.571   0.685  0.210  0.697 -153.609     73.88  107.14 -131.64   45.15  133.61  140.93  -13.04  175.84   30.08   52.28   -7.39  152.96

DOCKED: MODEL       12
DOCKED: USER    Run = 12
DOCKED: USER    DPF = D:/Protein_go_brrr/autodock/final/AncB/heme_Co/dock.dpf
DOCKED: USER  
DOCKED: USER    Estimated Free Energy of Binding    =   -7.11 kcal/mol  [=(1)+(2)+(3)-(4)]
DOCKED: USER    Estimated Inhibition Constant, Ki   =    6.15 uM (micromolar)  [Temperature = 298.15 K]
DOCKED: USER    
DOCKED: USER    (1) Final Intermolecular Energy     =  -10.69 kcal/mol
DOCKED: USER        vdW + Hbond + desolv Energy     =   -6.85 kcal/mol
DOCKED: USER        Electrostatic Energy            =   -3.84 kcal/mol
DOCKED: USER    (2) Final Total Internal Energy     =   -2.11 kcal/mol
DOCKED: USER    (3) Torsional Free Energy           =   +3.58 kcal/mol
DOCKED: USER    (4) Unbound System's Energy  [=(2)] =   -2.11 kcal/mol
DOCKED: USER    
DOCKED: USER    
DOCKED: USER    NEWDPF move heme_Co_opt.pdbqt
DOCKED: USER    NEWDPF about 8.781000 34.984000 -0.736000
DOCKED: USER    NEWDPF tran0 -5.066306 -11.764950 12.570817
DOCKED: USER    NEWDPF quaternion0 0.667334 0.204712 0.678712 -0.228272
DOCKED: USER    NEWDPF axisangle0 0.685431 0.210263 0.697118 -153.609274
DOCKED: USER    NEWDPF quat0 0.685431 0.210263 0.697118 -153.609274
DOCKED: USER    NEWDPF dihe0 73.88 107.14 -131.64 45.15 133.61 140.93 -13.04 175.84 30.08 52.28 -7.39 152.96 
DOCKED: USER  keepresnum = 1 
DOCKED: USER  
DOCKED: REMARK  12 active torsions:
DOCKED: REMARK  status: ('A' for Active; 'I' for Inactive)
DOCKED: REMARK    1  A    between atoms: C_6  and  C_10 
DOCKED: REMARK    2  A    between atoms: C_10  and  C_11 
DOCKED: REMARK    3  A    between atoms: C_11  and  C_12 
DOCKED: REMARK    4  A    between atoms: C_12  and  O_14 
DOCKED: REMARK    5  A    between atoms: C_17  and  C_20 
DOCKED: REMARK    6  A    between atoms: C_24  and  C_27 
DOCKED: REMARK    7  A    between atoms: C_31  and  C_34 
DOCKED: REMARK    8  A    between atoms: C_34  and  C_35 
DOCKED: REMARK    9  A    between atoms: C_35  and  C_36 
DOCKED: REMARK   10  A    between atoms: C_36  and  O_38 
DOCKED: REMARK   11  A    between atoms: FE_43  and  C_44 
DOCKED: REMARK   12  A    between atoms: C_44  and  O_45 
DOCKED: USER                              x       y       z     vdW  Elec       q    Type
DOCKED: USER                           _______ _______ _______ _____ _____    ______ ____
DOCKED: ROOT
DOCKED: ATOM      1  C   UNL d   1      -5.924 -13.276  11.268 -0.20 +0.03    +0.064 A 
DOCKED: ATOM      2  C   UNL d   1      -2.101 -10.482  10.836 -0.19 +0.01    +0.064 C 
DOCKED: ATOM      3  C   UNL d   1      -3.232  -8.242  14.902 -0.14 +0.01    +0.064 A 
DOCKED: ATOM      4  C   UNL d   1      -6.926 -11.337  15.565 -0.15 +0.03    +0.064 A 
DOCKED: ATOM      5  C   UNL d   1      -4.817 -12.653  10.833 -0.14 +0.03    +0.066 A 
DOCKED: ATOM      6  C   UNL d   1      -4.125 -13.076   9.681 -0.11 -0.01    -0.021 A 
DOCKED: ATOM      7  C   UNL d   1      -3.004 -12.276   9.573 -0.11 -0.01    -0.025 A 
DOCKED: ATOM      8  C   UNL d   1      -3.068 -11.390  10.653 -0.13 +0.02    +0.066 A 
DOCKED: ATOM      9  C   UNL d   1      -1.905 -12.333   8.500 -0.14 +0.01    +0.051 C 
DOCKED: ATOM     10  C   UNL d   1      -2.095  -9.512  11.903 -0.18 +0.01    +0.066 A 
DOCKED: ATOM     11  C   UNL d   1      -1.185  -8.445  12.069 -0.24 -0.00    -0.021 A 
DOCKED: ATOM     12  C   UNL d   1      -1.540  -7.806  13.260 -0.20 +0.00    +0.000 A 
DOCKED: ATOM     13  C   UNL d   1      -2.645  -8.520  13.725 -0.08 +0.02    +0.070 A 
DOCKED: ATOM     14  C   UNL d   1      -0.116  -8.025  11.093 -0.27 +0.01    +0.052 C 
DOCKED: ATOM     15  C   UNL d   1      -4.342  -8.906  15.556 -0.13 +0.02    +0.066 A 
DOCKED: ATOM     16  C   UNL d   1      -4.808  -8.659  16.840 -0.13 -0.00    -0.021 A 
DOCKED: ATOM     17  C   UNL d   1      -5.872  -9.552  17.037 -0.12 +0.00    +0.000 A 
DOCKED: ATOM     18  C   UNL d   1      -5.982 -10.263  15.847 -0.13 +0.04    +0.070 A 
DOCKED: ATOM     19  C   UNL d   1      -4.246  -7.628  17.794 -0.09 -0.00    +0.052 C 
DOCKED: ATOM     20  C   UNL d   1      -6.996 -12.101  14.448 -0.19 +0.03    +0.066 A 
DOCKED: ATOM     21  C   UNL d   1      -7.924 -13.130  14.308 -0.23 -0.01    -0.025 A 
DOCKED: ATOM     22  C   UNL d   1      -7.678 -13.688  13.067 -0.28 -0.01    -0.021 A 
DOCKED: ATOM     23  C   UNL d   1      -6.595 -12.974  12.512 -0.23 +0.03    +0.066 A 
DOCKED: ATOM     24  C   UNL d   1      -8.981 -13.574  15.315 -0.16 +0.02    +0.051 C 
DOCKED: ATOM     25  N   UNL d   1      -4.184 -11.596  11.447 -0.09 -0.09    -0.248 N 
DOCKED: ATOM     26  N   UNL d   1      -3.013  -9.516  12.875 -0.11 -0.08    -0.248 N 
DOCKED: ATOM     27  N   UNL d   1      -5.037  -9.873  14.999 -0.07 -0.15    -0.248 N 
DOCKED: ATOM     28  N   UNL d   1      -6.177 -12.014  13.346 -0.13 -0.13    -0.248 N 
DOCKED: ATOM     29 FE   UNL d   1      -4.638 -10.685  13.329 -0.04 +0.00    +0.000 Fe
DOCKED: ENDROOT
DOCKED: BRANCH   6  30
DOCKED: ATOM     30  C   UNL d   1      -4.492 -14.250   8.779 -0.10 +0.03    +0.052 C 
DOCKED: BRANCH  30  31
DOCKED: ATOM     31  C   UNL d   1      -5.662 -13.882   7.867 -0.23 +0.10    +0.115 C 
DOCKED: BRANCH  31  32
DOCKED: ATOM     32  C   UNL d   1      -6.491 -15.087   7.478 -0.23 +0.22    +0.139 C 
DOCKED: ATOM     33  O   UNL d   1      -6.954 -15.158   6.349 -0.11 -1.72    -0.650 OA
DOCKED: BRANCH  32  34
DOCKED: ATOM     34  O   UNL d   1      -6.699 -16.120   8.327 -0.55 -1.32    -0.776 OA
DOCKED: ATOM     35  H   UNL d   1      -7.247 -16.067   9.123 +0.00 +0.32    +0.167 HD
DOCKED: ENDBRANCH  32  34
DOCKED: ENDBRANCH  31  32
DOCKED: ENDBRANCH  30  31
DOCKED: ENDBRANCH   6  30
DOCKED: BRANCH  29  36
DOCKED: ATOM     36  C   UNL d   1      -3.369 -12.109  14.197 -0.02 +0.04    +0.190 C 
DOCKED: BRANCH  36  37
DOCKED: ATOM     37  O   UNL d   1      -2.703 -13.312  13.941 +0.00 -0.08    -0.399 OA
DOCKED: ATOM     38  H   UNL d   1      -3.020 -13.594  13.038 +0.01 +0.05    +0.209 HD
DOCKED: ENDBRANCH  36  37
DOCKED: ENDBRANCH  29  36
DOCKED: BRANCH  22  39
DOCKED: ATOM     39  C   UNL d   1      -8.405 -14.884  12.480 -0.07 +0.02    +0.052 C 
DOCKED: BRANCH  39  40
DOCKED: ATOM     40  C   UNL d   1      -7.512 -16.135  12.521 -0.14 +0.05    +0.115 C 
DOCKED: BRANCH  40  41
DOCKED: ATOM     41  C   UNL d   1      -7.481 -16.923  11.228 -0.12 +0.12    +0.139 C 
DOCKED: ATOM     42  O   UNL d   1      -8.531 -17.165  10.650 -0.05 -1.09    -0.650 OA
DOCKED: BRANCH  41  43
DOCKED: ATOM     43  O   UNL d   1      -6.317 -17.291  10.649 +0.03 -0.57    -0.776 OA
DOCKED: ATOM     44  H   UNL d   1      -6.101 -17.072   9.733 +0.03 +0.15    +0.167 HD
DOCKED: ENDBRANCH  41  43
DOCKED: ENDBRANCH  40  41
DOCKED: ENDBRANCH  39  40
DOCKED: ENDBRANCH  22  39
DOCKED: BRANCH  12  45
DOCKED: ATOM     45  C   UNL d   1      -0.979  -6.599  13.998 -0.31 +0.00    +0.004 C 
DOCKED: ATOM     46  C   UNL d   1      -0.472  -5.459  13.535 -0.43 -0.00    +0.012 C 
DOCKED: ENDBRANCH  12  45
DOCKED: BRANCH  17  47
DOCKED: ATOM     47  C   UNL d   1      -6.709  -9.784  18.251 -0.07 +0.00    +0.004 C 
DOCKED: ATOM     48  C   UNL d   1      -8.005  -9.472  18.324 -0.12 +0.00    +0.012 C 
DOCKED: ENDBRANCH  17  47
DOCKED: TORSDOF 12
DOCKED: TER
DOCKED: ENDMDL
________________________________________________________________________________


	BEGINNING GENETIC ALGORITHM DOCKING 13 of 100
Run: 13 Seed: 1855116812 826036269 [ Run 13 of 100 GA/GALS ]
Beginning LAMARCKIAN GENETIC ALGORITHM (LGA), with a maximum of 25000000 energy evaluations.

Final-Value: -11.223


	FINAL GENETIC ALGORITHM DOCKED STATE
	_______________________________________________


Detailed state:  trans 15.994 -0.340 -11.393 quatxyzw 0.023937 -0.707047 0.413920 0.572872 center 8.781 34.984 -0.736 ntor 12 178.8754 121.7319 -51.0029 117.0711 -78.8594 78.5819 -155.5326 -27.6272 -90.5842 -134.4900 -173.8956 151.9866
State:	 15.994  -0.340 -11.393   0.029 -0.863  0.505 110.099    178.88  121.73  -51.00  117.07  -78.86   78.58 -155.53  -27.63  -90.58 -134.49 -173.90  151.99

DOCKED: MODEL       13
DOCKED: USER    Run = 13
DOCKED: USER    DPF = D:/Protein_go_brrr/autodock/final/AncB/heme_Co/dock.dpf
DOCKED: USER  
DOCKED: USER    Estimated Free Energy of Binding    =   -4.74 kcal/mol  [=(1)+(2)+(3)-(4)]
DOCKED: USER    Estimated Inhibition Constant, Ki   =  337.91 uM (micromolar)  [Temperature = 298.15 K]
DOCKED: USER    
DOCKED: USER    (1) Final Intermolecular Energy     =   -8.32 kcal/mol
DOCKED: USER        vdW + Hbond + desolv Energy     =   -6.84 kcal/mol
DOCKED: USER        Electrostatic Energy            =   -1.48 kcal/mol
DOCKED: USER    (2) Final Total Internal Energy     =   -2.91 kcal/mol
DOCKED: USER    (3) Torsional Free Energy           =   +3.58 kcal/mol
DOCKED: USER    (4) Unbound System's Energy  [=(2)] =   -2.91 kcal/mol
DOCKED: USER    
DOCKED: USER    
DOCKED: USER    NEWDPF move heme_Co_opt.pdbqt
DOCKED: USER    NEWDPF about 8.781000 34.984000 -0.736000
DOCKED: USER    NEWDPF tran0 15.993755 -0.339831 -11.392833
DOCKED: USER    NEWDPF quaternion0 0.023937 -0.707047 0.413920 0.572872
DOCKED: USER    NEWDPF axisangle0 0.029204 -0.862625 0.504999 110.098529
DOCKED: USER    NEWDPF quat0 0.029204 -0.862625 0.504999 110.098529
DOCKED: USER    NEWDPF dihe0 178.88 121.73 -51.00 117.07 -78.86 78.58 -155.53 -27.63 -90.58 -134.49 -173.90 151.99 
DOCKED: USER  keepresnum = 1 
DOCKED: USER  
DOCKED: REMARK  12 active torsions:
DOCKED: REMARK  status: ('A' for Active; 'I' for Inactive)
DOCKED: REMARK    1  A    between atoms: C_6  and  C_10 
DOCKED: REMARK    2  A    between atoms: C_10  and  C_11 
DOCKED: REMARK    3  A    between atoms: C_11  and  C_12 
DOCKED: REMARK    4  A    between atoms: C_12  and  O_14 
DOCKED: REMARK    5  A    between atoms: C_17  and  C_20 
DOCKED: REMARK    6  A    between atoms: C_24  and  C_27 
DOCKED: REMARK    7  A    between atoms: C_31  and  C_34 
DOCKED: REMARK    8  A    between atoms: C_34  and  C_35 
DOCKED: REMARK    9  A    between atoms: C_35  and  C_36 
DOCKED: REMARK   10  A    between atoms: C_36  and  O_38 
DOCKED: REMARK   11  A    between atoms: FE_43  and  C_44 
DOCKED: REMARK   12  A    between atoms: C_44  and  O_45 
DOCKED: USER                              x       y       z     vdW  Elec       q    Type
DOCKED: USER                           _______ _______ _______ _____ _____    ______ ____
DOCKED: ROOT
DOCKED: ATOM      1  C   UNL d   1      16.171   1.445 -10.169 -0.29 +0.04    +0.064 A 
DOCKED: ATOM      2  C   UNL d   1      17.668  -3.024  -9.537 -0.18 +0.02    +0.064 C 
DOCKED: ATOM      3  C   UNL d   1      15.445  -4.375 -13.545 -0.11 +0.02    +0.064 A 
DOCKED: ATOM      4  C   UNL d   1      14.229   0.255 -14.415 -0.26 +0.02    +0.064 A 
DOCKED: ATOM      5  C   UNL d   1      16.713   0.316  -9.683 -0.32 +0.03    +0.066 A 
DOCKED: ATOM      6  C   UNL d   1      17.522   0.312  -8.530 -0.29 -0.01    -0.021 A 
DOCKED: ATOM      7  C   UNL d   1      17.972  -0.984  -8.364 -0.25 -0.01    -0.025 A 
DOCKED: ATOM      8  C   UNL d   1      17.406  -1.717  -9.413 -0.22 +0.02    +0.066 A 
DOCKED: ATOM      9  C   UNL d   1      18.901  -1.525  -7.267 -0.24 +0.02    +0.051 C 
DOCKED: ATOM     10  C   UNL d   1      17.110  -3.864 -10.567 -0.14 +0.03    +0.066 A 
DOCKED: ATOM     11  C   UNL d   1      17.233  -5.267 -10.670 -0.11 -0.01    -0.021 A 
DOCKED: ATOM     12  C   UNL d   1      16.573  -5.635 -11.846 -0.12 +0.00    +0.000 A 
DOCKED: ATOM     13  C   UNL d   1      16.086  -4.435 -12.365 -0.11 +0.03    +0.070 A 
DOCKED: ATOM     14  C   UNL d   1      17.861  -6.185  -9.653 -0.08 +0.02    +0.052 C 
DOCKED: ATOM     15  C   UNL d   1      14.925  -3.220 -14.252 -0.09 +0.02    +0.066 A 
DOCKED: ATOM     16  C   UNL d   1      14.402  -3.209 -15.537 -0.12 -0.00    -0.021 A 
DOCKED: ATOM     17  C   UNL d   1      14.053  -1.875 -15.794 -0.18 +0.00    +0.000 A 
DOCKED: ATOM     18  C   UNL d   1      14.375  -1.179 -14.634 -0.19 +0.02    +0.070 A 
DOCKED: ATOM     19  C   UNL d   1      14.262  -4.416 -16.438 -0.05 +0.01    +0.052 C 
DOCKED: ATOM     20  C   UNL d   1      14.615   0.967 -13.330 -0.27 +0.02    +0.066 A 
DOCKED: ATOM     21  C   UNL d   1      14.455   2.348 -13.251 -0.29 -0.01    -0.025 A 
DOCKED: ATOM     22  C   UNL d   1      14.979   2.716 -12.026 -0.27 -0.01    -0.021 A 
DOCKED: ATOM     23  C   UNL d   1      15.448   1.532 -11.417 -0.27 +0.03    +0.066 A 
DOCKED: ATOM     24  C   UNL d   1      13.850   3.277 -14.301 -0.31 +0.01    +0.051 C 
DOCKED: ATOM     25  N   UNL d   1      16.616  -0.938 -10.242 -0.19 -0.08    -0.248 N 
DOCKED: ATOM     26  N   UNL d   1      16.363  -3.373 -11.562 -0.10 -0.10    -0.248 N 
DOCKED: ATOM     27  N   UNL d   1      14.920  -2.006 -13.748 -0.05 -0.08    -0.248 N 
DOCKED: ATOM     28  N   UNL d   1      15.232   0.471 -12.204 -0.18 -0.08    -0.248 N 
DOCKED: ATOM     29 FE   UNL d   1      15.716  -1.501 -12.099 -0.06 +0.00    +0.000 Fe
DOCKED: ENDROOT
DOCKED: BRANCH   6  30
DOCKED: ATOM     30  C   UNL d   1      17.904   1.520  -7.682 -0.13 +0.03    +0.052 C 
DOCKED: BRANCH  30  31
DOCKED: ATOM     31  C   UNL d   1      19.192   2.156  -8.203 -0.16 +0.07    +0.115 C 
DOCKED: BRANCH  31  32
DOCKED: ATOM     32  C   UNL d   1      18.933   3.182  -9.286 -0.12 +0.12    +0.139 C 
DOCKED: ATOM     33  O   UNL d   1      18.483   4.277  -8.981 -0.19 -1.11    -0.650 OA
DOCKED: BRANCH  32  34
DOCKED: ATOM     34  O   UNL d   1      19.228   2.945 -10.585 +0.05 -0.39    -0.776 OA
DOCKED: ATOM     35  H   UNL d   1      19.010   3.546 -11.311 +0.03 +0.08    +0.167 HD
DOCKED: ENDBRANCH  32  34
DOCKED: ENDBRANCH  31  32
DOCKED: ENDBRANCH  30  31
DOCKED: ENDBRANCH   6  30
DOCKED: BRANCH  29  36
DOCKED: ATOM     36  C   UNL d   1      17.576  -1.115 -12.987 -0.04 +0.05    +0.190 C 
DOCKED: BRANCH  36  37
DOCKED: ATOM     37  O   UNL d   1      18.417  -0.079 -13.407 +0.00 -0.09    -0.399 OA
DOCKED: ATOM     38  H   UNL d   1      17.988   0.754 -13.064 +0.03 +0.06    +0.209 HD
DOCKED: ENDBRANCH  36  37
DOCKED: ENDBRANCH  29  36
DOCKED: BRANCH  22  39
DOCKED: ATOM     39  C   UNL d   1      15.080   4.136 -11.502 -0.33 +0.04    +0.052 C 
DOCKED: BRANCH  39  40
DOCKED: ATOM     40  C   UNL d   1      16.537   4.627 -11.544 -0.25 +0.09    +0.115 C 
DOCKED: BRANCH  40  41
DOCKED: ATOM     41  C   UNL d   1      17.303   4.207 -12.780 -0.08 +0.06    +0.139 C 
DOCKED: ATOM     42  O   UNL d   1      17.615   5.052 -13.607 +0.05 -0.23    -0.650 OA
DOCKED: BRANCH  41  43
DOCKED: ATOM     43  O   UNL d   1      17.730   2.936 -12.953 +0.07 -0.27    -0.776 OA
DOCKED: ATOM     44  H   UNL d   1      18.154   2.430 -12.248 +0.03 +0.06    +0.167 HD
DOCKED: ENDBRANCH  41  43
DOCKED: ENDBRANCH  40  41
DOCKED: ENDBRANCH  39  40
DOCKED: ENDBRANCH  22  39
DOCKED: BRANCH  12  45
DOCKED: ATOM     45  C   UNL d   1      16.330  -6.976 -12.525 -0.10 +0.00    +0.004 C 
DOCKED: ATOM     46  C   UNL d   1      15.217  -7.692 -12.656 -0.12 +0.01    +0.012 C 
DOCKED: ENDBRANCH  12  45
DOCKED: BRANCH  17  47
DOCKED: ATOM     47  C   UNL d   1      13.504  -1.255 -17.037 -0.13 +0.00    +0.004 C 
DOCKED: ATOM     48  C   UNL d   1      14.248  -0.572 -17.910 -0.09 +0.00    +0.012 C 
DOCKED: ENDBRANCH  17  47
DOCKED: TORSDOF 12
DOCKED: TER
DOCKED: ENDMDL
________________________________________________________________________________


	BEGINNING GENETIC ALGORITHM DOCKING 14 of 100
Run: 14 Seed: 1219663264 1010568794 [ Run 14 of 100 GA/GALS ]
Beginning LAMARCKIAN GENETIC ALGORITHM (LGA), with a maximum of 25000000 energy evaluations.

Final-Value: -11.742


	FINAL GENETIC ALGORITHM DOCKED STATE
	_______________________________________________


Detailed state:  trans -3.971 -10.946 12.335 quatxyzw 0.473220 0.137791 0.869984 -0.014273 center 8.781 34.984 -0.736 ntor 12 151.7246 134.0799 -7.0970 98.5528 135.7461 132.9058 -130.2103 70.6123 -129.9587 48.4709 -178.0367 8.5883
State:	 -3.971 -10.946  12.335   0.473  0.138  0.870 -178.364    151.72  134.08   -7.10   98.55  135.75  132.91 -130.21   70.61 -129.96   48.47 -178.04    8.59

DOCKED: MODEL       14
DOCKED: USER    Run = 14
DOCKED: USER    DPF = D:/Protein_go_brrr/autodock/final/AncB/heme_Co/dock.dpf
DOCKED: USER  
DOCKED: USER    Estimated Free Energy of Binding    =   -5.96 kcal/mol  [=(1)+(2)+(3)-(4)]
DOCKED: USER    Estimated Inhibition Constant, Ki   =   42.87 uM (micromolar)  [Temperature = 298.15 K]
DOCKED: USER    
DOCKED: USER    (1) Final Intermolecular Energy     =   -9.54 kcal/mol
DOCKED: USER        vdW + Hbond + desolv Energy     =   -6.60 kcal/mol
DOCKED: USER        Electrostatic Energy            =   -2.94 kcal/mol
DOCKED: USER    (2) Final Total Internal Energy     =   -2.20 kcal/mol
DOCKED: USER    (3) Torsional Free Energy           =   +3.58 kcal/mol
DOCKED: USER    (4) Unbound System's Energy  [=(2)] =   -2.20 kcal/mol
DOCKED: USER    
DOCKED: USER    
DOCKED: USER    NEWDPF move heme_Co_opt.pdbqt
DOCKED: USER    NEWDPF about 8.781000 34.984000 -0.736000
DOCKED: USER    NEWDPF tran0 -3.970758 -10.945787 12.334818
DOCKED: USER    NEWDPF quaternion0 0.473220 0.137791 0.869984 -0.014273
DOCKED: USER    NEWDPF axisangle0 0.473269 0.137805 0.870073 -178.364342
DOCKED: USER    NEWDPF quat0 0.473269 0.137805 0.870073 -178.364342
DOCKED: USER    NEWDPF dihe0 151.72 134.08 -7.10 98.55 135.75 132.91 -130.21 70.61 -129.96 48.47 -178.04 8.59 
DOCKED: USER  keepresnum = 1 
DOCKED: USER  
DOCKED: REMARK  12 active torsions:
DOCKED: REMARK  status: ('A' for Active; 'I' for Inactive)
DOCKED: REMARK    1  A    between atoms: C_6  and  C_10 
DOCKED: REMARK    2  A    between atoms: C_10  and  C_11 
DOCKED: REMARK    3  A    between atoms: C_11  and  C_12 
DOCKED: REMARK    4  A    between atoms: C_12  and  O_14 
DOCKED: REMARK    5  A    between atoms: C_17  and  C_20 
DOCKED: REMARK    6  A    between atoms: C_24  and  C_27 
DOCKED: REMARK    7  A    between atoms: C_31  and  C_34 
DOCKED: REMARK    8  A    between atoms: C_34  and  C_35 
DOCKED: REMARK    9  A    between atoms: C_35  and  C_36 
DOCKED: REMARK   10  A    between atoms: C_36  and  O_38 
DOCKED: REMARK   11  A    between atoms: FE_43  and  C_44 
DOCKED: REMARK   12  A    between atoms: C_44  and  O_45 
DOCKED: USER                              x       y       z     vdW  Elec       q    Type
DOCKED: USER                           _______ _______ _______ _____ _____    ______ ____
DOCKED: ROOT
DOCKED: ATOM      1  C   UNL d   1      -3.554 -11.918  10.439 -0.12 +0.02    +0.064 A 
DOCKED: ATOM      2  C   UNL d   1      -1.439  -8.320  12.717 -0.22 +0.01    +0.064 C 
DOCKED: ATOM      3  C   UNL d   1      -4.822  -8.418  16.089 -0.14 +0.02    +0.064 A 
DOCKED: ATOM      4  C   UNL d   1      -6.784 -12.342  13.989 -0.19 +0.03    +0.064 A 
DOCKED: ATOM      5  C   UNL d   1      -2.748 -10.904  10.794 -0.15 +0.02    +0.066 A 
DOCKED: ATOM      6  C   UNL d   1      -1.574 -10.597  10.079 -0.17 -0.00    -0.021 A 
DOCKED: ATOM      7  C   UNL d   1      -0.952  -9.567  10.757 -0.18 -0.00    -0.025 A 
DOCKED: ATOM      8  C   UNL d   1      -1.781  -9.279  11.847 -0.19 +0.01    +0.066 A 
DOCKED: ATOM      9  C   UNL d   1       0.371  -8.870  10.406 -0.05 +0.01    +0.051 C 
DOCKED: ATOM     10  C   UNL d   1      -2.241  -7.936  13.852 -0.14 +0.01    +0.066 A 
DOCKED: ATOM     11  C   UNL d   1      -2.008  -6.847  14.720 -0.24 -0.00    -0.021 A 
DOCKED: ATOM     12  C   UNL d   1      -3.012  -6.897  15.691 -0.22 +0.00    +0.000 A 
DOCKED: ATOM     13  C   UNL d   1      -3.787  -8.002  15.338 -0.12 +0.01    +0.070 A 
DOCKED: ATOM     14  C   UNL d   1      -0.950  -5.787  14.557 -0.33 -0.00    +0.052 C 
DOCKED: ATOM     15  C   UNL d   1      -5.693  -9.562  15.903 -0.06 +0.04    +0.066 A 
DOCKED: ATOM     16  C   UNL d   1      -6.652 -10.020  16.795 -0.13 -0.01    -0.021 A 
DOCKED: ATOM     17  C   UNL d   1      -7.219 -11.153  16.195 -0.15 +0.00    +0.000 A 
DOCKED: ATOM     18  C   UNL d   1      -6.570 -11.287  14.972 -0.16 +0.04    +0.070 A 
DOCKED: ATOM     19  C   UNL d   1      -6.980  -9.390  18.130 -0.10 +0.01    +0.052 C 
DOCKED: ATOM     20  C   UNL d   1      -6.106 -12.543  12.834 -0.18 +0.03    +0.066 A 
DOCKED: ATOM     21  C   UNL d   1      -6.379 -13.615  11.988 -0.21 -0.01    -0.025 A 
DOCKED: ATOM     22  C   UNL d   1      -5.483 -13.503  10.941 -0.16 -0.01    -0.021 A 
DOCKED: ATOM     23  C   UNL d   1      -4.692 -12.365  11.209 -0.14 +0.03    +0.066 A 
DOCKED: ATOM     24  C   UNL d   1      -7.430 -14.706  12.177 -0.21 +0.02    +0.051 C 
DOCKED: ATOM     25  N   UNL d   1      -2.904 -10.088  11.892 -0.12 -0.07    -0.248 N 
DOCKED: ATOM     26  N   UNL d   1      -3.353  -8.595  14.195 -0.02 -0.08    -0.248 N 
DOCKED: ATOM     27  N   UNL d   1      -5.647 -10.341  14.845 -0.08 -0.17    -0.248 N 
DOCKED: ATOM     28  N   UNL d   1      -5.065 -11.782  12.355 -0.10 -0.11    -0.248 N 
DOCKED: ATOM     29 FE   UNL d   1      -4.358 -10.225  13.454 -0.04 +0.00    +0.000 Fe
DOCKED: ENDROOT
DOCKED: BRANCH   6  30
DOCKED: ATOM     30  C   UNL d   1      -1.043 -11.322   8.847 -0.17 +0.01    +0.052 C 
DOCKED: BRANCH  30  31
DOCKED: ATOM     31  C   UNL d   1      -0.040 -12.403   9.251 -0.04 +0.02    +0.115 C 
DOCKED: BRANCH  31  32
DOCKED: ATOM     32  C   UNL d   1      -0.555 -13.277  10.375 -0.01 +0.03    +0.139 C 
DOCKED: ATOM     33  O   UNL d   1      -1.020 -14.376  10.116 +0.01 -0.14    -0.650 OA
DOCKED: BRANCH  32  34
DOCKED: ATOM     34  O   UNL d   1      -0.473 -12.900  11.672 +0.01 -0.12    -0.776 OA
DOCKED: ATOM     35  H   UNL d   1      -1.120 -13.138  12.349 +0.01 +0.03    +0.167 HD
DOCKED: ENDBRANCH  32  34
DOCKED: ENDBRANCH  31  32
DOCKED: ENDBRANCH  30  31
DOCKED: ENDBRANCH   6  30
DOCKED: BRANCH  29  36
DOCKED: ATOM     36  C   UNL d   1      -3.016 -11.498  14.439 -0.03 +0.04    +0.190 C 
DOCKED: BRANCH  36  37
DOCKED: ATOM     37  O   UNL d   1      -1.926 -12.348  14.226 +0.00 -0.07    -0.399 OA
DOCKED: ATOM     38  H   UNL d   1      -1.539 -12.055  13.354 +0.01 +0.04    +0.209 HD
DOCKED: ENDBRANCH  36  37
DOCKED: ENDBRANCH  29  36
DOCKED: BRANCH  22  39
DOCKED: ATOM     39  C   UNL d   1      -5.355 -14.475   9.784 -0.15 +0.03    +0.052 C 
DOCKED: BRANCH  39  40
DOCKED: ATOM     40  C   UNL d   1      -5.851 -13.834   8.478 -0.24 +0.09    +0.115 C 
DOCKED: BRANCH  40  41
DOCKED: ATOM     41  C   UNL d   1      -6.705 -14.744   7.620 -0.26 +0.21    +0.139 C 
DOCKED: ATOM     42  O   UNL d   1      -6.714 -14.587   6.407 -0.19 -1.35    -0.650 OA
DOCKED: BRANCH  41  43
DOCKED: ATOM     43  O   UNL d   1      -7.389 -15.783   8.148 -0.37 -1.94    -0.776 OA
DOCKED: ATOM     44  H   UNL d   1      -7.360 -15.999   9.089 +0.00 +0.33    +0.167 HD
DOCKED: ENDBRANCH  41  43
DOCKED: ENDBRANCH  40  41
DOCKED: ENDBRANCH  39  40
DOCKED: ENDBRANCH  22  39
DOCKED: BRANCH  12  45
DOCKED: ATOM     45  C   UNL d   1      -3.337  -6.022  16.895 -0.22 -0.00    +0.004 C 
DOCKED: ATOM     46  C   UNL d   1      -4.112  -4.946  16.999 -0.30 -0.00    +0.012 C 
DOCKED: ENDBRANCH  12  45
DOCKED: BRANCH  17  47
DOCKED: ATOM     47  C   UNL d   1      -8.255 -12.093  16.719 -0.12 +0.00    +0.004 C 
DOCKED: ATOM     48  C   UNL d   1      -9.472 -12.220  16.185 -0.20 +0.00    +0.012 C 
DOCKED: ENDBRANCH  17  47
DOCKED: TORSDOF 12
DOCKED: TER
DOCKED: ENDMDL
________________________________________________________________________________


	BEGINNING GENETIC ALGORITHM DOCKING 15 of 100
Run: 15 Seed: 621655788 1989324544 [ Run 15 of 100 GA/GALS ]
Beginning LAMARCKIAN GENETIC ALGORITHM (LGA), with a maximum of 25000000 energy evaluations.

Final-Value: -10.788


	FINAL GENETIC ALGORITHM DOCKED STATE
	_______________________________________________


Detailed state:  trans 19.812 3.201 -2.813 quatxyzw -0.249215 -0.084749 -0.672673 -0.691535 center 8.781 34.984 -0.736 ntor 12 131.5442 114.8913 -13.0439 109.0889 132.4439 137.3448 -179.8373 127.3302 -125.2142 -103.1872 -12.1101 -16.0276
State:	 19.812   3.201  -2.813  -0.345 -0.117 -0.931 -92.496    131.54  114.89  -13.04  109.09  132.44  137.34 -179.84  127.33 -125.21 -103.19  -12.11  -16.03

DOCKED: MODEL       15
DOCKED: USER    Run = 15
DOCKED: USER    DPF = D:/Protein_go_brrr/autodock/final/AncB/heme_Co/dock.dpf
DOCKED: USER  
DOCKED: USER    Estimated Free Energy of Binding    =   -6.46 kcal/mol  [=(1)+(2)+(3)-(4)]
DOCKED: USER    Estimated Inhibition Constant, Ki   =   18.54 uM (micromolar)  [Temperature = 298.15 K]
DOCKED: USER    
DOCKED: USER    (1) Final Intermolecular Energy     =  -10.04 kcal/mol
DOCKED: USER        vdW + Hbond + desolv Energy     =   -6.88 kcal/mol
DOCKED: USER        Electrostatic Energy            =   -3.15 kcal/mol
DOCKED: USER    (2) Final Total Internal Energy     =   -0.75 kcal/mol
DOCKED: USER    (3) Torsional Free Energy           =   +3.58 kcal/mol
DOCKED: USER    (4) Unbound System's Energy  [=(2)] =   -0.75 kcal/mol
DOCKED: USER    
DOCKED: USER    
DOCKED: USER    NEWDPF move heme_Co_opt.pdbqt
DOCKED: USER    NEWDPF about 8.781000 34.984000 -0.736000
DOCKED: USER    NEWDPF tran0 19.812243 3.200903 -2.812705
DOCKED: USER    NEWDPF quaternion0 -0.249215 -0.084749 -0.672673 -0.691535
DOCKED: USER    NEWDPF axisangle0 -0.345009 -0.117326 -0.931238 -92.496466
DOCKED: USER    NEWDPF quat0 -0.345009 -0.117326 -0.931238 -92.496466
DOCKED: USER    NEWDPF dihe0 131.54 114.89 -13.04 109.09 132.44 137.34 -179.84 127.33 -125.21 -103.19 -12.11 -16.03 
DOCKED: USER  keepresnum = 1 
DOCKED: USER  
DOCKED: REMARK  12 active torsions:
DOCKED: REMARK  status: ('A' for Active; 'I' for Inactive)
DOCKED: REMARK    1  A    between atoms: C_6  and  C_10 
DOCKED: REMARK    2  A    between atoms: C_10  and  C_11 
DOCKED: REMARK    3  A    between atoms: C_11  and  C_12 
DOCKED: REMARK    4  A    between atoms: C_12  and  O_14 
DOCKED: REMARK    5  A    between atoms: C_17  and  C_20 
DOCKED: REMARK    6  A    between atoms: C_24  and  C_27 
DOCKED: REMARK    7  A    between atoms: C_31  and  C_34 
DOCKED: REMARK    8  A    between atoms: C_34  and  C_35 
DOCKED: REMARK    9  A    between atoms: C_35  and  C_36 
DOCKED: REMARK   10  A    between atoms: C_36  and  O_38 
DOCKED: REMARK   11  A    between atoms: FE_43  and  C_44 
DOCKED: REMARK   12  A    between atoms: C_44  and  O_45 
DOCKED: USER                              x       y       z     vdW  Elec       q    Type
DOCKED: USER                           _______ _______ _______ _____ _____    ______ ____
DOCKED: ROOT
DOCKED: ATOM      1  C   UNL d   1      19.956   4.515  -4.536 -0.12 +0.03    +0.064 A 
DOCKED: ATOM      2  C   UNL d   1      18.285   5.188  -0.135 -0.13 -0.00    +0.064 C 
DOCKED: ATOM      3  C   UNL d   1      18.995   0.573   0.881 -0.19 +0.00    +0.064 A 
DOCKED: ATOM      4  C   UNL d   1      21.063  -0.054  -3.477 -0.10 +0.01    +0.064 A 
DOCKED: ATOM      5  C   UNL d   1      19.414   5.030  -3.420 -0.15 +0.02    +0.066 A 
DOCKED: ATOM      6  C   UNL d   1      19.121   6.402  -3.295 -0.15 -0.01    -0.021 A 
DOCKED: ATOM      7  C   UNL d   1      18.658   6.595  -2.009 -0.18 -0.00    -0.025 A 
DOCKED: ATOM      8  C   UNL d   1      18.672   5.332  -1.409 -0.06 +0.00    +0.066 A 
DOCKED: ATOM      9  C   UNL d   1      18.217   7.913  -1.354 -0.20 +0.01    +0.051 C 
DOCKED: ATOM     10  C   UNL d   1      18.241   3.924   0.557 -0.26 -0.00    +0.066 A 
DOCKED: ATOM     11  C   UNL d   1      17.713   3.686   1.845 -0.27 +0.00    -0.021 A 
DOCKED: ATOM     12  C   UNL d   1      17.930   2.331   2.114 -0.16 -0.00    +0.000 A 
DOCKED: ATOM     13  C   UNL d   1      18.560   1.842   0.970 -0.19 -0.00    +0.070 A 
DOCKED: ATOM     14  C   UNL d   1      16.971   4.678   2.703 -0.28 +0.00    +0.052 C 
DOCKED: ATOM     15  C   UNL d   1      19.707  -0.081  -0.199 -0.17 +0.01    +0.066 A 
DOCKED: ATOM     16  C   UNL d   1      20.257  -1.355  -0.170 -0.12 -0.00    -0.021 A 
DOCKED: ATOM     17  C   UNL d   1      20.857  -1.540  -1.424 -0.10 +0.00    +0.000 A 
DOCKED: ATOM     18  C   UNL d   1      20.610  -0.366  -2.128 -0.13 +0.01    +0.070 A 
DOCKED: ATOM     19  C   UNL d   1      20.196  -2.310   1.002 -0.09 +0.00    +0.052 C 
DOCKED: ATOM     20  C   UNL d   1      20.910   1.112  -4.150 -0.07 +0.02    +0.066 A 
DOCKED: ATOM     21  C   UNL d   1      21.422   1.304  -5.431 -0.07 -0.01    -0.025 A 
DOCKED: ATOM     22  C   UNL d   1      21.093   2.602  -5.774 -0.08 -0.01    -0.021 A 
DOCKED: ATOM     23  C   UNL d   1      20.401   3.147  -4.671 -0.08 +0.02    +0.066 A 
DOCKED: ATOM     24  C   UNL d   1      22.204   0.306  -6.281 -0.03 +0.01    +0.051 C 
DOCKED: ATOM     25  N   UNL d   1      19.130   4.342  -2.262 -0.14 -0.04    -0.248 N 
DOCKED: ATOM     26  N   UNL d   1      18.696   2.793   0.007 -0.19 -0.00    -0.248 N 
DOCKED: ATOM     27  N   UNL d   1      19.950   0.491  -1.357 -0.11 -0.04    -0.248 N 
DOCKED: ATOM     28  N   UNL d   1      20.290   2.248  -3.685 +0.00 -0.07    -0.248 N 
DOCKED: ATOM     29 FE   UNL d   1      19.565   2.302  -1.786 -0.05 +0.00    +0.000 Fe
DOCKED: ENDROOT
DOCKED: BRANCH   6  30
DOCKED: ATOM     30  C   UNL d   1      19.359   7.482  -4.346 -0.15 +0.02    +0.052 C 
DOCKED: BRANCH  30  31
DOCKED: ATOM     31  C   UNL d   1      18.361   7.342  -5.495 -0.26 +0.07    +0.115 C 
DOCKED: BRANCH  31  32
DOCKED: ATOM     32  C   UNL d   1      16.927   7.299  -5.011 -0.44 +0.11    +0.139 C 
DOCKED: ATOM     33  O   UNL d   1      16.526   8.159  -4.241 -0.10 -0.32    -0.650 OA
DOCKED: BRANCH  32  34
DOCKED: ATOM     34  O   UNL d   1      16.052   6.361  -5.443 -0.38 -1.33    -0.776 OA
DOCKED: ATOM     35  H   UNL d   1      15.527   5.797  -4.858 -0.32 +0.14    +0.167 HD
DOCKED: ENDBRANCH  32  34
DOCKED: ENDBRANCH  31  32
DOCKED: ENDBRANCH  30  31
DOCKED: ENDBRANCH   6  30
DOCKED: BRANCH  29  36
DOCKED: ATOM     36  C   UNL d   1      21.416   2.981  -1.073 -0.04 +0.02    +0.190 C 
DOCKED: BRANCH  36  37
DOCKED: ATOM     37  O   UNL d   1      22.298   4.065  -1.119 -0.00 -0.05    -0.399 OA
DOCKED: ATOM     38  H   UNL d   1      21.839   4.745  -1.688 +0.02 +0.03    +0.209 HD
DOCKED: ENDBRANCH  36  37
DOCKED: ENDBRANCH  29  36
DOCKED: BRANCH  22  39
DOCKED: ATOM     39  C   UNL d   1      21.482   3.297  -7.065 -0.04 +0.02    +0.052 C 
DOCKED: BRANCH  39  40
DOCKED: ATOM     40  C   UNL d   1      20.466   2.985  -8.177 -0.07 +0.06    +0.115 C 
DOCKED: BRANCH  40  41
DOCKED: ATOM     41  C   UNL d   1      19.118   3.650  -7.996 -0.05 +0.16    +0.139 C 
DOCKED: ATOM     42  O   UNL d   1      18.216   3.035  -7.446 -0.17 -0.88    -0.650 OA
DOCKED: BRANCH  41  43
DOCKED: ATOM     43  O   UNL d   1      18.909   4.939  -8.347 -0.43 -1.32    -0.776 OA
DOCKED: ATOM     44  H   UNL d   1      19.623   5.520  -8.639 +0.04 +0.15    +0.167 HD
DOCKED: ENDBRANCH  41  43
DOCKED: ENDBRANCH  40  41
DOCKED: ENDBRANCH  39  40
DOCKED: ENDBRANCH  22  39
DOCKED: BRANCH  12  45
DOCKED: ATOM     45  C   UNL d   1      17.599   1.444   3.307 -0.23 -0.00    +0.004 C 
DOCKED: ATOM     46  C   UNL d   1      16.610   0.573   3.490 -0.29 -0.00    +0.012 C 
DOCKED: ENDBRANCH  12  45
DOCKED: BRANCH  17  47
DOCKED: ATOM     47  C   UNL d   1      21.653  -2.693  -1.940 -0.06 +0.00    +0.004 C 
DOCKED: ATOM     48  C   UNL d   1      21.220  -3.519  -2.895 -0.07 +0.00    +0.012 C 
DOCKED: ENDBRANCH  17  47
DOCKED: TORSDOF 12
DOCKED: TER
DOCKED: ENDMDL
________________________________________________________________________________


	BEGINNING GENETIC ALGORITHM DOCKING 16 of 100
Run: 16 Seed: 1829474671 1194229398 [ Run 16 of 100 GA/GALS ]
Beginning LAMARCKIAN GENETIC ALGORITHM (LGA), with a maximum of 25000000 energy evaluations.

Final-Value: -12.478


	FINAL GENETIC ALGORITHM DOCKED STATE
	_______________________________________________


Detailed state:  trans -5.024 -11.377 12.586 quatxyzw -0.681803 -0.193439 -0.671785 0.215477 center 8.781 34.984 -0.736 ntor 12 -17.2200 93.8833 -152.2138 16.2560 132.7775 89.9852 19.7627 124.2018 30.8703 147.8828 -26.2338 165.9836
State:	 -5.024 -11.377  12.586  -0.698 -0.198 -0.688 155.113    -17.22   93.88 -152.21   16.26  132.78   89.99   19.76  124.20   30.87  147.88  -26.23  165.98

DOCKED: MODEL       16
DOCKED: USER    Run = 16
DOCKED: USER    DPF = D:/Protein_go_brrr/autodock/final/AncB/heme_Co/dock.dpf
DOCKED: USER  
DOCKED: USER    Estimated Free Energy of Binding    =   -6.35 kcal/mol  [=(1)+(2)+(3)-(4)]
DOCKED: USER    Estimated Inhibition Constant, Ki   =   22.04 uM (micromolar)  [Temperature = 298.15 K]
DOCKED: USER    
DOCKED: USER    (1) Final Intermolecular Energy     =   -9.93 kcal/mol
DOCKED: USER        vdW + Hbond + desolv Energy     =   -7.10 kcal/mol
DOCKED: USER        Electrostatic Energy            =   -2.83 kcal/mol
DOCKED: USER    (2) Final Total Internal Energy     =   -2.55 kcal/mol
DOCKED: USER    (3) Torsional Free Energy           =   +3.58 kcal/mol
DOCKED: USER    (4) Unbound System's Energy  [=(2)] =   -2.55 kcal/mol
DOCKED: USER    
DOCKED: USER    
DOCKED: USER    NEWDPF move heme_Co_opt.pdbqt
DOCKED: USER    NEWDPF about 8.781000 34.984000 -0.736000
DOCKED: USER    NEWDPF tran0 -5.024460 -11.377339 12.586374
DOCKED: USER    NEWDPF quaternion0 -0.681803 -0.193439 -0.671785 0.215477
DOCKED: USER    NEWDPF axisangle0 -0.698205 -0.198092 -0.687946 155.112946
DOCKED: USER    NEWDPF quat0 -0.698205 -0.198092 -0.687946 155.112946
DOCKED: USER    NEWDPF dihe0 -17.22 93.88 -152.21 16.26 132.78 89.99 19.76 124.20 30.87 147.88 -26.23 165.98 
DOCKED: USER  keepresnum = 1 
DOCKED: USER  
DOCKED: REMARK  12 active torsions:
DOCKED: REMARK  status: ('A' for Active; 'I' for Inactive)
DOCKED: REMARK    1  A    between atoms: C_6  and  C_10 
DOCKED: REMARK    2  A    between atoms: C_10  and  C_11 
DOCKED: REMARK    3  A    between atoms: C_11  and  C_12 
DOCKED: REMARK    4  A    between atoms: C_12  and  O_14 
DOCKED: REMARK    5  A    between atoms: C_17  and  C_20 
DOCKED: REMARK    6  A    between atoms: C_24  and  C_27 
DOCKED: REMARK    7  A    between atoms: C_31  and  C_34 
DOCKED: REMARK    8  A    between atoms: C_34  and  C_35 
DOCKED: REMARK    9  A    between atoms: C_35  and  C_36 
DOCKED: REMARK   10  A    between atoms: C_36  and  O_38 
DOCKED: REMARK   11  A    between atoms: FE_43  and  C_44 
DOCKED: REMARK   12  A    between atoms: C_44  and  O_45 
DOCKED: USER                              x       y       z     vdW  Elec       q    Type
DOCKED: USER                           _______ _______ _______ _____ _____    ______ ____
DOCKED: ROOT
DOCKED: ATOM      1  C   UNL d   1      -5.930 -12.834  11.255 -0.22 +0.03    +0.064 A 
DOCKED: ATOM      2  C   UNL d   1      -2.101 -10.051  10.814 -0.23 +0.01    +0.064 C 
DOCKED: ATOM      3  C   UNL d   1      -3.098  -7.952  14.989 -0.14 +0.01    +0.064 A 
DOCKED: ATOM      4  C   UNL d   1      -6.793 -11.047  15.646 -0.15 +0.03    +0.064 A 
DOCKED: ATOM      5  C   UNL d   1      -4.831 -12.203  10.811 -0.17 +0.03    +0.066 A 
DOCKED: ATOM      6  C   UNL d   1      -4.177 -12.588   9.625 -0.15 -0.01    -0.021 A 
DOCKED: ATOM      7  C   UNL d   1      -3.053 -11.792   9.513 -0.15 -0.01    -0.025 A 
DOCKED: ATOM      8  C   UNL d   1      -3.080 -10.945  10.626 -0.17 +0.02    +0.066 A 
DOCKED: ATOM      9  C   UNL d   1      -1.987 -11.817   8.408 -0.20 +0.01    +0.051 C 
DOCKED: ATOM     10  C   UNL d   1      -2.057  -9.120  11.914 -0.19 +0.01    +0.066 A 
DOCKED: ATOM     11  C   UNL d   1      -1.135  -8.066  12.092 -0.25 -0.00    -0.021 A 
DOCKED: ATOM     12  C   UNL d   1      -1.451  -7.468  13.315 -0.21 +0.00    +0.000 A 
DOCKED: ATOM     13  C   UNL d   1      -2.547  -8.192  13.786 -0.14 +0.02    +0.070 A 
DOCKED: ATOM     14  C   UNL d   1      -0.092  -7.617  11.101 -0.30 +0.00    +0.052 C 
DOCKED: ATOM     15  C   UNL d   1      -4.194  -8.633  15.651 -0.12 +0.02    +0.066 A 
DOCKED: ATOM     16  C   UNL d   1      -4.620  -8.430  16.956 -0.12 -0.00    -0.021 A 
DOCKED: ATOM     17  C   UNL d   1      -5.684  -9.322  17.151 -0.12 +0.00    +0.000 A 
DOCKED: ATOM     18  C   UNL d   1      -5.835  -9.989  15.940 -0.10 +0.04    +0.070 A 
DOCKED: ATOM     19  C   UNL d   1      -4.024  -7.438  17.929 -0.08 -0.00    +0.052 C 
DOCKED: ATOM     20  C   UNL d   1      -6.901 -11.769  14.506 -0.20 +0.04    +0.066 A 
DOCKED: ATOM     21  C   UNL d   1      -7.841 -12.786  14.356 -0.24 -0.01    -0.025 A 
DOCKED: ATOM     22  C   UNL d   1      -7.635 -13.301  13.088 -0.30 -0.01    -0.021 A 
DOCKED: ATOM     23  C   UNL d   1      -6.563 -12.574  12.528 -0.25 +0.03    +0.066 A 
DOCKED: ATOM     24  C   UNL d   1      -8.872 -13.260  15.377 -0.18 +0.02    +0.051 C 
DOCKED: ATOM     25  N   UNL d   1      -4.173 -11.173  11.444 -0.11 -0.10    -0.248 N 
DOCKED: ATOM     26  N   UNL d   1      -2.947  -9.154  12.912 -0.06 -0.08    -0.248 N 
DOCKED: ATOM     27  N   UNL d   1      -4.911  -9.574  15.079 -0.08 -0.15    -0.248 N 
DOCKED: ATOM     28  N   UNL d   1      -6.115 -11.647  13.384 -0.14 -0.14    -0.248 N 
DOCKED: ATOM     29 FE   UNL d   1      -4.567 -10.328  13.370 -0.05 +0.00    +0.000 Fe
DOCKED: ENDROOT
DOCKED: BRANCH   6  30
DOCKED: ATOM     30  C   UNL d   1      -4.578 -13.727   8.693 -0.13 +0.03    +0.052 C 
DOCKED: BRANCH  30  31
DOCKED: ATOM     31  C   UNL d   1      -6.003 -13.524   8.180 -0.27 +0.10    +0.115 C 
DOCKED: BRANCH  31  32
DOCKED: ATOM     32  C   UNL d   1      -6.697 -14.834   7.871 -0.25 +0.20    +0.139 C 
DOCKED: ATOM     33  O   UNL d   1      -6.924 -15.134   6.709 -0.24 -1.49    -0.650 OA
DOCKED: BRANCH  32  34
DOCKED: ATOM     34  O   UNL d   1      -7.034 -15.714   8.842 -0.29 -1.34    -0.776 OA
DOCKED: ATOM     35  H   UNL d   1      -6.624 -15.741   9.718 +0.02 +0.18    +0.167 HD
DOCKED: ENDBRANCH  32  34
DOCKED: ENDBRANCH  31  32
DOCKED: ENDBRANCH  30  31
DOCKED: ENDBRANCH   6  30
DOCKED: BRANCH  29  36
DOCKED: ATOM     36  C   UNL d   1      -3.283 -11.791  14.149 -0.03 +0.05    +0.190 C 
DOCKED: BRANCH  36  37
DOCKED: ATOM     37  O   UNL d   1      -3.140 -13.172  14.319 +0.00 -0.08    -0.399 OA
DOCKED: ATOM     38  H   UNL d   1      -4.062 -13.540  14.217 +0.02 +0.05    +0.209 HD
DOCKED: ENDBRANCH  36  37
DOCKED: ENDBRANCH  29  36
DOCKED: BRANCH  22  39
DOCKED: ATOM     39  C   UNL d   1      -8.387 -14.470  12.481 -0.08 +0.02    +0.052 C 
DOCKED: BRANCH  39  40
DOCKED: ATOM     40  C   UNL d   1      -7.640 -15.789  12.739 -0.15 +0.05    +0.115 C 
DOCKED: BRANCH  40  41
DOCKED: ATOM     41  C   UNL d   1      -6.132 -15.679  12.660 -0.05 +0.05    +0.139 C 
DOCKED: ATOM     42  O   UNL d   1      -5.562 -15.998  11.627 +0.03 -0.29    -0.650 OA
DOCKED: BRANCH  41  43
DOCKED: ATOM     43  O   UNL d   1      -5.404 -15.155  13.671 +0.05 -0.22    -0.776 OA
DOCKED: ATOM     44  H   UNL d   1      -4.600 -14.641  13.520 +0.02 +0.04    +0.167 HD
DOCKED: ENDBRANCH  41  43
DOCKED: ENDBRANCH  40  41
DOCKED: ENDBRANCH  39  40
DOCKED: ENDBRANCH  22  39
DOCKED: BRANCH  12  45
DOCKED: ATOM     45  C   UNL d   1      -0.860  -6.292  14.080 -0.34 +0.00    +0.004 C 
DOCKED: ATOM     46  C   UNL d   1       0.063  -5.403  13.722 -0.41 -0.00    +0.012 C 
DOCKED: ENDBRANCH  12  45
DOCKED: BRANCH  17  47
DOCKED: ATOM     47  C   UNL d   1      -6.488  -9.594  18.380 -0.07 +0.00    +0.004 C 
DOCKED: ATOM     48  C   UNL d   1      -7.775  -9.261  18.507 -0.11 +0.00    +0.012 C 
DOCKED: ENDBRANCH  17  47
DOCKED: TORSDOF 12
DOCKED: TER
DOCKED: ENDMDL
________________________________________________________________________________


	BEGINNING GENETIC ALGORITHM DOCKING 17 of 100
Run: 17 Seed: 218839554 1589870898 [ Run 17 of 100 GA/GALS ]
Beginning LAMARCKIAN GENETIC ALGORITHM (LGA), with a maximum of 25000000 energy evaluations.

Final-Value: -10.474


	FINAL GENETIC ALGORITHM DOCKED STATE
	_______________________________________________


Detailed state:  trans 20.403 8.231 -4.891 quatxyzw -0.022211 -0.664736 0.521638 -0.534347 center 8.781 34.984 -0.736 ntor 12 -104.2788 75.1043 -46.2977 -15.0631 -98.8101 138.0519 36.3313 -55.3677 -179.9568 -71.4846 -174.5780 -180.0000
State:	 20.403   8.231  -4.891  -0.026 -0.786  0.617 -115.401   -104.28   75.10  -46.30  -15.06  -98.81  138.05   36.33  -55.37 -179.96  -71.48 -174.58 -180.00

DOCKED: MODEL       17
DOCKED: USER    Run = 17
DOCKED: USER    DPF = D:/Protein_go_brrr/autodock/final/AncB/heme_Co/dock.dpf
DOCKED: USER  
DOCKED: USER    Estimated Free Energy of Binding    =   -4.81 kcal/mol  [=(1)+(2)+(3)-(4)]
DOCKED: USER    Estimated Inhibition Constant, Ki   =  296.56 uM (micromolar)  [Temperature = 298.15 K]
DOCKED: USER    
DOCKED: USER    (1) Final Intermolecular Energy     =   -8.39 kcal/mol
DOCKED: USER        vdW + Hbond + desolv Energy     =   -6.53 kcal/mol
DOCKED: USER        Electrostatic Energy            =   -1.86 kcal/mol
DOCKED: USER    (2) Final Total Internal Energy     =   -2.08 kcal/mol
DOCKED: USER    (3) Torsional Free Energy           =   +3.58 kcal/mol
DOCKED: USER    (4) Unbound System's Energy  [=(2)] =   -2.08 kcal/mol
DOCKED: USER    
DOCKED: USER    
DOCKED: USER    NEWDPF move heme_Co_opt.pdbqt
DOCKED: USER    NEWDPF about 8.781000 34.984000 -0.736000
DOCKED: USER    NEWDPF tran0 20.403175 8.231469 -4.890587
DOCKED: USER    NEWDPF quaternion0 -0.022211 -0.664736 0.521638 -0.534347
DOCKED: USER    NEWDPF axisangle0 -0.026277 -0.786423 0.617130 -115.400783
DOCKED: USER    NEWDPF quat0 -0.026277 -0.786423 0.617130 -115.400783
DOCKED: USER    NEWDPF dihe0 -104.28 75.10 -46.30 -15.06 -98.81 138.05 36.33 -55.37 -179.96 -71.48 -174.58 -180.00 
DOCKED: USER  keepresnum = 1 
DOCKED: USER  
DOCKED: REMARK  12 active torsions:
DOCKED: REMARK  status: ('A' for Active; 'I' for Inactive)
DOCKED: REMARK    1  A    between atoms: C_6  and  C_10 
DOCKED: REMARK    2  A    between atoms: C_10  and  C_11 
DOCKED: REMARK    3  A    between atoms: C_11  and  C_12 
DOCKED: REMARK    4  A    between atoms: C_12  and  O_14 
DOCKED: REMARK    5  A    between atoms: C_17  and  C_20 
DOCKED: REMARK    6  A    between atoms: C_24  and  C_27 
DOCKED: REMARK    7  A    between atoms: C_31  and  C_34 
DOCKED: REMARK    8  A    between atoms: C_34  and  C_35 
DOCKED: REMARK    9  A    between atoms: C_35  and  C_36 
DOCKED: REMARK   10  A    between atoms: C_36  and  O_38 
DOCKED: REMARK   11  A    between atoms: FE_43  and  C_44 
DOCKED: REMARK   12  A    between atoms: C_44  and  O_45 
DOCKED: USER                              x       y       z     vdW  Elec       q    Type
DOCKED: USER                           _______ _______ _______ _____ _____    ______ ____
DOCKED: ROOT
DOCKED: ATOM      1  C   UNL d   1      21.591   7.892  -6.676 -0.06 +0.01    +0.064 A 
DOCKED: ATOM      2  C   UNL d   1      19.717   4.920  -3.473 -0.15 +0.02    +0.064 C 
DOCKED: ATOM      3  C   UNL d   1      18.227   8.625  -0.850 -0.13 +0.01    +0.064 A 
DOCKED: ATOM      4  C   UNL d   1      19.793  11.678  -4.299 -0.13 +0.02    +0.064 A 
DOCKED: ATOM      5  C   UNL d   1      21.220   6.808  -5.975 -0.05 +0.02    +0.066 A 
DOCKED: ATOM      6  C   UNL d   1      21.421   5.500  -6.460 -0.04 -0.01    -0.021 A 
DOCKED: ATOM      7  C   UNL d   1      20.855   4.643  -5.537 -0.07 -0.01    -0.025 A 
DOCKED: ATOM      8  C   UNL d   1      20.348   5.462  -4.522 -0.07 +0.02    +0.066 A 
DOCKED: ATOM      9  C   UNL d   1      20.784   3.109  -5.595 -0.10 +0.02    +0.051 C 
DOCKED: ATOM     10  C   UNL d   1      19.187   5.680  -2.369 -0.15 +0.01    +0.066 A 
DOCKED: ATOM     11  C   UNL d   1      18.640   5.163  -1.174 -0.05 -0.00    -0.021 A 
DOCKED: ATOM     12  C   UNL d   1      18.217   6.266  -0.426 -0.18 +0.00    +0.000 A 
DOCKED: ATOM     13  C   UNL d   1      18.548   7.370  -1.211 -0.15 +0.01    +0.070 A 
DOCKED: ATOM     14  C   UNL d   1      18.620   3.716  -0.754 -0.25 +0.00    +0.052 C 
DOCKED: ATOM     15  C   UNL d   1      18.444   9.870  -1.560 -0.13 +0.02    +0.066 A 
DOCKED: ATOM     16  C   UNL d   1      17.959  11.119  -1.199 -0.14 -0.01    -0.021 A 
DOCKED: ATOM     17  C   UNL d   1      18.406  12.003  -2.192 -0.17 +0.00    +0.000 A 
DOCKED: ATOM     18  C   UNL d   1      19.146  11.223  -3.075 -0.15 +0.02    +0.070 A 
DOCKED: ATOM     19  C   UNL d   1      17.122  11.414   0.025 -0.13 +0.01    +0.052 C 
DOCKED: ATOM     20  C   UNL d   1      20.444  10.924  -5.217 -0.13 +0.02    +0.066 A 
DOCKED: ATOM     21  C   UNL d   1      20.995  11.472  -6.373 -0.14 -0.01    -0.025 A 
DOCKED: ATOM     22  C   UNL d   1      21.545  10.408  -7.064 -0.10 -0.00    -0.021 A 
DOCKED: ATOM     23  C   UNL d   1      21.291   9.253  -6.295 -0.07 +0.01    +0.066 A 
DOCKED: ATOM     24  C   UNL d   1      20.980  12.934  -6.810 -0.12 +0.01    +0.051 C 
DOCKED: ATOM     25  N   UNL d   1      20.566   6.807  -4.765 -0.02 -0.08    -0.248 N 
DOCKED: ATOM     26  N   UNL d   1      19.184   7.017  -2.360 -0.06 -0.05    -0.248 N 
DOCKED: ATOM     27  N   UNL d   1      19.122   9.954  -2.684 -0.07 -0.07    -0.248 N 
DOCKED: ATOM     28  N   UNL d   1      20.622   9.561  -5.177 -0.07 -0.05    -0.248 N 
DOCKED: ATOM     29 FE   UNL d   1      19.803   8.476  -3.665 -0.02 +0.00    +0.000 Fe
DOCKED: ENDROOT
DOCKED: BRANCH   6  30
DOCKED: ATOM     30  C   UNL d   1      22.056   5.110  -7.790 -0.02 +0.02    +0.052 C 
DOCKED: BRANCH  30  31
DOCKED: ATOM     31  C   UNL d   1      20.991   5.002  -8.882 -0.04 +0.05    +0.115 C 
DOCKED: BRANCH  31  32
DOCKED: ATOM     32  C   UNL d   1      19.596   5.261  -8.356 -0.13 +0.14    +0.139 C 
DOCKED: ATOM     33  O   UNL d   1      18.907   4.321  -7.989 -0.54 -1.03    -0.650 OA
DOCKED: BRANCH  32  34
DOCKED: ATOM     34  O   UNL d   1      19.098   6.513  -8.231 -0.10 -0.80    -0.776 OA
DOCKED: ATOM     35  H   UNL d   1      18.955   6.960  -7.385 -0.13 +0.14    +0.167 HD
DOCKED: ENDBRANCH  32  34
DOCKED: ENDBRANCH  31  32
DOCKED: ENDBRANCH  30  31
DOCKED: ENDBRANCH   6  30
DOCKED: BRANCH  29  36
DOCKED: ATOM     36  C   UNL d   1      18.031   8.244  -4.761 -0.27 +0.08    +0.190 C 
DOCKED: BRANCH  36  37
DOCKED: ATOM     37  O   UNL d   1      17.500   7.644  -5.907 -0.25 -0.33    -0.399 OA
DOCKED: ATOM     38  H   UNL d   1      18.216   7.731  -6.597 -0.15 +0.12    +0.209 HD
DOCKED: ENDBRANCH  36  37
DOCKED: ENDBRANCH  29  36
DOCKED: BRANCH  22  39
DOCKED: ATOM     39  C   UNL d   1      22.220  10.494  -8.421 -0.09 +0.01    +0.052 C 
DOCKED: BRANCH  39  40
DOCKED: ATOM     40  C   UNL d   1      21.172  10.578  -9.543 -0.11 +0.02    +0.115 C 
DOCKED: BRANCH  40  41
DOCKED: ATOM     41  C   UNL d   1      20.983  11.966 -10.119 -0.14 +0.03    +0.139 C 
DOCKED: ATOM     42  O   UNL d   1      21.754  12.368 -10.979 +0.01 -0.13    -0.650 OA
DOCKED: BRANCH  41  43
DOCKED: ATOM     43  O   UNL d   1      19.932  12.742  -9.771 +0.06 -0.14    -0.776 OA
DOCKED: ATOM     44  H   UNL d   1      19.041  12.387  -9.653 -0.48 -0.01    +0.167 HD
DOCKED: ENDBRANCH  41  43
DOCKED: ENDBRANCH  40  41
DOCKED: ENDBRANCH  39  40
DOCKED: ENDBRANCH  22  39
DOCKED: BRANCH  12  45
DOCKED: ATOM     45  C   UNL d   1      17.560   6.403   0.941 -0.25 +0.00    +0.004 C 
DOCKED: ATOM     46  C   UNL d   1      16.832   5.538   1.642 -0.31 +0.00    +0.012 C 
DOCKED: ENDBRANCH  12  45
DOCKED: BRANCH  17  47
DOCKED: ATOM     47  C   UNL d   1      18.138  13.462  -2.362 -0.19 +0.00    +0.004 C 
DOCKED: ATOM     48  C   UNL d   1      17.546  13.983  -3.439 -0.29 +0.01    +0.012 C 
DOCKED: ENDBRANCH  17  47
DOCKED: TORSDOF 12
DOCKED: TER
DOCKED: ENDMDL
________________________________________________________________________________


	BEGINNING GENETIC ALGORITHM DOCKING 18 of 100
Run: 18 Seed: 1568402598 855607328 [ Run 18 of 100 GA/GALS ]
Beginning LAMARCKIAN GENETIC ALGORITHM (LGA), with a maximum of 25000000 energy evaluations.

Final-Value: -12.704


	FINAL GENETIC ALGORITHM DOCKED STATE
	_______________________________________________


Detailed state:  trans -7.564 -1.654 -12.121 quatxyzw 0.007689 -0.624028 0.530198 -0.573951 center 8.781 34.984 -0.736 ntor 12 -2.2510 92.2570 93.6035 92.6681 118.1396 80.2251 179.8889 104.3256 42.0806 -121.4349 138.5173 -44.6947
State:	 -7.564  -1.654 -12.121   0.009 -0.762  0.647 -109.948     -2.25   92.26   93.60   92.67  118.14   80.23  179.89  104.33   42.08 -121.43  138.52  -44.69

DOCKED: MODEL       18
DOCKED: USER    Run = 18
DOCKED: USER    DPF = D:/Protein_go_brrr/autodock/final/AncB/heme_Co/dock.dpf
DOCKED: USER  
DOCKED: USER    Estimated Free Energy of Binding    =   -8.44 kcal/mol  [=(1)+(2)+(3)-(4)]
DOCKED: USER    Estimated Inhibition Constant, Ki   =  646.47 nM (nanomolar)  [Temperature = 298.15 K]
DOCKED: USER    
DOCKED: USER    (1) Final Intermolecular Energy     =  -12.02 kcal/mol
DOCKED: USER        vdW + Hbond + desolv Energy     =   -8.05 kcal/mol
DOCKED: USER        Electrostatic Energy            =   -3.98 kcal/mol
DOCKED: USER    (2) Final Total Internal Energy     =   -0.68 kcal/mol
DOCKED: USER    (3) Torsional Free Energy           =   +3.58 kcal/mol
DOCKED: USER    (4) Unbound System's Energy  [=(2)] =   -0.68 kcal/mol
DOCKED: USER    
DOCKED: USER    
DOCKED: USER    NEWDPF move heme_Co_opt.pdbqt
DOCKED: USER    NEWDPF about 8.781000 34.984000 -0.736000
DOCKED: USER    NEWDPF tran0 -7.564340 -1.654248 -12.120734
DOCKED: USER    NEWDPF quaternion0 0.007689 -0.624028 0.530198 -0.573951
DOCKED: USER    NEWDPF axisangle0 0.009390 -0.762042 0.647459 -109.947586
DOCKED: USER    NEWDPF quat0 0.009390 -0.762042 0.647459 -109.947586
DOCKED: USER    NEWDPF dihe0 -2.25 92.26 93.60 92.67 118.14 80.23 179.89 104.33 42.08 -121.43 138.52 -44.69 
DOCKED: USER  keepresnum = 1 
DOCKED: USER  
DOCKED: REMARK  12 active torsions:
DOCKED: REMARK  status: ('A' for Active; 'I' for Inactive)
DOCKED: REMARK    1  A    between atoms: C_6  and  C_10 
DOCKED: REMARK    2  A    between atoms: C_10  and  C_11 
DOCKED: REMARK    3  A    between atoms: C_11  and  C_12 
DOCKED: REMARK    4  A    between atoms: C_12  and  O_14 
DOCKED: REMARK    5  A    between atoms: C_17  and  C_20 
DOCKED: REMARK    6  A    between atoms: C_24  and  C_27 
DOCKED: REMARK    7  A    between atoms: C_31  and  C_34 
DOCKED: REMARK    8  A    between atoms: C_34  and  C_35 
DOCKED: REMARK    9  A    between atoms: C_35  and  C_36 
DOCKED: REMARK   10  A    between atoms: C_36  and  O_38 
DOCKED: REMARK   11  A    between atoms: FE_43  and  C_44 
DOCKED: REMARK   12  A    between atoms: C_44  and  O_45 
DOCKED: USER                              x       y       z     vdW  Elec       q    Type
DOCKED: USER                           _______ _______ _______ _____ _____    ______ ____
DOCKED: ROOT
DOCKED: ATOM      1  C   UNL d   1      -6.611  -2.025 -14.036 +0.03 +0.09    +0.064 A 
DOCKED: ATOM      2  C   UNL d   1      -8.041  -4.939 -10.562 -0.33 +0.03    +0.064 C 
DOCKED: ATOM      3  C   UNL d   1      -9.210  -1.187  -7.845 -0.17 +0.02    +0.064 A 
DOCKED: ATOM      4  C   UNL d   1      -8.118   1.801 -11.524 -0.06 +0.03    +0.064 A 
DOCKED: ATOM      5  C   UNL d   1      -6.882  -3.096 -13.273 -0.13 +0.08    +0.066 A 
DOCKED: ATOM      6  C   UNL d   1      -6.736  -4.412 -13.753 -0.17 -0.02    -0.021 A 
DOCKED: ATOM      7  C   UNL d   1      -7.174  -5.253 -12.748 -0.27 -0.02    -0.025 A 
DOCKED: ATOM      8  C   UNL d   1      -7.552  -4.416 -11.694 -0.22 +0.04    +0.066 A 
DOCKED: ATOM      9  C   UNL d   1      -7.240  -6.788 -12.767 -0.32 +0.03    +0.051 C 
DOCKED: ATOM     10  C   UNL d   1      -8.432  -4.159  -9.414 -0.25 +0.03    +0.066 A 
DOCKED: ATOM     11  C   UNL d   1      -8.818  -4.653  -8.150 -0.38 -0.01    -0.021 A 
DOCKED: ATOM     12  C   UNL d   1      -9.150  -3.538  -7.376 -0.32 +0.00    +0.000 A 
DOCKED: ATOM     13  C   UNL d   1      -8.930  -2.448  -8.219 -0.18 +0.02    +0.070 A 
DOCKED: ATOM     14  C   UNL d   1      -8.774  -6.092  -7.703 -0.54 +0.02    +0.052 C 
DOCKED: ATOM     15  C   UNL d   1      -9.094   0.044  -8.601 -0.13 +0.02    +0.066 A 
DOCKED: ATOM     16  C   UNL d   1      -9.538   1.298  -8.205 -0.18 -0.00    -0.021 A 
DOCKED: ATOM     17  C   UNL d   1      -9.228   2.163  -9.264 -0.12 +0.00    +0.000 A 
DOCKED: ATOM     18  C   UNL d   1      -8.601   1.368 -10.219 -0.06 +0.03    +0.070 A 
DOCKED: ATOM     19  C   UNL d   1     -10.215   1.614  -6.890 -0.27 +0.00    +0.052 C 
DOCKED: ATOM     20  C   UNL d   1      -7.584   1.031 -12.502 -0.04 +0.04    +0.066 A 
DOCKED: ATOM     21  C   UNL d   1      -7.190   1.558 -13.730 -0.06 -0.02    -0.025 A 
DOCKED: ATOM     22  C   UNL d   1      -6.724   0.482 -14.465 -0.04 -0.02    -0.021 A 
DOCKED: ATOM     23  C   UNL d   1      -6.870  -0.658 -13.646 -0.06 +0.07    +0.066 A 
DOCKED: ATOM     24  C   UNL d   1      -7.270   3.011 -14.190 -0.08 +0.04    +0.051 C 
DOCKED: ATOM     25  N   UNL d   1      -7.377  -3.075 -11.988 -0.08 -0.19    -0.248 N 
DOCKED: ATOM     26  N   UNL d   1      -8.442  -2.822  -9.432 -0.09 -0.10    -0.248 N 
DOCKED: ATOM     27  N   UNL d   1      -8.566   0.107  -9.803 -0.03 -0.09    -0.248 N 
DOCKED: ATOM     28  N   UNL d   1      -7.393  -0.330 -12.458 -0.02 -0.18    -0.248 N 
DOCKED: ATOM     29 FE   UNL d   1      -8.005  -1.387 -10.833 -0.02 +0.00    +0.000 Fe
DOCKED: ENDROOT
DOCKED: BRANCH   6  30
DOCKED: ATOM     30  C   UNL d   1      -6.273  -4.827 -15.145 -0.15 +0.06    +0.052 C 
DOCKED: BRANCH  30  31
DOCKED: ATOM     31  C   UNL d   1      -7.134  -5.971 -15.679 -0.11 +0.09    +0.115 C 
DOCKED: BRANCH  31  32
DOCKED: ATOM     32  C   UNL d   1      -6.318  -7.011 -16.417 -0.07 +0.17    +0.139 C 
DOCKED: ATOM     33  O   UNL d   1      -5.319  -7.476 -15.889 -0.57 -0.96    -0.650 OA
DOCKED: BRANCH  32  34
DOCKED: ATOM     34  O   UNL d   1      -6.686  -7.484 -17.630 -0.25 -1.17    -0.776 OA
DOCKED: ATOM     35  H   UNL d   1      -7.522  -7.268 -18.067 +0.02 +0.16    +0.167 HD
DOCKED: ENDBRANCH  32  34
DOCKED: ENDBRANCH  31  32
DOCKED: ENDBRANCH  30  31
DOCKED: ENDBRANCH   6  30
DOCKED: BRANCH  29  36
DOCKED: ATOM     36  C   UNL d   1      -9.901  -1.650 -11.690 -0.01 +0.08    +0.190 C 
DOCKED: BRANCH  36  37
DOCKED: ATOM     37  O   UNL d   1     -10.623  -1.469 -12.873 +0.00 -0.16    -0.399 OA
DOCKED: ATOM     38  H   UNL d   1     -10.112  -0.781 -13.383 +0.00 +0.09    +0.209 HD
DOCKED: ENDBRANCH  36  37
DOCKED: ENDBRANCH  29  36
DOCKED: BRANCH  22  39
DOCKED: ATOM     39  C   UNL d   1      -6.228   0.544 -15.897 -0.03 +0.05    +0.052 C 
DOCKED: BRANCH  39  40
DOCKED: ATOM     40  C   UNL d   1      -5.075   1.553 -16.030 -0.05 +0.13    +0.115 C 
DOCKED: BRANCH  40  41
DOCKED: ATOM     41  C   UNL d   1      -3.937   1.331 -15.056 -0.10 +0.22    +0.139 C 
DOCKED: ATOM     42  O   UNL d   1      -3.674   2.200 -14.236 -0.44 -1.52    -0.650 OA
DOCKED: BRANCH  41  43
DOCKED: ATOM     43  O   UNL d   1      -3.258   0.164 -15.010 -0.26 -1.43    -0.776 OA
DOCKED: ATOM     44  H   UNL d   1      -2.397   0.046 -15.432 +0.02 +0.27    +0.167 HD
DOCKED: ENDBRANCH  41  43
DOCKED: ENDBRANCH  40  41
DOCKED: ENDBRANCH  39  40
DOCKED: ENDBRANCH  22  39
DOCKED: BRANCH  12  45
DOCKED: ATOM     45  C   UNL d   1      -9.629  -3.376  -5.939 -0.49 +0.00    +0.004 C 
DOCKED: ATOM     46  C   UNL d   1      -8.945  -3.318  -4.800 -0.64 +0.00    +0.012 C 
DOCKED: ENDBRANCH  12  45
DOCKED: BRANCH  17  47
DOCKED: ATOM     47  C   UNL d   1      -9.526   3.617  -9.427 -0.11 +0.00    +0.004 C 
DOCKED: ATOM     48  C   UNL d   1      -8.654   4.585  -9.137 -0.22 +0.00    +0.012 C 
DOCKED: ENDBRANCH  17  47
DOCKED: TORSDOF 12
DOCKED: TER
DOCKED: ENDMDL
________________________________________________________________________________


	BEGINNING GENETIC ALGORITHM DOCKING 19 of 100
Run: 19 Seed: 801751370 663858950 [ Run 19 of 100 GA/GALS ]
Beginning LAMARCKIAN GENETIC ALGORITHM (LGA), with a maximum of 25000000 energy evaluations.

Final-Value: -12.259


	FINAL GENETIC ALGORITHM DOCKED STATE
	_______________________________________________


Detailed state:  trans -0.092 -0.300 -12.034 quatxyzw -0.482278 0.408685 -0.725138 0.273056 center 8.781 34.984 -0.736 ntor 12 53.2661 84.8873 79.6271 -27.0613 -104.6081 13.6641 -0.1317 -109.4309 -51.4297 78.8373 11.9617 -155.4931
State:	 -0.092  -0.300 -12.034  -0.501  0.425 -0.754 148.308     53.27   84.89   79.63  -27.06 -104.61   13.66   -0.13 -109.43  -51.43   78.84   11.96 -155.49

DOCKED: MODEL       19
DOCKED: USER    Run = 19
DOCKED: USER    DPF = D:/Protein_go_brrr/autodock/final/AncB/heme_Co/dock.dpf
DOCKED: USER  
DOCKED: USER    Estimated Free Energy of Binding    =   -7.96 kcal/mol  [=(1)+(2)+(3)-(4)]
DOCKED: USER    Estimated Inhibition Constant, Ki   =    1.46 uM (micromolar)  [Temperature = 298.15 K]
DOCKED: USER    
DOCKED: USER    (1) Final Intermolecular Energy     =  -11.54 kcal/mol
DOCKED: USER        vdW + Hbond + desolv Energy     =   -9.53 kcal/mol
DOCKED: USER        Electrostatic Energy            =   -2.01 kcal/mol
DOCKED: USER    (2) Final Total Internal Energy     =   -0.72 kcal/mol
DOCKED: USER    (3) Torsional Free Energy           =   +3.58 kcal/mol
DOCKED: USER    (4) Unbound System's Energy  [=(2)] =   -0.72 kcal/mol
DOCKED: USER    
DOCKED: USER    
DOCKED: USER    NEWDPF move heme_Co_opt.pdbqt
DOCKED: USER    NEWDPF about 8.781000 34.984000 -0.736000
DOCKED: USER    NEWDPF tran0 -0.091966 -0.299935 -12.033551
DOCKED: USER    NEWDPF quaternion0 -0.482278 0.408685 -0.725138 0.273056
DOCKED: USER    NEWDPF axisangle0 -0.501330 0.424829 -0.753783 148.307557
DOCKED: USER    NEWDPF quat0 -0.501330 0.424829 -0.753783 148.307557
DOCKED: USER    NEWDPF dihe0 53.27 84.89 79.63 -27.06 -104.61 13.66 -0.13 -109.43 -51.43 78.84 11.96 -155.49 
DOCKED: USER  keepresnum = 1 
DOCKED: USER  
DOCKED: REMARK  12 active torsions:
DOCKED: REMARK  status: ('A' for Active; 'I' for Inactive)
DOCKED: REMARK    1  A    between atoms: C_6  and  C_10 
DOCKED: REMARK    2  A    between atoms: C_10  and  C_11 
DOCKED: REMARK    3  A    between atoms: C_11  and  C_12 
DOCKED: REMARK    4  A    between atoms: C_12  and  O_14 
DOCKED: REMARK    5  A    between atoms: C_17  and  C_20 
DOCKED: REMARK    6  A    between atoms: C_24  and  C_27 
DOCKED: REMARK    7  A    between atoms: C_31  and  C_34 
DOCKED: REMARK    8  A    between atoms: C_34  and  C_35 
DOCKED: REMARK    9  A    between atoms: C_35  and  C_36 
DOCKED: REMARK   10  A    between atoms: C_36  and  O_38 
DOCKED: REMARK   11  A    between atoms: FE_43  and  C_44 
DOCKED: REMARK   12  A    between atoms: C_44  and  O_45 
DOCKED: USER                              x       y       z     vdW  Elec       q    Type
DOCKED: USER                           _______ _______ _______ _____ _____    ______ ____
DOCKED: ROOT
DOCKED: ATOM      1  C   UNL d   1      -0.145   0.166 -14.154 -0.16 +0.06    +0.064 A 
DOCKED: ATOM      2  C   UNL d   1       3.250  -1.654 -11.366 -0.48 +0.02    +0.064 C 
DOCKED: ATOM      3  C   UNL d   1       0.486  -1.021  -7.521 +0.39 +0.04    +0.064 A 
DOCKED: ATOM      4  C   UNL d   1      -3.141   0.483 -10.393 -0.28 +0.05    +0.064 A 
DOCKED: ATOM      5  C   UNL d   1       1.000  -0.344 -13.670 -0.19 +0.04    +0.066 A 
DOCKED: ATOM      6  C   UNL d   1       2.057  -0.740 -14.513 -0.18 -0.01    -0.021 A 
DOCKED: ATOM      7  C   UNL d   1       3.030  -1.288 -13.701 -0.27 -0.01    -0.025 A 
DOCKED: ATOM      8  C   UNL d   1       2.533  -1.189 -12.397 -0.32 +0.02    +0.066 A 
DOCKED: ATOM      9  C   UNL d   1       4.380  -1.888 -14.121 -0.32 +0.01    +0.051 C 
DOCKED: ATOM     10  C   UNL d   1       2.833  -1.572  -9.989 -0.42 +0.02    +0.066 A 
DOCKED: ATOM     11  C   UNL d   1       3.599  -1.913  -8.853 -0.45 -0.01    -0.021 A 
DOCKED: ATOM     12  C   UNL d   1       2.770  -1.715  -7.746 -0.41 +0.00    +0.000 A 
DOCKED: ATOM     13  C   UNL d   1       1.567  -1.257  -8.285 +0.03 +0.04    +0.070 A 
DOCKED: ATOM     14  C   UNL d   1       5.053  -2.307  -8.844 -0.38 +0.01    +0.052 C 
DOCKED: ATOM     15  C   UNL d   1      -0.844  -0.597  -7.915 -0.32 +0.03    +0.066 A 
DOCKED: ATOM     16  C   UNL d   1      -1.958  -0.511  -7.092 -0.38 -0.01    -0.021 A 
DOCKED: ATOM     17  C   UNL d   1      -3.007  -0.080  -7.917 -0.45 +0.00    +0.000 A 
DOCKED: ATOM     18  C   UNL d   1      -2.444   0.080  -9.178 -0.35 +0.04    +0.070 A 
DOCKED: ATOM     19  C   UNL d   1      -1.983  -0.830  -5.614 -0.34 +0.01    +0.052 C 
DOCKED: ATOM     20  C   UNL d   1      -2.635   0.562 -11.647 -0.25 +0.07    +0.066 A 
DOCKED: ATOM     21  C   UNL d   1      -3.415   0.927 -12.742 -0.19 -0.04    -0.025 A 
DOCKED: ATOM     22  C   UNL d   1      -2.570   0.873 -13.836 -0.18 -0.03    -0.021 A 
DOCKED: ATOM     23  C   UNL d   1      -1.310   0.462 -13.352 -0.18 +0.08    +0.066 A 
DOCKED: ATOM     24  C   UNL d   1      -4.897   1.291 -12.750 -0.15 +0.07    +0.051 C 
DOCKED: ATOM     25  N   UNL d   1       1.279  -0.602 -12.347 -0.13 -0.14    -0.248 N 
DOCKED: ATOM     26  N   UNL d   1       1.625  -1.117  -9.636 +0.21 -0.13    -0.248 N 
DOCKED: ATOM     27  N   UNL d   1      -1.162  -0.266  -9.147 -0.15 -0.12    -0.248 N 
DOCKED: ATOM     28  N   UNL d   1      -1.346   0.270 -12.028 +0.04 -0.25    -0.248 N 
DOCKED: ATOM     29 FE   UNL d   1      -0.016  -0.422 -10.654 -0.06 +0.00    +0.000 Fe
DOCKED: ENDROOT
DOCKED: BRANCH   6  30
DOCKED: ATOM     30  C   UNL d   1       2.083  -0.664 -16.036 -0.11 +0.02    +0.052 C 
DOCKED: BRANCH  30  31
DOCKED: ATOM     31  C   UNL d   1       2.786   0.611 -16.499 -0.11 +0.05    +0.115 C 
DOCKED: BRANCH  31  32
DOCKED: ATOM     32  C   UNL d   1       3.904   0.330 -17.480 -0.09 +0.06    +0.139 C 
DOCKED: ATOM     33  O   UNL d   1       5.008   0.818 -17.289 -0.50 -0.46    -0.650 OA
DOCKED: BRANCH  32  34
DOCKED: ATOM     34  O   UNL d   1       3.735  -0.488 -18.545 +0.04 -0.27    -0.776 OA
DOCKED: ATOM     35  H   UNL d   1       2.995  -0.428 -19.165 +0.01 +0.06    +0.167 HD
DOCKED: ENDBRANCH  32  34
DOCKED: ENDBRANCH  31  32
DOCKED: ENDBRANCH  30  31
DOCKED: ENDBRANCH   6  30
DOCKED: BRANCH  29  36
DOCKED: ATOM     36  C   UNL d   1      -0.609  -2.396 -11.041 +0.15 +0.14    +0.190 C 
DOCKED: BRANCH  36  37
DOCKED: ATOM     37  O   UNL d   1      -1.722  -3.244 -11.046 -0.27 -0.41    -0.399 OA
DOCKED: ATOM     38  H   UNL d   1      -2.336  -2.866 -10.357 +0.10 +0.19    +0.209 HD
DOCKED: ENDBRANCH  36  37
DOCKED: ENDBRANCH  29  36
DOCKED: BRANCH  22  39
DOCKED: ATOM     39  C   UNL d   1      -2.975   1.138 -15.274 -0.11 +0.08    +0.052 C 
DOCKED: BRANCH  39  40
DOCKED: ATOM     40  C   UNL d   1      -4.167   0.253 -15.675 -0.06 +0.17    +0.115 C 
DOCKED: BRANCH  40  41
DOCKED: ATOM     41  C   UNL d   1      -3.813  -0.884 -16.610 -0.02 +0.20    +0.139 C 
DOCKED: ATOM     42  O   UNL d   1      -2.689  -1.364 -16.570 -0.33 -1.06    -0.650 OA
DOCKED: BRANCH  41  43
DOCKED: ATOM     43  O   UNL d   1      -4.733  -1.444 -17.427 +0.01 -0.80    -0.776 OA
DOCKED: ATOM     44  H   UNL d   1      -4.935  -1.087 -18.302 +0.01 +0.12    +0.167 HD
DOCKED: ENDBRANCH  41  43
DOCKED: ENDBRANCH  40  41
DOCKED: ENDBRANCH  39  40
DOCKED: ENDBRANCH  22  39
DOCKED: BRANCH  12  45
DOCKED: ATOM     45  C   UNL d   1       2.980  -1.887  -6.247 -0.51 +0.00    +0.004 C 
DOCKED: ATOM     46  C   UNL d   1       3.688  -2.787  -5.570 -0.56 +0.00    +0.012 C 
DOCKED: ENDBRANCH  12  45
DOCKED: BRANCH  17  47
DOCKED: ATOM     47  C   UNL d   1      -4.450   0.127  -7.594 -0.46 +0.00    +0.004 C 
DOCKED: ATOM     48  C   UNL d   1      -5.447  -0.438  -8.278 -0.37 +0.00    +0.012 C 
DOCKED: ENDBRANCH  17  47
DOCKED: TORSDOF 12
DOCKED: TER
DOCKED: ENDMDL
________________________________________________________________________________


	BEGINNING GENETIC ALGORITHM DOCKING 20 of 100
Run: 20 Seed: 752144008 833936012 [ Run 20 of 100 GA/GALS ]
Beginning LAMARCKIAN GENETIC ALGORITHM (LGA), with a maximum of 25000000 energy evaluations.

Final-Value: -12.271


	FINAL GENETIC ALGORITHM DOCKED STATE
	_______________________________________________


Detailed state:  trans -5.537 -12.548 12.361 quatxyzw -0.794347 -0.152242 -0.582077 0.083791 center 8.781 34.984 -0.736 ntor 12 23.5273 104.9966 -136.1940 76.7530 -89.0058 -115.7960 -150.6488 180.0000 -20.3527 53.2167 -165.1287 180.0000
State:	 -5.537 -12.548  12.361  -0.797 -0.153 -0.584 170.387     23.53  105.00 -136.19   76.75  -89.01 -115.80 -150.65  180.00  -20.35   53.22 -165.13  180.00

DOCKED: MODEL       20
DOCKED: USER    Run = 20
DOCKED: USER    DPF = D:/Protein_go_brrr/autodock/final/AncB/heme_Co/dock.dpf
DOCKED: USER  
DOCKED: USER    Estimated Free Energy of Binding    =   -6.77 kcal/mol  [=(1)+(2)+(3)-(4)]
DOCKED: USER    Estimated Inhibition Constant, Ki   =   10.99 uM (micromolar)  [Temperature = 298.15 K]
DOCKED: USER    
DOCKED: USER    (1) Final Intermolecular Energy     =  -10.35 kcal/mol
DOCKED: USER        vdW + Hbond + desolv Energy     =   -5.82 kcal/mol
DOCKED: USER        Electrostatic Energy            =   -4.53 kcal/mol
DOCKED: USER    (2) Final Total Internal Energy     =   -1.93 kcal/mol
DOCKED: USER    (3) Torsional Free Energy           =   +3.58 kcal/mol
DOCKED: USER    (4) Unbound System's Energy  [=(2)] =   -1.93 kcal/mol
DOCKED: USER    
DOCKED: USER    
DOCKED: USER    NEWDPF move heme_Co_opt.pdbqt
DOCKED: USER    NEWDPF about 8.781000 34.984000 -0.736000
DOCKED: USER    NEWDPF tran0 -5.536845 -12.548353 12.360984
DOCKED: USER    NEWDPF quaternion0 -0.794347 -0.152242 -0.582077 0.083791
DOCKED: USER    NEWDPF axisangle0 -0.797151 -0.152779 -0.584131 170.387042
DOCKED: USER    NEWDPF quat0 -0.797151 -0.152779 -0.584131 170.387042
DOCKED: USER    NEWDPF dihe0 23.53 105.00 -136.19 76.75 -89.01 -115.80 -150.65 180.00 -20.35 53.22 -165.13 180.00 
DOCKED: USER  keepresnum = 1 
DOCKED: USER  
DOCKED: REMARK  12 active torsions:
DOCKED: REMARK  status: ('A' for Active; 'I' for Inactive)
DOCKED: REMARK    1  A    between atoms: C_6  and  C_10 
DOCKED: REMARK    2  A    between atoms: C_10  and  C_11 
DOCKED: REMARK    3  A    between atoms: C_11  and  C_12 
DOCKED: REMARK    4  A    between atoms: C_12  and  O_14 
DOCKED: REMARK    5  A    between atoms: C_17  and  C_20 
DOCKED: REMARK    6  A    between atoms: C_24  and  C_27 
DOCKED: REMARK    7  A    between atoms: C_31  and  C_34 
DOCKED: REMARK    8  A    between atoms: C_34  and  C_35 
DOCKED: REMARK    9  A    between atoms: C_35  and  C_36 
DOCKED: REMARK   10  A    between atoms: C_36  and  O_38 
DOCKED: REMARK   11  A    between atoms: FE_43  and  C_44 
DOCKED: REMARK   12  A    between atoms: C_44  and  O_45 
DOCKED: USER                              x       y       z     vdW  Elec       q    Type
DOCKED: USER                           _______ _______ _______ _____ _____    ______ ____
DOCKED: ROOT
DOCKED: ATOM      1  C   UNL d   1      -6.807 -13.711  11.038 -0.19 +0.04    +0.064 A 
DOCKED: ATOM      2  C   UNL d   1      -3.294 -10.620  10.193 -0.27 +0.02    +0.064 C 
DOCKED: ATOM      3  C   UNL d   1      -2.968  -9.657  14.861 -0.09 +0.01    +0.064 A 
DOCKED: ATOM      4  C   UNL d   1      -6.286 -13.091  15.788 -0.03 +0.02    +0.064 A 
DOCKED: ATOM      5  C   UNL d   1      -5.896 -12.911  10.461 -0.23 +0.04    +0.066 A 
DOCKED: ATOM      6  C   UNL d   1      -5.634 -12.952   9.077 -0.25 -0.01    -0.021 A 
DOCKED: ATOM      7  C   UNL d   1      -4.599 -12.070   8.841 -0.22 -0.01    -0.025 A 
DOCKED: ATOM      8  C   UNL d   1      -4.283 -11.516  10.086 -0.20 +0.03    +0.066 A 
DOCKED: ATOM      9  C   UNL d   1      -3.921 -11.749   7.500 -0.31 +0.02    +0.051 C 
DOCKED: ATOM     10  C   UNL d   1      -2.916  -9.978  11.427 -0.20 +0.02    +0.066 A 
DOCKED: ATOM     11  C   UNL d   1      -1.983  -8.929  11.581 -0.24 -0.00    -0.021 A 
DOCKED: ATOM     12  C   UNL d   1      -1.911  -8.665  12.952 -0.19 +0.00    +0.000 A 
DOCKED: ATOM     13  C   UNL d   1      -2.811  -9.561  13.529 -0.14 +0.02    +0.070 A 
DOCKED: ATOM     14  C   UNL d   1      -1.292  -8.179  10.471 +0.01 +0.01    +0.052 C 
DOCKED: ATOM     15  C   UNL d   1      -3.809 -10.556  15.626 -0.05 +0.02    +0.066 A 
DOCKED: ATOM     16  C   UNL d   1      -3.817 -10.703  17.006 -0.02 -0.00    -0.021 A 
DOCKED: ATOM     17  C   UNL d   1      -4.770 -11.694  17.278 -0.01 +0.00    +0.000 A 
DOCKED: ATOM     18  C   UNL d   1      -5.284 -12.063  16.039 -0.03 +0.02    +0.070 A 
DOCKED: ATOM     19  C   UNL d   1      -2.951  -9.929  17.975 -0.01 +0.00    +0.052 C 
DOCKED: ATOM     20  C   UNL d   1      -6.738 -13.527  14.588 -0.08 +0.02    +0.066 A 
DOCKED: ATOM     21  C   UNL d   1      -7.679 -14.548  14.474 -0.12 -0.01    -0.025 A 
DOCKED: ATOM     22  C   UNL d   1      -7.870 -14.728  13.116 -0.22 -0.01    -0.021 A 
DOCKED: ATOM     23  C   UNL d   1      -7.020 -13.810  12.464 -0.23 +0.03    +0.066 A 
DOCKED: ATOM     24  C   UNL d   1      -8.349 -15.327  15.602 -0.09 +0.01    +0.051 C 
DOCKED: ATOM     25  N   UNL d   1      -5.075 -12.015  11.107 -0.12 -0.11    -0.248 N 
DOCKED: ATOM     26  N   UNL d   1      -3.459 -10.315  12.602 -0.11 -0.09    -0.248 N 
DOCKED: ATOM     27  N   UNL d   1      -4.667 -11.387  15.076 -0.04 -0.08    -0.248 N 
DOCKED: ATOM     28  N   UNL d   1      -6.332 -13.082  13.351 -0.08 -0.10    -0.248 N 
DOCKED: ATOM     29 FE   UNL d   1      -4.862 -11.684  13.210 -0.03 +0.00    +0.000 Fe
DOCKED: ENDROOT
DOCKED: BRANCH   6  30
DOCKED: ATOM     30  C   UNL d   1      -6.301 -13.863   8.052 -0.29 +0.05    +0.052 C 
DOCKED: BRANCH  30  31
DOCKED: ATOM     31  C   UNL d   1      -5.665 -15.253   8.075 -0.16 +0.12    +0.115 C 
DOCKED: BRANCH  31  32
DOCKED: ATOM     32  C   UNL d   1      -6.583 -16.317   7.512 -0.12 +0.26    +0.139 C 
DOCKED: ATOM     33  O   UNL d   1      -6.685 -16.443   6.301 -0.28 -1.81    -0.650 OA
DOCKED: BRANCH  32  34
DOCKED: ATOM     34  O   UNL d   1      -7.264 -17.172   8.310 -0.13 -1.93    -0.776 OA
DOCKED: ATOM     35  H   UNL d   1      -7.439 -17.018   9.248 +0.02 +0.36    +0.167 HD
DOCKED: ENDBRANCH  32  34
DOCKED: ENDBRANCH  31  32
DOCKED: ENDBRANCH  30  31
DOCKED: ENDBRANCH   6  30
DOCKED: BRANCH  29  36
DOCKED: ATOM     36  C   UNL d   1      -3.402 -13.188  13.184 -0.02 +0.05    +0.190 C 
DOCKED: BRANCH  36  37
DOCKED: ATOM     37  O   UNL d   1      -2.031 -13.408  13.010 +0.00 -0.08    -0.399 OA
DOCKED: ATOM     38  H   UNL d   1      -1.667 -12.530  12.707 +0.01 +0.04    +0.209 HD
DOCKED: ENDBRANCH  36  37
DOCKED: ENDBRANCH  29  36
DOCKED: BRANCH  22  39
DOCKED: ATOM     39  C   UNL d   1      -8.772 -15.773  12.486 -0.14 +0.03    +0.052 C 
DOCKED: BRANCH  39  40
DOCKED: ATOM     40  C   UNL d   1      -8.092 -17.152  12.493 -0.13 +0.06    +0.115 C 
DOCKED: BRANCH  40  41
DOCKED: ATOM     41  C   UNL d   1      -8.153 -17.886  11.170 -0.12 +0.14    +0.139 C 
DOCKED: ATOM     42  O   UNL d   1      -9.191 -17.869  10.524 -0.17 -1.25    -0.650 OA
DOCKED: BRANCH  41  43
DOCKED: ATOM     43  O   UNL d   1      -7.064 -18.486  10.640 +0.03 -0.62    -0.776 OA
DOCKED: ATOM     44  H   UNL d   1      -6.783 -18.340   9.727 +0.02 +0.17    +0.167 HD
DOCKED: ENDBRANCH  41  43
DOCKED: ENDBRANCH  40  41
DOCKED: ENDBRANCH  39  40
DOCKED: ENDBRANCH  22  39
DOCKED: BRANCH  12  45
DOCKED: ATOM     45  C   UNL d   1      -1.113  -7.663  13.775 -0.23 +0.00    +0.004 C 
DOCKED: ATOM     46  C   UNL d   1      -1.200  -6.337  13.848 -0.35 +0.00    +0.012 C 
DOCKED: ENDBRANCH  12  45
DOCKED: BRANCH  17  47
DOCKED: ATOM     47  C   UNL d   1      -5.161 -12.310  18.581 +0.00 +0.00    +0.004 C 
DOCKED: ATOM     48  C   UNL d   1      -4.885 -13.574  18.911 +0.00 +0.00    +0.012 C 
DOCKED: ENDBRANCH  17  47
DOCKED: TORSDOF 12
DOCKED: TER
DOCKED: ENDMDL
________________________________________________________________________________


	BEGINNING GENETIC ALGORITHM DOCKING 21 of 100
Run: 21 Seed: 1199592425 1489234095 [ Run 21 of 100 GA/GALS ]
Beginning LAMARCKIAN GENETIC ALGORITHM (LGA), with a maximum of 25000000 energy evaluations.

Final-Value: -11.084


	FINAL GENETIC ALGORITHM DOCKED STATE
	_______________________________________________


Detailed state:  trans 15.638 -2.522 -12.757 quatxyzw 0.773378 0.456092 0.340664 0.278954 center 8.781 34.984 -0.736 ntor 12 51.3606 112.7355 -139.5255 -40.9599 79.1833 109.7988 26.5838 121.5703 176.2636 138.8908 -174.6358 169.6901
State:	 15.638  -2.522 -12.757   0.805  0.475  0.355 147.604     51.36  112.74 -139.53  -40.96   79.18  109.80   26.58  121.57  176.26  138.89 -174.64  169.69

DOCKED: MODEL       21
DOCKED: USER    Run = 21
DOCKED: USER    DPF = D:/Protein_go_brrr/autodock/final/AncB/heme_Co/dock.dpf
DOCKED: USER  
DOCKED: USER    Estimated Free Energy of Binding    =   -3.58 kcal/mol  [=(1)+(2)+(3)-(4)]
DOCKED: USER    Estimated Inhibition Constant, Ki   =    2.38 mM (millimolar)  [Temperature = 298.15 K]
DOCKED: USER    
DOCKED: USER    (1) Final Intermolecular Energy     =   -7.16 kcal/mol
DOCKED: USER        vdW + Hbond + desolv Energy     =   -6.83 kcal/mol
DOCKED: USER        Electrostatic Energy            =   -0.33 kcal/mol
DOCKED: USER    (2) Final Total Internal Energy     =   -3.92 kcal/mol
DOCKED: USER    (3) Torsional Free Energy           =   +3.58 kcal/mol
DOCKED: USER    (4) Unbound System's Energy  [=(2)] =   -3.92 kcal/mol
DOCKED: USER    
DOCKED: USER    
DOCKED: USER    NEWDPF move heme_Co_opt.pdbqt
DOCKED: USER    NEWDPF about 8.781000 34.984000 -0.736000
DOCKED: USER    NEWDPF tran0 15.638030 -2.521777 -12.757110
DOCKED: USER    NEWDPF quaternion0 0.773378 0.456092 0.340664 0.278954
DOCKED: USER    NEWDPF axisangle0 0.805346 0.474945 0.354746 147.604415
DOCKED: USER    NEWDPF quat0 0.805346 0.474945 0.354746 147.604415
DOCKED: USER    NEWDPF dihe0 51.36 112.74 -139.53 -40.96 79.18 109.80 26.58 121.57 176.26 138.89 -174.64 169.69 
DOCKED: USER  keepresnum = 1 
DOCKED: USER  
DOCKED: REMARK  12 active torsions:
DOCKED: REMARK  status: ('A' for Active; 'I' for Inactive)
DOCKED: REMARK    1  A    between atoms: C_6  and  C_10 
DOCKED: REMARK    2  A    between atoms: C_10  and  C_11 
DOCKED: REMARK    3  A    between atoms: C_11  and  C_12 
DOCKED: REMARK    4  A    between atoms: C_12  and  O_14 
DOCKED: REMARK    5  A    between atoms: C_17  and  C_20 
DOCKED: REMARK    6  A    between atoms: C_24  and  C_27 
DOCKED: REMARK    7  A    between atoms: C_31  and  C_34 
DOCKED: REMARK    8  A    between atoms: C_34  and  C_35 
DOCKED: REMARK    9  A    between atoms: C_35  and  C_36 
DOCKED: REMARK   10  A    between atoms: C_36  and  O_38 
DOCKED: REMARK   11  A    between atoms: FE_43  and  C_44 
DOCKED: REMARK   12  A    between atoms: C_44  and  O_45 
DOCKED: USER                              x       y       z     vdW  Elec       q    Type
DOCKED: USER                           _______ _______ _______ _____ _____    ______ ____
DOCKED: ROOT
DOCKED: ATOM      1  C   UNL d   1      15.172  -4.364 -13.809 -0.11 +0.02    +0.064 A 
DOCKED: ATOM      2  C   UNL d   1      14.251   0.197 -14.791 -0.26 +0.02    +0.064 C 
DOCKED: ATOM      3  C   UNL d   1      16.108   1.515 -10.591 -0.28 +0.03    +0.064 A 
DOCKED: ATOM      4  C   UNL d   1      17.408  -3.093  -9.733 -0.17 +0.02    +0.064 A 
DOCKED: ATOM      5  C   UNL d   1      14.751  -3.218 -14.370 -0.11 +0.02    +0.066 A 
DOCKED: ATOM      6  C   UNL d   1      14.201  -3.179 -15.666 -0.13 -0.00    -0.021 A 
DOCKED: ATOM      7  C   UNL d   1      13.957  -1.850 -15.955 -0.17 -0.01    -0.025 A 
DOCKED: ATOM      8  C   UNL d   1      14.353  -1.138 -14.817 -0.19 +0.02    +0.066 A 
DOCKED: ATOM      9  C   UNL d   1      13.374  -1.259 -17.247 -0.10 +0.02    +0.051 C 
DOCKED: ATOM     10  C   UNL d   1      14.608   1.011 -13.656 -0.26 +0.02    +0.066 A 
DOCKED: ATOM     11  C   UNL d   1      14.395   2.399 -13.513 -0.29 -0.01    -0.021 A 
DOCKED: ATOM     12  C   UNL d   1      14.942   2.757 -12.278 -0.29 +0.00    +0.000 A 
DOCKED: ATOM     13  C   UNL d   1      15.436   1.562 -11.755 -0.28 +0.03    +0.070 A 
DOCKED: ATOM     14  C   UNL d   1      13.632   3.287 -14.463 -0.28 +0.01    +0.052 C 
DOCKED: ATOM     15  C   UNL d   1      16.728   0.383  -9.931 -0.30 +0.03    +0.066 A 
DOCKED: ATOM     16  C   UNL d   1      17.533   0.428  -8.802 -0.29 -0.01    -0.021 A 
DOCKED: ATOM     17  C   UNL d   1      17.913  -0.898  -8.552 -0.26 +0.00    +0.000 A 
DOCKED: ATOM     18  C   UNL d   1      17.293  -1.653  -9.543 -0.23 +0.02    +0.070 A 
DOCKED: ATOM     19  C   UNL d   1      17.898   1.679  -8.034 -0.19 +0.04    +0.052 C 
DOCKED: ATOM     20  C   UNL d   1      16.886  -3.836 -10.739 -0.15 +0.03    +0.066 A 
DOCKED: ATOM     21  C   UNL d   1      17.096  -5.210 -10.834 -0.12 -0.01    -0.025 A 
DOCKED: ATOM     22  C   UNL d   1      16.439  -5.608 -11.984 -0.12 -0.01    -0.021 A 
DOCKED: ATOM     23  C   UNL d   1      15.866  -4.446 -12.544 -0.07 +0.03    +0.066 A 
DOCKED: ATOM     24  C   UNL d   1      17.900  -6.097  -9.888 -0.08 +0.02    +0.051 C 
DOCKED: ATOM     25  N   UNL d   1      14.843  -1.961 -13.817 -0.10 -0.08    -0.248 N 
DOCKED: ATOM     26  N   UNL d   1      15.183   0.498 -12.563 -0.17 -0.08    -0.248 N 
DOCKED: ATOM     27  N   UNL d   1      16.621  -0.853 -10.364 -0.18 -0.08    -0.248 N 
DOCKED: ATOM     28  N   UNL d   1      16.137  -3.371 -11.794 -0.10 -0.10    -0.248 N 
DOCKED: ATOM     29 FE   UNL d   1      15.785  -1.378 -11.987 -0.06 +0.00    +0.000 Fe
DOCKED: ENDROOT
DOCKED: BRANCH   6  30
DOCKED: ATOM     30  C   UNL d   1      14.002  -4.363 -16.606 -0.05 +0.01    +0.052 C 
DOCKED: BRANCH  30  31
DOCKED: ATOM     31  C   UNL d   1      15.233  -4.561 -17.489 -0.01 +0.02    +0.115 C 
DOCKED: BRANCH  31  32
DOCKED: ATOM     32  C   UNL d   1      16.260  -3.465 -17.302 -0.01 +0.02    +0.139 C 
DOCKED: ATOM     33  O   UNL d   1      16.358  -2.584 -18.143 +0.01 -0.11    -0.650 OA
DOCKED: BRANCH  32  34
DOCKED: ATOM     34  O   UNL d   1      17.048  -3.400 -16.204 +0.02 -0.14    -0.776 OA
DOCKED: ATOM     35  H   UNL d   1      17.530  -4.153 -15.835 +0.01 +0.03    +0.167 HD
DOCKED: ENDBRANCH  32  34
DOCKED: ENDBRANCH  31  32
DOCKED: ENDBRANCH  30  31
DOCKED: ENDBRANCH   6  30
DOCKED: BRANCH  29  36
DOCKED: ATOM     36  C   UNL d   1      17.549  -1.151 -13.098 -0.04 +0.05    +0.190 C 
DOCKED: BRANCH  36  37
DOCKED: ATOM     37  O   UNL d   1      18.337  -1.767 -14.076 +0.00 -0.08    -0.399 OA
DOCKED: ATOM     38  H   UNL d   1      17.860  -2.617 -14.292 +0.02 +0.04    +0.209 HD
DOCKED: ENDBRANCH  36  37
DOCKED: ENDBRANCH  29  36
DOCKED: BRANCH  22  39
DOCKED: ATOM     39  C   UNL d   1      16.422  -7.019 -12.543 -0.09 +0.02    +0.052 C 
DOCKED: BRANCH  39  40
DOCKED: ATOM     40  C   UNL d   1      17.610  -7.240 -13.493 -0.01 +0.03    +0.115 C 
DOCKED: BRANCH  40  41
DOCKED: ATOM     41  C   UNL d   1      17.822  -6.129 -14.499 -0.01 +0.03    +0.139 C 
DOCKED: ATOM     42  O   UNL d   1      17.423  -6.276 -15.646 +0.01 -0.12    -0.650 OA
DOCKED: BRANCH  41  43
DOCKED: ATOM     43  O   UNL d   1      18.363  -4.942 -14.144 +0.02 -0.16    -0.776 OA
DOCKED: ATOM     44  H   UNL d   1      17.981  -4.097 -14.413 +0.01 +0.03    +0.167 HD
DOCKED: ENDBRANCH  41  43
DOCKED: ENDBRANCH  40  41
DOCKED: ENDBRANCH  39  40
DOCKED: ENDBRANCH  22  39
DOCKED: BRANCH  12  45
DOCKED: ATOM     45  C   UNL d   1      15.038   4.079 -11.528 -0.36 +0.00    +0.004 C 
DOCKED: ATOM     46  C   UNL d   1      15.453   5.276 -11.933 -0.43 +0.01    +0.012 C 
DOCKED: ENDBRANCH  12  45
DOCKED: BRANCH  17  47
DOCKED: ATOM     47  C   UNL d   1      18.826  -1.449  -7.506 -0.25 +0.00    +0.004 C 
DOCKED: ATOM     48  C   UNL d   1      18.638  -1.270  -6.196 -0.33 +0.00    +0.012 C 
DOCKED: ENDBRANCH  17  47
DOCKED: TORSDOF 12
DOCKED: TER
DOCKED: ENDMDL
________________________________________________________________________________


	BEGINNING GENETIC ALGORITHM DOCKING 22 of 100
Run: 22 Seed: 343594861 485136912 [ Run 22 of 100 GA/GALS ]
Beginning LAMARCKIAN GENETIC ALGORITHM (LGA), with a maximum of 25000000 energy evaluations.

Final-Value: -10.464


	FINAL GENETIC ALGORITHM DOCKED STATE
	_______________________________________________


Detailed state:  trans -8.641 1.244 -9.684 quatxyzw -0.120518 0.708532 -0.695145 0.015230 center 8.781 34.984 -0.736 ntor 12 -166.4212 106.8965 -57.0012 -108.8750 -87.3980 138.6147 29.0289 -34.3041 -177.5049 46.9225 -178.2646 -165.5696
State:	 -8.641   1.244  -9.684  -0.121  0.709 -0.695 178.255   -166.42  106.90  -57.00 -108.88  -87.40  138.61   29.03  -34.30 -177.50   46.92 -178.26 -165.57

DOCKED: MODEL       22
DOCKED: USER    Run = 22
DOCKED: USER    DPF = D:/Protein_go_brrr/autodock/final/AncB/heme_Co/dock.dpf
DOCKED: USER  
DOCKED: USER    Estimated Free Energy of Binding    =   -4.90 kcal/mol  [=(1)+(2)+(3)-(4)]
DOCKED: USER    Estimated Inhibition Constant, Ki   =  254.95 uM (micromolar)  [Temperature = 298.15 K]
DOCKED: USER    
DOCKED: USER    (1) Final Intermolecular Energy     =   -8.48 kcal/mol
DOCKED: USER        vdW + Hbond + desolv Energy     =   -5.34 kcal/mol
DOCKED: USER        Electrostatic Energy            =   -3.15 kcal/mol
DOCKED: USER    (2) Final Total Internal Energy     =   -1.98 kcal/mol
DOCKED: USER    (3) Torsional Free Energy           =   +3.58 kcal/mol
DOCKED: USER    (4) Unbound System's Energy  [=(2)] =   -1.98 kcal/mol
DOCKED: USER    
DOCKED: USER    
DOCKED: USER    NEWDPF move heme_Co_opt.pdbqt
DOCKED: USER    NEWDPF about 8.781000 34.984000 -0.736000
DOCKED: USER    NEWDPF tran0 -8.640688 1.243767 -9.684442
DOCKED: USER    NEWDPF quaternion0 -0.120518 0.708532 -0.695145 0.015230
DOCKED: USER    NEWDPF axisangle0 -0.120532 0.708614 -0.695225 178.254672
DOCKED: USER    NEWDPF quat0 -0.120532 0.708614 -0.695225 178.254672
DOCKED: USER    NEWDPF dihe0 -166.42 106.90 -57.00 -108.88 -87.40 138.61 29.03 -34.30 -177.50 46.92 -178.26 -165.57 
DOCKED: USER  keepresnum = 1 
DOCKED: USER  
DOCKED: REMARK  12 active torsions:
DOCKED: REMARK  status: ('A' for Active; 'I' for Inactive)
DOCKED: REMARK    1  A    between atoms: C_6  and  C_10 
DOCKED: REMARK    2  A    between atoms: C_10  and  C_11 
DOCKED: REMARK    3  A    between atoms: C_11  and  C_12 
DOCKED: REMARK    4  A    between atoms: C_12  and  O_14 
DOCKED: REMARK    5  A    between atoms: C_17  and  C_20 
DOCKED: REMARK    6  A    between atoms: C_24  and  C_27 
DOCKED: REMARK    7  A    between atoms: C_31  and  C_34 
DOCKED: REMARK    8  A    between atoms: C_34  and  C_35 
DOCKED: REMARK    9  A    between atoms: C_35  and  C_36 
DOCKED: REMARK   10  A    between atoms: C_36  and  O_38 
DOCKED: REMARK   11  A    between atoms: FE_43  and  C_44 
DOCKED: REMARK   12  A    between atoms: C_44  and  O_45 
DOCKED: USER                              x       y       z     vdW  Elec       q    Type
DOCKED: USER                           _______ _______ _______ _____ _____    ______ ____
DOCKED: ROOT
DOCKED: ATOM      1  C   UNL d   1      -6.983   2.376 -10.512 -0.16 +0.04    +0.064 A 
DOCKED: ATOM      2  C   UNL d   1      -7.149  -1.517  -7.787 -0.12 +0.02    +0.064 C 
DOCKED: ATOM      3  C   UNL d   1     -11.900  -1.130  -7.458 -0.09 +0.00    +0.064 A 
DOCKED: ATOM      4  C   UNL d   1     -11.795   2.621 -10.554 -0.01 +0.01    +0.064 A 
DOCKED: ATOM      5  C   UNL d   1      -6.675   1.305  -9.762 -0.20 +0.03    +0.066 A 
DOCKED: ATOM      6  C   UNL d   1      -5.358   0.815  -9.662 -0.27 -0.01    -0.021 A 
DOCKED: ATOM      7  C   UNL d   1      -5.416  -0.328  -8.889 -0.28 -0.01    -0.025 A 
DOCKED: ATOM      8  C   UNL d   1      -6.762  -0.477  -8.537 -0.23 +0.02    +0.066 A 
DOCKED: ATOM      9  C   UNL d   1      -4.257  -1.254  -8.489 -0.14 +0.02    +0.051 C 
DOCKED: ATOM     10  C   UNL d   1      -8.506  -1.739  -7.353 -0.19 +0.02    +0.066 A 
DOCKED: ATOM     11  C   UNL d   1      -8.952  -2.730  -6.452 -0.37 -0.00    -0.021 A 
DOCKED: ATOM     12  C   UNL d   1     -10.340  -2.592  -6.372 -0.31 +0.00    +0.000 A 
DOCKED: ATOM     13  C   UNL d   1     -10.636  -1.522  -7.217 -0.17 +0.01    +0.070 A 
DOCKED: ATOM     14  C   UNL d   1      -8.083  -3.672  -5.660 -0.47 +0.01    +0.052 C 
DOCKED: ATOM     15  C   UNL d   1     -12.387  -0.086  -8.337 -0.07 +0.00    +0.066 A 
DOCKED: ATOM     16  C   UNL d   1     -13.713   0.173  -8.652 -0.06 -0.00    -0.021 A 
DOCKED: ATOM     17  C   UNL d   1     -13.688   1.253  -9.547 -0.02 +0.00    +0.000 A 
DOCKED: ATOM     18  C   UNL d   1     -12.344   1.579  -9.694 -0.01 +0.01    +0.070 A 
DOCKED: ATOM     19  C   UNL d   1     -14.906  -0.585  -8.115 -0.07 -0.00    +0.052 C 
DOCKED: ATOM     20  C   UNL d   1     -10.489   2.900 -10.780 -0.02 +0.02    +0.066 A 
DOCKED: ATOM     21  C   UNL d   1     -10.084   3.903 -11.657 -0.02 -0.01    -0.025 A 
DOCKED: ATOM     22  C   UNL d   1      -8.702   3.875 -11.643 -0.08 -0.01    -0.021 A 
DOCKED: ATOM     23  C   UNL d   1      -8.329   2.840 -10.760 -0.10 +0.03    +0.066 A 
DOCKED: ATOM     24  C   UNL d   1     -10.971   4.831 -12.484 -0.01 +0.02    +0.051 C 
DOCKED: ATOM     25  N   UNL d   1      -7.564   0.523  -9.059 -0.11 -0.09    -0.248 N 
DOCKED: ATOM     26  N   UNL d   1      -9.520  -0.972  -7.766 -0.10 -0.05    -0.248 N 
DOCKED: ATOM     27  N   UNL d   1     -11.596   0.742  -8.983 -0.02 -0.04    -0.248 N 
DOCKED: ATOM     28  N   UNL d   1      -9.408   2.245 -10.237 -0.02 -0.08    -0.248 N 
DOCKED: ATOM     29 FE   UNL d   1      -9.699   0.642  -9.021 -0.02 +0.00    +0.000 Fe
DOCKED: ENDROOT
DOCKED: BRANCH   6  30
DOCKED: ATOM     30  C   UNL d   1      -4.122   1.383 -10.352 -0.00 +0.04    +0.052 C 
DOCKED: BRANCH  30  31
DOCKED: ATOM     31  C   UNL d   1      -3.865   0.659 -11.673 -0.22 +0.13    +0.115 C 
DOCKED: BRANCH  31  32
DOCKED: ATOM     32  C   UNL d   1      -4.898  -0.409 -11.957 -0.12 +0.19    +0.139 C 
DOCKED: ATOM     33  O   UNL d   1      -4.629  -1.580 -11.737 -0.36 -1.21    -0.650 OA
DOCKED: BRANCH  32  34
DOCKED: ATOM     34  O   UNL d   1      -6.139  -0.106 -12.406 +0.05 -0.78    -0.776 OA
DOCKED: ATOM     35  H   UNL d   1      -6.863  -0.743 -12.474 +0.03 +0.15    +0.167 HD
DOCKED: ENDBRANCH  32  34
DOCKED: ENDBRANCH  31  32
DOCKED: ENDBRANCH  30  31
DOCKED: ENDBRANCH   6  30
DOCKED: BRANCH  29  36
DOCKED: ATOM     36  C   UNL d   1      -9.688  -0.645 -10.675 -0.02 +0.07    +0.190 C 
DOCKED: BRANCH  36  37
DOCKED: ATOM     37  O   UNL d   1      -8.863  -1.162 -11.679 +0.00 -0.19    -0.399 OA
DOCKED: ATOM     38  H   UNL d   1      -8.001  -0.669 -11.581 +0.03 +0.12    +0.209 HD
DOCKED: ENDBRANCH  36  37
DOCKED: ENDBRANCH  29  36
DOCKED: BRANCH  22  39
DOCKED: ATOM     39  C   UNL d   1      -7.796   4.754 -12.485 -0.10 +0.04    +0.052 C 
DOCKED: BRANCH  39  40
DOCKED: ATOM     40  C   UNL d   1      -7.986   4.455 -13.981 -0.07 +0.08    +0.115 C 
DOCKED: BRANCH  40  41
DOCKED: ATOM     41  C   UNL d   1      -6.700   4.418 -14.780 -0.01 +0.17    +0.139 C 
DOCKED: ATOM     42  O   UNL d   1      -6.235   3.338 -15.115 -0.04 -0.86    -0.650 OA
DOCKED: BRANCH  41  43
DOCKED: ATOM     43  O   UNL d   1      -6.097   5.549 -15.208 -0.14 -1.21    -0.776 OA
DOCKED: ATOM     44  H   UNL d   1      -6.571   6.241 -15.687 +0.01 +0.16    +0.167 HD
DOCKED: ENDBRANCH  41  43
DOCKED: ENDBRANCH  40  41
DOCKED: ENDBRANCH  39  40
DOCKED: ENDBRANCH  22  39
DOCKED: BRANCH  12  45
DOCKED: ATOM     45  C   UNL d   1     -11.413  -3.331  -5.583 -0.36 +0.00    +0.004 C 
DOCKED: ATOM     46  C   UNL d   1     -12.447  -4.059  -5.999 -0.28 +0.00    +0.012 C 
DOCKED: ENDBRANCH  12  45
DOCKED: BRANCH  17  47
DOCKED: ATOM     47  C   UNL d   1     -14.812   1.920 -10.269 -0.00 +0.00    +0.004 C 
DOCKED: ATOM     48  C   UNL d   1     -15.016   1.806 -11.583 -0.00 +0.00    +0.012 C 
DOCKED: ENDBRANCH  17  47
DOCKED: TORSDOF 12
DOCKED: TER
DOCKED: ENDMDL
________________________________________________________________________________


	BEGINNING GENETIC ALGORITHM DOCKING 23 of 100
Run: 23 Seed: 684306840 1048662202 [ Run 23 of 100 GA/GALS ]
Beginning LAMARCKIAN GENETIC ALGORITHM (LGA), with a maximum of 25000000 energy evaluations.

Final-Value: -11.914


	FINAL GENETIC ALGORITHM DOCKED STATE
	_______________________________________________


Detailed state:  trans -7.307 -0.921 -11.893 quatxyzw -0.495292 0.785357 -0.072869 0.364130 center 8.781 34.984 -0.736 ntor 12 66.7369 95.6299 -140.5237 5.1334 97.7855 85.7948 43.9705 126.0704 136.1973 145.9778 41.0413 167.2309
State:	 -7.307  -0.921 -11.893  -0.532  0.843 -0.078 137.292     66.74   95.63 -140.52    5.13   97.79   85.79   43.97  126.07  136.20  145.98   41.04  167.23

DOCKED: MODEL       23
DOCKED: USER    Run = 23
DOCKED: USER    DPF = D:/Protein_go_brrr/autodock/final/AncB/heme_Co/dock.dpf
DOCKED: USER  
DOCKED: USER    Estimated Free Energy of Binding    =   -6.26 kcal/mol  [=(1)+(2)+(3)-(4)]
DOCKED: USER    Estimated Inhibition Constant, Ki   =   25.77 uM (micromolar)  [Temperature = 298.15 K]
DOCKED: USER    
DOCKED: USER    (1) Final Intermolecular Energy     =   -9.84 kcal/mol
DOCKED: USER        vdW + Hbond + desolv Energy     =   -7.22 kcal/mol
DOCKED: USER        Electrostatic Energy            =   -2.62 kcal/mol
DOCKED: USER    (2) Final Total Internal Energy     =   -2.07 kcal/mol
DOCKED: USER    (3) Torsional Free Energy           =   +3.58 kcal/mol
DOCKED: USER    (4) Unbound System's Energy  [=(2)] =   -2.07 kcal/mol
DOCKED: USER    
DOCKED: USER    
DOCKED: USER    NEWDPF move heme_Co_opt.pdbqt
DOCKED: USER    NEWDPF about 8.781000 34.984000 -0.736000
DOCKED: USER    NEWDPF tran0 -7.306674 -0.921092 -11.892848
DOCKED: USER    NEWDPF quaternion0 -0.495292 0.785357 -0.072869 0.364130
DOCKED: USER    NEWDPF axisangle0 -0.531802 0.843247 -0.078240 137.291940
DOCKED: USER    NEWDPF quat0 -0.531802 0.843247 -0.078240 137.291940
DOCKED: USER    NEWDPF dihe0 66.74 95.63 -140.52 5.13 97.79 85.79 43.97 126.07 136.20 145.98 41.04 167.23 
DOCKED: USER  keepresnum = 1 
DOCKED: USER  
DOCKED: REMARK  12 active torsions:
DOCKED: REMARK  status: ('A' for Active; 'I' for Inactive)
DOCKED: REMARK    1  A    between atoms: C_6  and  C_10 
DOCKED: REMARK    2  A    between atoms: C_10  and  C_11 
DOCKED: REMARK    3  A    between atoms: C_11  and  C_12 
DOCKED: REMARK    4  A    between atoms: C_12  and  O_14 
DOCKED: REMARK    5  A    between atoms: C_17  and  C_20 
DOCKED: REMARK    6  A    between atoms: C_24  and  C_27 
DOCKED: REMARK    7  A    between atoms: C_31  and  C_34 
DOCKED: REMARK    8  A    between atoms: C_34  and  C_35 
DOCKED: REMARK    9  A    between atoms: C_35  and  C_36 
DOCKED: REMARK   10  A    between atoms: C_36  and  O_38 
DOCKED: REMARK   11  A    between atoms: FE_43  and  C_44 
DOCKED: REMARK   12  A    between atoms: C_44  and  O_45 
DOCKED: USER                              x       y       z     vdW  Elec       q    Type
DOCKED: USER                           _______ _______ _______ _____ _____    ______ ____
DOCKED: ROOT
DOCKED: ATOM      1  C   UNL d   1      -6.824   1.134 -12.401 -0.08 +0.05    +0.064 A 
DOCKED: ATOM      2  C   UNL d   1      -6.788  -2.880 -14.950 -0.09 +0.08    +0.064 C 
DOCKED: ATOM      3  C   UNL d   1      -7.862  -5.414 -11.044 -0.32 +0.03    +0.064 A 
DOCKED: ATOM      4  C   UNL d   1      -8.285  -1.289  -8.500 -0.17 +0.02    +0.064 A 
DOCKED: ATOM      5  C   UNL d   1      -6.699   0.220 -13.377 -0.05 +0.06    +0.066 A 
DOCKED: ATOM      6  C   UNL d   1      -6.453   0.584 -14.715 -0.05 -0.02    -0.021 A 
DOCKED: ATOM      7  C   UNL d   1      -6.466  -0.583 -15.454 -0.04 -0.03    -0.025 A 
DOCKED: ATOM      8  C   UNL d   1      -6.703  -1.610 -14.533 -0.06 +0.08    +0.066 A 
DOCKED: ATOM      9  C   UNL d   1      -6.265  -0.742 -16.969 -0.02 +0.04    +0.051 C 
DOCKED: ATOM     10  C   UNL d   1      -7.003  -4.004 -14.073 -0.12 +0.07    +0.066 A 
DOCKED: ATOM     11  C   UNL d   1      -6.961  -5.370 -14.428 -0.17 -0.02    -0.021 A 
DOCKED: ATOM     12  C   UNL d   1      -7.274  -6.087 -13.269 -0.28 +0.00    +0.000 A 
DOCKED: ATOM     13  C   UNL d   1      -7.471  -5.108 -12.294 -0.25 +0.05    +0.070 A 
DOCKED: ATOM     14  C   UNL d   1      -6.553  -5.933 -15.765 -0.17 +0.05    +0.052 C 
DOCKED: ATOM     15  C   UNL d   1      -8.160  -4.532  -9.933 -0.27 +0.03    +0.066 A 
DOCKED: ATOM     16  C   UNL d   1      -8.701  -4.904  -8.710 -0.36 -0.01    -0.021 A 
DOCKED: ATOM     17  C   UNL d   1      -8.827  -3.717  -7.973 -0.31 +0.00    +0.000 A 
DOCKED: ATOM     18  C   UNL d   1      -8.336  -2.714  -8.802 -0.19 +0.02    +0.070 A 
DOCKED: ATOM     19  C   UNL d   1      -9.064  -6.315  -8.304 -0.39 +0.02    +0.052 C 
DOCKED: ATOM     20  C   UNL d   1      -7.893  -0.286  -9.322 -0.12 +0.02    +0.066 A 
DOCKED: ATOM     21  C   UNL d   1      -7.923   1.051  -8.929 -0.20 -0.01    -0.025 A 
DOCKED: ATOM     22  C   UNL d   1      -7.479   1.770 -10.024 -0.17 -0.01    -0.021 A 
DOCKED: ATOM     23  C   UNL d   1      -7.210   0.831 -11.042 -0.08 +0.04    +0.066 A 
DOCKED: ATOM     24  C   UNL d   1      -8.371   1.617  -7.585 -0.33 +0.01    +0.051 C 
DOCKED: ATOM     25  N   UNL d   1      -6.846  -1.142 -13.238 -0.05 -0.26    -0.248 N 
DOCKED: ATOM     26  N   UNL d   1      -7.251  -3.853 -12.768 -0.10 -0.21    -0.248 N 
DOCKED: ATOM     27  N   UNL d   1      -7.976  -3.232  -9.971 -0.11 -0.12    -0.248 N 
DOCKED: ATOM     28  N   UNL d   1      -7.461  -0.415 -10.621 -0.03 -0.13    -0.248 N 
DOCKED: ATOM     29 FE   UNL d   1      -7.444  -2.246 -11.506 -0.03 +0.00    +0.000 Fe
DOCKED: ENDROOT
DOCKED: BRANCH   6  30
DOCKED: ATOM     30  C   UNL d   1      -6.296   2.000 -15.258 -0.06 +0.05    +0.052 C 
DOCKED: BRANCH  30  31
DOCKED: ATOM     31  C   UNL d   1      -4.975   2.142 -16.013 -0.06 +0.15    +0.115 C 
DOCKED: BRANCH  31  32
DOCKED: ATOM     32  C   UNL d   1      -3.811   1.535 -15.260 -0.07 +0.22    +0.139 C 
DOCKED: ATOM     33  O   UNL d   1      -3.225   2.203 -14.420 -0.42 -1.51    -0.650 OA
DOCKED: BRANCH  32  34
DOCKED: ATOM     34  O   UNL d   1      -3.423   0.253 -15.450 -0.18 -1.27    -0.776 OA
DOCKED: ATOM     35  H   UNL d   1      -3.093  -0.097 -16.289 +0.01 +0.24    +0.167 HD
DOCKED: ENDBRANCH  32  34
DOCKED: ENDBRANCH  31  32
DOCKED: ENDBRANCH  30  31
DOCKED: ENDBRANCH   6  30
DOCKED: BRANCH  29  36
DOCKED: ATOM     36  C   UNL d   1      -9.419  -1.976 -12.155 -0.01 +0.09    +0.190 C 
DOCKED: BRANCH  36  37
DOCKED: ATOM     37  O   UNL d   1     -10.413  -1.007 -12.328 +0.00 -0.15    -0.399 OA
DOCKED: ATOM     38  H   UNL d   1     -10.118  -0.235 -11.769 +0.01 +0.08    +0.209 HD
DOCKED: ENDBRANCH  36  37
DOCKED: ENDBRANCH  29  36
DOCKED: BRANCH  22  39
DOCKED: ATOM     39  C   UNL d   1      -7.384   3.282 -10.103 -0.22 +0.03    +0.052 C 
DOCKED: BRANCH  39  40
DOCKED: ATOM     40  C   UNL d   1      -8.685   3.879 -10.665 -0.10 +0.05    +0.115 C 
DOCKED: BRANCH  40  41
DOCKED: ATOM     41  C   UNL d   1      -9.300   3.083 -11.797 -0.03 +0.06    +0.139 C 
DOCKED: ATOM     42  O   UNL d   1      -9.061   3.403 -12.953 +0.01 -0.31    -0.650 OA
DOCKED: BRANCH  41  43
DOCKED: ATOM     43  O   UNL d   1     -10.036   1.973 -11.566 +0.03 -0.26    -0.776 OA
DOCKED: ATOM     44  H   UNL d   1      -9.915   1.156 -12.068 +0.01 +0.06    +0.167 HD
DOCKED: ENDBRANCH  41  43
DOCKED: ENDBRANCH  40  41
DOCKED: ENDBRANCH  39  40
DOCKED: ENDBRANCH  22  39
DOCKED: BRANCH  12  45
DOCKED: ATOM     45  C   UNL d   1      -7.391  -7.575 -12.969 -0.09 +0.00    +0.004 C 
DOCKED: ATOM     46  C   UNL d   1      -7.279  -8.631 -13.769 -0.38 +0.00    +0.012 C 
DOCKED: ENDBRANCH  12  45
DOCKED: BRANCH  17  47
DOCKED: ATOM     47  C   UNL d   1      -9.406  -3.495  -6.615 -0.43 +0.00    +0.004 C 
DOCKED: ATOM     48  C   UNL d   1      -8.774  -3.812  -5.483 -0.62 +0.00    +0.012 C 
DOCKED: ENDBRANCH  17  47
DOCKED: TORSDOF 12
DOCKED: TER
DOCKED: ENDMDL
________________________________________________________________________________


	BEGINNING GENETIC ALGORITHM DOCKING 24 of 100
Run: 24 Seed: 893494870 1637654205 [ Run 24 of 100 GA/GALS ]
Beginning LAMARCKIAN GENETIC ALGORITHM (LGA), with a maximum of 25000000 energy evaluations.

Final-Value: -10.380


	FINAL GENETIC ALGORITHM DOCKED STATE
	_______________________________________________


Detailed state:  trans 19.862 2.952 -3.637 quatxyzw 0.261809 0.034948 0.642234 0.719563 center 8.781 34.984 -0.736 ntor 12 94.5871 118.6381 170.8102 107.4208 137.0928 132.3836 -170.9890 -122.9606 -109.3604 78.8997 -14.5751 115.1645
State:	 19.862   2.952  -3.637   0.377  0.050  0.925 87.963     94.59  118.64  170.81  107.42  137.09  132.38 -170.99 -122.96 -109.36   78.90  -14.58  115.16

DOCKED: MODEL       24
DOCKED: USER    Run = 24
DOCKED: USER    DPF = D:/Protein_go_brrr/autodock/final/AncB/heme_Co/dock.dpf
DOCKED: USER  
DOCKED: USER    Estimated Free Energy of Binding    =   -6.07 kcal/mol  [=(1)+(2)+(3)-(4)]
DOCKED: USER    Estimated Inhibition Constant, Ki   =   35.31 uM (micromolar)  [Temperature = 298.15 K]
DOCKED: USER    
DOCKED: USER    (1) Final Intermolecular Energy     =   -9.65 kcal/mol
DOCKED: USER        vdW + Hbond + desolv Energy     =   -7.31 kcal/mol
DOCKED: USER        Electrostatic Energy            =   -2.35 kcal/mol
DOCKED: USER    (2) Final Total Internal Energy     =   -0.73 kcal/mol
DOCKED: USER    (3) Torsional Free Energy           =   +3.58 kcal/mol
DOCKED: USER    (4) Unbound System's Energy  [=(2)] =   -0.73 kcal/mol
DOCKED: USER    
DOCKED: USER    
DOCKED: USER    NEWDPF move heme_Co_opt.pdbqt
DOCKED: USER    NEWDPF about 8.781000 34.984000 -0.736000
DOCKED: USER    NEWDPF tran0 19.861578 2.951720 -3.637275
DOCKED: USER    NEWDPF quaternion0 0.261809 0.034948 0.642234 0.719563
DOCKED: USER    NEWDPF axisangle0 0.377015 0.050327 0.924839 87.963216
DOCKED: USER    NEWDPF quat0 0.377015 0.050327 0.924839 87.963216
DOCKED: USER    NEWDPF dihe0 94.59 118.64 170.81 107.42 137.09 132.38 -170.99 -122.96 -109.36 78.90 -14.58 115.16 
DOCKED: USER  keepresnum = 1 
DOCKED: USER  
DOCKED: REMARK  12 active torsions:
DOCKED: REMARK  status: ('A' for Active; 'I' for Inactive)
DOCKED: REMARK    1  A    between atoms: C_6  and  C_10 
DOCKED: REMARK    2  A    between atoms: C_10  and  C_11 
DOCKED: REMARK    3  A    between atoms: C_11  and  C_12 
DOCKED: REMARK    4  A    between atoms: C_12  and  O_14 
DOCKED: REMARK    5  A    between atoms: C_17  and  C_20 
DOCKED: REMARK    6  A    between atoms: C_24  and  C_27 
DOCKED: REMARK    7  A    between atoms: C_31  and  C_34 
DOCKED: REMARK    8  A    between atoms: C_34  and  C_35 
DOCKED: REMARK    9  A    between atoms: C_35  and  C_36 
DOCKED: REMARK   10  A    between atoms: C_36  and  O_38 
DOCKED: REMARK   11  A    between atoms: FE_43  and  C_44 
DOCKED: REMARK   12  A    between atoms: C_44  and  O_45 
DOCKED: USER                              x       y       z     vdW  Elec       q    Type
DOCKED: USER                           _______ _______ _______ _____ _____    ______ ____
DOCKED: ROOT
DOCKED: ATOM      1  C   UNL d   1      19.755   4.365  -5.282 -0.14 +0.04    +0.064 A 
DOCKED: ATOM      2  C   UNL d   1      18.533   4.699  -0.699 -0.07 -0.00    +0.064 C 
DOCKED: ATOM      3  C   UNL d   1      19.576   0.082  -0.046 -0.18 +0.01    +0.064 A 
DOCKED: ATOM      4  C   UNL d   1      21.194  -0.187  -4.626 -0.08 +0.01    +0.064 A 
DOCKED: ATOM      5  C   UNL d   1      19.310   4.786  -4.087 -0.14 +0.03    +0.066 A 
DOCKED: ATOM      6  C   UNL d   1      18.965   6.131  -3.849 -0.18 -0.01    -0.021 A 
DOCKED: ATOM      7  C   UNL d   1      18.633   6.227  -2.512 -0.20 -0.00    -0.025 A 
DOCKED: ATOM      8  C   UNL d   1      18.774   4.934  -1.995 -0.16 +0.01    +0.066 A 
DOCKED: ATOM      9  C   UNL d   1      18.199   7.480  -1.736 -0.22 +0.01    +0.051 C 
DOCKED: ATOM     10  C   UNL d   1      18.626   3.398  -0.084 -0.25 -0.00    +0.066 A 
DOCKED: ATOM     11  C   UNL d   1      18.252   3.059   1.234 -0.26 +0.00    -0.021 A 
DOCKED: ATOM     12  C   UNL d   1      18.563   1.706   1.397 -0.20 -0.00    +0.000 A 
DOCKED: ATOM     13  C   UNL d   1      19.090   1.318   0.165 -0.21 +0.00    +0.070 A 
DOCKED: ATOM     14  C   UNL d   1      17.557   3.959   2.224 -0.29 +0.00    +0.052 C 
DOCKED: ATOM     15  C   UNL d   1      20.200  -0.471  -1.232 -0.15 +0.01    +0.066 A 
DOCKED: ATOM     16  C   UNL d   1      20.812  -1.712  -1.338 -0.10 -0.00    -0.021 A 
DOCKED: ATOM     17  C   UNL d   1      21.283  -1.793  -2.656 -0.08 +0.00    +0.000 A 
DOCKED: ATOM     18  C   UNL d   1      20.904  -0.597  -3.258 -0.11 +0.01    +0.070 A 
DOCKED: ATOM     19  C   UNL d   1      20.924  -2.732  -0.227 -0.07 +0.00    +0.052 C 
DOCKED: ATOM     20  C   UNL d   1      20.912   1.004  -5.207 -0.09 +0.02    +0.066 A 
DOCKED: ATOM     21  C   UNL d   1      21.274   1.295  -6.520 -0.06 -0.01    -0.025 A 
DOCKED: ATOM     22  C   UNL d   1      20.846   2.591  -6.746 -0.07 -0.01    -0.021 A 
DOCKED: ATOM     23  C   UNL d   1      20.250   3.034  -5.546 -0.10 +0.03    +0.066 A 
DOCKED: ATOM     24  C   UNL d   1      22.009   0.391  -7.506 -0.02 +0.01    +0.051 C 
DOCKED: ATOM     25  N   UNL d   1      19.186   4.020  -2.950 -0.02 -0.07    -0.248 N 
DOCKED: ATOM     26  N   UNL d   1      19.076   2.327  -0.747 -0.14 -0.02    -0.248 N 
DOCKED: ATOM     27  N   UNL d   1      20.288   0.178  -2.372 -0.09 -0.05    -0.248 N 
DOCKED: ATOM     28  N   UNL d   1      20.290   2.077  -4.611 -0.04 -0.08    -0.248 N 
DOCKED: ATOM     29 FE   UNL d   1      19.771   1.985  -2.647 -0.05 +0.00    +0.000 Fe
DOCKED: ENDROOT
DOCKED: BRANCH   6  30
DOCKED: ATOM     30  C   UNL d   1      19.035   7.279  -4.851 -0.20 +0.02    +0.052 C 
DOCKED: BRANCH  30  31
DOCKED: ATOM     31  C   UNL d   1      17.966   7.115  -5.931 -0.22 +0.11    +0.115 C 
DOCKED: BRANCH  31  32
DOCKED: ATOM     32  C   UNL d   1      16.565   7.310  -5.391 -0.40 +0.14    +0.139 C 
DOCKED: ATOM     33  O   UNL d   1      16.265   8.375  -4.871 -0.14 -0.36    -0.650 OA
DOCKED: BRANCH  32  34
DOCKED: ATOM     34  O   UNL d   1      15.612   6.357  -5.508 -0.47 -1.24    -0.776 OA
DOCKED: ATOM     35  H   UNL d   1      15.452   5.665  -4.851 -0.41 +0.13    +0.167 HD
DOCKED: ENDBRANCH  32  34
DOCKED: ENDBRANCH  31  32
DOCKED: ENDBRANCH  30  31
DOCKED: ENDBRANCH   6  30
DOCKED: BRANCH  29  36
DOCKED: ATOM     36  C   UNL d   1      21.651   2.725  -2.091 -0.04 +0.03    +0.190 C 
DOCKED: BRANCH  36  37
DOCKED: ATOM     37  O   UNL d   1      22.497   3.831  -2.223 -0.00 -0.06    -0.399 OA
DOCKED: ATOM     38  H   UNL d   1      21.955   4.511  -2.714 +0.02 +0.04    +0.209 HD
DOCKED: ENDBRANCH  36  37
DOCKED: ENDBRANCH  29  36
DOCKED: BRANCH  22  39
DOCKED: ATOM     39  C   UNL d   1      21.060   3.377  -8.027 -0.05 +0.02    +0.052 C 
DOCKED: BRANCH  39  40
DOCKED: ATOM     40  C   UNL d   1      21.328   4.858  -7.715 -0.04 +0.05    +0.115 C 
DOCKED: BRANCH  40  41
DOCKED: ATOM     41  C   UNL d   1      20.174   5.784  -8.040 -0.12 +0.09    +0.139 C 
DOCKED: ATOM     42  O   UNL d   1      19.065   5.310  -8.240 -0.38 -0.98    -0.650 OA
DOCKED: BRANCH  41  43
DOCKED: ATOM     43  O   UNL d   1      20.317   7.128  -8.030 +0.02 -0.31    -0.776 OA
DOCKED: ATOM     44  H   UNL d   1      19.601   7.728  -8.273 -0.54 +0.05    +0.167 HD
DOCKED: ENDBRANCH  41  43
DOCKED: ENDBRANCH  40  41
DOCKED: ENDBRANCH  39  40
DOCKED: ENDBRANCH  22  39
DOCKED: BRANCH  12  45
DOCKED: ATOM     45  C   UNL d   1      18.406   0.737   2.561 -0.20 -0.00    +0.004 C 
DOCKED: ATOM     46  C   UNL d   1      17.471  -0.176   2.807 -0.28 -0.00    +0.012 C 
DOCKED: ENDBRANCH  12  45
DOCKED: BRANCH  17  47
DOCKED: ATOM     47  C   UNL d   1      22.076  -2.870  -3.322 -0.04 +0.00    +0.004 C 
DOCKED: ATOM     48  C   UNL d   1      21.614  -3.604  -4.337 -0.05 +0.00    +0.012 C 
DOCKED: ENDBRANCH  17  47
DOCKED: TORSDOF 12
DOCKED: TER
DOCKED: ENDMDL
________________________________________________________________________________


	BEGINNING GENETIC ALGORITHM DOCKING 25 of 100
Run: 25 Seed: 471259061 401757243 [ Run 25 of 100 GA/GALS ]
Beginning LAMARCKIAN GENETIC ALGORITHM (LGA), with a maximum of 25000000 energy evaluations.

Final-Value: -12.377


	FINAL GENETIC ALGORITHM DOCKED STATE
	_______________________________________________


Detailed state:  trans -5.255 -11.822 12.626 quatxyzw 0.789535 0.101701 0.597344 -0.097320 center 8.781 34.984 -0.736 ntor 12 -31.5495 117.0616 -125.5072 78.8629 -88.2755 -113.3246 -122.7963 151.2637 -24.6247 45.4408 -170.5196 -167.3402
State:	 -5.255 -11.822  12.626   0.793  0.102  0.600 -168.830    -31.55  117.06 -125.51   78.86  -88.28 -113.32 -122.80  151.26  -24.62   45.44 -170.52 -167.34

DOCKED: MODEL       25
DOCKED: USER    Run = 25
DOCKED: USER    DPF = D:/Protein_go_brrr/autodock/final/AncB/heme_Co/dock.dpf
DOCKED: USER  
DOCKED: USER    Estimated Free Energy of Binding    =   -7.14 kcal/mol  [=(1)+(2)+(3)-(4)]
DOCKED: USER    Estimated Inhibition Constant, Ki   =    5.84 uM (micromolar)  [Temperature = 298.15 K]
DOCKED: USER    
DOCKED: USER    (1) Final Intermolecular Energy     =  -10.72 kcal/mol
DOCKED: USER        vdW + Hbond + desolv Energy     =   -6.64 kcal/mol
DOCKED: USER        Electrostatic Energy            =   -4.08 kcal/mol
DOCKED: USER    (2) Final Total Internal Energy     =   -1.66 kcal/mol
DOCKED: USER    (3) Torsional Free Energy           =   +3.58 kcal/mol
DOCKED: USER    (4) Unbound System's Energy  [=(2)] =   -1.66 kcal/mol
DOCKED: USER    
DOCKED: USER    
DOCKED: USER    NEWDPF move heme_Co_opt.pdbqt
DOCKED: USER    NEWDPF about 8.781000 34.984000 -0.736000
DOCKED: USER    NEWDPF tran0 -5.254649 -11.821611 12.626347
DOCKED: USER    NEWDPF quaternion0 0.789535 0.101701 0.597344 -0.097320
DOCKED: USER    NEWDPF axisangle0 0.793301 0.102186 0.600193 -168.830295
DOCKED: USER    NEWDPF quat0 0.793301 0.102186 0.600193 -168.830295
DOCKED: USER    NEWDPF dihe0 -31.55 117.06 -125.51 78.86 -88.28 -113.32 -122.80 151.26 -24.62 45.44 -170.52 -167.34 
DOCKED: USER  keepresnum = 1 
DOCKED: USER  
DOCKED: REMARK  12 active torsions:
DOCKED: REMARK  status: ('A' for Active; 'I' for Inactive)
DOCKED: REMARK    1  A    between atoms: C_6  and  C_10 
DOCKED: REMARK    2  A    between atoms: C_10  and  C_11 
DOCKED: REMARK    3  A    between atoms: C_11  and  C_12 
DOCKED: REMARK    4  A    between atoms: C_12  and  O_14 
DOCKED: REMARK    5  A    between atoms: C_17  and  C_20 
DOCKED: REMARK    6  A    between atoms: C_24  and  C_27 
DOCKED: REMARK    7  A    between atoms: C_31  and  C_34 
DOCKED: REMARK    8  A    between atoms: C_34  and  C_35 
DOCKED: REMARK    9  A    between atoms: C_35  and  C_36 
DOCKED: REMARK   10  A    between atoms: C_36  and  O_38 
DOCKED: REMARK   11  A    between atoms: FE_43  and  C_44 
DOCKED: REMARK   12  A    between atoms: C_44  and  O_45 
DOCKED: USER                              x       y       z     vdW  Elec       q    Type
DOCKED: USER                           _______ _______ _______ _____ _____    ______ ____
DOCKED: ROOT
DOCKED: ATOM      1  C   UNL d   1      -6.565 -12.809  11.204 -0.23 +0.04    +0.064 A 
DOCKED: ATOM      2  C   UNL d   1      -2.752 -10.026  10.636 -0.29 +0.02    +0.064 C 
DOCKED: ATOM      3  C   UNL d   1      -2.546  -9.281  15.351 -0.07 +0.01    +0.064 A 
DOCKED: ATOM      4  C   UNL d   1      -6.202 -12.426  15.994 -0.04 +0.02    +0.064 A 
DOCKED: ATOM      5  C   UNL d   1      -5.560 -12.075  10.699 -0.19 +0.03    +0.066 A 
DOCKED: ATOM      6  C   UNL d   1      -5.243 -12.086   9.327 -0.25 -0.01    -0.021 A 
DOCKED: ATOM      7  C   UNL d   1      -4.122 -11.294   9.171 -0.19 -0.01    -0.025 A 
DOCKED: ATOM      8  C   UNL d   1      -3.813 -10.822  10.451 -0.23 +0.02    +0.066 A 
DOCKED: ATOM      9  C   UNL d   1      -3.359 -10.986   7.874 -0.21 +0.02    +0.051 C 
DOCKED: ATOM     10  C   UNL d   1      -2.372  -9.471  11.911 -0.19 +0.02    +0.066 A 
DOCKED: ATOM     11  C   UNL d   1      -1.355  -8.520  12.148 -0.22 -0.00    -0.021 A 
DOCKED: ATOM     12  C   UNL d   1      -1.320  -8.318  13.530 -0.17 +0.00    +0.000 A 
DOCKED: ATOM     13  C   UNL d   1      -2.322  -9.148  14.032 -0.12 +0.01    +0.070 A 
DOCKED: ATOM     14  C   UNL d   1      -0.550  -7.795  11.100 -0.28 +0.01    +0.052 C 
DOCKED: ATOM     15  C   UNL d   1      -3.499 -10.128  16.041 -0.05 +0.01    +0.066 A 
DOCKED: ATOM     16  C   UNL d   1      -3.581 -10.327  17.412 -0.01 -0.00    -0.021 A 
DOCKED: ATOM     17  C   UNL d   1      -4.632 -11.235  17.603 -0.01 +0.00    +0.000 A 
DOCKED: ATOM     18  C   UNL d   1      -5.121 -11.506  16.329 -0.03 +0.02    +0.070 A 
DOCKED: ATOM     19  C   UNL d   1      -2.692  -9.675  18.448 -0.01 +0.00    +0.052 C 
DOCKED: ATOM     20  C   UNL d   1      -6.637 -12.771  14.759 -0.09 +0.02    +0.066 A 
DOCKED: ATOM     21  C   UNL d   1      -7.661 -13.695  14.562 -0.15 -0.01    -0.025 A 
DOCKED: ATOM     22  C   UNL d   1      -7.808 -13.804  13.192 -0.28 -0.01    -0.021 A 
DOCKED: ATOM     23  C   UNL d   1      -6.850 -12.943  12.615 -0.26 +0.03    +0.066 A 
DOCKED: ATOM     24  C   UNL d   1      -8.449 -14.452  15.628 -0.11 +0.01    +0.051 C 
DOCKED: ATOM     25  N   UNL d   1      -4.691 -11.284  11.416 -0.14 -0.11    -0.248 N 
DOCKED: ATOM     26  N   UNL d   1      -2.995  -9.802  13.047 -0.10 -0.07    -0.248 N 
DOCKED: ATOM     27  N   UNL d   1      -4.403 -10.853  15.422 -0.04 -0.08    -0.248 N 
DOCKED: ATOM     28  N   UNL d   1      -6.138 -12.318  13.560 -0.09 -0.11    -0.248 N 
DOCKED: ATOM     29 FE   UNL d   1      -4.542 -11.058  13.538 -0.03 +0.00    +0.000 Fe
DOCKED: ENDROOT
DOCKED: BRANCH   6  30
DOCKED: ATOM     30  C   UNL d   1      -5.944 -12.890   8.237 -0.31 +0.04    +0.052 C 
DOCKED: BRANCH  30  31
DOCKED: ATOM     31  C   UNL d   1      -5.346 -14.293   8.137 -0.17 +0.09    +0.115 C 
DOCKED: BRANCH  31  32
DOCKED: ATOM     32  C   UNL d   1      -6.333 -15.304   7.594 -0.21 +0.21    +0.139 C 
DOCKED: ATOM     33  O   UNL d   1      -6.189 -15.735   6.460 -0.40 -1.46    -0.650 OA
DOCKED: BRANCH  32  34
DOCKED: ATOM     34  O   UNL d   1      -7.351 -15.787   8.343 -0.36 -1.87    -0.776 OA
DOCKED: ATOM     35  H   UNL d   1      -7.292 -15.962   9.293 -0.01 +0.29    +0.167 HD
DOCKED: ENDBRANCH  32  34
DOCKED: ENDBRANCH  31  32
DOCKED: ENDBRANCH  30  31
DOCKED: ENDBRANCH   6  30
DOCKED: BRANCH  29  36
DOCKED: ATOM     36  C   UNL d   1      -3.225 -12.689  13.507 -0.02 +0.04    +0.190 C 
DOCKED: BRANCH  36  37
DOCKED: ATOM     37  O   UNL d   1      -1.871 -13.026  13.416 +0.00 -0.07    -0.399 OA
DOCKED: ATOM     38  H   UNL d   1      -1.389 -12.152  13.405 +0.01 +0.03    +0.209 HD
DOCKED: ENDBRANCH  36  37
DOCKED: ENDBRANCH  29  36
DOCKED: BRANCH  22  39
DOCKED: ATOM     39  C   UNL d   1      -8.772 -14.735  12.481 +0.15 +0.02    +0.052 C 
DOCKED: BRANCH  39  40
DOCKED: ATOM     40  C   UNL d   1      -8.388 -16.204  12.725 -0.16 +0.06    +0.115 C 
DOCKED: BRANCH  40  41
DOCKED: ATOM     41  C   UNL d   1      -8.536 -17.098  11.512 -0.05 +0.13    +0.139 C 
DOCKED: ATOM     42  O   UNL d   1      -9.656 -17.379  11.110 -0.58 -0.96    -0.650 OA
DOCKED: BRANCH  41  43
DOCKED: ATOM     43  O   UNL d   1      -7.464 -17.525  10.809 +0.00 -0.77    -0.776 OA
DOCKED: ATOM     44  H   UNL d   1      -7.338 -17.312   9.875 +0.01 +0.24    +0.167 HD
DOCKED: ENDBRANCH  41  43
DOCKED: ENDBRANCH  40  41
DOCKED: ENDBRANCH  39  40
DOCKED: ENDBRANCH  22  39
DOCKED: BRANCH  12  45
DOCKED: ATOM     45  C   UNL d   1      -0.472  -7.427  14.428 -0.16 +0.00    +0.004 C 
DOCKED: ATOM     46  C   UNL d   1      -0.467  -6.105  14.580 -0.29 -0.00    +0.012 C 
DOCKED: ENDBRANCH  12  45
DOCKED: BRANCH  17  47
DOCKED: ATOM     47  C   UNL d   1      -5.134 -11.863  18.861 +0.00 +0.00    +0.004 C 
DOCKED: ATOM     48  C   UNL d   1      -4.977 -13.157  19.153 +0.00 +0.00    +0.012 C 
DOCKED: ENDBRANCH  17  47
DOCKED: TORSDOF 12
DOCKED: TER
DOCKED: ENDMDL
________________________________________________________________________________


	BEGINNING GENETIC ALGORITHM DOCKING 26 of 100
Run: 26 Seed: 91466177 921252565 [ Run 26 of 100 GA/GALS ]
Beginning LAMARCKIAN GENETIC ALGORITHM (LGA), with a maximum of 25000000 energy evaluations.

Final-Value: -11.366


	FINAL GENETIC ALGORITHM DOCKED STATE
	_______________________________________________


Detailed state:  trans -1.723 -12.874 9.136 quatxyzw -0.665656 0.003787 0.289720 -0.687714 center 8.781 34.984 -0.736 ntor 12 -134.1198 -0.0098 -89.6313 -63.7196 -73.1537 50.6336 30.3256 -160.8093 -80.0607 41.3301 -172.7396 170.1873
State:	 -1.723 -12.874   9.136  -0.917  0.005  0.399 -93.101   -134.12   -0.01  -89.63  -63.72  -73.15   50.63   30.33 -160.81  -80.06   41.33 -172.74  170.19

DOCKED: MODEL       26
DOCKED: USER    Run = 26
DOCKED: USER    DPF = D:/Protein_go_brrr/autodock/final/AncB/heme_Co/dock.dpf
DOCKED: USER  
DOCKED: USER    Estimated Free Energy of Binding    =   -5.22 kcal/mol  [=(1)+(2)+(3)-(4)]
DOCKED: USER    Estimated Inhibition Constant, Ki   =  149.51 uM (micromolar)  [Temperature = 298.15 K]
DOCKED: USER    
DOCKED: USER    (1) Final Intermolecular Energy     =   -8.80 kcal/mol
DOCKED: USER        vdW + Hbond + desolv Energy     =   -4.94 kcal/mol
DOCKED: USER        Electrostatic Energy            =   -3.86 kcal/mol
DOCKED: USER    (2) Final Total Internal Energy     =   -2.57 kcal/mol
DOCKED: USER    (3) Torsional Free Energy           =   +3.58 kcal/mol
DOCKED: USER    (4) Unbound System's Energy  [=(2)] =   -2.57 kcal/mol
DOCKED: USER    
DOCKED: USER    
DOCKED: USER    NEWDPF move heme_Co_opt.pdbqt
DOCKED: USER    NEWDPF about 8.781000 34.984000 -0.736000
DOCKED: USER    NEWDPF tran0 -1.723237 -12.874335 9.136469
DOCKED: USER    NEWDPF quaternion0 -0.665656 0.003787 0.289720 -0.687714
DOCKED: USER    NEWDPF axisangle0 -0.916904 0.005216 0.399073 -93.101138
DOCKED: USER    NEWDPF quat0 -0.916904 0.005216 0.399073 -93.101138
DOCKED: USER    NEWDPF dihe0 -134.12 -0.01 -89.63 -63.72 -73.15 50.63 30.33 -160.81 -80.06 41.33 -172.74 170.19 
DOCKED: USER  keepresnum = 1 
DOCKED: USER  
DOCKED: REMARK  12 active torsions:
DOCKED: REMARK  status: ('A' for Active; 'I' for Inactive)
DOCKED: REMARK    1  A    between atoms: C_6  and  C_10 
DOCKED: REMARK    2  A    between atoms: C_10  and  C_11 
DOCKED: REMARK    3  A    between atoms: C_11  and  C_12 
DOCKED: REMARK    4  A    between atoms: C_12  and  O_14 
DOCKED: REMARK    5  A    between atoms: C_17  and  C_20 
DOCKED: REMARK    6  A    between atoms: C_24  and  C_27 
DOCKED: REMARK    7  A    between atoms: C_31  and  C_34 
DOCKED: REMARK    8  A    between atoms: C_34  and  C_35 
DOCKED: REMARK    9  A    between atoms: C_35  and  C_36 
DOCKED: REMARK   10  A    between atoms: C_36  and  O_38 
DOCKED: REMARK   11  A    between atoms: FE_43  and  C_44 
DOCKED: REMARK   12  A    between atoms: C_44  and  O_45 
DOCKED: USER                              x       y       z     vdW  Elec       q    Type
DOCKED: USER                           _______ _______ _______ _____ _____    ______ ____
DOCKED: ROOT
DOCKED: ATOM      1  C   UNL d   1      -3.211 -14.443   9.340 -0.02 +0.02    +0.064 A 
DOCKED: ATOM      2  C   UNL d   1      -2.511 -10.376  11.703 -0.17 +0.02    +0.064 C 
DOCKED: ATOM      3  C   UNL d   1       1.504  -9.590   9.235 +0.02 +0.01    +0.064 A 
DOCKED: ATOM      4  C   UNL d   1       0.607 -13.540   6.542 -0.07 +0.01    +0.064 A 
DOCKED: ATOM      5  C   UNL d   1      -3.296 -13.408  10.192 -0.04 +0.02    +0.066 A 
DOCKED: ATOM      6  C   UNL d   1      -4.396 -13.238  11.055 -0.09 -0.01    -0.021 A 
DOCKED: ATOM      7  C   UNL d   1      -4.199 -12.044  11.722 -0.13 -0.01    -0.025 A 
DOCKED: ATOM      8  C   UNL d   1      -2.980 -11.546  11.250 -0.10 +0.02    +0.066 A 
DOCKED: ATOM      9  C   UNL d   1      -5.114 -11.385  12.765 -0.21 +0.02    +0.051 C 
DOCKED: ATOM     10  C   UNL d   1      -1.256  -9.797  11.295 -0.15 +0.01    +0.066 A 
DOCKED: ATOM     11  C   UNL d   1      -0.643  -8.645  11.836 -0.20 -0.00    -0.021 A 
DOCKED: ATOM     12  C   UNL d   1       0.528  -8.441  11.100 -0.18 +0.00    +0.000 A 
DOCKED: ATOM     13  C   UNL d   1       0.550  -9.487  10.177 +0.04 +0.01    +0.070 A 
DOCKED: ATOM     14  C   UNL d   1      -1.112  -7.865  13.036 -0.24 +0.01    +0.052 C 
DOCKED: ATOM     15  C   UNL d   1       1.650 -10.569   8.177 -0.10 +0.01    +0.066 A 
DOCKED: ATOM     16  C   UNL d   1       2.578 -10.535   7.146 -0.12 -0.00    -0.021 A 
DOCKED: ATOM     17  C   UNL d   1       2.322 -11.671   6.365 -0.09 +0.00    +0.000 A 
DOCKED: ATOM     18  C   UNL d   1       1.264 -12.320   6.993 -0.07 +0.01    +0.070 A 
DOCKED: ATOM     19  C   UNL d   1       3.630  -9.466   6.948 -0.13 +0.01    +0.052 C 
DOCKED: ATOM     20  C   UNL d   1      -0.477 -14.142   7.088 -0.05 +0.02    +0.066 A 
DOCKED: ATOM     21  C   UNL d   1      -1.041 -15.294   6.542 -0.04 -0.01    -0.025 A 
DOCKED: ATOM     22  C   UNL d   1      -2.126 -15.594   7.345 -0.02 -0.01    -0.021 A 
DOCKED: ATOM     23  C   UNL d   1      -2.178 -14.596   8.341 -0.02 +0.02    +0.066 A 
DOCKED: ATOM     24  C   UNL d   1      -0.581 -16.060   5.305 -0.05 +0.02    +0.051 C 
DOCKED: ATOM     25  N   UNL d   1      -2.395 -12.373  10.306 -0.02 -0.06    -0.248 N 
DOCKED: ATOM     26  N   UNL d   1      -0.500 -10.337  10.333 -0.06 -0.04    -0.248 N 
DOCKED: ATOM     27  N   UNL d   1       0.870 -11.620   8.051 -0.05 -0.04    -0.248 N 
DOCKED: ATOM     28  N   UNL d   1      -1.183 -13.714   8.188 -0.02 -0.06    -0.248 N 
DOCKED: ATOM     29 FE   UNL d   1      -0.666 -11.977   9.110 -0.02 +0.00    +0.000 Fe
DOCKED: ENDROOT
DOCKED: BRANCH   6  30
DOCKED: ATOM     30  C   UNL d   1      -5.616 -14.147  11.164 -0.15 +0.02    +0.052 C 
DOCKED: BRANCH  30  31
DOCKED: ATOM     31  C   UNL d   1      -6.696 -13.717  10.171 -0.22 +0.08    +0.115 C 
DOCKED: BRANCH  31  32
DOCKED: ATOM     32  C   UNL d   1      -6.676 -14.543   8.903 -0.20 +0.15    +0.139 C 
DOCKED: ATOM     33  O   UNL d   1      -6.130 -14.099   7.905 -0.05 -0.67    -0.650 OA
DOCKED: BRANCH  32  34
DOCKED: ATOM     34  O   UNL d   1      -7.205 -15.788   8.849 -0.30 -1.49    -0.776 OA
DOCKED: ATOM     35  H   UNL d   1      -6.792 -16.535   8.394 +0.03 +0.31    +0.167 HD
DOCKED: ENDBRANCH  32  34
DOCKED: ENDBRANCH  31  32
DOCKED: ENDBRANCH  30  31
DOCKED: ENDBRANCH   6  30
DOCKED: BRANCH  29  36
DOCKED: ATOM     36  C   UNL d   1      -1.933 -10.896   7.836 -0.25 +0.04    +0.190 C 
DOCKED: BRANCH  36  37
DOCKED: ATOM     37  O   UNL d   1      -2.590 -10.959   6.603 -0.24 -0.09    -0.399 OA
DOCKED: ATOM     38  H   UNL d   1      -2.149 -10.261   6.042 -0.09 -0.00    +0.209 HD
DOCKED: ENDBRANCH  36  37
DOCKED: ENDBRANCH  29  36
DOCKED: BRANCH  22  39
DOCKED: ATOM     39  C   UNL d   1      -3.095 -16.740   7.123 -0.01 +0.03    +0.052 C 
DOCKED: BRANCH  39  40
DOCKED: ATOM     40  C   UNL d   1      -4.249 -16.305   6.204 -0.07 +0.12    +0.115 C 
DOCKED: BRANCH  40  41
DOCKED: ATOM     41  C   UNL d   1      -5.589 -16.918   6.552 -0.02 +0.22    +0.139 C 
DOCKED: ATOM     42  O   UNL d   1      -5.622 -17.964   7.186 +0.01 -0.73    -0.650 OA
DOCKED: BRANCH  41  43
DOCKED: ATOM     43  O   UNL d   1      -6.753 -16.298   6.256 -0.15 -2.25    -0.776 OA
DOCKED: ATOM     44  H   UNL d   1      -7.135 -15.614   6.821 +0.03 +0.43    +0.167 HD
DOCKED: ENDBRANCH  41  43
DOCKED: ENDBRANCH  40  41
DOCKED: ENDBRANCH  39  40
DOCKED: ENDBRANCH  22  39
DOCKED: BRANCH  12  45
DOCKED: ATOM     45  C   UNL d   1       1.633  -7.396  11.176 -0.20 +0.00    +0.004 C 
DOCKED: ATOM     46  C   UNL d   1       1.632  -6.109  10.837 -0.33 +0.00    +0.012 C 
DOCKED: ENDBRANCH  12  45
DOCKED: BRANCH  17  47
DOCKED: ATOM     47  C   UNL d   1       2.964 -12.119   5.093 -0.10 +0.00    +0.004 C 
DOCKED: ATOM     48  C   UNL d   1       2.473 -11.842   3.882 -0.22 +0.00    +0.012 C 
DOCKED: ENDBRANCH  17  47
DOCKED: TORSDOF 12
DOCKED: TER
DOCKED: ENDMDL
________________________________________________________________________________


	BEGINNING GENETIC ALGORITHM DOCKING 27 of 100
Run: 27 Seed: 1700241920 1206574069 [ Run 27 of 100 GA/GALS ]
Beginning LAMARCKIAN GENETIC ALGORITHM (LGA), with a maximum of 25000000 energy evaluations.

Final-Value: -10.823


	FINAL GENETIC ALGORITHM DOCKED STATE
	_______________________________________________


Detailed state:  trans -0.500 -15.597 5.675 quatxyzw -0.791101 0.103676 -0.035146 -0.601810 center 8.781 34.984 -0.736 ntor 12 -2.1797 90.5787 50.0170 -82.8315 -91.3873 72.9093 -21.7744 12.5950 52.6341 69.5485 12.8404 164.7838
State:	 -0.500 -15.597   5.675  -0.991  0.130 -0.044 -106.001     -2.18   90.58   50.02  -82.83  -91.39   72.91  -21.77   12.60   52.63   69.55   12.84  164.78

DOCKED: MODEL       27
DOCKED: USER    Run = 27
DOCKED: USER    DPF = D:/Protein_go_brrr/autodock/final/AncB/heme_Co/dock.dpf
DOCKED: USER  
DOCKED: USER    Estimated Free Energy of Binding    =   -5.54 kcal/mol  [=(1)+(2)+(3)-(4)]
DOCKED: USER    Estimated Inhibition Constant, Ki   =   87.31 uM (micromolar)  [Temperature = 298.15 K]
DOCKED: USER    
DOCKED: USER    (1) Final Intermolecular Energy     =   -9.12 kcal/mol
DOCKED: USER        vdW + Hbond + desolv Energy     =   -3.82 kcal/mol
DOCKED: USER        Electrostatic Energy            =   -5.30 kcal/mol
DOCKED: USER    (2) Final Total Internal Energy     =   -1.71 kcal/mol
DOCKED: USER    (3) Torsional Free Energy           =   +3.58 kcal/mol
DOCKED: USER    (4) Unbound System's Energy  [=(2)] =   -1.71 kcal/mol
DOCKED: USER    
DOCKED: USER    
DOCKED: USER    NEWDPF move heme_Co_opt.pdbqt
DOCKED: USER    NEWDPF about 8.781000 34.984000 -0.736000
DOCKED: USER    NEWDPF tran0 -0.499882 -15.597022 5.674565
DOCKED: USER    NEWDPF quaternion0 -0.791101 0.103676 -0.035146 -0.601810
DOCKED: USER    NEWDPF axisangle0 -0.990561 0.129815 -0.044007 -106.000699
DOCKED: USER    NEWDPF quat0 -0.990561 0.129815 -0.044007 -106.000699
DOCKED: USER    NEWDPF dihe0 -2.18 90.58 50.02 -82.83 -91.39 72.91 -21.77 12.60 52.63 69.55 12.84 164.78 
DOCKED: USER  keepresnum = 1 
DOCKED: USER  
DOCKED: REMARK  12 active torsions:
DOCKED: REMARK  status: ('A' for Active; 'I' for Inactive)
DOCKED: REMARK    1  A    between atoms: C_6  and  C_10 
DOCKED: REMARK    2  A    between atoms: C_10  and  C_11 
DOCKED: REMARK    3  A    between atoms: C_11  and  C_12 
DOCKED: REMARK    4  A    between atoms: C_12  and  O_14 
DOCKED: REMARK    5  A    between atoms: C_17  and  C_20 
DOCKED: REMARK    6  A    between atoms: C_24  and  C_27 
DOCKED: REMARK    7  A    between atoms: C_31  and  C_34 
DOCKED: REMARK    8  A    between atoms: C_34  and  C_35 
DOCKED: REMARK    9  A    between atoms: C_35  and  C_36 
DOCKED: REMARK   10  A    between atoms: C_36  and  O_38 
DOCKED: REMARK   11  A    between atoms: FE_43  and  C_44 
DOCKED: REMARK   12  A    between atoms: C_44  and  O_45 
DOCKED: USER                              x       y       z     vdW  Elec       q    Type
DOCKED: USER                           _______ _______ _______ _____ _____    ______ ____
DOCKED: ROOT
DOCKED: ATOM      1  C   UNL d   1      -2.603 -16.128   5.562 -0.06 +0.04    +0.064 A 
DOCKED: ATOM      2  C   UNL d   1      -0.376 -12.182   7.007 -0.18 +0.01    +0.064 C 
DOCKED: ATOM      3  C   UNL d   1       3.860 -14.312   6.417 -0.00 +0.00    +0.064 A 
DOCKED: ATOM      4  C   UNL d   1       1.625 -18.219   4.573 +0.00 +0.01    +0.064 A 
DOCKED: ATOM      5  C   UNL d   1      -2.307 -14.906   6.034 -0.04 +0.03    +0.066 A 
DOCKED: ATOM      6  C   UNL d   1      -3.300 -13.935   6.271 -0.14 -0.01    -0.021 A 
DOCKED: ATOM      7  C   UNL d   1      -2.646 -12.785   6.669 -0.15 -0.01    -0.025 A 
DOCKED: ATOM      8  C   UNL d   1      -1.285 -13.108   6.673 -0.11 +0.02    +0.066 A 
DOCKED: ATOM      9  C   UNL d   1      -3.266 -11.427   7.033 -0.33 +0.02    +0.051 C 
DOCKED: ATOM     10  C   UNL d   1       1.043 -12.429   7.065 -0.08 +0.01    +0.066 A 
DOCKED: ATOM     11  C   UNL d   1       2.034 -11.544   7.542 -0.08 -0.00    -0.021 A 
DOCKED: ATOM     12  C   UNL d   1       3.260 -12.192   7.362 -0.03 +0.00    +0.000 A 
DOCKED: ATOM     13  C   UNL d   1       2.925 -13.425   6.802 -0.01 +0.01    +0.070 A 
DOCKED: ATOM     14  C   UNL d   1       1.796 -10.213   8.208 -0.11 +0.01    +0.052 C 
DOCKED: ATOM     15  C   UNL d   1       3.696 -15.603   5.779 +0.00 +0.01    +0.066 A 
DOCKED: ATOM     16  C   UNL d   1       4.708 -16.407   5.274 +0.00 -0.00    -0.021 A 
DOCKED: ATOM     17  C   UNL d   1       4.068 -17.533   4.739 +0.00 +0.00    +0.000 A 
DOCKED: ATOM     18  C   UNL d   1       2.712 -17.335   4.975 +0.00 +0.01    +0.070 A 
DOCKED: ATOM     19  C   UNL d   1       6.186 -16.086   5.316 +0.00 +0.00    +0.052 C 
DOCKED: ATOM     20  C   UNL d   1       0.295 -18.006   4.714 +0.00 +0.02    +0.066 A 
DOCKED: ATOM     21  C   UNL d   1      -0.656 -18.915   4.254 +0.00 -0.01    -0.025 A 
DOCKED: ATOM     22  C   UNL d   1      -1.884 -18.352   4.552 -0.00 -0.01    -0.021 A 
DOCKED: ATOM     23  C   UNL d   1      -1.619 -17.113   5.173 -0.02 +0.03    +0.066 A 
DOCKED: ATOM     24  C   UNL d   1      -0.409 -20.245   3.547 +0.00 +0.01    +0.051 C 
DOCKED: ATOM     25  N   UNL d   1      -1.046 -14.416   6.290 -0.06 -0.08    -0.248 N 
DOCKED: ATOM     26  N   UNL d   1       1.581 -13.589   6.676 -0.01 -0.04    -0.248 N 
DOCKED: ATOM     27  N   UNL d   1       2.525 -16.162   5.569 +0.00 -0.03    -0.248 N 
DOCKED: ATOM     28  N   UNL d   1      -0.302 -16.899   5.271 -0.01 -0.07    -0.248 N 
DOCKED: ATOM     29 FE   UNL d   1       0.844 -15.344   5.907 -0.01 +0.00    +0.000 Fe
DOCKED: ENDROOT
DOCKED: BRANCH   6  30
DOCKED: ATOM     30  C   UNL d   1      -4.799 -14.094   6.043 -0.22 +0.05    +0.052 C 
DOCKED: BRANCH  30  31
DOCKED: ATOM     31  C   UNL d   1      -5.505 -14.462   7.348 -0.19 +0.12    +0.115 C 
DOCKED: BRANCH  31  32
DOCKED: ATOM     32  C   UNL d   1      -6.404 -15.670   7.197 -0.16 +0.25    +0.139 C 
DOCKED: ATOM     33  O   UNL d   1      -7.388 -15.780   7.913 -0.45 -1.66    -0.650 OA
DOCKED: BRANCH  32  34
DOCKED: ATOM     34  O   UNL d   1      -6.181 -16.618   6.257 -0.39 -1.77    -0.776 OA
DOCKED: ATOM     35  H   UNL d   1      -5.503 -16.553   5.570 +0.03 +0.38    +0.167 HD
DOCKED: ENDBRANCH  32  34
DOCKED: ENDBRANCH  31  32
DOCKED: ENDBRANCH  30  31
DOCKED: ENDBRANCH   6  30
DOCKED: BRANCH  29  36
DOCKED: ATOM     36  C   UNL d   1       0.759 -14.472   4.003 -0.08 +0.06    +0.190 C 
DOCKED: BRANCH  36  37
DOCKED: ATOM     37  O   UNL d   1       0.216 -14.637   2.724 -0.57 -0.18    -0.399 OA
DOCKED: ATOM     38  H   UNL d   1       0.019 -15.613   2.654 +0.06 +0.08    +0.209 HD
DOCKED: ENDBRANCH  36  37
DOCKED: ENDBRANCH  29  36
DOCKED: BRANCH  22  39
DOCKED: ATOM     39  C   UNL d   1      -3.234 -18.947   4.197 -0.01 +0.03    +0.052 C 
DOCKED: BRANCH  39  40
DOCKED: ATOM     40  C   UNL d   1      -3.739 -18.386   2.858 -0.10 +0.11    +0.115 C 
DOCKED: BRANCH  40  41
DOCKED: ATOM     41  C   UNL d   1      -5.011 -17.571   2.962 -0.10 +0.25    +0.139 C 
DOCKED: ATOM     42  O   UNL d   1      -5.212 -16.671   2.159 -0.06 -1.49    -0.650 OA
DOCKED: BRANCH  41  43
DOCKED: ATOM     43  O   UNL d   1      -5.972 -17.866   3.865 -0.04 -1.83    -0.776 OA
DOCKED: ATOM     44  H   UNL d   1      -5.796 -17.917   4.813 +0.02 +0.32    +0.167 HD
DOCKED: ENDBRANCH  41  43
DOCKED: ENDBRANCH  40  41
DOCKED: ENDBRANCH  39  40
DOCKED: ENDBRANCH  22  39
DOCKED: BRANCH  12  45
DOCKED: ATOM     45  C   UNL d   1       4.698 -11.797   7.670 -0.05 +0.00    +0.004 C 
DOCKED: ATOM     46  C   UNL d   1       5.607 -11.181   6.919 -0.09 +0.00    +0.012 C 
DOCKED: ENDBRANCH  12  45
DOCKED: BRANCH  17  47
DOCKED: ATOM     47  C   UNL d   1       4.646 -18.701   4.009 +0.00 +0.00    +0.004 C 
DOCKED: ATOM     48  C   UNL d   1       4.410 -18.954   2.719 +0.00 +0.00    +0.012 C 
DOCKED: ENDBRANCH  17  47
DOCKED: TORSDOF 12
DOCKED: TER
DOCKED: ENDMDL
________________________________________________________________________________


	BEGINNING GENETIC ALGORITHM DOCKING 28 of 100
Run: 28 Seed: 1938872416 601254823 [ Run 28 of 100 GA/GALS ]
Beginning LAMARCKIAN GENETIC ALGORITHM (LGA), with a maximum of 25000000 energy evaluations.

Final-Value: -11.659


	FINAL GENETIC ALGORITHM DOCKED STATE
	_______________________________________________


Detailed state:  trans -4.726 -10.814 12.575 quatxyzw 0.704492 0.164827 0.659321 -0.204497 center 8.781 34.984 -0.736 ntor 12 -12.6077 94.4288 34.3175 62.3845 137.1269 126.3345 -153.1808 -36.2328 10.1583 52.6421 38.2986 -178.4555
State:	 -4.726 -10.814  12.575   0.720  0.168  0.674 -156.400    -12.61   94.43   34.32   62.38  137.13  126.33 -153.18  -36.23   10.16   52.64   38.30 -178.46

DOCKED: MODEL       28
DOCKED: USER    Run = 28
DOCKED: USER    DPF = D:/Protein_go_brrr/autodock/final/AncB/heme_Co/dock.dpf
DOCKED: USER  
DOCKED: USER    Estimated Free Energy of Binding    =   -7.48 kcal/mol  [=(1)+(2)+(3)-(4)]
DOCKED: USER    Estimated Inhibition Constant, Ki   =    3.27 uM (micromolar)  [Temperature = 298.15 K]
DOCKED: USER    
DOCKED: USER    (1) Final Intermolecular Energy     =  -11.06 kcal/mol
DOCKED: USER        vdW + Hbond + desolv Energy     =   -8.68 kcal/mol
DOCKED: USER        Electrostatic Energy            =   -2.38 kcal/mol
DOCKED: USER    (2) Final Total Internal Energy     =   -0.60 kcal/mol
DOCKED: USER    (3) Torsional Free Energy           =   +3.58 kcal/mol
DOCKED: USER    (4) Unbound System's Energy  [=(2)] =   -0.60 kcal/mol
DOCKED: USER    
DOCKED: USER    
DOCKED: USER    NEWDPF move heme_Co_opt.pdbqt
DOCKED: USER    NEWDPF about 8.781000 34.984000 -0.736000
DOCKED: USER    NEWDPF tran0 -4.726197 -10.813719 12.574546
DOCKED: USER    NEWDPF quaternion0 0.704492 0.164827 0.659321 -0.204497
DOCKED: USER    NEWDPF axisangle0 0.719701 0.168386 0.673555 -156.399843
DOCKED: USER    NEWDPF quat0 0.719701 0.168386 0.673555 -156.399843
DOCKED: USER    NEWDPF dihe0 -12.61 94.43 34.32 62.38 137.13 126.33 -153.18 -36.23 10.16 52.64 38.30 -178.46 
DOCKED: USER  keepresnum = 1 
DOCKED: USER  
DOCKED: REMARK  12 active torsions:
DOCKED: REMARK  status: ('A' for Active; 'I' for Inactive)
DOCKED: REMARK    1  A    between atoms: C_6  and  C_10 
DOCKED: REMARK    2  A    between atoms: C_10  and  C_11 
DOCKED: REMARK    3  A    between atoms: C_11  and  C_12 
DOCKED: REMARK    4  A    between atoms: C_12  and  O_14 
DOCKED: REMARK    5  A    between atoms: C_17  and  C_20 
DOCKED: REMARK    6  A    between atoms: C_24  and  C_27 
DOCKED: REMARK    7  A    between atoms: C_31  and  C_34 
DOCKED: REMARK    8  A    between atoms: C_34  and  C_35 
DOCKED: REMARK    9  A    between atoms: C_35  and  C_36 
DOCKED: REMARK   10  A    between atoms: C_36  and  O_38 
DOCKED: REMARK   11  A    between atoms: FE_43  and  C_44 
DOCKED: REMARK   12  A    between atoms: C_44  and  O_45 
DOCKED: USER                              x       y       z     vdW  Elec       q    Type
DOCKED: USER                           _______ _______ _______ _____ _____    ______ ____
DOCKED: ROOT
DOCKED: ATOM      1  C   UNL d   1      -5.739 -12.155  11.200 -0.21 +0.03    +0.064 A 
DOCKED: ATOM      2  C   UNL d   1      -1.822  -9.494  10.764 -0.28 +0.01    +0.064 C 
DOCKED: ATOM      3  C   UNL d   1      -2.576  -7.611  15.090 -0.16 +0.01    +0.064 A 
DOCKED: ATOM      4  C   UNL d   1      -6.362 -10.599  15.718 -0.11 +0.04    +0.064 A 
DOCKED: ATOM      5  C   UNL d   1      -4.634 -11.540  10.748 -0.21 +0.03    +0.066 A 
DOCKED: ATOM      6  C   UNL d   1      -4.041 -11.878   9.516 -0.19 -0.01    -0.021 A 
DOCKED: ATOM      7  C   UNL d   1      -2.892 -11.119   9.405 -0.22 -0.01    -0.025 A 
DOCKED: ATOM      8  C   UNL d   1      -2.842 -10.339  10.566 -0.23 +0.02    +0.066 A 
DOCKED: ATOM      9  C   UNL d   1      -1.870 -11.119   8.258 -0.28 +0.01    +0.051 C 
DOCKED: ATOM     10  C   UNL d   1      -1.700  -8.633  11.914 -0.21 +0.01    +0.066 A 
DOCKED: ATOM     11  C   UNL d   1      -0.731  -7.626  12.114 -0.25 -0.00    -0.021 A 
DOCKED: ATOM     12  C   UNL d   1      -0.976  -7.090  13.382 -0.26 +0.00    +0.000 A 
DOCKED: ATOM     13  C   UNL d   1      -2.081  -7.799  13.854 -0.15 +0.01    +0.070 A 
DOCKED: ATOM     14  C   UNL d   1       0.291  -7.159  11.110 -0.32 +0.00    +0.052 C 
DOCKED: ATOM     15  C   UNL d   1      -3.671  -8.288  15.756 -0.14 +0.01    +0.066 A 
DOCKED: ATOM     16  C   UNL d   1      -4.039  -8.147  17.086 -0.10 -0.00    -0.021 A 
DOCKED: ATOM     17  C   UNL d   1      -5.129  -9.009  17.273 -0.10 +0.00    +0.000 A 
DOCKED: ATOM     18  C   UNL d   1      -5.352  -9.597  16.032 -0.13 +0.03    +0.070 A 
DOCKED: ATOM     19  C   UNL d   1      -3.367  -7.237  18.090 -0.06 -0.00    +0.052 C 
DOCKED: ATOM     20  C   UNL d   1      -6.542 -11.248  14.542 -0.18 +0.04    +0.066 A 
DOCKED: ATOM     21  C   UNL d   1      -7.526 -12.219  14.372 -0.26 -0.01    -0.025 A 
DOCKED: ATOM     22  C   UNL d   1      -7.390 -12.665  13.070 -0.33 -0.01    -0.021 A 
DOCKED: ATOM     23  C   UNL d   1      -6.312 -11.946  12.510 -0.27 +0.04    +0.066 A 
DOCKED: ATOM     24  C   UNL d   1      -8.536 -12.713  15.405 -0.21 +0.02    +0.051 C 
DOCKED: ATOM     25  N   UNL d   1      -3.912 -10.575  11.413 -0.14 -0.09    -0.248 N 
DOCKED: ATOM     26  N   UNL d   1      -2.552  -8.692  12.943 -0.09 -0.06    -0.248 N 
DOCKED: ATOM     27  N   UNL d   1      -4.446  -9.167  15.161 -0.10 -0.11    -0.248 N 
DOCKED: ATOM     28  N   UNL d   1      -5.795 -11.089  13.398 -0.13 -0.16    -0.248 N 
DOCKED: ATOM     29 FE   UNL d   1      -4.198  -9.831  13.398 -0.05 +0.00    +0.000 Fe
DOCKED: ENDROOT
DOCKED: BRANCH   6  30
DOCKED: ATOM     30  C   UNL d   1      -4.522 -12.944   8.537 -0.19 +0.03    +0.052 C 
DOCKED: BRANCH  30  31
DOCKED: ATOM     31  C   UNL d   1      -4.791 -12.330   7.164 -0.30 +0.07    +0.115 C 
DOCKED: BRANCH  31  32
DOCKED: ATOM     32  C   UNL d   1      -5.458 -13.304   6.217 -0.28 +0.14    +0.139 C 
DOCKED: ATOM     33  O   UNL d   1      -6.653 -13.534   6.334 -0.06 -0.92    -0.650 OA
DOCKED: BRANCH  32  34
DOCKED: ATOM     34  O   UNL d   1      -4.783 -13.897   5.205 +0.06 -0.78    -0.776 OA
DOCKED: ATOM     35  H   UNL d   1      -3.931 -13.590   4.866 -0.52 +0.07    +0.167 HD
DOCKED: ENDBRANCH  32  34
DOCKED: ENDBRANCH  31  32
DOCKED: ENDBRANCH  30  31
DOCKED: ENDBRANCH   6  30
DOCKED: BRANCH  29  36
DOCKED: ATOM     36  C   UNL d   1      -2.944 -11.384  14.039 -0.04 +0.04    +0.190 C 
DOCKED: BRANCH  36  37
DOCKED: ATOM     37  O   UNL d   1      -2.522 -12.678  13.721 +0.00 -0.08    -0.399 OA
DOCKED: ATOM     38  H   UNL d   1      -3.217 -13.028  13.096 +0.02 +0.05    +0.209 HD
DOCKED: ENDBRANCH  36  37
DOCKED: ENDBRANCH  29  36
DOCKED: BRANCH  22  39
DOCKED: ATOM     39  C   UNL d   1      -8.210 -13.767  12.427 -0.23 +0.03    +0.052 C 
DOCKED: BRANCH  39  40
DOCKED: ATOM     40  C   UNL d   1      -7.727 -15.149  12.899 -0.18 +0.05    +0.115 C 
DOCKED: BRANCH  40  41
DOCKED: ATOM     41  C   UNL d   1      -7.533 -16.157  11.786 -0.12 +0.08    +0.139 C 
DOCKED: ATOM     42  O   UNL d   1      -6.403 -16.396  11.386 +0.02 -0.38    -0.650 OA
DOCKED: BRANCH  41  43
DOCKED: ATOM     43  O   UNL d   1      -8.568 -16.865  11.282 -0.06 -0.82    -0.776 OA
DOCKED: ATOM     44  H   UNL d   1      -9.435 -16.473  11.118 -0.56 +0.21    +0.167 HD
DOCKED: ENDBRANCH  41  43
DOCKED: ENDBRANCH  40  41
DOCKED: ENDBRANCH  39  40
DOCKED: ENDBRANCH  22  39
DOCKED: BRANCH  12  45
DOCKED: ATOM     45  C   UNL d   1      -0.310  -5.984  14.188 -0.33 -0.00    +0.004 C 
DOCKED: ATOM     46  C   UNL d   1      -0.053  -4.717  13.873 -0.39 -0.00    +0.012 C 
DOCKED: ENDBRANCH  12  45
DOCKED: BRANCH  17  47
DOCKED: ATOM     47  C   UNL d   1      -5.896  -9.322  18.516 -0.05 +0.00    +0.004 C 
DOCKED: ATOM     48  C   UNL d   1      -7.187  -9.024  18.680 -0.09 +0.00    +0.012 C 
DOCKED: ENDBRANCH  17  47
DOCKED: TORSDOF 12
DOCKED: TER
DOCKED: ENDMDL
________________________________________________________________________________


	BEGINNING GENETIC ALGORITHM DOCKING 29 of 100
Run: 29 Seed: 776469861 83158082 [ Run 29 of 100 GA/GALS ]
Beginning LAMARCKIAN GENETIC ALGORITHM (LGA), with a maximum of 25000000 energy evaluations.

Final-Value: -13.018


	FINAL GENETIC ALGORITHM DOCKED STATE
	_______________________________________________


Detailed state:  trans -5.174 -11.172 12.629 quatxyzw 0.712484 0.162670 0.652467 -0.200479 center 8.781 34.984 -0.736 ntor 12 -15.3735 96.1164 84.9672 61.7612 132.7783 143.4345 146.4820 -28.3569 -20.3168 60.0181 -120.8663 -172.2239
State:	 -5.174 -11.172  12.629   0.727  0.166  0.666 -156.870    -15.37   96.12   84.97   61.76  132.78  143.43  146.48  -28.36  -20.32   60.02 -120.87 -172.22

DOCKED: MODEL       29
DOCKED: USER    Run = 29
DOCKED: USER    DPF = D:/Protein_go_brrr/autodock/final/AncB/heme_Co/dock.dpf
DOCKED: USER  
DOCKED: USER    Estimated Free Energy of Binding    =   -7.55 kcal/mol  [=(1)+(2)+(3)-(4)]
DOCKED: USER    Estimated Inhibition Constant, Ki   =    2.93 uM (micromolar)  [Temperature = 298.15 K]
DOCKED: USER    
DOCKED: USER    (1) Final Intermolecular Energy     =  -11.13 kcal/mol
DOCKED: USER        vdW + Hbond + desolv Energy     =   -7.96 kcal/mol
DOCKED: USER        Electrostatic Energy            =   -3.17 kcal/mol
DOCKED: USER    (2) Final Total Internal Energy     =   -1.89 kcal/mol
DOCKED: USER    (3) Torsional Free Energy           =   +3.58 kcal/mol
DOCKED: USER    (4) Unbound System's Energy  [=(2)] =   -1.89 kcal/mol
DOCKED: USER    
DOCKED: USER    
DOCKED: USER    NEWDPF move heme_Co_opt.pdbqt
DOCKED: USER    NEWDPF about 8.781000 34.984000 -0.736000
DOCKED: USER    NEWDPF tran0 -5.174370 -11.171599 12.628727
DOCKED: USER    NEWDPF quaternion0 0.712484 0.162670 0.652467 -0.200479
DOCKED: USER    NEWDPF axisangle0 0.727249 0.166041 0.665988 -156.870024
DOCKED: USER    NEWDPF quat0 0.727249 0.166041 0.665988 -156.870024
DOCKED: USER    NEWDPF dihe0 -15.37 96.12 84.97 61.76 132.78 143.43 146.48 -28.36 -20.32 60.02 -120.87 -172.22 
DOCKED: USER  keepresnum = 1 
DOCKED: USER  
DOCKED: REMARK  12 active torsions:
DOCKED: REMARK  status: ('A' for Active; 'I' for Inactive)
DOCKED: REMARK    1  A    between atoms: C_6  and  C_10 
DOCKED: REMARK    2  A    between atoms: C_10  and  C_11 
DOCKED: REMARK    3  A    between atoms: C_11  and  C_12 
DOCKED: REMARK    4  A    between atoms: C_12  and  O_14 
DOCKED: REMARK    5  A    between atoms: C_17  and  C_20 
DOCKED: REMARK    6  A    between atoms: C_24  and  C_27 
DOCKED: REMARK    7  A    between atoms: C_31  and  C_34 
DOCKED: REMARK    8  A    between atoms: C_34  and  C_35 
DOCKED: REMARK    9  A    between atoms: C_35  and  C_36 
DOCKED: REMARK   10  A    between atoms: C_36  and  O_38 
DOCKED: REMARK   11  A    between atoms: FE_43  and  C_44 
DOCKED: REMARK   12  A    between atoms: C_44  and  O_45 
DOCKED: USER                              x       y       z     vdW  Elec       q    Type
DOCKED: USER                           _______ _______ _______ _____ _____    ______ ____
DOCKED: ROOT
DOCKED: ATOM      1  C   UNL d   1      -6.220 -12.496  11.262 -0.22 +0.04    +0.064 A 
DOCKED: ATOM      2  C   UNL d   1      -2.304  -9.844  10.772 -0.27 +0.01    +0.064 C 
DOCKED: ATOM      3  C   UNL d   1      -2.962  -7.999  15.130 -0.15 +0.01    +0.064 A 
DOCKED: ATOM      4  C   UNL d   1      -6.745 -10.982  15.807 -0.14 +0.03    +0.064 A 
DOCKED: ATOM      5  C   UNL d   1      -5.122 -11.880  10.794 -0.21 +0.03    +0.066 A 
DOCKED: ATOM      6  C   UNL d   1      -4.556 -12.209   9.547 -0.20 -0.01    -0.021 A 
DOCKED: ATOM      7  C   UNL d   1      -3.407 -11.453   9.420 -0.20 -0.01    -0.025 A 
DOCKED: ATOM      8  C   UNL d   1      -3.331 -10.684  10.586 -0.21 +0.02    +0.066 A 
DOCKED: ATOM      9  C   UNL d   1      -2.409 -11.444   8.252 -0.27 +0.01    +0.051 C 
DOCKED: ATOM     10  C   UNL d   1      -2.155  -8.994  11.926 -0.18 +0.02    +0.066 A 
DOCKED: ATOM     11  C   UNL d   1      -1.179  -7.992  12.116 -0.23 -0.00    -0.021 A 
DOCKED: ATOM     12  C   UNL d   1      -1.396  -7.468  13.393 -0.22 +0.00    +0.000 A 
DOCKED: ATOM     13  C   UNL d   1      -2.494  -8.177  13.882 -0.16 +0.01    +0.070 A 
DOCKED: ATOM     14  C   UNL d   1      -0.177  -7.518  11.095 -0.30 +0.00    +0.052 C 
DOCKED: ATOM     15  C   UNL d   1      -4.046  -8.679  15.811 -0.13 +0.02    +0.066 A 
DOCKED: ATOM     16  C   UNL d   1      -4.386  -8.550  17.150 -0.09 -0.00    -0.021 A 
DOCKED: ATOM     17  C   UNL d   1      -5.475  -9.410  17.351 -0.09 +0.00    +0.000 A 
DOCKED: ATOM     18  C   UNL d   1      -5.725  -9.986  16.110 -0.10 +0.04    +0.070 A 
DOCKED: ATOM     19  C   UNL d   1      -3.690  -7.652  18.149 -0.05 -0.00    +0.052 C 
DOCKED: ATOM     20  C   UNL d   1      -6.951 -11.619  14.629 -0.21 +0.04    +0.066 A 
DOCKED: ATOM     21  C   UNL d   1      -7.941 -12.585  14.471 -0.26 -0.01    -0.025 A 
DOCKED: ATOM     22  C   UNL d   1      -7.833 -13.019  13.162 -0.32 -0.01    -0.021 A 
DOCKED: ATOM     23  C   UNL d   1      -6.765 -12.299  12.586 -0.29 +0.04    +0.066 A 
DOCKED: ATOM     24  C   UNL d   1      -8.931 -13.086  15.519 -0.17 +0.02    +0.051 C 
DOCKED: ATOM     25  N   UNL d   1      -4.383 -10.924  11.452 -0.14 -0.10    -0.248 N 
DOCKED: ATOM     26  N   UNL d   1      -2.986  -9.060  12.972 -0.05 -0.08    -0.248 N 
DOCKED: ATOM     27  N   UNL d   1      -4.836  -9.550  15.224 -0.11 -0.14    -0.248 N 
DOCKED: ATOM     28  N   UNL d   1      -6.227 -11.452  13.472 -0.15 -0.15    -0.248 N 
DOCKED: ATOM     29 FE   UNL d   1      -4.626 -10.198  13.450 -0.05 +0.00    +0.000 Fe
DOCKED: ENDROOT
DOCKED: BRANCH   6  30
DOCKED: ATOM     30  C   UNL d   1      -5.060 -13.264   8.568 -0.22 +0.03    +0.052 C 
DOCKED: BRANCH  30  31
DOCKED: ATOM     31  C   UNL d   1      -5.606 -14.477   9.320 -0.16 +0.08    +0.115 C 
DOCKED: BRANCH  31  32
DOCKED: ATOM     32  C   UNL d   1      -6.577 -15.285   8.486 -0.19 +0.19    +0.139 C 
DOCKED: ATOM     33  O   UNL d   1      -6.604 -15.127   7.274 -0.27 -1.14    -0.650 OA
DOCKED: BRANCH  32  34
DOCKED: ATOM     34  O   UNL d   1      -7.390 -16.218   9.033 -0.25 -1.69    -0.776 OA
DOCKED: ATOM     35  H   UNL d   1      -7.241 -16.630   9.896 -0.01 +0.24    +0.167 HD
DOCKED: ENDBRANCH  32  34
DOCKED: ENDBRANCH  31  32
DOCKED: ENDBRANCH  30  31
DOCKED: ENDBRANCH   6  30
DOCKED: BRANCH  29  36
DOCKED: ATOM     36  C   UNL d   1      -3.365 -11.761  14.051 -0.04 +0.05    +0.190 C 
DOCKED: BRANCH  36  37
DOCKED: ATOM     37  O   UNL d   1      -2.759 -12.939  13.602 +0.00 -0.08    -0.399 OA
DOCKED: ATOM     38  H   UNL d   1      -3.264 -13.190  12.780 +0.02 +0.05    +0.209 HD
DOCKED: ENDBRANCH  36  37
DOCKED: ENDBRANCH  29  36
DOCKED: BRANCH  22  39
DOCKED: ATOM     39  C   UNL d   1      -8.670 -14.113  12.525 +0.04 +0.02    +0.052 C 
DOCKED: BRANCH  39  40
DOCKED: ATOM     40  C   UNL d   1      -8.285 -15.490  13.092 -0.14 +0.05    +0.115 C 
DOCKED: BRANCH  40  41
DOCKED: ATOM     41  C   UNL d   1      -7.909 -16.514  12.042 -0.14 +0.09    +0.139 C 
DOCKED: ATOM     42  O   UNL d   1      -6.743 -16.871  11.945 +0.02 -0.35    -0.650 OA
DOCKED: BRANCH  41  43
DOCKED: ATOM     43  O   UNL d   1      -8.840 -17.111  11.266 -0.24 -0.92    -0.776 OA
DOCKED: ATOM     44  H   UNL d   1      -9.105 -16.756  10.407 -0.36 +0.39    +0.167 HD
DOCKED: ENDBRANCH  41  43
DOCKED: ENDBRANCH  40  41
DOCKED: ENDBRANCH  39  40
DOCKED: ENDBRANCH  22  39
DOCKED: BRANCH  12  45
DOCKED: ATOM     45  C   UNL d   1      -0.710  -6.371  14.196 -0.31 +0.00    +0.004 C 
DOCKED: ATOM     46  C   UNL d   1      -0.445  -5.105  13.884 -0.41 -0.00    +0.012 C 
DOCKED: ENDBRANCH  12  45
DOCKED: BRANCH  17  47
DOCKED: ATOM     47  C   UNL d   1      -6.216  -9.733  18.607 -0.04 +0.00    +0.004 C 
DOCKED: ATOM     48  C   UNL d   1      -7.478  -9.359  18.834 -0.08 +0.00    +0.012 C 
DOCKED: ENDBRANCH  17  47
DOCKED: TORSDOF 12
DOCKED: TER
DOCKED: ENDMDL
________________________________________________________________________________


	BEGINNING GENETIC ALGORITHM DOCKING 30 of 100
Run: 30 Seed: 315592693 1898349896 [ Run 30 of 100 GA/GALS ]
Beginning LAMARCKIAN GENETIC ALGORITHM (LGA), with a maximum of 25000000 energy evaluations.

Final-Value: -11.102


	FINAL GENETIC ALGORITHM DOCKED STATE
	_______________________________________________


Detailed state:  trans -3.213 -11.247 10.208 quatxyzw -0.841926 -0.102836 -0.318451 0.423289 center 8.781 34.984 -0.736 ntor 12 -120.1047 119.4212 46.2597 123.9786 137.8001 90.9862 -151.1567 -49.7307 73.2413 119.2147 179.7371 172.0627
State:	 -3.213 -11.247  10.208  -0.929 -0.114 -0.351 129.915   -120.10  119.42   46.26  123.98  137.80   90.99 -151.16  -49.73   73.24  119.21  179.74  172.06

DOCKED: MODEL       30
DOCKED: USER    Run = 30
DOCKED: USER    DPF = D:/Protein_go_brrr/autodock/final/AncB/heme_Co/dock.dpf
DOCKED: USER  
DOCKED: USER    Estimated Free Energy of Binding    =   -6.33 kcal/mol  [=(1)+(2)+(3)-(4)]
DOCKED: USER    Estimated Inhibition Constant, Ki   =   23.02 uM (micromolar)  [Temperature = 298.15 K]
DOCKED: USER    
DOCKED: USER    (1) Final Intermolecular Energy     =   -9.91 kcal/mol
DOCKED: USER        vdW + Hbond + desolv Energy     =   -6.83 kcal/mol
DOCKED: USER        Electrostatic Energy            =   -3.08 kcal/mol
DOCKED: USER    (2) Final Total Internal Energy     =   -1.19 kcal/mol
DOCKED: USER    (3) Torsional Free Energy           =   +3.58 kcal/mol
DOCKED: USER    (4) Unbound System's Energy  [=(2)] =   -1.19 kcal/mol
DOCKED: USER    
DOCKED: USER    
DOCKED: USER    NEWDPF move heme_Co_opt.pdbqt
DOCKED: USER    NEWDPF about 8.781000 34.984000 -0.736000
DOCKED: USER    NEWDPF tran0 -3.212644 -11.246935 10.208367
DOCKED: USER    NEWDPF quaternion0 -0.841926 -0.102836 -0.318451 0.423289
DOCKED: USER    NEWDPF axisangle0 -0.929284 -0.113506 -0.351493 129.915195
DOCKED: USER    NEWDPF quat0 -0.929284 -0.113506 -0.351493 129.915195
DOCKED: USER    NEWDPF dihe0 -120.10 119.42 46.26 123.98 137.80 90.99 -151.16 -49.73 73.24 119.21 179.74 172.06 
DOCKED: USER  keepresnum = 1 
DOCKED: USER  
DOCKED: REMARK  12 active torsions:
DOCKED: REMARK  status: ('A' for Active; 'I' for Inactive)
DOCKED: REMARK    1  A    between atoms: C_6  and  C_10 
DOCKED: REMARK    2  A    between atoms: C_10  and  C_11 
DOCKED: REMARK    3  A    between atoms: C_11  and  C_12 
DOCKED: REMARK    4  A    between atoms: C_12  and  O_14 
DOCKED: REMARK    5  A    between atoms: C_17  and  C_20 
DOCKED: REMARK    6  A    between atoms: C_24  and  C_27 
DOCKED: REMARK    7  A    between atoms: C_31  and  C_34 
DOCKED: REMARK    8  A    between atoms: C_34  and  C_35 
DOCKED: REMARK    9  A    between atoms: C_35  and  C_36 
DOCKED: REMARK   10  A    between atoms: C_36  and  O_38 
DOCKED: REMARK   11  A    between atoms: FE_43  and  C_44 
DOCKED: REMARK   12  A    between atoms: C_44  and  O_45 
DOCKED: USER                              x       y       z     vdW  Elec       q    Type
DOCKED: USER                           _______ _______ _______ _____ _____    ______ ____
DOCKED: ROOT
DOCKED: ATOM      1  C   UNL d   1      -5.292 -11.863  10.101 -0.23 +0.03    +0.064 A 
DOCKED: ATOM      2  C   UNL d   1      -1.731 -12.073   6.957 -0.26 +0.02    +0.064 C 
DOCKED: ATOM      3  C   UNL d   1       1.116  -9.693   9.967 -0.05 +0.01    +0.064 A 
DOCKED: ATOM      4  C   UNL d   1      -2.383  -9.804  13.344 -0.12 +0.01    +0.064 A 
DOCKED: ATOM      5  C   UNL d   1      -4.539 -12.063   9.006 -0.20 +0.03    +0.066 A 
DOCKED: ATOM      6  C   UNL d   1      -5.006 -12.805   7.904 -0.24 -0.01    -0.021 A 
DOCKED: ATOM      7  C   UNL d   1      -3.961 -12.882   7.004 -0.22 -0.01    -0.025 A 
DOCKED: ATOM      8  C   UNL d   1      -2.907 -12.171   7.589 -0.21 +0.02    +0.066 A 
DOCKED: ATOM      9  C   UNL d   1      -3.939 -13.595   5.643 -0.07 +0.03    +0.051 C 
DOCKED: ATOM     10  C   UNL d   1      -0.599 -11.340   7.468 -0.19 +0.01    +0.066 A 
DOCKED: ATOM     11  C   UNL d   1       0.614 -11.082   6.792 -0.20 -0.00    -0.021 A 
DOCKED: ATOM     12  C   UNL d   1       1.424 -10.383   7.691 -0.12 +0.00    +0.000 A 
DOCKED: ATOM     13  C   UNL d   1       0.643 -10.256   8.841 -0.01 +0.01    +0.070 A 
DOCKED: ATOM     14  C   UNL d   1       0.919 -11.406   5.352 -0.28 +0.01    +0.052 C 
DOCKED: ATOM     15  C   UNL d   1       0.470  -9.527  11.254 -0.09 +0.01    +0.066 A 
DOCKED: ATOM     16  C   UNL d   1       1.064  -9.067  12.420 -0.06 -0.00    -0.021 A 
DOCKED: ATOM     17  C   UNL d   1       0.060  -9.099  13.398 -0.07 +0.00    +0.000 A 
DOCKED: ATOM     18  C   UNL d   1      -1.077  -9.562  12.744 -0.10 +0.01    +0.070 A 
DOCKED: ATOM     19  C   UNL d   1       2.507  -8.632  12.557 -0.04 +0.00    +0.052 C 
DOCKED: ATOM     20  C   UNL d   1      -3.478 -10.335  12.749 -0.15 +0.02    +0.066 A 
DOCKED: ATOM     21  C   UNL d   1      -4.668 -10.552  13.441 -0.11 -0.01    -0.025 A 
DOCKED: ATOM     22  C   UNL d   1      -5.534 -11.119  12.523 -0.20 -0.01    -0.021 A 
DOCKED: ATOM     23  C   UNL d   1      -4.821 -11.230  11.311 -0.22 +0.03    +0.066 A 
DOCKED: ATOM     24  C   UNL d   1      -4.960 -10.255  14.909 -0.15 +0.03    +0.051 C 
DOCKED: ATOM     25  N   UNL d   1      -3.240 -11.648   8.827 -0.11 -0.08    -0.248 N 
DOCKED: ATOM     26  N   UNL d   1      -0.599 -10.786   8.685 -0.08 -0.05    -0.248 N 
DOCKED: ATOM     27  N   UNL d   1      -0.788  -9.835  11.476 -0.07 -0.04    -0.248 N 
DOCKED: ATOM     28  N   UNL d   1      -3.575 -10.759  11.444 -0.11 -0.08    -0.248 N 
DOCKED: ATOM     29 FE   UNL d   1      -1.944 -10.687  10.232 -0.04 +0.00    +0.000 Fe
DOCKED: ENDROOT
DOCKED: BRANCH   6  30
DOCKED: ATOM     30  C   UNL d   1      -6.370 -13.474   7.769 -0.31 +0.05    +0.052 C 
DOCKED: BRANCH  30  31
DOCKED: ATOM     31  C   UNL d   1      -6.287 -14.948   8.165 -0.22 +0.14    +0.115 C 
DOCKED: BRANCH  31  32
DOCKED: ATOM     32  C   UNL d   1      -6.410 -15.873   6.973 -0.14 +0.27    +0.139 C 
DOCKED: ATOM     33  O   UNL d   1      -5.441 -16.059   6.254 -0.51 -1.12    -0.650 OA
DOCKED: BRANCH  32  34
DOCKED: ATOM     34  O   UNL d   1      -7.554 -16.545   6.702 +0.01 -2.41    -0.776 OA
DOCKED: ATOM     35  H   UNL d   1      -7.609 -17.506   6.603 +0.02 +0.43    +0.167 HD
DOCKED: ENDBRANCH  32  34
DOCKED: ENDBRANCH  31  32
DOCKED: ENDBRANCH  30  31
DOCKED: ENDBRANCH   6  30
DOCKED: BRANCH  29  36
DOCKED: ATOM     36  C   UNL d   1      -1.373 -12.608  10.848 -0.03 +0.04    +0.190 C 
DOCKED: BRANCH  36  37
DOCKED: ATOM     37  O   UNL d   1      -1.859 -13.780  11.438 +0.00 -0.09    -0.399 OA
DOCKED: ATOM     38  H   UNL d   1      -2.843 -13.637  11.519 +0.02 +0.05    +0.209 HD
DOCKED: ENDBRANCH  36  37
DOCKED: ENDBRANCH  29  36
DOCKED: BRANCH  22  39
DOCKED: ATOM     39  C   UNL d   1      -6.947 -11.585  12.820 -0.34 +0.04    +0.052 C 
DOCKED: BRANCH  39  40
DOCKED: ATOM     40  C   UNL d   1      -6.943 -13.030  13.345 -0.22 +0.05    +0.115 C 
DOCKED: BRANCH  40  41
DOCKED: ATOM     41  C   UNL d   1      -6.496 -14.062  12.332 -0.16 +0.06    +0.139 C 
DOCKED: ATOM     42  O   UNL d   1      -5.307 -14.328  12.233 +0.04 -0.24    -0.650 OA
DOCKED: BRANCH  41  43
DOCKED: ATOM     43  O   UNL d   1      -7.385 -14.762  11.592 +0.02 -0.40    -0.776 OA
DOCKED: ATOM     44  H   UNL d   1      -8.078 -14.336  11.072 -0.50 +0.07    +0.167 HD
DOCKED: ENDBRANCH  41  43
DOCKED: ENDBRANCH  40  41
DOCKED: ENDBRANCH  39  40
DOCKED: ENDBRANCH  22  39
DOCKED: BRANCH  12  45
DOCKED: ATOM     45  C   UNL d   1       2.830  -9.807   7.591 -0.16 +0.00    +0.004 C 
DOCKED: ATOM     46  C   UNL d   1       3.256  -8.548   7.640 -0.19 +0.00    +0.012 C 
DOCKED: ENDBRANCH  12  45
DOCKED: BRANCH  17  47
DOCKED: ATOM     47  C   UNL d   1       0.135  -8.778  14.854 -0.05 +0.00    +0.004 C 
DOCKED: ATOM     48  C   UNL d   1      -0.533  -7.771  15.423 -0.09 +0.00    +0.012 C 
DOCKED: ENDBRANCH  17  47
DOCKED: TORSDOF 12
DOCKED: TER
DOCKED: ENDMDL
________________________________________________________________________________


	BEGINNING GENETIC ALGORITHM DOCKING 31 of 100
Run: 31 Seed: 1381745172 1796398745 [ Run 31 of 100 GA/GALS ]
Beginning LAMARCKIAN GENETIC ALGORITHM (LGA), with a maximum of 25000000 energy evaluations.

Final-Value: -13.069


	FINAL GENETIC ALGORITHM DOCKED STATE
	_______________________________________________


Detailed state:  trans -7.471 -1.050 -12.073 quatxyzw -0.447031 -0.317624 -0.744237 -0.381300 center 8.781 34.984 -0.736 ntor 12 -152.3452 120.0174 -26.0576 111.2252 160.0328 123.6259 42.0716 -42.1897 162.5281 17.0744 -165.5040 -53.0551
State:	 -7.471  -1.050 -12.073  -0.484 -0.344 -0.805 -135.172   -152.35  120.02  -26.06  111.23  160.03  123.63   42.07  -42.19  162.53   17.07 -165.50  -53.06

DOCKED: MODEL       31
DOCKED: USER    Run = 31
DOCKED: USER    DPF = D:/Protein_go_brrr/autodock/final/AncB/heme_Co/dock.dpf
DOCKED: USER  
DOCKED: USER    Estimated Free Energy of Binding    =   -7.41 kcal/mol  [=(1)+(2)+(3)-(4)]
DOCKED: USER    Estimated Inhibition Constant, Ki   =    3.73 uM (micromolar)  [Temperature = 298.15 K]
DOCKED: USER    
DOCKED: USER    (1) Final Intermolecular Energy     =  -10.98 kcal/mol
DOCKED: USER        vdW + Hbond + desolv Energy     =   -7.22 kcal/mol
DOCKED: USER        Electrostatic Energy            =   -3.77 kcal/mol
DOCKED: USER    (2) Final Total Internal Energy     =   -2.08 kcal/mol
DOCKED: USER    (3) Torsional Free Energy           =   +3.58 kcal/mol
DOCKED: USER    (4) Unbound System's Energy  [=(2)] =   -2.08 kcal/mol
DOCKED: USER    
DOCKED: USER    
DOCKED: USER    NEWDPF move heme_Co_opt.pdbqt
DOCKED: USER    NEWDPF about 8.781000 34.984000 -0.736000
DOCKED: USER    NEWDPF tran0 -7.470744 -1.049945 -12.072640
DOCKED: USER    NEWDPF quaternion0 -0.447031 -0.317624 -0.744237 -0.381300
DOCKED: USER    NEWDPF axisangle0 -0.483563 -0.343581 -0.805058 -135.171591
DOCKED: USER    NEWDPF quat0 -0.483563 -0.343581 -0.805058 -135.171591
DOCKED: USER    NEWDPF dihe0 -152.35 120.02 -26.06 111.23 160.03 123.63 42.07 -42.19 162.53 17.07 -165.50 -53.06 
DOCKED: USER  keepresnum = 1 
DOCKED: USER  
DOCKED: REMARK  12 active torsions:
DOCKED: REMARK  status: ('A' for Active; 'I' for Inactive)
DOCKED: REMARK    1  A    between atoms: C_6  and  C_10 
DOCKED: REMARK    2  A    between atoms: C_10  and  C_11 
DOCKED: REMARK    3  A    between atoms: C_11  and  C_12 
DOCKED: REMARK    4  A    between atoms: C_12  and  O_14 
DOCKED: REMARK    5  A    between atoms: C_17  and  C_20 
DOCKED: REMARK    6  A    between atoms: C_24  and  C_27 
DOCKED: REMARK    7  A    between atoms: C_31  and  C_34 
DOCKED: REMARK    8  A    between atoms: C_34  and  C_35 
DOCKED: REMARK    9  A    between atoms: C_35  and  C_36 
DOCKED: REMARK   10  A    between atoms: C_36  and  O_38 
DOCKED: REMARK   11  A    between atoms: FE_43  and  C_44 
DOCKED: REMARK   12  A    between atoms: C_44  and  O_45 
DOCKED: USER                              x       y       z     vdW  Elec       q    Type
DOCKED: USER                           _______ _______ _______ _____ _____    ______ ____
DOCKED: ROOT
DOCKED: ATOM      1  C   UNL d   1      -6.807  -1.446 -14.102 -0.07 +0.07    +0.064 A 
DOCKED: ATOM      2  C   UNL d   1      -7.881   2.586 -11.821 -0.10 +0.04    +0.064 C 
DOCKED: ATOM      3  C   UNL d   1      -9.266   0.093  -7.988 -0.18 +0.01    +0.064 A 
DOCKED: ATOM      4  C   UNL d   1      -7.815  -4.015 -10.152 -0.18 +0.03    +0.064 A 
DOCKED: ATOM      5  C   UNL d   1      -7.032  -0.163 -13.774 -0.04 +0.06    +0.066 A 
DOCKED: ATOM      6  C   UNL d   1      -6.681   0.900 -14.628 -0.04 -0.02    -0.021 A 
DOCKED: ATOM      7  C   UNL d   1      -6.974   2.068 -13.952 -0.07 -0.02    -0.025 A 
DOCKED: ATOM      8  C   UNL d   1      -7.506   1.668 -12.722 -0.06 +0.04    +0.066 A 
DOCKED: ATOM      9  C   UNL d   1      -6.766   3.512 -14.433 -0.08 +0.06    +0.051 C 
DOCKED: ATOM     10  C   UNL d   1      -8.462   2.270 -10.541 -0.08 +0.03    +0.066 A 
DOCKED: ATOM     11  C   UNL d   1      -9.005   3.184  -9.611 -0.11 -0.01    -0.021 A 
DOCKED: ATOM     12  C   UNL d   1      -9.405   2.430  -8.505 -0.17 +0.00    +0.000 A 
DOCKED: ATOM     13  C   UNL d   1      -9.090   1.114  -8.845 -0.12 +0.02    +0.070 A 
DOCKED: ATOM     14  C   UNL d   1      -9.205   4.662  -9.827 -0.11 +0.02    +0.052 C 
DOCKED: ATOM     15  C   UNL d   1      -8.949  -1.312  -8.154 -0.16 +0.02    +0.066 A 
DOCKED: ATOM     16  C   UNL d   1      -9.022  -2.293  -7.175 -0.27 -0.00    -0.021 A 
DOCKED: ATOM     17  C   UNL d   1      -8.602  -3.479  -7.793 -0.31 +0.00    +0.000 A 
DOCKED: ATOM     18  C   UNL d   1      -8.321  -3.130  -9.110 -0.19 +0.03    +0.070 A 
DOCKED: ATOM     19  C   UNL d   1      -9.468  -2.075  -5.746 -0.41 +0.01    +0.052 C 
DOCKED: ATOM     20  C   UNL d   1      -7.453  -3.681 -11.414 -0.18 +0.04    +0.066 A 
DOCKED: ATOM     21  C   UNL d   1      -6.945  -4.616 -12.313 -0.26 -0.02    -0.025 A 
DOCKED: ATOM     22  C   UNL d   1      -6.673  -3.909 -13.471 -0.15 -0.02    -0.021 A 
DOCKED: ATOM     23  C   UNL d   1      -7.020  -2.566 -13.213 -0.11 +0.07    +0.066 A 
DOCKED: ATOM     24  C   UNL d   1      -6.712  -6.105 -12.077 -0.40 +0.03    +0.051 C 
DOCKED: ATOM     25  N   UNL d   1      -7.560   0.291 -12.586 -0.01 -0.17    -0.248 N 
DOCKED: ATOM     26  N   UNL d   1      -8.572   1.012 -10.098 -0.03 -0.09    -0.248 N 
DOCKED: ATOM     27  N   UNL d   1      -8.510  -1.826  -9.281 -0.06 -0.09    -0.248 N 
DOCKED: ATOM     28  N   UNL d   1      -7.490  -2.423 -11.968 -0.06 -0.18    -0.248 N 
DOCKED: ATOM     29 FE   UNL d   1      -8.063  -0.833 -10.837 -0.02 +0.00    +0.000 Fe
DOCKED: ENDROOT
DOCKED: BRANCH   6  30
DOCKED: ATOM     30  C   UNL d   1      -6.018   0.785 -15.997 -0.03 +0.05    +0.052 C 
DOCKED: BRANCH  30  31
DOCKED: ATOM     31  C   UNL d   1      -4.509   0.596 -15.849 -0.07 +0.15    +0.115 C 
DOCKED: BRANCH  31  32
DOCKED: ATOM     32  C   UNL d   1      -4.004   1.029 -14.489 -0.12 +0.23    +0.139 C 
DOCKED: ATOM     33  O   UNL d   1      -3.687   2.196 -14.310 -0.46 -1.52    -0.650 OA
DOCKED: BRANCH  32  34
DOCKED: ATOM     34  O   UNL d   1      -3.935   0.174 -13.443 +0.02 -1.42    -0.776 OA
DOCKED: ATOM     35  H   UNL d   1      -3.939   0.447 -12.516 +0.04 +0.25    +0.167 HD
DOCKED: ENDBRANCH  32  34
DOCKED: ENDBRANCH  31  32
DOCKED: ENDBRANCH  30  31
DOCKED: ENDBRANCH   6  30
DOCKED: BRANCH  29  36
DOCKED: ATOM     36  C   UNL d   1      -6.084  -0.535 -10.213 -0.13 +0.12    +0.190 C 
DOCKED: BRANCH  36  37
DOCKED: ATOM     37  O   UNL d   1      -4.779  -0.369 -10.688 -0.09 -0.36    -0.399 OA
DOCKED: ATOM     38  H   UNL d   1      -4.873  -0.302 -11.680 +0.06 +0.25    +0.209 HD
DOCKED: ENDBRANCH  36  37
DOCKED: ENDBRANCH  29  36
DOCKED: BRANCH  22  39
DOCKED: ATOM     39  C   UNL d   1      -6.052  -4.487 -14.729 -0.01 +0.07    +0.052 C 
DOCKED: BRANCH  39  40
DOCKED: ATOM     40  C   UNL d   1      -6.765  -5.786 -15.138 -0.16 +0.10    +0.115 C 
DOCKED: BRANCH  40  41
DOCKED: ATOM     41  C   UNL d   1      -6.052  -6.579 -16.213 -0.17 +0.17    +0.139 C 
DOCKED: ATOM     42  O   UNL d   1      -5.313  -7.498 -15.888 -0.58 -0.96    -0.650 OA
DOCKED: BRANCH  41  43
DOCKED: ATOM     43  O   UNL d   1      -6.276  -6.355 -17.527 -0.11 -0.99    -0.776 OA
DOCKED: ATOM     44  H   UNL d   1      -7.067  -5.905 -17.850 +0.02 +0.15    +0.167 HD
DOCKED: ENDBRANCH  41  43
DOCKED: ENDBRANCH  40  41
DOCKED: ENDBRANCH  39  40
DOCKED: ENDBRANCH  22  39
DOCKED: BRANCH  12  45
DOCKED: ATOM     45  C   UNL d   1     -10.062   2.796  -7.181 -0.21 +0.00    +0.004 C 
DOCKED: ATOM     46  C   UNL d   1     -11.322   2.666  -6.774 -0.23 -0.00    +0.012 C 
DOCKED: ENDBRANCH  12  45
DOCKED: BRANCH  17  47
DOCKED: ATOM     47  C   UNL d   1      -8.416  -4.843  -7.214 -0.39 +0.00    +0.004 C 
DOCKED: ATOM     48  C   UNL d   1      -8.784  -5.965  -7.837 -0.56 +0.00    +0.012 C 
DOCKED: ENDBRANCH  17  47
DOCKED: TORSDOF 12
DOCKED: TER
DOCKED: ENDMDL
________________________________________________________________________________


	BEGINNING GENETIC ALGORITHM DOCKING 32 of 100
Run: 32 Seed: 946395245 1985140879 [ Run 32 of 100 GA/GALS ]
Beginning LAMARCKIAN GENETIC ALGORITHM (LGA), with a maximum of 25000000 energy evaluations.

Final-Value: -12.279


	FINAL GENETIC ALGORITHM DOCKED STATE
	_______________________________________________


Detailed state:  trans -7.457 -0.878 -12.511 quatxyzw 0.620683 -0.212298 0.753171 0.049143 center 8.781 34.984 -0.736 ntor 12 68.1940 110.7454 -139.7772 -44.3094 -66.0906 104.5245 54.6977 106.2218 144.6003 141.4919 -142.0427 -180.0000
State:	 -7.457  -0.878 -12.511   0.621 -0.213  0.754 174.366     68.19  110.75 -139.78  -44.31  -66.09  104.52   54.70  106.22  144.60  141.49 -142.04 -180.00

DOCKED: MODEL       32
DOCKED: USER    Run = 32
DOCKED: USER    DPF = D:/Protein_go_brrr/autodock/final/AncB/heme_Co/dock.dpf
DOCKED: USER  
DOCKED: USER    Estimated Free Energy of Binding    =   -4.98 kcal/mol  [=(1)+(2)+(3)-(4)]
DOCKED: USER    Estimated Inhibition Constant, Ki   =  224.29 uM (micromolar)  [Temperature = 298.15 K]
DOCKED: USER    
DOCKED: USER    (1) Final Intermolecular Energy     =   -8.56 kcal/mol
DOCKED: USER        vdW + Hbond + desolv Energy     =   -5.98 kcal/mol
DOCKED: USER        Electrostatic Energy            =   -2.58 kcal/mol
DOCKED: USER    (2) Final Total Internal Energy     =   -3.72 kcal/mol
DOCKED: USER    (3) Torsional Free Energy           =   +3.58 kcal/mol
DOCKED: USER    (4) Unbound System's Energy  [=(2)] =   -3.72 kcal/mol
DOCKED: USER    
DOCKED: USER    
DOCKED: USER    NEWDPF move heme_Co_opt.pdbqt
DOCKED: USER    NEWDPF about 8.781000 34.984000 -0.736000
DOCKED: USER    NEWDPF tran0 -7.456747 -0.877518 -12.511259
DOCKED: USER    NEWDPF quaternion0 0.620683 -0.212298 0.753171 0.049143
DOCKED: USER    NEWDPF axisangle0 0.621434 -0.212555 0.754082 174.366386
DOCKED: USER    NEWDPF quat0 0.621434 -0.212555 0.754082 174.366386
DOCKED: USER    NEWDPF dihe0 68.19 110.75 -139.78 -44.31 -66.09 104.52 54.70 106.22 144.60 141.49 -142.04 -180.00 
DOCKED: USER  keepresnum = 1 
DOCKED: USER  
DOCKED: REMARK  12 active torsions:
DOCKED: REMARK  status: ('A' for Active; 'I' for Inactive)
DOCKED: REMARK    1  A    between atoms: C_6  and  C_10 
DOCKED: REMARK    2  A    between atoms: C_10  and  C_11 
DOCKED: REMARK    3  A    between atoms: C_11  and  C_12 
DOCKED: REMARK    4  A    between atoms: C_12  and  O_14 
DOCKED: REMARK    5  A    between atoms: C_17  and  C_20 
DOCKED: REMARK    6  A    between atoms: C_24  and  C_27 
DOCKED: REMARK    7  A    between atoms: C_31  and  C_34 
DOCKED: REMARK    8  A    between atoms: C_34  and  C_35 
DOCKED: REMARK    9  A    between atoms: C_35  and  C_36 
DOCKED: REMARK   10  A    between atoms: C_36  and  O_38 
DOCKED: REMARK   11  A    between atoms: FE_43  and  C_44 
DOCKED: REMARK   12  A    between atoms: C_44  and  O_45 
DOCKED: USER                              x       y       z     vdW  Elec       q    Type
DOCKED: USER                           _______ _______ _______ _____ _____    ______ ____
DOCKED: ROOT
DOCKED: ATOM      1  C   UNL d   1      -7.929  -0.456 -14.589 -0.01 +0.04    +0.064 A 
DOCKED: ATOM      2  C   UNL d   1      -4.138   0.560 -11.904 -0.22 +0.08    +0.064 C 
DOCKED: ATOM      3  C   UNL d   1      -6.326  -1.252  -8.062 -0.09 +0.02    +0.064 A 
DOCKED: ATOM      4  C   UNL d   1     -10.053  -2.648 -10.859 -0.04 +0.03    +0.064 A 
DOCKED: ATOM      5  C   UNL d   1      -6.747  -0.013 -14.130 -0.04 +0.06    +0.066 A 
DOCKED: ATOM      6  C   UNL d   1      -5.770   0.533 -14.986 -0.06 -0.02    -0.021 A 
DOCKED: ATOM      7  C   UNL d   1      -4.664   0.805 -14.205 -0.13 -0.04    -0.025 A 
DOCKED: ATOM      8  C   UNL d   1      -5.018   0.429 -12.905 -0.13 +0.09    +0.066 A 
DOCKED: ATOM      9  C   UNL d   1      -3.317   1.395 -14.652 -0.13 +0.09    +0.051 C 
DOCKED: ATOM     10  C   UNL d   1      -4.421   0.225 -10.531 -0.22 +0.05    +0.066 A 
DOCKED: ATOM     11  C   UNL d   1      -3.592   0.469  -9.415 -0.34 -0.01    -0.021 A 
DOCKED: ATOM     12  C   UNL d   1      -4.256  -0.066  -8.307 -0.40 +0.00    +0.000 A 
DOCKED: ATOM     13  C   UNL d   1      -5.443  -0.583  -8.826 -0.25 +0.03    +0.070 A 
DOCKED: ATOM     14  C   UNL d   1      -2.302   1.247  -9.415 -0.22 +0.03    +0.052 C 
DOCKED: ATOM     15  C   UNL d   1      -7.569  -1.894  -8.441 -0.21 +0.02    +0.066 A 
DOCKED: ATOM     16  C   UNL d   1      -8.363  -2.693  -7.630 -0.28 -0.01    -0.021 A 
DOCKED: ATOM     17  C   UNL d   1      -9.438  -3.100  -8.433 -0.18 +0.00    +0.000 A 
DOCKED: ATOM     18  C   UNL d   1      -9.223  -2.501  -9.670 -0.09 +0.03    +0.070 A 
DOCKED: ATOM     19  C   UNL d   1      -8.081  -3.027  -6.183 -0.41 +0.01    +0.052 C 
DOCKED: ATOM     20  C   UNL d   1      -9.818  -2.146 -12.095 -0.02 +0.03    +0.066 A 
DOCKED: ATOM     21  C   UNL d   1     -10.672  -2.386 -13.169 -0.01 -0.01    -0.025 A 
DOCKED: ATOM     22  C   UNL d   1     -10.101  -1.742 -14.252 +0.00 -0.01    -0.021 A 
DOCKED: ATOM     23  C   UNL d   1      -8.910  -1.146 -13.783 -0.00 +0.04    +0.066 A 
DOCKED: ATOM     24  C   UNL d   1     -11.960  -3.205 -13.170 -0.02 +0.02    +0.051 C 
DOCKED: ATOM     25  N   UNL d   1      -6.305  -0.075 -12.828 -0.05 -0.25    -0.248 N 
DOCKED: ATOM     26  N   UNL d   1      -5.567  -0.357 -10.161 -0.10 -0.16    -0.248 N 
DOCKED: ATOM     27  N   UNL d   1      -8.085  -1.815  -9.647 -0.07 -0.10    -0.248 N 
DOCKED: ATOM     28  N   UNL d   1      -8.734  -1.390 -12.479 -0.01 -0.13    -0.248 N 
DOCKED: ATOM     29 FE   UNL d   1      -7.251  -0.997 -11.145 -0.02 +0.00    +0.000 Fe
DOCKED: ENDROOT
DOCKED: BRANCH   6  30
DOCKED: ATOM     30  C   UNL d   1      -5.878   0.703 -16.497 -0.02 +0.05    +0.052 C 
DOCKED: BRANCH  30  31
DOCKED: ATOM     31  C   UNL d   1      -6.141  -0.643 -17.172 -0.01 +0.09    +0.115 C 
DOCKED: BRANCH  31  32
DOCKED: ATOM     32  C   UNL d   1      -5.393  -1.778 -16.507 -0.02 +0.19    +0.139 C 
DOCKED: ATOM     33  O   UNL d   1      -4.189  -1.891 -16.687 -0.04 -1.06    -0.650 OA
DOCKED: BRANCH  32  34
DOCKED: ATOM     34  O   UNL d   1      -6.006  -2.651 -15.674 -0.49 -1.23    -0.776 OA
DOCKED: ATOM     35  H   UNL d   1      -6.706  -3.260 -15.945 +0.02 +0.18    +0.167 HD
DOCKED: ENDBRANCH  32  34
DOCKED: ENDBRANCH  31  32
DOCKED: ENDBRANCH  30  31
DOCKED: ENDBRANCH   6  30
DOCKED: BRANCH  29  36
DOCKED: ATOM     36  C   UNL d   1      -6.258  -2.759 -11.695 -0.14 +0.20    +0.190 C 
DOCKED: BRANCH  36  37
DOCKED: ATOM     37  O   UNL d   1      -6.008  -3.605 -12.780 -0.16 -0.58    -0.399 OA
DOCKED: ATOM     38  H   UNL d   1      -6.524  -3.211 -13.537 +0.04 +0.30    +0.209 HD
DOCKED: ENDBRANCH  36  37
DOCKED: ENDBRANCH  29  36
DOCKED: BRANCH  22  39
DOCKED: ATOM     39  C   UNL d   1     -10.640  -1.757 -15.670 +0.00 +0.02    +0.052 C 
DOCKED: BRANCH  39  40
DOCKED: ATOM     40  C   UNL d   1     -10.286  -3.079 -16.371 +0.00 +0.05    +0.115 C 
DOCKED: BRANCH  40  41
DOCKED: ATOM     41  C   UNL d   1      -8.860  -3.540 -16.152 -0.00 +0.08    +0.139 C 
DOCKED: ATOM     42  O   UNL d   1      -8.100  -3.606 -17.107 +0.02 -0.39    -0.650 OA
DOCKED: BRANCH  41  43
DOCKED: ATOM     43  O   UNL d   1      -8.379  -3.797 -14.916 +0.05 -0.53    -0.776 OA
DOCKED: ATOM     44  H   UNL d   1      -7.523  -3.467 -14.613 +0.03 +0.15    +0.167 HD
DOCKED: ENDBRANCH  41  43
DOCKED: ENDBRANCH  40  41
DOCKED: ENDBRANCH  39  40
DOCKED: ENDBRANCH  22  39
DOCKED: BRANCH  12  45
DOCKED: ATOM     45  C   UNL d   1      -3.917  -0.130  -6.824 -0.44 +0.00    +0.004 C 
DOCKED: ATOM     46  C   UNL d   1      -2.827  -0.575  -6.204 -0.52 +0.00    +0.012 C 
DOCKED: ENDBRANCH  12  45
DOCKED: BRANCH  17  47
DOCKED: ATOM     47  C   UNL d   1     -10.570  -4.021  -8.116 -0.22 +0.00    +0.004 C 
DOCKED: ATOM     48  C   UNL d   1     -10.512  -5.344  -8.280 -0.33 +0.00    +0.012 C 
DOCKED: ENDBRANCH  17  47
DOCKED: TORSDOF 12
DOCKED: TER
DOCKED: ENDMDL
________________________________________________________________________________


	BEGINNING GENETIC ALGORITHM DOCKING 33 of 100
Run: 33 Seed: 531528643 114962739 [ Run 33 of 100 GA/GALS ]
Beginning LAMARCKIAN GENETIC ALGORITHM (LGA), with a maximum of 25000000 energy evaluations.

Final-Value: -12.153


	FINAL GENETIC ALGORITHM DOCKED STATE
	_______________________________________________


Detailed state:  trans 15.792 -0.339 -11.636 quatxyzw -0.025496 0.705781 -0.408771 -0.578039 center 8.781 34.984 -0.736 ntor 12 140.7133 75.4920 148.5628 116.8480 -80.3158 149.3687 -155.2675 17.7379 -65.2687 80.1055 173.2753 -172.2052
State:	 15.792  -0.339 -11.636  -0.031  0.865 -0.501 -109.375    140.71   75.49  148.56  116.85  -80.32  149.37 -155.27   17.74  -65.27   80.11  173.28 -172.21

DOCKED: MODEL       33
DOCKED: USER    Run = 33
DOCKED: USER    DPF = D:/Protein_go_brrr/autodock/final/AncB/heme_Co/dock.dpf
DOCKED: USER  
DOCKED: USER    Estimated Free Energy of Binding    =   -5.89 kcal/mol  [=(1)+(2)+(3)-(4)]
DOCKED: USER    Estimated Inhibition Constant, Ki   =   48.15 uM (micromolar)  [Temperature = 298.15 K]
DOCKED: USER    
DOCKED: USER    (1) Final Intermolecular Energy     =   -9.47 kcal/mol
DOCKED: USER        vdW + Hbond + desolv Energy     =   -7.37 kcal/mol
DOCKED: USER        Electrostatic Energy            =   -2.10 kcal/mol
DOCKED: USER    (2) Final Total Internal Energy     =   -2.68 kcal/mol
DOCKED: USER    (3) Torsional Free Energy           =   +3.58 kcal/mol
DOCKED: USER    (4) Unbound System's Energy  [=(2)] =   -2.68 kcal/mol
DOCKED: USER    
DOCKED: USER    
DOCKED: USER    NEWDPF move heme_Co_opt.pdbqt
DOCKED: USER    NEWDPF about 8.781000 34.984000 -0.736000
DOCKED: USER    NEWDPF tran0 15.791837 -0.339270 -11.635576
DOCKED: USER    NEWDPF quaternion0 -0.025496 0.705781 -0.408771 -0.578039
DOCKED: USER    NEWDPF axisangle0 -0.031245 0.864918 -0.500940 -109.374509
DOCKED: USER    NEWDPF quat0 -0.031245 0.864918 -0.500940 -109.374509
DOCKED: USER    NEWDPF dihe0 140.71 75.49 148.56 116.85 -80.32 149.37 -155.27 17.74 -65.27 80.11 173.28 -172.21 
DOCKED: USER  keepresnum = 1 
DOCKED: USER  
DOCKED: REMARK  12 active torsions:
DOCKED: REMARK  status: ('A' for Active; 'I' for Inactive)
DOCKED: REMARK    1  A    between atoms: C_6  and  C_10 
DOCKED: REMARK    2  A    between atoms: C_10  and  C_11 
DOCKED: REMARK    3  A    between atoms: C_11  and  C_12 
DOCKED: REMARK    4  A    between atoms: C_12  and  O_14 
DOCKED: REMARK    5  A    between atoms: C_17  and  C_20 
DOCKED: REMARK    6  A    between atoms: C_24  and  C_27 
DOCKED: REMARK    7  A    between atoms: C_31  and  C_34 
DOCKED: REMARK    8  A    between atoms: C_34  and  C_35 
DOCKED: REMARK    9  A    between atoms: C_35  and  C_36 
DOCKED: REMARK   10  A    between atoms: C_36  and  O_38 
DOCKED: REMARK   11  A    between atoms: FE_43  and  C_44 
DOCKED: REMARK   12  A    between atoms: C_44  and  O_45 
DOCKED: USER                              x       y       z     vdW  Elec       q    Type
DOCKED: USER                           _______ _______ _______ _____ _____    ______ ____
DOCKED: ROOT
DOCKED: ATOM      1  C   UNL d   1      15.938   1.442 -10.402 -0.23 +0.03    +0.064 A 
DOCKED: ATOM      2  C   UNL d   1      17.486  -3.011  -9.780 -0.19 +0.02    +0.064 C 
DOCKED: ATOM      3  C   UNL d   1      15.309  -4.370 -13.811 -0.11 +0.02    +0.064 A 
DOCKED: ATOM      4  C   UNL d   1      14.042   0.247 -14.668 -0.26 +0.02    +0.064 A 
DOCKED: ATOM      5  C   UNL d   1      16.490   0.317  -9.917 -0.33 +0.03    +0.066 A 
DOCKED: ATOM      6  C   UNL d   1      17.291   0.317  -8.758 -0.16 -0.01    -0.021 A 
DOCKED: ATOM      7  C   UNL d   1      17.756  -0.973  -8.596 -0.25 -0.01    -0.025 A 
DOCKED: ATOM      8  C   UNL d   1      17.207  -1.708  -9.652 -0.24 +0.02    +0.066 A 
DOCKED: ATOM      9  C   UNL d   1      18.684  -1.508  -7.494 -0.25 +0.02    +0.051 C 
DOCKED: ATOM     10  C   UNL d   1      16.946  -3.854 -10.818 -0.14 +0.03    +0.066 A 
DOCKED: ATOM     11  C   UNL d   1      17.088  -5.254 -10.927 -0.12 -0.01    -0.021 A 
DOCKED: ATOM     12  C   UNL d   1      16.440  -5.624 -12.109 -0.12 +0.00    +0.000 A 
DOCKED: ATOM     13  C   UNL d   1      15.942  -4.428 -12.626 -0.08 +0.03    +0.070 A 
DOCKED: ATOM     14  C   UNL d   1      17.720  -6.169  -9.909 -0.09 +0.02    +0.052 C 
DOCKED: ATOM     15  C   UNL d   1      14.780  -3.219 -14.516 -0.14 +0.02    +0.066 A 
DOCKED: ATOM     16  C   UNL d   1      14.266  -3.208 -15.805 -0.11 -0.00    -0.021 A 
DOCKED: ATOM     17  C   UNL d   1      13.902  -1.878 -16.057 -0.17 +0.00    +0.000 A 
DOCKED: ATOM     18  C   UNL d   1      14.207  -1.183 -14.892 -0.19 +0.02    +0.070 A 
DOCKED: ATOM     19  C   UNL d   1      14.148  -4.413 -16.712 -0.05 +0.01    +0.052 C 
DOCKED: ATOM     20  C   UNL d   1      14.411   0.959 -13.576 -0.28 +0.02    +0.066 A 
DOCKED: ATOM     21  C   UNL d   1      14.233   2.338 -13.493 -0.31 -0.01    -0.025 A 
DOCKED: ATOM     22  C   UNL d   1      14.744   2.706 -12.261 -0.29 -0.01    -0.021 A 
DOCKED: ATOM     23  C   UNL d   1      15.223   1.526 -11.655 -0.23 +0.03    +0.066 A 
DOCKED: ATOM     24  C   UNL d   1      13.624   3.264 -14.542 -0.26 +0.01    +0.051 C 
DOCKED: ATOM     25  N   UNL d   1      16.413  -0.935 -10.483 -0.20 -0.08    -0.248 N 
DOCKED: ATOM     26  N   UNL d   1      16.200  -3.367 -11.816 -0.10 -0.10    -0.248 N 
DOCKED: ATOM     27  N   UNL d   1      14.756  -2.008 -14.007 -0.11 -0.08    -0.248 N 
DOCKED: ATOM     28  N   UNL d   1      15.026   0.466 -12.449 -0.18 -0.08    -0.248 N 
DOCKED: ATOM     29 FE   UNL d   1      15.534  -1.500 -12.349 -0.06 +0.00    +0.000 Fe
DOCKED: ENDROOT
DOCKED: BRANCH   6  30
DOCKED: ATOM     30  C   UNL d   1      17.652   1.527  -7.902 -0.12 +0.04    +0.052 C 
DOCKED: BRANCH  30  31
DOCKED: ATOM     31  C   UNL d   1      19.078   1.989  -8.199 -0.17 +0.07    +0.115 C 
DOCKED: BRANCH  31  32
DOCKED: ATOM     32  C   UNL d   1      19.118   3.347  -8.867 -0.12 +0.12    +0.139 C 
DOCKED: ATOM     33  O   UNL d   1      18.907   4.350  -8.202 -0.54 -1.02    -0.650 OA
DOCKED: BRANCH  32  34
DOCKED: ATOM     34  O   UNL d   1      19.429   3.494 -10.176 +0.04 -0.46    -0.776 OA
DOCKED: ATOM     35  H   UNL d   1      18.956   4.079 -10.784 +0.04 +0.10    +0.167 HD
DOCKED: ENDBRANCH  32  34
DOCKED: ENDBRANCH  31  32
DOCKED: ENDBRANCH  30  31
DOCKED: ENDBRANCH   6  30
DOCKED: BRANCH  29  36
DOCKED: ATOM     36  C   UNL d   1      17.395  -1.087 -13.222 -0.04 +0.05    +0.190 C 
DOCKED: BRANCH  36  37
DOCKED: ATOM     37  O   UNL d   1      18.668  -0.579 -12.944 +0.00 -0.09    -0.399 OA
DOCKED: ATOM     38  H   UNL d   1      18.510   0.173 -12.307 +0.03 +0.06    +0.209 HD
DOCKED: ENDBRANCH  36  37
DOCKED: ENDBRANCH  29  36
DOCKED: BRANCH  22  39
DOCKED: ATOM     39  C   UNL d   1      14.824   4.126 -11.731 -0.41 +0.03    +0.052 C 
DOCKED: BRANCH  39  40
DOCKED: ATOM     40  C   UNL d   1      15.886   4.932 -12.496 -0.26 +0.06    +0.115 C 
DOCKED: BRANCH  40  41
DOCKED: ATOM     41  C   UNL d   1      17.164   5.175 -11.722 -0.23 +0.09    +0.139 C 
DOCKED: ATOM     42  O   UNL d   1      18.202   5.390 -12.332 +0.03 -0.31    -0.650 OA
DOCKED: BRANCH  41  43
DOCKED: ATOM     43  O   UNL d   1      17.174   5.247 -10.372 +0.00 -1.06    -0.776 OA
DOCKED: ATOM     44  H   UNL d   1      17.961   5.049  -9.848 +0.04 +0.26    +0.167 HD
DOCKED: ENDBRANCH  41  43
DOCKED: ENDBRANCH  40  41
DOCKED: ENDBRANCH  39  40
DOCKED: ENDBRANCH  22  39
DOCKED: BRANCH  12  45
DOCKED: ATOM     45  C   UNL d   1      16.219  -6.966 -12.796 -0.09 +0.00    +0.004 C 
DOCKED: ATOM     46  C   UNL d   1      15.116  -7.696 -12.935 -0.12 +0.01    +0.012 C 
DOCKED: ENDBRANCH  12  45
DOCKED: BRANCH  17  47
DOCKED: ATOM     47  C   UNL d   1      13.354  -1.259 -17.301 -0.10 +0.00    +0.004 C 
DOCKED: ATOM     48  C   UNL d   1      14.090  -0.539 -18.152 -0.09 +0.00    +0.012 C 
DOCKED: ENDBRANCH  17  47
DOCKED: TORSDOF 12
DOCKED: TER
DOCKED: ENDMDL
________________________________________________________________________________


	BEGINNING GENETIC ALGORITHM DOCKING 34 of 100
Run: 34 Seed: 1029196748 1591065583 [ Run 34 of 100 GA/GALS ]
Beginning LAMARCKIAN GENETIC ALGORITHM (LGA), with a maximum of 25000000 energy evaluations.

Final-Value: -11.060


	FINAL GENETIC ALGORITHM DOCKED STATE
	_______________________________________________


Detailed state:  trans -3.420 -17.325 4.129 quatxyzw -0.812581 -0.290700 -0.023199 0.504646 center 8.781 34.984 -0.736 ntor 12 -12.6173 106.8717 36.6313 -29.9099 128.6884 139.6519 7.2989 84.8989 69.5568 -132.1921 10.8778 -27.5142
State:	 -3.420 -17.325   4.129  -0.941 -0.337 -0.027 119.384    -12.62  106.87   36.63  -29.91  128.69  139.65    7.30   84.90   69.56 -132.19   10.88  -27.51

DOCKED: MODEL       34
DOCKED: USER    Run = 34
DOCKED: USER    DPF = D:/Protein_go_brrr/autodock/final/AncB/heme_Co/dock.dpf
DOCKED: USER  
DOCKED: USER    Estimated Free Energy of Binding    =   -5.73 kcal/mol  [=(1)+(2)+(3)-(4)]
DOCKED: USER    Estimated Inhibition Constant, Ki   =   62.56 uM (micromolar)  [Temperature = 298.15 K]
DOCKED: USER    
DOCKED: USER    (1) Final Intermolecular Energy     =   -9.31 kcal/mol
DOCKED: USER        vdW + Hbond + desolv Energy     =   -4.75 kcal/mol
DOCKED: USER        Electrostatic Energy            =   -4.57 kcal/mol
DOCKED: USER    (2) Final Total Internal Energy     =   -1.75 kcal/mol
DOCKED: USER    (3) Torsional Free Energy           =   +3.58 kcal/mol
DOCKED: USER    (4) Unbound System's Energy  [=(2)] =   -1.75 kcal/mol
DOCKED: USER    
DOCKED: USER    
DOCKED: USER    NEWDPF move heme_Co_opt.pdbqt
DOCKED: USER    NEWDPF about 8.781000 34.984000 -0.736000
DOCKED: USER    NEWDPF tran0 -3.420018 -17.324719 4.129000
DOCKED: USER    NEWDPF quaternion0 -0.812581 -0.290700 -0.023199 0.504646
DOCKED: USER    NEWDPF axisangle0 -0.941221 -0.336720 -0.026872 119.384350
DOCKED: USER    NEWDPF quat0 -0.941221 -0.336720 -0.026872 119.384350
DOCKED: USER    NEWDPF dihe0 -12.62 106.87 36.63 -29.91 128.69 139.65 7.30 84.90 69.56 -132.19 10.88 -27.51 
DOCKED: USER  keepresnum = 1 
DOCKED: USER  
DOCKED: REMARK  12 active torsions:
DOCKED: REMARK  status: ('A' for Active; 'I' for Inactive)
DOCKED: REMARK    1  A    between atoms: C_6  and  C_10 
DOCKED: REMARK    2  A    between atoms: C_10  and  C_11 
DOCKED: REMARK    3  A    between atoms: C_11  and  C_12 
DOCKED: REMARK    4  A    between atoms: C_12  and  O_14 
DOCKED: REMARK    5  A    between atoms: C_17  and  C_20 
DOCKED: REMARK    6  A    between atoms: C_24  and  C_27 
DOCKED: REMARK    7  A    between atoms: C_31  and  C_34 
DOCKED: REMARK    8  A    between atoms: C_34  and  C_35 
DOCKED: REMARK    9  A    between atoms: C_35  and  C_36 
DOCKED: REMARK   10  A    between atoms: C_36  and  O_38 
DOCKED: REMARK   11  A    between atoms: FE_43  and  C_44 
DOCKED: REMARK   12  A    between atoms: C_44  and  O_45 
DOCKED: USER                              x       y       z     vdW  Elec       q    Type
DOCKED: USER                           _______ _______ _______ _____ _____    ______ ____
DOCKED: ROOT
DOCKED: ATOM      1  C   UNL d   1      -5.083 -17.759   5.456 -0.04 +0.09    +0.064 A 
DOCKED: ATOM      2  C   UNL d   1      -3.996 -19.292   1.088 -0.11 +0.07    +0.064 C 
DOCKED: ATOM      3  C   UNL d   1      -0.261 -16.317   0.933 -0.18 +0.02    +0.064 A 
DOCKED: ATOM      4  C   UNL d   1      -1.123 -15.015   5.540 -0.06 +0.02    +0.064 A 
DOCKED: ATOM      5  C   UNL d   1      -5.082 -18.370   4.260 -0.07 +0.09    +0.066 A 
DOCKED: ATOM      6  C   UNL d   1      -6.002 -19.388   3.939 -0.07 -0.03    -0.021 A 
DOCKED: ATOM      7  C   UNL d   1      -5.668 -19.844   2.680 -0.02 -0.03    -0.025 A 
DOCKED: ATOM      8  C   UNL d   1      -4.569 -19.076   2.279 -0.10 +0.08    +0.066 A 
DOCKED: ATOM      9  C   UNL d   1      -6.346 -20.961   1.871 -0.01 +0.05    +0.051 C 
DOCKED: ATOM     10  C   UNL d   1      -2.880 -18.534   0.580 -0.14 +0.05    +0.066 A 
DOCKED: ATOM     11  C   UNL d   1      -2.323 -18.617  -0.715 -0.19 -0.01    -0.021 A 
DOCKED: ATOM     12  C   UNL d   1      -1.238 -17.736  -0.734 -0.23 +0.00    +0.000 A 
DOCKED: ATOM     13  C   UNL d   1      -1.221 -17.173   0.543 -0.17 +0.03    +0.070 A 
DOCKED: ATOM     14  C   UNL d   1      -2.867 -19.418  -1.870 -0.19 +0.02    +0.052 C 
DOCKED: ATOM     15  C   UNL d   1      -0.061 -15.685   2.222 -0.14 +0.02    +0.066 A 
DOCKED: ATOM     16  C   UNL d   1       1.035 -14.923   2.604 -0.15 -0.01    -0.021 A 
DOCKED: ATOM     17  C   UNL d   1       0.792 -14.547   3.933 -0.11 +0.00    +0.000 A 
DOCKED: ATOM     18  C   UNL d   1      -0.445 -15.097   4.252 +0.02 +0.03    +0.070 A 
DOCKED: ATOM     19  C   UNL d   1       2.223 -14.595   1.728 -0.15 +0.01    +0.052 C 
DOCKED: ATOM     20  C   UNL d   1      -2.283 -15.614   5.901 -0.06 +0.03    +0.066 A 
DOCKED: ATOM     21  C   UNL d   1      -2.817 -15.490   7.181 -0.04 -0.01    -0.025 A 
DOCKED: ATOM     22  C   UNL d   1      -3.974 -16.247   7.178 -0.03 -0.02    -0.021 A 
DOCKED: ATOM     23  C   UNL d   1      -4.084 -16.809   5.889 -0.05 +0.06    +0.066 A 
DOCKED: ATOM     24  C   UNL d   1      -2.243 -14.705   8.358 -0.03 +0.02    +0.051 C 
DOCKED: ATOM     25  N   UNL d   1      -4.189 -18.151   3.236 -0.08 -0.28    -0.248 N 
DOCKED: ATOM     26  N   UNL d   1      -2.248 -17.615   1.317 -0.09 -0.16    -0.248 N 
DOCKED: ATOM     27  N   UNL d   1      -0.909 -15.793   3.220 -0.07 -0.12    -0.248 N 
DOCKED: ATOM     28  N   UNL d   1      -3.061 -16.431   5.113 -0.04 -0.17    -0.248 N 
DOCKED: ATOM     29 FE   UNL d   1      -2.453 -16.900   3.231 -0.03 +0.00    +0.000 Fe
DOCKED: ENDROOT
DOCKED: BRANCH   6  30
DOCKED: ATOM     30  C   UNL d   1      -7.096 -19.943   4.845 -0.04 +0.06    +0.052 C 
DOCKED: BRANCH  30  31
DOCKED: ATOM     31  C   UNL d   1      -8.427 -19.242   4.571 -0.09 +0.17    +0.115 C 
DOCKED: BRANCH  31  32
DOCKED: ATOM     32  C   UNL d   1      -8.877 -18.383   5.733 -0.03 +0.30    +0.139 C 
DOCKED: ATOM     33  O   UNL d   1      -9.962 -18.596   6.253 -0.42 -1.42    -0.650 OA
DOCKED: BRANCH  32  34
DOCKED: ATOM     34  O   UNL d   1      -8.092 -17.411   6.253 -0.03 -2.25    -0.776 OA
DOCKED: ATOM     35  H   UNL d   1      -7.140 -17.341   6.100 +0.02 +0.44    +0.167 HD
DOCKED: ENDBRANCH  32  34
DOCKED: ENDBRANCH  31  32
DOCKED: ENDBRANCH  30  31
DOCKED: ENDBRANCH   6  30
DOCKED: BRANCH  29  36
DOCKED: ATOM     36  C   UNL d   1      -1.396 -18.557   3.961 +0.00 +0.07    +0.190 C 
DOCKED: BRANCH  36  37
DOCKED: ATOM     37  O   UNL d   1      -1.564 -19.818   4.542 +0.01 -0.13    -0.399 OA
DOCKED: ATOM     38  H   UNL d   1      -2.543 -19.891   4.718 +0.01 +0.09    +0.209 HD
DOCKED: ENDBRANCH  36  37
DOCKED: ENDBRANCH  29  36
DOCKED: BRANCH  22  39
DOCKED: ATOM     39  C   UNL d   1      -4.885 -16.466   8.371 -0.05 +0.04    +0.052 C 
DOCKED: BRANCH  39  40
DOCKED: ATOM     40  C   UNL d   1      -5.706 -15.199   8.667 -0.16 +0.11    +0.115 C 
DOCKED: BRANCH  40  41
DOCKED: ATOM     41  C   UNL d   1      -6.259 -14.511   7.437 -0.25 +0.18    +0.139 C 
DOCKED: ATOM     42  O   UNL d   1      -6.200 -13.292   7.357 -0.05 -0.62    -0.650 OA
DOCKED: BRANCH  41  43
DOCKED: ATOM     43  O   UNL d   1      -6.736 -15.212   6.385 -0.15 -1.97    -0.776 OA
DOCKED: ATOM     44  H   UNL d   1      -7.301 -15.989   6.492 +0.03 +0.51    +0.167 HD
DOCKED: ENDBRANCH  41  43
DOCKED: ENDBRANCH  40  41
DOCKED: ENDBRANCH  39  40
DOCKED: ENDBRANCH  22  39
DOCKED: BRANCH  12  45
DOCKED: ATOM     45  C   UNL d   1      -0.234 -17.349  -1.811 -0.32 +0.00    +0.004 C 
DOCKED: ATOM     46  C   UNL d   1       0.364 -18.087  -2.743 -0.37 -0.00    +0.012 C 
DOCKED: ENDBRANCH  12  45
DOCKED: BRANCH  17  47
DOCKED: ATOM     47  C   UNL d   1       1.653 -13.776   4.878 -0.10 +0.00    +0.004 C 
DOCKED: ATOM     48  C   UNL d   1       1.404 -12.515   5.242 -0.17 +0.00    +0.012 C 
DOCKED: ENDBRANCH  17  47
DOCKED: TORSDOF 12
DOCKED: TER
DOCKED: ENDMDL
________________________________________________________________________________


	BEGINNING GENETIC ALGORITHM DOCKING 35 of 100
Run: 35 Seed: 2104782061 726580249 [ Run 35 of 100 GA/GALS ]
Beginning LAMARCKIAN GENETIC ALGORITHM (LGA), with a maximum of 25000000 energy evaluations.

Final-Value: -12.529


	FINAL GENETIC ALGORITHM DOCKED STATE
	_______________________________________________


Detailed state:  trans -7.489 -1.621 -12.493 quatxyzw -0.015766 0.621122 -0.482043 0.617732 center 8.781 34.984 -0.736 ntor 12 85.0488 96.6157 106.1168 142.1115 89.0479 129.5273 179.1761 -177.1772 -65.6774 137.9884 19.5891 12.0093
State:	 -7.489  -1.621 -12.493  -0.020  0.790 -0.613 103.699     85.05   96.62  106.12  142.11   89.05  129.53  179.18 -177.18  -65.68  137.99   19.59   12.01

DOCKED: MODEL       35
DOCKED: USER    Run = 35
DOCKED: USER    DPF = D:/Protein_go_brrr/autodock/final/AncB/heme_Co/dock.dpf
DOCKED: USER  
DOCKED: USER    Estimated Free Energy of Binding    =   -8.06 kcal/mol  [=(1)+(2)+(3)-(4)]
DOCKED: USER    Estimated Inhibition Constant, Ki   =    1.23 uM (micromolar)  [Temperature = 298.15 K]
DOCKED: USER    
DOCKED: USER    (1) Final Intermolecular Energy     =  -11.64 kcal/mol
DOCKED: USER        vdW + Hbond + desolv Energy     =   -7.69 kcal/mol
DOCKED: USER        Electrostatic Energy            =   -3.96 kcal/mol
DOCKED: USER    (2) Final Total Internal Energy     =   -0.89 kcal/mol
DOCKED: USER    (3) Torsional Free Energy           =   +3.58 kcal/mol
DOCKED: USER    (4) Unbound System's Energy  [=(2)] =   -0.89 kcal/mol
DOCKED: USER    
DOCKED: USER    
DOCKED: USER    NEWDPF move heme_Co_opt.pdbqt
DOCKED: USER    NEWDPF about 8.781000 34.984000 -0.736000
DOCKED: USER    NEWDPF tran0 -7.488884 -1.621433 -12.492556
DOCKED: USER    NEWDPF quaternion0 -0.015766 0.621122 -0.482043 0.617732
DOCKED: USER    NEWDPF axisangle0 -0.020049 0.789842 -0.612983 103.698545
DOCKED: USER    NEWDPF quat0 -0.020049 0.789842 -0.612983 103.698545
DOCKED: USER    NEWDPF dihe0 85.05 96.62 106.12 142.11 89.05 129.53 179.18 -177.18 -65.68 137.99 19.59 12.01 
DOCKED: USER  keepresnum = 1 
DOCKED: USER  
DOCKED: REMARK  12 active torsions:
DOCKED: REMARK  status: ('A' for Active; 'I' for Inactive)
DOCKED: REMARK    1  A    between atoms: C_6  and  C_10 
DOCKED: REMARK    2  A    between atoms: C_10  and  C_11 
DOCKED: REMARK    3  A    between atoms: C_11  and  C_12 
DOCKED: REMARK    4  A    between atoms: C_12  and  O_14 
DOCKED: REMARK    5  A    between atoms: C_17  and  C_20 
DOCKED: REMARK    6  A    between atoms: C_24  and  C_27 
DOCKED: REMARK    7  A    between atoms: C_31  and  C_34 
DOCKED: REMARK    8  A    between atoms: C_34  and  C_35 
DOCKED: REMARK    9  A    between atoms: C_35  and  C_36 
DOCKED: REMARK   10  A    between atoms: C_36  and  O_38 
DOCKED: REMARK   11  A    between atoms: FE_43  and  C_44 
DOCKED: REMARK   12  A    between atoms: C_44  and  O_45 
DOCKED: USER                              x       y       z     vdW  Elec       q    Type
DOCKED: USER                           _______ _______ _______ _____ _____    ______ ____
DOCKED: ROOT
DOCKED: ATOM      1  C   UNL d   1      -6.699  -1.944 -14.490 -0.07 +0.08    +0.064 A 
DOCKED: ATOM      2  C   UNL d   1      -8.170  -4.950 -11.112 -0.30 +0.03    +0.064 C 
DOCKED: ATOM      3  C   UNL d   1      -8.806  -1.304  -8.091 -0.17 +0.02    +0.064 A 
DOCKED: ATOM      4  C   UNL d   1      -7.677   1.821 -11.644 -0.08 +0.04    +0.064 A 
DOCKED: ATOM      5  C   UNL d   1      -7.020  -3.036 -13.777 -0.10 +0.08    +0.066 A 
DOCKED: ATOM      6  C   UNL d   1      -7.028  -4.324 -14.347 -0.13 -0.02    -0.021 A 
DOCKED: ATOM      7  C   UNL d   1      -7.478  -5.190 -13.369 -0.19 -0.02    -0.025 A 
DOCKED: ATOM      8  C   UNL d   1      -7.708  -4.396 -12.240 -0.18 +0.04    +0.066 A 
DOCKED: ATOM      9  C   UNL d   1      -7.688  -6.708 -13.479 -0.28 +0.03    +0.051 C 
DOCKED: ATOM     10  C   UNL d   1      -8.411  -4.219  -9.894 -0.23 +0.03    +0.066 A 
DOCKED: ATOM     11  C   UNL d   1      -8.761  -4.762  -8.638 -0.37 -0.01    -0.021 A 
DOCKED: ATOM     12  C   UNL d   1      -8.936  -3.677  -7.775 -0.31 +0.00    +0.000 A 
DOCKED: ATOM     13  C   UNL d   1      -8.670  -2.556  -8.561 -0.18 +0.02    +0.070 A 
DOCKED: ATOM     14  C   UNL d   1      -8.823  -6.226  -8.286 -0.42 +0.02    +0.052 C 
DOCKED: ATOM     15  C   UNL d   1      -8.624  -0.039  -8.775 -0.13 +0.02    +0.066 A 
DOCKED: ATOM     16  C   UNL d   1      -8.923   1.219  -8.272 -0.21 -0.00    -0.021 A 
DOCKED: ATOM     17  C   UNL d   1      -8.601   2.124  -9.294 -0.16 +0.00    +0.000 A 
DOCKED: ATOM     18  C   UNL d   1      -8.114   1.344 -10.338 -0.08 +0.03    +0.070 A 
DOCKED: ATOM     19  C   UNL d   1      -9.481   1.504  -6.895 -0.23 +0.01    +0.052 C 
DOCKED: ATOM     20  C   UNL d   1      -7.282   1.075 -12.704 -0.05 +0.05    +0.066 A 
DOCKED: ATOM     21  C   UNL d   1      -6.919   1.647 -13.921 -0.07 -0.02    -0.025 A 
DOCKED: ATOM     22  C   UNL d   1      -6.604   0.587 -14.752 -0.04 -0.02    -0.021 A 
DOCKED: ATOM     23  C   UNL d   1      -6.804  -0.589 -13.998 -0.05 +0.07    +0.066 A 
DOCKED: ATOM     24  C   UNL d   1      -6.893   3.130 -14.282 -0.08 +0.05    +0.051 C 
DOCKED: ATOM     25  N   UNL d   1      -7.427  -3.059 -12.463 -0.08 -0.20    -0.248 N 
DOCKED: ATOM     26  N   UNL d   1      -8.298  -2.888  -9.827 -0.09 -0.11    -0.248 N 
DOCKED: ATOM     27  N   UNL d   1      -8.171   0.059 -10.005 -0.03 -0.10    -0.248 N 
DOCKED: ATOM     28  N   UNL d   1      -7.216  -0.298 -12.758 -0.02 -0.19    -0.248 N 
DOCKED: ATOM     29 FE   UNL d   1      -7.820  -1.405 -11.163 -0.02 +0.00    +0.000 Fe
DOCKED: ENDROOT
DOCKED: BRANCH   6  30
DOCKED: ATOM     30  C   UNL d   1      -6.697  -4.681 -15.792 -0.12 +0.05    +0.052 C 
DOCKED: BRANCH  30  31
DOCKED: ATOM     31  C   UNL d   1      -5.303  -5.302 -15.886 -0.17 +0.15    +0.115 C 
DOCKED: BRANCH  31  32
DOCKED: ATOM     32  C   UNL d   1      -5.348  -6.764 -16.276 -0.12 +0.21    +0.139 C 
DOCKED: ATOM     33  O   UNL d   1      -6.014  -7.108 -17.241 -0.32 -1.21    -0.650 OA
DOCKED: BRANCH  32  34
DOCKED: ATOM     34  O   UNL d   1      -4.632  -7.705 -15.618 -0.19 -1.14    -0.776 OA
DOCKED: ATOM     35  H   UNL d   1      -4.902  -8.108 -14.781 +0.08 +0.15    +0.167 HD
DOCKED: ENDBRANCH  32  34
DOCKED: ENDBRANCH  31  32
DOCKED: ENDBRANCH  30  31
DOCKED: ENDBRANCH   6  30
DOCKED: BRANCH  29  36
DOCKED: ATOM     36  C   UNL d   1      -9.782  -1.438 -11.899 -0.01 +0.08    +0.190 C 
DOCKED: BRANCH  36  37
DOCKED: ATOM     37  O   UNL d   1     -10.552  -1.818 -13.003 +0.00 -0.17    -0.399 OA
DOCKED: ATOM     38  H   UNL d   1      -9.894  -1.947 -13.742 +0.01 +0.10    +0.209 HD
DOCKED: ENDBRANCH  36  37
DOCKED: ENDBRANCH  29  36
DOCKED: BRANCH  22  39
DOCKED: ATOM     39  C   UNL d   1      -6.198   0.703 -16.209 -0.02 +0.04    +0.052 C 
DOCKED: BRANCH  39  40
DOCKED: ATOM     40  C   UNL d   1      -4.737   0.265 -16.401 -0.04 +0.13    +0.115 C 
DOCKED: BRANCH  40  41
DOCKED: ATOM     41  C   UNL d   1      -3.767   0.869 -15.407 -0.09 +0.20    +0.139 C 
DOCKED: ATOM     42  O   UNL d   1      -3.907   2.035 -15.068 -0.49 -1.29    -0.650 OA
DOCKED: BRANCH  41  43
DOCKED: ATOM     43  O   UNL d   1      -2.803   0.129 -14.816 -0.31 -1.43    -0.776 OA
DOCKED: ATOM     44  H   UNL d   1      -1.863   0.263 -14.994 +0.03 +0.25    +0.167 HD
DOCKED: ENDBRANCH  41  43
DOCKED: ENDBRANCH  40  41
DOCKED: ENDBRANCH  39  40
DOCKED: ENDBRANCH  22  39
DOCKED: BRANCH  12  45
DOCKED: ATOM     45  C   UNL d   1      -9.305  -3.572  -6.301 -0.48 +0.00    +0.004 C 
DOCKED: ATOM     46  C   UNL d   1      -8.768  -2.846  -5.324 -0.55 +0.00    +0.012 C 
DOCKED: ENDBRANCH  12  45
DOCKED: BRANCH  17  47
DOCKED: ATOM     47  C   UNL d   1      -8.772   3.607  -9.344 -0.19 +0.00    +0.004 C 
DOCKED: ATOM     48  C   UNL d   1      -8.083   4.454  -8.576 -0.34 +0.00    +0.012 C 
DOCKED: ENDBRANCH  17  47
DOCKED: TORSDOF 12
DOCKED: TER
DOCKED: ENDMDL
________________________________________________________________________________


	BEGINNING GENETIC ALGORITHM DOCKING 36 of 100
Run: 36 Seed: 665443206 724254902 [ Run 36 of 100 GA/GALS ]
Beginning LAMARCKIAN GENETIC ALGORITHM (LGA), with a maximum of 25000000 energy evaluations.

Final-Value: -12.030


	FINAL GENETIC ALGORITHM DOCKED STATE
	_______________________________________________


Detailed state:  trans -1.310 -14.147 5.556 quatxyzw -0.674085 -0.373081 -0.121680 0.625791 center 8.781 34.984 -0.736 ntor 12 -45.2233 107.3715 -163.8803 27.1671 87.8924 152.2321 20.0562 123.7054 57.6320 -91.5699 34.9932 -3.5289
State:	 -1.310 -14.147   5.556  -0.864 -0.478 -0.156 102.519    -45.22  107.37 -163.88   27.17   87.89  152.23   20.06  123.71   57.63  -91.57   34.99   -3.53

DOCKED: MODEL       36
DOCKED: USER    Run = 36
DOCKED: USER    DPF = D:/Protein_go_brrr/autodock/final/AncB/heme_Co/dock.dpf
DOCKED: USER  
DOCKED: USER    Estimated Free Energy of Binding    =   -6.24 kcal/mol  [=(1)+(2)+(3)-(4)]
DOCKED: USER    Estimated Inhibition Constant, Ki   =   26.79 uM (micromolar)  [Temperature = 298.15 K]
DOCKED: USER    
DOCKED: USER    (1) Final Intermolecular Energy     =   -9.82 kcal/mol
DOCKED: USER        vdW + Hbond + desolv Energy     =   -5.84 kcal/mol
DOCKED: USER        Electrostatic Energy            =   -3.98 kcal/mol
DOCKED: USER    (2) Final Total Internal Energy     =   -2.21 kcal/mol
DOCKED: USER    (3) Torsional Free Energy           =   +3.58 kcal/mol
DOCKED: USER    (4) Unbound System's Energy  [=(2)] =   -2.21 kcal/mol
DOCKED: USER    
DOCKED: USER    
DOCKED: USER    NEWDPF move heme_Co_opt.pdbqt
DOCKED: USER    NEWDPF about 8.781000 34.984000 -0.736000
DOCKED: USER    NEWDPF tran0 -1.309641 -14.147363 5.556046
DOCKED: USER    NEWDPF quaternion0 -0.674085 -0.373081 -0.121680 0.625791
DOCKED: USER    NEWDPF axisangle0 -0.864221 -0.478315 -0.156002 102.519429
DOCKED: USER    NEWDPF quat0 -0.864221 -0.478315 -0.156002 102.519429
DOCKED: USER    NEWDPF dihe0 -45.22 107.37 -163.88 27.17 87.89 152.23 20.06 123.71 57.63 -91.57 34.99 -3.53 
DOCKED: USER  keepresnum = 1 
DOCKED: USER  
DOCKED: REMARK  12 active torsions:
DOCKED: REMARK  status: ('A' for Active; 'I' for Inactive)
DOCKED: REMARK    1  A    between atoms: C_6  and  C_10 
DOCKED: REMARK    2  A    between atoms: C_10  and  C_11 
DOCKED: REMARK    3  A    between atoms: C_11  and  C_12 
DOCKED: REMARK    4  A    between atoms: C_12  and  O_14 
DOCKED: REMARK    5  A    between atoms: C_17  and  C_20 
DOCKED: REMARK    6  A    between atoms: C_24  and  C_27 
DOCKED: REMARK    7  A    between atoms: C_31  and  C_34 
DOCKED: REMARK    8  A    between atoms: C_34  and  C_35 
DOCKED: REMARK    9  A    between atoms: C_35  and  C_36 
DOCKED: REMARK   10  A    between atoms: C_36  and  O_38 
DOCKED: REMARK   11  A    between atoms: FE_43  and  C_44 
DOCKED: REMARK   12  A    between atoms: C_44  and  O_45 
DOCKED: USER                              x       y       z     vdW  Elec       q    Type
DOCKED: USER                           _______ _______ _______ _____ _____    ______ ____
DOCKED: ROOT
DOCKED: ATOM      1  C   UNL d   1      -3.010 -14.745   6.768 -0.07 +0.03    +0.064 A 
DOCKED: ATOM      2  C   UNL d   1      -0.715 -16.896   3.201 -0.07 +0.02    +0.064 C 
DOCKED: ATOM      3  C   UNL d   1       2.000 -13.017   2.559 -0.21 +0.01    +0.064 A 
DOCKED: ATOM      4  C   UNL d   1      -0.065 -10.944   6.446 -0.17 +0.01    +0.064 A 
DOCKED: ATOM      5  C   UNL d   1      -2.607 -15.604   5.817 -0.06 +0.03    +0.066 A 
DOCKED: ATOM      6  C   UNL d   1      -3.127 -16.909   5.720 -0.03 -0.01    -0.021 A 
DOCKED: ATOM      7  C   UNL d   1      -2.441 -17.536   4.698 -0.03 -0.01    -0.025 A 
DOCKED: ATOM      8  C   UNL d   1      -1.545 -16.583   4.205 -0.06 +0.03    +0.066 A 
DOCKED: ATOM      9  C   UNL d   1      -2.612 -18.978   4.195 -0.01 +0.03    +0.051 C 
DOCKED: ATOM     10  C   UNL d   1       0.222 -15.973   2.611 -0.10 +0.02    +0.066 A 
DOCKED: ATOM     11  C   UNL d   1       1.020 -16.196   1.468 -0.10 -0.00    -0.021 A 
DOCKED: ATOM     12  C   UNL d   1       1.798 -15.047   1.301 -0.16 +0.00    +0.000 A 
DOCKED: ATOM     13  C   UNL d   1       1.411 -14.206   2.344 -0.17 +0.02    +0.070 A 
DOCKED: ATOM     14  C   UNL d   1       0.955 -17.393   0.555 -0.09 +0.01    +0.052 C 
DOCKED: ATOM     15  C   UNL d   1       1.763 -12.050   3.613 -0.22 +0.01    +0.066 A 
DOCKED: ATOM     16  C   UNL d   1       2.507 -10.905   3.863 -0.26 -0.00    -0.021 A 
DOCKED: ATOM     17  C   UNL d   1       1.916 -10.305   4.985 -0.31 +0.00    +0.000 A 
DOCKED: ATOM     18  C   UNL d   1       0.844 -11.125   5.321 -0.24 +0.01    +0.070 A 
DOCKED: ATOM     19  C   UNL d   1       3.703 -10.444   3.061 -0.33 -0.00    +0.052 C 
DOCKED: ATOM     20  C   UNL d   1      -1.060 -11.773   6.843 -0.22 +0.01    +0.066 A 
DOCKED: ATOM     21  C   UNL d   1      -1.844 -11.508   7.964 -0.24 -0.01    -0.025 A 
DOCKED: ATOM     22  C   UNL d   1      -2.722 -12.573   8.065 -0.15 -0.01    -0.021 A 
DOCKED: ATOM     23  C   UNL d   1      -2.418 -13.447   6.999 -0.12 +0.02    +0.066 A 
DOCKED: ATOM     24  C   UNL d   1      -1.751 -10.310   8.905 -0.26 +0.01    +0.051 C 
DOCKED: ATOM     25  N   UNL d   1      -1.630 -15.374   4.875 -0.00 -0.11    -0.248 N 
DOCKED: ATOM     26  N   UNL d   1       0.418 -14.744   3.102 -0.09 -0.10    -0.248 N 
DOCKED: ATOM     27  N   UNL d   1       0.802 -12.170   4.502 -0.08 -0.06    -0.248 N 
DOCKED: ATOM     28  N   UNL d   1      -1.411 -12.967   6.259 -0.10 -0.07    -0.248 N 
DOCKED: ATOM     29 FE   UNL d   1      -0.344 -13.675   4.680 -0.05 +0.00    +0.000 Fe
DOCKED: ENDROOT
DOCKED: BRANCH   6  30
DOCKED: ATOM     30  C   UNL d   1      -4.177 -17.540   6.629 -0.02 +0.04    +0.052 C 
DOCKED: BRANCH  30  31
DOCKED: ATOM     31  C   UNL d   1      -5.413 -17.941   5.824 -0.05 +0.16    +0.115 C 
DOCKED: BRANCH  31  32
DOCKED: ATOM     32  C   UNL d   1      -6.682 -17.320   6.366 +0.09 +0.31    +0.139 C 
DOCKED: ATOM     33  O   UNL d   1      -7.506 -18.028   6.926 -0.12 -1.37    -0.650 OA
DOCKED: BRANCH  32  34
DOCKED: ATOM     34  O   UNL d   1      -6.916 -15.989   6.296 +0.01 -2.34    -0.776 OA
DOCKED: ATOM     35  H   UNL d   1      -6.284 -15.310   6.570 +0.04 +0.35    +0.167 HD
DOCKED: ENDBRANCH  32  34
DOCKED: ENDBRANCH  31  32
DOCKED: ENDBRANCH  30  31
DOCKED: ENDBRANCH   6  30
DOCKED: BRANCH  29  36
DOCKED: ATOM     36  C   UNL d   1       0.971 -14.662   5.981 -0.03 +0.04    +0.190 C 
DOCKED: BRANCH  36  37
DOCKED: ATOM     37  O   UNL d   1       1.116 -15.821   6.751 +0.00 -0.07    -0.399 OA
DOCKED: ATOM     38  H   UNL d   1       0.237 -16.288   6.679 +0.01 +0.05    +0.209 HD
DOCKED: ENDBRANCH  36  37
DOCKED: ENDBRANCH  29  36
DOCKED: BRANCH  22  39
DOCKED: ATOM     39  C   UNL d   1      -3.749 -12.765   9.165 -0.14 +0.02    +0.052 C 
DOCKED: BRANCH  39  40
DOCKED: ATOM     40  C   UNL d   1      -5.135 -12.288   8.702 -0.25 +0.06    +0.115 C 
DOCKED: BRANCH  40  41
DOCKED: ATOM     41  C   UNL d   1      -5.906 -13.305   7.887 -0.27 +0.11    +0.139 C 
DOCKED: ATOM     42  O   UNL d   1      -5.898 -13.225   6.667 -0.03 -0.65    -0.650 OA
DOCKED: BRANCH  41  43
DOCKED: ATOM     43  O   UNL d   1      -6.532 -14.353   8.467 -0.03 -0.83    -0.776 OA
DOCKED: ATOM     44  H   UNL d   1      -6.749 -15.161   7.984 +0.04 +0.26    +0.167 HD
DOCKED: ENDBRANCH  41  43
DOCKED: ENDBRANCH  40  41
DOCKED: ENDBRANCH  39  40
DOCKED: ENDBRANCH  22  39
DOCKED: BRANCH  12  45
DOCKED: ATOM     45  C   UNL d   1       2.844 -14.642   0.270 -0.14 +0.00    +0.004 C 
DOCKED: ATOM     46  C   UNL d   1       3.091 -15.120  -0.946 -0.28 +0.00    +0.012 C 
DOCKED: ENDBRANCH  12  45
DOCKED: BRANCH  17  47
DOCKED: ATOM     47  C   UNL d   1       2.328  -9.086   5.742 -0.34 +0.00    +0.004 C 
DOCKED: ATOM     48  C   UNL d   1       2.298  -7.854   5.228 -0.34 +0.00    +0.012 C 
DOCKED: ENDBRANCH  17  47
DOCKED: TORSDOF 12
DOCKED: TER
DOCKED: ENDMDL
________________________________________________________________________________


	BEGINNING GENETIC ALGORITHM DOCKING 37 of 100
Run: 37 Seed: 101824979 721580278 [ Run 37 of 100 GA/GALS ]
Beginning LAMARCKIAN GENETIC ALGORITHM (LGA), with a maximum of 25000000 energy evaluations.

Final-Value: -9.504


	FINAL GENETIC ALGORITHM DOCKED STATE
	_______________________________________________


Detailed state:  trans 16.212 -3.235 -11.802 quatxyzw 0.776497 0.507868 0.310472 0.206713 center 8.781 34.984 -0.736 ntor 12 -151.7521 114.6430 76.8094 56.5974 121.7023 126.4195 45.4033 104.8961 151.0617 -25.9649 -154.0640 -65.8929
State:	 16.212  -3.235 -11.802   0.794  0.519  0.317 156.140   -151.75  114.64   76.81   56.60  121.70  126.42   45.40  104.90  151.06  -25.96 -154.06  -65.89

DOCKED: MODEL       37
DOCKED: USER    Run = 37
DOCKED: USER    DPF = D:/Protein_go_brrr/autodock/final/AncB/heme_Co/dock.dpf
DOCKED: USER  
DOCKED: USER    Estimated Free Energy of Binding    =   -3.99 kcal/mol  [=(1)+(2)+(3)-(4)]
DOCKED: USER    Estimated Inhibition Constant, Ki   =    1.19 mM (millimolar)  [Temperature = 298.15 K]
DOCKED: USER    
DOCKED: USER    (1) Final Intermolecular Energy     =   -7.57 kcal/mol
DOCKED: USER        vdW + Hbond + desolv Energy     =   -6.82 kcal/mol
DOCKED: USER        Electrostatic Energy            =   -0.74 kcal/mol
DOCKED: USER    (2) Final Total Internal Energy     =   -1.94 kcal/mol
DOCKED: USER    (3) Torsional Free Energy           =   +3.58 kcal/mol
DOCKED: USER    (4) Unbound System's Energy  [=(2)] =   -1.94 kcal/mol
DOCKED: USER    
DOCKED: USER    
DOCKED: USER    NEWDPF move heme_Co_opt.pdbqt
DOCKED: USER    NEWDPF about 8.781000 34.984000 -0.736000
DOCKED: USER    NEWDPF tran0 16.212445 -3.235089 -11.801667
DOCKED: USER    NEWDPF quaternion0 0.776497 0.507868 0.310472 0.206713
DOCKED: USER    NEWDPF axisangle0 0.793638 0.519079 0.317325 156.140420
DOCKED: USER    NEWDPF quat0 0.793638 0.519079 0.317325 156.140420
DOCKED: USER    NEWDPF dihe0 -151.75 114.64 76.81 56.60 121.70 126.42 45.40 104.90 151.06 -25.96 -154.06 -65.89 
DOCKED: USER  keepresnum = 1 
DOCKED: USER  
DOCKED: REMARK  12 active torsions:
DOCKED: REMARK  status: ('A' for Active; 'I' for Inactive)
DOCKED: REMARK    1  A    between atoms: C_6  and  C_10 
DOCKED: REMARK    2  A    between atoms: C_10  and  C_11 
DOCKED: REMARK    3  A    between atoms: C_11  and  C_12 
DOCKED: REMARK    4  A    between atoms: C_12  and  O_14 
DOCKED: REMARK    5  A    between atoms: C_17  and  C_20 
DOCKED: REMARK    6  A    between atoms: C_24  and  C_27 
DOCKED: REMARK    7  A    between atoms: C_31  and  C_34 
DOCKED: REMARK    8  A    between atoms: C_34  and  C_35 
DOCKED: REMARK    9  A    between atoms: C_35  and  C_36 
DOCKED: REMARK   10  A    between atoms: C_36  and  O_38 
DOCKED: REMARK   11  A    between atoms: FE_43  and  C_44 
DOCKED: REMARK   12  A    between atoms: C_44  and  O_45 
DOCKED: USER                              x       y       z     vdW  Elec       q    Type
DOCKED: USER                           _______ _______ _______ _____ _____    ______ ____
DOCKED: ROOT
DOCKED: ATOM      1  C   UNL d   1      15.875  -5.253 -12.530 -0.12 +0.03    +0.064 A 
DOCKED: ATOM      2  C   UNL d   1      14.819  -0.984 -14.340 -0.21 +0.02    +0.064 C 
DOCKED: ATOM      3  C   UNL d   1      16.410   1.136 -10.364 -0.29 +0.03    +0.064 A 
DOCKED: ATOM      4  C   UNL d   1      17.852  -3.183  -8.653 -0.16 +0.02    +0.064 A 
DOCKED: ATOM      5  C   UNL d   1      15.436  -4.245 -13.302 -0.09 +0.03    +0.066 A 
DOCKED: ATOM      6  C   UNL d   1      14.950  -4.459 -14.606 -0.11 -0.01    -0.021 A 
DOCKED: ATOM      7  C   UNL d   1      14.666  -3.215 -15.135 -0.13 -0.01    -0.025 A 
DOCKED: ATOM      8  C   UNL d   1      14.976  -2.297 -14.126 -0.09 +0.02    +0.066 A 
DOCKED: ATOM      9  C   UNL d   1      14.125  -2.887 -16.535 -0.10 +0.01    +0.051 C 
DOCKED: ATOM     10  C   UNL d   1      15.086   0.032 -13.353 -0.20 +0.02    +0.066 A 
DOCKED: ATOM     11  C   UNL d   1      14.809   1.412 -13.466 -0.26 -0.01    -0.021 A 
DOCKED: ATOM     12  C   UNL d   1      15.280   2.006 -12.292 -0.27 +0.00    +0.000 A 
DOCKED: ATOM     13  C   UNL d   1      15.795   0.946 -11.545 -0.26 +0.03    +0.070 A 
DOCKED: ATOM     14  C   UNL d   1      14.059   2.082 -14.588 -0.28 +0.02    +0.052 C 
DOCKED: ATOM     15  C   UNL d   1      17.042   0.168  -9.490 -0.28 +0.02    +0.066 A 
DOCKED: ATOM     16  C   UNL d   1      17.787   0.449  -8.353 -0.27 -0.01    -0.021 A 
DOCKED: ATOM     17  C   UNL d   1      18.207  -0.794  -7.858 -0.28 +0.00    +0.000 A 
DOCKED: ATOM     18  C   UNL d   1      17.669  -1.739  -8.725 -0.20 +0.02    +0.070 A 
DOCKED: ATOM     19  C   UNL d   1      18.062   1.831  -7.804 -0.17 +0.04    +0.052 C 
DOCKED: ATOM     20  C   UNL d   1      17.411  -4.114  -9.533 -0.15 +0.03    +0.066 A 
DOCKED: ATOM     21  C   UNL d   1      17.681  -5.472  -9.375 -0.11 -0.01    -0.025 A 
DOCKED: ATOM     22  C   UNL d   1      17.099  -6.097 -10.463 -0.11 -0.01    -0.021 A 
DOCKED: ATOM     23  C   UNL d   1      16.508  -5.080 -11.243 -0.13 +0.03    +0.066 A 
DOCKED: ATOM     24  C   UNL d   1      18.473  -6.141  -8.254 -0.07 +0.01    +0.051 C 
DOCKED: ATOM     25  N   UNL d   1      15.449  -2.907 -12.977 +0.01 -0.10    -0.248 N 
DOCKED: ATOM     26  N   UNL d   1      15.627  -0.253 -12.163 -0.16 -0.08    -0.248 N 
DOCKED: ATOM     27  N   UNL d   1      17.007  -1.129  -9.702 -0.18 -0.08    -0.248 N 
DOCKED: ATOM     28  N   UNL d   1      16.697  -3.878 -10.684 -0.12 -0.10    -0.248 N 
DOCKED: ATOM     29 FE   UNL d   1      16.275  -1.968 -11.240 -0.05 +0.00    +0.000 Fe
DOCKED: ENDROOT
DOCKED: BRANCH   6  30
DOCKED: ATOM     30  C   UNL d   1      14.846  -5.797 -15.330 -0.05 +0.01    +0.052 C 
DOCKED: BRANCH  30  31
DOCKED: ATOM     31  C   UNL d   1      16.236  -6.330 -15.676 -0.01 +0.02    +0.115 C 
DOCKED: BRANCH  31  32
DOCKED: ATOM     32  C   UNL d   1      17.233  -5.220 -15.930 -0.01 +0.03    +0.139 C 
DOCKED: ATOM     33  O   UNL d   1      17.295  -4.710 -17.038 +0.00 -0.11    -0.650 OA
DOCKED: BRANCH  32  34
DOCKED: ATOM     34  O   UNL d   1      18.032  -4.737 -14.951 +0.02 -0.15    -0.776 OA
DOCKED: ATOM     35  H   UNL d   1      18.424  -3.852 -14.956 +0.01 +0.03    +0.167 HD
DOCKED: ENDBRANCH  32  34
DOCKED: ENDBRANCH  31  32
DOCKED: ENDBRANCH  30  31
DOCKED: ENDBRANCH   6  30
DOCKED: BRANCH  29  36
DOCKED: ATOM     36  C   UNL d   1      18.080  -1.853 -12.300 -0.04 +0.05    +0.190 C 
DOCKED: BRANCH  36  37
DOCKED: ATOM     37  O   UNL d   1      18.825  -2.481 -13.303 +0.00 -0.08    -0.399 OA
DOCKED: ATOM     38  H   UNL d   1      18.254  -3.239 -13.611 +0.02 +0.05    +0.209 HD
DOCKED: ENDBRANCH  36  37
DOCKED: ENDBRANCH  29  36
DOCKED: BRANCH  22  39
DOCKED: ATOM     39  C   UNL d   1      17.166  -7.582 -10.765 -0.08 +0.03    +0.052 C 
DOCKED: BRANCH  39  40
DOCKED: ATOM     40  C   UNL d   1      17.131  -8.402  -9.465 -0.06 +0.06    +0.115 C 
DOCKED: BRANCH  40  41
DOCKED: ATOM     41  C   UNL d   1      16.463  -9.754  -9.597 -0.02 +0.07    +0.139 C 
DOCKED: ATOM     42  O   UNL d   1      15.447  -9.985  -8.956 -0.35 -0.54    -0.650 OA
DOCKED: BRANCH  41  43
DOCKED: ATOM     43  O   UNL d   1      16.908 -10.685 -10.470 +0.02 -0.23    -0.776 OA
DOCKED: ATOM     44  H   UNL d   1      17.641 -11.281 -10.265 +0.01 +0.03    +0.167 HD
DOCKED: ENDBRANCH  41  43
DOCKED: ENDBRANCH  40  41
DOCKED: ENDBRANCH  39  40
DOCKED: ENDBRANCH  22  39
DOCKED: BRANCH  12  45
DOCKED: ATOM     45  C   UNL d   1      15.284   3.441 -11.783 -0.36 +0.00    +0.004 C 
DOCKED: ATOM     46  C   UNL d   1      14.310   4.346 -11.735 -0.47 +0.01    +0.012 C 
DOCKED: ENDBRANCH  12  45
DOCKED: BRANCH  17  47
DOCKED: ATOM     47  C   UNL d   1      19.089  -1.108  -6.694 -0.28 +0.00    +0.004 C 
DOCKED: ATOM     48  C   UNL d   1      18.627  -1.493  -5.502 -0.35 +0.00    +0.012 C 
DOCKED: ENDBRANCH  17  47
DOCKED: TORSDOF 12
DOCKED: TER
DOCKED: ENDMDL
________________________________________________________________________________


	BEGINNING GENETIC ALGORITHM DOCKING 38 of 100
Run: 38 Seed: 1014341361 2047103077 [ Run 38 of 100 GA/GALS ]
Beginning LAMARCKIAN GENETIC ALGORITHM (LGA), with a maximum of 25000000 energy evaluations.

Final-Value: -12.343


	FINAL GENETIC ALGORITHM DOCKED STATE
	_______________________________________________


Detailed state:  trans 4.534 0.079 -17.577 quatxyzw 0.039019 -0.168035 0.247949 0.953291 center 8.781 34.984 -0.736 ntor 12 -11.3658 156.8602 -46.3109 -104.5424 -85.3843 -58.6396 -13.6187 119.0764 25.2916 84.4091 139.7010 -156.6524
State:	  4.534   0.079 -17.577   0.129 -0.556  0.821 35.162    -11.37  156.86  -46.31 -104.54  -85.38  -58.64  -13.62  119.08   25.29   84.41  139.70 -156.65

DOCKED: MODEL       38
DOCKED: USER    Run = 38
DOCKED: USER    DPF = D:/Protein_go_brrr/autodock/final/AncB/heme_Co/dock.dpf
DOCKED: USER  
DOCKED: USER    Estimated Free Energy of Binding    =   -8.25 kcal/mol  [=(1)+(2)+(3)-(4)]
DOCKED: USER    Estimated Inhibition Constant, Ki   =  904.16 nM (nanomolar)  [Temperature = 298.15 K]
DOCKED: USER    
DOCKED: USER    (1) Final Intermolecular Energy     =  -11.82 kcal/mol
DOCKED: USER        vdW + Hbond + desolv Energy     =   -8.61 kcal/mol
DOCKED: USER        Electrostatic Energy            =   -3.22 kcal/mol
DOCKED: USER    (2) Final Total Internal Energy     =   -0.52 kcal/mol
DOCKED: USER    (3) Torsional Free Energy           =   +3.58 kcal/mol
DOCKED: USER    (4) Unbound System's Energy  [=(2)] =   -0.52 kcal/mol
DOCKED: USER    
DOCKED: USER    
DOCKED: USER    NEWDPF move heme_Co_opt.pdbqt
DOCKED: USER    NEWDPF about 8.781000 34.984000 -0.736000
DOCKED: USER    NEWDPF tran0 4.533824 0.078967 -17.577471
DOCKED: USER    NEWDPF quaternion0 0.039019 -0.168035 0.247949 0.953291
DOCKED: USER    NEWDPF axisangle0 0.129180 -0.556307 0.820875 35.162133
DOCKED: USER    NEWDPF quat0 0.129180 -0.556307 0.820875 35.162133
DOCKED: USER    NEWDPF dihe0 -11.37 156.86 -46.31 -104.54 -85.38 -58.64 -13.62 119.08 25.29 84.41 139.70 -156.65 
DOCKED: USER  keepresnum = 1 
DOCKED: USER  
DOCKED: REMARK  12 active torsions:
DOCKED: REMARK  status: ('A' for Active; 'I' for Inactive)
DOCKED: REMARK    1  A    between atoms: C_6  and  C_10 
DOCKED: REMARK    2  A    between atoms: C_10  and  C_11 
DOCKED: REMARK    3  A    between atoms: C_11  and  C_12 
DOCKED: REMARK    4  A    between atoms: C_12  and  O_14 
DOCKED: REMARK    5  A    between atoms: C_17  and  C_20 
DOCKED: REMARK    6  A    between atoms: C_24  and  C_27 
DOCKED: REMARK    7  A    between atoms: C_31  and  C_34 
DOCKED: REMARK    8  A    between atoms: C_34  and  C_35 
DOCKED: REMARK    9  A    between atoms: C_35  and  C_36 
DOCKED: REMARK   10  A    between atoms: C_36  and  O_38 
DOCKED: REMARK   11  A    between atoms: FE_43  and  C_44 
DOCKED: REMARK   12  A    between atoms: C_44  and  O_45 
DOCKED: USER                              x       y       z     vdW  Elec       q    Type
DOCKED: USER                           _______ _______ _______ _____ _____    ______ ____
DOCKED: ROOT
DOCKED: ATOM      1  C   UNL d   1       2.887   1.463 -17.873 -0.08 +0.03    +0.064 A 
DOCKED: ATOM      2  C   UNL d   1       3.966  -1.507 -14.320 -0.27 +0.01    +0.064 C 
DOCKED: ATOM      3  C   UNL d   1       7.655  -3.223 -16.825 -0.14 +0.01    +0.064 A 
DOCKED: ATOM      4  C   UNL d   1       6.806   0.068 -20.305 -0.08 +0.02    +0.064 A 
DOCKED: ATOM      5  C   UNL d   1       2.889   0.752 -16.733 -0.10 +0.03    +0.066 A 
DOCKED: ATOM      6  C   UNL d   1       1.982   1.014 -15.688 -0.12 -0.01    -0.021 A 
DOCKED: ATOM      7  C   UNL d   1       2.314   0.165 -14.650 -0.19 -0.01    -0.025 A 
DOCKED: ATOM      8  C   UNL d   1       3.398  -0.590 -15.113 -0.18 +0.02    +0.066 A 
DOCKED: ATOM      9  C   UNL d   1       1.647   0.056 -13.271 -0.26 +0.03    +0.051 C 
DOCKED: ATOM     10  C   UNL d   1       5.067  -2.348 -14.718 -0.19 +0.01    +0.066 A 
DOCKED: ATOM     11  C   UNL d   1       5.616  -3.423 -13.986 -0.43 -0.00    -0.021 A 
DOCKED: ATOM     12  C   UNL d   1       6.687  -3.908 -14.741 -0.40 +0.00    +0.000 A 
DOCKED: ATOM     13  C   UNL d   1       6.705  -3.103 -15.881 -0.22 +0.01    +0.070 A 
DOCKED: ATOM     14  C   UNL d   1       5.076  -3.993 -12.699 -0.35 +0.01    +0.052 C 
DOCKED: ATOM     15  C   UNL d   1       7.855  -2.446 -18.032 -0.09 +0.01    +0.066 A 
DOCKED: ATOM     16  C   UNL d   1       8.941  -2.526 -18.892 -0.07 -0.00    -0.021 A 
DOCKED: ATOM     17  C   UNL d   1       8.702  -1.577 -19.896 -0.07 +0.00    +0.000 A 
DOCKED: ATOM     18  C   UNL d   1       7.476  -1.003 -19.578 -0.08 +0.02    +0.070 A 
DOCKED: ATOM     19  C   UNL d   1      10.118  -3.462 -18.733 -0.06 +0.01    +0.052 C 
DOCKED: ATOM     20  C   UNL d   1       5.657   0.701 -19.967 -0.06 +0.03    +0.066 A 
DOCKED: ATOM     21  C   UNL d   1       5.131   1.742 -20.728 -0.04 -0.01    -0.025 A 
DOCKED: ATOM     22  C   UNL d   1       3.985   2.145 -20.067 -0.06 -0.01    -0.021 A 
DOCKED: ATOM     23  C   UNL d   1       3.875   1.331 -18.919 -0.00 +0.03    +0.066 A 
DOCKED: ATOM     24  C   UNL d   1       5.701   2.339 -22.012 -0.05 +0.02    +0.051 C 
DOCKED: ATOM     25  N   UNL d   1       3.771  -0.251 -16.402 -0.07 -0.09    -0.248 N 
DOCKED: ATOM     26  N   UNL d   1       5.691  -2.198 -15.892 -0.13 -0.03    -0.248 N 
DOCKED: ATOM     27  N   UNL d   1       7.015  -1.523 -18.445 -0.05 -0.05    -0.248 N 
DOCKED: ATOM     28  N   UNL d   1       4.887   0.457 -18.854 -0.05 -0.12    -0.248 N 
DOCKED: ATOM     29 FE   UNL d   1       5.489  -0.923 -17.487 -0.03 +0.00    +0.000 Fe
DOCKED: ENDROOT
DOCKED: BRANCH   6  30
DOCKED: ATOM     30  C   UNL d   1       0.902   2.091 -15.668 -0.13 +0.03    +0.052 C 
DOCKED: BRANCH  30  31
DOCKED: ATOM     31  C   UNL d   1       0.885   2.809 -14.319 -0.20 +0.09    +0.115 C 
DOCKED: BRANCH  31  32
DOCKED: ATOM     32  C   UNL d   1      -0.453   3.452 -14.025 -0.21 +0.19    +0.139 C 
DOCKED: ATOM     33  O   UNL d   1      -0.489   4.528 -13.447 -0.78 -0.99    -0.650 OA
DOCKED: BRANCH  32  34
DOCKED: ATOM     34  O   UNL d   1      -1.620   2.896 -14.425 +0.03 -1.47    -0.776 OA
DOCKED: ATOM     35  H   UNL d   1      -1.689   2.196 -15.090 +0.03 +0.24    +0.167 HD
DOCKED: ENDBRANCH  32  34
DOCKED: ENDBRANCH  31  32
DOCKED: ENDBRANCH  30  31
DOCKED: ENDBRANCH   6  30
DOCKED: BRANCH  29  36
DOCKED: ATOM     36  C   UNL d   1       6.575   0.541 -16.453 -0.14 +0.07    +0.190 C 
DOCKED: BRANCH  36  37
DOCKED: ATOM     37  O   UNL d   1       7.833   0.817 -15.906 -0.80 -0.13    -0.399 OA
DOCKED: ATOM     38  H   UNL d   1       8.485   0.507 -16.594 -0.48 +0.02    +0.209 HD
DOCKED: ENDBRANCH  36  37
DOCKED: ENDBRANCH  29  36
DOCKED: BRANCH  22  39
DOCKED: ATOM     39  C   UNL d   1       3.085   3.293 -20.485 -0.07 +0.02    +0.052 C 
DOCKED: BRANCH  39  40
DOCKED: ATOM     40  C   UNL d   1       3.894   4.594 -20.621 -0.11 +0.07    +0.115 C 
DOCKED: BRANCH  40  41
DOCKED: ATOM     41  C   UNL d   1       3.760   5.539 -19.446 -0.20 +0.14    +0.139 C 
DOCKED: ATOM     42  O   UNL d   1       3.040   6.522 -19.548 -0.00 -0.76    -0.650 OA
DOCKED: BRANCH  41  43
DOCKED: ATOM     43  O   UNL d   1       4.346   5.280 -18.256 -0.13 -0.75    -0.776 OA
DOCKED: ATOM     44  H   UNL d   1       4.375   4.394 -17.873 -0.49 +0.06    +0.167 HD
DOCKED: ENDBRANCH  41  43
DOCKED: ENDBRANCH  40  41
DOCKED: ENDBRANCH  39  40
DOCKED: ENDBRANCH  22  39
DOCKED: BRANCH  12  45
DOCKED: ATOM     45  C   UNL d   1       7.678  -5.044 -14.527 -0.42 +0.00    +0.004 C 
DOCKED: ATOM     46  C   UNL d   1       8.991  -5.019 -14.310 -0.40 +0.00    +0.012 C 
DOCKED: ENDBRANCH  12  45
DOCKED: BRANCH  17  47
DOCKED: ATOM     47  C   UNL d   1       9.558  -1.175 -21.052 -0.06 +0.00    +0.004 C 
DOCKED: ATOM     48  C   UNL d   1      10.215  -0.014 -21.115 -0.09 +0.00    +0.012 C 
DOCKED: ENDBRANCH  17  47
DOCKED: TORSDOF 12
DOCKED: TER
DOCKED: ENDMDL
________________________________________________________________________________


	BEGINNING GENETIC ALGORITHM DOCKING 39 of 100
Run: 39 Seed: 409228608 182978957 [ Run 39 of 100 GA/GALS ]
Beginning LAMARCKIAN GENETIC ALGORITHM (LGA), with a maximum of 25000000 energy evaluations.

Final-Value: -12.035


	FINAL GENETIC ALGORITHM DOCKED STATE
	_______________________________________________


Detailed state:  trans -7.423 -16.383 11.103 quatxyzw 0.672324 0.387768 0.597981 -0.200086 center 8.781 34.984 -0.736 ntor 12 62.9842 104.8738 13.7184 -41.7769 133.7439 158.5274 -118.7631 168.1671 125.7224 176.6742 38.6028 16.2876
State:	 -7.423 -16.383  11.103   0.686  0.396  0.610 -156.916     62.98  104.87   13.72  -41.78  133.74  158.53 -118.76  168.17  125.72  176.67   38.60   16.29

DOCKED: MODEL       39
DOCKED: USER    Run = 39
DOCKED: USER    DPF = D:/Protein_go_brrr/autodock/final/AncB/heme_Co/dock.dpf
DOCKED: USER  
DOCKED: USER    Estimated Free Energy of Binding    =   -6.85 kcal/mol  [=(1)+(2)+(3)-(4)]
DOCKED: USER    Estimated Inhibition Constant, Ki   =    9.47 uM (micromolar)  [Temperature = 298.15 K]
DOCKED: USER    
DOCKED: USER    (1) Final Intermolecular Energy     =  -10.43 kcal/mol
DOCKED: USER        vdW + Hbond + desolv Energy     =   -6.27 kcal/mol
DOCKED: USER        Electrostatic Energy            =   -4.16 kcal/mol
DOCKED: USER    (2) Final Total Internal Energy     =   -1.60 kcal/mol
DOCKED: USER    (3) Torsional Free Energy           =   +3.58 kcal/mol
DOCKED: USER    (4) Unbound System's Energy  [=(2)] =   -1.60 kcal/mol
DOCKED: USER    
DOCKED: USER    
DOCKED: USER    NEWDPF move heme_Co_opt.pdbqt
DOCKED: USER    NEWDPF about 8.781000 34.984000 -0.736000
DOCKED: USER    NEWDPF tran0 -7.423071 -16.382791 11.103003
DOCKED: USER    NEWDPF quaternion0 0.672324 0.387768 0.597981 -0.200086
DOCKED: USER    NEWDPF axisangle0 0.686201 0.395771 0.610323 -156.915972
DOCKED: USER    NEWDPF quat0 0.686201 0.395771 0.610323 -156.915972
DOCKED: USER    NEWDPF dihe0 62.98 104.87 13.72 -41.78 133.74 158.53 -118.76 168.17 125.72 176.67 38.60 16.29 
DOCKED: USER  keepresnum = 1 
DOCKED: USER  
DOCKED: REMARK  12 active torsions:
DOCKED: REMARK  status: ('A' for Active; 'I' for Inactive)
DOCKED: REMARK    1  A    between atoms: C_6  and  C_10 
DOCKED: REMARK    2  A    between atoms: C_10  and  C_11 
DOCKED: REMARK    3  A    between atoms: C_11  and  C_12 
DOCKED: REMARK    4  A    between atoms: C_12  and  O_14 
DOCKED: REMARK    5  A    between atoms: C_17  and  C_20 
DOCKED: REMARK    6  A    between atoms: C_24  and  C_27 
DOCKED: REMARK    7  A    between atoms: C_31  and  C_34 
DOCKED: REMARK    8  A    between atoms: C_34  and  C_35 
DOCKED: REMARK    9  A    between atoms: C_35  and  C_36 
DOCKED: REMARK   10  A    between atoms: C_36  and  O_38 
DOCKED: REMARK   11  A    between atoms: FE_43  and  C_44 
DOCKED: REMARK   12  A    between atoms: C_44  and  O_45 
DOCKED: USER                              x       y       z     vdW  Elec       q    Type
DOCKED: USER                           _______ _______ _______ _____ _____    ______ ____
DOCKED: ROOT
DOCKED: ATOM      1  C   UNL d   1      -8.067 -18.329  10.387 -0.07 +0.08    +0.064 A 
DOCKED: ATOM      2  C   UNL d   1      -5.255 -14.997   8.490 -0.13 +0.05    +0.064 C 
DOCKED: ATOM      3  C   UNL d   1      -6.204 -12.064  12.140 -0.24 +0.04    +0.064 A 
DOCKED: ATOM      4  C   UNL d   1      -8.772 -15.592  14.290 -0.09 +0.02    +0.064 A 
DOCKED: ATOM      5  C   UNL d   1      -7.258 -17.621   9.583 +0.08 +0.10    +0.066 A 
DOCKED: ATOM      6  C   UNL d   1      -6.693 -18.173   8.416 -0.08 -0.03    -0.021 A 
DOCKED: ATOM      7  C   UNL d   1      -5.860 -17.210   7.882 -0.08 -0.03    -0.025 A 
DOCKED: ATOM      8  C   UNL d   1      -5.964 -16.106   8.735 -0.13 +0.07    +0.066 A 
DOCKED: ATOM      9  C   UNL d   1      -4.992 -17.310   6.619 -0.06 +0.06    +0.051 C 
DOCKED: ATOM     10  C   UNL d   1      -5.317 -13.804   9.296 -0.16 +0.04    +0.066 A 
DOCKED: ATOM     11  C   UNL d   1      -4.707 -12.562   9.014 -0.20 -0.01    -0.021 A 
DOCKED: ATOM     12  C   UNL d   1      -5.003 -11.724  10.093 -0.26 +0.00    +0.000 A 
DOCKED: ATOM     13  C   UNL d   1      -5.781 -12.510  10.944 -0.22 +0.04    +0.070 A 
DOCKED: ATOM     14  C   UNL d   1      -3.976 -12.194   7.749 -0.26 +0.02    +0.052 C 
DOCKED: ATOM     15  C   UNL d   1      -6.966 -12.754  13.162 -0.25 +0.03    +0.066 A 
DOCKED: ATOM     16  C   UNL d   1      -7.247 -12.285  14.438 -0.22 -0.01    -0.021 A 
DOCKED: ATOM     17  C   UNL d   1      -7.985 -13.300  15.062 -0.17 +0.00    +0.000 A 
DOCKED: ATOM     18  C   UNL d   1      -8.112 -14.305  14.109 -0.17 +0.03    +0.070 A 
DOCKED: ATOM     19  C   UNL d   1      -6.819 -10.945  14.993 -0.22 +0.04    +0.052 C 
DOCKED: ATOM     20  C   UNL d   1      -8.834 -16.618  13.408 -0.12 +0.03    +0.066 A 
DOCKED: ATOM     21  C   UNL d   1      -9.467 -17.822  13.711 -0.10 -0.01    -0.025 A 
DOCKED: ATOM     22  C   UNL d   1      -9.305 -18.620  12.593 -0.09 -0.01    -0.021 A 
DOCKED: ATOM     23  C   UNL d   1      -8.564 -17.862  11.661 -0.13 +0.06    +0.066 A 
DOCKED: ATOM     24  C   UNL d   1     -10.176 -18.201  15.008 -0.07 +0.01    +0.051 C 
DOCKED: ATOM     25  N   UNL d   1      -6.828 -16.330   9.794 -0.10 -0.30    -0.248 N 
DOCKED: ATOM     26  N   UNL d   1      -6.016 -13.748  10.435 -0.15 -0.14    -0.248 N 
DOCKED: ATOM     27  N   UNL d   1      -7.467 -13.959  13.000 -0.16 -0.11    -0.248 N 
DOCKED: ATOM     28  N   UNL d   1      -8.275 -16.651  12.151 -0.12 -0.16    -0.248 N 
DOCKED: ATOM     29 FE   UNL d   1      -7.169 -15.077  11.493 -0.04 +0.00    +0.000 Fe
DOCKED: ENDROOT
DOCKED: BRANCH   6  30
DOCKED: ATOM     30  C   UNL d   1      -6.889 -19.593   7.895 -0.03 +0.05    +0.052 C 
DOCKED: BRANCH  30  31
DOCKED: ATOM     31  C   UNL d   1      -7.447 -19.571   6.473 -0.05 +0.14    +0.115 C 
DOCKED: BRANCH  31  32
DOCKED: ATOM     32  C   UNL d   1      -8.740 -18.790   6.372 +0.04 +0.27    +0.139 C 
DOCKED: ATOM     33  O   UNL d   1      -8.757 -17.733   5.759 -0.09 -1.81    -0.650 OA
DOCKED: BRANCH  32  34
DOCKED: ATOM     34  O   UNL d   1      -9.898 -19.248   6.901 -0.42 -1.43    -0.776 OA
DOCKED: ATOM     35  H   UNL d   1     -10.024 -19.457   7.837 +0.02 +0.31    +0.167 HD
DOCKED: ENDBRANCH  32  34
DOCKED: ENDBRANCH  31  32
DOCKED: ENDBRANCH  30  31
DOCKED: ENDBRANCH   6  30
DOCKED: BRANCH  29  36
DOCKED: ATOM     36  C   UNL d   1      -5.436 -15.918  12.321 -0.02 +0.07    +0.190 C 
DOCKED: BRANCH  36  37
DOCKED: ATOM     37  O   UNL d   1      -4.387 -16.802  12.048 +0.01 -0.13    -0.399 OA
DOCKED: ATOM     38  H   UNL d   1      -4.633 -17.231  11.181 +0.01 +0.08    +0.209 HD
DOCKED: ENDBRANCH  36  37
DOCKED: ENDBRANCH  29  36
DOCKED: BRANCH  22  39
DOCKED: ATOM     39  C   UNL d   1      -9.782 -20.054  12.460 -0.03 +0.02    +0.052 C 
DOCKED: BRANCH  39  40
DOCKED: ATOM     40  C   UNL d   1     -10.818 -20.179  11.331 -0.05 +0.07    +0.115 C 
DOCKED: BRANCH  40  41
DOCKED: ATOM     41  C   UNL d   1     -11.286 -18.855  10.763 -0.15 +0.14    +0.139 C 
DOCKED: ATOM     42  O   UNL d   1     -11.726 -18.001  11.519 -0.57 -0.63    -0.650 OA
DOCKED: BRANCH  41  43
DOCKED: ATOM     43  O   UNL d   1     -11.149 -18.558   9.452 +0.09 -1.49    -0.776 OA
DOCKED: ATOM     44  H   UNL d   1     -11.024 -19.236   8.775 +0.02 +0.27    +0.167 HD
DOCKED: ENDBRANCH  41  43
DOCKED: ENDBRANCH  40  41
DOCKED: ENDBRANCH  39  40
DOCKED: ENDBRANCH  22  39
DOCKED: BRANCH  12  45
DOCKED: ATOM     45  C   UNL d   1      -4.659 -10.274  10.407 -0.39 +0.00    +0.004 C 
DOCKED: ATOM     46  C   UNL d   1      -3.492  -9.637  10.386 -0.39 +0.00    +0.012 C 
DOCKED: ENDBRANCH  12  45
DOCKED: BRANCH  17  47
DOCKED: ATOM     47  C   UNL d   1      -8.505 -13.380  16.460 -0.11 +0.00    +0.004 C 
DOCKED: ATOM     48  C   UNL d   1      -9.804 -13.346  16.767 -0.14 +0.00    +0.012 C 
DOCKED: ENDBRANCH  17  47
DOCKED: TORSDOF 12
DOCKED: TER
DOCKED: ENDMDL
________________________________________________________________________________


	BEGINNING GENETIC ALGORITHM DOCKING 40 of 100
Run: 40 Seed: 35294566 639637673 [ Run 40 of 100 GA/GALS ]
Beginning LAMARCKIAN GENETIC ALGORITHM (LGA), with a maximum of 25000000 energy evaluations.

Final-Value: -11.244


	FINAL GENETIC ALGORITHM DOCKED STATE
	_______________________________________________


Detailed state:  trans 3.921 0.937 -17.676 quatxyzw -0.812346 0.506270 -0.213913 0.195003 center 8.781 34.984 -0.736 ntor 12 -128.0389 121.2458 -0.1523 121.7192 136.7636 155.6345 -121.0779 92.0018 -107.6672 53.2846 -17.4203 -18.6871
State:	  3.921   0.937 -17.676  -0.828  0.516 -0.218 157.510   -128.04  121.25   -0.15  121.72  136.76  155.63 -121.08   92.00 -107.67   53.28  -17.42  -18.69

DOCKED: MODEL       40
DOCKED: USER    Run = 40
DOCKED: USER    DPF = D:/Protein_go_brrr/autodock/final/AncB/heme_Co/dock.dpf
DOCKED: USER  
DOCKED: USER    Estimated Free Energy of Binding    =   -6.79 kcal/mol  [=(1)+(2)+(3)-(4)]
DOCKED: USER    Estimated Inhibition Constant, Ki   =   10.47 uM (micromolar)  [Temperature = 298.15 K]
DOCKED: USER    
DOCKED: USER    (1) Final Intermolecular Energy     =  -10.37 kcal/mol
DOCKED: USER        vdW + Hbond + desolv Energy     =   -7.03 kcal/mol
DOCKED: USER        Electrostatic Energy            =   -3.34 kcal/mol
DOCKED: USER    (2) Final Total Internal Energy     =   -0.87 kcal/mol
DOCKED: USER    (3) Torsional Free Energy           =   +3.58 kcal/mol
DOCKED: USER    (4) Unbound System's Energy  [=(2)] =   -0.87 kcal/mol
DOCKED: USER    
DOCKED: USER    
DOCKED: USER    NEWDPF move heme_Co_opt.pdbqt
DOCKED: USER    NEWDPF about 8.781000 34.984000 -0.736000
DOCKED: USER    NEWDPF tran0 3.920957 0.936960 -17.675576
DOCKED: USER    NEWDPF quaternion0 -0.812346 0.506270 -0.213913 0.195003
DOCKED: USER    NEWDPF axisangle0 -0.828246 0.516179 -0.218100 157.510256
DOCKED: USER    NEWDPF quat0 -0.828246 0.516179 -0.218100 157.510256
DOCKED: USER    NEWDPF dihe0 -128.04 121.25 -0.15 121.72 136.76 155.63 -121.08 92.00 -107.67 53.28 -17.42 -18.69 
DOCKED: USER  keepresnum = 1 
DOCKED: USER  
DOCKED: REMARK  12 active torsions:
DOCKED: REMARK  status: ('A' for Active; 'I' for Inactive)
DOCKED: REMARK    1  A    between atoms: C_6  and  C_10 
DOCKED: REMARK    2  A    between atoms: C_10  and  C_11 
DOCKED: REMARK    3  A    between atoms: C_11  and  C_12 
DOCKED: REMARK    4  A    between atoms: C_12  and  O_14 
DOCKED: REMARK    5  A    between atoms: C_17  and  C_20 
DOCKED: REMARK    6  A    between atoms: C_24  and  C_27 
DOCKED: REMARK    7  A    between atoms: C_31  and  C_34 
DOCKED: REMARK    8  A    between atoms: C_34  and  C_35 
DOCKED: REMARK    9  A    between atoms: C_35  and  C_36 
DOCKED: REMARK   10  A    between atoms: C_36  and  O_38 
DOCKED: REMARK   11  A    between atoms: FE_43  and  C_44 
DOCKED: REMARK   12  A    between atoms: C_44  and  O_45 
DOCKED: USER                              x       y       z     vdW  Elec       q    Type
DOCKED: USER                           _______ _______ _______ _____ _____    ______ ____
DOCKED: ROOT
DOCKED: ATOM      1  C   UNL d   1       2.575   2.615 -17.973 -0.09 +0.03    +0.064 A 
DOCKED: ATOM      2  C   UNL d   1       6.044   0.787 -20.662 -0.08 +0.02    +0.064 C 
DOCKED: ATOM      3  C   UNL d   1       7.172  -2.288 -17.183 -0.14 +0.01    +0.064 A 
DOCKED: ATOM      4  C   UNL d   1       3.390  -0.698 -14.570 -0.22 +0.02    +0.064 A 
DOCKED: ATOM      5  C   UNL d   1       3.464   2.366 -18.949 -0.02 +0.03    +0.066 A 
DOCKED: ATOM      6  C   UNL d   1       3.415   3.029 -20.191 -0.08 -0.01    -0.021 A 
DOCKED: ATOM      7  C   UNL d   1       4.409   2.478 -20.975 -0.06 -0.01    -0.025 A 
DOCKED: ATOM      8  C   UNL d   1       5.032   1.515 -20.174 -0.02 +0.03    +0.066 A 
DOCKED: ATOM      9  C   UNL d   1       4.771   2.833 -22.426 -0.03 +0.02    +0.051 C 
DOCKED: ATOM     10  C   UNL d   1       6.762  -0.207 -19.904 -0.09 +0.02    +0.066 A 
DOCKED: ATOM     11  C   UNL d   1       7.920  -0.905 -20.312 -0.07 -0.00    -0.021 A 
DOCKED: ATOM     12  C   UNL d   1       8.230  -1.792 -19.277 -0.08 +0.00    +0.000 A 
DOCKED: ATOM     13  C   UNL d   1       7.249  -1.561 -18.312 -0.11 +0.01    +0.070 A 
DOCKED: ATOM     14  C   UNL d   1       8.716  -0.656 -21.567 -0.04 +0.01    +0.052 C 
DOCKED: ATOM     15  C   UNL d   1       6.200  -2.220 -16.110 -0.19 +0.01    +0.066 A 
DOCKED: ATOM     16  C   UNL d   1       6.093  -3.097 -15.040 -0.28 -0.00    -0.021 A 
DOCKED: ATOM     17  C   UNL d   1       5.002  -2.645 -14.285 -0.34 +0.00    +0.000 A 
DOCKED: ATOM     18  C   UNL d   1       4.538  -1.513 -14.947 -0.12 +0.01    +0.070 A 
DOCKED: ATOM     19  C   UNL d   1       6.994  -4.286 -14.786 -0.41 +0.00    +0.052 C 
DOCKED: ATOM     20  C   UNL d   1       2.868   0.354 -15.244 -0.16 +0.03    +0.066 A 
DOCKED: ATOM     21  C   UNL d   1       1.738   1.036 -14.799 -0.18 -0.01    -0.025 A 
DOCKED: ATOM     22  C   UNL d   1       1.497   2.016 -15.745 -0.13 -0.01    -0.021 A 
DOCKED: ATOM     23  C   UNL d   1       2.493   1.874 -16.735 -0.12 +0.03    +0.066 A 
DOCKED: ATOM     24  C   UNL d   1       0.916   0.757 -13.544 -0.05 +0.03    +0.051 C 
DOCKED: ATOM     25  N   UNL d   1       4.471   1.428 -18.911 +0.14 -0.14    -0.248 N 
DOCKED: ATOM     26  N   UNL d   1       6.396  -0.564 -18.669 -0.08 -0.08    -0.248 N 
DOCKED: ATOM     27  N   UNL d   1       5.256  -1.308 -16.046 -0.11 -0.04    -0.248 N 
DOCKED: ATOM     28  N   UNL d   1       3.323   0.868 -16.437 -0.08 -0.11    -0.248 N 
DOCKED: ATOM     29 FE   UNL d   1       4.884  -0.019 -17.391 -0.04 +0.00    +0.000 Fe
DOCKED: ENDROOT
DOCKED: BRANCH   6  30
DOCKED: ATOM     30  C   UNL d   1       2.401   4.084 -20.620 -0.04 +0.02    +0.052 C 
DOCKED: BRANCH  30  31
DOCKED: ATOM     31  C   UNL d   1       2.574   5.361 -19.798 -0.11 +0.08    +0.115 C 
DOCKED: BRANCH  31  32
DOCKED: ATOM     32  C   UNL d   1       3.846   6.103 -20.145 -0.09 +0.16    +0.139 C 
DOCKED: ATOM     33  O   UNL d   1       3.778   7.164 -20.747 -0.23 -0.93    -0.650 OA
DOCKED: BRANCH  32  34
DOCKED: ATOM     34  O   UNL d   1       5.065   5.652 -19.767 -0.14 -0.99    -0.776 OA
DOCKED: ATOM     35  H   UNL d   1       5.743   6.202 -19.350 -0.49 +0.35    +0.167 HD
DOCKED: ENDBRANCH  32  34
DOCKED: ENDBRANCH  31  32
DOCKED: ENDBRANCH  30  31
DOCKED: ENDBRANCH   6  30
DOCKED: BRANCH  29  36
DOCKED: ATOM     36  C   UNL d   1       3.568  -1.296 -18.407 -0.03 +0.06    +0.190 C 
DOCKED: BRANCH  36  37
DOCKED: ATOM     37  O   UNL d   1       2.743  -1.379 -19.533 +0.00 -0.13    -0.399 OA
DOCKED: ATOM     38  H   UNL d   1       2.944  -0.555 -20.060 +0.01 +0.07    +0.209 HD
DOCKED: ENDBRANCH  36  37
DOCKED: ENDBRANCH  29  36
DOCKED: BRANCH  22  39
DOCKED: ATOM     39  C   UNL d   1       0.333   2.989 -15.727 -0.14 +0.04    +0.052 C 
DOCKED: BRANCH  39  40
DOCKED: ATOM     40  C   UNL d   1       0.641   4.187 -14.814 -0.26 +0.10    +0.115 C 
DOCKED: BRANCH  40  41
DOCKED: ATOM     41  C   UNL d   1      -0.470   4.538 -13.847 -0.24 +0.21    +0.139 C 
DOCKED: ATOM     42  O   UNL d   1      -0.854   5.696 -13.772 -0.53 -1.18    -0.650 OA
DOCKED: BRANCH  41  43
DOCKED: ATOM     43  O   UNL d   1      -1.109   3.590 -13.126 -0.44 -1.35    -0.776 OA
DOCKED: ATOM     44  H   UNL d   1      -0.834   2.664 -13.124 +0.05 +0.22    +0.167 HD
DOCKED: ENDBRANCH  41  43
DOCKED: ENDBRANCH  40  41
DOCKED: ENDBRANCH  39  40
DOCKED: ENDBRANCH  22  39
DOCKED: BRANCH  12  45
DOCKED: ATOM     45  C   UNL d   1       9.345  -2.811 -19.081 -0.07 +0.00    +0.004 C 
DOCKED: ATOM     46  C   UNL d   1      10.353  -2.835 -18.213 -0.11 +0.00    +0.012 C 
DOCKED: ENDBRANCH  12  45
DOCKED: BRANCH  17  47
DOCKED: ATOM     47  C   UNL d   1       4.380  -3.231 -13.060 -0.29 +0.00    +0.004 C 
DOCKED: ATOM     48  C   UNL d   1       4.379  -2.624 -11.871 -0.59 +0.00    +0.012 C 
DOCKED: ENDBRANCH  17  47
DOCKED: TORSDOF 12
DOCKED: TER
DOCKED: ENDMDL
________________________________________________________________________________


	BEGINNING GENETIC ALGORITHM DOCKING 41 of 100
Run: 41 Seed: 1229281040 426513917 [ Run 41 of 100 GA/GALS ]
Beginning LAMARCKIAN GENETIC ALGORITHM (LGA), with a maximum of 25000000 energy evaluations.

Final-Value: -10.529


	FINAL GENETIC ALGORITHM DOCKED STATE
	_______________________________________________


Detailed state:  trans 19.862 3.363 -3.588 quatxyzw 0.191322 -0.028990 0.642414 0.741525 center 8.781 34.984 -0.736 ntor 12 -10.0053 110.6779 -105.4496 105.2054 130.3591 132.6699 -119.7813 116.0991 119.9758 49.3495 12.2336 144.9635
State:	 19.862   3.363  -3.588   0.285 -0.043  0.958 84.277    -10.01  110.68 -105.45  105.21  130.36  132.67 -119.78  116.10  119.98   49.35   12.23  144.96

DOCKED: MODEL       41
DOCKED: USER    Run = 41
DOCKED: USER    DPF = D:/Protein_go_brrr/autodock/final/AncB/heme_Co/dock.dpf
DOCKED: USER  
DOCKED: USER    Estimated Free Energy of Binding    =   -5.01 kcal/mol  [=(1)+(2)+(3)-(4)]
DOCKED: USER    Estimated Inhibition Constant, Ki   =  214.19 uM (micromolar)  [Temperature = 298.15 K]
DOCKED: USER    
DOCKED: USER    (1) Final Intermolecular Energy     =   -8.59 kcal/mol
DOCKED: USER        vdW + Hbond + desolv Energy     =   -6.59 kcal/mol
DOCKED: USER        Electrostatic Energy            =   -2.00 kcal/mol
DOCKED: USER    (2) Final Total Internal Energy     =   -1.94 kcal/mol
DOCKED: USER    (3) Torsional Free Energy           =   +3.58 kcal/mol
DOCKED: USER    (4) Unbound System's Energy  [=(2)] =   -1.94 kcal/mol
DOCKED: USER    
DOCKED: USER    
DOCKED: USER    NEWDPF move heme_Co_opt.pdbqt
DOCKED: USER    NEWDPF about 8.781000 34.984000 -0.736000
DOCKED: USER    NEWDPF tran0 19.861635 3.363247 -3.587727
DOCKED: USER    NEWDPF quaternion0 0.191322 -0.028990 0.642414 0.741525
DOCKED: USER    NEWDPF axisangle0 0.285161 -0.043209 0.957505 84.276970
DOCKED: USER    NEWDPF quat0 0.285161 -0.043209 0.957505 84.276970
DOCKED: USER    NEWDPF dihe0 -10.01 110.68 -105.45 105.21 130.36 132.67 -119.78 116.10 119.98 49.35 12.23 144.96 
DOCKED: USER  keepresnum = 1 
DOCKED: USER  
DOCKED: REMARK  12 active torsions:
DOCKED: REMARK  status: ('A' for Active; 'I' for Inactive)
DOCKED: REMARK    1  A    between atoms: C_6  and  C_10 
DOCKED: REMARK    2  A    between atoms: C_10  and  C_11 
DOCKED: REMARK    3  A    between atoms: C_11  and  C_12 
DOCKED: REMARK    4  A    between atoms: C_12  and  O_14 
DOCKED: REMARK    5  A    between atoms: C_17  and  C_20 
DOCKED: REMARK    6  A    between atoms: C_24  and  C_27 
DOCKED: REMARK    7  A    between atoms: C_31  and  C_34 
DOCKED: REMARK    8  A    between atoms: C_34  and  C_35 
DOCKED: REMARK    9  A    between atoms: C_35  and  C_36 
DOCKED: REMARK   10  A    between atoms: C_36  and  O_38 
DOCKED: REMARK   11  A    between atoms: FE_43  and  C_44 
DOCKED: REMARK   12  A    between atoms: C_44  and  O_45 
DOCKED: USER                              x       y       z     vdW  Elec       q    Type
DOCKED: USER                           _______ _______ _______ _____ _____    ______ ____
DOCKED: ROOT
DOCKED: ATOM      1  C   UNL d   1      19.751   5.069  -4.927 -0.13 +0.03    +0.064 A 
DOCKED: ATOM      2  C   UNL d   1      18.543   4.507  -0.362 -0.16 -0.00    +0.064 C 
DOCKED: ATOM      3  C   UNL d   1      19.584  -0.149  -0.622 -0.19 +0.01    +0.064 A 
DOCKED: ATOM      4  C   UNL d   1      21.189   0.476  -5.171 -0.08 +0.02    +0.064 A 
DOCKED: ATOM      5  C   UNL d   1      19.310   5.250  -3.671 -0.15 +0.02    +0.066 A 
DOCKED: ATOM      6  C   UNL d   1      18.967   6.524  -3.176 -0.16 -0.01    -0.021 A 
DOCKED: ATOM      7  C   UNL d   1      18.639   6.358  -1.844 -0.18 -0.00    -0.025 A 
DOCKED: ATOM      8  C   UNL d   1      18.780   4.990  -1.589 -0.12 +0.00    +0.066 A 
DOCKED: ATOM      9  C   UNL d   1      18.209   7.436  -0.838 -0.19 +0.01    +0.051 C 
DOCKED: ATOM     10  C   UNL d   1      18.636   3.111  -0.012 -0.26 -0.00    +0.066 A 
DOCKED: ATOM     11  C   UNL d   1      18.266   2.523   1.217 -0.24 +0.00    -0.021 A 
DOCKED: ATOM     12  C   UNL d   1      18.576   1.165   1.112 -0.21 -0.00    +0.000 A 
DOCKED: ATOM     13  C   UNL d   1      19.100   1.022  -0.173 -0.21 +0.00    +0.070 A 
DOCKED: ATOM     14  C   UNL d   1      17.575   3.215   2.364 -0.26 -0.00    +0.052 C 
DOCKED: ATOM     15  C   UNL d   1      20.204  -0.461  -1.894 -0.15 +0.01    +0.066 A 
DOCKED: ATOM     16  C   UNL d   1      20.815  -1.658  -2.240 -0.11 -0.00    -0.021 A 
DOCKED: ATOM     17  C   UNL d   1      21.282  -1.482  -3.551 -0.09 +0.00    +0.000 A 
DOCKED: ATOM     18  C   UNL d   1      20.902  -0.192  -3.908 -0.10 +0.01    +0.070 A 
DOCKED: ATOM     19  C   UNL d   1      20.929  -2.875  -1.349 -0.09 +0.01    +0.052 C 
DOCKED: ATOM     20  C   UNL d   1      20.906   1.757  -5.508 -0.08 +0.02    +0.066 A 
DOCKED: ATOM     21  C   UNL d   1      21.264   2.298  -6.741 -0.05 -0.01    -0.025 A 
DOCKED: ATOM     22  C   UNL d   1      20.837   3.612  -6.711 -0.07 -0.01    -0.021 A 
DOCKED: ATOM     23  C   UNL d   1      20.245   3.814  -5.446 -0.10 +0.03    +0.066 A 
DOCKED: ATOM     24  C   UNL d   1      21.996   1.602  -7.886 -0.02 +0.01    +0.051 C 
DOCKED: ATOM     25  N   UNL d   1      19.189   4.278  -2.704 -0.13 -0.06    -0.248 N 
DOCKED: ATOM     26  N   UNL d   1      19.083   2.189  -0.871 -0.10 -0.03    -0.248 N 
DOCKED: ATOM     27  N   UNL d   1      20.290   0.396  -2.886 -0.07 -0.06    -0.248 N 
DOCKED: ATOM     28  N   UNL d   1      20.287   2.694  -4.714 -0.06 -0.09    -0.248 N 
DOCKED: ATOM     29 FE   UNL d   1      19.773   2.223  -2.804 -0.05 +0.00    +0.000 Fe
DOCKED: ENDROOT
DOCKED: BRANCH   6  30
DOCKED: ATOM     30  C   UNL d   1      19.035   7.844  -3.936 -0.17 +0.02    +0.052 C 
DOCKED: BRANCH  30  31
DOCKED: ATOM     31  C   UNL d   1      17.667   8.201  -4.516 -0.35 +0.05    +0.115 C 
DOCKED: BRANCH  31  32
DOCKED: ATOM     32  C   UNL d   1      17.177   7.174  -5.514 -0.36 +0.14    +0.139 C 
DOCKED: ATOM     33  O   UNL d   1      16.226   6.462  -5.226 -0.51 -0.92    -0.650 OA
DOCKED: BRANCH  32  34
DOCKED: ATOM     34  O   UNL d   1      17.730   7.047  -6.743 +0.15 -1.11    -0.776 OA
DOCKED: ATOM     35  H   UNL d   1      18.318   7.701  -7.145 -0.24 +0.09    +0.167 HD
DOCKED: ENDBRANCH  32  34
DOCKED: ENDBRANCH  31  32
DOCKED: ENDBRANCH  30  31
DOCKED: ENDBRANCH   6  30
DOCKED: BRANCH  29  36
DOCKED: ATOM     36  C   UNL d   1      21.655   2.840  -2.120 -0.04 +0.03    +0.190 C 
DOCKED: BRANCH  36  37
DOCKED: ATOM     37  O   UNL d   1      22.500   3.952  -2.034 -0.00 -0.06    -0.399 OA
DOCKED: ATOM     38  H   UNL d   1      22.007   4.685  -2.498 +0.01 +0.03    +0.209 HD
DOCKED: ENDBRANCH  36  37
DOCKED: ENDBRANCH  29  36
DOCKED: BRANCH  22  39
DOCKED: ATOM     39  C   UNL d   1      21.047   4.632  -7.814 -0.06 +0.02    +0.052 C 
DOCKED: BRANCH  39  40
DOCKED: ATOM     40  C   UNL d   1      21.994   5.750  -7.347 -0.02 +0.03    +0.115 C 
DOCKED: BRANCH  40  41
DOCKED: ATOM     41  C   UNL d   1      21.547   7.146  -7.727 -0.06 +0.04    +0.139 C 
DOCKED: ATOM     42  O   UNL d   1      22.127   7.735  -8.629 +0.01 -0.15    -0.650 OA
DOCKED: BRANCH  41  43
DOCKED: ATOM     43  O   UNL d   1      20.468   7.727  -7.157 +0.05 -0.19    -0.776 OA
DOCKED: ATOM     44  H   UNL d   1      19.602   7.747  -7.585 -0.52 +0.03    +0.167 HD
DOCKED: ENDBRANCH  41  43
DOCKED: ENDBRANCH  40  41
DOCKED: ENDBRANCH  39  40
DOCKED: ENDBRANCH  22  39
DOCKED: BRANCH  12  45
DOCKED: ATOM     45  C   UNL d   1      18.422  -0.012   2.067 -0.23 +0.00    +0.004 C 
DOCKED: ATOM     46  C   UNL d   1      17.466  -0.933   2.158 -0.32 +0.00    +0.012 C 
DOCKED: ENDBRANCH  12  45
DOCKED: BRANCH  17  47
DOCKED: ATOM     47  C   UNL d   1      22.071  -2.409  -4.415 -0.04 +0.00    +0.004 C 
DOCKED: ATOM     48  C   UNL d   1      21.565  -3.034  -5.481 -0.04 +0.00    +0.012 C 
DOCKED: ENDBRANCH  17  47
DOCKED: TORSDOF 12
DOCKED: TER
DOCKED: ENDMDL
________________________________________________________________________________


	BEGINNING GENETIC ALGORITHM DOCKING 42 of 100
Run: 42 Seed: 1042105582 146031963 [ Run 42 of 100 GA/GALS ]
Beginning LAMARCKIAN GENETIC ALGORITHM (LGA), with a maximum of 25000000 energy evaluations.

Final-Value: -12.557


	FINAL GENETIC ALGORITHM DOCKED STATE
	_______________________________________________


Detailed state:  trans -7.429 -1.778 -12.443 quatxyzw -0.003557 0.605951 -0.482449 0.632498 center 8.781 34.984 -0.736 ntor 12 -24.9749 98.8746 104.8206 -101.9648 70.1848 94.4432 -59.9420 172.3647 -50.4577 143.9580 -13.8981 2.6249
State:	 -7.429  -1.778 -12.443  -0.005  0.782 -0.623 101.531    -24.97   98.87  104.82 -101.96   70.18   94.44  -59.94  172.36  -50.46  143.96  -13.90    2.62

DOCKED: MODEL       42
DOCKED: USER    Run = 42
DOCKED: USER    DPF = D:/Protein_go_brrr/autodock/final/AncB/heme_Co/dock.dpf
DOCKED: USER  
DOCKED: USER    Estimated Free Energy of Binding    =   -8.14 kcal/mol  [=(1)+(2)+(3)-(4)]
DOCKED: USER    Estimated Inhibition Constant, Ki   =    1.08 uM (micromolar)  [Temperature = 298.15 K]
DOCKED: USER    
DOCKED: USER    (1) Final Intermolecular Energy     =  -11.72 kcal/mol
DOCKED: USER        vdW + Hbond + desolv Energy     =   -7.70 kcal/mol
DOCKED: USER        Electrostatic Energy            =   -4.02 kcal/mol
DOCKED: USER    (2) Final Total Internal Energy     =   -0.84 kcal/mol
DOCKED: USER    (3) Torsional Free Energy           =   +3.58 kcal/mol
DOCKED: USER    (4) Unbound System's Energy  [=(2)] =   -0.84 kcal/mol
DOCKED: USER    
DOCKED: USER    
DOCKED: USER    NEWDPF move heme_Co_opt.pdbqt
DOCKED: USER    NEWDPF about 8.781000 34.984000 -0.736000
DOCKED: USER    NEWDPF tran0 -7.429062 -1.777938 -12.442799
DOCKED: USER    NEWDPF quaternion0 -0.003557 0.605951 -0.482449 0.632498
DOCKED: USER    NEWDPF axisangle0 -0.004592 0.782314 -0.622867 101.530611
DOCKED: USER    NEWDPF quat0 -0.004592 0.782314 -0.622867 101.530611
DOCKED: USER    NEWDPF dihe0 -24.97 98.87 104.82 -101.96 70.18 94.44 -59.94 172.36 -50.46 143.96 -13.90 2.62 
DOCKED: USER  keepresnum = 1 
DOCKED: USER  
DOCKED: REMARK  12 active torsions:
DOCKED: REMARK  status: ('A' for Active; 'I' for Inactive)
DOCKED: REMARK    1  A    between atoms: C_6  and  C_10 
DOCKED: REMARK    2  A    between atoms: C_10  and  C_11 
DOCKED: REMARK    3  A    between atoms: C_11  and  C_12 
DOCKED: REMARK    4  A    between atoms: C_12  and  O_14 
DOCKED: REMARK    5  A    between atoms: C_17  and  C_20 
DOCKED: REMARK    6  A    between atoms: C_24  and  C_27 
DOCKED: REMARK    7  A    between atoms: C_31  and  C_34 
DOCKED: REMARK    8  A    between atoms: C_34  and  C_35 
DOCKED: REMARK    9  A    between atoms: C_35  and  C_36 
DOCKED: REMARK   10  A    between atoms: C_36  and  O_38 
DOCKED: REMARK   11  A    between atoms: FE_43  and  C_44 
DOCKED: REMARK   12  A    between atoms: C_44  and  O_45 
DOCKED: USER                              x       y       z     vdW  Elec       q    Type
DOCKED: USER                           _______ _______ _______ _____ _____    ______ ____
DOCKED: ROOT
DOCKED: ATOM      1  C   UNL d   1      -6.700  -2.183 -14.448 -0.07 +0.08    +0.064 A 
DOCKED: ATOM      2  C   UNL d   1      -8.167  -5.042 -10.943 -0.31 +0.03    +0.064 C 
DOCKED: ATOM      3  C   UNL d   1      -8.623  -1.289  -8.021 -0.18 +0.02    +0.064 A 
DOCKED: ATOM      4  C   UNL d   1      -7.499   1.692 -11.697 -0.08 +0.04    +0.064 A 
DOCKED: ATOM      5  C   UNL d   1      -7.033  -3.244 -13.694 -0.11 +0.07    +0.066 A 
DOCKED: ATOM      6  C   UNL d   1      -7.092  -4.548 -14.224 -0.14 -0.02    -0.021 A 
DOCKED: ATOM      7  C   UNL d   1      -7.541  -5.370 -13.209 -0.21 -0.02    -0.025 A 
DOCKED: ATOM      8  C   UNL d   1      -7.719  -4.536 -12.099 -0.20 +0.04    +0.066 A 
DOCKED: ATOM      9  C   UNL d   1      -7.796  -6.884 -13.265 -0.28 +0.03    +0.051 C 
DOCKED: ATOM     10  C   UNL d   1      -8.357  -4.267  -9.742 -0.25 +0.03    +0.066 A 
DOCKED: ATOM     11  C   UNL d   1      -8.689  -4.762  -8.462 -0.36 -0.01    -0.021 A 
DOCKED: ATOM     12  C   UNL d   1      -8.812  -3.647  -7.629 -0.33 +0.00    +0.000 A 
DOCKED: ATOM     13  C   UNL d   1      -8.534  -2.559  -8.456 -0.19 +0.02    +0.070 A 
DOCKED: ATOM     14  C   UNL d   1      -8.783  -6.213  -8.064 -0.46 +0.02    +0.052 C 
DOCKED: ATOM     15  C   UNL d   1      -8.424  -0.052  -8.749 -0.14 +0.02    +0.066 A 
DOCKED: ATOM     16  C   UNL d   1      -8.674   1.230  -8.278 -0.22 -0.00    -0.021 A 
DOCKED: ATOM     17  C   UNL d   1      -8.353   2.093  -9.335 -0.17 +0.00    +0.000 A 
DOCKED: ATOM     18  C   UNL d   1      -7.915   1.268 -10.366 -0.09 +0.03    +0.070 A 
DOCKED: ATOM     19  C   UNL d   1      -9.188   1.571  -6.897 -0.10 +0.01    +0.052 C 
DOCKED: ATOM     20  C   UNL d   1      -7.152   0.904 -12.743 -0.05 +0.05    +0.066 A 
DOCKED: ATOM     21  C   UNL d   1      -6.805   1.428 -13.986 -0.06 -0.02    -0.025 A 
DOCKED: ATOM     22  C   UNL d   1      -6.541   0.335 -14.791 -0.04 -0.02    -0.021 A 
DOCKED: ATOM     23  C   UNL d   1      -6.754  -0.811 -13.996 -0.06 +0.07    +0.066 A 
DOCKED: ATOM     24  C   UNL d   1      -6.746   2.898 -14.393 -0.09 +0.05    +0.051 C 
DOCKED: ATOM     25  N   UNL d   1      -7.407  -3.215 -12.370 -0.08 -0.20    -0.248 N 
DOCKED: ATOM     26  N   UNL d   1      -8.204  -2.939  -9.720 -0.10 -0.11    -0.248 N 
DOCKED: ATOM     27  N   UNL d   1      -8.000  -0.004  -9.992 -0.04 -0.10    -0.248 N 
DOCKED: ATOM     28  N   UNL d   1      -7.126  -0.471 -12.756 -0.03 -0.20    -0.248 N 
DOCKED: ATOM     29 FE   UNL d   1      -7.719  -1.512 -11.113 -0.02 +0.00    +0.000 Fe
DOCKED: ENDROOT
DOCKED: BRANCH   6  30
DOCKED: ATOM     30  C   UNL d   1      -6.808  -4.958 -15.665 -0.13 +0.05    +0.052 C 
DOCKED: BRANCH  30  31
DOCKED: ATOM     31  C   UNL d   1      -5.317  -4.831 -15.975 -0.13 +0.16    +0.115 C 
DOCKED: BRANCH  31  32
DOCKED: ATOM     32  C   UNL d   1      -4.739  -6.101 -16.561 -0.22 +0.20    +0.139 C 
DOCKED: ATOM     33  O   UNL d   1      -3.606  -6.091 -17.018 -0.03 -0.96    -0.650 OA
DOCKED: BRANCH  32  34
DOCKED: ATOM     34  O   UNL d   1      -5.421  -7.270 -16.553 -0.33 -1.52    -0.776 OA
DOCKED: ATOM     35  H   UNL d   1      -6.073  -7.514 -15.882 +0.05 +0.20    +0.167 HD
DOCKED: ENDBRANCH  32  34
DOCKED: ENDBRANCH  31  32
DOCKED: ENDBRANCH  30  31
DOCKED: ENDBRANCH   6  30
DOCKED: BRANCH  29  36
DOCKED: ATOM     36  C   UNL d   1      -9.700  -1.511 -11.798 -0.01 +0.08    +0.190 C 
DOCKED: BRANCH  36  37
DOCKED: ATOM     37  O   UNL d   1     -10.479  -1.400 -12.955 +0.00 -0.16    -0.399 OA
DOCKED: ATOM     38  H   UNL d   1      -9.857  -1.047 -13.650 +0.01 +0.09    +0.209 HD
DOCKED: ENDBRANCH  36  37
DOCKED: ENDBRANCH  29  36
DOCKED: BRANCH  22  39
DOCKED: ATOM     39  C   UNL d   1      -6.170   0.394 -16.261 -0.02 +0.05    +0.052 C 
DOCKED: BRANCH  39  40
DOCKED: ATOM     40  C   UNL d   1      -4.666   0.135 -16.451 -0.05 +0.13    +0.115 C 
DOCKED: BRANCH  40  41
DOCKED: ATOM     41  C   UNL d   1      -3.780   0.819 -15.431 -0.09 +0.20    +0.139 C 
DOCKED: ATOM     42  O   UNL d   1      -3.938   2.010 -15.204 -0.48 -1.24    -0.650 OA
DOCKED: BRANCH  41  43
DOCKED: ATOM     43  O   UNL d   1      -2.876   0.130 -14.700 -0.28 -1.47    -0.776 OA
DOCKED: ATOM     44  H   UNL d   1      -1.923   0.235 -14.821 +0.03 +0.26    +0.167 HD
DOCKED: ENDBRANCH  41  43
DOCKED: ENDBRANCH  40  41
DOCKED: ENDBRANCH  39  40
DOCKED: ENDBRANCH  22  39
DOCKED: BRANCH  12  45
DOCKED: ATOM     45  C   UNL d   1      -9.139  -3.487  -6.151 -0.51 +0.00    +0.004 C 
DOCKED: ATOM     46  C   UNL d   1     -10.218  -2.989  -5.551 -0.46 +0.00    +0.012 C 
DOCKED: ENDBRANCH  12  45
DOCKED: BRANCH  17  47
DOCKED: ATOM     47  C   UNL d   1      -8.483   3.578  -9.427 -0.21 +0.00    +0.004 C 
DOCKED: ATOM     48  C   UNL d   1      -8.044   4.416  -8.486 -0.35 +0.00    +0.012 C 
DOCKED: ENDBRANCH  17  47
DOCKED: TORSDOF 12
DOCKED: TER
DOCKED: ENDMDL
________________________________________________________________________________


	BEGINNING GENETIC ALGORITHM DOCKING 43 of 100
Run: 43 Seed: 23176807 1750147817 [ Run 43 of 100 GA/GALS ]
Beginning LAMARCKIAN GENETIC ALGORITHM (LGA), with a maximum of 25000000 energy evaluations.

Final-Value: -12.030


	FINAL GENETIC ALGORITHM DOCKED STATE
	_______________________________________________


Detailed state:  trans 16.007 -0.787 -11.408 quatxyzw 0.013153 0.721060 -0.419754 -0.551095 center 8.781 34.984 -0.736 ntor 12 -169.4447 92.1655 -2.0099 120.5631 -79.9456 145.1256 172.6745 134.9545 -68.5803 7.0730 -162.7400 173.3377
State:	 16.007  -0.787 -11.408   0.016  0.864 -0.503 -113.116   -169.44   92.17   -2.01  120.56  -79.95  145.13  172.67  134.95  -68.58    7.07 -162.74  173.34

DOCKED: MODEL       43
DOCKED: USER    Run = 43
DOCKED: USER    DPF = D:/Protein_go_brrr/autodock/final/AncB/heme_Co/dock.dpf
DOCKED: USER  
DOCKED: USER    Estimated Free Energy of Binding    =   -6.01 kcal/mol  [=(1)+(2)+(3)-(4)]
DOCKED: USER    Estimated Inhibition Constant, Ki   =   38.99 uM (micromolar)  [Temperature = 298.15 K]
DOCKED: USER    
DOCKED: USER    (1) Final Intermolecular Energy     =   -9.59 kcal/mol
DOCKED: USER        vdW + Hbond + desolv Energy     =   -7.18 kcal/mol
DOCKED: USER        Electrostatic Energy            =   -2.41 kcal/mol
DOCKED: USER    (2) Final Total Internal Energy     =   -2.44 kcal/mol
DOCKED: USER    (3) Torsional Free Energy           =   +3.58 kcal/mol
DOCKED: USER    (4) Unbound System's Energy  [=(2)] =   -2.44 kcal/mol
DOCKED: USER    
DOCKED: USER    
DOCKED: USER    NEWDPF move heme_Co_opt.pdbqt
DOCKED: USER    NEWDPF about 8.781000 34.984000 -0.736000
DOCKED: USER    NEWDPF tran0 16.007200 -0.786555 -11.407688
DOCKED: USER    NEWDPF quaternion0 0.013153 0.721060 -0.419754 -0.551095
DOCKED: USER    NEWDPF axisangle0 0.015763 0.864122 -0.503035 -113.115683
DOCKED: USER    NEWDPF quat0 0.015763 0.864122 -0.503035 -113.115683
DOCKED: USER    NEWDPF dihe0 -169.44 92.17 -2.01 120.56 -79.95 145.13 172.67 134.95 -68.58 7.07 -162.74 173.34 
DOCKED: USER  keepresnum = 1 
DOCKED: USER  
DOCKED: REMARK  12 active torsions:
DOCKED: REMARK  status: ('A' for Active; 'I' for Inactive)
DOCKED: REMARK    1  A    between atoms: C_6  and  C_10 
DOCKED: REMARK    2  A    between atoms: C_10  and  C_11 
DOCKED: REMARK    3  A    between atoms: C_11  and  C_12 
DOCKED: REMARK    4  A    between atoms: C_12  and  O_14 
DOCKED: REMARK    5  A    between atoms: C_17  and  C_20 
DOCKED: REMARK    6  A    between atoms: C_24  and  C_27 
DOCKED: REMARK    7  A    between atoms: C_31  and  C_34 
DOCKED: REMARK    8  A    between atoms: C_34  and  C_35 
DOCKED: REMARK    9  A    between atoms: C_35  and  C_36 
DOCKED: REMARK   10  A    between atoms: C_36  and  O_38 
DOCKED: REMARK   11  A    between atoms: FE_43  and  C_44 
DOCKED: REMARK   12  A    between atoms: C_44  and  O_45 
DOCKED: USER                              x       y       z     vdW  Elec       q    Type
DOCKED: USER                           _______ _______ _______ _____ _____    ______ ____
DOCKED: ROOT
DOCKED: ATOM      1  C   UNL d   1      16.340   0.922 -10.109 -0.32 +0.03    +0.064 A 
DOCKED: ATOM      2  C   UNL d   1      17.493  -3.674  -9.702 -0.18 +0.02    +0.064 C 
DOCKED: ATOM      3  C   UNL d   1      15.115  -4.665 -13.726 -0.11 +0.02    +0.064 A 
DOCKED: ATOM      4  C   UNL d   1      14.252   0.079 -14.370 -0.25 +0.02    +0.064 A 
DOCKED: ATOM      5  C   UNL d   1      16.799  -0.267  -9.683 -0.31 +0.02    +0.066 A 
DOCKED: ATOM      6  C   UNL d   1      17.622  -0.386  -8.546 -0.28 -0.01    -0.021 A 
DOCKED: ATOM      7  C   UNL d   1      17.972  -1.718  -8.446 -0.21 -0.01    -0.025 A 
DOCKED: ATOM      8  C   UNL d   1      17.335  -2.357  -9.515 -0.21 +0.02    +0.066 A 
DOCKED: ATOM      9  C   UNL d   1      18.871  -2.380  -7.390 -0.20 +0.01    +0.051 C 
DOCKED: ATOM     10  C   UNL d   1      16.856  -4.421 -10.758 -0.14 +0.03    +0.066 A 
DOCKED: ATOM     11  C   UNL d   1      16.868  -5.823 -10.925 -0.12 -0.01    -0.021 A 
DOCKED: ATOM     12  C   UNL d   1      16.164  -6.084 -12.104 -0.13 +0.00    +0.000 A 
DOCKED: ATOM     13  C   UNL d   1      15.766  -4.828 -12.561 -0.10 +0.03    +0.070 A 
DOCKED: ATOM     14  C   UNL d   1      17.437  -6.831  -9.961 -0.09 +0.02    +0.052 C 
DOCKED: ATOM     15  C   UNL d   1      14.677  -3.443 -14.372 -0.10 +0.02    +0.066 A 
DOCKED: ATOM     16  C   UNL d   1      14.138  -3.333 -15.646 -0.13 -0.00    -0.021 A 
DOCKED: ATOM     17  C   UNL d   1      13.890  -1.966 -15.837 -0.18 +0.00    +0.000 A 
DOCKED: ATOM     18  C   UNL d   1      14.282  -1.350 -14.653 -0.18 +0.02    +0.070 A 
DOCKED: ATOM     19  C   UNL d   1      13.892  -4.483 -16.596 -0.05 +0.01    +0.052 C 
DOCKED: ATOM     20  C   UNL d   1      14.708   0.709 -13.260 -0.25 +0.02    +0.066 A 
DOCKED: ATOM     21  C   UNL d   1      14.657   2.094 -13.118 -0.28 -0.01    -0.025 A 
DOCKED: ATOM     22  C   UNL d   1      15.226   2.364 -11.887 -0.27 -0.01    -0.021 A 
DOCKED: ATOM     23  C   UNL d   1      15.609   1.121 -11.340 -0.29 +0.03    +0.066 A 
DOCKED: ATOM     24  C   UNL d   1      14.112   3.113 -14.115 -0.31 +0.01    +0.051 C 
DOCKED: ATOM     25  N   UNL d   1      16.597  -1.483 -10.295 -0.19 -0.08    -0.248 N 
DOCKED: ATOM     26  N   UNL d   1      16.136  -3.828 -11.717 -0.11 -0.11    -0.248 N 
DOCKED: ATOM     27  N   UNL d   1      14.774  -2.256 -13.815 -0.09 -0.08    -0.248 N 
DOCKED: ATOM     28  N   UNL d   1      15.300   0.117 -12.169 -0.17 -0.08    -0.248 N 
DOCKED: ATOM     29 FE   UNL d   1      15.630  -1.889 -12.160 -0.06 +0.00    +0.000 Fe
DOCKED: ENDROOT
DOCKED: BRANCH   6  30
DOCKED: ATOM     30  C   UNL d   1      18.109   0.750  -7.652 -0.24 +0.02    +0.052 C 
DOCKED: BRANCH  30  31
DOCKED: ATOM     31  C   UNL d   1      19.276   1.487  -8.309 -0.15 +0.06    +0.115 C 
DOCKED: BRANCH  31  32
DOCKED: ATOM     32  C   UNL d   1      18.895   2.876  -8.773 -0.15 +0.12    +0.139 C 
DOCKED: ATOM     33  O   UNL d   1      18.214   3.586  -8.047 -0.18 -1.20    -0.650 OA
DOCKED: BRANCH  32  34
DOCKED: ATOM     34  O   UNL d   1      19.324   3.382  -9.952 +0.03 -0.50    -0.776 OA
DOCKED: ATOM     35  H   UNL d   1      19.174   4.293 -10.240 +0.04 +0.12    +0.167 HD
DOCKED: ENDBRANCH  32  34
DOCKED: ENDBRANCH  31  32
DOCKED: ENDBRANCH  30  31
DOCKED: ENDBRANCH   6  30
DOCKED: BRANCH  29  36
DOCKED: ATOM     36  C   UNL d   1      17.501  -1.609 -13.062 -0.04 +0.05    +0.190 C 
DOCKED: BRANCH  36  37
DOCKED: ATOM     37  O   UNL d   1      18.805  -1.169 -12.811 +0.00 -0.09    -0.399 OA
DOCKED: ATOM     38  H   UNL d   1      18.729  -0.593 -11.999 +0.03 +0.05    +0.209 HD
DOCKED: ENDBRANCH  36  37
DOCKED: ENDBRANCH  29  36
DOCKED: BRANCH  22  39
DOCKED: ATOM     39  C   UNL d   1      15.445   3.747 -11.303 -0.28 +0.04    +0.052 C 
DOCKED: BRANCH  39  40
DOCKED: ATOM     40  C   UNL d   1      16.770   4.344 -11.806 -0.20 +0.07    +0.115 C 
DOCKED: BRANCH  40  41
DOCKED: ATOM     41  C   UNL d   1      17.090   5.714 -11.245 -0.29 +0.12    +0.139 C 
DOCKED: ATOM     42  O   UNL d   1      16.654   6.708 -11.809 -0.08 -0.43    -0.650 OA
DOCKED: BRANCH  41  43
DOCKED: ATOM     43  O   UNL d   1      17.772   5.866 -10.088 +0.04 -1.07    -0.776 OA
DOCKED: ATOM     44  H   UNL d   1      18.139   5.118  -9.599 +0.05 +0.27    +0.167 HD
DOCKED: ENDBRANCH  41  43
DOCKED: ENDBRANCH  40  41
DOCKED: ENDBRANCH  39  40
DOCKED: ENDBRANCH  22  39
DOCKED: BRANCH  12  45
DOCKED: ATOM     45  C   UNL d   1      15.809  -7.371 -12.837 -0.10 +0.00    +0.004 C 
DOCKED: ATOM     46  C   UNL d   1      14.631  -7.959 -13.032 -0.12 +0.01    +0.012 C 
DOCKED: ENDBRANCH  12  45
DOCKED: BRANCH  17  47
DOCKED: ATOM     47  C   UNL d   1      13.374  -1.250 -17.042 -0.12 +0.00    +0.004 C 
DOCKED: ATOM     48  C   UNL d   1      14.154  -0.570 -17.885 -0.10 +0.00    +0.012 C 
DOCKED: ENDBRANCH  17  47
DOCKED: TORSDOF 12
DOCKED: TER
DOCKED: ENDMDL
________________________________________________________________________________


	BEGINNING GENETIC ALGORITHM DOCKING 44 of 100
Run: 44 Seed: 760620008 639135775 [ Run 44 of 100 GA/GALS ]
Beginning LAMARCKIAN GENETIC ALGORITHM (LGA), with a maximum of 25000000 energy evaluations.

Final-Value: -12.001


	FINAL GENETIC ALGORITHM DOCKED STATE
	_______________________________________________


Detailed state:  trans 1.014 -1.744 -16.352 quatxyzw -0.486527 0.657071 -0.172504 -0.549356 center 8.781 34.984 -0.736 ntor 12 86.8474 103.0609 -7.4299 105.4760 76.0240 111.7733 160.4090 -141.5475 -25.7686 8.5344 -155.8254 146.9572
State:	  1.014  -1.744 -16.352  -0.582  0.786 -0.206 -113.354     86.85  103.06   -7.43  105.48   76.02  111.77  160.41 -141.55  -25.77    8.53 -155.83  146.96

DOCKED: MODEL       44
DOCKED: USER    Run = 44
DOCKED: USER    DPF = D:/Protein_go_brrr/autodock/final/AncB/heme_Co/dock.dpf
DOCKED: USER  
DOCKED: USER    Estimated Free Energy of Binding    =   -6.80 kcal/mol  [=(1)+(2)+(3)-(4)]
DOCKED: USER    Estimated Inhibition Constant, Ki   =   10.33 uM (micromolar)  [Temperature = 298.15 K]
DOCKED: USER    
DOCKED: USER    (1) Final Intermolecular Energy     =  -10.38 kcal/mol
DOCKED: USER        vdW + Hbond + desolv Energy     =   -6.85 kcal/mol
DOCKED: USER        Electrostatic Energy            =   -3.54 kcal/mol
DOCKED: USER    (2) Final Total Internal Energy     =   -1.62 kcal/mol
DOCKED: USER    (3) Torsional Free Energy           =   +3.58 kcal/mol
DOCKED: USER    (4) Unbound System's Energy  [=(2)] =   -1.62 kcal/mol
DOCKED: USER    
DOCKED: USER    
DOCKED: USER    NEWDPF move heme_Co_opt.pdbqt
DOCKED: USER    NEWDPF about 8.781000 34.984000 -0.736000
DOCKED: USER    NEWDPF tran0 1.014408 -1.743720 -16.352087
DOCKED: USER    NEWDPF quaternion0 -0.486527 0.657071 -0.172504 -0.549356
DOCKED: USER    NEWDPF axisangle0 -0.582257 0.786356 -0.206446 -113.354351
DOCKED: USER    NEWDPF quat0 -0.582257 0.786356 -0.206446 -113.354351
DOCKED: USER    NEWDPF dihe0 86.85 103.06 -7.43 105.48 76.02 111.77 160.41 -141.55 -25.77 8.53 -155.83 146.96 
DOCKED: USER  keepresnum = 1 
DOCKED: USER  
DOCKED: REMARK  12 active torsions:
DOCKED: REMARK  status: ('A' for Active; 'I' for Inactive)
DOCKED: REMARK    1  A    between atoms: C_6  and  C_10 
DOCKED: REMARK    2  A    between atoms: C_10  and  C_11 
DOCKED: REMARK    3  A    between atoms: C_11  and  C_12 
DOCKED: REMARK    4  A    between atoms: C_12  and  O_14 
DOCKED: REMARK    5  A    between atoms: C_17  and  C_20 
DOCKED: REMARK    6  A    between atoms: C_24  and  C_27 
DOCKED: REMARK    7  A    between atoms: C_31  and  C_34 
DOCKED: REMARK    8  A    between atoms: C_34  and  C_35 
DOCKED: REMARK    9  A    between atoms: C_35  and  C_36 
DOCKED: REMARK   10  A    between atoms: C_36  and  O_38 
DOCKED: REMARK   11  A    between atoms: FE_43  and  C_44 
DOCKED: REMARK   12  A    between atoms: C_44  and  O_45 
DOCKED: USER                              x       y       z     vdW  Elec       q    Type
DOCKED: USER                           _______ _______ _______ _____ _____    ______ ____
DOCKED: ROOT
DOCKED: ATOM      1  C   UNL d   1      -0.115  -0.168 -15.373 -0.10 +0.06    +0.064 A 
DOCKED: ATOM      2  C   UNL d   1       4.501  -1.305 -15.304 -0.23 +0.01    +0.064 C 
DOCKED: ATOM      3  C   UNL d   1       3.624  -5.189 -17.945 -0.17 +0.01    +0.064 A 
DOCKED: ATOM      4  C   UNL d   1      -1.033  -3.842 -18.354 -0.11 +0.04    +0.064 A 
DOCKED: ATOM      5  C   UNL d   1       1.205  -0.213 -15.130 -0.11 +0.04    +0.066 A 
DOCKED: ATOM      6  C   UNL d   1       1.871   0.812 -14.431 -0.21 -0.01    -0.021 A 
DOCKED: ATOM      7  C   UNL d   1       3.214   0.489 -14.434 -0.29 -0.01    -0.025 A 
DOCKED: ATOM      8  C   UNL d   1       3.307  -0.727 -15.119 -0.18 +0.02    +0.066 A 
DOCKED: ATOM      9  C   UNL d   1       4.376   1.284 -13.819 -0.43 +0.01    +0.051 C 
DOCKED: ATOM     10  C   UNL d   1       4.693  -2.567 -15.974 -0.17 +0.01    +0.066 A 
DOCKED: ATOM     11  C   UNL d   1       5.899  -3.293 -16.077 -0.22 -0.00    -0.021 A 
DOCKED: ATOM     12  C   UNL d   1       5.614  -4.423 -16.849 -0.20 +0.00    +0.000 A 
DOCKED: ATOM     13  C   UNL d   1       4.256  -4.310 -17.147 -0.15 +0.01    +0.070 A 
DOCKED: ATOM     14  C   UNL d   1       7.202  -2.960 -15.396 -0.28 +0.01    +0.052 C 
DOCKED: ATOM     15  C   UNL d   1       2.247  -5.195 -18.398 -0.18 +0.02    +0.066 A 
DOCKED: ATOM     16  C   UNL d   1       1.693  -6.052 -19.339 -0.17 -0.01    -0.021 A 
DOCKED: ATOM     17  C   UNL d   1       0.351  -5.666 -19.462 -0.15 +0.00    +0.000 A 
DOCKED: ATOM     18  C   UNL d   1       0.186  -4.611 -18.570 -0.14 +0.04    +0.070 A 
DOCKED: ATOM     19  C   UNL d   1       2.431  -7.159 -20.058 -0.15 +0.01    +0.052 C 
DOCKED: ATOM     20  C   UNL d   1      -1.194  -2.758 -17.558 -0.11 +0.06    +0.066 A 
DOCKED: ATOM     21  C   UNL d   1      -2.407  -2.081 -17.460 -0.09 -0.03    -0.025 A 
DOCKED: ATOM     22  C   UNL d   1      -2.181  -1.034 -16.585 -0.04 -0.03    -0.021 A 
DOCKED: ATOM     23  C   UNL d   1      -0.826  -1.119 -16.198 -0.09 +0.07    +0.066 A 
DOCKED: ATOM     24  C   UNL d   1      -3.714  -2.403 -18.180 -0.06 +0.05    +0.051 C 
DOCKED: ATOM     25  N   UNL d   1       2.077  -1.188 -15.557 -0.07 -0.12    -0.248 N 
DOCKED: ATOM     26  N   UNL d   1       3.688  -3.217 -16.571 -0.01 -0.06    -0.248 N 
DOCKED: ATOM     27  N   UNL d   1       1.343  -4.338 -17.977 -0.11 -0.10    -0.248 N 
DOCKED: ATOM     28  N   UNL d   1      -0.225  -2.159 -16.787 -0.09 -0.20    -0.248 N 
DOCKED: ATOM     29 FE   UNL d   1       1.685  -2.856 -16.838 -0.03 +0.00    +0.000 Fe
DOCKED: ENDROOT
DOCKED: BRANCH   6  30
DOCKED: ATOM     30  C   UNL d   1       1.245   2.081 -13.863 -0.25 +0.03    +0.052 C 
DOCKED: BRANCH  30  31
DOCKED: ATOM     31  C   UNL d   1       0.857   3.040 -14.989 -0.21 +0.09    +0.115 C 
DOCKED: BRANCH  31  32
DOCKED: ATOM     32  C   UNL d   1      -0.302   3.936 -14.610 -0.22 +0.18    +0.139 C 
DOCKED: ATOM     33  O   UNL d   1      -0.451   4.266 -13.443 -0.78 -0.98    -0.650 OA
DOCKED: BRANCH  32  34
DOCKED: ATOM     34  O   UNL d   1      -1.159   4.429 -15.534 -0.10 -1.34    -0.776 OA
DOCKED: ATOM     35  H   UNL d   1      -1.916   3.941 -15.889 +0.02 +0.32    +0.167 HD
DOCKED: ENDBRANCH  32  34
DOCKED: ENDBRANCH  31  32
DOCKED: ENDBRANCH  30  31
DOCKED: ENDBRANCH   6  30
DOCKED: BRANCH  29  36
DOCKED: ATOM     36  C   UNL d   1       2.130  -1.583 -18.444 -0.03 +0.07    +0.190 C 
DOCKED: BRANCH  36  37
DOCKED: ATOM     37  O   UNL d   1       1.919  -0.290 -18.932 +0.00 -0.16    -0.399 OA
DOCKED: ATOM     38  H   UNL d   1       1.218   0.098 -18.337 +0.02 +0.09    +0.209 HD
DOCKED: ENDBRANCH  36  37
DOCKED: ENDBRANCH  29  36
DOCKED: BRANCH  22  39
DOCKED: ATOM     39  C   UNL d   1      -3.197   0.024 -16.197 -0.03 +0.07    +0.052 C 
DOCKED: BRANCH  39  40
DOCKED: ATOM     40  C   UNL d   1      -2.796   1.395 -16.766 -0.04 +0.12    +0.115 C 
DOCKED: BRANCH  40  41
DOCKED: ATOM     41  C   UNL d   1      -3.718   2.529 -16.370 +0.11 +0.21    +0.139 C 
DOCKED: ATOM     42  O   UNL d   1      -4.716   2.285 -15.706 -0.27 -1.02    -0.650 OA
DOCKED: BRANCH  41  43
DOCKED: ATOM     43  O   UNL d   1      -3.423   3.817 -16.655 +0.03 -1.36    -0.776 OA
DOCKED: ATOM     44  H   UNL d   1      -2.610   4.075 -17.109 +0.01 +0.22    +0.167 HD
DOCKED: ENDBRANCH  41  43
DOCKED: ENDBRANCH  40  41
DOCKED: ENDBRANCH  39  40
DOCKED: ENDBRANCH  22  39
DOCKED: BRANCH  12  45
DOCKED: ATOM     45  C   UNL d   1       6.458  -5.599 -17.320 -0.20 +0.00    +0.004 C 
DOCKED: ATOM     46  C   UNL d   1       6.599  -6.821 -16.814 -0.31 +0.00    +0.012 C 
DOCKED: ENDBRANCH  12  45
DOCKED: BRANCH  17  47
DOCKED: ATOM     47  C   UNL d   1      -0.712  -6.188 -20.372 -0.12 +0.00    +0.004 C 
DOCKED: ATOM     48  C   UNL d   1      -1.050  -7.477 -20.448 -0.14 +0.01    +0.012 C 
DOCKED: ENDBRANCH  17  47
DOCKED: TORSDOF 12
DOCKED: TER
DOCKED: ENDMDL
________________________________________________________________________________


	BEGINNING GENETIC ALGORITHM DOCKING 45 of 100
Run: 45 Seed: 580701978 2063293217 [ Run 45 of 100 GA/GALS ]
Beginning LAMARCKIAN GENETIC ALGORITHM (LGA), with a maximum of 25000000 energy evaluations.

Final-Value: -12.215


	FINAL GENETIC ALGORITHM DOCKED STATE
	_______________________________________________


Detailed state:  trans 1.020 -1.806 -16.376 quatxyzw -0.479668 0.657965 -0.175212 -0.553445 center 8.781 34.984 -0.736 ntor 12 40.1583 100.6718 -119.5313 110.8731 137.9327 110.5273 169.2011 173.5350 -9.5546 60.8034 -150.2139 -178.8898
State:	  1.020  -1.806 -16.376  -0.576  0.790 -0.210 -112.793     40.16  100.67 -119.53  110.87  137.93  110.53  169.20  173.54   -9.55   60.80 -150.21 -178.89

DOCKED: MODEL       45
DOCKED: USER    Run = 45
DOCKED: USER    DPF = D:/Protein_go_brrr/autodock/final/AncB/heme_Co/dock.dpf
DOCKED: USER  
DOCKED: USER    Estimated Free Energy of Binding    =   -6.43 kcal/mol  [=(1)+(2)+(3)-(4)]
DOCKED: USER    Estimated Inhibition Constant, Ki   =   19.50 uM (micromolar)  [Temperature = 298.15 K]
DOCKED: USER    
DOCKED: USER    (1) Final Intermolecular Energy     =  -10.01 kcal/mol
DOCKED: USER        vdW + Hbond + desolv Energy     =   -6.68 kcal/mol
DOCKED: USER        Electrostatic Energy            =   -3.33 kcal/mol
DOCKED: USER    (2) Final Total Internal Energy     =   -2.21 kcal/mol
DOCKED: USER    (3) Torsional Free Energy           =   +3.58 kcal/mol
DOCKED: USER    (4) Unbound System's Energy  [=(2)] =   -2.21 kcal/mol
DOCKED: USER    
DOCKED: USER    
DOCKED: USER    NEWDPF move heme_Co_opt.pdbqt
DOCKED: USER    NEWDPF about 8.781000 34.984000 -0.736000
DOCKED: USER    NEWDPF tran0 1.019568 -1.805994 -16.376208
DOCKED: USER    NEWDPF quaternion0 -0.479668 0.657965 -0.175212 -0.553445
DOCKED: USER    NEWDPF axisangle0 -0.575911 0.789982 -0.210368 -112.792705
DOCKED: USER    NEWDPF quat0 -0.575911 0.789982 -0.210368 -112.792705
DOCKED: USER    NEWDPF dihe0 40.16 100.67 -119.53 110.87 137.93 110.53 169.20 173.54 -9.55 60.80 -150.21 -178.89 
DOCKED: USER  keepresnum = 1 
DOCKED: USER  
DOCKED: REMARK  12 active torsions:
DOCKED: REMARK  status: ('A' for Active; 'I' for Inactive)
DOCKED: REMARK    1  A    between atoms: C_6  and  C_10 
DOCKED: REMARK    2  A    between atoms: C_10  and  C_11 
DOCKED: REMARK    3  A    between atoms: C_11  and  C_12 
DOCKED: REMARK    4  A    between atoms: C_12  and  O_14 
DOCKED: REMARK    5  A    between atoms: C_17  and  C_20 
DOCKED: REMARK    6  A    between atoms: C_24  and  C_27 
DOCKED: REMARK    7  A    between atoms: C_31  and  C_34 
DOCKED: REMARK    8  A    between atoms: C_34  and  C_35 
DOCKED: REMARK    9  A    between atoms: C_35  and  C_36 
DOCKED: REMARK   10  A    between atoms: C_36  and  O_38 
DOCKED: REMARK   11  A    between atoms: FE_43  and  C_44 
DOCKED: REMARK   12  A    between atoms: C_44  and  O_45 
DOCKED: USER                              x       y       z     vdW  Elec       q    Type
DOCKED: USER                           _______ _______ _______ _____ _____    ______ ____
DOCKED: ROOT
DOCKED: ATOM      1  C   UNL d   1      -0.101  -0.226 -15.395 -0.10 +0.06    +0.064 A 
DOCKED: ATOM      2  C   UNL d   1       4.501  -1.416 -15.292 -0.23 +0.01    +0.064 C 
DOCKED: ATOM      3  C   UNL d   1       3.604  -5.267 -17.973 -0.17 +0.01    +0.064 A 
DOCKED: ATOM      4  C   UNL d   1      -1.032  -3.864 -18.415 -0.11 +0.04    +0.064 A 
DOCKED: ATOM      5  C   UNL d   1       1.216  -0.288 -15.140 -0.11 +0.04    +0.066 A 
DOCKED: ATOM      6  C   UNL d   1       1.887   0.724 -14.426 -0.21 -0.01    -0.021 A 
DOCKED: ATOM      7  C   UNL d   1       3.226   0.385 -14.419 -0.28 -0.01    -0.025 A 
DOCKED: ATOM      8  C   UNL d   1       3.312  -0.826 -15.114 -0.18 +0.02    +0.066 A 
DOCKED: ATOM      9  C   UNL d   1       4.391   1.162 -13.787 -0.40 +0.01    +0.051 C 
DOCKED: ATOM     10  C   UNL d   1       4.684  -2.674 -15.970 -0.17 +0.01    +0.066 A 
DOCKED: ATOM     11  C   UNL d   1       5.884  -3.413 -16.069 -0.22 -0.00    -0.021 A 
DOCKED: ATOM     12  C   UNL d   1       5.592  -4.533 -16.852 -0.20 +0.00    +0.000 A 
DOCKED: ATOM     13  C   UNL d   1       4.239  -4.402 -17.162 -0.15 +0.01    +0.070 A 
DOCKED: ATOM     14  C   UNL d   1       7.183  -3.101 -15.373 -0.30 +0.01    +0.052 C 
DOCKED: ATOM     15  C   UNL d   1       2.231  -5.254 -18.439 -0.19 +0.02    +0.066 A 
DOCKED: ATOM     16  C   UNL d   1       1.677  -6.097 -19.392 -0.17 -0.01    -0.021 A 
DOCKED: ATOM     17  C   UNL d   1       0.341  -5.694 -19.525 -0.15 +0.00    +0.000 A 
DOCKED: ATOM     18  C   UNL d   1       0.180  -4.645 -18.626 -0.14 +0.04    +0.070 A 
DOCKED: ATOM     19  C   UNL d   1       2.410  -7.207 -20.113 -0.14 +0.01    +0.052 C 
DOCKED: ATOM     20  C   UNL d   1      -1.188  -2.785 -17.611 -0.11 +0.06    +0.066 A 
DOCKED: ATOM     21  C   UNL d   1      -2.395  -2.095 -17.519 -0.08 -0.03    -0.025 A 
DOCKED: ATOM     22  C   UNL d   1      -2.165  -1.058 -16.633 -0.04 -0.03    -0.021 A 
DOCKED: ATOM     23  C   UNL d   1      -0.815  -1.161 -16.235 -0.09 +0.07    +0.066 A 
DOCKED: ATOM     24  C   UNL d   1      -3.698  -2.395 -18.254 -0.06 +0.04    +0.051 C 
DOCKED: ATOM     25  N   UNL d   1       2.081  -1.269 -15.567 -0.07 -0.12    -0.248 N 
DOCKED: ATOM     26  N   UNL d   1       3.678  -3.308 -16.582 -0.02 -0.06    -0.248 N 
DOCKED: ATOM     27  N   UNL d   1       1.334  -4.391 -18.019 -0.11 -0.10    -0.248 N 
DOCKED: ATOM     28  N   UNL d   1      -0.220  -2.204 -16.826 -0.09 -0.20    -0.248 N 
DOCKED: ATOM     29 FE   UNL d   1       1.682  -2.922 -16.865 -0.04 +0.00    +0.000 Fe
DOCKED: ENDROOT
DOCKED: BRANCH   6  30
DOCKED: ATOM     30  C   UNL d   1       1.270   1.996 -13.853 -0.26 +0.03    +0.052 C 
DOCKED: BRANCH  30  31
DOCKED: ATOM     31  C   UNL d   1       0.778   2.907 -14.977 -0.20 +0.09    +0.115 C 
DOCKED: BRANCH  31  32
DOCKED: ATOM     32  C   UNL d   1      -0.083   4.042 -14.465 -0.24 +0.17    +0.139 C 
DOCKED: ATOM     33  O   UNL d   1       0.221   4.604 -13.423 -0.54 -0.75    -0.650 OA
DOCKED: BRANCH  32  34
DOCKED: ATOM     34  O   UNL d   1      -1.160   4.491 -15.150 -0.14 -1.53    -0.776 OA
DOCKED: ATOM     35  H   UNL d   1      -1.754   3.925 -15.662 +0.03 +0.34    +0.167 HD
DOCKED: ENDBRANCH  32  34
DOCKED: ENDBRANCH  31  32
DOCKED: ENDBRANCH  30  31
DOCKED: ENDBRANCH   6  30
DOCKED: BRANCH  29  36
DOCKED: ATOM     36  C   UNL d   1       2.157  -1.641 -18.456 -0.03 +0.07    +0.190 C 
DOCKED: BRANCH  36  37
DOCKED: ATOM     37  O   UNL d   1       1.950  -0.347 -18.944 +0.00 -0.15    -0.399 OA
DOCKED: ATOM     38  H   UNL d   1       1.207   0.020 -18.390 +0.02 +0.09    +0.209 HD
DOCKED: ENDBRANCH  36  37
DOCKED: ENDBRANCH  29  36
DOCKED: BRANCH  22  39
DOCKED: ATOM     39  C   UNL d   1      -3.172   0.008 -16.246 -0.03 +0.07    +0.052 C 
DOCKED: BRANCH  39  40
DOCKED: ATOM     40  C   UNL d   1      -3.301   1.063 -17.358 -0.02 +0.10    +0.115 C 
DOCKED: BRANCH  40  41
DOCKED: ATOM     41  C   UNL d   1      -3.060   2.486 -16.900 -0.04 +0.16    +0.139 C 
DOCKED: ATOM     42  O   UNL d   1      -3.624   2.895 -15.895 -0.17 -1.36    -0.650 OA
DOCKED: BRANCH  41  43
DOCKED: ATOM     43  O   UNL d   1      -2.170   3.291 -17.522 +0.02 -0.74    -0.776 OA
DOCKED: ATOM     44  H   UNL d   1      -1.359   3.596 -17.095 +0.02 +0.16    +0.167 HD
DOCKED: ENDBRANCH  41  43
DOCKED: ENDBRANCH  40  41
DOCKED: ENDBRANCH  39  40
DOCKED: ENDBRANCH  22  39
DOCKED: BRANCH  12  45
DOCKED: ATOM     45  C   UNL d   1       6.428  -5.716 -17.325 -0.21 +0.00    +0.004 C 
DOCKED: ATOM     46  C   UNL d   1       6.480  -6.970 -16.886 -0.31 -0.00    +0.012 C 
DOCKED: ENDBRANCH  12  45
DOCKED: BRANCH  17  47
DOCKED: ATOM     47  C   UNL d   1      -0.719  -6.197 -20.449 -0.12 +0.00    +0.004 C 
DOCKED: ATOM     48  C   UNL d   1      -1.837  -6.797 -20.032 -0.13 +0.01    +0.012 C 
DOCKED: ENDBRANCH  17  47
DOCKED: TORSDOF 12
DOCKED: TER
DOCKED: ENDMDL
________________________________________________________________________________


	BEGINNING GENETIC ALGORITHM DOCKING 46 of 100
Run: 46 Seed: 1042360751 1800015709 [ Run 46 of 100 GA/GALS ]
Beginning LAMARCKIAN GENETIC ALGORITHM (LGA), with a maximum of 25000000 energy evaluations.

Final-Value: -10.528


	FINAL GENETIC ALGORITHM DOCKED STATE
	_______________________________________________


Detailed state:  trans 2.950 -5.454 -18.535 quatxyzw -0.623552 0.328238 -0.279129 -0.652326 center 8.781 34.984 -0.736 ntor 12 -25.4388 111.2432 67.5032 72.3204 132.4927 135.5446 63.3250 -98.0310 -83.2723 66.9446 -22.5677 13.3508
State:	  2.950  -5.454 -18.535  -0.823  0.433 -0.368 -98.566    -25.44  111.24   67.50   72.32  132.49  135.54   63.33  -98.03  -83.27   66.94  -22.57   13.35

DOCKED: MODEL       46
DOCKED: USER    Run = 46
DOCKED: USER    DPF = D:/Protein_go_brrr/autodock/final/AncB/heme_Co/dock.dpf
DOCKED: USER  
DOCKED: USER    Estimated Free Energy of Binding    =   -6.09 kcal/mol  [=(1)+(2)+(3)-(4)]
DOCKED: USER    Estimated Inhibition Constant, Ki   =   34.54 uM (micromolar)  [Temperature = 298.15 K]
DOCKED: USER    
DOCKED: USER    (1) Final Intermolecular Energy     =   -9.67 kcal/mol
DOCKED: USER        vdW + Hbond + desolv Energy     =   -6.15 kcal/mol
DOCKED: USER        Electrostatic Energy            =   -3.52 kcal/mol
DOCKED: USER    (2) Final Total Internal Energy     =   -0.86 kcal/mol
DOCKED: USER    (3) Torsional Free Energy           =   +3.58 kcal/mol
DOCKED: USER    (4) Unbound System's Energy  [=(2)] =   -0.86 kcal/mol
DOCKED: USER    
DOCKED: USER    
DOCKED: USER    NEWDPF move heme_Co_opt.pdbqt
DOCKED: USER    NEWDPF about 8.781000 34.984000 -0.736000
DOCKED: USER    NEWDPF tran0 2.950013 -5.454454 -18.535470
DOCKED: USER    NEWDPF quaternion0 -0.623552 0.328238 -0.279129 -0.652326
DOCKED: USER    NEWDPF axisangle0 -0.822695 0.433067 -0.368274 -98.565556
DOCKED: USER    NEWDPF quat0 -0.822695 0.433067 -0.368274 -98.565556
DOCKED: USER    NEWDPF dihe0 -25.44 111.24 67.50 72.32 132.49 135.54 63.33 -98.03 -83.27 66.94 -22.57 13.35 
DOCKED: USER  keepresnum = 1 
DOCKED: USER  
DOCKED: REMARK  12 active torsions:
DOCKED: REMARK  status: ('A' for Active; 'I' for Inactive)
DOCKED: REMARK    1  A    between atoms: C_6  and  C_10 
DOCKED: REMARK    2  A    between atoms: C_10  and  C_11 
DOCKED: REMARK    3  A    between atoms: C_11  and  C_12 
DOCKED: REMARK    4  A    between atoms: C_12  and  O_14 
DOCKED: REMARK    5  A    between atoms: C_17  and  C_20 
DOCKED: REMARK    6  A    between atoms: C_24  and  C_27 
DOCKED: REMARK    7  A    between atoms: C_31  and  C_34 
DOCKED: REMARK    8  A    between atoms: C_34  and  C_35 
DOCKED: REMARK    9  A    between atoms: C_35  and  C_36 
DOCKED: REMARK   10  A    between atoms: C_36  and  O_38 
DOCKED: REMARK   11  A    between atoms: FE_43  and  C_44 
DOCKED: REMARK   12  A    between atoms: C_44  and  O_45 
DOCKED: USER                              x       y       z     vdW  Elec       q    Type
DOCKED: USER                           _______ _______ _______ _____ _____    ______ ____
DOCKED: ROOT
DOCKED: ATOM      1  C   UNL d   1       1.051  -4.460 -18.884 -0.11 +0.02    +0.064 A 
DOCKED: ATOM      2  C   UNL d   1       4.862  -3.257 -16.307 -0.18 +0.01    +0.064 C 
DOCKED: ATOM      3  C   UNL d   1       6.893  -7.473 -17.274 -0.21 +0.00    +0.064 A 
DOCKED: ATOM      4  C   UNL d   1       3.184  -8.569 -20.224 -0.12 +0.01    +0.064 A 
DOCKED: ATOM      5  C   UNL d   1       1.927  -3.836 -18.079 -0.12 +0.02    +0.066 A 
DOCKED: ATOM      6  C   UNL d   1       1.720  -2.518 -17.628 -0.08 -0.01    -0.021 A 
DOCKED: ATOM      7  C   UNL d   1       2.840  -2.166 -16.899 -0.05 -0.01    -0.025 A 
DOCKED: ATOM      8  C   UNL d   1       3.674  -3.289 -16.924 -0.01 +0.02    +0.066 A 
DOCKED: ATOM      9  C   UNL d   1       3.128  -0.828 -16.202 -0.14 +0.02    +0.051 C 
DOCKED: ATOM     10  C   UNL d   1       5.776  -4.371 -16.257 -0.22 +0.01    +0.066 A 
DOCKED: ATOM     11  C   UNL d   1       6.972  -4.449 -15.510 -0.30 -0.00    -0.021 A 
DOCKED: ATOM     12  C   UNL d   1       7.541  -5.690 -15.808 -0.26 +0.00    +0.000 A 
DOCKED: ATOM     13  C   UNL d   1       6.647  -6.281 -16.701 -0.24 +0.00    +0.070 A 
DOCKED: ATOM     14  C   UNL d   1       7.468  -3.434 -14.513 -0.22 +0.01    +0.052 C 
DOCKED: ATOM     15  C   UNL d   1       6.110  -8.202 -18.251 -0.16 -0.00    +0.066 A 
DOCKED: ATOM     16  C   UNL d   1       6.491  -9.361 -18.913 -0.08 -0.00    -0.021 A 
DOCKED: ATOM     17  C   UNL d   1       5.425  -9.680 -19.766 -0.13 +0.00    +0.000 A 
DOCKED: ATOM     18  C   UNL d   1       4.467  -8.696 -19.545 -0.16 +0.00    +0.070 A 
DOCKED: ATOM     19  C   UNL d   1       7.801 -10.091 -18.718 -0.11 +0.00    +0.052 C 
DOCKED: ATOM     20  C   UNL d   1       2.274  -7.574 -20.088 -0.14 +0.01    +0.066 A 
DOCKED: ATOM     21  C   UNL d   1       1.091  -7.543 -20.823 -0.10 -0.01    -0.025 A 
DOCKED: ATOM     22  C   UNL d   1       0.442  -6.384 -20.436 -0.10 -0.01    -0.021 A 
DOCKED: ATOM     23  C   UNL d   1       1.274  -5.755 -19.486 -0.14 +0.02    +0.066 A 
DOCKED: ATOM     24  C   UNL d   1       0.611  -8.556 -21.858 -0.05 +0.02    +0.051 C 
DOCKED: ATOM     25  N   UNL d   1       3.131  -4.341 -17.643 -0.10 -0.05    -0.248 N 
DOCKED: ATOM     26  N   UNL d   1       5.553  -5.507 -16.927 -0.16 -0.01    -0.248 N 
DOCKED: ATOM     27  N   UNL d   1       4.921  -7.816 -18.659 -0.12 +0.01    -0.248 N 
DOCKED: ATOM     28  N   UNL d   1       2.385  -6.471 -19.274 -0.11 -0.05    -0.248 N 
DOCKED: ATOM     29 FE   UNL d   1       4.076  -6.182 -18.183 -0.05 -0.00    +0.000 Fe
DOCKED: ENDROOT
DOCKED: BRANCH   6  30
DOCKED: ATOM     30  C   UNL d   1       0.533  -1.620 -17.957 -0.06 +0.03    +0.052 C 
DOCKED: BRANCH  30  31
DOCKED: ATOM     31  C   UNL d   1      -0.767  -2.238 -17.444 -0.10 +0.09    +0.115 C 
DOCKED: BRANCH  31  32
DOCKED: ATOM     32  C   UNL d   1      -1.154  -1.716 -16.077 -0.04 +0.19    +0.139 C 
DOCKED: ATOM     33  O   UNL d   1      -0.452  -1.980 -15.112 -0.09 -0.83    -0.650 OA
DOCKED: BRANCH  32  34
DOCKED: ATOM     34  O   UNL d   1      -2.234  -0.922 -15.892 -0.41 -1.50    -0.776 OA
DOCKED: ATOM     35  H   UNL d   1      -2.580  -0.311 -16.557 +0.01 +0.22    +0.167 HD
DOCKED: ENDBRANCH  32  34
DOCKED: ENDBRANCH  31  32
DOCKED: ENDBRANCH  30  31
DOCKED: ENDBRANCH   6  30
DOCKED: BRANCH  29  36
DOCKED: ATOM     36  C   UNL d   1       4.953  -5.136 -19.774 -0.04 +0.03    +0.190 C 
DOCKED: BRANCH  36  37
DOCKED: ATOM     37  O   UNL d   1       4.830  -3.977 -20.547 +0.00 -0.08    -0.399 OA
DOCKED: ATOM     38  H   UNL d   1       4.011  -3.524 -20.202 +0.02 +0.05    +0.209 HD
DOCKED: ENDBRANCH  36  37
DOCKED: ENDBRANCH  29  36
DOCKED: BRANCH  22  39
DOCKED: ATOM     39  C   UNL d   1      -0.873  -5.883 -21.001 -0.07 +0.03    +0.052 C 
DOCKED: BRANCH  39  40
DOCKED: ATOM     40  C   UNL d   1      -1.967  -5.890 -19.920 -0.12 +0.09    +0.115 C 
DOCKED: BRANCH  40  41
DOCKED: ATOM     41  C   UNL d   1      -3.145  -6.790 -20.229 +0.19 +0.20    +0.139 C 
DOCKED: ATOM     42  O   UNL d   1      -2.945  -7.883 -20.741 -0.43 -0.97    -0.650 OA
DOCKED: BRANCH  41  43
DOCKED: ATOM     43  O   UNL d   1      -4.405  -6.456 -19.875 -0.23 -1.26    -0.776 OA
DOCKED: ATOM     44  H   UNL d   1      -4.910  -5.773 -20.335 +0.01 +0.16    +0.167 HD
DOCKED: ENDBRANCH  41  43
DOCKED: ENDBRANCH  40  41
DOCKED: ENDBRANCH  39  40
DOCKED: ENDBRANCH  22  39
DOCKED: BRANCH  12  45
DOCKED: ATOM     45  C   UNL d   1       8.811  -6.389 -15.339 -0.28 +0.00    +0.004 C 
DOCKED: ATOM     46  C   UNL d   1       9.171  -6.811 -14.130 -0.39 +0.00    +0.012 C 
DOCKED: ENDBRANCH  12  45
DOCKED: BRANCH  17  47
DOCKED: ATOM     47  C   UNL d   1       5.300 -10.784 -20.764 -0.08 +0.00    +0.004 C 
DOCKED: ATOM     48  C   UNL d   1       4.468 -11.818 -20.619 -0.09 +0.00    +0.012 C 
DOCKED: ENDBRANCH  17  47
DOCKED: TORSDOF 12
DOCKED: TER
DOCKED: ENDMDL
________________________________________________________________________________


	BEGINNING GENETIC ALGORITHM DOCKING 47 of 100
Run: 47 Seed: 1700663524 1969976975 [ Run 47 of 100 GA/GALS ]
Beginning LAMARCKIAN GENETIC ALGORITHM (LGA), with a maximum of 25000000 energy evaluations.

Final-Value: -12.330


	FINAL GENETIC ALGORITHM DOCKED STATE
	_______________________________________________


Detailed state:  trans -7.598 -1.931 -11.813 quatxyzw 0.023250 -0.629623 0.509851 -0.585736 center 8.781 34.984 -0.736 ntor 12 -131.7302 81.5338 -118.4476 128.0086 107.6768 142.7532 43.1353 143.3494 145.7153 149.3217 -152.5626 2.3869
State:	 -7.598  -1.931 -11.813   0.029 -0.777  0.629 -108.290   -131.73   81.53 -118.45  128.01  107.68  142.75   43.14  143.35  145.72  149.32 -152.56    2.39

DOCKED: MODEL       47
DOCKED: USER    Run = 47
DOCKED: USER    DPF = D:/Protein_go_brrr/autodock/final/AncB/heme_Co/dock.dpf
DOCKED: USER  
DOCKED: USER    Estimated Free Energy of Binding    =   -6.38 kcal/mol  [=(1)+(2)+(3)-(4)]
DOCKED: USER    Estimated Inhibition Constant, Ki   =   21.11 uM (micromolar)  [Temperature = 298.15 K]
DOCKED: USER    
DOCKED: USER    (1) Final Intermolecular Energy     =   -9.96 kcal/mol
DOCKED: USER        vdW + Hbond + desolv Energy     =   -7.15 kcal/mol
DOCKED: USER        Electrostatic Energy            =   -2.81 kcal/mol
DOCKED: USER    (2) Final Total Internal Energy     =   -2.37 kcal/mol
DOCKED: USER    (3) Torsional Free Energy           =   +3.58 kcal/mol
DOCKED: USER    (4) Unbound System's Energy  [=(2)] =   -2.37 kcal/mol
DOCKED: USER    
DOCKED: USER    
DOCKED: USER    NEWDPF move heme_Co_opt.pdbqt
DOCKED: USER    NEWDPF about 8.781000 34.984000 -0.736000
DOCKED: USER    NEWDPF tran0 -7.598350 -1.930658 -11.812536
DOCKED: USER    NEWDPF quaternion0 0.023250 -0.629623 0.509851 -0.585736
DOCKED: USER    NEWDPF axisangle0 0.028686 -0.776831 0.629056 -108.290032
DOCKED: USER    NEWDPF quat0 0.028686 -0.776831 0.629056 -108.290032
DOCKED: USER    NEWDPF dihe0 -131.73 81.53 -118.45 128.01 107.68 142.75 43.14 143.35 145.72 149.32 -152.56 2.39 
DOCKED: USER  keepresnum = 1 
DOCKED: USER  
DOCKED: REMARK  12 active torsions:
DOCKED: REMARK  status: ('A' for Active; 'I' for Inactive)
DOCKED: REMARK    1  A    between atoms: C_6  and  C_10 
DOCKED: REMARK    2  A    between atoms: C_10  and  C_11 
DOCKED: REMARK    3  A    between atoms: C_11  and  C_12 
DOCKED: REMARK    4  A    between atoms: C_12  and  O_14 
DOCKED: REMARK    5  A    between atoms: C_17  and  C_20 
DOCKED: REMARK    6  A    between atoms: C_24  and  C_27 
DOCKED: REMARK    7  A    between atoms: C_31  and  C_34 
DOCKED: REMARK    8  A    between atoms: C_34  and  C_35 
DOCKED: REMARK    9  A    between atoms: C_35  and  C_36 
DOCKED: REMARK   10  A    between atoms: C_36  and  O_38 
DOCKED: REMARK   11  A    between atoms: FE_43  and  C_44 
DOCKED: REMARK   12  A    between atoms: C_44  and  O_45 
DOCKED: USER                              x       y       z     vdW  Elec       q    Type
DOCKED: USER                           _______ _______ _______ _____ _____    ______ ____
DOCKED: ROOT
DOCKED: ATOM      1  C   UNL d   1      -6.699  -2.222 -13.768 -0.09 +0.08    +0.064 A 
DOCKED: ATOM      2  C   UNL d   1      -8.092  -5.281 -10.404 -0.37 +0.03    +0.064 C 
DOCKED: ATOM      3  C   UNL d   1      -9.130  -1.649  -7.478 -0.21 +0.02    +0.064 A 
DOCKED: ATOM      4  C   UNL d   1      -8.078   1.500 -11.034 -0.06 +0.03    +0.064 A 
DOCKED: ATOM      5  C   UNL d   1      -6.969  -3.325 -13.050 -0.14 +0.07    +0.066 A 
DOCKED: ATOM      6  C   UNL d   1      -6.858  -4.618 -13.598 -0.18 -0.02    -0.021 A 
DOCKED: ATOM      7  C   UNL d   1      -7.285  -5.500 -12.625 -0.29 -0.02    -0.025 A 
DOCKED: ATOM      8  C   UNL d   1      -7.623  -4.710 -11.521 -0.26 +0.04    +0.066 A 
DOCKED: ATOM      9  C   UNL d   1      -7.378  -7.031 -12.716 -0.15 +0.02    +0.051 C 
DOCKED: ATOM     10  C   UNL d   1      -8.441  -4.551  -9.210 -0.28 +0.03    +0.066 A 
DOCKED: ATOM     11  C   UNL d   1      -8.805  -5.101  -7.962 -0.44 -0.01    -0.021 A 
DOCKED: ATOM     12  C   UNL d   1      -9.099  -4.020  -7.126 -0.38 +0.00    +0.000 A 
DOCKED: ATOM     13  C   UNL d   1      -8.880  -2.894  -7.920 -0.22 +0.02    +0.070 A 
DOCKED: ATOM     14  C   UNL d   1      -8.774  -6.561  -7.587 -0.43 +0.02    +0.052 C 
DOCKED: ATOM     15  C   UNL d   1      -9.012  -0.384  -8.176 -0.16 +0.02    +0.066 A 
DOCKED: ATOM     16  C   UNL d   1      -9.424   0.856  -7.709 -0.23 -0.00    -0.021 A 
DOCKED: ATOM     17  C   UNL d   1      -9.125   1.767  -8.732 -0.16 +0.00    +0.000 A 
DOCKED: ATOM     18  C   UNL d   1      -8.536   1.011  -9.740 -0.08 +0.02    +0.070 A 
DOCKED: ATOM     19  C   UNL d   1     -10.063   1.118  -6.363 -0.01 +0.00    +0.052 C 
DOCKED: ATOM     20  C   UNL d   1      -7.582   0.770 -12.062 -0.04 +0.04    +0.066 A 
DOCKED: ATOM     21  C   UNL d   1      -7.208   1.350 -13.273 -0.06 -0.02    -0.025 A 
DOCKED: ATOM     22  C   UNL d   1      -6.780   0.305 -14.070 -0.05 -0.02    -0.021 A 
DOCKED: ATOM     23  C   UNL d   1      -6.925  -0.871 -13.305 -0.06 +0.06    +0.066 A 
DOCKED: ATOM     24  C   UNL d   1      -7.275   2.825 -13.659 -0.09 +0.04    +0.051 C 
DOCKED: ATOM     25  N   UNL d   1      -7.432  -3.359 -11.754 -0.09 -0.18    -0.248 N 
DOCKED: ATOM     26  N   UNL d   1      -8.429  -3.215  -9.162 -0.12 -0.09    -0.248 N 
DOCKED: ATOM     27  N   UNL d   1      -8.513  -0.270  -9.387 -0.05 -0.08    -0.248 N 
DOCKED: ATOM     28  N   UNL d   1      -7.413  -0.594 -12.090 -0.02 -0.17    -0.248 N 
DOCKED: ATOM     29 FE   UNL d   1      -8.003  -1.720 -10.503 -0.03 +0.00    +0.000 Fe
DOCKED: ENDROOT
DOCKED: BRANCH   6  30
DOCKED: ATOM     30  C   UNL d   1      -6.437  -4.970 -15.020 -0.15 +0.06    +0.052 C 
DOCKED: BRANCH  30  31
DOCKED: ATOM     31  C   UNL d   1      -7.501  -4.523 -16.022 -0.05 +0.09    +0.115 C 
DOCKED: BRANCH  31  32
DOCKED: ATOM     32  C   UNL d   1      -8.906  -4.684 -15.482 -0.02 +0.08    +0.139 C 
DOCKED: ATOM     33  O   UNL d   1      -9.479  -5.756 -15.608 +0.03 -0.38    -0.650 OA
DOCKED: BRANCH  32  34
DOCKED: ATOM     34  O   UNL d   1      -9.537  -3.689 -14.816 +0.04 -0.43    -0.776 OA
DOCKED: ATOM     35  H   UNL d   1     -10.045  -3.816 -14.003 +0.02 +0.09    +0.167 HD
DOCKED: ENDBRANCH  32  34
DOCKED: ENDBRANCH  31  32
DOCKED: ENDBRANCH  30  31
DOCKED: ENDBRANCH   6  30
DOCKED: BRANCH  29  36
DOCKED: ATOM     36  C   UNL d   1      -9.923  -1.910 -11.322 -0.02 +0.08    +0.190 C 
DOCKED: BRANCH  36  37
DOCKED: ATOM     37  O   UNL d   1     -10.639  -2.528 -12.353 +0.00 -0.17    -0.399 OA
DOCKED: ATOM     38  H   UNL d   1      -9.991  -2.599 -13.108 +0.02 +0.10    +0.209 HD
DOCKED: ENDBRANCH  36  37
DOCKED: ENDBRANCH  29  36
DOCKED: BRANCH  22  39
DOCKED: ATOM     39  C   UNL d   1      -6.319   0.429 -15.510 -0.04 +0.05    +0.052 C 
DOCKED: BRANCH  39  40
DOCKED: ATOM     40  C   UNL d   1      -4.786   0.335 -15.600 -0.07 +0.15    +0.115 C 
DOCKED: BRANCH  40  41
DOCKED: ATOM     41  C   UNL d   1      -4.052   0.984 -14.445 -0.12 +0.23    +0.139 C 
DOCKED: ATOM     42  O   UNL d   1      -3.923   2.200 -14.425 -0.51 -1.54    -0.650 OA
DOCKED: BRANCH  41  43
DOCKED: ATOM     43  O   UNL d   1      -3.611   0.264 -13.390 +0.01 -1.40    -0.776 OA
DOCKED: ATOM     44  H   UNL d   1      -3.987   0.357 -12.504 +0.04 +0.25    +0.167 HD
DOCKED: ENDBRANCH  41  43
DOCKED: ENDBRANCH  40  41
DOCKED: ENDBRANCH  39  40
DOCKED: ENDBRANCH  22  39
DOCKED: BRANCH  12  45
DOCKED: ATOM     45  C   UNL d   1      -9.539  -3.921  -5.672 -0.52 +0.00    +0.004 C 
DOCKED: ATOM     46  C   UNL d   1      -8.956  -3.336  -4.629 -0.61 +0.00    +0.012 C 
DOCKED: ENDBRANCH  12  45
DOCKED: BRANCH  17  47
DOCKED: ATOM     47  C   UNL d   1      -9.402   3.232  -8.816 -0.16 +0.00    +0.004 C 
DOCKED: ATOM     48  C   UNL d   1      -8.590   4.166  -8.315 -0.30 +0.00    +0.012 C 
DOCKED: ENDBRANCH  17  47
DOCKED: TORSDOF 12
DOCKED: TER
DOCKED: ENDMDL
________________________________________________________________________________


	BEGINNING GENETIC ALGORITHM DOCKING 48 of 100
Run: 48 Seed: 488212921 894989875 [ Run 48 of 100 GA/GALS ]
Beginning LAMARCKIAN GENETIC ALGORITHM (LGA), with a maximum of 25000000 energy evaluations.

Final-Value: -12.815


	FINAL GENETIC ALGORITHM DOCKED STATE
	_______________________________________________


Detailed state:  trans -4.008 -11.025 11.508 quatxyzw 0.689436 0.159265 0.681491 -0.186768 center 8.781 34.984 -0.736 ntor 12 131.4632 103.1706 -13.4450 120.4821 135.0317 137.8586 -100.5323 106.8034 59.0465 23.3815 -21.6147 166.8624
State:	 -4.008 -11.025  11.508   0.702  0.162  0.694 -158.471    131.46  103.17  -13.44  120.48  135.03  137.86 -100.53  106.80   59.05   23.38  -21.61  166.86

DOCKED: MODEL       48
DOCKED: USER    Run = 48
DOCKED: USER    DPF = D:/Protein_go_brrr/autodock/final/AncB/heme_Co/dock.dpf
DOCKED: USER  
DOCKED: USER    Estimated Free Energy of Binding    =   -6.93 kcal/mol  [=(1)+(2)+(3)-(4)]
DOCKED: USER    Estimated Inhibition Constant, Ki   =    8.33 uM (micromolar)  [Temperature = 298.15 K]
DOCKED: USER    
DOCKED: USER    (1) Final Intermolecular Energy     =  -10.51 kcal/mol
DOCKED: USER        vdW + Hbond + desolv Energy     =   -7.34 kcal/mol
DOCKED: USER        Electrostatic Energy            =   -3.16 kcal/mol
DOCKED: USER    (2) Final Total Internal Energy     =   -2.31 kcal/mol
DOCKED: USER    (3) Torsional Free Energy           =   +3.58 kcal/mol
DOCKED: USER    (4) Unbound System's Energy  [=(2)] =   -2.31 kcal/mol
DOCKED: USER    
DOCKED: USER    
DOCKED: USER    NEWDPF move heme_Co_opt.pdbqt
DOCKED: USER    NEWDPF about 8.781000 34.984000 -0.736000
DOCKED: USER    NEWDPF tran0 -4.007846 -11.025181 11.507880
DOCKED: USER    NEWDPF quaternion0 0.689436 0.159265 0.681491 -0.186768
DOCKED: USER    NEWDPF axisangle0 0.701785 0.162117 0.693697 -158.471495
DOCKED: USER    NEWDPF quat0 0.701785 0.162117 0.693697 -158.471495
DOCKED: USER    NEWDPF dihe0 131.46 103.17 -13.44 120.48 135.03 137.86 -100.53 106.80 59.05 23.38 -21.61 166.86 
DOCKED: USER  keepresnum = 1 
DOCKED: USER  
DOCKED: REMARK  12 active torsions:
DOCKED: REMARK  status: ('A' for Active; 'I' for Inactive)
DOCKED: REMARK    1  A    between atoms: C_6  and  C_10 
DOCKED: REMARK    2  A    between atoms: C_10  and  C_11 
DOCKED: REMARK    3  A    between atoms: C_11  and  C_12 
DOCKED: REMARK    4  A    between atoms: C_12  and  O_14 
DOCKED: REMARK    5  A    between atoms: C_17  and  C_20 
DOCKED: REMARK    6  A    between atoms: C_24  and  C_27 
DOCKED: REMARK    7  A    between atoms: C_31  and  C_34 
DOCKED: REMARK    8  A    between atoms: C_34  and  C_35 
DOCKED: REMARK    9  A    between atoms: C_35  and  C_36 
DOCKED: REMARK   10  A    between atoms: C_36  and  O_38 
DOCKED: REMARK   11  A    between atoms: FE_43  and  C_44 
DOCKED: REMARK   12  A    between atoms: C_44  and  O_45 
DOCKED: USER                              x       y       z     vdW  Elec       q    Type
DOCKED: USER                           _______ _______ _______ _____ _____    ______ ____
DOCKED: ROOT
DOCKED: ATOM      1  C   UNL d   1      -4.914 -12.347  10.043 -0.19 +0.03    +0.064 A 
DOCKED: ATOM      2  C   UNL d   1      -1.063  -9.562   9.883 -0.01 +0.01    +0.064 C 
DOCKED: ATOM      3  C   UNL d   1      -2.076  -7.849  14.227 -0.16 +0.01    +0.064 A 
DOCKED: ATOM      4  C   UNL d   1      -5.796 -10.965  14.574 -0.16 +0.04    +0.064 A 
DOCKED: ATOM      5  C   UNL d   1      -3.808 -11.685   9.665 -0.17 +0.02    +0.066 A 
DOCKED: ATOM      6  C   UNL d   1      -3.147 -11.964   8.453 -0.20 -0.01    -0.021 A 
DOCKED: ATOM      7  C   UNL d   1      -2.018 -11.170   8.422 -0.25 -0.01    -0.025 A 
DOCKED: ATOM      8  C   UNL d   1      -2.047 -10.428   9.608 -0.22 +0.01    +0.066 A 
DOCKED: ATOM      9  C   UNL d   1      -0.944 -11.100   7.326 -0.26 +0.01    +0.051 C 
DOCKED: ATOM     10  C   UNL d   1      -1.021  -8.737  11.065 -0.23 +0.01    +0.066 A 
DOCKED: ATOM     11  C   UNL d   1      -0.094  -7.710  11.345 -0.26 -0.00    -0.021 A 
DOCKED: ATOM     12  C   UNL d   1      -0.415  -7.225  12.615 -0.28 +0.00    +0.000 A 
DOCKED: ATOM     13  C   UNL d   1      -1.519  -7.981  13.011 -0.17 +0.01    +0.070 A 
DOCKED: ATOM     14  C   UNL d   1       0.959  -7.179  10.406 -0.13 +0.00    +0.052 C 
DOCKED: ATOM     15  C   UNL d   1      -3.181  -8.580  14.817 -0.14 +0.02    +0.066 A 
DOCKED: ATOM     16  C   UNL d   1      -3.615  -8.495  16.132 -0.12 -0.00    -0.021 A 
DOCKED: ATOM     17  C   UNL d   1      -4.686  -9.394  16.238 -0.13 +0.00    +0.000 A 
DOCKED: ATOM     18  C   UNL d   1      -4.832  -9.945  14.969 -0.07 +0.04    +0.070 A 
DOCKED: ATOM     19  C   UNL d   1      -3.019  -7.601  17.197 -0.08 +0.00    +0.052 C 
DOCKED: ATOM     20  C   UNL d   1      -5.900 -11.578  13.371 -0.19 +0.04    +0.066 A 
DOCKED: ATOM     21  C   UNL d   1      -6.845 -12.571  13.122 -0.27 -0.01    -0.025 A 
DOCKED: ATOM     22  C   UNL d   1      -6.634 -12.968  11.814 -0.29 -0.01    -0.021 A 
DOCKED: ATOM     23  C   UNL d   1      -5.554 -12.200  11.330 -0.21 +0.03    +0.066 A 
DOCKED: ATOM     24  C   UNL d   1      -7.887 -13.129  14.089 -0.27 +0.02    +0.051 C 
DOCKED: ATOM     25  N   UNL d   1      -3.147 -10.723  10.395 -0.12 -0.07    -0.248 N 
DOCKED: ATOM     26  N   UNL d   1      -1.919  -8.856  12.049 -0.15 -0.05    -0.248 N 
DOCKED: ATOM     27  N   UNL d   1      -3.900  -9.460  14.157 -0.10 -0.10    -0.248 N 
DOCKED: ATOM     28  N   UNL d   1      -5.105 -11.359  12.270 -0.13 -0.12    -0.248 N 
DOCKED: ATOM     29 FE   UNL d   1      -3.549 -10.056  12.387 -0.05 +0.00    +0.000 Fe
DOCKED: ENDROOT
DOCKED: BRANCH   6  30
DOCKED: ATOM     30  C   UNL d   1      -3.549 -13.010   7.417 -0.19 +0.02    +0.052 C 
DOCKED: BRANCH  30  31
DOCKED: ATOM     31  C   UNL d   1      -4.924 -12.686   6.833 -0.29 +0.08    +0.115 C 
DOCKED: BRANCH  31  32
DOCKED: ATOM     32  C   UNL d   1      -5.910 -13.819   7.015 -0.26 +0.15    +0.139 C 
DOCKED: ATOM     33  O   UNL d   1      -7.013 -13.587   7.488 -0.03 -0.77    -0.650 OA
DOCKED: BRANCH  32  34
DOCKED: ATOM     34  O   UNL d   1      -5.630 -15.085   6.625 -0.21 -1.19    -0.776 OA
DOCKED: ATOM     35  H   UNL d   1      -5.706 -15.860   7.198 +0.04 +0.24    +0.167 HD
DOCKED: ENDBRANCH  32  34
DOCKED: ENDBRANCH  31  32
DOCKED: ENDBRANCH  30  31
DOCKED: ENDBRANCH   6  30
DOCKED: BRANCH  29  36
DOCKED: ATOM     36  C   UNL d   1      -2.280 -11.593  13.037 -0.03 +0.04    +0.190 C 
DOCKED: BRANCH  36  37
DOCKED: ATOM     37  O   UNL d   1      -1.672 -12.784  12.627 +0.00 -0.07    -0.399 OA
DOCKED: ATOM     38  H   UNL d   1      -2.100 -13.003  11.753 +0.02 +0.05    +0.209 HD
DOCKED: ENDBRANCH  36  37
DOCKED: ENDBRANCH  29  36
DOCKED: BRANCH  22  39
DOCKED: ATOM     39  C   UNL d   1      -7.389 -14.071  11.097 +0.10 +0.03    +0.052 C 
DOCKED: BRANCH  39  40
DOCKED: ATOM     40  C   UNL d   1      -6.664 -15.418  11.256 -0.16 +0.07    +0.115 C 
DOCKED: BRANCH  40  41
DOCKED: ATOM     41  C   UNL d   1      -7.082 -16.474  10.255 -0.06 +0.16    +0.139 C 
DOCKED: ATOM     42  O   UNL d   1      -7.647 -17.484  10.651 -0.04 -0.74    -0.650 OA
DOCKED: BRANCH  41  43
DOCKED: ATOM     43  O   UNL d   1      -6.925 -16.294   8.925 -0.31 -1.37    -0.776 OA
DOCKED: ATOM     44  H   UNL d   1      -6.636 -15.454   8.545 +0.03 +0.24    +0.167 HD
DOCKED: ENDBRANCH  41  43
DOCKED: ENDBRANCH  40  41
DOCKED: ENDBRANCH  39  40
DOCKED: ENDBRANCH  22  39
DOCKED: BRANCH  12  45
DOCKED: ATOM     45  C   UNL d   1       0.179  -6.128  13.489 -0.33 +0.00    +0.004 C 
DOCKED: ATOM     46  C   UNL d   1      -0.323  -4.956  13.868 -0.40 -0.00    +0.012 C 
DOCKED: ENDBRANCH  12  45
DOCKED: BRANCH  17  47
DOCKED: ATOM     47  C   UNL d   1      -5.500  -9.772  17.432 -0.08 +0.00    +0.004 C 
DOCKED: ATOM     48  C   UNL d   1      -6.797  -9.481  17.561 -0.14 +0.00    +0.012 C 
DOCKED: ENDBRANCH  17  47
DOCKED: TORSDOF 12
DOCKED: TER
DOCKED: ENDMDL
________________________________________________________________________________


	BEGINNING GENETIC ALGORITHM DOCKING 49 of 100
Run: 49 Seed: 477070165 609436441 [ Run 49 of 100 GA/GALS ]
Beginning LAMARCKIAN GENETIC ALGORITHM (LGA), with a maximum of 25000000 energy evaluations.

Final-Value: -11.100


	FINAL GENETIC ALGORITHM DOCKED STATE
	_______________________________________________


Detailed state:  trans 2.756 1.170 -16.879 quatxyzw -0.915381 0.382364 -0.036623 0.120556 center 8.781 34.984 -0.736 ntor 12 15.5843 125.2946 92.1118 115.8759 -179.7979 82.3053 173.6993 -81.4419 -45.9274 113.8679 -144.4101 -164.0782
State:	  2.756   1.170 -16.879  -0.922  0.385 -0.037 166.152     15.58  125.29   92.11  115.88 -179.80   82.31  173.70  -81.44  -45.93  113.87 -144.41 -164.08

DOCKED: MODEL       49
DOCKED: USER    Run = 49
DOCKED: USER    DPF = D:/Protein_go_brrr/autodock/final/AncB/heme_Co/dock.dpf
DOCKED: USER  
DOCKED: USER    Estimated Free Energy of Binding    =   -5.38 kcal/mol  [=(1)+(2)+(3)-(4)]
DOCKED: USER    Estimated Inhibition Constant, Ki   =  114.52 uM (micromolar)  [Temperature = 298.15 K]
DOCKED: USER    
DOCKED: USER    (1) Final Intermolecular Energy     =   -8.96 kcal/mol
DOCKED: USER        vdW + Hbond + desolv Energy     =   -5.27 kcal/mol
DOCKED: USER        Electrostatic Energy            =   -3.68 kcal/mol
DOCKED: USER    (2) Final Total Internal Energy     =   -2.14 kcal/mol
DOCKED: USER    (3) Torsional Free Energy           =   +3.58 kcal/mol
DOCKED: USER    (4) Unbound System's Energy  [=(2)] =   -2.14 kcal/mol
DOCKED: USER    
DOCKED: USER    
DOCKED: USER    NEWDPF move heme_Co_opt.pdbqt
DOCKED: USER    NEWDPF about 8.781000 34.984000 -0.736000
DOCKED: USER    NEWDPF tran0 2.756332 1.170113 -16.879438
DOCKED: USER    NEWDPF quaternion0 -0.915381 0.382364 -0.036623 0.120556
DOCKED: USER    NEWDPF axisangle0 -0.922107 0.385173 -0.036892 166.151585
DOCKED: USER    NEWDPF quat0 -0.922107 0.385173 -0.036892 166.151585
DOCKED: USER    NEWDPF dihe0 15.58 125.29 92.11 115.88 -179.80 82.31 173.70 -81.44 -45.93 113.87 -144.41 -164.08 
DOCKED: USER  keepresnum = 1 
DOCKED: USER  
DOCKED: REMARK  12 active torsions:
DOCKED: REMARK  status: ('A' for Active; 'I' for Inactive)
DOCKED: REMARK    1  A    between atoms: C_6  and  C_10 
DOCKED: REMARK    2  A    between atoms: C_10  and  C_11 
DOCKED: REMARK    3  A    between atoms: C_11  and  C_12 
DOCKED: REMARK    4  A    between atoms: C_12  and  O_14 
DOCKED: REMARK    5  A    between atoms: C_17  and  C_20 
DOCKED: REMARK    6  A    between atoms: C_24  and  C_27 
DOCKED: REMARK    7  A    between atoms: C_31  and  C_34 
DOCKED: REMARK    8  A    between atoms: C_34  and  C_35 
DOCKED: REMARK    9  A    between atoms: C_35  and  C_36 
DOCKED: REMARK   10  A    between atoms: C_36  and  O_38 
DOCKED: REMARK   11  A    between atoms: FE_43  and  C_44 
DOCKED: REMARK   12  A    between atoms: C_44  and  O_45 
DOCKED: USER                              x       y       z     vdW  Elec       q    Type
DOCKED: USER                           _______ _______ _______ _____ _____    ______ ____
DOCKED: ROOT
DOCKED: ATOM      1  C   UNL d   1       1.060   2.380 -16.268 -0.08 +0.04    +0.064 A 
DOCKED: ATOM      2  C   UNL d   1       3.739   2.386 -20.197 -0.08 +0.03    +0.064 C 
DOCKED: ATOM      3  C   UNL d   1       6.601  -0.934 -18.296 -0.13 +0.02    +0.064 A 
DOCKED: ATOM      4  C   UNL d   1       3.660  -1.238 -14.433 -0.24 +0.02    +0.064 A 
DOCKED: ATOM      5  C   UNL d   1       1.603   2.652 -17.467 -0.06 +0.03    +0.066 A 
DOCKED: ATOM      6  C   UNL d   1       1.000   3.544 -18.375 -0.03 -0.01    -0.021 A 
DOCKED: ATOM      7  C   UNL d   1       1.769   3.524 -19.522 -0.04 -0.01    -0.025 A 
DOCKED: ATOM      8  C   UNL d   1       2.816   2.635 -19.259 -0.07 +0.03    +0.066 A 
DOCKED: ATOM      9  C   UNL d   1       1.540   4.307 -20.824 -0.02 +0.02    +0.051 C 
DOCKED: ATOM     10  C   UNL d   1       4.866   1.507 -20.008 -0.01 +0.03    +0.066 A 
DOCKED: ATOM     11  C   UNL d   1       5.943   1.312 -20.900 -0.05 -0.01    -0.021 A 
DOCKED: ATOM     12  C   UNL d   1       6.764   0.342 -20.318 -0.09 +0.00    +0.000 A 
DOCKED: ATOM     13  C   UNL d   1       6.137   0.027 -19.113 -0.11 +0.03    +0.070 A 
DOCKED: ATOM     14  C   UNL d   1       6.200   2.082 -22.170 -0.05 +0.02    +0.052 C 
DOCKED: ATOM     15  C   UNL d   1       6.052  -1.423 -17.046 -0.16 +0.01    +0.066 A 
DOCKED: ATOM     16  C   UNL d   1       6.501  -2.519 -16.322 -0.20 -0.00    -0.021 A 
DOCKED: ATOM     17  C   UNL d   1       5.654  -2.612 -15.209 -0.28 +0.00    +0.000 A 
DOCKED: ATOM     18  C   UNL d   1       4.763  -1.551 -15.332 -0.17 +0.01    +0.070 A 
DOCKED: ATOM     19  C   UNL d   1       7.669  -3.402 -16.702 -0.18 +0.01    +0.052 C 
DOCKED: ATOM     20  C   UNL d   1       2.729  -0.265 -14.578 -0.20 +0.03    +0.066 A 
DOCKED: ATOM     21  C   UNL d   1       1.693  -0.085 -13.663 -0.23 -0.01    -0.025 A 
DOCKED: ATOM     22  C   UNL d   1       0.944   0.970 -14.152 -0.18 -0.01    -0.021 A 
DOCKED: ATOM     23  C   UNL d   1       1.558   1.377 -15.355 -0.12 +0.04    +0.066 A 
DOCKED: ATOM     24  C   UNL d   1       1.418  -0.891 -12.397 -0.25 +0.03    +0.051 C 
DOCKED: ATOM     25  N   UNL d   1       2.742   2.084 -17.991 -0.06 -0.12    -0.248 N 
DOCKED: ATOM     26  N   UNL d   1       5.019   0.773 -18.901 -0.05 -0.13    -0.248 N 
DOCKED: ATOM     27  N   UNL d   1       5.011  -0.883 -16.453 -0.10 -0.06    -0.248 N 
DOCKED: ATOM     28  N   UNL d   1       2.637   0.630 -15.618 -0.07 -0.11    -0.248 N 
DOCKED: ATOM     29 FE   UNL d   1       3.942   0.513 -17.173 -0.04 +0.00    +0.000 Fe
DOCKED: ENDROOT
DOCKED: BRANCH   6  30
DOCKED: ATOM     30  C   UNL d   1      -0.302   4.311 -18.169 -0.02 +0.03    +0.052 C 
DOCKED: BRANCH  30  31
DOCKED: ATOM     31  C   UNL d   1      -1.466   3.345 -17.953 -0.01 +0.09    +0.115 C 
DOCKED: BRANCH  31  32
DOCKED: ATOM     32  C   UNL d   1      -2.320   3.727 -16.763 +0.01 +0.20    +0.139 C 
DOCKED: ATOM     33  O   UNL d   1      -2.635   4.897 -16.600 +0.04 -1.17    -0.650 OA
DOCKED: BRANCH  32  34
DOCKED: ATOM     34  O   UNL d   1      -2.792   2.805 -15.893 -0.11 -1.44    -0.776 OA
DOCKED: ATOM     35  H   UNL d   1      -2.501   1.883 -15.866 +0.02 +0.23    +0.167 HD
DOCKED: ENDBRANCH  32  34
DOCKED: ENDBRANCH  31  32
DOCKED: ENDBRANCH  30  31
DOCKED: ENDBRANCH   6  30
DOCKED: BRANCH  29  36
DOCKED: ATOM     36  C   UNL d   1       2.670  -0.823 -18.169 -0.03 +0.07    +0.190 C 
DOCKED: BRANCH  36  37
DOCKED: ATOM     37  O   UNL d   1       1.382  -1.366 -18.142 -0.01 -0.17    -0.399 OA
DOCKED: ATOM     38  H   UNL d   1       0.880  -0.802 -17.488 +0.03 +0.11    +0.209 HD
DOCKED: ENDBRANCH  36  37
DOCKED: ENDBRANCH  29  36
DOCKED: BRANCH  22  39
DOCKED: ATOM     39  C   UNL d   1      -0.328   1.510 -13.525 +0.03 +0.05    +0.052 C 
DOCKED: BRANCH  39  40
DOCKED: ATOM     40  C   UNL d   1      -1.428   0.436 -13.518 -0.19 +0.15    +0.115 C 
DOCKED: BRANCH  40  41
DOCKED: ATOM     41  C   UNL d   1      -2.010   0.128 -14.881 -0.06 +0.22    +0.139 C 
DOCKED: ATOM     42  O   UNL d   1      -1.266  -0.229 -15.783 -0.16 -0.79    -0.650 OA
DOCKED: BRANCH  41  43
DOCKED: ATOM     43  O   UNL d   1      -3.342   0.154 -15.107 -0.25 -1.41    -0.776 OA
DOCKED: ATOM     44  H   UNL d   1      -3.787   0.914 -15.505 +0.02 +0.24    +0.167 HD
DOCKED: ENDBRANCH  41  43
DOCKED: ENDBRANCH  40  41
DOCKED: ENDBRANCH  39  40
DOCKED: ENDBRANCH  22  39
DOCKED: BRANCH  12  45
DOCKED: ATOM     45  C   UNL d   1       8.072  -0.306 -20.752 -0.09 +0.00    +0.004 C 
DOCKED: ATOM     46  C   UNL d   1       9.311  -0.150 -20.291 -0.12 +0.00    +0.012 C 
DOCKED: ENDBRANCH  12  45
DOCKED: BRANCH  17  47
DOCKED: ATOM     47  C   UNL d   1       5.620  -3.633 -14.119 -0.49 +0.00    +0.004 C 
DOCKED: ATOM     48  C   UNL d   1       5.068  -3.416 -12.923 -0.53 +0.00    +0.012 C 
DOCKED: ENDBRANCH  17  47
DOCKED: TORSDOF 12
DOCKED: TER
DOCKED: ENDMDL
________________________________________________________________________________


	BEGINNING GENETIC ALGORITHM DOCKING 50 of 100
Run: 50 Seed: 2114150819 1694001407 [ Run 50 of 100 GA/GALS ]
Beginning LAMARCKIAN GENETIC ALGORITHM (LGA), with a maximum of 25000000 energy evaluations.

Final-Value: -9.128


	FINAL GENETIC ALGORITHM DOCKED STATE
	_______________________________________________


Detailed state:  trans -13.211 -19.211 5.960 quatxyzw 0.063283 0.392586 -0.916087 0.051528 center 8.781 34.984 -0.736 ntor 12 57.5122 100.1792 113.9356 115.9442 136.9985 150.9753 -102.5106 107.7665 77.6250 82.2879 39.9648 103.0888
State:	-13.211 -19.211   5.960   0.063  0.393 -0.917 174.093     57.51  100.18  113.94  115.94  137.00  150.98 -102.51  107.77   77.62   82.29   39.96  103.09

DOCKED: MODEL       50
DOCKED: USER    Run = 50
DOCKED: USER    DPF = D:/Protein_go_brrr/autodock/final/AncB/heme_Co/dock.dpf
DOCKED: USER  
DOCKED: USER    Estimated Free Energy of Binding    =   -3.70 kcal/mol  [=(1)+(2)+(3)-(4)]
DOCKED: USER    Estimated Inhibition Constant, Ki   =    1.95 mM (millimolar)  [Temperature = 298.15 K]
DOCKED: USER    
DOCKED: USER    (1) Final Intermolecular Energy     =   -7.28 kcal/mol
DOCKED: USER        vdW + Hbond + desolv Energy     =   -2.27 kcal/mol
DOCKED: USER        Electrostatic Energy            =   -5.01 kcal/mol
DOCKED: USER    (2) Final Total Internal Energy     =   -1.85 kcal/mol
DOCKED: USER    (3) Torsional Free Energy           =   +3.58 kcal/mol
DOCKED: USER    (4) Unbound System's Energy  [=(2)] =   -1.85 kcal/mol
DOCKED: USER    
DOCKED: USER    
DOCKED: USER    NEWDPF move heme_Co_opt.pdbqt
DOCKED: USER    NEWDPF about 8.781000 34.984000 -0.736000
DOCKED: USER    NEWDPF tran0 -13.210791 -19.210560 5.960033
DOCKED: USER    NEWDPF quaternion0 0.063283 0.392586 -0.916087 0.051528
DOCKED: USER    NEWDPF axisangle0 0.063367 0.393108 -0.917306 174.092688
DOCKED: USER    NEWDPF quat0 0.063367 0.393108 -0.917306 174.092688
DOCKED: USER    NEWDPF dihe0 57.51 100.18 113.94 115.94 137.00 150.98 -102.51 107.77 77.62 82.29 39.96 103.09 
DOCKED: USER  keepresnum = 1 
DOCKED: USER  
DOCKED: REMARK  12 active torsions:
DOCKED: REMARK  status: ('A' for Active; 'I' for Inactive)
DOCKED: REMARK    1  A    between atoms: C_6  and  C_10 
DOCKED: REMARK    2  A    between atoms: C_10  and  C_11 
DOCKED: REMARK    3  A    between atoms: C_11  and  C_12 
DOCKED: REMARK    4  A    between atoms: C_12  and  O_14 
DOCKED: REMARK    5  A    between atoms: C_17  and  C_20 
DOCKED: REMARK    6  A    between atoms: C_24  and  C_27 
DOCKED: REMARK    7  A    between atoms: C_31  and  C_34 
DOCKED: REMARK    8  A    between atoms: C_34  and  C_35 
DOCKED: REMARK    9  A    between atoms: C_35  and  C_36 
DOCKED: REMARK   10  A    between atoms: C_36  and  O_38 
DOCKED: REMARK   11  A    between atoms: FE_43  and  C_44 
DOCKED: REMARK   12  A    between atoms: C_44  and  O_45 
DOCKED: USER                              x       y       z     vdW  Elec       q    Type
DOCKED: USER                           _______ _______ _______ _____ _____    ______ ____
DOCKED: ROOT
DOCKED: ATOM      1  C   UNL d   1     -11.191 -19.226   5.163 -0.09 +0.07    +0.064 A 
DOCKED: ATOM      2  C   UNL d   1     -12.898 -19.881   9.552 -0.09 +0.04    +0.064 C 
DOCKED: ATOM      3  C   UNL d   1     -17.308 -18.847   8.032 -0.06 +0.01    +0.064 A 
DOCKED: ATOM      4  C   UNL d   1     -15.651 -18.550   3.468 -0.04 +0.02    +0.064 A 
DOCKED: ATOM      5  C   UNL d   1     -11.328 -19.445   6.481 -0.09 +0.08    +0.066 A 
DOCKED: ATOM      6  C   UNL d   1     -10.247 -19.854   7.287 +0.00 -0.03    -0.021 A 
DOCKED: ATOM      7  C   UNL d   1     -10.753 -20.064   8.554 -0.08 -0.03    -0.025 A 
DOCKED: ATOM      8  C   UNL d   1     -12.116 -19.760   8.472 -0.10 +0.06    +0.066 A 
DOCKED: ATOM      9  C   UNL d   1      -9.995 -20.535   9.805 -0.05 +0.04    +0.051 C 
DOCKED: ATOM     10  C   UNL d   1     -14.305 -19.566   9.569 -0.08 +0.03    +0.066 A 
DOCKED: ATOM     11  C   UNL d   1     -15.149 -19.537  10.700 -0.05 -0.01    -0.021 A 
DOCKED: ATOM     12  C   UNL d   1     -16.429 -19.229  10.229 -0.04 +0.00    +0.000 A 
DOCKED: ATOM     13  C   UNL d   1     -16.268 -19.080   8.851 -0.07 +0.02    +0.070 A 
DOCKED: ATOM     14  C   UNL d   1     -14.723 -19.701  12.137 -0.05 +0.01    +0.052 C 
DOCKED: ATOM     15  C   UNL d   1     -17.331 -18.719   6.588 -0.05 +0.02    +0.066 A 
DOCKED: ATOM     16  C   UNL d   1     -18.461 -18.622   5.788 -0.04 -0.00    -0.021 A 
DOCKED: ATOM     17  C   UNL d   1     -17.988 -18.539   4.470 -0.04 +0.00    +0.000 A 
DOCKED: ATOM     18  C   UNL d   1     -16.602 -18.574   4.572 -0.02 +0.02    +0.070 A 
DOCKED: ATOM     19  C   UNL d   1     -19.889 -18.615   6.285 -0.02 +0.01    +0.052 C 
DOCKED: ATOM     20  C   UNL d   1     -14.304 -18.670   3.537 -0.04 +0.03    +0.066 A 
DOCKED: ATOM     21  C   UNL d   1     -13.498 -18.669   2.400 -0.03 -0.01    -0.025 A 
DOCKED: ATOM     22  C   UNL d   1     -12.204 -18.833   2.860 -0.04 -0.02    -0.021 A 
DOCKED: ATOM     23  C   UNL d   1     -12.286 -18.939   4.265 -0.07 +0.05    +0.066 A 
DOCKED: ATOM     24  C   UNL d   1     -13.940 -18.538   0.945 -0.02 +0.02    +0.051 C 
DOCKED: ATOM     25  N   UNL d   1     -12.499 -19.368   7.200 -0.10 -0.24    -0.248 N 
DOCKED: ATOM     26  N   UNL d   1     -14.974 -19.229   8.461 -0.07 -0.10    -0.248 N 
DOCKED: ATOM     27  N   UNL d   1     -16.247 -18.712   5.845 +0.05 -0.08    -0.248 N 
DOCKED: ATOM     28  N   UNL d   1     -13.556 -18.844   4.678 -0.02 -0.15    -0.248 N 
DOCKED: ATOM     29 FE   UNL d   1     -14.482 -19.020   6.479 -0.02 +0.00    +0.000 Fe
DOCKED: ENDROOT
DOCKED: BRANCH   6  30
DOCKED: ATOM     30  C   UNL d   1      -8.815 -20.106   6.828 -0.05 +0.06    +0.052 C 
DOCKED: BRANCH  30  31
DOCKED: ATOM     31  C   UNL d   1      -7.835 -19.256   7.636 -0.06 +0.16    +0.115 C 
DOCKED: BRANCH  31  32
DOCKED: ATOM     32  C   UNL d   1      -7.317 -18.069   6.851 -0.07 +0.27    +0.139 C 
DOCKED: ATOM     33  O   UNL d   1      -7.388 -16.950   7.337 -0.33 -1.77    -0.650 OA
DOCKED: BRANCH  32  34
DOCKED: ATOM     34  O   UNL d   1      -6.730 -18.210   5.640 +0.01 -1.47    -0.776 OA
DOCKED: ATOM     35  H   UNL d   1      -7.129 -18.678   4.894 +0.02 +0.30    +0.167 HD
DOCKED: ENDBRANCH  32  34
DOCKED: ENDBRANCH  31  32
DOCKED: ENDBRANCH  30  31
DOCKED: ENDBRANCH   6  30
DOCKED: BRANCH  29  36
DOCKED: ATOM     36  C   UNL d   1     -14.633 -21.095   6.225 -0.02 +0.07    +0.190 C 
DOCKED: BRANCH  36  37
DOCKED: ATOM     37  O   UNL d   1     -13.907 -22.286   6.328 +0.00 -0.13    -0.399 OA
DOCKED: ATOM     38  H   UNL d   1     -12.956 -21.999   6.420 +0.01 +0.08    +0.209 HD
DOCKED: ENDBRANCH  36  37
DOCKED: ENDBRANCH  29  36
DOCKED: BRANCH  22  39
DOCKED: ATOM     39  C   UNL d   1     -10.968 -18.947   1.987 -0.09 +0.05    +0.052 C 
DOCKED: BRANCH  39  40
DOCKED: ATOM     40  C   UNL d   1      -9.851 -19.704   2.724 -0.07 +0.13    +0.115 C 
DOCKED: BRANCH  40  41
DOCKED: ATOM     41  C   UNL d   1      -8.750 -18.819   3.269 -0.09 +0.25    +0.139 C 
DOCKED: ATOM     42  O   UNL d   1      -7.622 -18.914   2.806 -0.09 -1.29    -0.650 OA
DOCKED: BRANCH  41  43
DOCKED: ATOM     43  O   UNL d   1      -8.998 -17.865   4.194 +0.03 -2.07    -0.776 OA
DOCKED: ATOM     44  H   UNL d   1      -8.574 -17.861   5.062 +0.02 +0.46    +0.167 HD
DOCKED: ENDBRANCH  41  43
DOCKED: ENDBRANCH  40  41
DOCKED: ENDBRANCH  39  40
DOCKED: ENDBRANCH  22  39
DOCKED: BRANCH  12  45
DOCKED: ATOM     45  C   UNL d   1     -17.772 -19.040  10.920 -0.02 +0.00    +0.004 C 
DOCKED: ATOM     46  C   UNL d   1     -18.479 -17.937  11.152 -0.02 +0.00    +0.012 C 
DOCKED: ENDBRANCH  12  45
DOCKED: BRANCH  17  47
DOCKED: ATOM     47  C   UNL d   1     -18.748 -18.482   3.186 -0.02 +0.00    +0.004 C 
DOCKED: ATOM     48  C   UNL d   1     -18.729 -17.430   2.364 -0.02 +0.00    +0.012 C 
DOCKED: ENDBRANCH  17  47
DOCKED: TORSDOF 12
DOCKED: TER
DOCKED: ENDMDL
________________________________________________________________________________


	BEGINNING GENETIC ALGORITHM DOCKING 51 of 100
Run: 51 Seed: 260468899 1102368582 [ Run 51 of 100 GA/GALS ]
Beginning LAMARCKIAN GENETIC ALGORITHM (LGA), with a maximum of 25000000 energy evaluations.

Final-Value: -12.303


	FINAL GENETIC ALGORITHM DOCKED STATE
	_______________________________________________


Detailed state:  trans -7.461 -1.860 -12.322 quatxyzw 0.001066 0.611782 -0.496709 0.615631 center 8.781 34.984 -0.736 ntor 12 -22.7447 94.5493 -145.6032 62.6782 88.3981 97.5249 -154.2628 133.4233 47.7553 179.1617 130.3966 -21.1198
State:	 -7.461  -1.860 -12.322   0.001  0.776 -0.630 104.004    -22.74   94.55 -145.60   62.68   88.40   97.52 -154.26  133.42   47.76  179.16  130.40  -21.12

DOCKED: MODEL       51
DOCKED: USER    Run = 51
DOCKED: USER    DPF = D:/Protein_go_brrr/autodock/final/AncB/heme_Co/dock.dpf
DOCKED: USER  
DOCKED: USER    Estimated Free Energy of Binding    =   -8.21 kcal/mol  [=(1)+(2)+(3)-(4)]
DOCKED: USER    Estimated Inhibition Constant, Ki   =  953.22 nM (nanomolar)  [Temperature = 298.15 K]
DOCKED: USER    
DOCKED: USER    (1) Final Intermolecular Energy     =  -11.79 kcal/mol
DOCKED: USER        vdW + Hbond + desolv Energy     =   -7.85 kcal/mol
DOCKED: USER        Electrostatic Energy            =   -3.95 kcal/mol
DOCKED: USER    (2) Final Total Internal Energy     =   -0.51 kcal/mol
DOCKED: USER    (3) Torsional Free Energy           =   +3.58 kcal/mol
DOCKED: USER    (4) Unbound System's Energy  [=(2)] =   -0.51 kcal/mol
DOCKED: USER    
DOCKED: USER    
DOCKED: USER    NEWDPF move heme_Co_opt.pdbqt
DOCKED: USER    NEWDPF about 8.781000 34.984000 -0.736000
DOCKED: USER    NEWDPF tran0 -7.461281 -1.860482 -12.321684
DOCKED: USER    NEWDPF quaternion0 0.001066 0.611782 -0.496709 0.615631
DOCKED: USER    NEWDPF axisangle0 0.001352 0.776339 -0.630314 104.004421
DOCKED: USER    NEWDPF quat0 0.001352 0.776339 -0.630314 104.004421
DOCKED: USER    NEWDPF dihe0 -22.74 94.55 -145.60 62.68 88.40 97.52 -154.26 133.42 47.76 179.16 130.40 -21.12 
DOCKED: USER  keepresnum = 1 
DOCKED: USER  
DOCKED: REMARK  12 active torsions:
DOCKED: REMARK  status: ('A' for Active; 'I' for Inactive)
DOCKED: REMARK    1  A    between atoms: C_6  and  C_10 
DOCKED: REMARK    2  A    between atoms: C_10  and  C_11 
DOCKED: REMARK    3  A    between atoms: C_11  and  C_12 
DOCKED: REMARK    4  A    between atoms: C_12  and  O_14 
DOCKED: REMARK    5  A    between atoms: C_17  and  C_20 
DOCKED: REMARK    6  A    between atoms: C_24  and  C_27 
DOCKED: REMARK    7  A    between atoms: C_31  and  C_34 
DOCKED: REMARK    8  A    between atoms: C_34  and  C_35 
DOCKED: REMARK    9  A    between atoms: C_35  and  C_36 
DOCKED: REMARK   10  A    between atoms: C_36  and  O_38 
DOCKED: REMARK   11  A    between atoms: FE_43  and  C_44 
DOCKED: REMARK   12  A    between atoms: C_44  and  O_45 
DOCKED: USER                              x       y       z     vdW  Elec       q    Type
DOCKED: USER                           _______ _______ _______ _____ _____    ______ ____
DOCKED: ROOT
DOCKED: ATOM      1  C   UNL d   1      -6.656  -2.278 -14.295 +0.01 +0.09    +0.064 A 
DOCKED: ATOM      2  C   UNL d   1      -8.155  -5.119 -10.789 -0.33 +0.03    +0.064 C 
DOCKED: ATOM      3  C   UNL d   1      -8.813  -1.332  -7.950 -0.18 +0.02    +0.064 A 
DOCKED: ATOM      4  C   UNL d   1      -7.654   1.618 -11.641 -0.07 +0.04    +0.064 A 
DOCKED: ATOM      5  C   UNL d   1      -6.983  -3.335 -13.533 -0.12 +0.07    +0.066 A 
DOCKED: ATOM      6  C   UNL d   1      -6.988  -4.649 -14.041 -0.16 -0.02    -0.021 A 
DOCKED: ATOM      7  C   UNL d   1      -7.446  -5.467 -13.026 -0.24 -0.02    -0.025 A 
DOCKED: ATOM      8  C   UNL d   1      -7.684  -4.620 -11.939 -0.22 +0.04    +0.066 A 
DOCKED: ATOM      9  C   UNL d   1      -7.656  -6.988 -13.064 -0.26 +0.03    +0.051 C 
DOCKED: ATOM     10  C   UNL d   1      -8.406  -4.330  -9.609 -0.26 +0.03    +0.066 A 
DOCKED: ATOM     11  C   UNL d   1      -8.765  -4.812  -8.331 -0.39 -0.01    -0.021 A 
DOCKED: ATOM     12  C   UNL d   1      -8.947  -3.687  -7.522 -0.33 +0.00    +0.000 A 
DOCKED: ATOM     13  C   UNL d   1      -8.673  -2.605  -8.360 -0.19 +0.02    +0.070 A 
DOCKED: ATOM     14  C   UNL d   1      -8.831  -6.258  -7.910 -0.45 +0.02    +0.052 C 
DOCKED: ATOM     15  C   UNL d   1      -8.625  -0.101  -8.693 -0.14 +0.02    +0.066 A 
DOCKED: ATOM     16  C   UNL d   1      -8.926   1.180  -8.253 -0.21 -0.00    -0.021 A 
DOCKED: ATOM     17  C   UNL d   1      -8.596   2.034  -9.315 -0.15 +0.00    +0.000 A 
DOCKED: ATOM     18  C   UNL d   1      -8.101   1.205 -10.316 -0.08 +0.03    +0.070 A 
DOCKED: ATOM     19  C   UNL d   1      -9.495   1.530  -6.896 -0.22 +0.01    +0.052 C 
DOCKED: ATOM     20  C   UNL d   1      -7.251   0.823 -12.660 -0.05 +0.05    +0.066 A 
DOCKED: ATOM     21  C   UNL d   1      -6.878   1.336 -13.901 -0.06 -0.02    -0.025 A 
DOCKED: ATOM     22  C   UNL d   1      -6.558   0.237 -14.677 -0.05 -0.02    -0.021 A 
DOCKED: ATOM     23  C   UNL d   1      -6.764  -0.901 -13.869 -0.06 +0.07    +0.066 A 
DOCKED: ATOM     24  C   UNL d   1      -6.848   2.799 -14.332 -0.09 +0.05    +0.051 C 
DOCKED: ATOM     25  N   UNL d   1      -7.401  -3.295 -12.222 -0.09 -0.19    -0.248 N 
DOCKED: ATOM     26  N   UNL d   1      -8.292  -2.997  -9.605 -0.10 -0.10    -0.248 N 
DOCKED: ATOM     27  N   UNL d   1      -8.162  -0.062  -9.923 -0.04 -0.10    -0.248 N 
DOCKED: ATOM     28  N   UNL d   1      -7.186  -0.551 -12.648 -0.03 -0.20    -0.248 N 
DOCKED: ATOM     29 FE   UNL d   1      -7.802  -1.581 -11.007 -0.02 +0.00    +0.000 Fe
DOCKED: ENDROOT
DOCKED: BRANCH   6  30
DOCKED: ATOM     30  C   UNL d   1      -6.646  -5.075 -15.465 -0.15 +0.05    +0.052 C 
DOCKED: BRANCH  30  31
DOCKED: ATOM     31  C   UNL d   1      -7.509  -6.262 -15.893 -0.08 +0.09    +0.115 C 
DOCKED: BRANCH  31  32
DOCKED: ATOM     32  C   UNL d   1      -6.701  -7.350 -16.567 -0.11 +0.16    +0.139 C 
DOCKED: ATOM     33  O   UNL d   1      -6.008  -8.092 -15.888 -0.50 -0.81    -0.650 OA
DOCKED: BRANCH  32  34
DOCKED: ATOM     34  O   UNL d   1      -6.758  -7.563 -17.902 -0.15 -1.19    -0.776 OA
DOCKED: ATOM     35  H   UNL d   1      -7.521  -7.346 -18.456 +0.01 +0.16    +0.167 HD
DOCKED: ENDBRANCH  32  34
DOCKED: ENDBRANCH  31  32
DOCKED: ENDBRANCH  30  31
DOCKED: ENDBRANCH   6  30
DOCKED: BRANCH  29  36
DOCKED: ATOM     36  C   UNL d   1      -9.759  -1.648 -11.756 -0.01 +0.08    +0.190 C 
DOCKED: BRANCH  36  37
DOCKED: ATOM     37  O   UNL d   1     -10.500  -1.625 -12.942 +0.00 -0.16    -0.399 OA
DOCKED: ATOM     38  H   UNL d   1      -9.879  -1.245 -13.624 +0.01 +0.09    +0.209 HD
DOCKED: ENDBRANCH  36  37
DOCKED: ENDBRANCH  29  36
DOCKED: BRANCH  22  39
DOCKED: ATOM     39  C   UNL d   1      -6.140   0.282 -16.135 -0.03 +0.05    +0.052 C 
DOCKED: BRANCH  39  40
DOCKED: ATOM     40  C   UNL d   1      -4.654   0.655 -16.263 -0.05 +0.13    +0.115 C 
DOCKED: BRANCH  40  41
DOCKED: ATOM     41  C   UNL d   1      -3.991   1.037 -14.956 -0.10 +0.22    +0.139 C 
DOCKED: ATOM     42  O   UNL d   1      -4.023   2.203 -14.587 -0.53 -1.49    -0.650 OA
DOCKED: BRANCH  41  43
DOCKED: ATOM     43  O   UNL d   1      -3.440   0.110 -14.141 -0.02 -1.56    -0.776 OA
DOCKED: ATOM     44  H   UNL d   1      -3.532   0.143 -13.180 +0.04 +0.30    +0.167 HD
DOCKED: ENDBRANCH  41  43
DOCKED: ENDBRANCH  40  41
DOCKED: ENDBRANCH  39  40
DOCKED: ENDBRANCH  22  39
DOCKED: BRANCH  12  45
DOCKED: ATOM     45  C   UNL d   1      -9.326  -3.511  -6.058 -0.51 +0.00    +0.004 C 
DOCKED: ATOM     46  C   UNL d   1      -8.783  -4.020  -4.956 -0.59 +0.00    +0.012 C 
DOCKED: ENDBRANCH  12  45
DOCKED: BRANCH  17  47
DOCKED: ATOM     47  C   UNL d   1      -8.765   3.513  -9.438 -0.18 +0.00    +0.004 C 
DOCKED: ATOM     48  C   UNL d   1      -8.091   4.396  -8.697 -0.33 +0.00    +0.012 C 
DOCKED: ENDBRANCH  17  47
DOCKED: TORSDOF 12
DOCKED: TER
DOCKED: ENDMDL
________________________________________________________________________________


	BEGINNING GENETIC ALGORITHM DOCKING 52 of 100
Run: 52 Seed: 911090183 36321743 [ Run 52 of 100 GA/GALS ]
Beginning LAMARCKIAN GENETIC ALGORITHM (LGA), with a maximum of 25000000 energy evaluations.

Final-Value: -11.970


	FINAL GENETIC ALGORITHM DOCKED STATE
	_______________________________________________


Detailed state:  trans 15.834 -0.444 -11.688 quatxyzw -0.020697 0.703463 -0.425542 -0.568881 center 8.781 34.984 -0.736 ntor 12 -179.8598 77.8655 35.6860 112.0154 -85.6503 156.8596 -154.7868 129.9707 -48.0503 2.2272 -171.0845 157.3556
State:	 15.834  -0.444 -11.688  -0.025  0.855 -0.517 -110.656   -179.86   77.87   35.69  112.02  -85.65  156.86 -154.79  129.97  -48.05    2.23 -171.08  157.36

DOCKED: MODEL       52
DOCKED: USER    Run = 52
DOCKED: USER    DPF = D:/Protein_go_brrr/autodock/final/AncB/heme_Co/dock.dpf
DOCKED: USER  
DOCKED: USER    Estimated Free Energy of Binding    =   -6.53 kcal/mol  [=(1)+(2)+(3)-(4)]
DOCKED: USER    Estimated Inhibition Constant, Ki   =   16.39 uM (micromolar)  [Temperature = 298.15 K]
DOCKED: USER    
DOCKED: USER    (1) Final Intermolecular Energy     =  -10.11 kcal/mol
DOCKED: USER        vdW + Hbond + desolv Energy     =   -7.94 kcal/mol
DOCKED: USER        Electrostatic Energy            =   -2.17 kcal/mol
DOCKED: USER    (2) Final Total Internal Energy     =   -1.86 kcal/mol
DOCKED: USER    (3) Torsional Free Energy           =   +3.58 kcal/mol
DOCKED: USER    (4) Unbound System's Energy  [=(2)] =   -1.86 kcal/mol
DOCKED: USER    
DOCKED: USER    
DOCKED: USER    NEWDPF move heme_Co_opt.pdbqt
DOCKED: USER    NEWDPF about 8.781000 34.984000 -0.736000
DOCKED: USER    NEWDPF tran0 15.834180 -0.443562 -11.687689
DOCKED: USER    NEWDPF quaternion0 -0.020697 0.703463 -0.425542 -0.568881
DOCKED: USER    NEWDPF axisangle0 -0.025166 0.855357 -0.517427 -110.655575
DOCKED: USER    NEWDPF quat0 -0.025166 0.855357 -0.517427 -110.655575
DOCKED: USER    NEWDPF dihe0 -179.86 77.87 35.69 112.02 -85.65 156.86 -154.79 129.97 -48.05 2.23 -171.08 157.36 
DOCKED: USER  keepresnum = 1 
DOCKED: USER  
DOCKED: REMARK  12 active torsions:
DOCKED: REMARK  status: ('A' for Active; 'I' for Inactive)
DOCKED: REMARK    1  A    between atoms: C_6  and  C_10 
DOCKED: REMARK    2  A    between atoms: C_10  and  C_11 
DOCKED: REMARK    3  A    between atoms: C_11  and  C_12 
DOCKED: REMARK    4  A    between atoms: C_12  and  O_14 
DOCKED: REMARK    5  A    between atoms: C_17  and  C_20 
DOCKED: REMARK    6  A    between atoms: C_24  and  C_27 
DOCKED: REMARK    7  A    between atoms: C_31  and  C_34 
DOCKED: REMARK    8  A    between atoms: C_34  and  C_35 
DOCKED: REMARK    9  A    between atoms: C_35  and  C_36 
DOCKED: REMARK   10  A    between atoms: C_36  and  O_38 
DOCKED: REMARK   11  A    between atoms: FE_43  and  C_44 
DOCKED: REMARK   12  A    between atoms: C_44  and  O_45 
DOCKED: USER                              x       y       z     vdW  Elec       q    Type
DOCKED: USER                           _______ _______ _______ _____ _____    ______ ____
DOCKED: ROOT
DOCKED: ATOM      1  C   UNL d   1      16.047   1.356 -10.492 -0.28 +0.03    +0.064 A 
DOCKED: ATOM      2  C   UNL d   1      17.449  -3.132  -9.787 -0.19 +0.02    +0.064 C 
DOCKED: ATOM      3  C   UNL d   1      15.204  -4.500 -13.777 -0.11 +0.02    +0.064 A 
DOCKED: ATOM      4  C   UNL d   1      14.087   0.140 -14.723 -0.26 +0.02    +0.064 A 
DOCKED: ATOM      5  C   UNL d   1      16.564   0.224  -9.987 -0.32 +0.02    +0.066 A 
DOCKED: ATOM      6  C   UNL d   1      17.371   0.221  -8.832 -0.24 -0.01    -0.021 A 
DOCKED: ATOM      7  C   UNL d   1      17.794  -1.080  -8.645 -0.24 -0.01    -0.025 A 
DOCKED: ATOM      8  C   UNL d   1      17.214  -1.818  -9.683 -0.23 +0.02    +0.066 A 
DOCKED: ATOM      9  C   UNL d   1      18.709  -1.624  -7.538 -0.24 +0.02    +0.051 C 
DOCKED: ATOM     10  C   UNL d   1      16.875  -3.977 -10.804 -0.15 +0.03    +0.066 A 
DOCKED: ATOM     11  C   UNL d   1      16.969  -5.384 -10.885 -0.13 -0.01    -0.021 A 
DOCKED: ATOM     12  C   UNL d   1      16.302  -5.756 -12.056 -0.13 +0.00    +0.000 A 
DOCKED: ATOM     13  C   UNL d   1      15.842  -4.554 -12.594 -0.08 +0.03    +0.070 A 
DOCKED: ATOM     14  C   UNL d   1      17.576  -6.298  -9.852 -0.10 +0.02    +0.052 C 
DOCKED: ATOM     15  C   UNL d   1      14.710  -3.346 -14.503 -0.14 +0.02    +0.066 A 
DOCKED: ATOM     16  C   UNL d   1      14.189  -3.344 -15.789 -0.11 -0.00    -0.021 A 
DOCKED: ATOM     17  C   UNL d   1      13.868  -2.008 -16.067 -0.17 +0.00    +0.000 A 
DOCKED: ATOM     18  C   UNL d   1      14.203  -1.300 -14.918 -0.19 +0.02    +0.070 A 
DOCKED: ATOM     19  C   UNL d   1      14.025  -4.562 -16.671 -0.05 +0.01    +0.052 C 
DOCKED: ATOM     20  C   UNL d   1      14.486   0.861 -13.648 -0.27 +0.02    +0.066 A 
DOCKED: ATOM     21  C   UNL d   1      14.355   2.246 -13.591 -0.29 -0.01    -0.025 A 
DOCKED: ATOM     22  C   UNL d   1      14.885   2.622 -12.371 -0.29 -0.01    -0.021 A 
DOCKED: ATOM     23  C   UNL d   1      15.328   1.439 -11.743 -0.27 +0.03    +0.066 A 
DOCKED: ATOM     24  C   UNL d   1      13.771   3.171 -14.657 -0.22 +0.02    +0.051 C 
DOCKED: ATOM     25  N   UNL d   1      16.442  -1.036 -10.526 -0.19 -0.08    -0.248 N 
DOCKED: ATOM     26  N   UNL d   1      16.140  -3.486 -11.808 -0.10 -0.10    -0.248 N 
DOCKED: ATOM     27  N   UNL d   1      14.729  -2.124 -14.019 -0.09 -0.08    -0.248 N 
DOCKED: ATOM     28  N   UNL d   1      15.091   0.370 -12.513 -0.18 -0.08    -0.248 N 
DOCKED: ATOM     29 FE   UNL d   1      15.533  -1.609 -12.376 -0.06 +0.00    +0.000 Fe
DOCKED: ENDROOT
DOCKED: BRANCH   6  30
DOCKED: ATOM     30  C   UNL d   1      17.777   1.435  -8.003 -0.20 +0.03    +0.052 C 
DOCKED: BRANCH  30  31
DOCKED: ATOM     31  C   UNL d   1      19.042   2.077  -8.574 -0.16 +0.07    +0.115 C 
DOCKED: BRANCH  31  32
DOCKED: ATOM     32  C   UNL d   1      18.894   3.571  -8.766 -0.09 +0.15    +0.139 C 
DOCKED: ATOM     33  O   UNL d   1      18.941   4.309  -7.793 -0.54 -1.02    -0.650 OA
DOCKED: BRANCH  32  34
DOCKED: ATOM     34  O   UNL d   1      18.759   4.127  -9.992 -0.02 -0.71    -0.776 OA
DOCKED: ATOM     35  H   UNL d   1      18.608   5.070 -10.147 +0.04 +0.17    +0.167 HD
DOCKED: ENDBRANCH  32  34
DOCKED: ENDBRANCH  31  32
DOCKED: ENDBRANCH  30  31
DOCKED: ENDBRANCH   6  30
DOCKED: BRANCH  29  36
DOCKED: ATOM     36  C   UNL d   1      17.402  -1.277 -13.267 -0.04 +0.05    +0.190 C 
DOCKED: BRANCH  36  37
DOCKED: ATOM     37  O   UNL d   1      18.722  -0.911 -12.984 +0.00 -0.09    -0.399 OA
DOCKED: ATOM     38  H   UNL d   1      18.650  -0.242 -12.247 +0.03 +0.05    +0.209 HD
DOCKED: ENDBRANCH  36  37
DOCKED: ENDBRANCH  29  36
DOCKED: BRANCH  22  39
DOCKED: ATOM     39  C   UNL d   1      15.015   4.048 -11.870 -0.38 +0.03    +0.052 C 
DOCKED: BRANCH  39  40
DOCKED: ATOM     40  C   UNL d   1      16.458   4.554 -12.040 -0.22 +0.07    +0.115 C 
DOCKED: BRANCH  40  41
DOCKED: ATOM     41  C   UNL d   1      16.664   6.000 -11.640 -0.29 +0.10    +0.139 C 
DOCKED: ATOM     42  O   UNL d   1      16.555   6.876 -12.486 -0.16 -0.36    -0.650 OA
DOCKED: BRANCH  41  43
DOCKED: ATOM     43  O   UNL d   1      16.881   6.356 -10.355 -0.18 -1.00    -0.776 OA
DOCKED: ATOM     44  H   UNL d   1      17.465   5.858  -9.769 +0.01 +0.31    +0.167 HD
DOCKED: ENDBRANCH  41  43
DOCKED: ENDBRANCH  40  41
DOCKED: ENDBRANCH  39  40
DOCKED: ENDBRANCH  22  39
DOCKED: BRANCH  12  45
DOCKED: ATOM     45  C   UNL d   1      16.033  -7.103 -12.713 -0.10 +0.00    +0.004 C 
DOCKED: ATOM     46  C   UNL d   1      14.925  -7.838 -12.760 -0.12 +0.01    +0.012 C 
DOCKED: ENDBRANCH  12  45
DOCKED: BRANCH  17  47
DOCKED: ATOM     47  C   UNL d   1      13.334  -1.396 -17.321 -0.10 +0.00    +0.004 C 
DOCKED: ATOM     48  C   UNL d   1      14.065  -0.632 -18.137 -0.10 +0.00    +0.012 C 
DOCKED: ENDBRANCH  17  47
DOCKED: TORSDOF 12
DOCKED: TER
DOCKED: ENDMDL
________________________________________________________________________________


	BEGINNING GENETIC ALGORITHM DOCKING 53 of 100
Run: 53 Seed: 998520868 1409788523 [ Run 53 of 100 GA/GALS ]
Beginning LAMARCKIAN GENETIC ALGORITHM (LGA), with a maximum of 25000000 energy evaluations.

Final-Value: -12.213


	FINAL GENETIC ALGORITHM DOCKED STATE
	_______________________________________________


Detailed state:  trans -7.432 -1.492 -12.612 quatxyzw -0.498558 -0.253592 -0.764568 -0.320259 center 8.781 34.984 -0.736 ntor 12 65.3648 163.9781 25.2823 116.5803 155.3294 131.9279 37.8190 -17.9667 -129.1917 12.6616 143.8529 -147.4423
State:	 -7.432  -1.492 -12.612  -0.526 -0.268 -0.807 -142.643     65.36  163.98   25.28  116.58  155.33  131.93   37.82  -17.97 -129.19   12.66  143.85 -147.44

DOCKED: MODEL       53
DOCKED: USER    Run = 53
DOCKED: USER    DPF = D:/Protein_go_brrr/autodock/final/AncB/heme_Co/dock.dpf
DOCKED: USER  
DOCKED: USER    Estimated Free Energy of Binding    =   -8.13 kcal/mol  [=(1)+(2)+(3)-(4)]
DOCKED: USER    Estimated Inhibition Constant, Ki   =    1.10 uM (micromolar)  [Temperature = 298.15 K]
DOCKED: USER    
DOCKED: USER    (1) Final Intermolecular Energy     =  -11.71 kcal/mol
DOCKED: USER        vdW + Hbond + desolv Energy     =   -7.23 kcal/mol
DOCKED: USER        Electrostatic Energy            =   -4.48 kcal/mol
DOCKED: USER    (2) Final Total Internal Energy     =   -0.50 kcal/mol
DOCKED: USER    (3) Torsional Free Energy           =   +3.58 kcal/mol
DOCKED: USER    (4) Unbound System's Energy  [=(2)] =   -0.50 kcal/mol
DOCKED: USER    
DOCKED: USER    
DOCKED: USER    NEWDPF move heme_Co_opt.pdbqt
DOCKED: USER    NEWDPF about 8.781000 34.984000 -0.736000
DOCKED: USER    NEWDPF tran0 -7.432007 -1.491591 -12.611767
DOCKED: USER    NEWDPF quaternion0 -0.498558 -0.253592 -0.764568 -0.320259
DOCKED: USER    NEWDPF axisangle0 -0.526277 -0.267692 -0.807077 -142.642808
DOCKED: USER    NEWDPF quat0 -0.526277 -0.267692 -0.807077 -142.642808
DOCKED: USER    NEWDPF dihe0 65.36 163.98 25.28 116.58 155.33 131.93 37.82 -17.97 -129.19 12.66 143.85 -147.44 
DOCKED: USER  keepresnum = 1 
DOCKED: USER  
DOCKED: REMARK  12 active torsions:
DOCKED: REMARK  status: ('A' for Active; 'I' for Inactive)
DOCKED: REMARK    1  A    between atoms: C_6  and  C_10 
DOCKED: REMARK    2  A    between atoms: C_10  and  C_11 
DOCKED: REMARK    3  A    between atoms: C_11  and  C_12 
DOCKED: REMARK    4  A    between atoms: C_12  and  O_14 
DOCKED: REMARK    5  A    between atoms: C_17  and  C_20 
DOCKED: REMARK    6  A    between atoms: C_24  and  C_27 
DOCKED: REMARK    7  A    between atoms: C_31  and  C_34 
DOCKED: REMARK    8  A    between atoms: C_34  and  C_35 
DOCKED: REMARK    9  A    between atoms: C_35  and  C_36 
DOCKED: REMARK   10  A    between atoms: C_36  and  O_38 
DOCKED: REMARK   11  A    between atoms: FE_43  and  C_44 
DOCKED: REMARK   12  A    between atoms: C_44  and  O_45 
DOCKED: USER                              x       y       z     vdW  Elec       q    Type
DOCKED: USER                           _______ _______ _______ _____ _____    ______ ____
DOCKED: ROOT
DOCKED: ATOM      1  C   UNL d   1      -6.995  -1.967 -14.685 -0.06 +0.07    +0.064 A 
DOCKED: ATOM      2  C   UNL d   1      -7.105   2.148 -12.305 -0.11 +0.05    +0.064 C 
DOCKED: ATOM      3  C   UNL d   1      -8.692  -0.107  -8.404 -0.16 +0.02    +0.064 A 
DOCKED: ATOM      4  C   UNL d   1      -8.221  -4.373 -10.694 -0.23 +0.03    +0.064 A 
DOCKED: ATOM      5  C   UNL d   1      -6.943  -0.672 -14.332 -0.04 +0.06    +0.066 A 
DOCKED: ATOM      6  C   UNL d   1      -6.448   0.320 -15.202 -0.04 -0.02    -0.021 A 
DOCKED: ATOM      7  C   UNL d   1      -6.461   1.509 -14.498 -0.06 -0.02    -0.025 A 
DOCKED: ATOM      8  C   UNL d   1      -6.978   1.194 -13.236 -0.06 +0.05    +0.066 A 
DOCKED: ATOM      9  C   UNL d   1      -6.007   2.895 -14.981 -0.07 +0.07    +0.051 C 
DOCKED: ATOM     10  C   UNL d   1      -7.650   1.925 -10.990 -0.10 +0.03    +0.066 A 
DOCKED: ATOM     11  C   UNL d   1      -7.939   2.907 -10.018 -0.17 -0.01    -0.021 A 
DOCKED: ATOM     12  C   UNL d   1      -8.404   2.222  -8.892 -0.21 +0.00    +0.000 A 
DOCKED: ATOM     13  C   UNL d   1      -8.377   0.878  -9.263 -0.12 +0.02    +0.070 A 
DOCKED: ATOM     14  C   UNL d   1      -7.860   4.400 -10.208 -0.19 +0.02    +0.052 C 
DOCKED: ATOM     15  C   UNL d   1      -8.668  -1.543  -8.601 -0.14 +0.02    +0.066 A 
DOCKED: ATOM     16  C   UNL d   1      -8.866  -2.512  -7.627 -0.25 -0.01    -0.021 A 
DOCKED: ATOM     17  C   UNL d   1      -8.728  -3.744  -8.283 -0.29 +0.00    +0.000 A 
DOCKED: ATOM     18  C   UNL d   1      -8.474  -3.428  -9.613 -0.18 +0.03    +0.070 A 
DOCKED: ATOM     19  C   UNL d   1      -9.164  -2.241  -6.170 -0.36 +0.01    +0.052 C 
DOCKED: ATOM     20  C   UNL d   1      -7.886  -4.089 -11.975 -0.16 +0.04    +0.066 A 
DOCKED: ATOM     21  C   UNL d   1      -7.632  -5.085 -12.915 -0.21 -0.02    -0.025 A 
DOCKED: ATOM     22  C   UNL d   1      -7.304  -4.421 -14.083 -0.13 -0.02    -0.021 A 
DOCKED: ATOM     23  C   UNL d   1      -7.363  -3.042 -13.792 -0.10 +0.06    +0.066 A 
DOCKED: ATOM     24  C   UNL d   1      -7.680  -6.597 -12.707 -0.26 +0.03    +0.051 C 
DOCKED: ATOM     25  N   UNL d   1      -7.291  -0.148 -13.108 -0.02 -0.19    -0.248 N 
DOCKED: ATOM     26  N   UNL d   1      -7.974   0.704 -10.550 -0.03 -0.11    -0.248 N 
DOCKED: ATOM     27  N   UNL d   1      -8.415  -2.109  -9.760 -0.06 -0.10    -0.248 N 
DOCKED: ATOM     28  N   UNL d   1      -7.713  -2.837 -12.517 -0.05 -0.19    -0.248 N 
DOCKED: ATOM     29 FE   UNL d   1      -7.886  -1.190 -11.337 -0.02 +0.00    +0.000 Fe
DOCKED: ENDROOT
DOCKED: BRANCH   6  30
DOCKED: ATOM     30  C   UNL d   1      -5.914   0.108 -16.614 -0.02 +0.05    +0.052 C 
DOCKED: BRANCH  30  31
DOCKED: ATOM     31  C   UNL d   1      -4.576   0.824 -16.795 -0.03 +0.11    +0.115 C 
DOCKED: BRANCH  31  32
DOCKED: ATOM     32  C   UNL d   1      -3.605   0.526 -15.672 -0.07 +0.20    +0.139 C 
DOCKED: ATOM     33  O   UNL d   1      -3.570   1.262 -14.697 -0.28 -1.08    -0.650 OA
DOCKED: BRANCH  32  34
DOCKED: ATOM     34  O   UNL d   1      -2.801  -0.562 -15.689 -0.35 -1.59    -0.776 OA
DOCKED: ATOM     35  H   UNL d   1      -2.131  -0.733 -16.365 +0.01 +0.24    +0.167 HD
DOCKED: ENDBRANCH  32  34
DOCKED: ENDBRANCH  31  32
DOCKED: ENDBRANCH  30  31
DOCKED: ENDBRANCH   6  30
DOCKED: BRANCH  29  36
DOCKED: ATOM     36  C   UNL d   1      -5.850  -1.296 -10.850 -0.13 +0.16    +0.190 C 
DOCKED: BRANCH  36  37
DOCKED: ATOM     37  O   UNL d   1      -4.568  -1.256 -11.407 -0.42 -0.60    -0.399 OA
DOCKED: ATOM     38  H   UNL d   1      -4.559  -0.433 -11.971 +0.06 +0.31    +0.209 HD
DOCKED: ENDBRANCH  36  37
DOCKED: ENDBRANCH  29  36
DOCKED: BRANCH  22  39
DOCKED: ATOM     39  C   UNL d   1      -6.894  -5.083 -15.386 -0.14 +0.05    +0.052 C 
DOCKED: BRANCH  39  40
DOCKED: ATOM     40  C   UNL d   1      -5.857  -6.189 -15.130 -0.17 +0.12    +0.115 C 
DOCKED: BRANCH  40  41
DOCKED: ATOM     41  C   UNL d   1      -5.264  -6.791 -16.386 -0.06 +0.22    +0.139 C 
DOCKED: ATOM     42  O   UNL d   1      -4.056  -6.724 -16.569 -0.04 -1.12    -0.650 OA
DOCKED: BRANCH  41  43
DOCKED: ATOM     43  O   UNL d   1      -6.020  -7.479 -17.270 -0.18 -1.71    -0.776 OA
DOCKED: ATOM     44  H   UNL d   1      -6.951  -7.275 -17.426 +0.02 +0.21    +0.167 HD
DOCKED: ENDBRANCH  41  43
DOCKED: ENDBRANCH  40  41
DOCKED: ENDBRANCH  39  40
DOCKED: ENDBRANCH  22  39
DOCKED: BRANCH  12  45
DOCKED: ATOM     45  C   UNL d   1      -8.887   2.682  -7.523 -0.25 +0.00    +0.004 C 
DOCKED: ATOM     46  C   UNL d   1     -10.109   2.703  -6.997 -0.22 +0.00    +0.012 C 
DOCKED: ENDBRANCH  12  45
DOCKED: BRANCH  17  47
DOCKED: ATOM     47  C   UNL d   1      -8.775  -5.129  -7.728 -0.53 +0.00    +0.004 C 
DOCKED: ATOM     48  C   UNL d   1      -9.472  -6.123  -8.284 -0.54 +0.00    +0.012 C 
DOCKED: ENDBRANCH  17  47
DOCKED: TORSDOF 12
DOCKED: TER
DOCKED: ENDMDL
________________________________________________________________________________


	BEGINNING GENETIC ALGORITHM DOCKING 54 of 100
Run: 54 Seed: 1216662126 1621453523 [ Run 54 of 100 GA/GALS ]
Beginning LAMARCKIAN GENETIC ALGORITHM (LGA), with a maximum of 25000000 energy evaluations.

Final-Value: -13.151


	FINAL GENETIC ALGORITHM DOCKED STATE
	_______________________________________________


Detailed state:  trans -2.549 -0.102 -14.711 quatxyzw -0.323291 -0.254552 -0.235548 -0.880457 center 8.781 34.984 -0.736 ntor 12 105.3983 87.6381 94.3561 -3.7430 50.2341 119.1299 20.3485 -45.4024 147.1609 -156.8992 -146.4593 155.3151
State:	 -2.549  -0.102 -14.711  -0.682 -0.537 -0.497 -56.605    105.40   87.64   94.36   -3.74   50.23  119.13   20.35  -45.40  147.16 -156.90 -146.46  155.32

DOCKED: MODEL       54
DOCKED: USER    Run = 54
DOCKED: USER    DPF = D:/Protein_go_brrr/autodock/final/AncB/heme_Co/dock.dpf
DOCKED: USER  
DOCKED: USER    Estimated Free Energy of Binding    =   -6.16 kcal/mol  [=(1)+(2)+(3)-(4)]
DOCKED: USER    Estimated Inhibition Constant, Ki   =   30.47 uM (micromolar)  [Temperature = 298.15 K]
DOCKED: USER    
DOCKED: USER    (1) Final Intermolecular Energy     =   -9.74 kcal/mol
DOCKED: USER        vdW + Hbond + desolv Energy     =   -6.24 kcal/mol
DOCKED: USER        Electrostatic Energy            =   -3.50 kcal/mol
DOCKED: USER    (2) Final Total Internal Energy     =   -3.41 kcal/mol
DOCKED: USER    (3) Torsional Free Energy           =   +3.58 kcal/mol
DOCKED: USER    (4) Unbound System's Energy  [=(2)] =   -3.41 kcal/mol
DOCKED: USER    
DOCKED: USER    
DOCKED: USER    NEWDPF move heme_Co_opt.pdbqt
DOCKED: USER    NEWDPF about 8.781000 34.984000 -0.736000
DOCKED: USER    NEWDPF tran0 -2.549166 -0.102108 -14.710917
DOCKED: USER    NEWDPF quaternion0 -0.323291 -0.254552 -0.235548 -0.880457
DOCKED: USER    NEWDPF axisangle0 -0.681866 -0.536885 -0.496803 -56.604986
DOCKED: USER    NEWDPF quat0 -0.681866 -0.536885 -0.496803 -56.604986
DOCKED: USER    NEWDPF dihe0 105.40 87.64 94.36 -3.74 50.23 119.13 20.35 -45.40 147.16 -156.90 -146.46 155.32 
DOCKED: USER  keepresnum = 1 
DOCKED: USER  
DOCKED: REMARK  12 active torsions:
DOCKED: REMARK  status: ('A' for Active; 'I' for Inactive)
DOCKED: REMARK    1  A    between atoms: C_6  and  C_10 
DOCKED: REMARK    2  A    between atoms: C_10  and  C_11 
DOCKED: REMARK    3  A    between atoms: C_11  and  C_12 
DOCKED: REMARK    4  A    between atoms: C_12  and  O_14 
DOCKED: REMARK    5  A    between atoms: C_17  and  C_20 
DOCKED: REMARK    6  A    between atoms: C_24  and  C_27 
DOCKED: REMARK    7  A    between atoms: C_31  and  C_34 
DOCKED: REMARK    8  A    between atoms: C_34  and  C_35 
DOCKED: REMARK    9  A    between atoms: C_35  and  C_36 
DOCKED: REMARK   10  A    between atoms: C_36  and  O_38 
DOCKED: REMARK   11  A    between atoms: FE_43  and  C_44 
DOCKED: REMARK   12  A    between atoms: C_44  and  O_45 
DOCKED: USER                              x       y       z     vdW  Elec       q    Type
DOCKED: USER                           _______ _______ _______ _____ _____    ______ ____
DOCKED: ROOT
DOCKED: ATOM      1  C   UNL d   1      -3.478   0.136 -16.659 -0.05 +0.08    +0.064 A 
DOCKED: ATOM      2  C   UNL d   1      -5.168   0.586 -12.238 -0.17 +0.07    +0.064 C 
DOCKED: ATOM      3  C   UNL d   1      -0.999  -0.916 -10.451 -0.12 +0.04    +0.064 A 
DOCKED: ATOM      4  C   UNL d   1       0.874  -1.015 -14.939 -0.14 +0.04    +0.064 A 
DOCKED: ATOM      5  C   UNL d   1      -4.258   0.334 -15.584 -0.06 +0.10    +0.066 A 
DOCKED: ATOM      6  C   UNL d   1      -5.562   0.855 -15.692 -0.05 -0.02    -0.021 A 
DOCKED: ATOM      7  C   UNL d   1      -6.040   1.005 -14.405 -0.08 -0.03    -0.025 A 
DOCKED: ATOM      8  C   UNL d   1      -5.013   0.554 -13.568 -0.12 +0.09    +0.066 A 
DOCKED: ATOM      9  C   UNL d   1      -7.407   1.550 -13.964 -0.05 +0.04    +0.051 C 
DOCKED: ATOM     10  C   UNL d   1      -4.179   0.120 -11.299 -0.20 +0.07    +0.066 A 
DOCKED: ATOM     11  C   UNL d   1      -4.335  -0.005  -9.901 -0.27 -0.01    -0.021 A 
DOCKED: ATOM     12  C   UNL d   1      -3.106  -0.448  -9.406 -0.34 +0.00    +0.000 A 
DOCKED: ATOM     13  C   UNL d   1      -2.297  -0.574 -10.535 -0.28 +0.06    +0.070 A 
DOCKED: ATOM     14  C   UNL d   1      -5.610   0.200  -9.124 -0.30 +0.02    +0.052 C 
DOCKED: ATOM     15  C   UNL d   1      -0.011  -1.041 -11.503 +0.09 +0.05    +0.066 A 
DOCKED: ATOM     16  C   UNL d   1       1.350  -1.257 -11.334 -0.29 -0.01    -0.021 A 
DOCKED: ATOM     17  C   UNL d   1       1.895  -1.284 -12.625 -0.24 +0.00    +0.000 A 
DOCKED: ATOM     18  C   UNL d   1       0.817  -1.098 -13.485 -0.21 +0.05    +0.070 A 
DOCKED: ATOM     19  C   UNL d   1       2.052  -1.421 -10.004 -0.41 +0.02    +0.052 C 
DOCKED: ATOM     20  C   UNL d   1      -0.146  -0.749 -15.790 -0.10 +0.06    +0.066 A 
DOCKED: ATOM     21  C   UNL d   1       0.040  -0.659 -17.168 -0.04 -0.02    -0.025 A 
DOCKED: ATOM     22  C   UNL d   1      -1.204  -0.357 -17.693 -0.02 -0.02    -0.021 A 
DOCKED: ATOM     23  C   UNL d   1      -2.091  -0.265 -16.599 -0.05 +0.08    +0.066 A 
DOCKED: ATOM     24  C   UNL d   1       1.342  -0.832 -17.945 -0.04 +0.02    +0.051 C 
DOCKED: ATOM     25  N   UNL d   1      -3.900   0.128 -14.271 -0.05 -0.48    -0.248 N 
DOCKED: ATOM     26  N   UNL d   1      -2.964  -0.284 -11.684 -0.14 -0.34    -0.248 N 
DOCKED: ATOM     27  N   UNL d   1      -0.297  -0.927 -12.781 -0.17 -0.25    -0.248 N 
DOCKED: ATOM     28  N   UNL d   1      -1.454  -0.500 -15.445 -0.03 -0.37    -0.248 N 
DOCKED: ATOM     29 FE   UNL d   1      -1.990  -0.432 -13.485 -0.05 +0.00    +0.000 Fe
DOCKED: ENDROOT
DOCKED: BRANCH   6  30
DOCKED: ATOM     30  C   UNL d   1      -6.275   1.263 -16.978 -0.01 +0.04    +0.052 C 
DOCKED: BRANCH  30  31
DOCKED: ATOM     31  C   UNL d   1      -5.528   2.404 -17.667 -0.01 +0.09    +0.115 C 
DOCKED: BRANCH  31  32
DOCKED: ATOM     32  C   UNL d   1      -4.894   3.359 -16.679 -0.02 +0.19    +0.139 C 
DOCKED: ATOM     33  O   UNL d   1      -5.357   4.482 -16.547 -0.17 -0.94    -0.650 OA
DOCKED: BRANCH  32  34
DOCKED: ATOM     34  O   UNL d   1      -3.853   2.994 -15.894 +0.01 -1.70    -0.776 OA
DOCKED: ATOM     35  H   UNL d   1      -2.932   3.230 -16.069 +0.01 +0.34    +0.167 HD
DOCKED: ENDBRANCH  32  34
DOCKED: ENDBRANCH  31  32
DOCKED: ENDBRANCH  30  31
DOCKED: ENDBRANCH   6  30
DOCKED: BRANCH  29  36
DOCKED: ATOM     36  C   UNL d   1      -1.547   1.616 -13.411 -0.17 +0.24    +0.190 C 
DOCKED: BRANCH  36  37
DOCKED: ATOM     37  O   UNL d   1      -1.751   2.825 -14.083 -0.10 -0.78    -0.399 OA
DOCKED: ATOM     38  H   UNL d   1      -1.917   2.566 -15.032 +0.04 +0.37    +0.209 HD
DOCKED: ENDBRANCH  36  37
DOCKED: ENDBRANCH  29  36
DOCKED: BRANCH  22  39
DOCKED: ATOM     39  C   UNL d   1      -1.502  -0.107 -19.159 +0.00 +0.03    +0.052 C 
DOCKED: BRANCH  39  40
DOCKED: ATOM     40  C   UNL d   1      -1.668   1.397 -19.430 +0.01 +0.06    +0.115 C 
DOCKED: BRANCH  40  41
DOCKED: ATOM     41  C   UNL d   1      -1.105   2.293 -18.347 +0.01 +0.09    +0.139 C 
DOCKED: ATOM     42  O   UNL d   1       0.044   2.701 -18.444 +0.03 -0.36    -0.650 OA
DOCKED: BRANCH  41  43
DOCKED: ATOM     43  O   UNL d   1      -1.866   2.726 -17.317 +0.03 -0.71    -0.776 OA
DOCKED: ATOM     44  H   UNL d   1      -1.830   2.323 -16.440 +0.02 +0.19    +0.167 HD
DOCKED: ENDBRANCH  41  43
DOCKED: ENDBRANCH  40  41
DOCKED: ENDBRANCH  39  40
DOCKED: ENDBRANCH  22  39
DOCKED: BRANCH  12  45
DOCKED: ATOM     45  C   UNL d   1      -2.611  -0.784  -8.005 -0.47 +0.00    +0.004 C 
DOCKED: ATOM     46  C   UNL d   1      -3.154  -0.547  -6.814 -0.53 +0.00    +0.012 C 
DOCKED: ENDBRANCH  12  45
DOCKED: BRANCH  17  47
DOCKED: ATOM     47  C   UNL d   1       3.318  -1.418 -13.057 -0.41 +0.00    +0.004 C 
DOCKED: ATOM     48  C   UNL d   1       4.245  -2.068 -12.349 -0.54 +0.00    +0.012 C 
DOCKED: ENDBRANCH  17  47
DOCKED: TORSDOF 12
DOCKED: TER
DOCKED: ENDMDL
________________________________________________________________________________


	BEGINNING GENETIC ALGORITHM DOCKING 55 of 100
Run: 55 Seed: 460029969 1133514357 [ Run 55 of 100 GA/GALS ]
Beginning LAMARCKIAN GENETIC ALGORITHM (LGA), with a maximum of 25000000 energy evaluations.

Final-Value: -12.523


	FINAL GENETIC ALGORITHM DOCKED STATE
	_______________________________________________


Detailed state:  trans -7.617 -1.742 -11.712 quatxyzw 0.030512 -0.636834 0.506985 -0.580067 center 8.781 34.984 -0.736 ntor 12 -180.0000 105.8184 156.3533 127.3554 117.8321 135.0281 -128.3121 172.7287 -147.5118 129.7814 -172.0329 17.4546
State:	 -7.617  -1.742 -11.712   0.037 -0.782  0.622 -109.090   -180.00  105.82  156.35  127.36  117.83  135.03 -128.31  172.73 -147.51  129.78 -172.03   17.45

DOCKED: MODEL       55
DOCKED: USER    Run = 55
DOCKED: USER    DPF = D:/Protein_go_brrr/autodock/final/AncB/heme_Co/dock.dpf
DOCKED: USER  
DOCKED: USER    Estimated Free Energy of Binding    =   -6.67 kcal/mol  [=(1)+(2)+(3)-(4)]
DOCKED: USER    Estimated Inhibition Constant, Ki   =   13.01 uM (micromolar)  [Temperature = 298.15 K]
DOCKED: USER    
DOCKED: USER    (1) Final Intermolecular Energy     =  -10.24 kcal/mol
DOCKED: USER        vdW + Hbond + desolv Energy     =   -7.40 kcal/mol
DOCKED: USER        Electrostatic Energy            =   -2.85 kcal/mol
DOCKED: USER    (2) Final Total Internal Energy     =   -2.28 kcal/mol
DOCKED: USER    (3) Torsional Free Energy           =   +3.58 kcal/mol
DOCKED: USER    (4) Unbound System's Energy  [=(2)] =   -2.28 kcal/mol
DOCKED: USER    
DOCKED: USER    
DOCKED: USER    NEWDPF move heme_Co_opt.pdbqt
DOCKED: USER    NEWDPF about 8.781000 34.984000 -0.736000
DOCKED: USER    NEWDPF tran0 -7.616556 -1.742114 -11.712251
DOCKED: USER    NEWDPF quaternion0 0.030512 -0.636834 0.506985 -0.580067
DOCKED: USER    NEWDPF axisangle0 0.037458 -0.781805 0.622397 -109.089532
DOCKED: USER    NEWDPF quat0 0.037458 -0.781805 0.622397 -109.089532
DOCKED: USER    NEWDPF dihe0 -180.00 105.82 156.35 127.36 117.83 135.03 -128.31 172.73 -147.51 129.78 -172.03 17.45 
DOCKED: USER  keepresnum = 1 
DOCKED: USER  
DOCKED: REMARK  12 active torsions:
DOCKED: REMARK  status: ('A' for Active; 'I' for Inactive)
DOCKED: REMARK    1  A    between atoms: C_6  and  C_10 
DOCKED: REMARK    2  A    between atoms: C_10  and  C_11 
DOCKED: REMARK    3  A    between atoms: C_11  and  C_12 
DOCKED: REMARK    4  A    between atoms: C_12  and  O_14 
DOCKED: REMARK    5  A    between atoms: C_17  and  C_20 
DOCKED: REMARK    6  A    between atoms: C_24  and  C_27 
DOCKED: REMARK    7  A    between atoms: C_31  and  C_34 
DOCKED: REMARK    8  A    between atoms: C_34  and  C_35 
DOCKED: REMARK    9  A    between atoms: C_35  and  C_36 
DOCKED: REMARK   10  A    between atoms: C_36  and  O_38 
DOCKED: REMARK   11  A    between atoms: FE_43  and  C_44 
DOCKED: REMARK   12  A    between atoms: C_44  and  O_45 
DOCKED: USER                              x       y       z     vdW  Elec       q    Type
DOCKED: USER                           _______ _______ _______ _____ _____    ______ ____
DOCKED: ROOT
DOCKED: ATOM      1  C   UNL d   1      -6.699  -1.985 -13.665 -0.09 +0.08    +0.064 A 
DOCKED: ATOM      2  C   UNL d   1      -8.084  -5.125 -10.374 -0.36 +0.03    +0.064 C 
DOCKED: ATOM      3  C   UNL d   1      -9.186  -1.563  -7.386 -0.21 +0.01    +0.064 A 
DOCKED: ATOM      4  C   UNL d   1      -8.141   1.667 -10.870 -0.07 +0.03    +0.064 A 
DOCKED: ATOM      5  C   UNL d   1      -6.962  -3.105 -12.972 -0.14 +0.07    +0.066 A 
DOCKED: ATOM      6  C   UNL d   1      -6.831  -4.385 -13.544 -0.18 -0.02    -0.021 A 
DOCKED: ATOM      7  C   UNL d   1      -7.256  -5.291 -12.592 -0.28 -0.02    -0.025 A 
DOCKED: ATOM      8  C   UNL d   1      -7.612  -4.527 -11.476 -0.24 +0.04    +0.066 A 
DOCKED: ATOM      9  C   UNL d   1      -7.331  -6.821 -12.714 -0.29 +0.03    +0.051 C 
DOCKED: ATOM     10  C   UNL d   1      -8.450  -4.423  -9.169 -0.28 +0.03    +0.066 A 
DOCKED: ATOM     11  C   UNL d   1      -8.818  -5.002  -7.935 -0.43 -0.01    -0.021 A 
DOCKED: ATOM     12  C   UNL d   1      -9.130  -3.940  -7.080 -0.38 +0.00    +0.000 A 
DOCKED: ATOM     13  C   UNL d   1      -8.919  -2.796  -7.850 -0.22 +0.02    +0.070 A 
DOCKED: ATOM     14  C   UNL d   1      -8.774  -6.468  -7.588 -0.46 +0.02    +0.052 C 
DOCKED: ATOM     15  C   UNL d   1      -9.076  -0.283  -8.058 -0.17 +0.02    +0.066 A 
DOCKED: ATOM     16  C   UNL d   1      -9.506   0.942  -7.570 -0.24 -0.00    -0.021 A 
DOCKED: ATOM     17  C   UNL d   1      -9.209   1.877  -8.572 -0.17 +0.00    +0.000 A 
DOCKED: ATOM     18  C   UNL d   1      -8.604   1.147  -9.590 -0.09 +0.02    +0.070 A 
DOCKED: ATOM     19  C   UNL d   1     -10.158   1.170  -6.224 -0.05 +0.00    +0.052 C 
DOCKED: ATOM     20  C   UNL d   1      -7.629   0.963 -11.909 -0.05 +0.04    +0.066 A 
DOCKED: ATOM     21  C   UNL d   1      -7.252   1.571 -13.104 -0.06 -0.02    -0.025 A 
DOCKED: ATOM     22  C   UNL d   1      -6.805   0.547 -13.919 -0.05 -0.02    -0.021 A 
DOCKED: ATOM     23  C   UNL d   1      -6.944  -0.646 -13.178 -0.06 +0.06    +0.066 A 
DOCKED: ATOM     24  C   UNL d   1      -7.333   3.053 -13.462 -0.10 +0.04    +0.051 C 
DOCKED: ATOM     25  N   UNL d   1      -7.435  -3.169 -11.681 -0.09 -0.17    -0.248 N 
DOCKED: ATOM     26  N   UNL d   1      -8.454  -3.088  -9.095 -0.11 -0.09    -0.248 N 
DOCKED: ATOM     27  N   UNL d   1      -8.569  -0.140  -9.262 -0.05 -0.08    -0.248 N 
DOCKED: ATOM     28  N   UNL d   1      -7.444  -0.399 -11.961 -0.02 -0.17    -0.248 N 
DOCKED: ATOM     29 FE   UNL d   1      -8.034  -1.562 -10.402 -0.03 +0.00    +0.000 Fe
DOCKED: ENDROOT
DOCKED: BRANCH   6  30
DOCKED: ATOM     30  C   UNL d   1      -6.395  -4.705 -14.970 -0.13 +0.06    +0.052 C 
DOCKED: BRANCH  30  31
DOCKED: ATOM     31  C   UNL d   1      -7.599  -4.708 -15.912 -0.05 +0.09    +0.115 C 
DOCKED: BRANCH  31  32
DOCKED: ATOM     32  C   UNL d   1      -8.681  -3.747 -15.469 -0.02 +0.09    +0.139 C 
DOCKED: ATOM     33  O   UNL d   1      -8.795  -2.670 -16.034 +0.01 -0.37    -0.650 OA
DOCKED: BRANCH  32  34
DOCKED: ATOM     34  O   UNL d   1      -9.565  -4.061 -14.494 +0.05 -0.44    -0.776 OA
DOCKED: ATOM     35  H   UNL d   1     -10.231  -3.452 -14.147 +0.02 +0.08    +0.167 HD
DOCKED: ENDBRANCH  32  34
DOCKED: ENDBRANCH  31  32
DOCKED: ENDBRANCH  30  31
DOCKED: ENDBRANCH   6  30
DOCKED: BRANCH  29  36
DOCKED: ATOM     36  C   UNL d   1      -9.945  -1.757 -11.241 -0.02 +0.07    +0.190 C 
DOCKED: BRANCH  36  37
DOCKED: ATOM     37  O   UNL d   1     -10.629  -2.267 -12.349 +0.00 -0.17    -0.399 OA
DOCKED: ATOM     38  H   UNL d   1      -9.913  -2.566 -12.977 +0.02 +0.10    +0.209 HD
DOCKED: ENDBRANCH  36  37
DOCKED: ENDBRANCH  29  36
DOCKED: BRANCH  22  39
DOCKED: ATOM     39  C   UNL d   1      -6.334   0.705 -15.352 -0.04 +0.05    +0.052 C 
DOCKED: BRANCH  39  40
DOCKED: ATOM     40  C   UNL d   1      -4.868   0.264 -15.494 -0.07 +0.16    +0.115 C 
DOCKED: BRANCH  40  41
DOCKED: ATOM     41  C   UNL d   1      -3.908   0.978 -14.565 -0.12 +0.23    +0.139 C 
DOCKED: ATOM     42  O   UNL d   1      -3.942   2.199 -14.494 -0.53 -1.54    -0.650 OA
DOCKED: BRANCH  41  43
DOCKED: ATOM     43  O   UNL d   1      -3.074   0.300 -13.747 -0.04 -1.45    -0.776 OA
DOCKED: ATOM     44  H   UNL d   1      -2.302   0.711 -13.336 +0.05 +0.24    +0.167 HD
DOCKED: ENDBRANCH  41  43
DOCKED: ENDBRANCH  40  41
DOCKED: ENDBRANCH  39  40
DOCKED: ENDBRANCH  22  39
DOCKED: BRANCH  12  45
DOCKED: ATOM     45  C   UNL d   1      -9.583  -3.875  -5.628 -0.52 +0.00    +0.004 C 
DOCKED: ATOM     46  C   UNL d   1      -9.010  -3.315  -4.566 -0.60 +0.00    +0.012 C 
DOCKED: ENDBRANCH  12  45
DOCKED: BRANCH  17  47
DOCKED: ATOM     47  C   UNL d   1      -9.502   3.340  -8.629 -0.17 +0.00    +0.004 C 
DOCKED: ATOM     48  C   UNL d   1      -8.622   4.282  -8.283 -0.30 +0.00    +0.012 C 
DOCKED: ENDBRANCH  17  47
DOCKED: TORSDOF 12
DOCKED: TER
DOCKED: ENDMDL
________________________________________________________________________________


	BEGINNING GENETIC ALGORITHM DOCKING 56 of 100
Run: 56 Seed: 632040604 1250576940 [ Run 56 of 100 GA/GALS ]
Beginning LAMARCKIAN GENETIC ALGORITHM (LGA), with a maximum of 25000000 energy evaluations.

Final-Value: -11.696


	FINAL GENETIC ALGORITHM DOCKED STATE
	_______________________________________________


Detailed state:  trans 15.941 -0.419 -11.468 quatxyzw 0.012353 -0.706965 0.426501 0.564044 center 8.781 34.984 -0.736 ntor 12 -30.1438 102.9021 57.7424 118.9247 -81.9808 -116.5231 -140.5228 171.1338 -13.4246 -14.5009 -168.1892 130.6377
State:	 15.941  -0.419 -11.468   0.015 -0.856  0.517 111.328    -30.14  102.90   57.74  118.92  -81.98 -116.52 -140.52  171.13  -13.42  -14.50 -168.19  130.64

DOCKED: MODEL       56
DOCKED: USER    Run = 56
DOCKED: USER    DPF = D:/Protein_go_brrr/autodock/final/AncB/heme_Co/dock.dpf
DOCKED: USER  
DOCKED: USER    Estimated Free Energy of Binding    =   -6.44 kcal/mol  [=(1)+(2)+(3)-(4)]
DOCKED: USER    Estimated Inhibition Constant, Ki   =   19.00 uM (micromolar)  [Temperature = 298.15 K]
DOCKED: USER    
DOCKED: USER    (1) Final Intermolecular Energy     =  -10.02 kcal/mol
DOCKED: USER        vdW + Hbond + desolv Energy     =   -7.75 kcal/mol
DOCKED: USER        Electrostatic Energy            =   -2.28 kcal/mol
DOCKED: USER    (2) Final Total Internal Energy     =   -1.68 kcal/mol
DOCKED: USER    (3) Torsional Free Energy           =   +3.58 kcal/mol
DOCKED: USER    (4) Unbound System's Energy  [=(2)] =   -1.68 kcal/mol
DOCKED: USER    
DOCKED: USER    
DOCKED: USER    NEWDPF move heme_Co_opt.pdbqt
DOCKED: USER    NEWDPF about 8.781000 34.984000 -0.736000
DOCKED: USER    NEWDPF tran0 15.940716 -0.418957 -11.468205
DOCKED: USER    NEWDPF quaternion0 0.012353 -0.706965 0.426501 0.564044
DOCKED: USER    NEWDPF axisangle0 0.014960 -0.856154 0.516505 111.328176
DOCKED: USER    NEWDPF quat0 0.014960 -0.856154 0.516505 111.328176
DOCKED: USER    NEWDPF dihe0 -30.14 102.90 57.74 118.92 -81.98 -116.52 -140.52 171.13 -13.42 -14.50 -168.19 130.64 
DOCKED: USER  keepresnum = 1 
DOCKED: USER  
DOCKED: REMARK  12 active torsions:
DOCKED: REMARK  status: ('A' for Active; 'I' for Inactive)
DOCKED: REMARK    1  A    between atoms: C_6  and  C_10 
DOCKED: REMARK    2  A    between atoms: C_10  and  C_11 
DOCKED: REMARK    3  A    between atoms: C_11  and  C_12 
DOCKED: REMARK    4  A    between atoms: C_12  and  O_14 
DOCKED: REMARK    5  A    between atoms: C_17  and  C_20 
DOCKED: REMARK    6  A    between atoms: C_24  and  C_27 
DOCKED: REMARK    7  A    between atoms: C_31  and  C_34 
DOCKED: REMARK    8  A    between atoms: C_34  and  C_35 
DOCKED: REMARK    9  A    between atoms: C_35  and  C_36 
DOCKED: REMARK   10  A    between atoms: C_36  and  O_38 
DOCKED: REMARK   11  A    between atoms: FE_43  and  C_44 
DOCKED: REMARK   12  A    between atoms: C_44  and  O_45 
DOCKED: USER                              x       y       z     vdW  Elec       q    Type
DOCKED: USER                           _______ _______ _______ _____ _____    ______ ____
DOCKED: ROOT
DOCKED: ATOM      1  C   UNL d   1      16.188   1.364 -10.253 -0.30 +0.03    +0.064 A 
DOCKED: ATOM      2  C   UNL d   1      17.516  -3.156  -9.603 -0.19 +0.02    +0.064 C 
DOCKED: ATOM      3  C   UNL d   1      15.234  -4.440 -13.599 -0.07 +0.02    +0.064 A 
DOCKED: ATOM      4  C   UNL d   1      14.193   0.227 -14.490 -0.27 +0.02    +0.064 A 
DOCKED: ATOM      5  C   UNL d   1      16.688   0.218  -9.763 -0.32 +0.02    +0.066 A 
DOCKED: ATOM      6  C   UNL d   1      17.499   0.188  -8.612 -0.27 -0.01    -0.021 A 
DOCKED: ATOM      7  C   UNL d   1      17.900  -1.123  -8.440 -0.24 -0.01    -0.025 A 
DOCKED: ATOM      8  C   UNL d   1      17.304  -1.839  -9.484 -0.22 +0.02    +0.066 A 
DOCKED: ATOM      9  C   UNL d   1      18.810  -1.694  -7.342 -0.24 +0.02    +0.051 C 
DOCKED: ATOM     10  C   UNL d   1      16.924  -3.979 -10.627 -0.15 +0.03    +0.066 A 
DOCKED: ATOM     11  C   UNL d   1      16.993  -5.386 -10.723 -0.13 -0.01    -0.021 A 
DOCKED: ATOM     12  C   UNL d   1      16.317  -5.734 -11.896 -0.14 +0.00    +0.000 A 
DOCKED: ATOM     13  C   UNL d   1      15.875  -4.519 -12.419 -0.07 +0.03    +0.070 A 
DOCKED: ATOM     14  C   UNL d   1      17.588  -6.322  -9.703 -0.10 +0.02    +0.052 C 
DOCKED: ATOM     15  C   UNL d   1      14.757  -3.271 -14.310 -0.10 +0.02    +0.066 A 
DOCKED: ATOM     16  C   UNL d   1      14.232  -3.246 -15.595 -0.13 -0.00    -0.021 A 
DOCKED: ATOM     17  C   UNL d   1      13.932  -1.901 -15.857 -0.18 +0.00    +0.000 A 
DOCKED: ATOM     18  C   UNL d   1      14.284  -1.212 -14.701 -0.19 +0.02    +0.070 A 
DOCKED: ATOM     19  C   UNL d   1      14.044  -4.451 -16.489 -0.05 +0.01    +0.052 C 
DOCKED: ATOM     20  C   UNL d   1      14.609   0.929 -13.409 -0.27 +0.02    +0.066 A 
DOCKED: ATOM     21  C   UNL d   1      14.501   2.317 -13.337 -0.28 -0.01    -0.025 A 
DOCKED: ATOM     22  C   UNL d   1      15.042   2.670 -12.114 -0.27 -0.01    -0.021 A 
DOCKED: ATOM     23  C   UNL d   1      15.467   1.472 -11.501 -0.28 +0.03    +0.066 A 
DOCKED: ATOM     24  C   UNL d   1      13.930   3.262 -14.390 -0.30 +0.01    +0.051 C 
DOCKED: ATOM     25  N   UNL d   1      16.542  -1.035 -10.315 -0.20 -0.08    -0.248 N 
DOCKED: ATOM     26  N   UNL d   1      16.194  -3.465 -11.623 -0.11 -0.10    -0.248 N 
DOCKED: ATOM     27  N   UNL d   1      14.799  -2.055 -13.813 -0.10 -0.08    -0.248 N 
DOCKED: ATOM     28  N   UNL d   1      15.209   0.417 -12.282 -0.18 -0.08    -0.248 N 
DOCKED: ATOM     29 FE   UNL d   1      15.618  -1.572 -12.168 -0.06 +0.00    +0.000 Fe
DOCKED: ENDROOT
DOCKED: BRANCH   6  30
DOCKED: ATOM     30  C   UNL d   1      17.929   1.385  -7.771 -0.17 +0.03    +0.052 C 
DOCKED: BRANCH  30  31
DOCKED: ATOM     31  C   UNL d   1      19.160   2.055  -8.380 -0.16 +0.07    +0.115 C 
DOCKED: BRANCH  31  32
DOCKED: ATOM     32  C   UNL d   1      19.405   3.438  -7.814 -0.12 +0.12    +0.139 C 
DOCKED: ATOM     33  O   UNL d   1      20.108   3.566  -6.823 -0.02 -0.40    -0.650 OA
DOCKED: BRANCH  32  34
DOCKED: ATOM     34  O   UNL d   1      18.907   4.551  -8.401 -0.46 -1.22    -0.776 OA
DOCKED: ATOM     35  H   UNL d   1      18.803   4.663  -9.356 +0.04 +0.21    +0.167 HD
DOCKED: ENDBRANCH  32  34
DOCKED: ENDBRANCH  31  32
DOCKED: ENDBRANCH  30  31
DOCKED: ENDBRANCH   6  30
DOCKED: BRANCH  29  36
DOCKED: ATOM     36  C   UNL d   1      17.488  -1.262 -13.062 -0.04 +0.05    +0.190 C 
DOCKED: BRANCH  36  37
DOCKED: ATOM     37  O   UNL d   1      18.689  -1.903 -13.385 +0.00 -0.09    -0.399 OA
DOCKED: ATOM     38  H   UNL d   1      18.647  -2.779 -12.910 +0.02 +0.05    +0.209 HD
DOCKED: ENDBRANCH  36  37
DOCKED: ENDBRANCH  29  36
DOCKED: BRANCH  22  39
DOCKED: ATOM     39  C   UNL d   1      15.198   4.088 -11.598 -0.35 +0.03    +0.052 C 
DOCKED: BRANCH  39  40
DOCKED: ATOM     40  C   UNL d   1      16.645   4.344 -11.144 -0.24 +0.10    +0.115 C 
DOCKED: BRANCH  40  41
DOCKED: ATOM     41  C   UNL d   1      17.027   5.807 -11.069 -0.29 +0.13    +0.139 C 
DOCKED: ATOM     42  O   UNL d   1      16.810   6.532 -12.030 -0.08 -0.40    -0.650 OA
DOCKED: BRANCH  41  43
DOCKED: ATOM     43  O   UNL d   1      17.522   6.355  -9.938 -0.05 -1.15    -0.776 OA
DOCKED: ATOM     44  H   UNL d   1      18.368   6.085  -9.557 +0.03 +0.22    +0.167 HD
DOCKED: ENDBRANCH  41  43
DOCKED: ENDBRANCH  40  41
DOCKED: ENDBRANCH  39  40
DOCKED: ENDBRANCH  22  39
DOCKED: BRANCH  12  45
DOCKED: ATOM     45  C   UNL d   1      16.022  -7.069 -12.567 -0.11 +0.00    +0.004 C 
DOCKED: ATOM     46  C   UNL d   1      14.876  -7.726 -12.721 -0.13 +0.01    +0.012 C 
DOCKED: ENDBRANCH  12  45
DOCKED: BRANCH  17  47
DOCKED: ATOM     47  C   UNL d   1      13.405  -1.267 -17.102 -0.12 +0.00    +0.004 C 
DOCKED: ATOM     48  C   UNL d   1      14.162  -0.566 -17.950 -0.10 +0.00    +0.012 C 
DOCKED: ENDBRANCH  17  47
DOCKED: TORSDOF 12
DOCKED: TER
DOCKED: ENDMDL
________________________________________________________________________________


	BEGINNING GENETIC ALGORITHM DOCKING 57 of 100
Run: 57 Seed: 1904610345 603411388 [ Run 57 of 100 GA/GALS ]
Beginning LAMARCKIAN GENETIC ALGORITHM (LGA), with a maximum of 25000000 energy evaluations.

Final-Value: -11.284


	FINAL GENETIC ALGORITHM DOCKED STATE
	_______________________________________________


Detailed state:  trans 18.414 4.336 -9.646 quatxyzw -0.274996 0.570954 -0.643282 -0.429626 center 8.781 34.984 -0.736 ntor 12 148.1842 122.7521 -63.3534 44.8819 -96.8618 101.8632 -120.0878 -15.4424 -126.6376 -180.0000 -176.2034 -179.9993
State:	 18.414   4.336  -9.646  -0.305  0.632 -0.712 -129.112    148.18  122.75  -63.35   44.88  -96.86  101.86 -120.09  -15.44 -126.64 -180.00 -176.20 -180.00

DOCKED: MODEL       57
DOCKED: USER    Run = 57
DOCKED: USER    DPF = D:/Protein_go_brrr/autodock/final/AncB/heme_Co/dock.dpf
DOCKED: USER  
DOCKED: USER    Estimated Free Energy of Binding    =   -3.91 kcal/mol  [=(1)+(2)+(3)-(4)]
DOCKED: USER    Estimated Inhibition Constant, Ki   =    1.37 mM (millimolar)  [Temperature = 298.15 K]
DOCKED: USER    
DOCKED: USER    (1) Final Intermolecular Energy     =   -7.49 kcal/mol
DOCKED: USER        vdW + Hbond + desolv Energy     =   -6.63 kcal/mol
DOCKED: USER        Electrostatic Energy            =   -0.85 kcal/mol
DOCKED: USER    (2) Final Total Internal Energy     =   -3.80 kcal/mol
DOCKED: USER    (3) Torsional Free Energy           =   +3.58 kcal/mol
DOCKED: USER    (4) Unbound System's Energy  [=(2)] =   -3.80 kcal/mol
DOCKED: USER    
DOCKED: USER    
DOCKED: USER    NEWDPF move heme_Co_opt.pdbqt
DOCKED: USER    NEWDPF about 8.781000 34.984000 -0.736000
DOCKED: USER    NEWDPF tran0 18.414034 4.335664 -9.645510
DOCKED: USER    NEWDPF quaternion0 -0.274996 0.570954 -0.643282 -0.429626
DOCKED: USER    NEWDPF axisangle0 -0.304533 0.632280 -0.712377 -129.112405
DOCKED: USER    NEWDPF quat0 -0.304533 0.632280 -0.712377 -129.112405
DOCKED: USER    NEWDPF dihe0 148.18 122.75 -63.35 44.88 -96.86 101.86 -120.09 -15.44 -126.64 -180.00 -176.20 -180.00 
DOCKED: USER  keepresnum = 1 
DOCKED: USER  
DOCKED: REMARK  12 active torsions:
DOCKED: REMARK  status: ('A' for Active; 'I' for Inactive)
DOCKED: REMARK    1  A    between atoms: C_6  and  C_10 
DOCKED: REMARK    2  A    between atoms: C_10  and  C_11 
DOCKED: REMARK    3  A    between atoms: C_11  and  C_12 
DOCKED: REMARK    4  A    between atoms: C_12  and  O_14 
DOCKED: REMARK    5  A    between atoms: C_17  and  C_20 
DOCKED: REMARK    6  A    between atoms: C_24  and  C_27 
DOCKED: REMARK    7  A    between atoms: C_31  and  C_34 
DOCKED: REMARK    8  A    between atoms: C_34  and  C_35 
DOCKED: REMARK    9  A    between atoms: C_35  and  C_36 
DOCKED: REMARK   10  A    between atoms: C_36  and  O_38 
DOCKED: REMARK   11  A    between atoms: FE_43  and  C_44 
DOCKED: REMARK   12  A    between atoms: C_44  and  O_45 
DOCKED: USER                              x       y       z     vdW  Elec       q    Type
DOCKED: USER                           _______ _______ _______ _____ _____    ______ ____
DOCKED: ROOT
DOCKED: ATOM      1  C   UNL d   1      18.743   6.447 -10.033 -0.13 +0.06    +0.064 A 
DOCKED: ATOM      2  C   UNL d   1      20.658   3.438  -6.887 -0.09 +0.03    +0.064 C 
DOCKED: ATOM      3  C   UNL d   1      17.668  -0.008  -8.306 -0.26 +0.02    +0.064 A 
DOCKED: ATOM      4  C   UNL d   1      15.959   2.928 -11.789 -0.21 +0.03    +0.064 A 
DOCKED: ATOM      5  C   UNL d   1      19.462   5.889  -9.044 -0.16 +0.06    +0.066 A 
DOCKED: ATOM      6  C   UNL d   1      20.514   6.574  -8.407 -0.12 -0.01    -0.021 A 
DOCKED: ATOM      7  C   UNL d   1      21.081   5.689  -7.511 -0.06 -0.01    -0.025 A 
DOCKED: ATOM      8  C   UNL d   1      20.341   4.508  -7.628 -0.09 +0.04    +0.066 A 
DOCKED: ATOM      9  C   UNL d   1      22.275   5.930  -6.575 -0.02 +0.01    +0.051 C 
DOCKED: ATOM     10  C   UNL d   1      19.938   2.190  -6.921 -0.13 +0.03    +0.066 A 
DOCKED: ATOM     11  C   UNL d   1      20.133   1.080  -6.070 -0.11 -0.01    -0.021 A 
DOCKED: ATOM     12  C   UNL d   1      19.245   0.092  -6.503 -0.22 +0.00    +0.000 A 
DOCKED: ATOM     13  C   UNL d   1      18.568   0.674  -7.575 -0.23 +0.03    +0.070 A 
DOCKED: ATOM     14  C   UNL d   1      21.043   1.025  -4.870 -0.11 +0.01    +0.052 C 
DOCKED: ATOM     15  C   UNL d   1      16.918   0.418  -9.471 -0.28 +0.03    +0.066 A 
DOCKED: ATOM     16  C   UNL d   1      16.112  -0.382 -10.269 -0.39 -0.01    -0.021 A 
DOCKED: ATOM     17  C   UNL d   1      15.619   0.460 -11.276 -0.34 +0.00    +0.000 A 
DOCKED: ATOM     18  C   UNL d   1      16.151   1.715 -11.003 -0.25 +0.04    +0.070 A 
DOCKED: ATOM     19  C   UNL d   1      15.853  -1.856 -10.054 -0.28 +0.02    +0.052 C 
DOCKED: ATOM     20  C   UNL d   1      16.535   4.138 -11.592 -0.21 +0.05    +0.066 A 
DOCKED: ATOM     21  C   UNL d   1      16.300   5.219 -12.438 -0.25 -0.01    -0.025 A 
DOCKED: ATOM     22  C   UNL d   1      17.067   6.256 -11.939 -0.30 -0.01    -0.021 A 
DOCKED: ATOM     23  C   UNL d   1      17.747   5.749 -10.812 -0.23 +0.06    +0.066 A 
DOCKED: ATOM     24  C   UNL d   1      15.404   5.258 -13.673 -0.25 +0.02    +0.051 C 
DOCKED: ATOM     25  N   UNL d   1      19.327   4.605  -8.566 -0.00 -0.29    -0.248 N 
DOCKED: ATOM     26  N   UNL d   1      18.948   1.961  -7.790 -0.14 -0.16    -0.248 N 
DOCKED: ATOM     27  N   UNL d   1      16.944   1.646  -9.939 -0.17 -0.15    -0.248 N 
DOCKED: ATOM     28  N   UNL d   1      17.429   4.466 -10.600 -0.12 -0.27    -0.248 N 
DOCKED: ATOM     29 FE   UNL d   1      18.063   3.040  -9.295 -0.05 +0.00    +0.000 Fe
DOCKED: ENDROOT
DOCKED: BRANCH   6  30
DOCKED: ATOM     30  C   UNL d   1      20.996   7.988  -8.713 -0.10 +0.01    +0.052 C 
DOCKED: BRANCH  30  31
DOCKED: ATOM     31  C   UNL d   1      22.120   7.961  -9.748 -0.06 +0.03    +0.115 C 
DOCKED: BRANCH  31  32
DOCKED: ATOM     32  C   UNL d   1      21.752   7.159 -10.978 -0.04 +0.04    +0.139 C 
DOCKED: ATOM     33  O   UNL d   1      21.565   7.737 -12.039 +0.01 -0.17    -0.650 OA
DOCKED: BRANCH  32  34
DOCKED: ATOM     34  O   UNL d   1      21.668   5.808 -10.956 +0.03 -0.22    -0.776 OA
DOCKED: ATOM     35  H   UNL d   1      21.019   5.295 -11.458 +0.02 +0.05    +0.167 HD
DOCKED: ENDBRANCH  32  34
DOCKED: ENDBRANCH  31  32
DOCKED: ENDBRANCH  30  31
DOCKED: ENDBRANCH   6  30
DOCKED: BRANCH  29  36
DOCKED: ATOM     36  C   UNL d   1      19.634   2.526 -10.585 -0.03 +0.08    +0.190 C 
DOCKED: BRANCH  36  37
DOCKED: ATOM     37  O   UNL d   1      20.503   3.050 -11.547 +0.00 -0.12    -0.399 OA
DOCKED: ATOM     38  H   UNL d   1      20.367   4.038 -11.504 +0.02 +0.07    +0.209 HD
DOCKED: ENDBRANCH  36  37
DOCKED: ENDBRANCH  29  36
DOCKED: BRANCH  22  39
DOCKED: ATOM     39  C   UNL d   1      17.186   7.638 -12.556 -0.05 +0.03    +0.052 C 
DOCKED: BRANCH  39  40
DOCKED: ATOM     40  C   UNL d   1      18.143   7.614 -13.759 -0.15 +0.04    +0.115 C 
DOCKED: BRANCH  40  41
DOCKED: ATOM     41  C   UNL d   1      18.842   6.289 -13.976 -0.04 +0.04    +0.139 C 
DOCKED: ATOM     42  O   UNL d   1      18.718   5.715 -15.049 +0.03 -0.16    -0.650 OA
DOCKED: BRANCH  41  43
DOCKED: ATOM     43  O   UNL d   1      19.671   5.763 -13.047 +0.05 -0.25    -0.776 OA
DOCKED: ATOM     44  H   UNL d   1      20.444   6.236 -12.714 +0.02 +0.05    +0.167 HD
DOCKED: ENDBRANCH  41  43
DOCKED: ENDBRANCH  40  41
DOCKED: ENDBRANCH  39  40
DOCKED: ENDBRANCH  22  39
DOCKED: BRANCH  12  45
DOCKED: ATOM     45  C   UNL d   1      18.948  -1.321  -6.019 -0.33 +0.00    +0.004 C 
DOCKED: ATOM     46  C   UNL d   1      18.917  -1.826  -4.789 -0.37 +0.00    +0.012 C 
DOCKED: ENDBRANCH  12  45
DOCKED: BRANCH  17  47
DOCKED: ATOM     47  C   UNL d   1      14.754   0.137 -12.451 -0.19 +0.00    +0.004 C 
DOCKED: ATOM     48  C   UNL d   1      15.139   0.307 -13.718 -0.25 +0.00    +0.012 C 
DOCKED: ENDBRANCH  17  47
DOCKED: TORSDOF 12
DOCKED: TER
DOCKED: ENDMDL
________________________________________________________________________________


	BEGINNING GENETIC ALGORITHM DOCKING 58 of 100
Run: 58 Seed: 759930658 761199811 [ Run 58 of 100 GA/GALS ]
Beginning LAMARCKIAN GENETIC ALGORITHM (LGA), with a maximum of 25000000 energy evaluations.

Final-Value: -9.763


	FINAL GENETIC ALGORITHM DOCKED STATE
	_______________________________________________


Detailed state:  trans -11.187 -5.225 -12.069 quatxyzw 0.356416 0.636382 0.198664 0.654613 center 8.781 34.984 -0.736 ntor 12 -16.9833 96.9216 -175.7895 -103.4271 8.9611 111.9801 77.4060 -160.1033 -114.9696 116.6905 -29.3318 -150.9492
State:	-11.187  -5.225 -12.069   0.471  0.842  0.263 98.219    -16.98   96.92 -175.79 -103.43    8.96  111.98   77.41 -160.10 -114.97  116.69  -29.33 -150.95

DOCKED: MODEL       58
DOCKED: USER    Run = 58
DOCKED: USER    DPF = D:/Protein_go_brrr/autodock/final/AncB/heme_Co/dock.dpf
DOCKED: USER  
DOCKED: USER    Estimated Free Energy of Binding    =   -5.48 kcal/mol  [=(1)+(2)+(3)-(4)]
DOCKED: USER    Estimated Inhibition Constant, Ki   =   96.51 uM (micromolar)  [Temperature = 298.15 K]
DOCKED: USER    
DOCKED: USER    (1) Final Intermolecular Energy     =   -9.06 kcal/mol
DOCKED: USER        vdW + Hbond + desolv Energy     =   -5.84 kcal/mol
DOCKED: USER        Electrostatic Energy            =   -3.21 kcal/mol
DOCKED: USER    (2) Final Total Internal Energy     =   -0.71 kcal/mol
DOCKED: USER    (3) Torsional Free Energy           =   +3.58 kcal/mol
DOCKED: USER    (4) Unbound System's Energy  [=(2)] =   -0.71 kcal/mol
DOCKED: USER    
DOCKED: USER    
DOCKED: USER    NEWDPF move heme_Co_opt.pdbqt
DOCKED: USER    NEWDPF about 8.781000 34.984000 -0.736000
DOCKED: USER    NEWDPF tran0 -11.186865 -5.225298 -12.068912
DOCKED: USER    NEWDPF quaternion0 0.356416 0.636382 0.198664 0.654613
DOCKED: USER    NEWDPF axisangle0 0.471472 0.841815 0.262795 98.219325
DOCKED: USER    NEWDPF quat0 0.471472 0.841815 0.262795 98.219325
DOCKED: USER    NEWDPF dihe0 -16.98 96.92 -175.79 -103.43 8.96 111.98 77.41 -160.10 -114.97 116.69 -29.33 -150.95 
DOCKED: USER  keepresnum = 1 
DOCKED: USER  
DOCKED: REMARK  12 active torsions:
DOCKED: REMARK  status: ('A' for Active; 'I' for Inactive)
DOCKED: REMARK    1  A    between atoms: C_6  and  C_10 
DOCKED: REMARK    2  A    between atoms: C_10  and  C_11 
DOCKED: REMARK    3  A    between atoms: C_11  and  C_12 
DOCKED: REMARK    4  A    between atoms: C_12  and  O_14 
DOCKED: REMARK    5  A    between atoms: C_17  and  C_20 
DOCKED: REMARK    6  A    between atoms: C_24  and  C_27 
DOCKED: REMARK    7  A    between atoms: C_31  and  C_34 
DOCKED: REMARK    8  A    between atoms: C_34  and  C_35 
DOCKED: REMARK    9  A    between atoms: C_35  and  C_36 
DOCKED: REMARK   10  A    between atoms: C_36  and  O_38 
DOCKED: REMARK   11  A    between atoms: FE_43  and  C_44 
DOCKED: REMARK   12  A    between atoms: C_44  and  O_45 
DOCKED: USER                              x       y       z     vdW  Elec       q    Type
DOCKED: USER                           _______ _______ _______ _____ _____    ______ ____
DOCKED: ROOT
DOCKED: ATOM      1  C   UNL d   1     -10.458  -5.879 -14.007 -0.10 +0.05    +0.064 A 
DOCKED: ATOM      2  C   UNL d   1     -14.799  -4.722 -12.451 -0.05 +0.04    +0.064 C 
DOCKED: ATOM      3  C   UNL d   1     -13.113  -4.217  -8.009 -0.06 +0.01    +0.064 A 
DOCKED: ATOM      4  C   UNL d   1      -8.602  -5.017  -9.644 -0.30 +0.03    +0.064 A 
DOCKED: ATOM      5  C   UNL d   1     -11.775  -5.635 -13.902 -0.09 +0.06    +0.066 A 
DOCKED: ATOM      6  C   UNL d   1     -12.624  -5.616 -15.025 -0.06 -0.02    -0.021 A 
DOCKED: ATOM      7  C   UNL d   1     -13.878  -5.257 -14.571 -0.05 -0.02    -0.025 A 
DOCKED: ATOM      8  C   UNL d   1     -13.744  -5.089 -13.188 -0.07 +0.06    +0.066 A 
DOCKED: ATOM      9  C   UNL d   1     -15.162  -5.075 -15.394 -0.01 +0.03    +0.051 C 
DOCKED: ATOM     10  C   UNL d   1     -14.764  -4.550 -11.020 -0.03 +0.04    +0.066 A 
DOCKED: ATOM     11  C   UNL d   1     -15.865  -4.304 -10.172 -0.01 -0.01    -0.021 A 
DOCKED: ATOM     12  C   UNL d   1     -15.346  -4.165  -8.882 -0.02 +0.00    +0.000 A 
DOCKED: ATOM     13  C   UNL d   1     -13.971  -4.349  -9.036 -0.03 +0.02    +0.070 A 
DOCKED: ATOM     14  C   UNL d   1     -17.318  -4.301 -10.574 +0.00 +0.02    +0.052 C 
DOCKED: ATOM     15  C   UNL d   1     -11.667  -4.320  -7.999 -0.13 +0.01    +0.066 A 
DOCKED: ATOM     16  C   UNL d   1     -10.828  -4.029  -6.933 -0.24 -0.00    -0.021 A 
DOCKED: ATOM     17  C   UNL d   1      -9.526  -4.256  -7.400 -0.32 +0.00    +0.000 A 
DOCKED: ATOM     18  C   UNL d   1      -9.675  -4.686  -8.715 -0.25 +0.02    +0.070 A 
DOCKED: ATOM     19  C   UNL d   1     -11.277  -3.563  -5.566 -0.30 +0.00    +0.052 C 
DOCKED: ATOM     20  C   UNL d   1      -8.719  -5.354 -10.951 -0.25 +0.03    +0.066 A 
DOCKED: ATOM     21  C   UNL d   1      -7.610  -5.616 -11.753 -0.32 -0.01    -0.025 A 
DOCKED: ATOM     22  C   UNL d   1      -8.116  -5.896 -13.009 -0.22 -0.01    -0.021 A 
DOCKED: ATOM     23  C   UNL d   1      -9.519  -5.778 -12.914 -0.13 +0.04    +0.066 A 
DOCKED: ATOM     24  C   UNL d   1      -6.139  -5.582 -11.348 -0.02 +0.03    +0.051 C 
DOCKED: ATOM     25  N   UNL d   1     -12.453  -5.323 -12.745 -0.08 -0.23    -0.248 N 
DOCKED: ATOM     26  N   UNL d   1     -13.628  -4.637 -10.319 -0.03 -0.13    -0.248 N 
DOCKED: ATOM     27  N   UNL d   1     -10.961  -4.683  -9.047 -0.07 -0.09    -0.248 N 
DOCKED: ATOM     28  N   UNL d   1      -9.887  -5.447 -11.670 -0.11 -0.15    -0.248 N 
DOCKED: ATOM     29 FE   UNL d   1     -11.660  -4.985 -10.788 -0.02 +0.00    +0.000 Fe
DOCKED: ENDROOT
DOCKED: BRANCH   6  30
DOCKED: ATOM     30  C   UNL d   1     -12.218  -5.852 -16.476 -0.02 +0.03    +0.052 C 
DOCKED: BRANCH  30  31
DOCKED: ATOM     31  C   UNL d   1     -11.496  -7.192 -16.620 -0.04 +0.07    +0.115 C 
DOCKED: BRANCH  31  32
DOCKED: ATOM     32  C   UNL d   1     -12.384  -8.367 -16.268 -0.06 +0.12    +0.139 C 
DOCKED: ATOM     33  O   UNL d   1     -12.975  -8.374 -15.199 -0.42 -1.29    -0.650 OA
DOCKED: BRANCH  32  34
DOCKED: ATOM     34  O   UNL d   1     -12.584  -9.396 -17.124 +0.01 -0.45    -0.776 OA
DOCKED: ATOM     35  H   UNL d   1     -12.446  -9.344 -18.079 +0.01 +0.07    +0.167 HD
DOCKED: ENDBRANCH  32  34
DOCKED: ENDBRANCH  31  32
DOCKED: ENDBRANCH  30  31
DOCKED: ENDBRANCH   6  30
DOCKED: BRANCH  29  36
DOCKED: ATOM     36  C   UNL d   1     -11.440  -2.976 -11.346 -0.01 +0.08    +0.190 C 
DOCKED: BRANCH  36  37
DOCKED: ATOM     37  O   UNL d   1     -11.029  -2.150 -12.397 +0.00 -0.16    -0.399 OA
DOCKED: ATOM     38  H   UNL d   1     -10.503  -2.746 -13.001 +0.02 +0.10    +0.209 HD
DOCKED: ENDBRANCH  36  37
DOCKED: ENDBRANCH  29  36
DOCKED: BRANCH  22  39
DOCKED: ATOM     39  C   UNL d   1      -7.287  -6.195 -14.244 -0.21 +0.04    +0.052 C 
DOCKED: BRANCH  39  40
DOCKED: ATOM     40  C   UNL d   1      -6.187  -5.136 -14.429 -0.01 +0.13    +0.115 C 
DOCKED: BRANCH  40  41
DOCKED: ATOM     41  C   UNL d   1      -6.699  -3.762 -14.805 -0.11 +0.17    +0.139 C 
DOCKED: ATOM     42  O   UNL d   1      -7.802  -3.655 -15.321 +0.01 -0.51    -0.650 OA
DOCKED: BRANCH  41  43
DOCKED: ATOM     43  O   UNL d   1      -6.007  -2.640 -14.507 -0.46 -1.69    -0.776 OA
DOCKED: ATOM     44  H   UNL d   1      -6.384  -1.756 -14.604 +0.01 +0.25    +0.167 HD
DOCKED: ENDBRANCH  41  43
DOCKED: ENDBRANCH  40  41
DOCKED: ENDBRANCH  39  40
DOCKED: ENDBRANCH  22  39
DOCKED: BRANCH  12  45
DOCKED: ATOM     45  C   UNL d   1     -15.987  -3.899  -7.527 -0.04 +0.00    +0.004 C 
DOCKED: ATOM     46  C   UNL d   1     -15.920  -2.836  -6.729 -0.10 -0.00    +0.012 C 
DOCKED: ENDBRANCH  12  45
DOCKED: BRANCH  17  47
DOCKED: ATOM     47  C   UNL d   1      -8.216  -4.048  -6.714 -0.50 +0.00    +0.004 C 
DOCKED: ATOM     48  C   UNL d   1      -8.081  -3.366  -5.574 -0.53 +0.00    +0.012 C 
DOCKED: ENDBRANCH  17  47
DOCKED: TORSDOF 12
DOCKED: TER
DOCKED: ENDMDL
________________________________________________________________________________


	BEGINNING GENETIC ALGORITHM DOCKING 59 of 100
Run: 59 Seed: 640924590 758574091 [ Run 59 of 100 GA/GALS ]
Beginning LAMARCKIAN GENETIC ALGORITHM (LGA), with a maximum of 25000000 energy evaluations.

Final-Value: -11.133


	FINAL GENETIC ALGORITHM DOCKED STATE
	_______________________________________________


Detailed state:  trans 3.856 0.755 -17.468 quatxyzw -0.877117 0.442412 -0.112468 0.149291 center 8.781 34.984 -0.736 ntor 12 35.8560 121.1382 -54.5145 96.8074 178.1988 156.2050 -137.0240 2.6211 -127.2539 -13.5546 -7.2170 4.4106
State:	  3.856   0.755 -17.468  -0.887  0.447 -0.114 162.828     35.86  121.14  -54.51   96.81  178.20  156.20 -137.02    2.62 -127.25  -13.55   -7.22    4.41

DOCKED: MODEL       59
DOCKED: USER    Run = 59
DOCKED: USER    DPF = D:/Protein_go_brrr/autodock/final/AncB/heme_Co/dock.dpf
DOCKED: USER  
DOCKED: USER    Estimated Free Energy of Binding    =   -6.80 kcal/mol  [=(1)+(2)+(3)-(4)]
DOCKED: USER    Estimated Inhibition Constant, Ki   =   10.34 uM (micromolar)  [Temperature = 298.15 K]
DOCKED: USER    
DOCKED: USER    (1) Final Intermolecular Energy     =  -10.38 kcal/mol
DOCKED: USER        vdW + Hbond + desolv Energy     =   -7.00 kcal/mol
DOCKED: USER        Electrostatic Energy            =   -3.38 kcal/mol
DOCKED: USER    (2) Final Total Internal Energy     =   -0.75 kcal/mol
DOCKED: USER    (3) Torsional Free Energy           =   +3.58 kcal/mol
DOCKED: USER    (4) Unbound System's Energy  [=(2)] =   -0.75 kcal/mol
DOCKED: USER    
DOCKED: USER    
DOCKED: USER    NEWDPF move heme_Co_opt.pdbqt
DOCKED: USER    NEWDPF about 8.781000 34.984000 -0.736000
DOCKED: USER    NEWDPF tran0 3.855667 0.755108 -17.468071
DOCKED: USER    NEWDPF quaternion0 -0.877117 0.442412 -0.112468 0.149291
DOCKED: USER    NEWDPF axisangle0 -0.887058 0.447427 -0.113743 162.828262
DOCKED: USER    NEWDPF quat0 -0.887058 0.447427 -0.113743 162.828262
DOCKED: USER    NEWDPF dihe0 35.86 121.14 -54.51 96.81 178.20 156.20 -137.02 2.62 -127.25 -13.55 -7.22 4.41 
DOCKED: USER  keepresnum = 1 
DOCKED: USER  
DOCKED: REMARK  12 active torsions:
DOCKED: REMARK  status: ('A' for Active; 'I' for Inactive)
DOCKED: REMARK    1  A    between atoms: C_6  and  C_10 
DOCKED: REMARK    2  A    between atoms: C_10  and  C_11 
DOCKED: REMARK    3  A    between atoms: C_11  and  C_12 
DOCKED: REMARK    4  A    between atoms: C_12  and  O_14 
DOCKED: REMARK    5  A    between atoms: C_17  and  C_20 
DOCKED: REMARK    6  A    between atoms: C_24  and  C_27 
DOCKED: REMARK    7  A    between atoms: C_31  and  C_34 
DOCKED: REMARK    8  A    between atoms: C_34  and  C_35 
DOCKED: REMARK    9  A    between atoms: C_35  and  C_36 
DOCKED: REMARK   10  A    between atoms: C_36  and  O_38 
DOCKED: REMARK   11  A    between atoms: FE_43  and  C_44 
DOCKED: REMARK   12  A    between atoms: C_44  and  O_45 
DOCKED: USER                              x       y       z     vdW  Elec       q    Type
DOCKED: USER                           _______ _______ _______ _____ _____    ______ ____
DOCKED: ROOT
DOCKED: ATOM      1  C   UNL d   1       2.268   2.218 -17.234 -0.10 +0.03    +0.064 A 
DOCKED: ATOM      2  C   UNL d   1       5.399   1.433 -20.725 -0.06 +0.03    +0.064 C 
DOCKED: ATOM      3  C   UNL d   1       7.541  -1.934 -18.098 -0.10 +0.01    +0.064 A 
DOCKED: ATOM      4  C   UNL d   1       4.122  -1.421 -14.676 -0.22 +0.01    +0.064 A 
DOCKED: ATOM      5  C   UNL d   1       2.988   2.276 -18.366 -0.09 +0.03    +0.066 A 
DOCKED: ATOM      6  C   UNL d   1       2.626   3.112 -19.440 -0.07 -0.01    -0.021 A 
DOCKED: ATOM      7  C   UNL d   1       3.525   2.864 -20.459 -0.07 -0.01    -0.025 A 
DOCKED: ATOM      8  C   UNL d   1       4.406   1.899 -19.958 +0.00 +0.03    +0.066 A 
DOCKED: ATOM      9  C   UNL d   1       3.565   3.501 -21.856 -0.03 +0.02    +0.051 C 
DOCKED: ATOM     10  C   UNL d   1       6.369   0.461 -20.287 -0.07 +0.02    +0.066 A 
DOCKED: ATOM     11  C   UNL d   1       7.516   0.036 -20.993 -0.07 -0.01    -0.021 A 
DOCKED: ATOM     12  C   UNL d   1       8.124  -0.943 -20.202 -0.08 +0.00    +0.000 A 
DOCKED: ATOM     13  C   UNL d   1       7.313  -1.034 -19.070 -0.10 +0.02    +0.070 A 
DOCKED: ATOM     14  C   UNL d   1       8.029   0.608 -22.289 -0.04 +0.01    +0.052 C 
DOCKED: ATOM     15  C   UNL d   1       6.781  -2.199 -16.893 -0.16 +0.01    +0.066 A 
DOCKED: ATOM     16  C   UNL d   1       6.988  -3.242 -16.001 -0.23 -0.00    -0.021 A 
DOCKED: ATOM     17  C   UNL d   1       6.003  -3.100 -15.013 -0.30 +0.00    +0.000 A 
DOCKED: ATOM     18  C   UNL d   1       5.280  -1.967 -15.373 -0.14 +0.01    +0.070 A 
DOCKED: ATOM     19  C   UNL d   1       8.070  -4.293 -16.117 -0.21 +0.01    +0.052 C 
DOCKED: ATOM     20  C   UNL d   1       3.351  -0.373 -15.053 -0.19 +0.02    +0.066 A 
DOCKED: ATOM     21  C   UNL d   1       2.241   0.035 -14.318 -0.21 -0.01    -0.025 A 
DOCKED: ATOM     22  C   UNL d   1       1.703   1.101 -15.016 -0.16 -0.01    -0.021 A 
DOCKED: ATOM     23  C   UNL d   1       2.511   1.284 -16.158 -0.13 +0.03    +0.066 A 
DOCKED: ATOM     24  C   UNL d   1       1.705  -0.572 -13.024 -0.30 +0.03    +0.051 C 
DOCKED: ATOM     25  N   UNL d   1       4.101   1.521 -18.661 +0.02 -0.14    -0.248 N 
DOCKED: ATOM     26  N   UNL d   1       6.285  -0.144 -19.097 -0.08 -0.09    -0.248 N 
DOCKED: ATOM     27  N   UNL d   1       5.752  -1.474 -16.513 -0.10 -0.04    -0.248 N 
DOCKED: ATOM     28  N   UNL d   1       3.509   0.392 -16.186 -0.09 -0.10    -0.248 N 
DOCKED: ATOM     29 FE   UNL d   1       4.973  -0.065 -17.521 -0.04 +0.00    +0.000 Fe
DOCKED: ENDROOT
DOCKED: BRANCH   6  30
DOCKED: ATOM     30  C   UNL d   1       1.420   4.043 -19.501 -0.04 +0.03    +0.052 C 
DOCKED: BRANCH  30  31
DOCKED: ATOM     31  C   UNL d   1       1.676   5.310 -18.686 -0.09 +0.07    +0.115 C 
DOCKED: BRANCH  31  32
DOCKED: ATOM     32  C   UNL d   1       2.992   5.969 -19.042 -0.17 +0.14    +0.139 C 
DOCKED: ATOM     33  O   UNL d   1       3.012   6.854 -19.884 -0.02 -0.79    -0.650 OA
DOCKED: BRANCH  32  34
DOCKED: ATOM     34  O   UNL d   1       4.149   5.643 -18.421 -0.24 -0.92    -0.776 OA
DOCKED: ATOM     35  H   UNL d   1       4.351   4.763 -18.075 -0.35 +0.10    +0.167 HD
DOCKED: ENDBRANCH  32  34
DOCKED: ENDBRANCH  31  32
DOCKED: ENDBRANCH  30  31
DOCKED: ENDBRANCH   6  30
DOCKED: BRANCH  29  36
DOCKED: ATOM     36  C   UNL d   1       3.675  -1.359 -18.538 -0.03 +0.06    +0.190 C 
DOCKED: BRANCH  36  37
DOCKED: ATOM     37  O   UNL d   1       2.682  -1.394 -19.522 +0.00 -0.13    -0.399 OA
DOCKED: ATOM     38  H   UNL d   1       2.679  -0.477 -19.916 +0.01 +0.07    +0.209 HD
DOCKED: ENDBRANCH  36  37
DOCKED: ENDBRANCH  29  36
DOCKED: BRANCH  22  39
DOCKED: ATOM     39  C   UNL d   1       0.443   1.856 -14.636 -0.19 +0.04    +0.052 C 
DOCKED: BRANCH  39  40
DOCKED: ATOM     40  C   UNL d   1       0.792   3.238 -14.058 -0.15 +0.10    +0.115 C 
DOCKED: BRANCH  40  41
DOCKED: ATOM     41  C   UNL d   1      -0.353   4.229 -14.074 -0.23 +0.20    +0.139 C 
DOCKED: ATOM     42  O   UNL d   1      -0.506   4.982 -13.122 -0.83 -0.95    -0.650 OA
DOCKED: BRANCH  41  43
DOCKED: ATOM     43  O   UNL d   1      -1.159   4.365 -15.150 -0.13 -1.52    -0.776 OA
DOCKED: ATOM     44  H   UNL d   1      -0.816   4.458 -16.048 +0.04 +0.21    +0.167 HD
DOCKED: ENDBRANCH  41  43
DOCKED: ENDBRANCH  40  41
DOCKED: ENDBRANCH  39  40
DOCKED: ENDBRANCH  22  39
DOCKED: BRANCH  12  45
DOCKED: ATOM     45  C   UNL d   1       9.381  -1.785 -20.376 -0.06 +0.00    +0.004 C 
DOCKED: ATOM     46  C   UNL d   1      10.643  -1.538 -20.036 -0.07 +0.00    +0.012 C 
DOCKED: ENDBRANCH  12  45
DOCKED: BRANCH  17  47
DOCKED: ATOM     47  C   UNL d   1       5.699  -3.968 -13.837 -0.54 +0.00    +0.004 C 
DOCKED: ATOM     48  C   UNL d   1       5.066  -3.534 -12.744 -0.49 +0.00    +0.012 C 
DOCKED: ENDBRANCH  17  47
DOCKED: TORSDOF 12
DOCKED: TER
DOCKED: ENDMDL
________________________________________________________________________________


	BEGINNING GENETIC ALGORITHM DOCKING 60 of 100
Run: 60 Seed: 466352558 1586862741 [ Run 60 of 100 GA/GALS ]
Beginning LAMARCKIAN GENETIC ALGORITHM (LGA), with a maximum of 25000000 energy evaluations.

Final-Value: -12.847


	FINAL GENETIC ALGORITHM DOCKED STATE
	_______________________________________________


Detailed state:  trans -7.478 -1.565 -12.461 quatxyzw -0.010406 0.618282 -0.483520 0.619538 center 8.781 34.984 -0.736 ntor 12 -28.3530 103.9100 89.0664 60.8455 86.1014 120.4692 -9.6819 116.2763 -57.8166 -140.3721 19.1043 -39.2713
State:	 -7.478  -1.565 -12.461  -0.013  0.788 -0.616 103.435    -28.35  103.91   89.07   60.85   86.10  120.47   -9.68  116.28  -57.82 -140.37   19.10  -39.27

DOCKED: MODEL       60
DOCKED: USER    Run = 60
DOCKED: USER    DPF = D:/Protein_go_brrr/autodock/final/AncB/heme_Co/dock.dpf
DOCKED: USER  
DOCKED: USER    Estimated Free Energy of Binding    =   -8.45 kcal/mol  [=(1)+(2)+(3)-(4)]
DOCKED: USER    Estimated Inhibition Constant, Ki   =  639.64 nM (nanomolar)  [Temperature = 298.15 K]
DOCKED: USER    
DOCKED: USER    (1) Final Intermolecular Energy     =  -12.03 kcal/mol
DOCKED: USER        vdW + Hbond + desolv Energy     =   -7.86 kcal/mol
DOCKED: USER        Electrostatic Energy            =   -4.17 kcal/mol
DOCKED: USER    (2) Final Total Internal Energy     =   -0.82 kcal/mol
DOCKED: USER    (3) Torsional Free Energy           =   +3.58 kcal/mol
DOCKED: USER    (4) Unbound System's Energy  [=(2)] =   -0.82 kcal/mol
DOCKED: USER    
DOCKED: USER    
DOCKED: USER    NEWDPF move heme_Co_opt.pdbqt
DOCKED: USER    NEWDPF about 8.781000 34.984000 -0.736000
DOCKED: USER    NEWDPF tran0 -7.477798 -1.564504 -12.461149
DOCKED: USER    NEWDPF quaternion0 -0.010406 0.618282 -0.483520 0.619538
DOCKED: USER    NEWDPF axisangle0 -0.013257 0.787654 -0.615975 103.435196
DOCKED: USER    NEWDPF quat0 -0.013257 0.787654 -0.615975 103.435196
DOCKED: USER    NEWDPF dihe0 -28.35 103.91 89.07 60.85 86.10 120.47 -9.68 116.28 -57.82 -140.37 19.10 -39.27 
DOCKED: USER  keepresnum = 1 
DOCKED: USER  
DOCKED: REMARK  12 active torsions:
DOCKED: REMARK  status: ('A' for Active; 'I' for Inactive)
DOCKED: REMARK    1  A    between atoms: C_6  and  C_10 
DOCKED: REMARK    2  A    between atoms: C_10  and  C_11 
DOCKED: REMARK    3  A    between atoms: C_11  and  C_12 
DOCKED: REMARK    4  A    between atoms: C_12  and  O_14 
DOCKED: REMARK    5  A    between atoms: C_17  and  C_20 
DOCKED: REMARK    6  A    between atoms: C_24  and  C_27 
DOCKED: REMARK    7  A    between atoms: C_31  and  C_34 
DOCKED: REMARK    8  A    between atoms: C_34  and  C_35 
DOCKED: REMARK    9  A    between atoms: C_35  and  C_36 
DOCKED: REMARK   10  A    between atoms: C_36  and  O_38 
DOCKED: REMARK   11  A    between atoms: FE_43  and  C_44 
DOCKED: REMARK   12  A    between atoms: C_44  and  O_45 
DOCKED: USER                              x       y       z     vdW  Elec       q    Type
DOCKED: USER                           _______ _______ _______ _____ _____    ______ ____
DOCKED: ROOT
DOCKED: ATOM      1  C   UNL d   1      -6.691  -1.914 -14.455 -0.06 +0.08    +0.064 A 
DOCKED: ATOM      2  C   UNL d   1      -8.180  -4.873 -11.043 -0.29 +0.03    +0.064 C 
DOCKED: ATOM      3  C   UNL d   1      -8.791  -1.189  -8.062 -0.17 +0.02    +0.064 A 
DOCKED: ATOM      4  C   UNL d   1      -7.643   1.888 -11.651 -0.08 +0.04    +0.064 A 
DOCKED: ATOM      5  C   UNL d   1      -7.018  -2.997 -13.730 -0.10 +0.07    +0.066 A 
DOCKED: ATOM      6  C   UNL d   1      -7.036  -4.291 -14.286 -0.14 -0.02    -0.021 A 
DOCKED: ATOM      7  C   UNL d   1      -7.490  -5.142 -13.298 -0.20 -0.02    -0.025 A 
DOCKED: ATOM      8  C   UNL d   1      -7.715  -4.335 -12.178 -0.18 +0.04    +0.066 A 
DOCKED: ATOM      9  C   UNL d   1      -7.711  -6.660 -13.390 -0.28 +0.03    +0.051 C 
DOCKED: ATOM     10  C   UNL d   1      -8.416  -4.126  -9.833 -0.23 +0.03    +0.066 A 
DOCKED: ATOM     11  C   UNL d   1      -8.768  -4.653  -8.571 -0.36 -0.01    -0.021 A 
DOCKED: ATOM     12  C   UNL d   1      -8.936  -3.558  -7.720 -0.31 +0.00    +0.000 A 
DOCKED: ATOM     13  C   UNL d   1      -8.662  -2.447  -8.519 -0.18 +0.02    +0.070 A 
DOCKED: ATOM     14  C   UNL d   1      -8.839  -6.113  -8.202 -0.51 +0.02    +0.052 C 
DOCKED: ATOM     15  C   UNL d   1      -8.601   0.067  -8.761 -0.13 +0.02    +0.066 A 
DOCKED: ATOM     16  C   UNL d   1      -8.891   1.333  -8.272 -0.21 -0.00    -0.021 A 
DOCKED: ATOM     17  C   UNL d   1      -8.564   2.224  -9.304 -0.16 +0.00    +0.000 A 
DOCKED: ATOM     18  C   UNL d   1      -8.083   1.429 -10.339 -0.08 +0.03    +0.070 A 
DOCKED: ATOM     19  C   UNL d   1      -9.447   1.636  -6.898 -0.19 +0.01    +0.052 C 
DOCKED: ATOM     20  C   UNL d   1      -7.254   1.128 -12.703 -0.05 +0.05    +0.066 A 
DOCKED: ATOM     21  C   UNL d   1      -6.888   1.684 -13.927 -0.07 -0.02    -0.025 A 
DOCKED: ATOM     22  C   UNL d   1      -6.580   0.613 -14.746 -0.04 -0.02    -0.021 A 
DOCKED: ATOM     23  C   UNL d   1      -6.787  -0.553 -13.978 -0.05 +0.07    +0.066 A 
DOCKED: ATOM     24  C   UNL d   1      -6.852   3.162 -14.305 -0.08 +0.05    +0.051 C 
DOCKED: ATOM     25  N   UNL d   1      -7.425  -3.002 -12.415 -0.08 -0.20    -0.248 N 
DOCKED: ATOM     26  N   UNL d   1      -8.293  -2.795  -9.781 -0.09 -0.11    -0.248 N 
DOCKED: ATOM     27  N   UNL d   1      -8.148   0.148  -9.992 -0.03 -0.10    -0.248 N 
DOCKED: ATOM     28  N   UNL d   1      -7.197  -0.246 -12.742 -0.02 -0.19    -0.248 N 
DOCKED: ATOM     29 FE   UNL d   1      -7.806  -1.331 -11.134 -0.02 +0.00    +0.000 Fe
DOCKED: ENDROOT
DOCKED: BRANCH   6  30
DOCKED: ATOM     30  C   UNL d   1      -6.707  -4.666 -15.727 -0.13 +0.05    +0.052 C 
DOCKED: BRANCH  30  31
DOCKED: ATOM     31  C   UNL d   1      -5.313  -5.287 -15.816 -0.12 +0.15    +0.115 C 
DOCKED: BRANCH  31  32
DOCKED: ATOM     32  C   UNL d   1      -5.342  -6.695 -16.369 -0.10 +0.21    +0.139 C 
DOCKED: ATOM     33  O   UNL d   1      -4.623  -7.550 -15.874 -0.38 -1.06    -0.650 OA
DOCKED: BRANCH  32  34
DOCKED: ATOM     34  O   UNL d   1      -6.179  -7.056 -17.370 -0.24 -1.33    -0.776 OA
DOCKED: ATOM     35  H   UNL d   1      -7.060  -6.680 -17.504 +0.02 +0.17    +0.167 HD
DOCKED: ENDBRANCH  32  34
DOCKED: ENDBRANCH  31  32
DOCKED: ENDBRANCH  30  31
DOCKED: ENDBRANCH   6  30
DOCKED: BRANCH  29  36
DOCKED: ATOM     36  C   UNL d   1      -9.770  -1.360 -11.869 -0.01 +0.08    +0.190 C 
DOCKED: BRANCH  36  37
DOCKED: ATOM     37  O   UNL d   1     -10.527  -1.623 -13.015 +0.00 -0.16    -0.399 OA
DOCKED: ATOM     38  H   UNL d   1      -9.856  -1.738 -13.745 +0.01 +0.10    +0.209 HD
DOCKED: ENDBRANCH  36  37
DOCKED: ENDBRANCH  29  36
DOCKED: BRANCH  22  39
DOCKED: ATOM     39  C   UNL d   1      -6.174   0.709 -16.204 -0.02 +0.04    +0.052 C 
DOCKED: BRANCH  39  40
DOCKED: ATOM     40  C   UNL d   1      -4.861   1.496 -16.351 -0.05 +0.12    +0.115 C 
DOCKED: BRANCH  40  41
DOCKED: ATOM     41  C   UNL d   1      -3.885   1.302 -15.210 -0.09 +0.22    +0.139 C 
DOCKED: ATOM     42  O   UNL d   1      -3.736   2.199 -14.392 -0.48 -1.53    -0.650 OA
DOCKED: BRANCH  41  43
DOCKED: ATOM     43  O   UNL d   1      -3.239   0.130 -15.019 -0.27 -1.45    -0.776 OA
DOCKED: ATOM     44  H   UNL d   1      -2.349  -0.033 -15.357 +0.02 +0.29    +0.167 HD
DOCKED: ENDBRANCH  41  43
DOCKED: ENDBRANCH  40  41
DOCKED: ENDBRANCH  39  40
DOCKED: ENDBRANCH  22  39
DOCKED: BRANCH  12  45
DOCKED: ATOM     45  C   UNL d   1      -9.303  -3.433  -6.247 -0.48 +0.00    +0.004 C 
DOCKED: ATOM     46  C   UNL d   1      -8.774  -4.011  -5.171 -0.61 +0.00    +0.012 C 
DOCKED: ENDBRANCH  12  45
DOCKED: BRANCH  17  47
DOCKED: ATOM     47  C   UNL d   1      -8.725   3.707  -9.371 -0.19 +0.00    +0.004 C 
DOCKED: ATOM     48  C   UNL d   1      -8.072   4.556  -8.574 -0.34 +0.00    +0.012 C 
DOCKED: ENDBRANCH  17  47
DOCKED: TORSDOF 12
DOCKED: TER
DOCKED: ENDMDL
________________________________________________________________________________


	BEGINNING GENETIC ALGORITHM DOCKING 61 of 100
Run: 61 Seed: 1729789488 1132135283 [ Run 61 of 100 GA/GALS ]
Beginning LAMARCKIAN GENETIC ALGORITHM (LGA), with a maximum of 25000000 energy evaluations.

Final-Value: -12.580


	FINAL GENETIC ALGORITHM DOCKED STATE
	_______________________________________________


Detailed state:  trans -7.590 -1.856 -11.973 quatxyzw 0.031305 -0.631807 0.487966 -0.601439 center 8.781 34.984 -0.736 ntor 12 -46.3725 104.1694 102.4250 131.8124 112.3210 73.6115 12.7703 -155.3678 -44.2261 109.2543 30.9588 25.0131
State:	 -7.590  -1.856 -11.973   0.039 -0.791  0.611 -106.054    -46.37  104.17  102.42  131.81  112.32   73.61   12.77 -155.37  -44.23  109.25   30.96   25.01

DOCKED: MODEL       61
DOCKED: USER    Run = 61
DOCKED: USER    DPF = D:/Protein_go_brrr/autodock/final/AncB/heme_Co/dock.dpf
DOCKED: USER  
DOCKED: USER    Estimated Free Energy of Binding    =   -8.16 kcal/mol  [=(1)+(2)+(3)-(4)]
DOCKED: USER    Estimated Inhibition Constant, Ki   =    1.04 uM (micromolar)  [Temperature = 298.15 K]
DOCKED: USER    
DOCKED: USER    (1) Final Intermolecular Energy     =  -11.74 kcal/mol
DOCKED: USER        vdW + Hbond + desolv Energy     =   -7.93 kcal/mol
DOCKED: USER        Electrostatic Energy            =   -3.81 kcal/mol
DOCKED: USER    (2) Final Total Internal Energy     =   -0.84 kcal/mol
DOCKED: USER    (3) Torsional Free Energy           =   +3.58 kcal/mol
DOCKED: USER    (4) Unbound System's Energy  [=(2)] =   -0.84 kcal/mol
DOCKED: USER    
DOCKED: USER    
DOCKED: USER    NEWDPF move heme_Co_opt.pdbqt
DOCKED: USER    NEWDPF about 8.781000 34.984000 -0.736000
DOCKED: USER    NEWDPF tran0 -7.590384 -1.855616 -11.972672
DOCKED: USER    NEWDPF quaternion0 0.031305 -0.631807 0.487966 -0.601439
DOCKED: USER    NEWDPF axisangle0 0.039185 -0.790828 0.610783 -106.053961
DOCKED: USER    NEWDPF quat0 0.039185 -0.790828 0.610783 -106.053961
DOCKED: USER    NEWDPF dihe0 -46.37 104.17 102.42 131.81 112.32 73.61 12.77 -155.37 -44.23 109.25 30.96 25.01 
DOCKED: USER  keepresnum = 1 
DOCKED: USER  
DOCKED: REMARK  12 active torsions:
DOCKED: REMARK  status: ('A' for Active; 'I' for Inactive)
DOCKED: REMARK    1  A    between atoms: C_6  and  C_10 
DOCKED: REMARK    2  A    between atoms: C_10  and  C_11 
DOCKED: REMARK    3  A    between atoms: C_11  and  C_12 
DOCKED: REMARK    4  A    between atoms: C_12  and  O_14 
DOCKED: REMARK    5  A    between atoms: C_17  and  C_20 
DOCKED: REMARK    6  A    between atoms: C_24  and  C_27 
DOCKED: REMARK    7  A    between atoms: C_31  and  C_34 
DOCKED: REMARK    8  A    between atoms: C_34  and  C_35 
DOCKED: REMARK    9  A    between atoms: C_35  and  C_36 
DOCKED: REMARK   10  A    between atoms: C_36  and  O_38 
DOCKED: REMARK   11  A    between atoms: FE_43  and  C_44 
DOCKED: REMARK   12  A    between atoms: C_44  and  O_45 
DOCKED: USER                              x       y       z     vdW  Elec       q    Type
DOCKED: USER                           _______ _______ _______ _____ _____    ______ ____
DOCKED: ROOT
DOCKED: ATOM      1  C   UNL d   1      -6.752  -2.098 -13.961 -0.08 +0.08    +0.064 A 
DOCKED: ATOM      2  C   UNL d   1      -8.155  -5.241 -10.680 -0.35 +0.03    +0.064 C 
DOCKED: ATOM      3  C   UNL d   1      -9.000  -1.695  -7.591 -0.20 +0.02    +0.064 A 
DOCKED: ATOM      4  C   UNL d   1      -7.939   1.555 -11.052 -0.07 +0.03    +0.064 A 
DOCKED: ATOM      5  C   UNL d   1      -7.039  -3.220 -13.279 -0.13 +0.07    +0.066 A 
DOCKED: ATOM      6  C   UNL d   1      -6.983  -4.493 -13.878 -0.16 -0.02    -0.021 A 
DOCKED: ATOM      7  C   UNL d   1      -7.413  -5.399 -12.928 -0.25 -0.02    -0.025 A 
DOCKED: ATOM      8  C   UNL d   1      -7.697  -4.642 -11.787 -0.23 +0.04    +0.066 A 
DOCKED: ATOM      9  C   UNL d   1      -7.557  -6.922 -13.075 -0.30 +0.03    +0.051 C 
DOCKED: ATOM     10  C   UNL d   1      -8.450  -4.548  -9.450 -0.28 +0.03    +0.066 A 
DOCKED: ATOM     11  C   UNL d   1      -8.799  -5.135  -8.214 -0.43 -0.01    -0.021 A 
DOCKED: ATOM     12  C   UNL d   1      -9.035  -4.078  -7.330 -0.37 +0.00    +0.000 A 
DOCKED: ATOM     13  C   UNL d   1      -8.802  -2.929  -8.087 -0.22 +0.02    +0.070 A 
DOCKED: ATOM     14  C   UNL d   1      -8.805  -6.608  -7.896 -0.29 +0.02    +0.052 C 
DOCKED: ATOM     15  C   UNL d   1      -8.859  -0.408  -8.243 -0.16 +0.02    +0.066 A 
DOCKED: ATOM     16  C   UNL d   1      -9.219   0.825  -7.718 -0.24 -0.00    -0.021 A 
DOCKED: ATOM     17  C   UNL d   1      -8.918   1.765  -8.713 -0.18 +0.00    +0.000 A 
DOCKED: ATOM     18  C   UNL d   1      -8.379   1.031  -9.765 -0.09 +0.02    +0.070 A 
DOCKED: ATOM     19  C   UNL d   1      -9.814   1.054  -6.346 +0.23 +0.00    +0.052 C 
DOCKED: ATOM     20  C   UNL d   1      -7.494   0.851 -12.120 -0.05 +0.04    +0.066 A 
DOCKED: ATOM     21  C   UNL d   1      -7.133   1.466 -13.317 -0.06 -0.02    -0.025 A 
DOCKED: ATOM     22  C   UNL d   1      -6.759   0.440 -14.165 -0.05 -0.02    -0.021 A 
DOCKED: ATOM     23  C   UNL d   1      -6.922  -0.761 -13.441 -0.06 +0.06    +0.066 A 
DOCKED: ATOM     24  C   UNL d   1      -7.163   2.956 -13.645 -0.09 +0.05    +0.051 C 
DOCKED: ATOM     25  N   UNL d   1      -7.469  -3.289 -11.974 -0.09 -0.18    -0.248 N 
DOCKED: ATOM     26  N   UNL d   1      -8.393  -3.216  -9.352 -0.11 -0.10    -0.248 N 
DOCKED: ATOM     27  N   UNL d   1      -8.388  -0.263  -9.462 -0.05 -0.09    -0.248 N 
DOCKED: ATOM     28  N   UNL d   1      -7.369  -0.516 -12.204 -0.02 -0.18    -0.248 N 
DOCKED: ATOM     29 FE   UNL d   1      -7.954  -1.684 -10.645 -0.02 +0.00    +0.000 Fe
DOCKED: ENDROOT
DOCKED: BRANCH   6  30
DOCKED: ATOM     30  C   UNL d   1      -6.610  -4.803 -15.324 -0.15 +0.05    +0.052 C 
DOCKED: BRANCH  30  31
DOCKED: ATOM     31  C   UNL d   1      -5.317  -5.616 -15.383 +0.04 +0.15    +0.115 C 
DOCKED: BRANCH  31  32
DOCKED: ATOM     32  C   UNL d   1      -5.418  -6.793 -16.329 -0.10 +0.21    +0.139 C 
DOCKED: ATOM     33  O   UNL d   1      -5.316  -7.928 -15.888 -0.51 -1.01    -0.650 OA
DOCKED: BRANCH  32  34
DOCKED: ATOM     34  O   UNL d   1      -5.667  -6.634 -17.649 -0.14 -1.38    -0.776 OA
DOCKED: ATOM     35  H   UNL d   1      -6.392  -6.102 -18.006 +0.02 +0.19    +0.167 HD
DOCKED: ENDBRANCH  32  34
DOCKED: ENDBRANCH  31  32
DOCKED: ENDBRANCH  30  31
DOCKED: ENDBRANCH   6  30
DOCKED: BRANCH  29  36
DOCKED: ATOM     36  C   UNL d   1      -9.900  -1.782 -11.419 -0.01 +0.08    +0.190 C 
DOCKED: BRANCH  36  37
DOCKED: ATOM     37  O   UNL d   1     -10.691  -1.379 -12.500 +0.00 -0.15    -0.399 OA
DOCKED: ATOM     38  H   UNL d   1     -10.119  -0.743 -13.014 +0.00 +0.09    +0.209 HD
DOCKED: ENDBRANCH  36  37
DOCKED: ENDBRANCH  29  36
DOCKED: BRANCH  22  39
DOCKED: ATOM     39  C   UNL d   1      -6.331   0.605 -15.611 -0.03 +0.05    +0.052 C 
DOCKED: BRANCH  39  40
DOCKED: ATOM     40  C   UNL d   1      -4.968  -0.062 -15.854 -0.05 +0.15    +0.115 C 
DOCKED: BRANCH  40  41
DOCKED: ATOM     41  C   UNL d   1      -3.785   0.722 -15.326 -0.09 +0.21    +0.139 C 
DOCKED: ATOM     42  O   UNL d   1      -3.925   1.907 -15.057 -0.46 -1.23    -0.650 OA
DOCKED: BRANCH  41  43
DOCKED: ATOM     43  O   UNL d   1      -2.600   0.129 -15.061 -0.40 -1.36    -0.776 OA
DOCKED: ATOM     44  H   UNL d   1      -1.815   0.270 -15.605 +0.03 +0.22    +0.167 HD
DOCKED: ENDBRANCH  41  43
DOCKED: ENDBRANCH  40  41
DOCKED: ENDBRANCH  39  40
DOCKED: ENDBRANCH  22  39
DOCKED: BRANCH  12  45
DOCKED: ATOM     45  C   UNL d   1      -9.435  -4.022  -5.862 -0.52 +0.00    +0.004 C 
DOCKED: ATOM     46  C   UNL d   1      -8.840  -3.440  -4.824 -0.64 +0.00    +0.012 C 
DOCKED: ENDBRANCH  12  45
DOCKED: BRANCH  17  47
DOCKED: ATOM     47  C   UNL d   1      -9.150   3.240  -8.734 -0.20 +0.00    +0.004 C 
DOCKED: ATOM     48  C   UNL d   1      -8.256   4.133  -8.302 -0.35 +0.00    +0.012 C 
DOCKED: ENDBRANCH  17  47
DOCKED: TORSDOF 12
DOCKED: TER
DOCKED: ENDMDL
________________________________________________________________________________


	BEGINNING GENETIC ALGORITHM DOCKING 62 of 100
Run: 62 Seed: 2109942040 1727581648 [ Run 62 of 100 GA/GALS ]
Beginning LAMARCKIAN GENETIC ALGORITHM (LGA), with a maximum of 25000000 energy evaluations.

Final-Value: -12.900


	FINAL GENETIC ALGORITHM DOCKED STATE
	_______________________________________________


Detailed state:  trans -7.618 -1.895 -11.726 quatxyzw -0.029493 0.635889 -0.508023 0.580248 center 8.781 34.984 -0.736 ntor 12 1.2506 94.6460 78.0276 134.0459 115.6166 81.4263 178.5189 83.9396 41.1852 -100.3143 132.2297 -52.3426
State:	 -7.618  -1.895 -11.726  -0.036  0.781 -0.624 109.064      1.25   94.65   78.03  134.05  115.62   81.43  178.52   83.94   41.19 -100.31  132.23  -52.34

DOCKED: MODEL       62
DOCKED: USER    Run = 62
DOCKED: USER    DPF = D:/Protein_go_brrr/autodock/final/AncB/heme_Co/dock.dpf
DOCKED: USER  
DOCKED: USER    Estimated Free Energy of Binding    =   -8.81 kcal/mol  [=(1)+(2)+(3)-(4)]
DOCKED: USER    Estimated Inhibition Constant, Ki   =  349.28 nM (nanomolar)  [Temperature = 298.15 K]
DOCKED: USER    
DOCKED: USER    (1) Final Intermolecular Energy     =  -12.39 kcal/mol
DOCKED: USER        vdW + Hbond + desolv Energy     =   -8.47 kcal/mol
DOCKED: USER        Electrostatic Energy            =   -3.91 kcal/mol
DOCKED: USER    (2) Final Total Internal Energy     =   -0.51 kcal/mol
DOCKED: USER    (3) Torsional Free Energy           =   +3.58 kcal/mol
DOCKED: USER    (4) Unbound System's Energy  [=(2)] =   -0.51 kcal/mol
DOCKED: USER    
DOCKED: USER    
DOCKED: USER    NEWDPF move heme_Co_opt.pdbqt
DOCKED: USER    NEWDPF about 8.781000 34.984000 -0.736000
DOCKED: USER    NEWDPF tran0 -7.617591 -1.894593 -11.726277
DOCKED: USER    NEWDPF quaternion0 -0.029493 0.635889 -0.508023 0.580248
DOCKED: USER    NEWDPF axisangle0 -0.036212 0.780768 -0.623770 109.064063
DOCKED: USER    NEWDPF quat0 -0.036212 0.780768 -0.623770 109.064063
DOCKED: USER    NEWDPF dihe0 1.25 94.65 78.03 134.05 115.62 81.43 178.52 83.94 41.19 -100.31 132.23 -52.34 
DOCKED: USER  keepresnum = 1 
DOCKED: USER  
DOCKED: REMARK  12 active torsions:
DOCKED: REMARK  status: ('A' for Active; 'I' for Inactive)
DOCKED: REMARK    1  A    between atoms: C_6  and  C_10 
DOCKED: REMARK    2  A    between atoms: C_10  and  C_11 
DOCKED: REMARK    3  A    between atoms: C_11  and  C_12 
DOCKED: REMARK    4  A    between atoms: C_12  and  O_14 
DOCKED: REMARK    5  A    between atoms: C_17  and  C_20 
DOCKED: REMARK    6  A    between atoms: C_24  and  C_27 
DOCKED: REMARK    7  A    between atoms: C_31  and  C_34 
DOCKED: REMARK    8  A    between atoms: C_34  and  C_35 
DOCKED: REMARK    9  A    between atoms: C_35  and  C_36 
DOCKED: REMARK   10  A    between atoms: C_36  and  O_38 
DOCKED: REMARK   11  A    between atoms: FE_43  and  C_44 
DOCKED: REMARK   12  A    between atoms: C_44  and  O_45 
DOCKED: USER                              x       y       z     vdW  Elec       q    Type
DOCKED: USER                           _______ _______ _______ _____ _____    ______ ____
DOCKED: ROOT
DOCKED: ATOM      1  C   UNL d   1      -6.700  -2.144 -13.679 -0.09 +0.08    +0.064 A 
DOCKED: ATOM      2  C   UNL d   1      -8.085  -5.272 -10.376 -0.37 +0.03    +0.064 C 
DOCKED: ATOM      3  C   UNL d   1      -9.186  -1.700  -7.400 -0.21 +0.01    +0.064 A 
DOCKED: ATOM      4  C   UNL d   1      -8.141   1.517 -10.896 -0.06 +0.03    +0.064 A 
DOCKED: ATOM      5  C   UNL d   1      -6.964  -3.262 -12.982 -0.14 +0.07    +0.066 A 
DOCKED: ATOM      6  C   UNL d   1      -6.833  -4.544 -13.549 -0.18 -0.02    -0.021 A 
DOCKED: ATOM      7  C   UNL d   1      -7.258  -5.447 -12.594 -0.29 -0.02    -0.025 A 
DOCKED: ATOM      8  C   UNL d   1      -7.614  -4.678 -11.480 -0.26 +0.04    +0.066 A 
DOCKED: ATOM      9  C   UNL d   1      -7.334  -6.977 -12.711 -0.17 +0.02    +0.051 C 
DOCKED: ATOM     10  C   UNL d   1      -8.451  -4.567  -9.174 -0.29 +0.03    +0.066 A 
DOCKED: ATOM     11  C   UNL d   1      -8.819  -5.141  -7.937 -0.44 -0.01    -0.021 A 
DOCKED: ATOM     12  C   UNL d   1      -9.131  -4.076  -7.087 -0.38 +0.00    +0.000 A 
DOCKED: ATOM     13  C   UNL d   1      -8.919  -2.935  -7.860 -0.22 +0.02    +0.070 A 
DOCKED: ATOM     14  C   UNL d   1      -8.775  -6.605  -7.586 -0.42 +0.02    +0.052 C 
DOCKED: ATOM     15  C   UNL d   1      -9.076  -0.423  -8.077 -0.16 +0.02    +0.066 A 
DOCKED: ATOM     16  C   UNL d   1      -9.506   0.805  -7.592 -0.24 -0.00    -0.021 A 
DOCKED: ATOM     17  C   UNL d   1      -9.209   1.735  -8.598 -0.17 +0.00    +0.000 A 
DOCKED: ATOM     18  C   UNL d   1      -8.604   1.002  -9.613 -0.09 +0.02    +0.070 A 
DOCKED: ATOM     19  C   UNL d   1     -10.158   1.037  -6.248 -0.10 +0.00    +0.052 C 
DOCKED: ATOM     20  C   UNL d   1      -7.629   0.810 -11.932 -0.05 +0.04    +0.066 A 
DOCKED: ATOM     21  C   UNL d   1      -7.253   1.414 -13.130 -0.06 -0.02    -0.025 A 
DOCKED: ATOM     22  C   UNL d   1      -6.806   0.386 -13.941 -0.05 -0.02    -0.021 A 
DOCKED: ATOM     23  C   UNL d   1      -6.945  -0.804 -13.196 -0.06 +0.06    +0.066 A 
DOCKED: ATOM     24  C   UNL d   1      -7.333   2.894 -13.492 -0.10 +0.04    +0.051 C 
DOCKED: ATOM     25  N   UNL d   1      -7.436  -3.322 -11.690 -0.09 -0.17    -0.248 N 
DOCKED: ATOM     26  N   UNL d   1      -8.455  -3.231  -9.104 -0.12 -0.09    -0.248 N 
DOCKED: ATOM     27  N   UNL d   1      -8.569  -0.284  -9.281 -0.05 -0.08    -0.248 N 
DOCKED: ATOM     28  N   UNL d   1      -7.445  -0.552 -11.980 -0.02 -0.17    -0.248 N 
DOCKED: ATOM     29 FE   UNL d   1      -8.035  -1.710 -10.417 -0.03 +0.00    +0.000 Fe
DOCKED: ENDROOT
DOCKED: BRANCH   6  30
DOCKED: ATOM     30  C   UNL d   1      -6.397  -4.869 -14.974 -0.14 +0.06    +0.052 C 
DOCKED: BRANCH  30  31
DOCKED: ATOM     31  C   UNL d   1      -7.168  -6.075 -15.510 -0.12 +0.09    +0.115 C 
DOCKED: BRANCH  31  32
DOCKED: ATOM     32  C   UNL d   1      -6.297  -6.997 -16.335 -0.09 +0.17    +0.139 C 
DOCKED: ATOM     33  O   UNL d   1      -5.216  -7.356 -15.894 -0.51 -0.96    -0.650 OA
DOCKED: BRANCH  32  34
DOCKED: ATOM     34  O   UNL d   1      -6.697  -7.479 -17.534 -0.28 -1.15    -0.776 OA
DOCKED: ATOM     35  H   UNL d   1      -7.565  -7.310 -17.927 +0.02 +0.16    +0.167 HD
DOCKED: ENDBRANCH  32  34
DOCKED: ENDBRANCH  31  32
DOCKED: ENDBRANCH  30  31
DOCKED: ENDBRANCH   6  30
DOCKED: BRANCH  29  36
DOCKED: ATOM     36  C   UNL d   1      -9.946  -1.908 -11.254 -0.02 +0.07    +0.190 C 
DOCKED: BRANCH  36  37
DOCKED: ATOM     37  O   UNL d   1     -10.684  -1.663 -12.417 +0.00 -0.16    -0.399 OA
DOCKED: ATOM     38  H   UNL d   1     -10.151  -0.987 -12.922 +0.01 +0.09    +0.209 HD
DOCKED: ENDBRANCH  36  37
DOCKED: ENDBRANCH  29  36
DOCKED: BRANCH  22  39
DOCKED: ATOM     39  C   UNL d   1      -6.336   0.539 -15.375 -0.04 +0.05    +0.052 C 
DOCKED: BRANCH  39  40
DOCKED: ATOM     40  C   UNL d   1      -5.314   1.682 -15.492 -0.07 +0.14    +0.115 C 
DOCKED: BRANCH  40  41
DOCKED: ATOM     41  C   UNL d   1      -3.944   1.355 -14.937 -0.10 +0.22    +0.139 C 
DOCKED: ATOM     42  O   UNL d   1      -3.350   2.195 -14.275 -0.41 -1.51    -0.650 OA
DOCKED: BRANCH  41  43
DOCKED: ATOM     43  O   UNL d   1      -3.394   0.129 -15.078 -0.24 -1.42    -0.776 OA
DOCKED: ATOM     44  H   UNL d   1      -2.908  -0.134 -15.871 +0.01 +0.27    +0.167 HD
DOCKED: ENDBRANCH  41  43
DOCKED: ENDBRANCH  40  41
DOCKED: ENDBRANCH  39  40
DOCKED: ENDBRANCH  22  39
DOCKED: BRANCH  12  45
DOCKED: ATOM     45  C   UNL d   1      -9.583  -4.006  -5.634 -0.51 +0.00    +0.004 C 
DOCKED: ATOM     46  C   UNL d   1      -9.072  -3.345  -4.599 -0.61 +0.00    +0.012 C 
DOCKED: ENDBRANCH  12  45
DOCKED: BRANCH  17  47
DOCKED: ATOM     47  C   UNL d   1      -9.502   3.199  -8.661 -0.17 +0.00    +0.004 C 
DOCKED: ATOM     48  C   UNL d   1      -8.636   4.140  -8.277 -0.30 +0.00    +0.012 C 
DOCKED: ENDBRANCH  17  47
DOCKED: TORSDOF 12
DOCKED: TER
DOCKED: ENDMDL
________________________________________________________________________________


	BEGINNING GENETIC ALGORITHM DOCKING 63 of 100
Run: 63 Seed: 1483331937 407688554 [ Run 63 of 100 GA/GALS ]
Beginning LAMARCKIAN GENETIC ALGORITHM (LGA), with a maximum of 25000000 energy evaluations.

Final-Value: -13.141


	FINAL GENETIC ALGORITHM DOCKED STATE
	_______________________________________________


Detailed state:  trans -7.700 -1.472 -12.278 quatxyzw -0.465413 -0.249015 -0.761913 -0.375327 center 8.781 34.984 -0.736 ntor 12 -125.8657 120.8586 17.7344 96.9918 146.5536 130.6887 27.4176 -61.2434 176.1740 -13.1846 174.5424 -140.9779
State:	 -7.700  -1.472 -12.278  -0.502 -0.269 -0.822 -135.911   -125.87  120.86   17.73   96.99  146.55  130.69   27.42  -61.24  176.17  -13.18  174.54 -140.98

DOCKED: MODEL       63
DOCKED: USER    Run = 63
DOCKED: USER    DPF = D:/Protein_go_brrr/autodock/final/AncB/heme_Co/dock.dpf
DOCKED: USER  
DOCKED: USER    Estimated Free Energy of Binding    =   -7.88 kcal/mol  [=(1)+(2)+(3)-(4)]
DOCKED: USER    Estimated Inhibition Constant, Ki   =    1.67 uM (micromolar)  [Temperature = 298.15 K]
DOCKED: USER    
DOCKED: USER    (1) Final Intermolecular Energy     =  -11.46 kcal/mol
DOCKED: USER        vdW + Hbond + desolv Energy     =   -7.12 kcal/mol
DOCKED: USER        Electrostatic Energy            =   -4.34 kcal/mol
DOCKED: USER    (2) Final Total Internal Energy     =   -1.68 kcal/mol
DOCKED: USER    (3) Torsional Free Energy           =   +3.58 kcal/mol
DOCKED: USER    (4) Unbound System's Energy  [=(2)] =   -1.68 kcal/mol
DOCKED: USER    
DOCKED: USER    
DOCKED: USER    NEWDPF move heme_Co_opt.pdbqt
DOCKED: USER    NEWDPF about 8.781000 34.984000 -0.736000
DOCKED: USER    NEWDPF tran0 -7.700108 -1.471554 -12.278420
DOCKED: USER    NEWDPF quaternion0 -0.465413 -0.249015 -0.761913 -0.375327
DOCKED: USER    NEWDPF axisangle0 -0.502122 -0.268656 -0.822008 -135.910890
DOCKED: USER    NEWDPF quat0 -0.502122 -0.268656 -0.822008 -135.910890
DOCKED: USER    NEWDPF dihe0 -125.87 120.86 17.73 96.99 146.55 130.69 27.42 -61.24 176.17 -13.18 174.54 -140.98 
DOCKED: USER  keepresnum = 1 
DOCKED: USER  
DOCKED: REMARK  12 active torsions:
DOCKED: REMARK  status: ('A' for Active; 'I' for Inactive)
DOCKED: REMARK    1  A    between atoms: C_6  and  C_10 
DOCKED: REMARK    2  A    between atoms: C_10  and  C_11 
DOCKED: REMARK    3  A    between atoms: C_11  and  C_12 
DOCKED: REMARK    4  A    between atoms: C_12  and  O_14 
DOCKED: REMARK    5  A    between atoms: C_17  and  C_20 
DOCKED: REMARK    6  A    between atoms: C_24  and  C_27 
DOCKED: REMARK    7  A    between atoms: C_31  and  C_34 
DOCKED: REMARK    8  A    between atoms: C_34  and  C_35 
DOCKED: REMARK    9  A    between atoms: C_35  and  C_36 
DOCKED: REMARK   10  A    between atoms: C_36  and  O_38 
DOCKED: REMARK   11  A    between atoms: FE_43  and  C_44 
DOCKED: REMARK   12  A    between atoms: C_44  and  O_45 
DOCKED: USER                              x       y       z     vdW  Elec       q    Type
DOCKED: USER                           _______ _______ _______ _____ _____    ______ ____
DOCKED: ROOT
DOCKED: ATOM      1  C   UNL d   1      -7.191  -1.729 -14.374 -0.06 +0.06    +0.064 A 
DOCKED: ATOM      2  C   UNL d   1      -7.737   2.145 -11.672 -0.10 +0.04    +0.064 C 
DOCKED: ATOM      3  C   UNL d   1      -9.146  -0.568  -8.000 -0.17 +0.02    +0.064 A 
DOCKED: ATOM      4  C   UNL d   1      -8.226  -4.564 -10.617 -0.25 +0.03    +0.064 A 
DOCKED: ATOM      5  C   UNL d   1      -7.272  -0.469 -13.917 -0.03 +0.06    +0.066 A 
DOCKED: ATOM      6  C   UNL d   1      -6.866   0.635 -14.692 -0.03 -0.02    -0.021 A 
DOCKED: ATOM      7  C   UNL d   1      -7.005   1.754 -13.895 -0.07 -0.02    -0.025 A 
DOCKED: ATOM      8  C   UNL d   1      -7.505   1.288 -12.674 -0.05 +0.04    +0.066 A 
DOCKED: ATOM      9  C   UNL d   1      -6.684   3.213 -14.255 -0.07 +0.06    +0.051 C 
DOCKED: ATOM     10  C   UNL d   1      -8.275   1.762 -10.390 -0.08 +0.03    +0.066 A 
DOCKED: ATOM     11  C   UNL d   1      -8.673   2.628  -9.349 -0.15 -0.01    -0.021 A 
DOCKED: ATOM     12  C   UNL d   1      -9.083   1.811  -8.292 -0.21 +0.00    +0.000 A 
DOCKED: ATOM     13  C   UNL d   1      -8.918   0.511  -8.770 -0.13 +0.02    +0.070 A 
DOCKED: ATOM     14  C   UNL d   1      -8.739   4.132  -9.416 -0.18 +0.02    +0.052 C 
DOCKED: ATOM     15  C   UNL d   1      -8.977  -1.974  -8.312 -0.15 +0.02    +0.066 A 
DOCKED: ATOM     16  C   UNL d   1      -9.092  -3.034  -7.424 -0.28 -0.01    -0.021 A 
DOCKED: ATOM     17  C   UNL d   1      -8.825  -4.188  -8.174 -0.34 +0.00    +0.000 A 
DOCKED: ATOM     18  C   UNL d   1      -8.585  -3.741  -9.469 -0.20 +0.03    +0.070 A 
DOCKED: ATOM     19  C   UNL d   1      -9.434  -2.915  -5.956 -0.45 +0.01    +0.052 C 
DOCKED: ATOM     20  C   UNL d   1      -7.904  -4.145 -11.864 -0.17 +0.04    +0.066 A 
DOCKED: ATOM     21  C   UNL d   1      -7.541  -5.031 -12.876 -0.22 -0.02    -0.025 A 
DOCKED: ATOM     22  C   UNL d   1      -7.265  -4.244 -13.979 -0.14 -0.02    -0.021 A 
DOCKED: ATOM     23  C   UNL d   1      -7.463  -2.905 -13.579 -0.09 +0.06    +0.066 A 
DOCKED: ATOM     24  C   UNL d   1      -7.442  -6.551 -12.791 -0.32 +0.03    +0.051 C 
DOCKED: ATOM     25  N   UNL d   1      -7.686  -0.085 -12.661 -0.01 -0.17    -0.248 N 
DOCKED: ATOM     26  N   UNL d   1      -8.483   0.483 -10.058 -0.03 -0.09    -0.248 N 
DOCKED: ATOM     27  N   UNL d   1      -8.654  -2.415  -9.507 -0.06 -0.09    -0.248 N 
DOCKED: ATOM     28  N   UNL d   1      -7.848  -2.841 -12.298 -0.05 -0.17    -0.248 N 
DOCKED: ATOM     29 FE   UNL d   1      -8.199  -1.322 -10.993 -0.02 +0.00    +0.000 Fe
DOCKED: ENDROOT
DOCKED: BRANCH   6  30
DOCKED: ATOM     30  C   UNL d   1      -6.295   0.592 -16.105 -0.02 +0.04    +0.052 C 
DOCKED: BRANCH  30  31
DOCKED: ATOM     31  C   UNL d   1      -4.774   0.746 -16.075 -0.05 +0.13    +0.115 C 
DOCKED: BRANCH  31  32
DOCKED: ATOM     32  C   UNL d   1      -4.251   1.037 -14.684 -0.11 +0.22    +0.139 C 
DOCKED: ATOM     33  O   UNL d   1      -3.934   2.179 -14.388 -0.50 -1.52    -0.650 OA
DOCKED: BRANCH  32  34
DOCKED: ATOM     34  O   UNL d   1      -4.167   0.076 -13.734 +0.11 -1.47    -0.776 OA
DOCKED: ATOM     35  H   UNL d   1      -4.511   0.169 -12.835 +0.04 +0.26    +0.167 HD
DOCKED: ENDBRANCH  32  34
DOCKED: ENDBRANCH  31  32
DOCKED: ENDBRANCH  30  31
DOCKED: ENDBRANCH   6  30
DOCKED: BRANCH  29  36
DOCKED: ATOM     36  C   UNL d   1      -6.168  -1.269 -10.473 -0.13 +0.13    +0.190 C 
DOCKED: BRANCH  36  37
DOCKED: ATOM     37  O   UNL d   1      -4.888  -1.076 -11.001 -0.20 -0.44    -0.399 OA
DOCKED: ATOM     38  H   UNL d   1      -5.040  -0.781 -11.943 +0.06 +0.30    +0.209 HD
DOCKED: ENDBRANCH  36  37
DOCKED: ENDBRANCH  29  36
DOCKED: BRANCH  22  39
DOCKED: ATOM     39  C   UNL d   1      -6.774  -4.752 -15.322 -0.14 +0.05    +0.052 C 
DOCKED: BRANCH  39  40
DOCKED: ATOM     40  C   UNL d   1      -5.751  -5.885 -15.132 -0.06 +0.13    +0.115 C 
DOCKED: BRANCH  40  41
DOCKED: ATOM     41  C   UNL d   1      -5.541  -6.748 -16.358 -0.11 +0.20    +0.139 C 
DOCKED: ATOM     42  O   UNL d   1      -4.860  -6.322 -17.280 -0.14 -1.13    -0.650 OA
DOCKED: BRANCH  41  43
DOCKED: ATOM     43  O   UNL d   1      -6.014  -8.012 -16.426 -0.43 -1.35    -0.776 OA
DOCKED: ATOM     44  H   UNL d   1      -6.762  -8.316 -15.897 +0.05 +0.15    +0.167 HD
DOCKED: ENDBRANCH  41  43
DOCKED: ENDBRANCH  40  41
DOCKED: ENDBRANCH  39  40
DOCKED: ENDBRANCH  22  39
DOCKED: BRANCH  12  45
DOCKED: ATOM     45  C   UNL d   1      -9.627   2.107  -6.901 -0.16 +0.00    +0.004 C 
DOCKED: ATOM     46  C   UNL d   1     -10.874   2.299  -6.481 -0.22 -0.00    +0.012 C 
DOCKED: ENDBRANCH  12  45
DOCKED: BRANCH  17  47
DOCKED: ATOM     47  C   UNL d   1      -8.741  -5.613  -7.734 -0.52 +0.00    +0.004 C 
DOCKED: ATOM     48  C   UNL d   1      -9.462  -6.596  -8.279 -0.48 +0.00    +0.012 C 
DOCKED: ENDBRANCH  17  47
DOCKED: TORSDOF 12
DOCKED: TER
DOCKED: ENDMDL
________________________________________________________________________________


	BEGINNING GENETIC ALGORITHM DOCKING 64 of 100
Run: 64 Seed: 1725468772 1781803481 [ Run 64 of 100 GA/GALS ]
Beginning LAMARCKIAN GENETIC ALGORITHM (LGA), with a maximum of 25000000 energy evaluations.

Final-Value: -12.527


	FINAL GENETIC ALGORITHM DOCKED STATE
	_______________________________________________


Detailed state:  trans -7.607 -1.651 -11.704 quatxyzw 0.031248 -0.638755 0.505275 -0.579408 center 8.781 34.984 -0.736 ntor 12 -168.6852 118.9805 149.5285 123.1701 120.9677 134.0722 43.5396 -180.0000 170.6306 131.9538 -163.5082 20.8517
State:	 -7.607  -1.651 -11.704   0.038 -0.784  0.620 -109.182   -168.69  118.98  149.53  123.17  120.97  134.07   43.54 -180.00  170.63  131.95 -163.51   20.85

DOCKED: MODEL       64
DOCKED: USER    Run = 64
DOCKED: USER    DPF = D:/Protein_go_brrr/autodock/final/AncB/heme_Co/dock.dpf
DOCKED: USER  
DOCKED: USER    Estimated Free Energy of Binding    =   -6.59 kcal/mol  [=(1)+(2)+(3)-(4)]
DOCKED: USER    Estimated Inhibition Constant, Ki   =   14.85 uM (micromolar)  [Temperature = 298.15 K]
DOCKED: USER    
DOCKED: USER    (1) Final Intermolecular Energy     =  -10.17 kcal/mol
DOCKED: USER        vdW + Hbond + desolv Energy     =   -7.33 kcal/mol
DOCKED: USER        Electrostatic Energy            =   -2.83 kcal/mol
DOCKED: USER    (2) Final Total Internal Energy     =   -2.36 kcal/mol
DOCKED: USER    (3) Torsional Free Energy           =   +3.58 kcal/mol
DOCKED: USER    (4) Unbound System's Energy  [=(2)] =   -2.36 kcal/mol
DOCKED: USER    
DOCKED: USER    
DOCKED: USER    NEWDPF move heme_Co_opt.pdbqt
DOCKED: USER    NEWDPF about 8.781000 34.984000 -0.736000
DOCKED: USER    NEWDPF tran0 -7.606925 -1.650601 -11.704377
DOCKED: USER    NEWDPF quaternion0 0.031248 -0.638755 0.505275 -0.579408
DOCKED: USER    NEWDPF axisangle0 0.038339 -0.783712 0.619941 -109.182217
DOCKED: USER    NEWDPF quat0 0.038339 -0.783712 0.619941 -109.182217
DOCKED: USER    NEWDPF dihe0 -168.69 118.98 149.53 123.17 120.97 134.07 43.54 -180.00 170.63 131.95 -163.51 20.85 
DOCKED: USER  keepresnum = 1 
DOCKED: USER  
DOCKED: REMARK  12 active torsions:
DOCKED: REMARK  status: ('A' for Active; 'I' for Inactive)
DOCKED: REMARK    1  A    between atoms: C_6  and  C_10 
DOCKED: REMARK    2  A    between atoms: C_10  and  C_11 
DOCKED: REMARK    3  A    between atoms: C_11  and  C_12 
DOCKED: REMARK    4  A    between atoms: C_12  and  O_14 
DOCKED: REMARK    5  A    between atoms: C_17  and  C_20 
DOCKED: REMARK    6  A    between atoms: C_24  and  C_27 
DOCKED: REMARK    7  A    between atoms: C_31  and  C_34 
DOCKED: REMARK    8  A    between atoms: C_34  and  C_35 
DOCKED: REMARK    9  A    between atoms: C_35  and  C_36 
DOCKED: REMARK   10  A    between atoms: C_36  and  O_38 
DOCKED: REMARK   11  A    between atoms: FE_43  and  C_44 
DOCKED: REMARK   12  A    between atoms: C_44  and  O_45 
DOCKED: USER                              x       y       z     vdW  Elec       q    Type
DOCKED: USER                           _______ _______ _______ _____ _____    ______ ____
DOCKED: ROOT
DOCKED: ATOM      1  C   UNL d   1      -6.685  -1.884 -13.657 -0.08 +0.08    +0.064 A 
DOCKED: ATOM      2  C   UNL d   1      -8.079  -5.040 -10.384 -0.35 +0.03    +0.064 C 
DOCKED: ATOM      3  C   UNL d   1      -9.186  -1.492  -7.380 -0.21 +0.01    +0.064 A 
DOCKED: ATOM      4  C   UNL d   1      -8.132   1.754 -10.847 -0.07 +0.03    +0.064 A 
DOCKED: ATOM      5  C   UNL d   1      -6.950  -3.007 -12.970 -0.13 +0.07    +0.066 A 
DOCKED: ATOM      6  C   UNL d   1      -6.819  -4.285 -13.547 -0.17 -0.02    -0.021 A 
DOCKED: ATOM      7  C   UNL d   1      -7.247  -5.196 -12.601 -0.27 -0.02    -0.025 A 
DOCKED: ATOM      8  C   UNL d   1      -7.605  -4.436 -11.482 -0.23 +0.04    +0.066 A 
DOCKED: ATOM      9  C   UNL d   1      -7.322  -6.725 -12.731 -0.32 +0.03    +0.051 C 
DOCKED: ATOM     10  C   UNL d   1      -8.448  -4.344  -9.177 -0.27 +0.03    +0.066 A 
DOCKED: ATOM     11  C   UNL d   1      -8.818  -4.928  -7.946 -0.42 -0.01    -0.021 A 
DOCKED: ATOM     12  C   UNL d   1      -9.132  -3.871  -7.087 -0.37 +0.00    +0.000 A 
DOCKED: ATOM     13  C   UNL d   1      -8.918  -2.724  -7.851 -0.21 +0.02    +0.070 A 
DOCKED: ATOM     14  C   UNL d   1      -8.775  -6.396  -7.607 -0.47 +0.02    +0.052 C 
DOCKED: ATOM     15  C   UNL d   1      -9.074  -0.209  -8.046 -0.17 +0.02    +0.066 A 
DOCKED: ATOM     16  C   UNL d   1      -9.505   1.014  -7.552 -0.24 -0.00    -0.021 A 
DOCKED: ATOM     17  C   UNL d   1      -9.205   1.953  -8.550 -0.18 +0.00    +0.000 A 
DOCKED: ATOM     18  C   UNL d   1      -8.597   1.228  -9.569 -0.10 +0.02    +0.070 A 
DOCKED: ATOM     19  C   UNL d   1     -10.160   1.236  -6.207 -0.02 +0.00    +0.052 C 
DOCKED: ATOM     20  C   UNL d   1      -7.617   1.056 -11.887 -0.05 +0.04    +0.066 A 
DOCKED: ATOM     21  C   UNL d   1      -7.238   1.669 -13.079 -0.07 -0.02    -0.025 A 
DOCKED: ATOM     22  C   UNL d   1      -6.790   0.649 -13.898 -0.05 -0.02    -0.021 A 
DOCKED: ATOM     23  C   UNL d   1      -6.930  -0.548 -13.163 -0.06 +0.06    +0.066 A 
DOCKED: ATOM     24  C   UNL d   1      -7.317   3.153 -13.429 -0.10 +0.04    +0.051 C 
DOCKED: ATOM     25  N   UNL d   1      -7.426  -3.078 -11.680 -0.09 -0.17    -0.248 N 
DOCKED: ATOM     26  N   UNL d   1      -8.451  -3.009  -9.095 -0.11 -0.09    -0.248 N 
DOCKED: ATOM     27  N   UNL d   1      -8.564  -0.060  -9.248 -0.05 -0.08    -0.248 N 
DOCKED: ATOM     28  N   UNL d   1      -7.433  -0.306 -11.946 -0.02 -0.16    -0.248 N 
DOCKED: ATOM     29 FE   UNL d   1      -8.027  -1.477 -10.394 -0.02 +0.00    +0.000 Fe
DOCKED: ENDROOT
DOCKED: BRANCH   6  30
DOCKED: ATOM     30  C   UNL d   1      -6.380  -4.597 -14.974 -0.12 +0.06    +0.052 C 
DOCKED: BRANCH  30  31
DOCKED: ATOM     31  C   UNL d   1      -7.537  -4.390 -15.950 -0.05 +0.09    +0.115 C 
DOCKED: BRANCH  31  32
DOCKED: ATOM     32  C   UNL d   1      -8.862  -4.202 -15.243 -0.02 +0.08    +0.139 C 
DOCKED: ATOM     33  O   UNL d   1      -9.518  -5.183 -14.925 +0.03 -0.39    -0.650 OA
DOCKED: BRANCH  32  34
DOCKED: ATOM     34  O   UNL d   1      -9.327  -2.977 -14.904 +0.03 -0.42    -0.776 OA
DOCKED: ATOM     35  H   UNL d   1     -10.117  -2.824 -14.367 +0.01 +0.08    +0.167 HD
DOCKED: ENDBRANCH  32  34
DOCKED: ENDBRANCH  31  32
DOCKED: ENDBRANCH  30  31
DOCKED: ENDBRANCH   6  30
DOCKED: BRANCH  29  36
DOCKED: ATOM     36  C   UNL d   1      -9.937  -1.667 -11.238 -0.02 +0.07    +0.190 C 
DOCKED: BRANCH  36  37
DOCKED: ATOM     37  O   UNL d   1     -10.617  -2.159 -12.357 +0.00 -0.16    -0.399 OA
DOCKED: ATOM     38  H   UNL d   1      -9.921  -2.636 -12.890 +0.02 +0.10    +0.209 HD
DOCKED: ENDBRANCH  36  37
DOCKED: ENDBRANCH  29  36
DOCKED: BRANCH  22  39
DOCKED: ATOM     39  C   UNL d   1      -6.315   0.814 -15.329 -0.04 +0.05    +0.052 C 
DOCKED: BRANCH  39  40
DOCKED: ATOM     40  C   UNL d   1      -4.877   0.294 -15.488 -0.07 +0.16    +0.115 C 
DOCKED: BRANCH  40  41
DOCKED: ATOM     41  C   UNL d   1      -3.885   0.894 -14.513 -0.12 +0.23    +0.139 C 
DOCKED: ATOM     42  O   UNL d   1      -3.935   2.091 -14.269 -0.47 -1.46    -0.650 OA
DOCKED: BRANCH  41  43
DOCKED: ATOM     43  O   UNL d   1      -3.001   0.127 -13.838 -0.06 -1.52    -0.776 OA
DOCKED: ATOM     44  H   UNL d   1      -2.169   0.476 -13.491 +0.04 +0.25    +0.167 HD
DOCKED: ENDBRANCH  41  43
DOCKED: ENDBRANCH  40  41
DOCKED: ENDBRANCH  39  40
DOCKED: ENDBRANCH  22  39
DOCKED: BRANCH  12  45
DOCKED: ATOM     45  C   UNL d   1      -9.588  -3.813  -5.635 -0.52 +0.00    +0.004 C 
DOCKED: ATOM     46  C   UNL d   1      -8.984  -3.323  -4.557 -0.60 +0.00    +0.012 C 
DOCKED: ENDBRANCH  12  45
DOCKED: BRANCH  17  47
DOCKED: ATOM     47  C   UNL d   1      -9.497   3.417  -8.600 -0.17 +0.00    +0.004 C 
DOCKED: ATOM     48  C   UNL d   1      -8.598   4.359  -8.305 -0.30 +0.00    +0.012 C 
DOCKED: ENDBRANCH  17  47
DOCKED: TORSDOF 12
DOCKED: TER
DOCKED: ENDMDL
________________________________________________________________________________


	BEGINNING GENETIC ALGORITHM DOCKING 65 of 100
Run: 65 Seed: 296282720 1894779895 [ Run 65 of 100 GA/GALS ]
Beginning LAMARCKIAN GENETIC ALGORITHM (LGA), with a maximum of 25000000 energy evaluations.

Final-Value: -13.021


	FINAL GENETIC ALGORITHM DOCKED STATE
	_______________________________________________


Detailed state:  trans -5.143 -11.582 12.588 quatxyzw -0.682672 -0.193344 -0.671410 0.213975 center 8.781 34.984 -0.736 ntor 12 -33.1353 110.1538 -22.2390 36.2727 133.0734 165.4207 33.0920 85.9268 20.9179 29.0183 -20.8656 -179.9879
State:	 -5.143 -11.582  12.588  -0.699 -0.198 -0.687 155.289    -33.14  110.15  -22.24   36.27  133.07  165.42   33.09   85.93   20.92   29.02  -20.87 -179.99

DOCKED: MODEL       65
DOCKED: USER    Run = 65
DOCKED: USER    DPF = D:/Protein_go_brrr/autodock/final/AncB/heme_Co/dock.dpf
DOCKED: USER  
DOCKED: USER    Estimated Free Energy of Binding    =   -7.82 kcal/mol  [=(1)+(2)+(3)-(4)]
DOCKED: USER    Estimated Inhibition Constant, Ki   =    1.86 uM (micromolar)  [Temperature = 298.15 K]
DOCKED: USER    
DOCKED: USER    (1) Final Intermolecular Energy     =  -11.40 kcal/mol
DOCKED: USER        vdW + Hbond + desolv Energy     =   -7.43 kcal/mol
DOCKED: USER        Electrostatic Energy            =   -3.97 kcal/mol
DOCKED: USER    (2) Final Total Internal Energy     =   -1.62 kcal/mol
DOCKED: USER    (3) Torsional Free Energy           =   +3.58 kcal/mol
DOCKED: USER    (4) Unbound System's Energy  [=(2)] =   -1.62 kcal/mol
DOCKED: USER    
DOCKED: USER    
DOCKED: USER    NEWDPF move heme_Co_opt.pdbqt
DOCKED: USER    NEWDPF about 8.781000 34.984000 -0.736000
DOCKED: USER    NEWDPF tran0 -5.142979 -11.581510 12.588416
DOCKED: USER    NEWDPF quaternion0 -0.682672 -0.193344 -0.671410 0.213975
DOCKED: USER    NEWDPF axisangle0 -0.698858 -0.197928 -0.687329 155.289223
DOCKED: USER    NEWDPF quat0 -0.698858 -0.197928 -0.687329 155.289223
DOCKED: USER    NEWDPF dihe0 -33.14 110.15 -22.24 36.27 133.07 165.42 33.09 85.93 20.92 29.02 -20.87 -179.99 
DOCKED: USER  keepresnum = 1 
DOCKED: USER  
DOCKED: REMARK  12 active torsions:
DOCKED: REMARK  status: ('A' for Active; 'I' for Inactive)
DOCKED: REMARK    1  A    between atoms: C_6  and  C_10 
DOCKED: REMARK    2  A    between atoms: C_10  and  C_11 
DOCKED: REMARK    3  A    between atoms: C_11  and  C_12 
DOCKED: REMARK    4  A    between atoms: C_12  and  O_14 
DOCKED: REMARK    5  A    between atoms: C_17  and  C_20 
DOCKED: REMARK    6  A    between atoms: C_24  and  C_27 
DOCKED: REMARK    7  A    between atoms: C_31  and  C_34 
DOCKED: REMARK    8  A    between atoms: C_34  and  C_35 
DOCKED: REMARK    9  A    between atoms: C_35  and  C_36 
DOCKED: REMARK   10  A    between atoms: C_36  and  O_38 
DOCKED: REMARK   11  A    between atoms: FE_43  and  C_44 
DOCKED: REMARK   12  A    between atoms: C_44  and  O_45 
DOCKED: USER                              x       y       z     vdW  Elec       q    Type
DOCKED: USER                           _______ _______ _______ _____ _____    ______ ____
DOCKED: ROOT
DOCKED: ATOM      1  C   UNL d   1      -6.050 -13.037  11.256 -0.22 +0.03    +0.064 A 
DOCKED: ATOM      2  C   UNL d   1      -2.225 -10.246  10.813 -0.22 +0.01    +0.064 C 
DOCKED: ATOM      3  C   UNL d   1      -3.216  -8.160  14.995 -0.15 +0.01    +0.064 A 
DOCKED: ATOM      4  C   UNL d   1      -6.906 -11.261  15.653 -0.14 +0.03    +0.064 A 
DOCKED: ATOM      5  C   UNL d   1      -4.953 -12.403  10.810 -0.17 +0.03    +0.066 A 
DOCKED: ATOM      6  C   UNL d   1      -4.300 -12.784   9.622 -0.14 -0.01    -0.021 A 
DOCKED: ATOM      7  C   UNL d   1      -3.178 -11.986   9.510 -0.14 -0.01    -0.025 A 
DOCKED: ATOM      8  C   UNL d   1      -3.203 -11.142  10.625 -0.16 +0.02    +0.066 A 
DOCKED: ATOM      9  C   UNL d   1      -2.114 -12.007   8.402 -0.18 +0.01    +0.051 C 
DOCKED: ATOM     10  C   UNL d   1      -2.180  -9.319  11.915 -0.18 +0.02    +0.066 A 
DOCKED: ATOM     11  C   UNL d   1      -1.259  -8.264  12.093 -0.24 -0.00    -0.021 A 
DOCKED: ATOM     12  C   UNL d   1      -1.574  -7.669  13.318 -0.20 +0.00    +0.000 A 
DOCKED: ATOM     13  C   UNL d   1      -2.668  -8.395  13.790 -0.07 +0.02    +0.070 A 
DOCKED: ATOM     14  C   UNL d   1      -0.219  -7.811  11.101 -0.29 +0.01    +0.052 C 
DOCKED: ATOM     15  C   UNL d   1      -4.309  -8.843  15.658 -0.13 +0.02    +0.066 A 
DOCKED: ATOM     16  C   UNL d   1      -4.733  -8.644  16.964 -0.12 -0.00    -0.021 A 
DOCKED: ATOM     17  C   UNL d   1      -5.796  -9.538  17.159 -0.11 +0.00    +0.000 A 
DOCKED: ATOM     18  C   UNL d   1      -5.948 -10.202  15.947 -0.12 +0.04    +0.070 A 
DOCKED: ATOM     19  C   UNL d   1      -4.136  -7.654  17.938 -0.07 -0.00    +0.052 C 
DOCKED: ATOM     20  C   UNL d   1      -7.015 -11.980  14.511 -0.20 +0.03    +0.066 A 
DOCKED: ATOM     21  C   UNL d   1      -7.953 -12.999  14.361 -0.24 -0.01    -0.025 A 
DOCKED: ATOM     22  C   UNL d   1      -7.750 -13.510  13.092 -0.29 -0.01    -0.021 A 
DOCKED: ATOM     23  C   UNL d   1      -6.680 -12.780  12.531 -0.25 +0.03    +0.066 A 
DOCKED: ATOM     24  C   UNL d   1      -8.982 -13.476  15.383 -0.16 +0.02    +0.051 C 
DOCKED: ATOM     25  N   UNL d   1      -4.295 -11.374  11.445 -0.11 -0.10    -0.248 N 
DOCKED: ATOM     26  N   UNL d   1      -3.068  -9.356  12.914 -0.08 -0.08    -0.248 N 
DOCKED: ATOM     27  N   UNL d   1      -5.026  -9.784  15.086 -0.08 -0.15    -0.248 N 
DOCKED: ATOM     28  N   UNL d   1      -6.231 -11.855  13.387 -0.14 -0.14    -0.248 N 
DOCKED: ATOM     29 FE   UNL d   1      -4.685 -10.534  13.373 -0.05 +0.00    +0.000 Fe
DOCKED: ENDROOT
DOCKED: BRANCH   6  30
DOCKED: ATOM     30  C   UNL d   1      -4.702 -13.921   8.688 -0.13 +0.03    +0.052 C 
DOCKED: BRANCH  30  31
DOCKED: ATOM     31  C   UNL d   1      -6.076 -13.653   8.075 -0.27 +0.10    +0.115 C 
DOCKED: BRANCH  31  32
DOCKED: ATOM     32  C   UNL d   1      -6.718 -14.909   7.527 -0.24 +0.22    +0.139 C 
DOCKED: ATOM     33  O   UNL d   1      -6.616 -15.166   6.337 -0.24 -1.61    -0.650 OA
DOCKED: BRANCH  32  34
DOCKED: ATOM     34  O   UNL d   1      -7.367 -15.789   8.324 -0.36 -1.89    -0.776 OA
DOCKED: ATOM     35  H   UNL d   1      -7.086 -16.022   9.220 +0.01 +0.28    +0.167 HD
DOCKED: ENDBRANCH  32  34
DOCKED: ENDBRANCH  31  32
DOCKED: ENDBRANCH  30  31
DOCKED: ENDBRANCH   6  30
DOCKED: BRANCH  29  36
DOCKED: ATOM     36  C   UNL d   1      -3.398 -11.996  14.147 -0.03 +0.05    +0.190 C 
DOCKED: BRANCH  36  37
DOCKED: ATOM     37  O   UNL d   1      -2.468 -12.972  13.773 +0.00 -0.08    -0.399 OA
DOCKED: ATOM     38  H   UNL d   1      -2.470 -12.960  12.776 +0.02 +0.04    +0.209 HD
DOCKED: ENDBRANCH  36  37
DOCKED: ENDBRANCH  29  36
DOCKED: BRANCH  22  39
DOCKED: ATOM     39  C   UNL d   1      -8.501 -14.679  12.483 -0.01 +0.02    +0.052 C 
DOCKED: BRANCH  39  40
DOCKED: ATOM     40  C   UNL d   1      -7.958 -16.013  13.021 -0.15 +0.05    +0.115 C 
DOCKED: BRANCH  40  41
DOCKED: ATOM     41  C   UNL d   1      -8.214 -17.201  12.118 -0.14 +0.09    +0.139 C 
DOCKED: ATOM     42  O   UNL d   1      -8.604 -18.252  12.608 +0.02 -0.34    -0.650 OA
DOCKED: BRANCH  41  43
DOCKED: ATOM     43  O   UNL d   1      -8.107 -17.108  10.774 -0.03 -1.01    -0.776 OA
DOCKED: ATOM     44  H   UNL d   1      -8.087 -16.260  10.312 -0.29 +0.25    +0.167 HD
DOCKED: ENDBRANCH  41  43
DOCKED: ENDBRANCH  40  41
DOCKED: ENDBRANCH  39  40
DOCKED: ENDBRANCH  22  39
DOCKED: BRANCH  12  45
DOCKED: ATOM     45  C   UNL d   1      -0.982  -6.494  14.085 -0.32 +0.00    +0.004 C 
DOCKED: ATOM     46  C   UNL d   1      -0.344  -5.410  13.650 -0.43 -0.00    +0.012 C 
DOCKED: ENDBRANCH  12  45
DOCKED: BRANCH  17  47
DOCKED: ATOM     47  C   UNL d   1      -6.597  -9.814  18.389 -0.06 +0.00    +0.004 C 
DOCKED: ATOM     48  C   UNL d   1      -7.885  -9.489  18.518 -0.10 +0.00    +0.012 C 
DOCKED: ENDBRANCH  17  47
DOCKED: TORSDOF 12
DOCKED: TER
DOCKED: ENDMDL
________________________________________________________________________________


	BEGINNING GENETIC ALGORITHM DOCKING 66 of 100
Run: 66 Seed: 828055396 560319604 [ Run 66 of 100 GA/GALS ]
Beginning LAMARCKIAN GENETIC ALGORITHM (LGA), with a maximum of 25000000 energy evaluations.

Final-Value: -13.209


	FINAL GENETIC ALGORITHM DOCKED STATE
	_______________________________________________


Detailed state:  trans -7.729 -1.473 -12.530 quatxyzw 0.452540 0.219467 0.770704 0.391226 center 8.781 34.984 -0.736 ntor 12 -108.4913 122.7432 18.3482 87.0548 108.2223 132.3383 44.1627 -1.8785 154.0679 -34.3653 -168.8016 -176.7811
State:	 -7.729  -1.473 -12.530   0.492  0.238  0.837 133.938   -108.49  122.74   18.35   87.05  108.22  132.34   44.16   -1.88  154.07  -34.37 -168.80 -176.78

DOCKED: MODEL       66
DOCKED: USER    Run = 66
DOCKED: USER    DPF = D:/Protein_go_brrr/autodock/final/AncB/heme_Co/dock.dpf
DOCKED: USER  
DOCKED: USER    Estimated Free Energy of Binding    =   -7.59 kcal/mol  [=(1)+(2)+(3)-(4)]
DOCKED: USER    Estimated Inhibition Constant, Ki   =    2.74 uM (micromolar)  [Temperature = 298.15 K]
DOCKED: USER    
DOCKED: USER    (1) Final Intermolecular Energy     =  -11.17 kcal/mol
DOCKED: USER        vdW + Hbond + desolv Energy     =   -7.00 kcal/mol
DOCKED: USER        Electrostatic Energy            =   -4.17 kcal/mol
DOCKED: USER    (2) Final Total Internal Energy     =   -2.04 kcal/mol
DOCKED: USER    (3) Torsional Free Energy           =   +3.58 kcal/mol
DOCKED: USER    (4) Unbound System's Energy  [=(2)] =   -2.04 kcal/mol
DOCKED: USER    
DOCKED: USER    
DOCKED: USER    NEWDPF move heme_Co_opt.pdbqt
DOCKED: USER    NEWDPF about 8.781000 34.984000 -0.736000
DOCKED: USER    NEWDPF tran0 -7.728833 -1.472964 -12.529503
DOCKED: USER    NEWDPF quaternion0 0.452540 0.219467 0.770704 0.391226
DOCKED: USER    NEWDPF axisangle0 0.491733 0.238475 0.837453 133.938418
DOCKED: USER    NEWDPF quat0 0.491733 0.238475 0.837453 133.938418
DOCKED: USER    NEWDPF dihe0 -108.49 122.74 18.35 87.05 108.22 132.34 44.16 -1.88 154.07 -34.37 -168.80 -176.78 
DOCKED: USER  keepresnum = 1 
DOCKED: USER  
DOCKED: REMARK  12 active torsions:
DOCKED: REMARK  status: ('A' for Active; 'I' for Inactive)
DOCKED: REMARK    1  A    between atoms: C_6  and  C_10 
DOCKED: REMARK    2  A    between atoms: C_10  and  C_11 
DOCKED: REMARK    3  A    between atoms: C_11  and  C_12 
DOCKED: REMARK    4  A    between atoms: C_12  and  O_14 
DOCKED: REMARK    5  A    between atoms: C_17  and  C_20 
DOCKED: REMARK    6  A    between atoms: C_24  and  C_27 
DOCKED: REMARK    7  A    between atoms: C_31  and  C_34 
DOCKED: REMARK    8  A    between atoms: C_34  and  C_35 
DOCKED: REMARK    9  A    between atoms: C_35  and  C_36 
DOCKED: REMARK   10  A    between atoms: C_36  and  O_38 
DOCKED: REMARK   11  A    between atoms: FE_43  and  C_44 
DOCKED: REMARK   12  A    between atoms: C_44  and  O_45 
DOCKED: USER                              x       y       z     vdW  Elec       q    Type
DOCKED: USER                           _______ _______ _______ _____ _____    ______ ____
DOCKED: ROOT
DOCKED: ATOM      1  C   UNL d   1      -7.226  -1.577 -14.639 -0.05 +0.06    +0.064 A 
DOCKED: ATOM      2  C   UNL d   1      -7.752   2.089 -11.658 -0.10 +0.04    +0.064 C 
DOCKED: ATOM      3  C   UNL d   1      -9.162  -0.883  -8.192 -0.15 +0.02    +0.064 A 
DOCKED: ATOM      4  C   UNL d   1      -8.262  -4.678 -11.099 -0.23 +0.03    +0.064 A 
DOCKED: ATOM      5  C   UNL d   1      -7.301  -0.354 -14.090 -0.03 +0.05    +0.066 A 
DOCKED: ATOM      6  C   UNL d   1      -6.893   0.803 -14.783 -0.03 -0.02    -0.021 A 
DOCKED: ATOM      7  C   UNL d   1      -7.026   1.861 -13.905 -0.07 -0.02    -0.025 A 
DOCKED: ATOM      8  C   UNL d   1      -7.525   1.308 -12.721 -0.05 +0.04    +0.066 A 
DOCKED: ATOM      9  C   UNL d   1      -6.700   3.341 -14.157 -0.07 +0.06    +0.051 C 
DOCKED: ATOM     10  C   UNL d   1      -8.289   1.614 -10.407 -0.08 +0.03    +0.066 A 
DOCKED: ATOM     11  C   UNL d   1      -8.681   2.403  -9.303 -0.15 -0.01    -0.021 A 
DOCKED: ATOM     12  C   UNL d   1      -9.091   1.511  -8.308 -0.21 +0.00    +0.000 A 
DOCKED: ATOM     13  C   UNL d   1      -8.932   0.249  -8.881 -0.11 +0.02    +0.070 A 
DOCKED: ATOM     14  C   UNL d   1      -8.742   3.908  -9.259 -0.19 +0.02    +0.052 C 
DOCKED: ATOM     15  C   UNL d   1      -8.999  -2.262  -8.608 -0.14 +0.02    +0.066 A 
DOCKED: ATOM     16  C   UNL d   1      -9.115  -3.384  -7.800 -0.26 -0.01    -0.021 A 
DOCKED: ATOM     17  C   UNL d   1      -8.854  -4.481  -8.634 -0.34 +0.00    +0.000 A 
DOCKED: ATOM     18  C   UNL d   1      -8.616  -3.941  -9.893 -0.20 +0.03    +0.070 A 
DOCKED: ATOM     19  C   UNL d   1      -9.454  -3.373  -6.326 -0.43 +0.01    +0.052 C 
DOCKED: ATOM     20  C   UNL d   1      -7.941  -4.169 -12.313 -0.14 +0.04    +0.066 A 
DOCKED: ATOM     21  C   UNL d   1      -7.583  -4.979 -13.388 -0.17 -0.02    -0.025 A 
DOCKED: ATOM     22  C   UNL d   1      -7.307  -4.113 -14.431 -0.12 -0.02    -0.021 A 
DOCKED: ATOM     23  C   UNL d   1      -7.500  -2.808 -13.933 -0.08 +0.06    +0.066 A 
DOCKED: ATOM     24  C   UNL d   1      -7.489  -6.502 -13.416 -0.29 +0.03    +0.051 C 
DOCKED: ATOM     25  N   UNL d   1      -7.710  -0.062 -12.809 -0.01 -0.17    -0.248 N 
DOCKED: ATOM     26  N   UNL d   1      -8.500   0.315 -10.169 -0.02 -0.10    -0.248 N 
DOCKED: ATOM     27  N   UNL d   1      -8.680  -2.615  -9.833 -0.06 -0.10    -0.248 N 
DOCKED: ATOM     28  N   UNL d   1      -7.882  -2.836 -12.650 -0.04 -0.18    -0.248 N 
DOCKED: ATOM     29 FE   UNL d   1      -8.224  -1.417 -11.235 -0.02 +0.00    +0.000 Fe
DOCKED: ENDROOT
DOCKED: BRANCH   6  30
DOCKED: ATOM     30  C   UNL d   1      -6.324   0.863 -16.197 -0.02 +0.04    +0.052 C 
DOCKED: BRANCH  30  31
DOCKED: ATOM     31  C   UNL d   1      -4.820   0.596 -16.183 -0.05 +0.13    +0.115 C 
DOCKED: BRANCH  31  32
DOCKED: ATOM     32  C   UNL d   1      -4.174   1.000 -14.875 -0.10 +0.21    +0.139 C 
DOCKED: ATOM     33  O   UNL d   1      -3.817   2.158 -14.714 -0.51 -1.45    -0.650 OA
DOCKED: BRANCH  32  34
DOCKED: ATOM     34  O   UNL d   1      -4.020   0.129 -13.851 +0.03 -1.47    -0.776 OA
DOCKED: ATOM     35  H   UNL d   1      -4.485   0.196 -13.006 +0.03 +0.26    +0.167 HD
DOCKED: ENDBRANCH  32  34
DOCKED: ENDBRANCH  31  32
DOCKED: ENDBRANCH  30  31
DOCKED: ENDBRANCH   6  30
DOCKED: BRANCH  29  36
DOCKED: ATOM     36  C   UNL d   1      -6.192  -1.409 -10.718 -0.12 +0.14    +0.190 C 
DOCKED: BRANCH  36  37
DOCKED: ATOM     37  O   UNL d   1      -4.914  -1.159 -11.227 -0.25 -0.49    -0.399 OA
DOCKED: ATOM     38  H   UNL d   1      -5.071  -0.742 -12.120 +0.05 +0.31    +0.209 HD
DOCKED: ENDBRANCH  36  37
DOCKED: ENDBRANCH  29  36
DOCKED: BRANCH  22  39
DOCKED: ATOM     39  C   UNL d   1      -6.821  -4.523 -15.809 -0.11 +0.05    +0.052 C 
DOCKED: BRANCH  39  40
DOCKED: ATOM     40  C   UNL d   1      -5.336  -4.920 -15.765 -0.04 +0.16    +0.115 C 
DOCKED: BRANCH  40  41
DOCKED: ATOM     41  C   UNL d   1      -4.986  -6.122 -16.616 -0.20 +0.20    +0.139 C 
DOCKED: ATOM     42  O   UNL d   1      -3.975  -6.094 -17.305 -0.09 -1.02    -0.650 OA
DOCKED: BRANCH  41  43
DOCKED: ATOM     43  O   UNL d   1      -5.712  -7.261 -16.570 -0.41 -1.37    -0.776 OA
DOCKED: ATOM     44  H   UNL d   1      -6.638  -7.276 -16.297 +0.04 +0.18    +0.167 HD
DOCKED: ENDBRANCH  41  43
DOCKED: ENDBRANCH  40  41
DOCKED: ENDBRANCH  39  40
DOCKED: ENDBRANCH  22  39
DOCKED: BRANCH  12  45
DOCKED: ATOM     45  C   UNL d   1      -9.631   1.705  -6.898 -0.23 +0.00    +0.004 C 
DOCKED: ATOM     46  C   UNL d   1     -10.846   2.042  -6.474 -0.19 -0.00    +0.012 C 
DOCKED: ENDBRANCH  12  45
DOCKED: BRANCH  17  47
DOCKED: ATOM     47  C   UNL d   1      -8.775  -5.935  -8.301 -0.54 +0.00    +0.004 C 
DOCKED: ATOM     48  C   UNL d   1      -9.836  -6.745  -8.278 -0.46 +0.00    +0.012 C 
DOCKED: ENDBRANCH  17  47
DOCKED: TORSDOF 12
DOCKED: TER
DOCKED: ENDMDL
________________________________________________________________________________


	BEGINNING GENETIC ALGORITHM DOCKING 67 of 100
Run: 67 Seed: 742536812 1425774187 [ Run 67 of 100 GA/GALS ]
Beginning LAMARCKIAN GENETIC ALGORITHM (LGA), with a maximum of 25000000 energy evaluations.

Final-Value: -12.328


	FINAL GENETIC ALGORITHM DOCKED STATE
	_______________________________________________


Detailed state:  trans -3.978 -11.256 11.476 quatxyzw -0.597153 -0.144884 -0.779122 0.124038 center 8.781 34.984 -0.736 ntor 12 73.6927 104.9576 -10.2622 24.7189 137.9011 159.1377 -166.2684 -135.1041 91.8455 -9.3515 11.3127 55.9725
State:	 -3.978 -11.256  11.476  -0.602 -0.146 -0.785 165.750     73.69  104.96  -10.26   24.72  137.90  159.14 -166.27 -135.10   91.85   -9.35   11.31   55.97

DOCKED: MODEL       67
DOCKED: USER    Run = 67
DOCKED: USER    DPF = D:/Protein_go_brrr/autodock/final/AncB/heme_Co/dock.dpf
DOCKED: USER  
DOCKED: USER    Estimated Free Energy of Binding    =   -7.08 kcal/mol  [=(1)+(2)+(3)-(4)]
DOCKED: USER    Estimated Inhibition Constant, Ki   =    6.49 uM (micromolar)  [Temperature = 298.15 K]
DOCKED: USER    
DOCKED: USER    (1) Final Intermolecular Energy     =  -10.66 kcal/mol
DOCKED: USER        vdW + Hbond + desolv Energy     =   -7.70 kcal/mol
DOCKED: USER        Electrostatic Energy            =   -2.95 kcal/mol
DOCKED: USER    (2) Final Total Internal Energy     =   -1.67 kcal/mol
DOCKED: USER    (3) Torsional Free Energy           =   +3.58 kcal/mol
DOCKED: USER    (4) Unbound System's Energy  [=(2)] =   -1.67 kcal/mol
DOCKED: USER    
DOCKED: USER    
DOCKED: USER    NEWDPF move heme_Co_opt.pdbqt
DOCKED: USER    NEWDPF about 8.781000 34.984000 -0.736000
DOCKED: USER    NEWDPF tran0 -3.978254 -11.255808 11.476230
DOCKED: USER    NEWDPF quaternion0 -0.597153 -0.144884 -0.779122 0.124038
DOCKED: USER    NEWDPF axisangle0 -0.601801 -0.146011 -0.785186 165.749593
DOCKED: USER    NEWDPF quat0 -0.601801 -0.146011 -0.785186 165.749593
DOCKED: USER    NEWDPF dihe0 73.69 104.96 -10.26 24.72 137.90 159.14 -166.27 -135.10 91.85 -9.35 11.31 55.97 
DOCKED: USER  keepresnum = 1 
DOCKED: USER  
DOCKED: REMARK  12 active torsions:
DOCKED: REMARK  status: ('A' for Active; 'I' for Inactive)
DOCKED: REMARK    1  A    between atoms: C_6  and  C_10 
DOCKED: REMARK    2  A    between atoms: C_10  and  C_11 
DOCKED: REMARK    3  A    between atoms: C_11  and  C_12 
DOCKED: REMARK    4  A    between atoms: C_12  and  O_14 
DOCKED: REMARK    5  A    between atoms: C_17  and  C_20 
DOCKED: REMARK    6  A    between atoms: C_24  and  C_27 
DOCKED: REMARK    7  A    between atoms: C_31  and  C_34 
DOCKED: REMARK    8  A    between atoms: C_34  and  C_35 
DOCKED: REMARK    9  A    between atoms: C_35  and  C_36 
DOCKED: REMARK   10  A    between atoms: C_36  and  O_38 
DOCKED: REMARK   11  A    between atoms: FE_43  and  C_44 
DOCKED: REMARK   12  A    between atoms: C_44  and  O_45 
DOCKED: USER                              x       y       z     vdW  Elec       q    Type
DOCKED: USER                           _______ _______ _______ _____ _____    ______ ____
DOCKED: ROOT
DOCKED: ATOM      1  C   UNL d   1      -4.314 -12.493   9.724 -0.15 +0.03    +0.064 A 
DOCKED: ATOM      2  C   UNL d   1      -0.973  -9.276  10.770 -0.20 +0.01    +0.064 C 
DOCKED: ATOM      3  C   UNL d   1      -3.217  -8.218  14.853 -0.14 +0.01    +0.064 A 
DOCKED: ATOM      4  C   UNL d   1      -6.430 -11.768  13.992 -0.20 +0.03    +0.064 A 
DOCKED: ATOM      5  C   UNL d   1      -3.256 -11.666   9.692 -0.14 +0.02    +0.066 A 
DOCKED: ATOM      6  C   UNL d   1      -2.295 -11.721   8.664 -0.18 -0.01    -0.021 A 
DOCKED: ATOM      7  C   UNL d   1      -1.316 -10.801   8.985 -0.18 -0.01    -0.025 A 
DOCKED: ATOM      8  C   UNL d   1      -1.730 -10.213  10.185 -0.19 +0.01    +0.066 A 
DOCKED: ATOM      9  C   UNL d   1      -0.035 -10.477   8.202 +0.12 +0.01    +0.051 C 
DOCKED: ATOM     10  C   UNL d   1      -1.330  -8.597  11.991 -0.21 +0.01    +0.066 A 
DOCKED: ATOM     11  C   UNL d   1      -0.651  -7.508  12.580 -0.25 -0.00    -0.021 A 
DOCKED: ATOM     12  C   UNL d   1      -1.329  -7.217  13.767 -0.23 +0.00    +0.000 A 
DOCKED: ATOM     13  C   UNL d   1      -2.375  -8.139  13.808 -0.14 +0.01    +0.070 A 
DOCKED: ATOM     14  C   UNL d   1       0.507  -6.750  11.983 -0.31 +0.00    +0.052 C 
DOCKED: ATOM     15  C   UNL d   1      -4.314  -9.137  15.083 -0.06 +0.03    +0.066 A 
DOCKED: ATOM     16  C   UNL d   1      -5.054  -9.260  16.251 -0.13 -0.01    -0.021 A 
DOCKED: ATOM     17  C   UNL d   1      -5.980 -10.284  16.008 -0.14 +0.00    +0.000 A 
DOCKED: ATOM     18  C   UNL d   1      -5.743 -10.695  14.701 -0.08 +0.05    +0.070 A 
DOCKED: ATOM     19  C   UNL d   1      -4.860  -8.433  17.503 -0.11 +0.00    +0.052 C 
DOCKED: ATOM     20  C   UNL d   1      -6.158 -12.243  12.753 -0.22 +0.03    +0.066 A 
DOCKED: ATOM     21  C   UNL d   1      -6.867 -13.304  12.192 -0.27 -0.01    -0.025 A 
DOCKED: ATOM     22  C   UNL d   1      -6.298 -13.516  10.950 -0.23 -0.01    -0.021 A 
DOCKED: ATOM     23  C   UNL d   1      -5.255 -12.575  10.818 -0.18 +0.03    +0.066 A 
DOCKED: ATOM     24  C   UNL d   1      -8.016 -14.090  12.817 -0.31 +0.02    +0.051 C 
DOCKED: ATOM     25  N   UNL d   1      -2.931 -10.726  10.643 -0.11 -0.07    -0.248 N 
DOCKED: ATOM     26  N   UNL d   1      -2.408  -8.935  12.706 -0.13 -0.06    -0.248 N 
DOCKED: ATOM     27  N   UNL d   1      -4.724 -10.012  14.192 -0.02 -0.14    -0.248 N 
DOCKED: ATOM     28  N   UNL d   1      -5.165 -11.804  11.909 -0.12 -0.11    -0.248 N 
DOCKED: ATOM     29 FE   UNL d   1      -3.883 -10.350  12.522 -0.05 +0.00    +0.000 Fe
DOCKED: ENDROOT
DOCKED: BRANCH   6  30
DOCKED: ATOM     30  C   UNL d   1      -2.288 -12.677   7.476 -0.18 +0.02    +0.052 C 
DOCKED: BRANCH  30  31
DOCKED: ATOM     31  C   UNL d   1      -2.924 -12.018   6.252 -0.13 +0.04    +0.115 C 
DOCKED: BRANCH  31  32
DOCKED: ATOM     32  C   UNL d   1      -4.416 -12.260   6.176 -0.31 +0.07    +0.139 C 
DOCKED: ATOM     33  O   UNL d   1      -5.143 -11.807   7.047 +0.01 -0.37    -0.650 OA
DOCKED: BRANCH  32  34
DOCKED: ATOM     34  O   UNL d   1      -4.983 -12.925   5.143 +0.06 -0.62    -0.776 OA
DOCKED: ATOM     35  H   UNL d   1      -4.873 -13.872   4.980 -0.01 +0.18    +0.167 HD
DOCKED: ENDBRANCH  32  34
DOCKED: ENDBRANCH  31  32
DOCKED: ENDBRANCH  30  31
DOCKED: ENDBRANCH   6  30
DOCKED: BRANCH  29  36
DOCKED: ATOM     36  C   UNL d   1      -2.598 -11.793  13.334 -0.03 +0.04    +0.190 C 
DOCKED: BRANCH  36  37
DOCKED: ATOM     37  O   UNL d   1      -1.524 -12.632  13.020 +0.00 -0.07    -0.399 OA
DOCKED: ATOM     38  H   UNL d   1      -1.417 -12.552  12.031 +0.02 +0.04    +0.209 HD
DOCKED: ENDBRANCH  36  37
DOCKED: ENDBRANCH  29  36
DOCKED: BRANCH  22  39
DOCKED: ATOM     39  C   UNL d   1      -6.697 -14.608   9.975 -0.22 +0.04    +0.052 C 
DOCKED: BRANCH  39  40
DOCKED: ATOM     40  C   UNL d   1      -6.289 -14.231   8.541 -0.23 +0.11    +0.115 C 
DOCKED: BRANCH  40  41
DOCKED: ATOM     41  C   UNL d   1      -6.316 -15.384   7.560 -0.20 +0.21    +0.139 C 
DOCKED: ATOM     42  O   UNL d   1      -6.699 -16.482   7.938 -0.62 -1.22    -0.650 OA
DOCKED: BRANCH  41  43
DOCKED: ATOM     43  O   UNL d   1      -6.011 -15.213   6.255 -0.41 -1.62    -0.776 OA
DOCKED: ATOM     44  H   UNL d   1      -5.816 -14.346   5.876 +0.06 +0.29    +0.167 HD
DOCKED: ENDBRANCH  41  43
DOCKED: ENDBRANCH  40  41
DOCKED: ENDBRANCH  39  40
DOCKED: ENDBRANCH  22  39
DOCKED: BRANCH  12  45
DOCKED: ATOM     45  C   UNL d   1      -1.121  -6.169  14.851 -0.30 -0.00    +0.004 C 
DOCKED: ATOM     46  C   UNL d   1      -0.404  -5.048  14.846 -0.34 -0.00    +0.012 C 
DOCKED: ENDBRANCH  12  45
DOCKED: BRANCH  17  47
DOCKED: ATOM     47  C   UNL d   1      -6.991 -10.892  16.924 -0.12 +0.00    +0.004 C 
DOCKED: ATOM     48  C   UNL d   1      -8.309 -10.820  16.720 -0.20 +0.00    +0.012 C 
DOCKED: ENDBRANCH  17  47
DOCKED: TORSDOF 12
DOCKED: TER
DOCKED: ENDMDL
________________________________________________________________________________


	BEGINNING GENETIC ALGORITHM DOCKING 68 of 100
Run: 68 Seed: 837173407 705864135 [ Run 68 of 100 GA/GALS ]
Beginning LAMARCKIAN GENETIC ALGORITHM (LGA), with a maximum of 25000000 energy evaluations.

Final-Value: -11.707


	FINAL GENETIC ALGORITHM DOCKED STATE
	_______________________________________________


Detailed state:  trans 15.743 -0.461 -11.768 quatxyzw -0.027975 0.693947 -0.420260 -0.583984 center 8.781 34.984 -0.736 ntor 12 99.2722 107.0524 67.7257 116.2505 -95.0416 -117.2243 -158.6996 -177.6497 -35.1577 -16.2521 -178.0726 127.8194
State:	 15.743  -0.461 -11.768  -0.034  0.855 -0.518 -108.538     99.27  107.05   67.73  116.25  -95.04 -117.22 -158.70 -177.65  -35.16  -16.25 -178.07  127.82

DOCKED: MODEL       68
DOCKED: USER    Run = 68
DOCKED: USER    DPF = D:/Protein_go_brrr/autodock/final/AncB/heme_Co/dock.dpf
DOCKED: USER  
DOCKED: USER    Estimated Free Energy of Binding    =   -6.43 kcal/mol  [=(1)+(2)+(3)-(4)]
DOCKED: USER    Estimated Inhibition Constant, Ki   =   19.38 uM (micromolar)  [Temperature = 298.15 K]
DOCKED: USER    
DOCKED: USER    (1) Final Intermolecular Energy     =  -10.01 kcal/mol
DOCKED: USER        vdW + Hbond + desolv Energy     =   -7.81 kcal/mol
DOCKED: USER        Electrostatic Energy            =   -2.19 kcal/mol
DOCKED: USER    (2) Final Total Internal Energy     =   -1.70 kcal/mol
DOCKED: USER    (3) Torsional Free Energy           =   +3.58 kcal/mol
DOCKED: USER    (4) Unbound System's Energy  [=(2)] =   -1.70 kcal/mol
DOCKED: USER    
DOCKED: USER    
DOCKED: USER    NEWDPF move heme_Co_opt.pdbqt
DOCKED: USER    NEWDPF about 8.781000 34.984000 -0.736000
DOCKED: USER    NEWDPF tran0 15.742644 -0.461388 -11.767526
DOCKED: USER    NEWDPF quaternion0 -0.027975 0.693947 -0.420260 -0.583984
DOCKED: USER    NEWDPF axisangle0 -0.034462 0.854861 -0.517711 -108.537576
DOCKED: USER    NEWDPF quat0 -0.034462 0.854861 -0.517711 -108.537576
DOCKED: USER    NEWDPF dihe0 99.27 107.05 67.73 116.25 -95.04 -117.22 -158.70 -177.65 -35.16 -16.25 -178.07 127.82 
DOCKED: USER  keepresnum = 1 
DOCKED: USER  
DOCKED: REMARK  12 active torsions:
DOCKED: REMARK  status: ('A' for Active; 'I' for Inactive)
DOCKED: REMARK    1  A    between atoms: C_6  and  C_10 
DOCKED: REMARK    2  A    between atoms: C_10  and  C_11 
DOCKED: REMARK    3  A    between atoms: C_11  and  C_12 
DOCKED: REMARK    4  A    between atoms: C_12  and  O_14 
DOCKED: REMARK    5  A    between atoms: C_17  and  C_20 
DOCKED: REMARK    6  A    between atoms: C_24  and  C_27 
DOCKED: REMARK    7  A    between atoms: C_31  and  C_34 
DOCKED: REMARK    8  A    between atoms: C_34  and  C_35 
DOCKED: REMARK    9  A    between atoms: C_35  and  C_36 
DOCKED: REMARK   10  A    between atoms: C_36  and  O_38 
DOCKED: REMARK   11  A    between atoms: FE_43  and  C_44 
DOCKED: REMARK   12  A    between atoms: C_44  and  O_45 
DOCKED: USER                              x       y       z     vdW  Elec       q    Type
DOCKED: USER                           _______ _______ _______ _____ _____    ______ ____
DOCKED: ROOT
DOCKED: ATOM      1  C   UNL d   1      15.871   1.354 -10.582 -0.24 +0.03    +0.064 A 
DOCKED: ATOM      2  C   UNL d   1      17.386  -3.086  -9.803 -0.20 +0.02    +0.064 C 
DOCKED: ATOM      3  C   UNL d   1      15.286  -4.551 -13.837 -0.11 +0.02    +0.064 A 
DOCKED: ATOM      4  C   UNL d   1      14.058   0.046 -14.851 -0.24 +0.02    +0.064 A 
DOCKED: ATOM      5  C   UNL d   1      16.408   0.241 -10.054 -0.33 +0.03    +0.066 A 
DOCKED: ATOM      6  C   UNL d   1      17.185   0.271  -8.880 -0.21 -0.01    -0.021 A 
DOCKED: ATOM      7  C   UNL d   1      17.641  -1.016  -8.671 -0.26 -0.01    -0.025 A 
DOCKED: ATOM      8  C   UNL d   1      17.110  -1.778  -9.717 -0.24 +0.02    +0.066 A 
DOCKED: ATOM      9  C   UNL d   1      18.543  -1.523  -7.536 -0.26 +0.02    +0.051 C 
DOCKED: ATOM     10  C   UNL d   1      16.864  -3.956 -10.827 -0.15 +0.03    +0.066 A 
DOCKED: ATOM     11  C   UNL d   1      17.001  -5.359 -10.893 -0.13 -0.01    -0.021 A 
DOCKED: ATOM     12  C   UNL d   1      16.376  -5.760 -12.077 -0.13 +0.00    +0.000 A 
DOCKED: ATOM     13  C   UNL d   1      15.894  -4.577 -12.638 -0.09 +0.03    +0.070 A 
DOCKED: ATOM     14  C   UNL d   1      17.608  -6.247  -9.837 -0.10 +0.02    +0.052 C 
DOCKED: ATOM     15  C   UNL d   1      14.777  -3.418 -14.585 -0.13 +0.02    +0.066 A 
DOCKED: ATOM     16  C   UNL d   1      14.290  -3.442 -15.884 -0.10 -0.00    -0.021 A 
DOCKED: ATOM     17  C   UNL d   1      13.937  -2.118 -16.182 -0.15 +0.00    +0.000 A 
DOCKED: ATOM     18  C   UNL d   1      14.221  -1.392 -15.031 -0.19 +0.02    +0.070 A 
DOCKED: ATOM     19  C   UNL d   1      14.184  -4.671 -16.759 -0.04 +0.01    +0.052 C 
DOCKED: ATOM     20  C   UNL d   1      14.408   0.787 -13.772 -0.28 +0.02    +0.066 A 
DOCKED: ATOM     21  C   UNL d   1      14.235   2.168 -13.732 -0.30 -0.01    -0.025 A 
DOCKED: ATOM     22  C   UNL d   1      14.722   2.569 -12.501 -0.31 -0.01    -0.021 A 
DOCKED: ATOM     23  C   UNL d   1      15.183   1.405 -11.852 -0.26 +0.03    +0.066 A 
DOCKED: ATOM     24  C   UNL d   1      13.652   3.066 -14.820 -0.08 +0.02    +0.051 C 
DOCKED: ATOM     25  N   UNL d   1      16.337  -1.027 -10.585 -0.20 -0.09    -0.248 N 
DOCKED: ATOM     26  N   UNL d   1      16.141  -3.494 -11.853 -0.10 -0.10    -0.248 N 
DOCKED: ATOM     27  N   UNL d   1      14.748  -2.193 -14.111 -0.10 -0.08    -0.248 N 
DOCKED: ATOM     28  N   UNL d   1      14.997   0.324 -12.619 -0.18 -0.08    -0.248 N 
DOCKED: ATOM     29 FE   UNL d   1      15.494  -1.641 -12.453 -0.06 +0.00    +0.000 Fe
DOCKED: ENDROOT
DOCKED: BRANCH   6  30
DOCKED: ATOM     30  C   UNL d   1      17.534   1.503  -8.051 -0.18 +0.03    +0.052 C 
DOCKED: BRANCH  30  31
DOCKED: ATOM     31  C   UNL d   1      18.883   2.077  -8.484 -0.18 +0.07    +0.115 C 
DOCKED: BRANCH  31  32
DOCKED: ATOM     32  C   UNL d   1      18.905   3.590  -8.445 -0.08 +0.16    +0.139 C 
DOCKED: ATOM     33  O   UNL d   1      18.918   4.163  -7.366 -0.50 -0.96    -0.650 OA
DOCKED: BRANCH  32  34
DOCKED: ATOM     34  O   UNL d   1      18.961   4.336  -9.573 -0.11 -0.78    -0.776 OA
DOCKED: ATOM     35  H   UNL d   1      18.187   4.708 -10.017 +0.04 +0.21    +0.167 HD
DOCKED: ENDBRANCH  32  34
DOCKED: ENDBRANCH  31  32
DOCKED: ENDBRANCH  30  31
DOCKED: ENDBRANCH   6  30
DOCKED: BRANCH  29  36
DOCKED: ATOM     36  C   UNL d   1      17.374  -1.261 -13.299 -0.05 +0.05    +0.190 C 
DOCKED: BRANCH  36  37
DOCKED: ATOM     37  O   UNL d   1      18.616  -1.847 -13.564 +0.00 -0.09    -0.399 OA
DOCKED: ATOM     38  H   UNL d   1      18.577  -2.741 -13.121 +0.02 +0.05    +0.209 HD
DOCKED: ENDBRANCH  36  37
DOCKED: ENDBRANCH  29  36
DOCKED: BRANCH  22  39
DOCKED: ATOM     39  C   UNL d   1      14.797   4.003 -12.010 -0.39 +0.03    +0.052 C 
DOCKED: BRANCH  39  40
DOCKED: ATOM     40  C   UNL d   1      16.197   4.313 -11.454 -0.25 +0.09    +0.115 C 
DOCKED: BRANCH  40  41
DOCKED: ATOM     41  C   UNL d   1      16.545   5.786 -11.425 -0.29 +0.11    +0.139 C 
DOCKED: ATOM     42  O   UNL d   1      16.206   6.500 -12.359 -0.14 -0.37    -0.650 OA
DOCKED: BRANCH  41  43
DOCKED: ATOM     43  O   UNL d   1      17.146   6.354 -10.356 -0.17 -0.96    -0.776 OA
DOCKED: ATOM     44  H   UNL d   1      18.079   6.215 -10.150 +0.03 +0.19    +0.167 HD
DOCKED: ENDBRANCH  41  43
DOCKED: ENDBRANCH  40  41
DOCKED: ENDBRANCH  39  40
DOCKED: ENDBRANCH  22  39
DOCKED: BRANCH  12  45
DOCKED: ATOM     45  C   UNL d   1      16.163  -7.120 -12.730 -0.10 +0.00    +0.004 C 
DOCKED: ATOM     46  C   UNL d   1      15.062  -7.854 -12.862 -0.11 +0.01    +0.012 C 
DOCKED: ENDBRANCH  12  45
DOCKED: BRANCH  17  47
DOCKED: ATOM     47  C   UNL d   1      13.418  -1.532 -17.454 -0.12 +0.00    +0.004 C 
DOCKED: ATOM     48  C   UNL d   1      14.076  -0.614 -18.165 -0.10 +0.00    +0.012 C 
DOCKED: ENDBRANCH  17  47
DOCKED: TORSDOF 12
DOCKED: TER
DOCKED: ENDMDL
________________________________________________________________________________


	BEGINNING GENETIC ALGORITHM DOCKING 69 of 100
Run: 69 Seed: 13371264 2125769547 [ Run 69 of 100 GA/GALS ]
Beginning LAMARCKIAN GENETIC ALGORITHM (LGA), with a maximum of 25000000 energy evaluations.

Final-Value: -12.539


	FINAL GENETIC ALGORITHM DOCKED STATE
	_______________________________________________


Detailed state:  trans -7.521 -1.466 -12.481 quatxyzw -0.011800 0.629494 -0.477033 0.613220 center 8.781 34.984 -0.736 ntor 12 18.2929 110.7117 99.6127 83.3658 94.3823 81.5191 -111.5852 177.6400 -39.2602 147.7396 11.5893 9.0322
State:	 -7.521  -1.466 -12.481  -0.015  0.797 -0.604 104.355     18.29  110.71   99.61   83.37   94.38   81.52 -111.59  177.64  -39.26  147.74   11.59    9.03

DOCKED: MODEL       69
DOCKED: USER    Run = 69
DOCKED: USER    DPF = D:/Protein_go_brrr/autodock/final/AncB/heme_Co/dock.dpf
DOCKED: USER  
DOCKED: USER    Estimated Free Energy of Binding    =   -8.12 kcal/mol  [=(1)+(2)+(3)-(4)]
DOCKED: USER    Estimated Inhibition Constant, Ki   =    1.12 uM (micromolar)  [Temperature = 298.15 K]
DOCKED: USER    
DOCKED: USER    (1) Final Intermolecular Energy     =  -11.70 kcal/mol
DOCKED: USER        vdW + Hbond + desolv Energy     =   -7.48 kcal/mol
DOCKED: USER        Electrostatic Energy            =   -4.21 kcal/mol
DOCKED: USER    (2) Final Total Internal Energy     =   -0.84 kcal/mol
DOCKED: USER    (3) Torsional Free Energy           =   +3.58 kcal/mol
DOCKED: USER    (4) Unbound System's Energy  [=(2)] =   -0.84 kcal/mol
DOCKED: USER    
DOCKED: USER    
DOCKED: USER    NEWDPF move heme_Co_opt.pdbqt
DOCKED: USER    NEWDPF about 8.781000 34.984000 -0.736000
DOCKED: USER    NEWDPF tran0 -7.520816 -1.465988 -12.481405
DOCKED: USER    NEWDPF quaternion0 -0.011800 0.629494 -0.477033 0.613220
DOCKED: USER    NEWDPF axisangle0 -0.014938 0.796916 -0.603906 104.354658
DOCKED: USER    NEWDPF quat0 -0.014938 0.796916 -0.603906 104.354658
DOCKED: USER    NEWDPF dihe0 18.29 110.71 99.61 83.37 94.38 81.52 -111.59 177.64 -39.26 147.74 11.59 9.03 
DOCKED: USER  keepresnum = 1 
DOCKED: USER  
DOCKED: REMARK  12 active torsions:
DOCKED: REMARK  status: ('A' for Active; 'I' for Inactive)
DOCKED: REMARK    1  A    between atoms: C_6  and  C_10 
DOCKED: REMARK    2  A    between atoms: C_10  and  C_11 
DOCKED: REMARK    3  A    between atoms: C_11  and  C_12 
DOCKED: REMARK    4  A    between atoms: C_12  and  O_14 
DOCKED: REMARK    5  A    between atoms: C_17  and  C_20 
DOCKED: REMARK    6  A    between atoms: C_24  and  C_27 
DOCKED: REMARK    7  A    between atoms: C_31  and  C_34 
DOCKED: REMARK    8  A    between atoms: C_34  and  C_35 
DOCKED: REMARK    9  A    between atoms: C_35  and  C_36 
DOCKED: REMARK   10  A    between atoms: C_36  and  O_38 
DOCKED: REMARK   11  A    between atoms: FE_43  and  C_44 
DOCKED: REMARK   12  A    between atoms: C_44  and  O_45 
DOCKED: USER                              x       y       z     vdW  Elec       q    Type
DOCKED: USER                           _______ _______ _______ _____ _____    ______ ____
DOCKED: ROOT
DOCKED: ATOM      1  C   UNL d   1      -6.694  -1.775 -14.466 -0.06 +0.08    +0.064 A 
DOCKED: ATOM      2  C   UNL d   1      -8.252  -4.803 -11.147 -0.28 +0.03    +0.064 C 
DOCKED: ATOM      3  C   UNL d   1      -8.922  -1.181  -8.103 -0.16 +0.02    +0.064 A 
DOCKED: ATOM      4  C   UNL d   1      -7.702   1.969 -11.604 -0.08 +0.04    +0.064 A 
DOCKED: ATOM      5  C   UNL d   1      -7.036  -2.872 -13.770 -0.10 +0.08    +0.066 A 
DOCKED: ATOM      6  C   UNL d   1      -7.043  -4.154 -14.353 -0.13 -0.02    -0.021 A 
DOCKED: ATOM      7  C   UNL d   1      -7.517  -5.026 -13.392 -0.18 -0.02    -0.025 A 
DOCKED: ATOM      8  C   UNL d   1      -7.764  -4.241 -12.260 -0.17 +0.04    +0.066 A 
DOCKED: ATOM      9  C   UNL d   1      -7.736  -6.541 -13.520 -0.26 +0.03    +0.051 C 
DOCKED: ATOM     10  C   UNL d   1      -8.512  -4.081  -9.926 -0.21 +0.03    +0.066 A 
DOCKED: ATOM     11  C   UNL d   1      -8.890  -4.634  -8.683 -0.34 -0.01    -0.021 A 
DOCKED: ATOM     12  C   UNL d   1      -9.075  -3.556  -7.813 -0.29 +0.00    +0.000 A 
DOCKED: ATOM     13  C   UNL d   1      -8.785  -2.429  -8.583 -0.16 +0.02    +0.070 A 
DOCKED: ATOM     14  C   UNL d   1      -8.969  -6.101  -8.346 -0.50 +0.02    +0.052 C 
DOCKED: ATOM     15  C   UNL d   1      -8.718   0.089  -8.772 -0.13 +0.02    +0.066 A 
DOCKED: ATOM     16  C   UNL d   1      -9.018   1.345  -8.263 -0.21 -0.00    -0.021 A 
DOCKED: ATOM     17  C   UNL d   1      -8.670   2.257  -9.269 -0.16 +0.00    +0.000 A 
DOCKED: ATOM     18  C   UNL d   1      -8.168   1.483 -10.311 -0.08 +0.03    +0.070 A 
DOCKED: ATOM     19  C   UNL d   1      -9.601   1.620  -6.894 -0.22 +0.01    +0.052 C 
DOCKED: ATOM     20  C   UNL d   1      -7.291   1.231 -12.662 -0.06 +0.05    +0.066 A 
DOCKED: ATOM     21  C   UNL d   1      -6.900   1.812 -13.867 -0.07 -0.02    -0.025 A 
DOCKED: ATOM     22  C   UNL d   1      -6.577   0.758 -14.702 -0.04 -0.02    -0.021 A 
DOCKED: ATOM     23  C   UNL d   1      -6.799  -0.424 -13.963 -0.05 +0.07    +0.066 A 
DOCKED: ATOM     24  C   UNL d   1      -6.857   3.298 -14.213 -0.08 +0.05    +0.051 C 
DOCKED: ATOM     25  N   UNL d   1      -7.470  -2.904 -12.464 -0.07 -0.20    -0.248 N 
DOCKED: ATOM     26  N   UNL d   1      -8.391  -2.752  -9.844 -0.08 -0.10    -0.248 N 
DOCKED: ATOM     27  N   UNL d   1      -8.240   0.196  -9.991 -0.03 -0.10    -0.248 N 
DOCKED: ATOM     28  N   UNL d   1      -7.234  -0.142 -12.729 -0.02 -0.19    -0.248 N 
DOCKED: ATOM     29 FE   UNL d   1      -7.876  -1.260 -11.157 -0.02 +0.00    +0.000 Fe
DOCKED: ENDROOT
DOCKED: BRANCH   6  30
DOCKED: ATOM     30  C   UNL d   1      -6.685  -4.500 -15.794 -0.12 +0.05    +0.052 C 
DOCKED: BRANCH  30  31
DOCKED: ATOM     31  C   UNL d   1      -5.226  -4.945 -15.894 -0.08 +0.16    +0.115 C 
DOCKED: BRANCH  31  32
DOCKED: ATOM     32  C   UNL d   1      -5.045  -6.125 -16.824 -0.16 +0.20    +0.139 C 
DOCKED: ATOM     33  O   UNL d   1      -4.339  -6.007 -17.814 -0.07 -1.02    -0.650 OA
DOCKED: BRANCH  32  34
DOCKED: ATOM     34  O   UNL d   1      -5.602  -7.332 -16.569 -0.37 -1.47    -0.776 OA
DOCKED: ATOM     35  H   UNL d   1      -6.296  -7.482 -15.912 +0.05 +0.19    +0.167 HD
DOCKED: ENDBRANCH  32  34
DOCKED: ENDBRANCH  31  32
DOCKED: ENDBRANCH  30  31
DOCKED: ENDBRANCH   6  30
DOCKED: BRANCH  29  36
DOCKED: ATOM     36  C   UNL d   1      -9.824  -1.272 -11.931 -0.01 +0.08    +0.190 C 
DOCKED: BRANCH  36  37
DOCKED: ATOM     37  O   UNL d   1     -10.574  -0.949 -13.067 +0.00 -0.15    -0.399 OA
DOCKED: ATOM     38  H   UNL d   1      -9.917  -0.548 -13.702 +0.00 +0.09    +0.209 HD
DOCKED: ENDBRANCH  36  37
DOCKED: ENDBRANCH  29  36
DOCKED: BRANCH  22  39
DOCKED: ATOM     39  C   UNL d   1      -6.141   0.884 -16.150 -0.03 +0.05    +0.052 C 
DOCKED: BRANCH  39  40
DOCKED: ATOM     40  C   UNL d   1      -4.658   0.508 -16.305 -0.05 +0.13    +0.115 C 
DOCKED: BRANCH  40  41
DOCKED: ATOM     41  C   UNL d   1      -3.775   0.964 -15.163 -0.10 +0.21    +0.139 C 
DOCKED: ATOM     42  O   UNL d   1      -3.907   2.096 -14.719 -0.52 -1.42    -0.650 OA
DOCKED: BRANCH  41  43
DOCKED: ATOM     43  O   UNL d   1      -2.903   0.126 -14.560 -0.24 -1.50    -0.776 OA
DOCKED: ATOM     44  H   UNL d   1      -1.949   0.178 -14.704 +0.03 +0.26    +0.167 HD
DOCKED: ENDBRANCH  41  43
DOCKED: ENDBRANCH  40  41
DOCKED: ENDBRANCH  39  40
DOCKED: ENDBRANCH  22  39
DOCKED: BRANCH  12  45
DOCKED: ATOM     45  C   UNL d   1      -9.471  -3.462  -6.346 -0.46 +0.00    +0.004 C 
DOCKED: ATOM     46  C   UNL d   1      -8.774  -3.718  -5.242 -0.62 +0.00    +0.012 C 
DOCKED: ENDBRANCH  12  45
DOCKED: BRANCH  17  47
DOCKED: ATOM     47  C   UNL d   1      -8.829   3.741  -9.309 -0.19 +0.00    +0.004 C 
DOCKED: ATOM     48  C   UNL d   1      -8.078   4.582  -8.594 -0.34 +0.00    +0.012 C 
DOCKED: ENDBRANCH  17  47
DOCKED: TORSDOF 12
DOCKED: TER
DOCKED: ENDMDL
________________________________________________________________________________


	BEGINNING GENETIC ALGORITHM DOCKING 70 of 100
Run: 70 Seed: 544216485 551448104 [ Run 70 of 100 GA/GALS ]
Beginning LAMARCKIAN GENETIC ALGORITHM (LGA), with a maximum of 25000000 energy evaluations.

Final-Value: -11.910


	FINAL GENETIC ALGORITHM DOCKED STATE
	_______________________________________________


Detailed state:  trans -3.527 -11.294 10.663 quatxyzw -0.634137 -0.113663 -0.748444 0.157425 center 8.781 34.984 -0.736 ntor 12 -166.0238 127.1802 32.1606 110.9543 136.0008 129.1549 48.4371 170.7499 164.3785 18.9769 -157.9539 122.6903
State:	 -3.527 -11.294  10.663  -0.642 -0.115 -0.758 161.885   -166.02  127.18   32.16  110.95  136.00  129.15   48.44  170.75  164.38   18.98 -157.95  122.69

DOCKED: MODEL       70
DOCKED: USER    Run = 70
DOCKED: USER    DPF = D:/Protein_go_brrr/autodock/final/AncB/heme_Co/dock.dpf
DOCKED: USER  
DOCKED: USER    Estimated Free Energy of Binding    =   -6.11 kcal/mol  [=(1)+(2)+(3)-(4)]
DOCKED: USER    Estimated Inhibition Constant, Ki   =   33.38 uM (micromolar)  [Temperature = 298.15 K]
DOCKED: USER    
DOCKED: USER    (1) Final Intermolecular Energy     =   -9.69 kcal/mol
DOCKED: USER        vdW + Hbond + desolv Energy     =   -7.07 kcal/mol
DOCKED: USER        Electrostatic Energy            =   -2.61 kcal/mol
DOCKED: USER    (2) Final Total Internal Energy     =   -2.22 kcal/mol
DOCKED: USER    (3) Torsional Free Energy           =   +3.58 kcal/mol
DOCKED: USER    (4) Unbound System's Energy  [=(2)] =   -2.22 kcal/mol
DOCKED: USER    
DOCKED: USER    
DOCKED: USER    NEWDPF move heme_Co_opt.pdbqt
DOCKED: USER    NEWDPF about 8.781000 34.984000 -0.736000
DOCKED: USER    NEWDPF tran0 -3.527360 -11.293560 10.662772
DOCKED: USER    NEWDPF quaternion0 -0.634137 -0.113663 -0.748444 0.157425
DOCKED: USER    NEWDPF axisangle0 -0.642144 -0.115098 -0.757894 161.885091
DOCKED: USER    NEWDPF quat0 -0.642144 -0.115098 -0.757894 161.885091
DOCKED: USER    NEWDPF dihe0 -166.02 127.18 32.16 110.95 136.00 129.15 48.44 170.75 164.38 18.98 -157.95 122.69 
DOCKED: USER  keepresnum = 1 
DOCKED: USER  
DOCKED: REMARK  12 active torsions:
DOCKED: REMARK  status: ('A' for Active; 'I' for Inactive)
DOCKED: REMARK    1  A    between atoms: C_6  and  C_10 
DOCKED: REMARK    2  A    between atoms: C_10  and  C_11 
DOCKED: REMARK    3  A    between atoms: C_11  and  C_12 
DOCKED: REMARK    4  A    between atoms: C_12  and  O_14 
DOCKED: REMARK    5  A    between atoms: C_17  and  C_20 
DOCKED: REMARK    6  A    between atoms: C_24  and  C_27 
DOCKED: REMARK    7  A    between atoms: C_31  and  C_34 
DOCKED: REMARK    8  A    between atoms: C_34  and  C_35 
DOCKED: REMARK    9  A    between atoms: C_35  and  C_36 
DOCKED: REMARK   10  A    between atoms: C_36  and  O_38 
DOCKED: REMARK   11  A    between atoms: FE_43  and  C_44 
DOCKED: REMARK   12  A    between atoms: C_44  and  O_45 
DOCKED: USER                              x       y       z     vdW  Elec       q    Type
DOCKED: USER                           _______ _______ _______ _____ _____    ______ ____
DOCKED: ROOT
DOCKED: ATOM      1  C   UNL d   1      -4.127 -12.465   8.935 -0.16 +0.03    +0.064 A 
DOCKED: ATOM      2  C   UNL d   1      -0.389  -9.637   9.736 +0.21 +0.01    +0.064 C 
DOCKED: ATOM      3  C   UNL d   1      -2.188  -8.399  13.986 -0.15 +0.01    +0.064 A 
DOCKED: ATOM      4  C   UNL d   1      -5.821 -11.573  13.358 -0.19 +0.03    +0.064 A 
DOCKED: ATOM      5  C   UNL d   1      -2.992 -11.755   8.827 -0.17 +0.02    +0.066 A 
DOCKED: ATOM      6  C   UNL d   1      -2.123 -11.899   7.727 -0.23 -0.01    -0.021 A 
DOCKED: ATOM      7  C   UNL d   1      -1.029 -11.094   7.975 -0.22 -0.01    -0.025 A 
DOCKED: ATOM      8  C   UNL d   1      -1.284 -10.481   9.207 -0.14 +0.01    +0.066 A 
DOCKED: ATOM      9  C   UNL d   1       0.216 -10.899   7.097 -0.21 +0.01    +0.051 C 
DOCKED: ATOM     10  C   UNL d   1      -0.576  -8.940  10.984 -0.16 +0.01    +0.066 A 
DOCKED: ATOM     11  C   UNL d   1       0.259  -7.938  11.524 -0.22 -0.00    -0.021 A 
DOCKED: ATOM     12  C   UNL d   1      -0.291  -7.592  12.762 -0.23 +0.00    +0.000 A 
DOCKED: ATOM     13  C   UNL d   1      -1.425  -8.397  12.879 -0.18 +0.01    +0.070 A 
DOCKED: ATOM     14  C   UNL d   1       1.443  -7.301  10.844 -0.20 +0.00    +0.052 C 
DOCKED: ATOM     15  C   UNL d   1      -3.357  -9.199  14.295 -0.11 +0.02    +0.066 A 
DOCKED: ATOM     16  C   UNL d   1      -4.015  -9.257  15.516 -0.13 -0.01    -0.021 A 
DOCKED: ATOM     17  C   UNL d   1      -5.062 -10.173  15.341 -0.14 +0.00    +0.000 A 
DOCKED: ATOM     18  C   UNL d   1      -4.970 -10.590  14.017 -0.07 +0.04    +0.070 A 
DOCKED: ATOM     19  C   UNL d   1      -3.639  -8.472  16.753 -0.10 +0.00    +0.052 C 
DOCKED: ATOM     20  C   UNL d   1      -5.698 -12.058  12.099 -0.21 +0.03    +0.066 A 
DOCKED: ATOM     21  C   UNL d   1      -6.556 -13.030  11.590 -0.28 -0.01    -0.025 A 
DOCKED: ATOM     22  C   UNL d   1      -6.110 -13.285  10.306 -0.23 -0.01    -0.021 A 
DOCKED: ATOM     23  C   UNL d   1      -4.985 -12.460  10.099 -0.19 +0.03    +0.066 A 
DOCKED: ATOM     24  C   UNL d   1      -7.733 -13.697  12.297 -0.29 +0.03    +0.051 C 
DOCKED: ATOM     25  N   UNL d   1      -2.496 -10.868   9.754 -0.11 -0.06    -0.248 N 
DOCKED: ATOM     26  N   UNL d   1      -1.627  -9.171  11.779 -0.13 -0.05    -0.248 N 
DOCKED: ATOM     27  N   UNL d   1      -3.925 -10.013  13.434 -0.11 -0.10    -0.248 N 
DOCKED: ATOM     28  N   UNL d   1      -4.730 -11.717  11.183 -0.12 -0.10    -0.248 N 
DOCKED: ATOM     29 FE   UNL d   1      -3.256 -10.417  11.702 -0.04 +0.00    +0.000 Fe
DOCKED: ENDROOT
DOCKED: BRANCH   6  30
DOCKED: ATOM     30  C   UNL d   1      -2.310 -12.835   6.537 -0.13 +0.02    +0.052 C 
DOCKED: BRANCH  30  31
DOCKED: ATOM     31  C   UNL d   1      -2.040 -14.283   6.945 -0.08 +0.04    +0.115 C 
DOCKED: BRANCH  31  32
DOCKED: ATOM     32  C   UNL d   1      -1.269 -14.383   8.244 -0.02 +0.04    +0.139 C 
DOCKED: ATOM     33  O   UNL d   1      -0.055 -14.241   8.235 +0.02 -0.13    -0.650 OA
DOCKED: BRANCH  32  34
DOCKED: ATOM     34  O   UNL d   1      -1.887 -14.578   9.432 +0.03 -0.22    -0.776 OA
DOCKED: ATOM     35  H   UNL d   1      -1.448 -14.511  10.291 +0.01 +0.04    +0.167 HD
DOCKED: ENDBRANCH  32  34
DOCKED: ENDBRANCH  31  32
DOCKED: ENDBRANCH  30  31
DOCKED: ENDBRANCH   6  30
DOCKED: BRANCH  29  36
DOCKED: ATOM     36  C   UNL d   1      -2.076 -12.000  12.406 -0.03 +0.04    +0.190 C 
DOCKED: BRANCH  36  37
DOCKED: ATOM     37  O   UNL d   1      -1.478 -13.203  12.017 -0.00 -0.08    -0.399 OA
DOCKED: ATOM     38  H   UNL d   1      -1.520 -13.199  11.020 +0.02 +0.04    +0.209 HD
DOCKED: ENDBRANCH  36  37
DOCKED: ENDBRANCH  29  36
DOCKED: BRANCH  22  39
DOCKED: ATOM     39  C   UNL d   1      -6.698 -14.315   9.359 -0.22 +0.05    +0.052 C 
DOCKED: BRANCH  39  40
DOCKED: ATOM     40  C   UNL d   1      -5.581 -15.111   8.663 -0.15 +0.10    +0.115 C 
DOCKED: BRANCH  40  41
DOCKED: ATOM     41  C   UNL d   1      -6.045 -15.932   7.478 -0.16 +0.21    +0.139 C 
DOCKED: ATOM     42  O   UNL d   1      -7.000 -16.684   7.608 -0.42 -1.51    -0.650 OA
DOCKED: BRANCH  41  43
DOCKED: ATOM     43  O   UNL d   1      -5.488 -15.791   6.254 -0.51 -1.39    -0.776 OA
DOCKED: ATOM     44  H   UNL d   1      -4.541 -15.648   6.129 +0.04 +0.19    +0.167 HD
DOCKED: ENDBRANCH  41  43
DOCKED: ENDBRANCH  40  41
DOCKED: ENDBRANCH  39  40
DOCKED: ENDBRANCH  22  39
DOCKED: BRANCH  12  45
DOCKED: ATOM     45  C   UNL d   1       0.111  -6.586  13.832 -0.25 +0.00    +0.004 C 
DOCKED: ATOM     46  C   UNL d   1      -0.385  -5.387  14.123 -0.41 -0.00    +0.012 C 
DOCKED: ENDBRANCH  12  45
DOCKED: BRANCH  17  47
DOCKED: ATOM     47  C   UNL d   1      -6.060 -10.682  16.329 -0.13 +0.00    +0.004 C 
DOCKED: ATOM     48  C   UNL d   1      -7.370 -10.435  16.247 -0.19 +0.01    +0.012 C 
DOCKED: ENDBRANCH  17  47
DOCKED: TORSDOF 12
DOCKED: TER
DOCKED: ENDMDL
________________________________________________________________________________


	BEGINNING GENETIC ALGORITHM DOCKING 71 of 100
Run: 71 Seed: 536263214 1895513179 [ Run 71 of 100 GA/GALS ]
Beginning LAMARCKIAN GENETIC ALGORITHM (LGA), with a maximum of 25000000 energy evaluations.

Final-Value: -12.510


	FINAL GENETIC ALGORITHM DOCKED STATE
	_______________________________________________


Detailed state:  trans -7.357 -1.429 -12.382 quatxyzw -0.014043 0.639812 -0.491196 0.590906 center 8.781 34.984 -0.736 ntor 12 -18.0663 101.0788 116.3669 104.7290 111.7247 130.6707 117.8378 174.8536 62.0207 148.0326 119.7919 12.1421
State:	 -7.357  -1.429 -12.382  -0.017  0.793 -0.609 107.557    -18.07  101.08  116.37  104.73  111.72  130.67  117.84  174.85   62.02  148.03  119.79   12.14

DOCKED: MODEL       71
DOCKED: USER    Run = 71
DOCKED: USER    DPF = D:/Protein_go_brrr/autodock/final/AncB/heme_Co/dock.dpf
DOCKED: USER  
DOCKED: USER    Estimated Free Energy of Binding    =   -8.43 kcal/mol  [=(1)+(2)+(3)-(4)]
DOCKED: USER    Estimated Inhibition Constant, Ki   =  666.89 nM (nanomolar)  [Temperature = 298.15 K]
DOCKED: USER    
DOCKED: USER    (1) Final Intermolecular Energy     =  -12.01 kcal/mol
DOCKED: USER        vdW + Hbond + desolv Energy     =   -7.67 kcal/mol
DOCKED: USER        Electrostatic Energy            =   -4.33 kcal/mol
DOCKED: USER    (2) Final Total Internal Energy     =   -0.50 kcal/mol
DOCKED: USER    (3) Torsional Free Energy           =   +3.58 kcal/mol
DOCKED: USER    (4) Unbound System's Energy  [=(2)] =   -0.50 kcal/mol
DOCKED: USER    
DOCKED: USER    
DOCKED: USER    NEWDPF move heme_Co_opt.pdbqt
DOCKED: USER    NEWDPF about 8.781000 34.984000 -0.736000
DOCKED: USER    NEWDPF tran0 -7.356631 -1.428880 -12.381697
DOCKED: USER    NEWDPF quaternion0 -0.014043 0.639812 -0.491196 0.590906
DOCKED: USER    NEWDPF axisangle0 -0.017408 0.793083 -0.608865 107.557389
DOCKED: USER    NEWDPF quat0 -0.017408 0.793083 -0.608865 107.557389
DOCKED: USER    NEWDPF dihe0 -18.07 101.08 116.37 104.73 111.72 130.67 117.84 174.85 62.02 148.03 119.79 12.14 
DOCKED: USER  keepresnum = 1 
DOCKED: USER  
DOCKED: REMARK  12 active torsions:
DOCKED: REMARK  status: ('A' for Active; 'I' for Inactive)
DOCKED: REMARK    1  A    between atoms: C_6  and  C_10 
DOCKED: REMARK    2  A    between atoms: C_10  and  C_11 
DOCKED: REMARK    3  A    between atoms: C_11  and  C_12 
DOCKED: REMARK    4  A    between atoms: C_12  and  O_14 
DOCKED: REMARK    5  A    between atoms: C_17  and  C_20 
DOCKED: REMARK    6  A    between atoms: C_24  and  C_27 
DOCKED: REMARK    7  A    between atoms: C_31  and  C_34 
DOCKED: REMARK    8  A    between atoms: C_34  and  C_35 
DOCKED: REMARK    9  A    between atoms: C_35  and  C_36 
DOCKED: REMARK   10  A    between atoms: C_36  and  O_38 
DOCKED: REMARK   11  A    between atoms: FE_43  and  C_44 
DOCKED: REMARK   12  A    between atoms: C_44  and  O_45 
DOCKED: USER                              x       y       z     vdW  Elec       q    Type
DOCKED: USER                           _______ _______ _______ _____ _____    ______ ____
DOCKED: ROOT
DOCKED: ATOM      1  C   UNL d   1      -6.441  -1.711 -14.331 +0.13 +0.09    +0.064 A 
DOCKED: ATOM      2  C   UNL d   1      -8.001  -4.788 -11.058 -0.30 +0.03    +0.064 C 
DOCKED: ATOM      3  C   UNL d   1      -8.938  -1.185  -8.063 -0.16 +0.02    +0.064 A 
DOCKED: ATOM      4  C   UNL d   1      -7.713   1.999 -11.531 -0.09 +0.04    +0.064 A 
DOCKED: ATOM      5  C   UNL d   1      -6.765  -2.818 -13.643 -0.10 +0.08    +0.066 A 
DOCKED: ATOM      6  C   UNL d   1      -6.696  -4.102 -14.218 -0.14 -0.02    -0.021 A 
DOCKED: ATOM      7  C   UNL d   1      -7.171  -4.989 -13.272 -0.20 -0.02    -0.025 A 
DOCKED: ATOM      8  C   UNL d   1      -7.494  -4.211 -12.155 -0.19 +0.05    +0.066 A 
DOCKED: ATOM      9  C   UNL d   1      -7.322  -6.513 -13.400 -0.30 +0.03    +0.051 C 
DOCKED: ATOM     10  C   UNL d   1      -8.339  -4.073  -9.852 -0.23 +0.03    +0.066 A 
DOCKED: ATOM     11  C   UNL d   1      -8.742  -4.636  -8.622 -0.35 -0.01    -0.021 A 
DOCKED: ATOM     12  C   UNL d   1      -9.004  -3.563  -7.766 -0.30 +0.00    +0.000 A 
DOCKED: ATOM     13  C   UNL d   1      -8.731  -2.429  -8.530 -0.17 +0.02    +0.070 A 
DOCKED: ATOM     14  C   UNL d   1      -8.773  -6.103  -8.280 -0.51 +0.02    +0.052 C 
DOCKED: ATOM     15  C   UNL d   1      -8.761   0.090  -8.730 -0.13 +0.02    +0.066 A 
DOCKED: ATOM     16  C   UNL d   1      -9.131   1.334  -8.240 -0.20 -0.00    -0.021 A 
DOCKED: ATOM     17  C   UNL d   1      -8.782   2.256  -9.237 -0.15 +0.00    +0.000 A 
DOCKED: ATOM     18  C   UNL d   1      -8.208   1.499 -10.254 -0.08 +0.03    +0.070 A 
DOCKED: ATOM     19  C   UNL d   1      -9.778   1.590  -6.897 -0.24 +0.00    +0.052 C 
DOCKED: ATOM     20  C   UNL d   1      -7.231   1.274 -12.569 -0.06 +0.05    +0.066 A 
DOCKED: ATOM     21  C   UNL d   1      -6.818   1.866 -13.760 -0.08 -0.02    -0.025 A 
DOCKED: ATOM     22  C   UNL d   1      -6.419   0.823 -14.576 -0.05 -0.02    -0.021 A 
DOCKED: ATOM     23  C   UNL d   1      -6.621  -0.364 -13.840 -0.06 +0.07    +0.066 A 
DOCKED: ATOM     24  C   UNL d   1      -6.822   3.351 -14.113 -0.07 +0.05    +0.051 C 
DOCKED: ATOM     25  N   UNL d   1      -7.247  -2.863 -12.354 -0.08 -0.21    -0.248 N 
DOCKED: ATOM     26  N   UNL d   1      -8.275  -2.739  -9.773 -0.08 -0.11    -0.248 N 
DOCKED: ATOM     27  N   UNL d   1      -8.240   0.211  -9.931 -0.03 -0.10    -0.248 N 
DOCKED: ATOM     28  N   UNL d   1      -7.115  -0.095 -12.625 -0.02 -0.19    -0.248 N 
DOCKED: ATOM     29 FE   UNL d   1      -7.771  -1.233 -11.073 -0.02 +0.00    +0.000 Fe
DOCKED: ENDROOT
DOCKED: BRANCH   6  30
DOCKED: ATOM     30  C   UNL d   1      -6.268  -4.439 -15.643 -0.13 +0.06    +0.052 C 
DOCKED: BRANCH  30  31
DOCKED: ATOM     31  C   UNL d   1      -6.865  -5.776 -16.081 -0.11 +0.10    +0.115 C 
DOCKED: BRANCH  31  32
DOCKED: ATOM     32  C   UNL d   1      -5.803  -6.793 -16.438 -0.12 +0.19    +0.139 C 
DOCKED: ATOM     33  O   UNL d   1      -4.642  -6.432 -16.562 -0.26 -1.05    -0.650 OA
DOCKED: BRANCH  32  34
DOCKED: ATOM     34  O   UNL d   1      -6.087  -8.109 -16.577 -0.40 -1.43    -0.776 OA
DOCKED: ATOM     35  H   UNL d   1      -6.855  -8.544 -16.182 +0.05 +0.16    +0.167 HD
DOCKED: ENDBRANCH  32  34
DOCKED: ENDBRANCH  31  32
DOCKED: ENDBRANCH  30  31
DOCKED: ENDBRANCH   6  30
DOCKED: BRANCH  29  36
DOCKED: ATOM     36  C   UNL d   1      -9.686  -1.328 -11.922 -0.01 +0.08    +0.190 C 
DOCKED: BRANCH  36  37
DOCKED: ATOM     37  O   UNL d   1     -10.379  -1.743 -13.064 +0.00 -0.17    -0.399 OA
DOCKED: ATOM     38  H   UNL d   1      -9.669  -1.933 -13.740 +0.01 +0.10    +0.209 HD
DOCKED: ENDBRANCH  36  37
DOCKED: ENDBRANCH  29  36
DOCKED: BRANCH  22  39
DOCKED: ATOM     39  C   UNL d   1      -5.933   0.962 -16.006 -0.03 +0.05    +0.052 C 
DOCKED: BRANCH  39  40
DOCKED: ATOM     40  C   UNL d   1      -4.449   0.572 -16.115 -0.06 +0.14    +0.115 C 
DOCKED: BRANCH  40  41
DOCKED: ATOM     41  C   UNL d   1      -3.603   1.000 -14.935 -0.11 +0.22    +0.139 C 
DOCKED: ATOM     42  O   UNL d   1      -3.702   2.142 -14.510 -0.50 -1.50    -0.650 OA
DOCKED: BRANCH  41  43
DOCKED: ATOM     43  O   UNL d   1      -2.803   0.128 -14.282 -0.20 -1.49    -0.776 OA
DOCKED: ATOM     44  H   UNL d   1      -1.852   0.269 -14.183 +0.04 +0.26    +0.167 HD
DOCKED: ENDBRANCH  41  43
DOCKED: ENDBRANCH  40  41
DOCKED: ENDBRANCH  39  40
DOCKED: ENDBRANCH  22  39
DOCKED: BRANCH  12  45
DOCKED: ATOM     45  C   UNL d   1      -9.462  -3.480  -6.315 -0.46 +0.00    +0.004 C 
DOCKED: ATOM     46  C   UNL d   1      -8.761  -3.330  -5.194 -0.62 +0.00    +0.012 C 
DOCKED: ENDBRANCH  12  45
DOCKED: BRANCH  17  47
DOCKED: ATOM     47  C   UNL d   1      -9.001   3.732  -9.291 -0.17 +0.00    +0.004 C 
DOCKED: ATOM     48  C   UNL d   1      -8.122   4.624  -8.828 -0.31 +0.00    +0.012 C 
DOCKED: ENDBRANCH  17  47
DOCKED: TORSDOF 12
DOCKED: TER
DOCKED: ENDMDL
________________________________________________________________________________


	BEGINNING GENETIC ALGORITHM DOCKING 72 of 100
Run: 72 Seed: 1904776335 1295453927 [ Run 72 of 100 GA/GALS ]
Beginning LAMARCKIAN GENETIC ALGORITHM (LGA), with a maximum of 25000000 energy evaluations.

Final-Value: -11.240


	FINAL GENETIC ALGORITHM DOCKED STATE
	_______________________________________________


Detailed state:  trans -0.617 -14.860 4.468 quatxyzw -0.729066 -0.326024 -0.477608 0.366145 center 8.781 34.984 -0.736 ntor 12 98.7479 115.0347 -31.7417 69.6867 147.9681 150.9907 -117.7087 -15.2382 -60.9806 -87.4666 -34.7008 -72.2336
State:	 -0.617 -14.860   4.468  -0.783 -0.350 -0.513 137.044     98.75  115.03  -31.74   69.69  147.97  150.99 -117.71  -15.24  -60.98  -87.47  -34.70  -72.23

DOCKED: MODEL       72
DOCKED: USER    Run = 72
DOCKED: USER    DPF = D:/Protein_go_brrr/autodock/final/AncB/heme_Co/dock.dpf
DOCKED: USER  
DOCKED: USER    Estimated Free Energy of Binding    =   -7.39 kcal/mol  [=(1)+(2)+(3)-(4)]
DOCKED: USER    Estimated Inhibition Constant, Ki   =    3.83 uM (micromolar)  [Temperature = 298.15 K]
DOCKED: USER    
DOCKED: USER    (1) Final Intermolecular Energy     =  -10.97 kcal/mol
DOCKED: USER        vdW + Hbond + desolv Energy     =   -6.71 kcal/mol
DOCKED: USER        Electrostatic Energy            =   -4.26 kcal/mol
DOCKED: USER    (2) Final Total Internal Energy     =   -0.27 kcal/mol
DOCKED: USER    (3) Torsional Free Energy           =   +3.58 kcal/mol
DOCKED: USER    (4) Unbound System's Energy  [=(2)] =   -0.27 kcal/mol
DOCKED: USER    
DOCKED: USER    
DOCKED: USER    NEWDPF move heme_Co_opt.pdbqt
DOCKED: USER    NEWDPF about 8.781000 34.984000 -0.736000
DOCKED: USER    NEWDPF tran0 -0.616999 -14.860154 4.468052
DOCKED: USER    NEWDPF quaternion0 -0.729066 -0.326024 -0.477608 0.366145
DOCKED: USER    NEWDPF axisangle0 -0.783471 -0.350353 -0.513249 137.043915
DOCKED: USER    NEWDPF quat0 -0.783471 -0.350353 -0.513249 137.043915
DOCKED: USER    NEWDPF dihe0 98.75 115.03 -31.74 69.69 147.97 150.99 -117.71 -15.24 -60.98 -87.47 -34.70 -72.23 
DOCKED: USER  keepresnum = 1 
DOCKED: USER  
DOCKED: REMARK  12 active torsions:
DOCKED: REMARK  status: ('A' for Active; 'I' for Inactive)
DOCKED: REMARK    1  A    between atoms: C_6  and  C_10 
DOCKED: REMARK    2  A    between atoms: C_10  and  C_11 
DOCKED: REMARK    3  A    between atoms: C_11  and  C_12 
DOCKED: REMARK    4  A    between atoms: C_12  and  O_14 
DOCKED: REMARK    5  A    between atoms: C_17  and  C_20 
DOCKED: REMARK    6  A    between atoms: C_24  and  C_27 
DOCKED: REMARK    7  A    between atoms: C_31  and  C_34 
DOCKED: REMARK    8  A    between atoms: C_34  and  C_35 
DOCKED: REMARK    9  A    between atoms: C_35  and  C_36 
DOCKED: REMARK   10  A    between atoms: C_36  and  O_38 
DOCKED: REMARK   11  A    between atoms: FE_43  and  C_44 
DOCKED: REMARK   12  A    between atoms: C_44  and  O_45 
DOCKED: USER                              x       y       z     vdW  Elec       q    Type
DOCKED: USER                           _______ _______ _______ _____ _____    ______ ____
DOCKED: ROOT
DOCKED: ATOM      1  C   UNL d   1      -1.990 -16.527   4.239 -0.07 +0.03    +0.064 A 
DOCKED: ATOM      2  C   UNL d   1       1.586 -14.938   1.537 -0.18 +0.01    +0.064 C 
DOCKED: ATOM      3  C   UNL d   1       2.172 -11.195   4.448 -0.21 +0.01    +0.064 A 
DOCKED: ATOM      4  C   UNL d   1      -1.218 -13.002   7.432 -0.10 +0.02    +0.064 A 
DOCKED: ATOM      5  C   UNL d   1      -1.080 -16.348   3.267 -0.07 +0.03    +0.066 A 
DOCKED: ATOM      6  C   UNL d   1      -0.888 -17.293   2.240 -0.07 -0.01    -0.021 A 
DOCKED: ATOM      7  C   UNL d   1       0.166 -16.838   1.472 -0.09 -0.01    -0.025 A 
DOCKED: ATOM      8  C   UNL d   1       0.561 -15.628   2.053 -0.13 +0.02    +0.066 A 
DOCKED: ATOM      9  C   UNL d   1       0.789 -17.506   0.237 -0.11 +0.01    +0.051 C 
DOCKED: ATOM     10  C   UNL d   1       2.046 -13.671   2.050 -0.18 +0.01    +0.066 A 
DOCKED: ATOM     11  C   UNL d   1       3.021 -12.831   1.471 -0.21 -0.00    -0.021 A 
DOCKED: ATOM     12  C   UNL d   1       3.170 -11.745   2.339 -0.26 +0.00    +0.000 A 
DOCKED: ATOM     13  C   UNL d   1       2.267 -11.996   3.372 -0.20 +0.01    +0.070 A 
DOCKED: ATOM     14  C   UNL d   1       3.684 -13.024   0.131 -0.07 +0.01    +0.052 C 
DOCKED: ATOM     15  C   UNL d   1       1.337 -11.331   5.625 -0.20 +0.01    +0.066 A 
DOCKED: ATOM     16  C   UNL d   1       1.391 -10.545   6.768 -0.18 -0.00    -0.021 A 
DOCKED: ATOM     17  C   UNL d   1       0.417 -11.064   7.633 -0.17 +0.00    +0.000 A 
DOCKED: ATOM     18  C   UNL d   1      -0.169 -12.118   6.940 -0.16 +0.01    +0.070 A 
DOCKED: ATOM     19  C   UNL d   1       2.330  -9.380   6.987 -0.20 +0.01    +0.052 C 
DOCKED: ATOM     20  C   UNL d   1      -1.743 -14.085   6.811 -0.08 +0.02    +0.066 A 
DOCKED: ATOM     21  C   UNL d   1      -2.724 -14.878   7.402 -0.05 -0.01    -0.025 A 
DOCKED: ATOM     22  C   UNL d   1      -2.987 -15.886   6.492 -0.05 -0.01    -0.021 A 
DOCKED: ATOM     23  C   UNL d   1      -2.138 -15.663   5.388 -0.04 +0.03    +0.066 A 
DOCKED: ATOM     24  C   UNL d   1      -3.366 -14.698   8.775 -0.04 +0.02    +0.051 C 
DOCKED: ATOM     25  N   UNL d   1      -0.198 -15.297   3.163 -0.04 -0.12    -0.248 N 
DOCKED: ATOM     26  N   UNL d   1       1.548 -13.132   3.168 -0.13 -0.06    -0.248 N 
DOCKED: ATOM     27  N   UNL d   1       0.425 -12.267   5.761 -0.12 -0.05    -0.248 N 
DOCKED: ATOM     28  N   UNL d   1      -1.381 -14.575   5.578 -0.05 -0.09    -0.248 N 
DOCKED: ATOM     29 FE   UNL d   1       0.129 -13.693   4.540 -0.04 +0.00    +0.000 Fe
DOCKED: ENDROOT
DOCKED: BRANCH   6  30
DOCKED: ATOM     30  C   UNL d   1      -1.636 -18.611   2.065 -0.04 +0.02    +0.052 C 
DOCKED: BRANCH  30  31
DOCKED: ATOM     31  C   UNL d   1      -3.145 -18.388   2.158 -0.10 +0.09    +0.115 C 
DOCKED: BRANCH  31  32
DOCKED: ATOM     32  C   UNL d   1      -3.861 -18.737   0.871 -0.08 +0.16    +0.139 C 
DOCKED: ATOM     33  O   UNL d   1      -4.620 -19.694   0.846 -0.52 -0.79    -0.650 OA
DOCKED: BRANCH  32  34
DOCKED: ATOM     34  O   UNL d   1      -3.725 -17.991  -0.250 -0.27 -1.04    -0.776 OA
DOCKED: ATOM     35  H   UNL d   1      -3.090 -18.180  -0.955 +0.03 +0.13    +0.167 HD
DOCKED: ENDBRANCH  32  34
DOCKED: ENDBRANCH  31  32
DOCKED: ENDBRANCH  30  31
DOCKED: ENDBRANCH   6  30
DOCKED: BRANCH  29  36
DOCKED: ATOM     36  C   UNL d   1       1.531 -14.936   5.480 -0.02 +0.03    +0.190 C 
DOCKED: BRANCH  36  37
DOCKED: ATOM     37  O   UNL d   1       2.077 -16.223   5.448 +0.00 -0.06    -0.399 OA
DOCKED: ATOM     38  H   UNL d   1       1.629 -16.673   4.679 +0.01 +0.04    +0.209 HD
DOCKED: ENDBRANCH  36  37
DOCKED: ENDBRANCH  29  36
DOCKED: BRANCH  22  39
DOCKED: ATOM     39  C   UNL d   1      -3.955 -17.034   6.707 -0.03 +0.04    +0.052 C 
DOCKED: BRANCH  39  40
DOCKED: ATOM     40  C   UNL d   1      -5.098 -16.612   7.645 -0.06 +0.12    +0.115 C 
DOCKED: BRANCH  40  41
DOCKED: ATOM     41  C   UNL d   1      -6.270 -15.956   6.945 -0.14 +0.26    +0.139 C 
DOCKED: ATOM     42  O   UNL d   1      -7.387 -16.437   7.070 -0.41 -1.84    -0.650 OA
DOCKED: BRANCH  41  43
DOCKED: ATOM     43  O   UNL d   1      -6.130 -14.801   6.258 -0.28 -1.52    -0.776 OA
DOCKED: ATOM     44  H   UNL d   1      -5.431 -14.163   6.451 +0.06 +0.20    +0.167 HD
DOCKED: ENDBRANCH  41  43
DOCKED: ENDBRANCH  40  41
DOCKED: ENDBRANCH  39  40
DOCKED: ENDBRANCH  22  39
DOCKED: BRANCH  12  45
DOCKED: ATOM     45  C   UNL d   1       4.041 -10.497   2.300 -0.44 -0.00    +0.004 C 
DOCKED: ATOM     46  C   UNL d   1       4.087  -9.499   1.421 -0.65 -0.00    +0.012 C 
DOCKED: ENDBRANCH  12  45
DOCKED: BRANCH  17  47
DOCKED: ATOM     47  C   UNL d   1       0.068 -10.662   9.028 -0.10 +0.00    +0.004 C 
DOCKED: ATOM     48  C   UNL d   1      -1.169 -10.343   9.416 -0.19 +0.00    +0.012 C 
DOCKED: ENDBRANCH  17  47
DOCKED: TORSDOF 12
DOCKED: TER
DOCKED: ENDMDL
________________________________________________________________________________


	BEGINNING GENETIC ALGORITHM DOCKING 73 of 100
Run: 73 Seed: 973317545 1878801798 [ Run 73 of 100 GA/GALS ]
Beginning LAMARCKIAN GENETIC ALGORITHM (LGA), with a maximum of 25000000 energy evaluations.

Final-Value: -11.300


	FINAL GENETIC ALGORITHM DOCKED STATE
	_______________________________________________


Detailed state:  trans -4.640 -11.366 12.455 quatxyzw 0.731043 0.209139 0.500359 -0.414098 center 8.781 34.984 -0.736 ntor 12 65.9052 103.5707 -153.0371 116.6256 116.7266 82.9342 -158.7886 110.9838 -45.0960 143.5180 25.4085 -180.0000
State:	 -4.640 -11.366  12.455   0.803  0.230  0.550 -131.075     65.91  103.57 -153.04  116.63  116.73   82.93 -158.79  110.98  -45.10  143.52   25.41 -180.00

DOCKED: MODEL       73
DOCKED: USER    Run = 73
DOCKED: USER    DPF = D:/Protein_go_brrr/autodock/final/AncB/heme_Co/dock.dpf
DOCKED: USER  
DOCKED: USER    Estimated Free Energy of Binding    =   -5.76 kcal/mol  [=(1)+(2)+(3)-(4)]
DOCKED: USER    Estimated Inhibition Constant, Ki   =   59.52 uM (micromolar)  [Temperature = 298.15 K]
DOCKED: USER    
DOCKED: USER    (1) Final Intermolecular Energy     =   -9.34 kcal/mol
DOCKED: USER        vdW + Hbond + desolv Energy     =   -6.16 kcal/mol
DOCKED: USER        Electrostatic Energy            =   -3.19 kcal/mol
DOCKED: USER    (2) Final Total Internal Energy     =   -1.96 kcal/mol
DOCKED: USER    (3) Torsional Free Energy           =   +3.58 kcal/mol
DOCKED: USER    (4) Unbound System's Energy  [=(2)] =   -1.96 kcal/mol
DOCKED: USER    
DOCKED: USER    
DOCKED: USER    NEWDPF move heme_Co_opt.pdbqt
DOCKED: USER    NEWDPF about 8.781000 34.984000 -0.736000
DOCKED: USER    NEWDPF tran0 -4.639566 -11.365527 12.454773
DOCKED: USER    NEWDPF quaternion0 0.731043 0.209139 0.500359 -0.414098
DOCKED: USER    NEWDPF axisangle0 0.803139 0.229765 0.549705 -131.074913
DOCKED: USER    NEWDPF quat0 0.803139 0.229765 0.549705 -131.074913
DOCKED: USER    NEWDPF dihe0 65.91 103.57 -153.04 116.63 116.73 82.93 -158.79 110.98 -45.10 143.52 25.41 -180.00 
DOCKED: USER  keepresnum = 1 
DOCKED: USER  
DOCKED: REMARK  12 active torsions:
DOCKED: REMARK  status: ('A' for Active; 'I' for Inactive)
DOCKED: REMARK    1  A    between atoms: C_6  and  C_10 
DOCKED: REMARK    2  A    between atoms: C_10  and  C_11 
DOCKED: REMARK    3  A    between atoms: C_11  and  C_12 
DOCKED: REMARK    4  A    between atoms: C_12  and  O_14 
DOCKED: REMARK    5  A    between atoms: C_17  and  C_20 
DOCKED: REMARK    6  A    between atoms: C_24  and  C_27 
DOCKED: REMARK    7  A    between atoms: C_31  and  C_34 
DOCKED: REMARK    8  A    between atoms: C_34  and  C_35 
DOCKED: REMARK    9  A    between atoms: C_35  and  C_36 
DOCKED: REMARK   10  A    between atoms: C_36  and  O_38 
DOCKED: REMARK   11  A    between atoms: FE_43  and  C_44 
DOCKED: REMARK   12  A    between atoms: C_44  and  O_45 
DOCKED: USER                              x       y       z     vdW  Elec       q    Type
DOCKED: USER                           _______ _______ _______ _____ _____    ______ ____
DOCKED: ROOT
DOCKED: ATOM      1  C   UNL d   1      -6.260 -12.707  11.914 -0.24 +0.03    +0.064 A 
DOCKED: ATOM      2  C   UNL d   1      -2.073 -11.764   9.866 -0.12 +0.02    +0.064 C 
DOCKED: ATOM      3  C   UNL d   1      -1.220  -8.347  13.094 -0.17 +0.01    +0.064 A 
DOCKED: ATOM      4  C   UNL d   1      -5.313  -9.552  15.431 -0.09 +0.04    +0.064 A 
DOCKED: ATOM      5  C   UNL d   1      -5.195 -12.675  11.096 -0.16 +0.03    +0.066 A 
DOCKED: ATOM      6  C   UNL d   1      -5.036 -13.595  10.041 -0.14 -0.01    -0.021 A 
DOCKED: ATOM      7  C   UNL d   1      -3.809 -13.332   9.464 -0.08 -0.01    -0.025 A 
DOCKED: ATOM      8  C   UNL d   1      -3.279 -12.253  10.181 -0.09 +0.02    +0.066 A 
DOCKED: ATOM      9  C   UNL d   1      -3.147 -14.059   8.284 -0.07 +0.02    +0.051 C 
DOCKED: ATOM     10  C   UNL d   1      -1.459 -10.641  10.529 -0.13 +0.01    +0.066 A 
DOCKED: ATOM     11  C   UNL d   1      -0.261  -9.993  10.156 -0.07 -0.00    -0.021 A 
DOCKED: ATOM     12  C   UNL d   1      -0.038  -8.998  11.112 -0.17 +0.00    +0.000 A 
DOCKED: ATOM     13  C   UNL d   1      -1.120  -9.104  11.987 -0.17 +0.01    +0.070 A 
DOCKED: ATOM     14  C   UNL d   1       0.548 -10.260   8.913 -0.04 +0.01    +0.052 C 
DOCKED: ATOM     15  C   UNL d   1      -2.235  -8.360  14.129 -0.15 +0.01    +0.066 A 
DOCKED: ATOM     16  C   UNL d   1      -2.204  -7.652  15.322 -0.15 -0.00    -0.021 A 
DOCKED: ATOM     17  C   UNL d   1      -3.381  -7.998  16.000 -0.15 +0.00    +0.000 A 
DOCKED: ATOM     18  C   UNL d   1      -4.048  -8.880  15.157 -0.11 +0.02    +0.070 A 
DOCKED: ATOM     19  C   UNL d   1      -1.101  -6.712  15.755 -0.15 +0.00    +0.052 C 
DOCKED: ATOM     20  C   UNL d   1      -5.937 -10.478  14.666 +0.03 +0.05    +0.066 A 
DOCKED: ATOM     21  C   UNL d   1      -7.133 -11.080  15.053 -0.21 -0.02    -0.025 A 
DOCKED: ATOM     22  C   UNL d   1      -7.445 -11.973  14.045 -0.30 -0.01    -0.021 A 
DOCKED: ATOM     23  C   UNL d   1      -6.410 -11.880  13.090 -0.25 +0.04    +0.066 A 
DOCKED: ATOM     24  C   UNL d   1      -7.929 -10.831  16.331 -0.20 +0.02    +0.051 C 
DOCKED: ATOM     25  N   UNL d   1      -4.119 -11.822  11.193 -0.08 -0.09    -0.248 N 
DOCKED: ATOM     26  N   UNL d   1      -2.006 -10.061  11.602 -0.09 -0.05    -0.248 N 
DOCKED: ATOM     27  N   UNL d   1      -3.322  -9.096  14.066 -0.10 -0.08    -0.248 N 
DOCKED: ATOM     28  N   UNL d   1      -5.494 -10.978  13.463 -0.13 -0.15    -0.248 N 
DOCKED: ATOM     29 FE   UNL d   1      -3.701 -10.379  12.716 -0.04 +0.00    +0.000 Fe
DOCKED: ENDROOT
DOCKED: BRANCH   6  30
DOCKED: ATOM     30  C   UNL d   1      -5.991 -14.724   9.667 -0.21 +0.04    +0.052 C 
DOCKED: BRANCH  30  31
DOCKED: ATOM     31  C   UNL d   1      -6.696 -14.416   8.346 -0.24 +0.13    +0.115 C 
DOCKED: BRANCH  31  32
DOCKED: ATOM     32  C   UNL d   1      -6.682 -15.594   7.396 -0.19 +0.26    +0.139 C 
DOCKED: ATOM     33  O   UNL d   1      -7.381 -16.568   7.635 -0.20 -1.87    -0.650 OA
DOCKED: BRANCH  32  34
DOCKED: ATOM     34  O   UNL d   1      -5.953 -15.588   6.255 -0.47 -1.68    -0.776 OA
DOCKED: ATOM     35  H   UNL d   1      -4.989 -15.511   6.226 +0.04 +0.23    +0.167 HD
DOCKED: ENDBRANCH  32  34
DOCKED: ENDBRANCH  31  32
DOCKED: ENDBRANCH  30  31
DOCKED: ENDBRANCH   6  30
DOCKED: BRANCH  29  36
DOCKED: ATOM     36  C   UNL d   1      -2.728 -11.920  13.752 -0.03 +0.04    +0.190 C 
DOCKED: BRANCH  36  37
DOCKED: ATOM     37  O   UNL d   1      -2.958 -13.095  14.475 +0.00 -0.08    -0.399 OA
DOCKED: ATOM     38  H   UNL d   1      -3.945 -13.121  14.615 +0.02 +0.05    +0.209 HD
DOCKED: ENDBRANCH  36  37
DOCKED: ENDBRANCH  29  36
DOCKED: BRANCH  22  39
DOCKED: ATOM     39  C   UNL d   1      -8.639 -12.908  14.037 -0.23 +0.03    +0.052 C 
DOCKED: BRANCH  39  40
DOCKED: ATOM     40  C   UNL d   1      -8.377 -14.132  14.930 -0.14 +0.04    +0.115 C 
DOCKED: BRANCH  40  41
DOCKED: ATOM     41  C   UNL d   1      -6.984 -14.713  14.801 -0.05 +0.04    +0.139 C 
DOCKED: ATOM     42  O   UNL d   1      -6.839 -15.809  14.278 +0.04 -0.19    -0.650 OA
DOCKED: BRANCH  41  43
DOCKED: ATOM     43  O   UNL d   1      -5.887 -14.015  15.168 +0.06 -0.19    -0.776 OA
DOCKED: ATOM     44  H   UNL d   1      -5.039 -14.103  14.712 +0.02 +0.04    +0.167 HD
DOCKED: ENDBRANCH  41  43
DOCKED: ENDBRANCH  40  41
DOCKED: ENDBRANCH  39  40
DOCKED: ENDBRANCH  22  39
DOCKED: BRANCH  12  45
DOCKED: ATOM     45  C   UNL d   1       1.055  -7.953  11.288 -0.20 +0.00    +0.004 C 
DOCKED: ATOM     46  C   UNL d   1       1.027  -6.634  11.120 -0.32 +0.00    +0.012 C 
DOCKED: ENDBRANCH  12  45
DOCKED: BRANCH  17  47
DOCKED: ATOM     47  C   UNL d   1      -3.854  -7.593  17.358 -0.11 -0.00    +0.004 C 
DOCKED: ATOM     48  C   UNL d   1      -4.685  -6.571  17.575 -0.16 -0.00    +0.012 C 
DOCKED: ENDBRANCH  17  47
DOCKED: TORSDOF 12
DOCKED: TER
DOCKED: ENDMDL
________________________________________________________________________________


	BEGINNING GENETIC ALGORITHM DOCKING 74 of 100
Run: 74 Seed: 1734893283 1813392478 [ Run 74 of 100 GA/GALS ]
Beginning LAMARCKIAN GENETIC ALGORITHM (LGA), with a maximum of 25000000 energy evaluations.

Final-Value: -10.729


	FINAL GENETIC ALGORITHM DOCKED STATE
	_______________________________________________


Detailed state:  trans 19.904 2.619 -3.144 quatxyzw 0.208634 -0.012960 0.669704 0.712601 center 8.781 34.984 -0.736 ntor 12 -35.8692 106.3021 120.7337 105.7642 133.1373 137.5648 -75.2123 -143.1861 102.2965 -48.3225 26.1853 18.0301
State:	 19.904   2.619  -3.144   0.297 -0.018  0.955 89.106    -35.87  106.30  120.73  105.76  133.14  137.56  -75.21 -143.19  102.30  -48.32   26.19   18.03

DOCKED: MODEL       74
DOCKED: USER    Run = 74
DOCKED: USER    DPF = D:/Protein_go_brrr/autodock/final/AncB/heme_Co/dock.dpf
DOCKED: USER  
DOCKED: USER    Estimated Free Energy of Binding    =   -5.15 kcal/mol  [=(1)+(2)+(3)-(4)]
DOCKED: USER    Estimated Inhibition Constant, Ki   =  168.76 uM (micromolar)  [Temperature = 298.15 K]
DOCKED: USER    
DOCKED: USER    (1) Final Intermolecular Energy     =   -8.73 kcal/mol
DOCKED: USER        vdW + Hbond + desolv Energy     =   -6.33 kcal/mol
DOCKED: USER        Electrostatic Energy            =   -2.39 kcal/mol
DOCKED: USER    (2) Final Total Internal Energy     =   -2.00 kcal/mol
DOCKED: USER    (3) Torsional Free Energy           =   +3.58 kcal/mol
DOCKED: USER    (4) Unbound System's Energy  [=(2)] =   -2.00 kcal/mol
DOCKED: USER    
DOCKED: USER    
DOCKED: USER    NEWDPF move heme_Co_opt.pdbqt
DOCKED: USER    NEWDPF about 8.781000 34.984000 -0.736000
DOCKED: USER    NEWDPF tran0 19.904422 2.619311 -3.144321
DOCKED: USER    NEWDPF quaternion0 0.208634 -0.012960 0.669704 0.712601
DOCKED: USER    NEWDPF axisangle0 0.297382 -0.018473 0.954580 89.106074
DOCKED: USER    NEWDPF quat0 0.297382 -0.018473 0.954580 89.106074
DOCKED: USER    NEWDPF dihe0 -35.87 106.30 120.73 105.76 133.14 137.56 -75.21 -143.19 102.30 -48.32 26.19 18.03 
DOCKED: USER  keepresnum = 1 
DOCKED: USER  
DOCKED: REMARK  12 active torsions:
DOCKED: REMARK  status: ('A' for Active; 'I' for Inactive)
DOCKED: REMARK    1  A    between atoms: C_6  and  C_10 
DOCKED: REMARK    2  A    between atoms: C_10  and  C_11 
DOCKED: REMARK    3  A    between atoms: C_11  and  C_12 
DOCKED: REMARK    4  A    between atoms: C_12  and  O_14 
DOCKED: REMARK    5  A    between atoms: C_17  and  C_20 
DOCKED: REMARK    6  A    between atoms: C_24  and  C_27 
DOCKED: REMARK    7  A    between atoms: C_31  and  C_34 
DOCKED: REMARK    8  A    between atoms: C_34  and  C_35 
DOCKED: REMARK    9  A    between atoms: C_35  and  C_36 
DOCKED: REMARK   10  A    between atoms: C_36  and  O_38 
DOCKED: REMARK   11  A    between atoms: FE_43  and  C_44 
DOCKED: REMARK   12  A    between atoms: C_44  and  O_45 
DOCKED: USER                              x       y       z     vdW  Elec       q    Type
DOCKED: USER                           _______ _______ _______ _____ _____    ______ ____
DOCKED: ROOT
DOCKED: ATOM      1  C   UNL d   1      19.926   4.247  -4.582 -0.12 +0.03    +0.064 A 
DOCKED: ATOM      2  C   UNL d   1      18.644   4.042  -0.008 -0.25 -0.00    +0.064 C 
DOCKED: ATOM      3  C   UNL d   1      19.354  -0.683   0.019 -0.19 +0.01    +0.064 A 
DOCKED: ATOM      4  C   UNL d   1      21.037  -0.442  -4.539 -0.09 +0.01    +0.064 A 
DOCKED: ATOM      5  C   UNL d   1      19.489   4.532  -3.345 -0.14 +0.02    +0.066 A 
DOCKED: ATOM      6  C   UNL d   1      19.232   5.853  -2.929 -0.16 -0.01    -0.021 A 
DOCKED: ATOM      7  C   UNL d   1      18.883   5.790  -1.594 -0.18 -0.00    -0.025 A 
DOCKED: ATOM      8  C   UNL d   1      18.924   4.433  -1.257 -0.21 +0.00    +0.066 A 
DOCKED: ATOM      9  C   UNL d   1      18.521   6.954  -0.659 -0.18 +0.01    +0.051 C 
DOCKED: ATOM     10  C   UNL d   1      18.635   2.666   0.425 -0.23 -0.00    +0.066 A 
DOCKED: ATOM     11  C   UNL d   1      18.214   2.179   1.681 -0.22 +0.00    -0.021 A 
DOCKED: ATOM     12  C   UNL d   1      18.428   0.799   1.660 -0.21 -0.00    +0.000 A 
DOCKED: ATOM     13  C   UNL d   1      18.951   0.544   0.392 -0.22 +0.00    +0.070 A 
DOCKED: ATOM     14  C   UNL d   1      17.564   2.984   2.777 -0.25 +0.00    +0.052 C 
DOCKED: ATOM     15  C   UNL d   1      19.962  -1.113  -1.226 -0.16 +0.01    +0.066 A 
DOCKED: ATOM     16  C   UNL d   1      20.489  -2.368  -1.494 -0.12 -0.00    -0.021 A 
DOCKED: ATOM     17  C   UNL d   1      20.978  -2.303  -2.806 -0.10 +0.00    +0.000 A 
DOCKED: ATOM     18  C   UNL d   1      20.693  -1.013  -3.243 -0.12 +0.01    +0.070 A 
DOCKED: ATOM     19  C   UNL d   1      20.510  -3.535  -0.531 -0.09 +0.01    +0.052 C 
DOCKED: ATOM     20  C   UNL d   1      20.848   0.833  -4.955 -0.09 +0.02    +0.066 A 
DOCKED: ATOM     21  C   UNL d   1      21.254   1.273  -6.213 -0.07 -0.01    -0.025 A 
DOCKED: ATOM     22  C   UNL d   1      20.920   2.614  -6.264 -0.08 -0.01    -0.021 A 
DOCKED: ATOM     23  C   UNL d   1      20.334   2.931  -5.021 -0.09 +0.03    +0.066 A 
DOCKED: ATOM     24  C   UNL d   1      21.944   0.461  -7.305 -0.03 +0.01    +0.051 C 
DOCKED: ATOM     25  N   UNL d   1      19.291   3.630  -2.324 -0.06 -0.05    -0.248 N 
DOCKED: ATOM     26  N   UNL d   1      19.023   1.666  -0.373 -0.16 -0.02    -0.248 N 
DOCKED: ATOM     27  N   UNL d   1      20.116  -0.324  -2.265 -0.10 -0.05    -0.248 N 
DOCKED: ATOM     28  N   UNL d   1      20.290   1.857  -4.224 +0.01 -0.08    -0.248 N 
DOCKED: ATOM     29 FE   UNL d   1      19.729   1.536  -2.297 -0.05 +0.00    +0.000 Fe
DOCKED: ENDROOT
DOCKED: BRANCH   6  30
DOCKED: ATOM     30  C   UNL d   1      19.400   7.118  -3.764 -0.13 +0.02    +0.052 C 
DOCKED: BRANCH  30  31
DOCKED: ATOM     31  C   UNL d   1      18.038   7.729  -4.093 -0.27 +0.05    +0.115 C 
DOCKED: BRANCH  31  32
DOCKED: ATOM     32  C   UNL d   1      17.351   7.021  -5.241 -0.35 +0.13    +0.139 C 
DOCKED: ATOM     33  O   UNL d   1      16.133   7.065  -5.331 -0.54 -0.74    -0.650 OA
DOCKED: BRANCH  32  34
DOCKED: ATOM     34  O   UNL d   1      18.047   6.377  -6.207 +0.12 -1.16    -0.776 OA
DOCKED: ATOM     35  H   UNL d   1      18.868   6.706  -6.597 +0.01 +0.15    +0.167 HD
DOCKED: ENDBRANCH  32  34
DOCKED: ENDBRANCH  31  32
DOCKED: ENDBRANCH  30  31
DOCKED: ENDBRANCH   6  30
DOCKED: BRANCH  29  36
DOCKED: ATOM     36  C   UNL d   1      21.645   2.060  -1.626 -0.04 +0.03    +0.190 C 
DOCKED: BRANCH  36  37
DOCKED: ATOM     37  O   UNL d   1      22.537   3.132  -1.531 -0.00 -0.05    -0.399 OA
DOCKED: ATOM     38  H   UNL d   1      22.102   3.874  -2.038 +0.01 +0.03    +0.209 HD
DOCKED: ENDBRANCH  36  37
DOCKED: ENDBRANCH  29  36
DOCKED: BRANCH  22  39
DOCKED: ATOM     39  C   UNL d   1      21.212   3.549  -7.423 -0.05 +0.02    +0.052 C 
DOCKED: BRANCH  39  40
DOCKED: ATOM     40  C   UNL d   1      19.906   4.124  -7.998 -0.11 +0.09    +0.115 C 
DOCKED: BRANCH  40  41
DOCKED: ATOM     41  C   UNL d   1      19.869   5.636  -8.071 -0.14 +0.12    +0.139 C 
DOCKED: ATOM     42  O   UNL d   1      20.795   6.281  -7.601 +0.01 -0.29    -0.650 OA
DOCKED: BRANCH  41  43
DOCKED: ATOM     43  O   UNL d   1      18.881   6.291  -8.720 -0.13 -0.93    -0.776 OA
DOCKED: ATOM     44  H   UNL d   1      18.361   6.991  -8.304 -0.16 +0.21    +0.167 HD
DOCKED: ENDBRANCH  41  43
DOCKED: ENDBRANCH  40  41
DOCKED: ENDBRANCH  39  40
DOCKED: ENDBRANCH  22  39
DOCKED: BRANCH  12  45
DOCKED: ATOM     45  C   UNL d   1      18.183  -0.306   2.679 -0.21 +0.00    +0.004 C 
DOCKED: ATOM     46  C   UNL d   1      17.169  -1.157   2.807 -0.30 +0.00    +0.012 C 
DOCKED: ENDBRANCH  12  45
DOCKED: BRANCH  17  47
DOCKED: ATOM     47  C   UNL d   1      21.707  -3.333  -3.605 -0.05 +0.00    +0.004 C 
DOCKED: ATOM     48  C   UNL d   1      21.185  -3.944  -4.671 -0.06 +0.00    +0.012 C 
DOCKED: ENDBRANCH  17  47
DOCKED: TORSDOF 12
DOCKED: TER
DOCKED: ENDMDL
________________________________________________________________________________


	BEGINNING GENETIC ALGORITHM DOCKING 75 of 100
Run: 75 Seed: 1596347162 619732071 [ Run 75 of 100 GA/GALS ]
Beginning LAMARCKIAN GENETIC ALGORITHM (LGA), with a maximum of 25000000 energy evaluations.

Final-Value: -12.365


	FINAL GENETIC ALGORITHM DOCKED STATE
	_______________________________________________


Detailed state:  trans -7.616 -1.014 -11.770 quatxyzw 0.457869 0.308478 0.750995 0.362220 center 8.781 34.984 -0.736 ntor 12 -165.9578 112.4296 69.9743 113.2742 -179.9910 129.2709 23.9395 -173.9647 178.6661 -62.7918 -179.1725 38.0465
State:	 -7.616  -1.014 -11.770   0.491  0.331  0.806 137.527   -165.96  112.43   69.97  113.27 -179.99  129.27   23.94 -173.96  178.67  -62.79 -179.17   38.05

DOCKED: MODEL       75
DOCKED: USER    Run = 75
DOCKED: USER    DPF = D:/Protein_go_brrr/autodock/final/AncB/heme_Co/dock.dpf
DOCKED: USER  
DOCKED: USER    Estimated Free Energy of Binding    =   -6.88 kcal/mol  [=(1)+(2)+(3)-(4)]
DOCKED: USER    Estimated Inhibition Constant, Ki   =    9.10 uM (micromolar)  [Temperature = 298.15 K]
DOCKED: USER    
DOCKED: USER    (1) Final Intermolecular Energy     =  -10.46 kcal/mol
DOCKED: USER        vdW + Hbond + desolv Energy     =   -6.83 kcal/mol
DOCKED: USER        Electrostatic Energy            =   -3.63 kcal/mol
DOCKED: USER    (2) Final Total Internal Energy     =   -1.91 kcal/mol
DOCKED: USER    (3) Torsional Free Energy           =   +3.58 kcal/mol
DOCKED: USER    (4) Unbound System's Energy  [=(2)] =   -1.91 kcal/mol
DOCKED: USER    
DOCKED: USER    
DOCKED: USER    NEWDPF move heme_Co_opt.pdbqt
DOCKED: USER    NEWDPF about 8.781000 34.984000 -0.736000
DOCKED: USER    NEWDPF tran0 -7.616284 -1.013602 -11.769744
DOCKED: USER    NEWDPF quaternion0 0.457869 0.308478 0.750995 0.362220
DOCKED: USER    NEWDPF axisangle0 0.491227 0.330952 0.805709 137.526822
DOCKED: USER    NEWDPF quat0 0.491227 0.330952 0.805709 137.526822
DOCKED: USER    NEWDPF dihe0 -165.96 112.43 69.97 113.27 -179.99 129.27 23.94 -173.96 178.67 -62.79 -179.17 38.05 
DOCKED: USER  keepresnum = 1 
DOCKED: USER  
DOCKED: REMARK  12 active torsions:
DOCKED: REMARK  status: ('A' for Active; 'I' for Inactive)
DOCKED: REMARK    1  A    between atoms: C_6  and  C_10 
DOCKED: REMARK    2  A    between atoms: C_10  and  C_11 
DOCKED: REMARK    3  A    between atoms: C_11  and  C_12 
DOCKED: REMARK    4  A    between atoms: C_12  and  O_14 
DOCKED: REMARK    5  A    between atoms: C_17  and  C_20 
DOCKED: REMARK    6  A    between atoms: C_24  and  C_27 
DOCKED: REMARK    7  A    between atoms: C_31  and  C_34 
DOCKED: REMARK    8  A    between atoms: C_34  and  C_35 
DOCKED: REMARK    9  A    between atoms: C_35  and  C_36 
DOCKED: REMARK   10  A    between atoms: C_36  and  O_38 
DOCKED: REMARK   11  A    between atoms: FE_43  and  C_44 
DOCKED: REMARK   12  A    between atoms: C_44  and  O_45 
DOCKED: USER                              x       y       z     vdW  Elec       q    Type
DOCKED: USER                           _______ _______ _______ _____ _____    ______ ____
DOCKED: ROOT
DOCKED: ATOM      1  C   UNL d   1      -6.983  -1.456 -13.799 -0.07 +0.07    +0.064 A 
DOCKED: ATOM      2  C   UNL d   1      -7.848   2.640 -11.544 -0.11 +0.04    +0.064 C 
DOCKED: ATOM      3  C   UNL d   1      -9.333   0.245  -7.685 -0.21 +0.01    +0.064 A 
DOCKED: ATOM      4  C   UNL d   1      -8.094  -3.945  -9.825 -0.23 +0.03    +0.064 A 
DOCKED: ATOM      5  C   UNL d   1      -7.144  -0.162 -13.479 -0.04 +0.06    +0.066 A 
DOCKED: ATOM      6  C   UNL d   1      -6.746   0.877 -14.344 -0.04 -0.02    -0.021 A 
DOCKED: ATOM      7  C   UNL d   1      -6.978   2.063 -13.675 -0.08 -0.02    -0.025 A 
DOCKED: ATOM      8  C   UNL d   1      -7.523   1.698 -12.439 -0.06 +0.04    +0.066 A 
DOCKED: ATOM      9  C   UNL d   1      -6.703   3.492 -14.167 -0.06 +0.06    +0.051 C 
DOCKED: ATOM     10  C   UNL d   1      -8.438   2.361 -10.258 -0.09 +0.03    +0.066 A 
DOCKED: ATOM     11  C   UNL d   1      -8.930   3.308  -9.333 -0.14 -0.01    -0.021 A 
DOCKED: ATOM     12  C   UNL d   1      -9.360   2.582  -8.219 -0.20 +0.00    +0.000 A 
DOCKED: ATOM     13  C   UNL d   1      -9.112   1.250  -8.551 -0.15 +0.02    +0.070 A 
DOCKED: ATOM     14  C   UNL d   1      -9.059   4.792  -9.559 -0.14 +0.02    +0.052 C 
DOCKED: ATOM     15  C   UNL d   1      -9.086  -1.175  -7.842 -0.18 +0.02    +0.066 A 
DOCKED: ATOM     16  C   UNL d   1      -9.201  -2.144  -6.855 -0.29 -0.00    -0.021 A 
DOCKED: ATOM     17  C   UNL d   1      -8.842  -3.354  -7.467 -0.32 +0.00    +0.000 A 
DOCKED: ATOM     18  C   UNL d   1      -8.552  -3.028  -8.788 -0.19 +0.02    +0.070 A 
DOCKED: ATOM     19  C   UNL d   1      -9.628  -1.894  -5.426 -0.32 +0.01    +0.052 C 
DOCKED: ATOM     20  C   UNL d   1      -7.723  -3.638 -11.091 -0.17 +0.04    +0.066 A 
DOCKED: ATOM     21  C   UNL d   1      -7.266  -4.602 -11.986 -0.26 -0.02    -0.025 A 
DOCKED: ATOM     22  C   UNL d   1      -6.965  -3.918 -13.150 -0.17 -0.02    -0.021 A 
DOCKED: ATOM     23  C   UNL d   1      -7.245  -2.558 -12.901 -0.11 +0.06    +0.066 A 
DOCKED: ATOM     24  C   UNL d   1      -7.104  -6.100 -11.739 -0.38 +0.03    +0.051 C 
DOCKED: ATOM     25  N   UNL d   1      -7.643   0.327 -12.293 -0.01 -0.16    -0.248 N 
DOCKED: ATOM     26  N   UNL d   1      -8.606   1.114  -9.806 -0.04 -0.09    -0.248 N 
DOCKED: ATOM     27  N   UNL d   1      -8.678  -1.718  -8.967 -0.07 -0.08    -0.248 N 
DOCKED: ATOM     28  N   UNL d   1      -7.702  -2.383 -11.655 -0.05 -0.16    -0.248 N 
DOCKED: ATOM     29 FE   UNL d   1      -8.191  -0.760 -10.533 -0.02 +0.00    +0.000 Fe
DOCKED: ENDROOT
DOCKED: BRANCH   6  30
DOCKED: ATOM     30  C   UNL d   1      -6.096   0.720 -15.715 -0.04 +0.05    +0.052 C 
DOCKED: BRANCH  30  31
DOCKED: ATOM     31  C   UNL d   1      -4.574   0.798 -15.600 -0.08 +0.15    +0.115 C 
DOCKED: BRANCH  31  32
DOCKED: ATOM     32  C   UNL d   1      -4.116   1.085 -14.186 -0.12 +0.23    +0.139 C 
DOCKED: ATOM     33  O   UNL d   1      -3.698   2.198 -13.904 -0.38 -1.50    -0.650 OA
DOCKED: BRANCH  32  34
DOCKED: ATOM     34  O   UNL d   1      -4.198   0.158 -13.203 +0.02 -1.33    -0.776 OA
DOCKED: ATOM     35  H   UNL d   1      -4.046   0.344 -12.267 +0.05 +0.23    +0.167 HD
DOCKED: ENDBRANCH  32  34
DOCKED: ENDBRANCH  31  32
DOCKED: ENDBRANCH  30  31
DOCKED: ENDBRANCH   6  30
DOCKED: BRANCH  29  36
DOCKED: ATOM     36  C   UNL d   1      -6.196  -0.553  -9.921 -0.14 +0.11    +0.190 C 
DOCKED: BRANCH  36  37
DOCKED: ATOM     37  O   UNL d   1      -4.896  -0.372 -10.403 -0.08 -0.32    -0.399 OA
DOCKED: ATOM     38  H   UNL d   1      -4.992  -0.344 -11.396 +0.07 +0.23    +0.209 HD
DOCKED: ENDBRANCH  36  37
DOCKED: ENDBRANCH  29  36
DOCKED: BRANCH  22  39
DOCKED: ATOM     39  C   UNL d   1      -6.380  -4.535 -14.406 -0.04 +0.06    +0.052 C 
DOCKED: BRANCH  39  40
DOCKED: ATOM     40  C   UNL d   1      -7.039  -3.939 -15.661 -0.08 +0.11    +0.115 C 
DOCKED: BRANCH  40  41
DOCKED: ATOM     41  C   UNL d   1      -6.120  -3.074 -16.498 -0.07 +0.16    +0.139 C 
DOCKED: ATOM     42  O   UNL d   1      -5.285  -2.374 -15.942 -0.26 -1.26    -0.650 OA
DOCKED: BRANCH  41  43
DOCKED: ATOM     43  O   UNL d   1      -6.138  -3.118 -17.849 +0.03 -0.61    -0.776 OA
DOCKED: ATOM     44  H   UNL d   1      -6.831  -2.697 -18.373 +0.01 +0.10    +0.167 HD
DOCKED: ENDBRANCH  41  43
DOCKED: ENDBRANCH  40  41
DOCKED: ENDBRANCH  39  40
DOCKED: ENDBRANCH  22  39
DOCKED: BRANCH  12  45
DOCKED: ATOM     45  C   UNL d   1      -9.992   2.990  -6.895 -0.17 +0.00    +0.004 C 
DOCKED: ATOM     46  C   UNL d   1     -11.248   2.891  -6.468 -0.24 -0.00    +0.012 C 
DOCKED: ENDBRANCH  12  45
DOCKED: BRANCH  17  47
DOCKED: ATOM     47  C   UNL d   1      -8.719  -4.721  -6.878 -0.53 +0.00    +0.004 C 
DOCKED: ATOM     48  C   UNL d   1      -8.776  -5.843  -7.601 -0.57 +0.00    +0.012 C 
DOCKED: ENDBRANCH  17  47
DOCKED: TORSDOF 12
DOCKED: TER
DOCKED: ENDMDL
________________________________________________________________________________


	BEGINNING GENETIC ALGORITHM DOCKING 76 of 100
Run: 76 Seed: 1961135118 1866547737 [ Run 76 of 100 GA/GALS ]
Beginning LAMARCKIAN GENETIC ALGORITHM (LGA), with a maximum of 25000000 energy evaluations.

Final-Value: -11.421


	FINAL GENETIC ALGORITHM DOCKED STATE
	_______________________________________________


Detailed state:  trans 15.892 -0.570 -11.537 quatxyzw -0.021474 0.704638 -0.429768 -0.564201 center 8.781 34.984 -0.736 ntor 12 162.6454 77.8927 -49.3408 117.8434 -84.2252 137.6095 21.9953 161.9284 -83.0955 -7.1105 -171.3924 152.0436
State:	 15.892  -0.570 -11.537  -0.026  0.853 -0.521 -111.306    162.65   77.89  -49.34  117.84  -84.23  137.61   22.00  161.93  -83.10   -7.11 -171.39  152.04

DOCKED: MODEL       76
DOCKED: USER    Run = 76
DOCKED: USER    DPF = D:/Protein_go_brrr/autodock/final/AncB/heme_Co/dock.dpf
DOCKED: USER  
DOCKED: USER    Estimated Free Energy of Binding    =   -5.89 kcal/mol  [=(1)+(2)+(3)-(4)]
DOCKED: USER    Estimated Inhibition Constant, Ki   =   48.20 uM (micromolar)  [Temperature = 298.15 K]
DOCKED: USER    
DOCKED: USER    (1) Final Intermolecular Energy     =   -9.47 kcal/mol
DOCKED: USER        vdW + Hbond + desolv Energy     =   -7.48 kcal/mol
DOCKED: USER        Electrostatic Energy            =   -1.99 kcal/mol
DOCKED: USER    (2) Final Total Internal Energy     =   -1.95 kcal/mol
DOCKED: USER    (3) Torsional Free Energy           =   +3.58 kcal/mol
DOCKED: USER    (4) Unbound System's Energy  [=(2)] =   -1.95 kcal/mol
DOCKED: USER    
DOCKED: USER    
DOCKED: USER    NEWDPF move heme_Co_opt.pdbqt
DOCKED: USER    NEWDPF about 8.781000 34.984000 -0.736000
DOCKED: USER    NEWDPF tran0 15.892054 -0.570254 -11.536830
DOCKED: USER    NEWDPF quaternion0 -0.021474 0.704638 -0.429768 -0.564201
DOCKED: USER    NEWDPF axisangle0 -0.026010 0.853448 -0.520529 -111.306341
DOCKED: USER    NEWDPF quat0 -0.026010 0.853448 -0.520529 -111.306341
DOCKED: USER    NEWDPF dihe0 162.65 77.89 -49.34 117.84 -84.23 137.61 22.00 161.93 -83.10 -7.11 -171.39 152.04 
DOCKED: USER  keepresnum = 1 
DOCKED: USER  
DOCKED: REMARK  12 active torsions:
DOCKED: REMARK  status: ('A' for Active; 'I' for Inactive)
DOCKED: REMARK    1  A    between atoms: C_6  and  C_10 
DOCKED: REMARK    2  A    between atoms: C_10  and  C_11 
DOCKED: REMARK    3  A    between atoms: C_11  and  C_12 
DOCKED: REMARK    4  A    between atoms: C_12  and  O_14 
DOCKED: REMARK    5  A    between atoms: C_17  and  C_20 
DOCKED: REMARK    6  A    between atoms: C_24  and  C_27 
DOCKED: REMARK    7  A    between atoms: C_31  and  C_34 
DOCKED: REMARK    8  A    between atoms: C_34  and  C_35 
DOCKED: REMARK    9  A    between atoms: C_35  and  C_36 
DOCKED: REMARK   10  A    between atoms: C_36  and  O_38 
DOCKED: REMARK   11  A    between atoms: FE_43  and  C_44 
DOCKED: REMARK   12  A    between atoms: C_44  and  O_45 
DOCKED: USER                              x       y       z     vdW  Elec       q    Type
DOCKED: USER                           _______ _______ _______ _____ _____    ______ ____
DOCKED: ROOT
DOCKED: ATOM      1  C   UNL d   1      16.129   1.235 -10.353 -0.32 +0.03    +0.064 A 
DOCKED: ATOM      2  C   UNL d   1      17.502  -3.260  -9.633 -0.19 +0.02    +0.064 C 
DOCKED: ATOM      3  C   UNL d   1      15.213  -4.634 -13.596 -0.09 +0.02    +0.064 A 
DOCKED: ATOM      4  C   UNL d   1      14.124   0.008 -14.560 -0.27 +0.02    +0.064 A 
DOCKED: ATOM      5  C   UNL d   1      16.641   0.102  -9.846 -0.32 +0.02    +0.066 A 
DOCKED: ATOM      6  C   UNL d   1      17.458   0.099  -8.699 -0.25 -0.01    -0.021 A 
DOCKED: ATOM      7  C   UNL d   1      17.872  -1.204  -8.507 -0.24 -0.01    -0.025 A 
DOCKED: ATOM      8  C   UNL d   1      17.278  -1.943  -9.536 -0.22 +0.02    +0.066 A 
DOCKED: ATOM      9  C   UNL d   1      18.793  -1.748  -7.404 -0.23 +0.02    +0.051 C 
DOCKED: ATOM     10  C   UNL d   1      16.913  -4.107 -10.641 -0.15 +0.03    +0.066 A 
DOCKED: ATOM     11  C   UNL d   1      16.995  -5.514 -10.714 -0.13 -0.01    -0.021 A 
DOCKED: ATOM     12  C   UNL d   1      16.316  -5.888 -11.876 -0.14 +0.00    +0.000 A 
DOCKED: ATOM     13  C   UNL d   1      15.860  -4.686 -12.418 -0.10 +0.03    +0.070 A 
DOCKED: ATOM     14  C   UNL d   1      17.604  -6.427  -9.680 -0.10 +0.02    +0.052 C 
DOCKED: ATOM     15  C   UNL d   1      14.721  -3.481 -14.325 -0.09 +0.02    +0.066 A 
DOCKED: ATOM     16  C   UNL d   1      14.190  -3.482 -15.607 -0.12 -0.00    -0.021 A 
DOCKED: ATOM     17  C   UNL d   1      13.877  -2.145 -15.890 -0.18 +0.00    +0.000 A 
DOCKED: ATOM     18  C   UNL d   1      14.227  -1.434 -14.748 -0.18 +0.02    +0.070 A 
DOCKED: ATOM     19  C   UNL d   1      14.009  -4.704 -16.479 -0.05 +0.01    +0.052 C 
DOCKED: ATOM     20  C   UNL d   1      14.538   0.733 -13.493 -0.25 +0.02    +0.066 A 
DOCKED: ATOM     21  C   UNL d   1      14.418   2.120 -13.444 -0.29 -0.01    -0.025 A 
DOCKED: ATOM     22  C   UNL d   1      14.961   2.499 -12.230 -0.28 -0.01    -0.021 A 
DOCKED: ATOM     23  C   UNL d   1      15.400   1.316 -11.599 -0.27 +0.03    +0.066 A 
DOCKED: ATOM     24  C   UNL d   1      13.832   3.042 -14.510 -0.27 +0.02    +0.051 C 
DOCKED: ATOM     25  N   UNL d   1      16.505  -1.161 -10.377 -0.19 -0.08    -0.248 N 
DOCKED: ATOM     26  N   UNL d   1      16.173  -3.616 -11.641 -0.11 -0.11    -0.248 N 
DOCKED: ATOM     27  N   UNL d   1      14.755  -2.256 -13.848 -0.09 -0.08    -0.248 N 
DOCKED: ATOM     28  N   UNL d   1      15.148   0.245 -12.361 -0.17 -0.08    -0.248 N 
DOCKED: ATOM     29 FE   UNL d   1      15.577  -1.738 -12.216 -0.06 +0.00    +0.000 Fe
DOCKED: ENDROOT
DOCKED: BRANCH   6  30
DOCKED: ATOM     30  C   UNL d   1      17.881   1.315  -7.880 -0.18 +0.03    +0.052 C 
DOCKED: BRANCH  30  31
DOCKED: ATOM     31  C   UNL d   1      19.149   1.939  -8.461 -0.15 +0.07    +0.115 C 
DOCKED: BRANCH  31  32
DOCKED: ATOM     32  C   UNL d   1      18.849   3.080  -9.409 -0.12 +0.11    +0.139 C 
DOCKED: ATOM     33  O   UNL d   1      19.011   2.922 -10.610 +0.03 -0.35    -0.650 OA
DOCKED: BRANCH  32  34
DOCKED: ATOM     34  O   UNL d   1      18.358   4.264  -8.975 -0.08 -1.42    -0.776 OA
DOCKED: ATOM     35  H   UNL d   1      18.429   5.095  -9.465 +0.04 +0.26    +0.167 HD
DOCKED: ENDBRANCH  32  34
DOCKED: ENDBRANCH  31  32
DOCKED: ENDBRANCH  30  31
DOCKED: ENDBRANCH   6  30
DOCKED: BRANCH  29  36
DOCKED: ATOM     36  C   UNL d   1      17.440  -1.425 -13.124 -0.05 +0.05    +0.190 C 
DOCKED: BRANCH  36  37
DOCKED: ATOM     37  O   UNL d   1      18.682  -0.810 -12.936 +0.00 -0.09    -0.399 OA
DOCKED: ATOM     38  H   UNL d   1      18.479   0.030 -12.437 +0.03 +0.05    +0.209 HD
DOCKED: ENDBRANCH  36  37
DOCKED: ENDBRANCH  29  36
DOCKED: BRANCH  22  39
DOCKED: ATOM     39  C   UNL d   1      15.107   3.927 -11.739 -0.38 +0.03    +0.052 C 
DOCKED: BRANCH  39  40
DOCKED: ATOM     40  C   UNL d   1      16.576   4.375 -11.802 -0.22 +0.07    +0.115 C 
DOCKED: BRANCH  40  41
DOCKED: ATOM     41  C   UNL d   1      16.783   5.865 -11.624 -0.30 +0.10    +0.139 C 
DOCKED: ATOM     42  O   UNL d   1      16.262   6.640 -12.413 -0.17 -0.37    -0.650 OA
DOCKED: BRANCH  41  43
DOCKED: ATOM     43  O   UNL d   1      17.456   6.366 -10.565 -0.10 -0.84    -0.776 OA
DOCKED: ATOM     44  H   UNL d   1      17.328   6.038  -9.665 -0.06 +0.33    +0.167 HD
DOCKED: ENDBRANCH  41  43
DOCKED: ENDBRANCH  40  41
DOCKED: ENDBRANCH  39  40
DOCKED: ENDBRANCH  22  39
DOCKED: BRANCH  12  45
DOCKED: ATOM     45  C   UNL d   1      16.031  -7.237 -12.524 -0.11 +0.00    +0.004 C 
DOCKED: ATOM     46  C   UNL d   1      14.893  -7.916 -12.644 -0.12 +0.01    +0.012 C 
DOCKED: ENDBRANCH  12  45
DOCKED: BRANCH  17  47
DOCKED: ATOM     47  C   UNL d   1      13.338  -1.537 -17.143 -0.12 +0.00    +0.004 C 
DOCKED: ATOM     48  C   UNL d   1      14.074  -0.807 -17.984 -0.10 +0.00    +0.012 C 
DOCKED: ENDBRANCH  17  47
DOCKED: TORSDOF 12
DOCKED: TER
DOCKED: ENDMDL
________________________________________________________________________________


	BEGINNING GENETIC ALGORITHM DOCKING 77 of 100
Run: 77 Seed: 1494815865 1607378153 [ Run 77 of 100 GA/GALS ]
Beginning LAMARCKIAN GENETIC ALGORITHM (LGA), with a maximum of 25000000 energy evaluations.

Final-Value: -10.189


	FINAL GENETIC ALGORITHM DOCKED STATE
	_______________________________________________


Detailed state:  trans 17.775 4.451 1.206 quatxyzw 0.103346 -0.080350 0.635804 0.760669 center 8.781 34.984 -0.736 ntor 12 168.1028 115.4027 -1.6204 122.0388 137.4593 138.2099 -132.4404 166.8285 -141.5233 93.8074 -175.2755 10.9241
State:	 17.775   4.451   1.206   0.159 -0.124  0.979 80.954    168.10  115.40   -1.62  122.04  137.46  138.21 -132.44  166.83 -141.52   93.81 -175.28   10.92

DOCKED: MODEL       77
DOCKED: USER    Run = 77
DOCKED: USER    DPF = D:/Protein_go_brrr/autodock/final/AncB/heme_Co/dock.dpf
DOCKED: USER  
DOCKED: USER    Estimated Free Energy of Binding    =   -4.32 kcal/mol  [=(1)+(2)+(3)-(4)]
DOCKED: USER    Estimated Inhibition Constant, Ki   =  677.52 uM (micromolar)  [Temperature = 298.15 K]
DOCKED: USER    
DOCKED: USER    (1) Final Intermolecular Energy     =   -7.90 kcal/mol
DOCKED: USER        vdW + Hbond + desolv Energy     =   -6.69 kcal/mol
DOCKED: USER        Electrostatic Energy            =   -1.21 kcal/mol
DOCKED: USER    (2) Final Total Internal Energy     =   -2.29 kcal/mol
DOCKED: USER    (3) Torsional Free Energy           =   +3.58 kcal/mol
DOCKED: USER    (4) Unbound System's Energy  [=(2)] =   -2.29 kcal/mol
DOCKED: USER    
DOCKED: USER    
DOCKED: USER    NEWDPF move heme_Co_opt.pdbqt
DOCKED: USER    NEWDPF about 8.781000 34.984000 -0.736000
DOCKED: USER    NEWDPF tran0 17.775265 4.450946 1.205651
DOCKED: USER    NEWDPF quaternion0 0.103346 -0.080350 0.635804 0.760669
DOCKED: USER    NEWDPF axisangle0 0.159205 -0.123780 0.979455 80.953579
DOCKED: USER    NEWDPF quat0 0.159205 -0.123780 0.979455 80.953579
DOCKED: USER    NEWDPF dihe0 168.10 115.40 -1.62 122.04 137.46 138.21 -132.44 166.83 -141.52 93.81 -175.28 10.92 
DOCKED: USER  keepresnum = 1 
DOCKED: USER  
DOCKED: REMARK  12 active torsions:
DOCKED: REMARK  status: ('A' for Active; 'I' for Inactive)
DOCKED: REMARK    1  A    between atoms: C_6  and  C_10 
DOCKED: REMARK    2  A    between atoms: C_10  and  C_11 
DOCKED: REMARK    3  A    between atoms: C_11  and  C_12 
DOCKED: REMARK    4  A    between atoms: C_12  and  O_14 
DOCKED: REMARK    5  A    between atoms: C_17  and  C_20 
DOCKED: REMARK    6  A    between atoms: C_24  and  C_27 
DOCKED: REMARK    7  A    between atoms: C_31  and  C_34 
DOCKED: REMARK    8  A    between atoms: C_34  and  C_35 
DOCKED: REMARK    9  A    between atoms: C_35  and  C_36 
DOCKED: REMARK   10  A    between atoms: C_36  and  O_38 
DOCKED: REMARK   11  A    between atoms: FE_43  and  C_44 
DOCKED: REMARK   12  A    between atoms: C_44  and  O_45 
DOCKED: USER                              x       y       z     vdW  Elec       q    Type
DOCKED: USER                           _______ _______ _______ _____ _____    ______ ____
DOCKED: ROOT
DOCKED: ATOM      1  C   UNL d   1      17.688   6.393   0.238 -0.06 +0.00    +0.064 A 
DOCKED: ATOM      2  C   UNL d   1      16.332   4.907   4.546 -0.16 +0.01    +0.064 C 
DOCKED: ATOM      3  C   UNL d   1      17.442   0.407   3.385 -0.19 +0.00    +0.064 A 
DOCKED: ATOM      4  C   UNL d   1      19.194   1.954  -0.881 -0.04 +0.01    +0.064 A 
DOCKED: ATOM      5  C   UNL d   1      17.202   6.312   1.487 -0.22 +0.01    +0.066 A 
DOCKED: ATOM      6  C   UNL d   1      16.826   7.456   2.218 -0.16 -0.00    -0.021 A 
DOCKED: ATOM      7  C   UNL d   1      16.454   7.021   3.475 -0.15 -0.00    -0.025 A 
DOCKED: ATOM      8  C   UNL d   1      16.605   5.631   3.453 -0.18 +0.01    +0.066 A 
DOCKED: ATOM      9  C   UNL d   1      15.975   7.870   4.662 -0.08 +0.01    +0.051 C 
DOCKED: ATOM     10  C   UNL d   1      16.432   3.470   4.609 -0.09 +0.01    +0.066 A 
DOCKED: ATOM     11  C   UNL d   1      16.027   2.643   5.679 -0.11 -0.00    -0.021 A 
DOCKED: ATOM     12  C   UNL d   1      16.359   1.335   5.312 -0.14 +0.00    +0.000 A 
DOCKED: ATOM     13  C   UNL d   1      16.928   1.460   4.045 -0.19 +0.00    +0.070 A 
DOCKED: ATOM     14  C   UNL d   1      15.288   3.082   6.917 -0.08 +0.01    +0.052 C 
DOCKED: ATOM     15  C   UNL d   1      18.110   0.364   2.099 -0.19 -0.00    +0.066 A 
DOCKED: ATOM     16  C   UNL d   1      18.748  -0.734   1.540 -0.19 -0.00    -0.021 A 
DOCKED: ATOM     17  C   UNL d   1      19.257  -0.292   0.310 -0.21 +0.00    +0.000 A 
DOCKED: ATOM     18  C   UNL d   1      18.873   1.041   0.209 -0.23 +0.00    +0.070 A 
DOCKED: ATOM     19  C   UNL d   1      18.848  -2.105   2.170 -0.13 +0.00    +0.052 C 
DOCKED: ATOM     20  C   UNL d   1      18.906   3.275  -0.962 -0.20 +0.00    +0.066 A 
DOCKED: ATOM     21  C   UNL d   1      19.299   4.057  -2.046 -0.17 -0.00    -0.025 A 
DOCKED: ATOM     22  C   UNL d   1      18.854   5.336  -1.764 -0.18 -0.00    -0.021 A 
DOCKED: ATOM     23  C   UNL d   1      18.216   5.272  -0.507 +0.02 -0.00    +0.066 A 
DOCKED: ATOM     24  C   UNL d   1      20.079   3.613  -3.280 -0.09 +0.01    +0.051 C 
DOCKED: ATOM     25  N   UNL d   1      17.061   5.163   2.232 -0.21 -0.02    -0.248 N 
DOCKED: ATOM     26  N   UNL d   1      16.920   2.745   3.598 -0.16 -0.01    -0.248 N 
DOCKED: ATOM     27  N   UNL d   1      18.218   1.406   1.305 -0.15 +0.02    -0.248 N 
DOCKED: ATOM     28  N   UNL d   1      18.248   4.027  -0.017 -0.20 +0.02    -0.248 N 
DOCKED: ATOM     29 FE   UNL d   1      17.675   3.174   1.738 -0.06 -0.00    +0.000 Fe
DOCKED: ENDROOT
DOCKED: BRANCH   6  30
DOCKED: ATOM     30  C   UNL d   1      16.902   8.904   1.744 -0.00 +0.01    +0.052 C 
DOCKED: BRANCH  30  31
DOCKED: ATOM     31  C   UNL d   1      18.248   9.522   2.123 -0.05 +0.02    +0.115 C 
DOCKED: BRANCH  31  32
DOCKED: ATOM     32  C   UNL d   1      19.388   8.533   2.017 -0.03 +0.02    +0.139 C 
DOCKED: ATOM     33  O   UNL d   1      20.088   8.528   1.016 +0.01 -0.08    -0.650 OA
DOCKED: BRANCH  32  34
DOCKED: ATOM     34  O   UNL d   1      19.693   7.678   3.022 +0.02 -0.08    -0.776 OA
DOCKED: ATOM     35  H   UNL d   1      20.252   6.896   2.919 +0.01 +0.02    +0.167 HD
DOCKED: ENDBRANCH  32  34
DOCKED: ENDBRANCH  31  32
DOCKED: ENDBRANCH  30  31
DOCKED: ENDBRANCH   6  30
DOCKED: BRANCH  29  36
DOCKED: ATOM     36  C   UNL d   1      19.525   3.651   2.601 -0.05 +0.01    +0.190 C 
DOCKED: BRANCH  36  37
DOCKED: ATOM     37  O   UNL d   1      20.316   4.727   3.015 -0.00 -0.03    -0.399 OA
DOCKED: ATOM     38  H   UNL d   1      19.758   5.537   2.845 +0.02 +0.02    +0.209 HD
DOCKED: ENDBRANCH  36  37
DOCKED: ENDBRANCH  29  36
DOCKED: BRANCH  22  39
DOCKED: ATOM     39  C   UNL d   1      19.088   6.559  -2.630 -0.16 +0.01    +0.052 C 
DOCKED: BRANCH  39  40
DOCKED: ATOM     40  C   UNL d   1      17.766   7.057  -3.236 -0.29 +0.04    +0.115 C 
DOCKED: BRANCH  40  41
DOCKED: ATOM     41  C   UNL d   1      17.445   6.478  -4.598 -0.37 +0.10    +0.139 C 
DOCKED: ATOM     42  O   UNL d   1      18.261   6.589  -5.502 -0.02 -0.58    -0.650 OA
DOCKED: BRANCH  41  43
DOCKED: ATOM     43  O   UNL d   1      16.319   5.766  -4.820 -0.45 -0.81    -0.776 OA
DOCKED: ATOM     44  H   UNL d   1      15.637   5.649  -4.145 -0.36 +0.06    +0.167 HD
DOCKED: ENDBRANCH  41  43
DOCKED: ENDBRANCH  40  41
DOCKED: ENDBRANCH  39  40
DOCKED: ENDBRANCH  22  39
DOCKED: BRANCH  12  45
DOCKED: ATOM     45  C   UNL d   1      16.187  -0.012   6.001 -0.12 +0.00    +0.004 C 
DOCKED: ATOM     46  C   UNL d   1      15.433  -1.059   5.680 -0.18 +0.00    +0.012 C 
DOCKED: ENDBRANCH  12  45
DOCKED: BRANCH  17  47
DOCKED: ATOM     47  C   UNL d   1      20.088  -1.020  -0.695 -0.18 +0.00    +0.004 C 
DOCKED: ATOM     48  C   UNL d   1      19.672  -1.298  -1.933 -0.25 +0.00    +0.012 C 
DOCKED: ENDBRANCH  17  47
DOCKED: TORSDOF 12
DOCKED: TER
DOCKED: ENDMDL
________________________________________________________________________________


	BEGINNING GENETIC ALGORITHM DOCKING 78 of 100
Run: 78 Seed: 925376476 135485446 [ Run 78 of 100 GA/GALS ]
Beginning LAMARCKIAN GENETIC ALGORITHM (LGA), with a maximum of 25000000 energy evaluations.

Final-Value: -11.524


	FINAL GENETIC ALGORITHM DOCKED STATE
	_______________________________________________


Detailed state:  trans 15.912 -0.319 -11.545 quatxyzw -0.020923 0.705818 -0.426036 -0.565577 center 8.781 34.984 -0.736 ntor 12 142.1194 107.1296 -77.0121 117.0441 -81.2054 110.2479 -122.9756 -37.9250 -126.0420 -141.0986 -177.6098 149.7065
State:	 15.912  -0.319 -11.545  -0.025  0.856 -0.517 -111.115    142.12  107.13  -77.01  117.04  -81.21  110.25 -122.98  -37.92 -126.04 -141.10 -177.61  149.71

DOCKED: MODEL       78
DOCKED: USER    Run = 78
DOCKED: USER    DPF = D:/Protein_go_brrr/autodock/final/AncB/heme_Co/dock.dpf
DOCKED: USER  
DOCKED: USER    Estimated Free Energy of Binding    =   -3.83 kcal/mol  [=(1)+(2)+(3)-(4)]
DOCKED: USER    Estimated Inhibition Constant, Ki   =    1.55 mM (millimolar)  [Temperature = 298.15 K]
DOCKED: USER    
DOCKED: USER    (1) Final Intermolecular Energy     =   -7.41 kcal/mol
DOCKED: USER        vdW + Hbond + desolv Energy     =   -6.70 kcal/mol
DOCKED: USER        Electrostatic Energy            =   -0.72 kcal/mol
DOCKED: USER    (2) Final Total Internal Energy     =   -4.11 kcal/mol
DOCKED: USER    (3) Torsional Free Energy           =   +3.58 kcal/mol
DOCKED: USER    (4) Unbound System's Energy  [=(2)] =   -4.11 kcal/mol
DOCKED: USER    
DOCKED: USER    
DOCKED: USER    NEWDPF move heme_Co_opt.pdbqt
DOCKED: USER    NEWDPF about 8.781000 34.984000 -0.736000
DOCKED: USER    NEWDPF tran0 15.912339 -0.319355 -11.544715
DOCKED: USER    NEWDPF quaternion0 -0.020923 0.705818 -0.426036 -0.565577
DOCKED: USER    NEWDPF axisangle0 -0.025371 0.855852 -0.516597 -111.115266
DOCKED: USER    NEWDPF quat0 -0.025371 0.855852 -0.516597 -111.115266
DOCKED: USER    NEWDPF dihe0 142.12 107.13 -77.01 117.04 -81.21 110.25 -122.98 -37.92 -126.04 -141.10 -177.61 149.71 
DOCKED: USER  keepresnum = 1 
DOCKED: USER  
DOCKED: REMARK  12 active torsions:
DOCKED: REMARK  status: ('A' for Active; 'I' for Inactive)
DOCKED: REMARK    1  A    between atoms: C_6  and  C_10 
DOCKED: REMARK    2  A    between atoms: C_10  and  C_11 
DOCKED: REMARK    3  A    between atoms: C_11  and  C_12 
DOCKED: REMARK    4  A    between atoms: C_12  and  O_14 
DOCKED: REMARK    5  A    between atoms: C_17  and  C_20 
DOCKED: REMARK    6  A    between atoms: C_24  and  C_27 
DOCKED: REMARK    7  A    between atoms: C_31  and  C_34 
DOCKED: REMARK    8  A    between atoms: C_34  and  C_35 
DOCKED: REMARK    9  A    between atoms: C_35  and  C_36 
DOCKED: REMARK   10  A    between atoms: C_36  and  O_38 
DOCKED: REMARK   11  A    between atoms: FE_43  and  C_44 
DOCKED: REMARK   12  A    between atoms: C_44  and  O_45 
DOCKED: USER                              x       y       z     vdW  Elec       q    Type
DOCKED: USER                           _______ _______ _______ _____ _____    ______ ____
DOCKED: ROOT
DOCKED: ATOM      1  C   UNL d   1      16.140   1.479 -10.349 -0.31 +0.04    +0.064 A 
DOCKED: ATOM      2  C   UNL d   1      17.532  -3.015  -9.658 -0.19 +0.02    +0.064 C 
DOCKED: ATOM      3  C   UNL d   1      15.254  -4.371 -13.633 -0.08 +0.02    +0.064 A 
DOCKED: ATOM      4  C   UNL d   1      14.145   0.272 -14.566 -0.27 +0.02    +0.064 A 
DOCKED: ATOM      5  C   UNL d   1      16.657   0.344  -9.849 -0.31 +0.03    +0.066 A 
DOCKED: ATOM      6  C   UNL d   1      17.473   0.338  -8.700 -0.25 -0.01    -0.021 A 
DOCKED: ATOM      7  C   UNL d   1      17.893  -0.965  -8.518 -0.24 -0.01    -0.025 A 
DOCKED: ATOM      8  C   UNL d   1      17.303  -1.700  -9.552 -0.22 +0.02    +0.066 A 
DOCKED: ATOM      9  C   UNL d   1      18.815  -1.513  -7.418 -0.24 +0.02    +0.051 C 
DOCKED: ATOM     10  C   UNL d   1      16.948  -3.857 -10.672 -0.15 +0.03    +0.066 A 
DOCKED: ATOM     11  C   UNL d   1      17.037  -5.264 -10.755 -0.13 -0.01    -0.021 A 
DOCKED: ATOM     12  C   UNL d   1      16.361  -5.633 -11.921 -0.14 +0.00    +0.000 A 
DOCKED: ATOM     13  C   UNL d   1      15.900  -4.429 -12.455 -0.07 +0.03    +0.070 A 
DOCKED: ATOM     14  C   UNL d   1      17.649  -6.181  -9.727 -0.10 +0.02    +0.052 C 
DOCKED: ATOM     15  C   UNL d   1      14.758  -3.216 -14.354 -0.11 +0.02    +0.066 A 
DOCKED: ATOM     16  C   UNL d   1      14.227  -3.211 -15.636 -0.12 -0.00    -0.021 A 
DOCKED: ATOM     17  C   UNL d   1      13.908  -1.873 -15.911 -0.18 +0.00    +0.000 A 
DOCKED: ATOM     18  C   UNL d   1      14.254  -1.168 -14.763 -0.19 +0.02    +0.070 A 
DOCKED: ATOM     19  C   UNL d   1      14.053  -4.428 -16.518 -0.05 +0.01    +0.052 C 
DOCKED: ATOM     20  C   UNL d   1      14.554   0.991 -13.493 -0.27 +0.02    +0.066 A 
DOCKED: ATOM     21  C   UNL d   1      14.427   2.377 -13.435 -0.29 -0.01    -0.025 A 
DOCKED: ATOM     22  C   UNL d   1      14.968   2.750 -12.218 -0.28 -0.01    -0.021 A 
DOCKED: ATOM     23  C   UNL d   1      15.412   1.565 -11.594 -0.26 +0.03    +0.066 A 
DOCKED: ATOM     24  C   UNL d   1      13.839   3.304 -14.495 -0.29 +0.01    +0.051 C 
DOCKED: ATOM     25  N   UNL d   1      16.527  -0.915 -10.388 -0.19 -0.08    -0.248 N 
DOCKED: ATOM     26  N   UNL d   1      16.208  -3.363 -11.670 -0.10 -0.10    -0.248 N 
DOCKED: ATOM     27  N   UNL d   1      14.785  -1.994 -13.869 -0.10 -0.08    -0.248 N 
DOCKED: ATOM     28  N   UNL d   1      15.165   0.498 -12.364 -0.18 -0.08    -0.248 N 
DOCKED: ATOM     29 FE   UNL d   1      15.603  -1.483 -12.232 -0.06 +0.00    +0.000 Fe
DOCKED: ENDROOT
DOCKED: BRANCH   6  30
DOCKED: ATOM     30  C   UNL d   1      17.889   1.549  -7.873 -0.17 +0.03    +0.052 C 
DOCKED: BRANCH  30  31
DOCKED: ATOM     31  C   UNL d   1      19.235   2.091  -8.353 -0.15 +0.07    +0.115 C 
DOCKED: BRANCH  31  32
DOCKED: ATOM     32  C   UNL d   1      19.257   2.344  -9.845 -0.08 +0.07    +0.139 C 
DOCKED: ATOM     33  O   UNL d   1      19.242   3.493 -10.260 +0.02 -0.40    -0.650 OA
DOCKED: BRANCH  32  34
DOCKED: ATOM     34  O   UNL d   1      19.341   1.335 -10.743 +0.06 -0.27    -0.776 OA
DOCKED: ATOM     35  H   UNL d   1      18.828   1.291 -11.562 +0.03 +0.06    +0.167 HD
DOCKED: ENDBRANCH  32  34
DOCKED: ENDBRANCH  31  32
DOCKED: ENDBRANCH  30  31
DOCKED: ENDBRANCH   6  30
DOCKED: BRANCH  29  36
DOCKED: ATOM     36  C   UNL d   1      17.466  -1.156 -13.136 -0.04 +0.05    +0.190 C 
DOCKED: BRANCH  36  37
DOCKED: ATOM     37  O   UNL d   1      18.540  -0.262 -13.183 +0.00 -0.09    -0.399 OA
DOCKED: ATOM     38  H   UNL d   1      18.252   0.514 -12.625 +0.03 +0.06    +0.209 HD
DOCKED: ENDBRANCH  36  37
DOCKED: ENDBRANCH  29  36
DOCKED: BRANCH  22  39
DOCKED: ATOM     39  C   UNL d   1      15.106   4.175 -11.717 -0.39 +0.03    +0.052 C 
DOCKED: BRANCH  39  40
DOCKED: ATOM     40  C   UNL d   1      16.581   4.611 -11.720 -0.24 +0.08    +0.115 C 
DOCKED: BRANCH  40  41
DOCKED: ATOM     41  C   UNL d   1      17.407   4.011 -12.838 -0.07 +0.06    +0.139 C 
DOCKED: ATOM     42  O   UNL d   1      17.644   4.680 -13.834 +0.05 -0.21    -0.650 OA
DOCKED: BRANCH  41  43
DOCKED: ATOM     43  O   UNL d   1      17.965   2.784 -12.729 +0.06 -0.28    -0.776 OA
DOCKED: ATOM     44  H   UNL d   1      18.709   2.602 -12.140 +0.03 +0.06    +0.167 HD
DOCKED: ENDBRANCH  41  43
DOCKED: ENDBRANCH  40  41
DOCKED: ENDBRANCH  39  40
DOCKED: ENDBRANCH  22  39
DOCKED: BRANCH  12  45
DOCKED: ATOM     45  C   UNL d   1      16.082  -6.978 -12.578 -0.11 +0.00    +0.004 C 
DOCKED: ATOM     46  C   UNL d   1      14.951  -7.668 -12.692 -0.13 +0.01    +0.012 C 
DOCKED: ENDBRANCH  12  45
DOCKED: BRANCH  17  47
DOCKED: ATOM     47  C   UNL d   1      13.367  -1.259 -17.160 -0.12 +0.00    +0.004 C 
DOCKED: ATOM     48  C   UNL d   1      14.114  -0.568 -18.025 -0.10 +0.00    +0.012 C 
DOCKED: ENDBRANCH  17  47
DOCKED: TORSDOF 12
DOCKED: TER
DOCKED: ENDMDL
________________________________________________________________________________


	BEGINNING GENETIC ALGORITHM DOCKING 79 of 100
Run: 79 Seed: 241946382 1611788722 [ Run 79 of 100 GA/GALS ]
Beginning LAMARCKIAN GENETIC ALGORITHM (LGA), with a maximum of 25000000 energy evaluations.

Final-Value: -11.042


	FINAL GENETIC ALGORITHM DOCKED STATE
	_______________________________________________


Detailed state:  trans 0.546 -1.157 -17.707 quatxyzw -0.734987 0.280358 0.110670 0.607408 center 8.781 34.984 -0.736 ntor 12 9.5773 80.8164 -142.8486 -103.2422 -93.5773 160.7027 33.1753 129.0741 163.4219 95.6114 -162.9661 -179.7180
State:	  0.546  -1.157 -17.707  -0.925  0.353  0.139 105.195      9.58   80.82 -142.85 -103.24  -93.58  160.70   33.18  129.07  163.42   95.61 -162.97 -179.72

DOCKED: MODEL       79
DOCKED: USER    Run = 79
DOCKED: USER    DPF = D:/Protein_go_brrr/autodock/final/AncB/heme_Co/dock.dpf
DOCKED: USER  
DOCKED: USER    Estimated Free Energy of Binding    =   -4.71 kcal/mol  [=(1)+(2)+(3)-(4)]
DOCKED: USER    Estimated Inhibition Constant, Ki   =  352.37 uM (micromolar)  [Temperature = 298.15 K]
DOCKED: USER    
DOCKED: USER    (1) Final Intermolecular Energy     =   -8.29 kcal/mol
DOCKED: USER        vdW + Hbond + desolv Energy     =   -4.58 kcal/mol
DOCKED: USER        Electrostatic Energy            =   -3.71 kcal/mol
DOCKED: USER    (2) Final Total Internal Energy     =   -2.75 kcal/mol
DOCKED: USER    (3) Torsional Free Energy           =   +3.58 kcal/mol
DOCKED: USER    (4) Unbound System's Energy  [=(2)] =   -2.75 kcal/mol
DOCKED: USER    
DOCKED: USER    
DOCKED: USER    NEWDPF move heme_Co_opt.pdbqt
DOCKED: USER    NEWDPF about 8.781000 34.984000 -0.736000
DOCKED: USER    NEWDPF tran0 0.545983 -1.156646 -17.707078
DOCKED: USER    NEWDPF quaternion0 -0.734987 0.280358 0.110670 0.607408
DOCKED: USER    NEWDPF axisangle0 -0.925223 0.352922 0.139315 105.195295
DOCKED: USER    NEWDPF quat0 -0.925223 0.352922 0.139315 105.195295
DOCKED: USER    NEWDPF dihe0 9.58 80.82 -142.85 -103.24 -93.58 160.70 33.18 129.07 163.42 95.61 -162.97 -179.72 
DOCKED: USER  keepresnum = 1 
DOCKED: USER  
DOCKED: REMARK  12 active torsions:
DOCKED: REMARK  status: ('A' for Active; 'I' for Inactive)
DOCKED: REMARK    1  A    between atoms: C_6  and  C_10 
DOCKED: REMARK    2  A    between atoms: C_10  and  C_11 
DOCKED: REMARK    3  A    between atoms: C_11  and  C_12 
DOCKED: REMARK    4  A    between atoms: C_12  and  O_14 
DOCKED: REMARK    5  A    between atoms: C_17  and  C_20 
DOCKED: REMARK    6  A    between atoms: C_24  and  C_27 
DOCKED: REMARK    7  A    between atoms: C_31  and  C_34 
DOCKED: REMARK    8  A    between atoms: C_34  and  C_35 
DOCKED: REMARK    9  A    between atoms: C_35  and  C_36 
DOCKED: REMARK   10  A    between atoms: C_36  and  O_38 
DOCKED: REMARK   11  A    between atoms: FE_43  and  C_44 
DOCKED: REMARK   12  A    between atoms: C_44  and  O_45 
DOCKED: USER                              x       y       z     vdW  Elec       q    Type
DOCKED: USER                           _______ _______ _______ _____ _____    ______ ____
DOCKED: ROOT
DOCKED: ATOM      1  C   UNL d   1      -0.748   0.555 -17.373 -0.01 +0.05    +0.064 A 
DOCKED: ATOM      2  C   UNL d   1      -0.859  -2.957 -20.576 -0.01 +0.03    +0.064 C 
DOCKED: ATOM      3  C   UNL d   1       3.300  -4.639 -18.933 -0.10 +0.01    +0.064 A 
DOCKED: ATOM      4  C   UNL d   1       3.244  -1.291 -15.403 -0.14 +0.02    +0.064 A 
DOCKED: ATOM      5  C   UNL d   1      -1.066  -0.260 -18.392 -0.00 +0.04    +0.066 A 
DOCKED: ATOM      6  C   UNL d   1      -2.277  -0.134 -19.100 +0.00 -0.01    -0.021 A 
DOCKED: ATOM      7  C   UNL d   1      -2.314  -1.169 -20.014 +0.00 -0.01    -0.025 A 
DOCKED: ATOM      8  C   UNL d   1      -1.118  -1.873 -19.835 -0.01 +0.03    +0.066 A 
DOCKED: ATOM      9  C   UNL d   1      -3.427  -1.498 -21.021 +0.00 +0.02    +0.051 C 
DOCKED: ATOM     10  C   UNL d   1       0.355  -3.728 -20.482 -0.02 +0.02    +0.066 A 
DOCKED: ATOM     11  C   UNL d   1       0.748  -4.791 -21.325 -0.02 -0.01    -0.021 A 
DOCKED: ATOM     12  C   UNL d   1       1.966  -5.260 -20.826 -0.04 +0.00    +0.000 A 
DOCKED: ATOM     13  C   UNL d   1       2.232  -4.444 -19.726 -0.06 +0.02    +0.070 A 
DOCKED: ATOM     14  C   UNL d   1       0.040  -5.246 -22.575 -0.01 +0.02    +0.052 C 
DOCKED: ATOM     15  C   UNL d   1       3.697  -3.928 -17.733 -0.12 +0.01    +0.066 A 
DOCKED: ATOM     16  C   UNL d   1       4.734  -4.273 -16.878 -0.19 -0.00    -0.021 A 
DOCKED: ATOM     17  C   UNL d   1       4.720  -3.312 -15.857 -0.15 +0.00    +0.000 A 
DOCKED: ATOM     18  C   UNL d   1       3.683  -2.444 -16.180 +0.01 +0.02    +0.070 A 
DOCKED: ATOM     19  C   UNL d   1       5.661  -5.455 -17.054 -0.25 +0.00    +0.052 C 
DOCKED: ATOM     20  C   UNL d   1       2.184  -0.485 -15.652 -0.10 +0.03    +0.066 A 
DOCKED: ATOM     21  C   UNL d   1       1.840   0.571 -14.811 -0.17 -0.01    -0.025 A 
DOCKED: ATOM     22  C   UNL d   1       0.710   1.140 -15.369 -0.10 -0.01    -0.021 A 
DOCKED: ATOM     23  C   UNL d   1       0.411   0.389 -16.526 -0.03 +0.04    +0.066 A 
DOCKED: ATOM     24  C   UNL d   1       2.542   1.005 -13.527 -0.35 +0.02    +0.051 C 
DOCKED: ATOM     25  N   UNL d   1      -0.323  -1.328 -18.841 -0.00 -0.13    -0.248 N 
DOCKED: ATOM     26  N   UNL d   1       1.285  -3.483 -19.553 -0.02 -0.09    -0.248 N 
DOCKED: ATOM     27  N   UNL d   1       3.077  -2.859 -17.287 -0.06 -0.08    -0.248 N 
DOCKED: ATOM     28  N   UNL d   1       1.300  -0.597 -16.700 -0.03 -0.13    -0.248 N 
DOCKED: ATOM     29 FE   UNL d   1       1.478  -2.136 -18.016 -0.02 +0.00    +0.000 Fe
DOCKED: ENDROOT
DOCKED: BRANCH   6  30
DOCKED: ATOM     30  C   UNL d   1      -3.377   0.891 -18.845 +0.00 +0.03    +0.052 C 
DOCKED: BRANCH  30  31
DOCKED: ATOM     31  C   UNL d   1      -4.230   0.475 -17.647 -0.01 +0.10    +0.115 C 
DOCKED: BRANCH  31  32
DOCKED: ATOM     32  C   UNL d   1      -4.078  -0.993 -17.311 -0.05 +0.15    +0.139 C 
DOCKED: ATOM     33  O   UNL d   1      -4.896  -1.794 -17.738 +0.00 -0.60    -0.650 OA
DOCKED: BRANCH  32  34
DOCKED: ATOM     34  O   UNL d   1      -3.034  -1.459 -16.588 -0.24 -1.31    -0.776 OA
DOCKED: ATOM     35  H   UNL d   1      -2.363  -0.897 -16.176 +0.01 +0.29    +0.167 HD
DOCKED: ENDBRANCH  32  34
DOCKED: ENDBRANCH  31  32
DOCKED: ENDBRANCH  30  31
DOCKED: ENDBRANCH   6  30
DOCKED: BRANCH  29  36
DOCKED: ATOM     36  C   UNL d   1       0.253  -3.338 -16.812 -0.02 +0.13    +0.190 C 
DOCKED: BRANCH  36  37
DOCKED: ATOM     37  O   UNL d   1      -1.080  -3.695 -16.584 -0.12 -0.43    -0.399 OA
DOCKED: ATOM     38  H   UNL d   1      -1.606  -2.875 -16.802 +0.04 +0.26    +0.209 HD
DOCKED: ENDBRANCH  36  37
DOCKED: ENDBRANCH  29  36
DOCKED: BRANCH  22  39
DOCKED: ATOM     39  C   UNL d   1      -0.073   2.300 -14.782 -0.19 +0.05    +0.052 C 
DOCKED: BRANCH  39  40
DOCKED: ATOM     40  C   UNL d   1      -0.973   1.820 -13.632 -0.15 +0.13    +0.115 C 
DOCKED: BRANCH  40  41
DOCKED: ATOM     41  C   UNL d   1      -2.359   1.389 -14.061 -0.17 +0.21    +0.139 C 
DOCKED: ATOM     42  O   UNL d   1      -3.272   2.203 -14.042 -0.36 -1.49    -0.650 OA
DOCKED: BRANCH  41  43
DOCKED: ATOM     43  O   UNL d   1      -2.600   0.151 -14.548 -0.29 -1.45    -0.776 OA
DOCKED: ATOM     44  H   UNL d   1      -3.159  -0.003 -15.321 +0.02 +0.32    +0.167 HD
DOCKED: ENDBRANCH  41  43
DOCKED: ENDBRANCH  40  41
DOCKED: ENDBRANCH  39  40
DOCKED: ENDBRANCH  22  39
DOCKED: BRANCH  12  45
DOCKED: ATOM     45  C   UNL d   1       2.914  -6.366 -21.270 -0.05 +0.00    +0.004 C 
DOCKED: ATOM     46  C   UNL d   1       3.223  -7.524 -20.693 -0.09 +0.00    +0.012 C 
DOCKED: ENDBRANCH  12  45
DOCKED: BRANCH  17  47
DOCKED: ATOM     47  C   UNL d   1       5.565  -3.212 -14.629 -0.41 +0.00    +0.004 C 
DOCKED: ATOM     48  C   UNL d   1       5.081  -3.320 -13.390 -0.53 +0.00    +0.012 C 
DOCKED: ENDBRANCH  17  47
DOCKED: TORSDOF 12
DOCKED: TER
DOCKED: ENDMDL
________________________________________________________________________________


	BEGINNING GENETIC ALGORITHM DOCKING 80 of 100
Run: 80 Seed: 727961881 428970960 [ Run 80 of 100 GA/GALS ]
Beginning LAMARCKIAN GENETIC ALGORITHM (LGA), with a maximum of 25000000 energy evaluations.

Final-Value: -12.822


	FINAL GENETIC ALGORITHM DOCKED STATE
	_______________________________________________


Detailed state:  trans -7.697 -1.892 -11.843 quatxyzw 0.034931 -0.631174 0.507647 -0.585400 center 8.781 34.984 -0.736 ntor 12 39.5280 93.4604 -164.0919 135.3299 113.3450 88.3491 -167.5222 -106.6266 -23.0461 -108.5383 55.1573 -47.7449
State:	 -7.697  -1.892 -11.843   0.043 -0.779  0.626 -108.337     39.53   93.46 -164.09  135.33  113.35   88.35 -167.52 -106.63  -23.05 -108.54   55.16  -47.74

DOCKED: MODEL       80
DOCKED: USER    Run = 80
DOCKED: USER    DPF = D:/Protein_go_brrr/autodock/final/AncB/heme_Co/dock.dpf
DOCKED: USER  
DOCKED: USER    Estimated Free Energy of Binding    =   -8.61 kcal/mol  [=(1)+(2)+(3)-(4)]
DOCKED: USER    Estimated Inhibition Constant, Ki   =  485.81 nM (nanomolar)  [Temperature = 298.15 K]
DOCKED: USER    
DOCKED: USER    (1) Final Intermolecular Energy     =  -12.19 kcal/mol
DOCKED: USER        vdW + Hbond + desolv Energy     =   -7.84 kcal/mol
DOCKED: USER        Electrostatic Energy            =   -4.36 kcal/mol
DOCKED: USER    (2) Final Total Internal Energy     =   -0.63 kcal/mol
DOCKED: USER    (3) Torsional Free Energy           =   +3.58 kcal/mol
DOCKED: USER    (4) Unbound System's Energy  [=(2)] =   -0.63 kcal/mol
DOCKED: USER    
DOCKED: USER    
DOCKED: USER    NEWDPF move heme_Co_opt.pdbqt
DOCKED: USER    NEWDPF about 8.781000 34.984000 -0.736000
DOCKED: USER    NEWDPF tran0 -7.696892 -1.891882 -11.842776
DOCKED: USER    NEWDPF quaternion0 0.034931 -0.631174 0.507647 -0.585400
DOCKED: USER    NEWDPF axisangle0 0.043085 -0.778512 0.626149 -108.337425
DOCKED: USER    NEWDPF quat0 0.043085 -0.778512 0.626149 -108.337425
DOCKED: USER    NEWDPF dihe0 39.53 93.46 -164.09 135.33 113.35 88.35 -167.52 -106.63 -23.05 -108.54 55.16 -47.74 
DOCKED: USER  keepresnum = 1 
DOCKED: USER  
DOCKED: REMARK  12 active torsions:
DOCKED: REMARK  status: ('A' for Active; 'I' for Inactive)
DOCKED: REMARK    1  A    between atoms: C_6  and  C_10 
DOCKED: REMARK    2  A    between atoms: C_10  and  C_11 
DOCKED: REMARK    3  A    between atoms: C_11  and  C_12 
DOCKED: REMARK    4  A    between atoms: C_12  and  O_14 
DOCKED: REMARK    5  A    between atoms: C_17  and  C_20 
DOCKED: REMARK    6  A    between atoms: C_24  and  C_27 
DOCKED: REMARK    7  A    between atoms: C_31  and  C_34 
DOCKED: REMARK    8  A    between atoms: C_34  and  C_35 
DOCKED: REMARK    9  A    between atoms: C_35  and  C_36 
DOCKED: REMARK   10  A    between atoms: C_36  and  O_38 
DOCKED: REMARK   11  A    between atoms: FE_43  and  C_44 
DOCKED: REMARK   12  A    between atoms: C_44  and  O_45 
DOCKED: USER                              x       y       z     vdW  Elec       q    Type
DOCKED: USER                           _______ _______ _______ _____ _____    ______ ____
DOCKED: ROOT
DOCKED: ATOM      1  C   UNL d   1      -6.813  -2.137 -13.811 -0.09 +0.08    +0.064 A 
DOCKED: ATOM      2  C   UNL d   1      -8.136  -5.273 -10.491 -0.36 +0.03    +0.064 C 
DOCKED: ATOM      3  C   UNL d   1      -9.189  -1.707  -7.489 -0.20 +0.02    +0.064 A 
DOCKED: ATOM      4  C   UNL d   1      -8.211   1.518 -10.998 -0.06 +0.03    +0.064 A 
DOCKED: ATOM      5  C   UNL d   1      -7.063  -3.256 -13.112 -0.13 +0.07    +0.066 A 
DOCKED: ATOM      6  C   UNL d   1      -6.941  -4.537 -13.683 -0.17 -0.02    -0.021 A 
DOCKED: ATOM      7  C   UNL d   1      -7.348  -5.442 -12.723 -0.28 -0.02    -0.025 A 
DOCKED: ATOM      8  C   UNL d   1      -7.685  -4.676 -11.601 -0.24 +0.04    +0.066 A 
DOCKED: ATOM      9  C   UNL d   1      -7.423  -6.972 -12.841 -0.23 +0.03    +0.051 C 
DOCKED: ATOM     10  C   UNL d   1      -8.482  -4.569  -9.281 -0.28 +0.03    +0.066 A 
DOCKED: ATOM     11  C   UNL d   1      -8.826  -5.146  -8.039 -0.44 -0.01    -0.021 A 
DOCKED: ATOM     12  C   UNL d   1      -9.125  -4.084  -7.181 -0.38 +0.00    +0.000 A 
DOCKED: ATOM     13  C   UNL d   1      -8.929  -2.941  -7.956 -0.22 +0.02    +0.070 A 
DOCKED: ATOM     14  C   UNL d   1      -8.774  -6.611  -7.690 -0.38 +0.02    +0.052 C 
DOCKED: ATOM     15  C   UNL d   1      -9.093  -0.428  -8.166 -0.16 +0.02    +0.066 A 
DOCKED: ATOM     16  C   UNL d   1      -9.516   0.798  -7.672 -0.23 -0.00    -0.021 A 
DOCKED: ATOM     17  C   UNL d   1      -9.239   1.730  -8.681 -0.16 +0.00    +0.000 A 
DOCKED: ATOM     18  C   UNL d   1      -8.650   1.000  -9.708 -0.08 +0.02    +0.070 A 
DOCKED: ATOM     19  C   UNL d   1     -10.145   1.027  -6.315 -0.11 +0.00    +0.052 C 
DOCKED: ATOM     20  C   UNL d   1      -7.716   0.813 -12.044 -0.04 +0.04    +0.066 A 
DOCKED: ATOM     21  C   UNL d   1      -7.362   1.419 -13.247 -0.05 -0.02    -0.025 A 
DOCKED: ATOM     22  C   UNL d   1      -6.928   0.394 -14.067 -0.04 -0.02    -0.021 A 
DOCKED: ATOM     23  C   UNL d   1      -7.052  -0.798 -13.322 -0.06 +0.06    +0.066 A 
DOCKED: ATOM     24  C   UNL d   1      -7.451   2.900 -13.606 -0.09 +0.04    +0.051 C 
DOCKED: ATOM     25  N   UNL d   1      -7.512  -3.319 -11.812 -0.09 -0.17    -0.248 N 
DOCKED: ATOM     26  N   UNL d   1      -8.486  -3.234  -9.208 -0.11 -0.09    -0.248 N 
DOCKED: ATOM     27  N   UNL d   1      -8.607  -0.287  -9.379 -0.04 -0.08    -0.248 N 
DOCKED: ATOM     28  N   UNL d   1      -7.530  -0.549 -12.097 -0.02 -0.17    -0.248 N 
DOCKED: ATOM     29 FE   UNL d   1      -8.091  -1.710 -10.526 -0.02 +0.00    +0.000 Fe
DOCKED: ENDROOT
DOCKED: BRANCH   6  30
DOCKED: ATOM     30  C   UNL d   1      -6.529  -4.859 -15.116 -0.15 +0.05    +0.052 C 
DOCKED: BRANCH  30  31
DOCKED: ATOM     31  C   UNL d   1      -5.594  -6.067 -15.148 -0.08 +0.13    +0.115 C 
DOCKED: BRANCH  31  32
DOCKED: ATOM     32  C   UNL d   1      -5.632  -6.791 -16.477 -0.09 +0.20    +0.139 C 
DOCKED: ATOM     33  O   UNL d   1      -5.272  -6.209 -17.489 -0.16 -1.02    -0.650 OA
DOCKED: BRANCH  32  34
DOCKED: ATOM     34  O   UNL d   1      -6.009  -8.087 -16.577 -0.41 -1.48    -0.776 OA
DOCKED: ATOM     35  H   UNL d   1      -6.694  -8.498 -16.032 +0.05 +0.16    +0.167 HD
DOCKED: ENDBRANCH  32  34
DOCKED: ENDBRANCH  31  32
DOCKED: ENDBRANCH  30  31
DOCKED: ENDBRANCH   6  30
DOCKED: BRANCH  29  36
DOCKED: ATOM     36  C   UNL d   1     -10.017  -1.909 -11.330 -0.02 +0.07    +0.190 C 
DOCKED: BRANCH  36  37
DOCKED: ATOM     37  O   UNL d   1     -10.753  -1.759 -12.510 +0.00 -0.16    -0.399 OA
DOCKED: ATOM     38  H   UNL d   1     -10.203  -1.151 -13.079 +0.01 +0.09    +0.209 HD
DOCKED: ENDBRANCH  36  37
DOCKED: ENDBRANCH  29  36
DOCKED: BRANCH  22  39
DOCKED: ATOM     39  C   UNL d   1      -6.483   0.550 -15.509 -0.03 +0.05    +0.052 C 
DOCKED: BRANCH  39  40
DOCKED: ATOM     40  C   UNL d   1      -5.382   1.617 -15.625 -0.06 +0.13    +0.115 C 
DOCKED: BRANCH  40  41
DOCKED: ATOM     41  C   UNL d   1      -4.082   1.250 -14.941 -0.10 +0.22    +0.139 C 
DOCKED: ATOM     42  O   UNL d   1      -3.749   0.075 -14.879 -0.08 -1.24    -0.650 OA
DOCKED: BRANCH  41  43
DOCKED: ATOM     43  O   UNL d   1      -3.235   2.194 -14.471 -0.40 -1.81    -0.776 OA
DOCKED: ATOM     44  H   UNL d   1      -2.296   2.022 -14.325 +0.03 +0.29    +0.167 HD
DOCKED: ENDBRANCH  41  43
DOCKED: ENDBRANCH  40  41
DOCKED: ENDBRANCH  39  40
DOCKED: ENDBRANCH  22  39
DOCKED: BRANCH  12  45
DOCKED: ATOM     45  C   UNL d   1      -9.552  -4.017  -5.721 -0.51 +0.00    +0.004 C 
DOCKED: ATOM     46  C   UNL d   1      -9.037  -3.339  -4.698 -0.63 +0.00    +0.012 C 
DOCKED: ENDBRANCH  12  45
DOCKED: BRANCH  17  47
DOCKED: ATOM     47  C   UNL d   1      -9.534   3.193  -8.736 -0.16 +0.00    +0.004 C 
DOCKED: ATOM     48  C   UNL d   1      -8.680   4.134  -8.325 -0.29 +0.00    +0.012 C 
DOCKED: ENDBRANCH  17  47
DOCKED: TORSDOF 12
DOCKED: TER
DOCKED: ENDMDL
________________________________________________________________________________


	BEGINNING GENETIC ALGORITHM DOCKING 81 of 100
Run: 81 Seed: 1255967878 143448640 [ Run 81 of 100 GA/GALS ]
Beginning LAMARCKIAN GENETIC ALGORITHM (LGA), with a maximum of 25000000 energy evaluations.

Final-Value: -12.876


	FINAL GENETIC ALGORITHM DOCKED STATE
	_______________________________________________


Detailed state:  trans -7.508 -1.145 -12.909 quatxyzw -0.476426 -0.231814 -0.759035 -0.378347 center 8.781 34.984 -0.736 ntor 12 -148.9865 138.8697 7.9051 114.2348 106.0585 122.7627 29.5563 -39.9717 179.9724 -28.7721 178.1079 -170.2670
State:	 -7.508  -1.145 -12.909  -0.515 -0.250 -0.820 -135.537   -148.99  138.87    7.91  114.23  106.06  122.76   29.56  -39.97  179.97  -28.77  178.11 -170.27

DOCKED: MODEL       81
DOCKED: USER    Run = 81
DOCKED: USER    DPF = D:/Protein_go_brrr/autodock/final/AncB/heme_Co/dock.dpf
DOCKED: USER  
DOCKED: USER    Estimated Free Energy of Binding    =   -7.26 kcal/mol  [=(1)+(2)+(3)-(4)]
DOCKED: USER    Estimated Inhibition Constant, Ki   =    4.76 uM (micromolar)  [Temperature = 298.15 K]
DOCKED: USER    
DOCKED: USER    (1) Final Intermolecular Energy     =  -10.84 kcal/mol
DOCKED: USER        vdW + Hbond + desolv Energy     =   -6.39 kcal/mol
DOCKED: USER        Electrostatic Energy            =   -4.45 kcal/mol
DOCKED: USER    (2) Final Total Internal Energy     =   -2.04 kcal/mol
DOCKED: USER    (3) Torsional Free Energy           =   +3.58 kcal/mol
DOCKED: USER    (4) Unbound System's Energy  [=(2)] =   -2.04 kcal/mol
DOCKED: USER    
DOCKED: USER    
DOCKED: USER    NEWDPF move heme_Co_opt.pdbqt
DOCKED: USER    NEWDPF about 8.781000 34.984000 -0.736000
DOCKED: USER    NEWDPF tran0 -7.508394 -1.144565 -12.909012
DOCKED: USER    NEWDPF quaternion0 -0.476426 -0.231814 -0.759035 -0.378347
DOCKED: USER    NEWDPF axisangle0 -0.514686 -0.250431 -0.819990 -135.537349
DOCKED: USER    NEWDPF quat0 -0.514686 -0.250431 -0.819990 -135.537349
DOCKED: USER    NEWDPF dihe0 -148.99 138.87 7.91 114.23 106.06 122.76 29.56 -39.97 179.97 -28.77 178.11 -170.27 
DOCKED: USER  keepresnum = 1 
DOCKED: USER  
DOCKED: REMARK  12 active torsions:
DOCKED: REMARK  status: ('A' for Active; 'I' for Inactive)
DOCKED: REMARK    1  A    between atoms: C_6  and  C_10 
DOCKED: REMARK    2  A    between atoms: C_10  and  C_11 
DOCKED: REMARK    3  A    between atoms: C_11  and  C_12 
DOCKED: REMARK    4  A    between atoms: C_12  and  O_14 
DOCKED: REMARK    5  A    between atoms: C_17  and  C_20 
DOCKED: REMARK    6  A    between atoms: C_24  and  C_27 
DOCKED: REMARK    7  A    between atoms: C_31  and  C_34 
DOCKED: REMARK    8  A    between atoms: C_34  and  C_35 
DOCKED: REMARK    9  A    between atoms: C_35  and  C_36 
DOCKED: REMARK   10  A    between atoms: C_36  and  O_38 
DOCKED: REMARK   11  A    between atoms: FE_43  and  C_44 
DOCKED: REMARK   12  A    between atoms: C_44  and  O_45 
DOCKED: USER                              x       y       z     vdW  Elec       q    Type
DOCKED: USER                           _______ _______ _______ _____ _____    ______ ____
DOCKED: ROOT
DOCKED: ATOM      1  C   UNL d   1      -7.075  -1.369 -15.025 -0.04 +0.06    +0.064 A 
DOCKED: ATOM      2  C   UNL d   1      -7.471   2.460 -12.233 -0.11 +0.04    +0.064 C 
DOCKED: ATOM      3  C   UNL d   1      -8.795  -0.304  -8.567 -0.14 +0.02    +0.064 A 
DOCKED: ATOM      4  C   UNL d   1      -8.025  -4.261 -11.290 -0.20 +0.04    +0.064 A 
DOCKED: ATOM      5  C   UNL d   1      -7.121  -0.116 -14.541 -0.03 +0.06    +0.066 A 
DOCKED: ATOM      6  C   UNL d   1      -6.725   0.996 -15.309 -0.03 -0.02    -0.021 A 
DOCKED: ATOM      7  C   UNL d   1      -6.820   2.102 -14.487 -0.07 -0.02    -0.025 A 
DOCKED: ATOM      8  C   UNL d   1      -7.285   1.619 -13.259 -0.06 +0.05    +0.066 A 
DOCKED: ATOM      9  C   UNL d   1      -6.489   3.562 -14.829 +0.01 +0.06    +0.051 C 
DOCKED: ATOM     10  C   UNL d   1      -7.971   2.059 -10.941 -0.09 +0.03    +0.066 A 
DOCKED: ATOM     11  C   UNL d   1      -8.320   2.911  -9.870 -0.15 -0.01    -0.021 A 
DOCKED: ATOM     12  C   UNL d   1      -8.706   2.079  -8.816 -0.19 +0.00    +0.000 A 
DOCKED: ATOM     13  C   UNL d   1      -8.577   0.786  -9.324 -0.10 +0.02    +0.070 A 
DOCKED: ATOM     14  C   UNL d   1      -8.366   4.417  -9.907 -0.18 +0.02    +0.052 C 
DOCKED: ATOM     15  C   UNL d   1      -8.659  -1.706  -8.912 -0.13 +0.02    +0.066 A 
DOCKED: ATOM     16  C   UNL d   1      -8.759  -2.781  -8.041 -0.24 -0.01    -0.021 A 
DOCKED: ATOM     17  C   UNL d   1      -8.535  -3.925  -8.821 -0.28 +0.00    +0.000 A 
DOCKED: ATOM     18  C   UNL d   1      -8.332  -3.455 -10.115 -0.16 +0.03    +0.070 A 
DOCKED: ATOM     19  C   UNL d   1      -9.050  -2.686  -6.560 -0.38 +0.01    +0.052 C 
DOCKED: ATOM     20  C   UNL d   1      -7.738  -3.822 -12.539 -0.13 +0.05    +0.066 A 
DOCKED: ATOM     21  C   UNL d   1      -7.423  -4.693 -13.579 -0.16 -0.02    -0.025 A 
DOCKED: ATOM     22  C   UNL d   1      -7.173  -3.889 -14.676 -0.11 -0.02    -0.021 A 
DOCKED: ATOM     23  C   UNL d   1      -7.337  -2.556 -14.244 -0.07 +0.07    +0.066 A 
DOCKED: ATOM     24  C   UNL d   1      -7.344  -6.216 -13.527 -0.28 +0.03    +0.051 C 
DOCKED: ATOM     25  N   UNL d   1      -7.486   0.249 -13.266 -0.01 -0.18    -0.248 N 
DOCKED: ATOM     26  N   UNL d   1      -8.186   0.778 -10.626 -0.02 -0.11    -0.248 N 
DOCKED: ATOM     27  N   UNL d   1      -8.383  -2.128 -10.126 -0.05 -0.11    -0.248 N 
DOCKED: ATOM     28  N   UNL d   1      -7.678  -2.511 -12.950 -0.05 -0.20    -0.248 N 
DOCKED: ATOM     29 FE   UNL d   1      -7.961  -1.013 -11.605 -0.02 +0.00    +0.000 Fe
DOCKED: ENDROOT
DOCKED: BRANCH   6  30
DOCKED: ATOM     30  C   UNL d   1      -6.202   0.973 -16.741 -0.01 +0.04    +0.052 C 
DOCKED: BRANCH  30  31
DOCKED: ATOM     31  C   UNL d   1      -4.674   1.016 -16.756 -0.03 +0.11    +0.115 C 
DOCKED: BRANCH  31  32
DOCKED: ATOM     32  C   UNL d   1      -4.086   1.116 -15.365 -0.09 +0.20    +0.139 C 
DOCKED: ATOM     33  O   UNL d   1      -3.711   2.201 -14.948 -0.51 -1.40    -0.650 OA
DOCKED: BRANCH  32  34
DOCKED: ATOM     34  O   UNL d   1      -4.003   0.044 -14.543 +0.07 -1.54    -0.776 OA
DOCKED: ATOM     35  H   UNL d   1      -3.997   0.099 -13.577 +0.03 +0.32    +0.167 HD
DOCKED: ENDBRANCH  32  34
DOCKED: ENDBRANCH  31  32
DOCKED: ENDBRANCH  30  31
DOCKED: ENDBRANCH   6  30
DOCKED: BRANCH  29  36
DOCKED: ATOM     36  C   UNL d   1      -5.914  -0.999 -11.154 -0.13 +0.17    +0.190 C 
DOCKED: BRANCH  36  37
DOCKED: ATOM     37  O   UNL d   1      -4.645  -0.930 -11.737 -0.37 -0.62    -0.399 OA
DOCKED: ATOM     38  H   UNL d   1      -4.786  -0.454 -12.603 +0.05 +0.36    +0.209 HD
DOCKED: ENDBRANCH  36  37
DOCKED: ENDBRANCH  29  36
DOCKED: BRANCH  22  39
DOCKED: ATOM     39  C   UNL d   1      -6.735  -4.378 -16.044 -0.10 +0.05    +0.052 C 
DOCKED: BRANCH  39  40
DOCKED: ATOM     40  C   UNL d   1      -5.305  -4.939 -15.988 -0.14 +0.15    +0.115 C 
DOCKED: BRANCH  40  41
DOCKED: ATOM     41  C   UNL d   1      -5.056  -6.109 -16.916 -0.16 +0.20    +0.139 C 
DOCKED: ATOM     42  O   UNL d   1      -4.523  -5.911 -17.999 -0.06 -0.99    -0.650 OA
DOCKED: BRANCH  41  43
DOCKED: ATOM     43  O   UNL d   1      -5.327  -7.380 -16.545 -0.27 -1.64    -0.776 OA
DOCKED: ATOM     44  H   UNL d   1      -5.868  -7.592 -15.773 +0.05 +0.20    +0.167 HD
DOCKED: ENDBRANCH  41  43
DOCKED: ENDBRANCH  40  41
DOCKED: ENDBRANCH  39  40
DOCKED: ENDBRANCH  22  39
DOCKED: BRANCH  12  45
DOCKED: ATOM     45  C   UNL d   1      -9.198   2.355  -7.402 -0.19 +0.00    +0.004 C 
DOCKED: ATOM     46  C   UNL d   1     -10.416   2.261  -6.874 -0.24 +0.00    +0.012 C 
DOCKED: ENDBRANCH  12  45
DOCKED: BRANCH  17  47
DOCKED: ATOM     47  C   UNL d   1      -8.458  -5.359  -8.411 -0.29 +0.00    +0.004 C 
DOCKED: ATOM     48  C   UNL d   1      -9.529  -6.144  -8.271 -0.53 +0.00    +0.012 C 
DOCKED: ENDBRANCH  17  47
DOCKED: TORSDOF 12
DOCKED: TER
DOCKED: ENDMDL
________________________________________________________________________________


	BEGINNING GENETIC ALGORITHM DOCKING 82 of 100
Run: 82 Seed: 673407104 694213079 [ Run 82 of 100 GA/GALS ]
Beginning LAMARCKIAN GENETIC ALGORITHM (LGA), with a maximum of 25000000 energy evaluations.

Final-Value: -11.050


	FINAL GENETIC ALGORITHM DOCKED STATE
	_______________________________________________


Detailed state:  trans 15.634 -2.570 -12.754 quatxyzw 0.773047 0.453805 0.344131 0.279344 center 8.781 34.984 -0.736 ntor 12 62.7603 144.2825 -137.1250 -46.7732 76.3100 87.3176 39.4892 109.9731 163.4562 139.7493 -158.6631 -180.0000
State:	 15.634  -2.570 -12.754   0.805  0.473  0.358 147.558     62.76  144.28 -137.13  -46.77   76.31   87.32   39.49  109.97  163.46  139.75 -158.66 -180.00

DOCKED: MODEL       82
DOCKED: USER    Run = 82
DOCKED: USER    DPF = D:/Protein_go_brrr/autodock/final/AncB/heme_Co/dock.dpf
DOCKED: USER  
DOCKED: USER    Estimated Free Energy of Binding    =   -3.57 kcal/mol  [=(1)+(2)+(3)-(4)]
DOCKED: USER    Estimated Inhibition Constant, Ki   =    2.43 mM (millimolar)  [Temperature = 298.15 K]
DOCKED: USER    
DOCKED: USER    (1) Final Intermolecular Energy     =   -7.15 kcal/mol
DOCKED: USER        vdW + Hbond + desolv Energy     =   -6.82 kcal/mol
DOCKED: USER        Electrostatic Energy            =   -0.33 kcal/mol
DOCKED: USER    (2) Final Total Internal Energy     =   -3.90 kcal/mol
DOCKED: USER    (3) Torsional Free Energy           =   +3.58 kcal/mol
DOCKED: USER    (4) Unbound System's Energy  [=(2)] =   -3.90 kcal/mol
DOCKED: USER    
DOCKED: USER    
DOCKED: USER    NEWDPF move heme_Co_opt.pdbqt
DOCKED: USER    NEWDPF about 8.781000 34.984000 -0.736000
DOCKED: USER    NEWDPF tran0 15.634052 -2.569653 -12.754135
DOCKED: USER    NEWDPF quaternion0 0.773047 0.453805 0.344131 0.279344
DOCKED: USER    NEWDPF axisangle0 0.805097 0.472620 0.358398 147.557901
DOCKED: USER    NEWDPF quat0 0.805097 0.472620 0.358398 147.557901
DOCKED: USER    NEWDPF dihe0 62.76 144.28 -137.13 -46.77 76.31 87.32 39.49 109.97 163.46 139.75 -158.66 -180.00 
DOCKED: USER  keepresnum = 1 
DOCKED: USER  
DOCKED: REMARK  12 active torsions:
DOCKED: REMARK  status: ('A' for Active; 'I' for Inactive)
DOCKED: REMARK    1  A    between atoms: C_6  and  C_10 
DOCKED: REMARK    2  A    between atoms: C_10  and  C_11 
DOCKED: REMARK    3  A    between atoms: C_11  and  C_12 
DOCKED: REMARK    4  A    between atoms: C_12  and  O_14 
DOCKED: REMARK    5  A    between atoms: C_17  and  C_20 
DOCKED: REMARK    6  A    between atoms: C_24  and  C_27 
DOCKED: REMARK    7  A    between atoms: C_31  and  C_34 
DOCKED: REMARK    8  A    between atoms: C_34  and  C_35 
DOCKED: REMARK    9  A    between atoms: C_35  and  C_36 
DOCKED: REMARK   10  A    between atoms: C_36  and  O_38 
DOCKED: REMARK   11  A    between atoms: FE_43  and  C_44 
DOCKED: REMARK   12  A    between atoms: C_44  and  O_45 
DOCKED: USER                              x       y       z     vdW  Elec       q    Type
DOCKED: USER                           _______ _______ _______ _____ _____    ______ ____
DOCKED: ROOT
DOCKED: ATOM      1  C   UNL d   1      15.164  -4.403 -13.818 -0.11 +0.02    +0.064 A 
DOCKED: ATOM      2  C   UNL d   1      14.268   0.167 -14.778 -0.26 +0.02    +0.064 C 
DOCKED: ATOM      3  C   UNL d   1      16.115   1.453 -10.564 -0.29 +0.03    +0.064 A 
DOCKED: ATOM      4  C   UNL d   1      17.389  -3.166  -9.727 -0.17 +0.02    +0.064 A 
DOCKED: ATOM      5  C   UNL d   1      14.750  -3.253 -14.374 -0.11 +0.02    +0.066 A 
DOCKED: ATOM      6  C   UNL d   1      14.206  -3.203 -15.672 -0.12 -0.00    -0.021 A 
DOCKED: ATOM      7  C   UNL d   1      13.969  -1.872 -15.955 -0.17 -0.01    -0.025 A 
DOCKED: ATOM      8  C   UNL d   1      14.364  -1.169 -14.812 -0.19 +0.02    +0.066 A 
DOCKED: ATOM      9  C   UNL d   1      13.395  -1.271 -17.246 -0.10 +0.02    +0.051 C 
DOCKED: ATOM     10  C   UNL d   1      14.625   0.973 -13.638 -0.26 +0.02    +0.066 A 
DOCKED: ATOM     11  C   UNL d   1      14.418   2.362 -13.488 -0.29 -0.01    -0.021 A 
DOCKED: ATOM     12  C   UNL d   1      14.962   2.710 -12.249 -0.29 +0.00    +0.000 A 
DOCKED: ATOM     13  C   UNL d   1      15.448   1.509 -11.730 -0.28 +0.03    +0.070 A 
DOCKED: ATOM     14  C   UNL d   1      13.663   3.258 -14.436 -0.29 +0.02    +0.052 C 
DOCKED: ATOM     15  C   UNL d   1      16.727   0.314  -9.908 -0.30 +0.03    +0.066 A 
DOCKED: ATOM     16  C   UNL d   1      17.528   0.349  -8.775 -0.29 -0.01    -0.021 A 
DOCKED: ATOM     17  C   UNL d   1      17.900  -0.981  -8.531 -0.25 +0.00    +0.000 A 
DOCKED: ATOM     18  C   UNL d   1      17.281  -1.726  -9.529 -0.23 +0.02    +0.070 A 
DOCKED: ATOM     19  C   UNL d   1      17.896   1.594  -7.999 -0.20 +0.04    +0.052 C 
DOCKED: ATOM     20  C   UNL d   1      16.868  -3.901 -10.738 -0.15 +0.03    +0.066 A 
DOCKED: ATOM     21  C   UNL d   1      17.071  -5.275 -10.841 -0.12 -0.01    -0.025 A 
DOCKED: ATOM     22  C   UNL d   1      16.417  -5.664 -11.995 -0.12 -0.01    -0.021 A 
DOCKED: ATOM     23  C   UNL d   1      15.852  -4.497 -12.551 -0.07 +0.03    +0.066 A 
DOCKED: ATOM     24  C   UNL d   1      17.867  -6.172  -9.896 -0.08 +0.02    +0.051 C 
DOCKED: ATOM     25  N   UNL d   1      14.846  -1.999 -13.814 -0.10 -0.08    -0.248 N 
DOCKED: ATOM     26  N   UNL d   1      15.194   0.451 -12.545 -0.17 -0.08    -0.248 N 
DOCKED: ATOM     27  N   UNL d   1      16.616  -0.919 -10.348 -0.18 -0.08    -0.248 N 
DOCKED: ATOM     28  N   UNL d   1      16.125  -3.427 -11.794 -0.09 -0.10    -0.248 N 
DOCKED: ATOM     29 FE   UNL d   1      15.784  -1.431 -11.977 -0.06 +0.00    +0.000 Fe
DOCKED: ENDROOT
DOCKED: BRANCH   6  30
DOCKED: ATOM     30  C   UNL d   1      14.004  -4.382 -16.619 -0.05 +0.01    +0.052 C 
DOCKED: BRANCH  30  31
DOCKED: ATOM     31  C   UNL d   1      15.341  -4.832 -17.208 -0.01 +0.02    +0.115 C 
DOCKED: BRANCH  31  32
DOCKED: ATOM     32  C   UNL d   1      16.415  -3.774 -17.079 -0.01 +0.02    +0.139 C 
DOCKED: ATOM     33  O   UNL d   1      16.561  -2.954 -17.974 +0.01 -0.11    -0.650 OA
DOCKED: BRANCH  32  34
DOCKED: ATOM     34  O   UNL d   1      17.194  -3.672 -15.978 +0.02 -0.15    -0.776 OA
DOCKED: ATOM     35  H   UNL d   1      17.762  -4.381 -15.646 +0.01 +0.03    +0.167 HD
DOCKED: ENDBRANCH  32  34
DOCKED: ENDBRANCH  31  32
DOCKED: ENDBRANCH  30  31
DOCKED: ENDBRANCH   6  30
DOCKED: BRANCH  29  36
DOCKED: ATOM     36  C   UNL d   1      17.553  -1.206 -13.080 -0.04 +0.05    +0.190 C 
DOCKED: BRANCH  36  37
DOCKED: ATOM     37  O   UNL d   1      18.517  -1.922 -13.798 +0.00 -0.08    -0.399 OA
DOCKED: ATOM     38  H   UNL d   1      18.024  -2.699 -14.185 +0.02 +0.04    +0.209 HD
DOCKED: ENDBRANCH  36  37
DOCKED: ENDBRANCH  29  36
DOCKED: BRANCH  22  39
DOCKED: ATOM     39  C   UNL d   1      16.395  -7.071 -12.562 -0.09 +0.02    +0.052 C 
DOCKED: BRANCH  39  40
DOCKED: ATOM     40  C   UNL d   1      17.709  -7.381 -13.298 -0.01 +0.03    +0.115 C 
DOCKED: BRANCH  40  41
DOCKED: ATOM     41  C   UNL d   1      18.178  -6.281 -14.228 -0.01 +0.03    +0.139 C 
DOCKED: ATOM     42  O   UNL d   1      18.169  -6.475 -15.436 +0.01 -0.11    -0.650 OA
DOCKED: BRANCH  41  43
DOCKED: ATOM     43  O   UNL d   1      18.524  -5.059 -13.766 +0.02 -0.16    -0.776 OA
DOCKED: ATOM     44  H   UNL d   1      18.183  -4.242 -14.152 +0.01 +0.03    +0.167 HD
DOCKED: ENDBRANCH  41  43
DOCKED: ENDBRANCH  40  41
DOCKED: ENDBRANCH  39  40
DOCKED: ENDBRANCH  22  39
DOCKED: BRANCH  12  45
DOCKED: ATOM     45  C   UNL d   1      15.061   4.027 -11.491 -0.34 +0.00    +0.004 C 
DOCKED: ATOM     46  C   UNL d   1      15.577   5.198 -11.855 -0.42 +0.01    +0.012 C 
DOCKED: ENDBRANCH  12  45
DOCKED: BRANCH  17  47
DOCKED: ATOM     47  C   UNL d   1      18.806  -1.541  -7.485 -0.25 +0.00    +0.004 C 
DOCKED: ATOM     48  C   UNL d   1      18.646  -1.323  -6.177 -0.33 +0.00    +0.012 C 
DOCKED: ENDBRANCH  17  47
DOCKED: TORSDOF 12
DOCKED: TER
DOCKED: ENDMDL
________________________________________________________________________________


	BEGINNING GENETIC ALGORITHM DOCKING 83 of 100
Run: 83 Seed: 1377233372 2030753511 [ Run 83 of 100 GA/GALS ]
Beginning LAMARCKIAN GENETIC ALGORITHM (LGA), with a maximum of 25000000 energy evaluations.

Final-Value: -10.972


	FINAL GENETIC ALGORITHM DOCKED STATE
	_______________________________________________


Detailed state:  trans -2.067 -11.904 10.201 quatxyzw -0.589150 0.204695 0.303252 -0.720445 center 8.781 34.984 -0.736 ntor 12 101.3231 -101.8708 22.2511 -92.5595 -0.4807 162.7968 68.2711 22.1429 -20.2786 -57.5579 163.5152 -180.0000
State:	 -2.067 -11.904  10.201  -0.850  0.295  0.437 -87.818    101.32 -101.87   22.25  -92.56   -0.48  162.80   68.27   22.14  -20.28  -57.56  163.52 -180.00

DOCKED: MODEL       83
DOCKED: USER    Run = 83
DOCKED: USER    DPF = D:/Protein_go_brrr/autodock/final/AncB/heme_Co/dock.dpf
DOCKED: USER  
DOCKED: USER    Estimated Free Energy of Binding    =   -6.77 kcal/mol  [=(1)+(2)+(3)-(4)]
DOCKED: USER    Estimated Inhibition Constant, Ki   =   10.99 uM (micromolar)  [Temperature = 298.15 K]
DOCKED: USER    
DOCKED: USER    (1) Final Intermolecular Energy     =  -10.34 kcal/mol
DOCKED: USER        vdW + Hbond + desolv Energy     =   -6.79 kcal/mol
DOCKED: USER        Electrostatic Energy            =   -3.56 kcal/mol
DOCKED: USER    (2) Final Total Internal Energy     =   -0.63 kcal/mol
DOCKED: USER    (3) Torsional Free Energy           =   +3.58 kcal/mol
DOCKED: USER    (4) Unbound System's Energy  [=(2)] =   -0.63 kcal/mol
DOCKED: USER    
DOCKED: USER    
DOCKED: USER    NEWDPF move heme_Co_opt.pdbqt
DOCKED: USER    NEWDPF about 8.781000 34.984000 -0.736000
DOCKED: USER    NEWDPF tran0 -2.067424 -11.904407 10.200924
DOCKED: USER    NEWDPF quaternion0 -0.589150 0.204695 0.303252 -0.720445
DOCKED: USER    NEWDPF axisangle0 -0.849516 0.295157 0.437270 -87.817600
DOCKED: USER    NEWDPF quat0 -0.849516 0.295157 0.437270 -87.817600
DOCKED: USER    NEWDPF dihe0 101.32 -101.87 22.25 -92.56 -0.48 162.80 68.27 22.14 -20.28 -57.56 163.52 -180.00 
DOCKED: USER  keepresnum = 1 
DOCKED: USER  
DOCKED: REMARK  12 active torsions:
DOCKED: REMARK  status: ('A' for Active; 'I' for Inactive)
DOCKED: REMARK    1  A    between atoms: C_6  and  C_10 
DOCKED: REMARK    2  A    between atoms: C_10  and  C_11 
DOCKED: REMARK    3  A    between atoms: C_11  and  C_12 
DOCKED: REMARK    4  A    between atoms: C_12  and  O_14 
DOCKED: REMARK    5  A    between atoms: C_17  and  C_20 
DOCKED: REMARK    6  A    between atoms: C_24  and  C_27 
DOCKED: REMARK    7  A    between atoms: C_31  and  C_34 
DOCKED: REMARK    8  A    between atoms: C_34  and  C_35 
DOCKED: REMARK    9  A    between atoms: C_35  and  C_36 
DOCKED: REMARK   10  A    between atoms: C_36  and  O_38 
DOCKED: REMARK   11  A    between atoms: FE_43  and  C_44 
DOCKED: REMARK   12  A    between atoms: C_44  and  O_45 
DOCKED: USER                              x       y       z     vdW  Elec       q    Type
DOCKED: USER                           _______ _______ _______ _____ _____    ______ ____
DOCKED: ROOT
DOCKED: ATOM      1  C   UNL d   1      -3.770 -13.049  10.913 -0.06 +0.02    +0.064 A 
DOCKED: ATOM      2  C   UNL d   1      -1.277  -9.493  12.849 -0.13 +0.01    +0.064 C 
DOCKED: ATOM      3  C   UNL d   1       1.770  -9.575   9.169 -0.04 +0.01    +0.064 A 
DOCKED: ATOM      4  C   UNL d   1      -0.979 -12.944   6.986 -0.12 +0.02    +0.064 A 
DOCKED: ATOM      5  C   UNL d   1      -3.292 -12.096  11.729 -0.07 +0.02    +0.066 A 
DOCKED: ATOM      6  C   UNL d   1      -3.963 -11.717  12.908 -0.10 -0.01    -0.021 A 
DOCKED: ATOM      7  C   UNL d   1      -3.247 -10.669  13.454 -0.11 -0.01    -0.025 A 
DOCKED: ATOM      8  C   UNL d   1      -2.162 -10.465  12.595 -0.09 +0.01    +0.066 A 
DOCKED: ATOM      9  C   UNL d   1      -3.561  -9.879  14.734 -0.13 +0.02    +0.051 C 
DOCKED: ATOM     10  C   UNL d   1      -0.116  -9.226  12.036 -0.11 +0.01    +0.066 A 
DOCKED: ATOM     11  C   UNL d   1       0.924  -8.315  12.324 -0.10 -0.00    -0.021 A 
DOCKED: ATOM     12  C   UNL d   1       1.800  -8.363  11.237 -0.10 +0.00    +0.000 A 
DOCKED: ATOM     13  C   UNL d   1       1.239  -9.305  10.374 -0.07 +0.01    +0.070 A 
DOCKED: ATOM     14  C   UNL d   1       1.098  -7.535  13.602 -0.10 +0.00    +0.052 C 
DOCKED: ATOM     15  C   UNL d   1       1.295 -10.475   8.136 -0.08 +0.01    +0.066 A 
DOCKED: ATOM     16  C   UNL d   1       1.810 -10.600   6.853 -0.16 -0.00    -0.021 A 
DOCKED: ATOM     17  C   UNL d   1       1.019 -11.569   6.219 -0.20 +0.00    +0.000 A 
DOCKED: ATOM     18  C   UNL d   1       0.091 -11.972   7.174 -0.14 +0.01    +0.070 A 
DOCKED: ATOM     19  C   UNL d   1       2.985  -9.825   6.300 -0.20 +0.01    +0.052 C 
DOCKED: ATOM     20  C   UNL d   1      -1.945 -13.288   7.871 -0.08 +0.02    +0.066 A 
DOCKED: ATOM     21  C   UNL d   1      -2.942 -14.210   7.561 -0.07 -0.01    -0.025 A 
DOCKED: ATOM     22  C   UNL d   1      -3.745 -14.283   8.685 -0.05 -0.01    -0.021 A 
DOCKED: ATOM     23  C   UNL d   1      -3.200 -13.385   9.628 -0.05 +0.02    +0.066 A 
DOCKED: ATOM     24  C   UNL d   1      -3.133 -14.971   6.252 -0.11 +0.03    +0.051 C 
DOCKED: ATOM     25  N   UNL d   1      -2.161 -11.339  11.521 -0.04 -0.06    -0.248 N 
DOCKED: ATOM     26  N   UNL d   1       0.111  -9.866  10.884 -0.06 -0.03    -0.248 N 
DOCKED: ATOM     27  N   UNL d   1       0.266 -11.277   8.293 -0.07 -0.04    -0.248 N 
DOCKED: ATOM     28  N   UNL d   1      -2.112 -12.779   9.138 -0.03 -0.07    -0.248 N 
DOCKED: ATOM     29 FE   UNL d   1      -0.877 -11.309   9.810 -0.03 +0.00    +0.000 Fe
DOCKED: ENDROOT
DOCKED: BRANCH   6  30
DOCKED: ATOM     30  C   UNL d   1      -5.276 -12.288  13.431 -0.13 +0.02    +0.052 C 
DOCKED: BRANCH  30  31
DOCKED: ATOM     31  C   UNL d   1      -6.384 -11.238  13.362 -0.18 +0.08    +0.115 C 
DOCKED: BRANCH  31  32
DOCKED: ATOM     32  C   UNL d   1      -7.766 -11.856  13.346 -0.17 +0.10    +0.139 C 
DOCKED: ATOM     33  O   UNL d   1      -8.080 -12.601  12.430 -0.55 -0.50    -0.650 OA
DOCKED: BRANCH  32  34
DOCKED: ATOM     34  O   UNL d   1      -8.657 -11.649  14.344 -0.14 -0.48    -0.776 OA
DOCKED: ATOM     35  H   UNL d   1      -9.361 -10.987  14.315 -0.38 +0.10    +0.167 HD
DOCKED: ENDBRANCH  32  34
DOCKED: ENDBRANCH  31  32
DOCKED: ENDBRANCH  30  31
DOCKED: ENDBRANCH   6  30
DOCKED: BRANCH  29  36
DOCKED: ATOM     36  C   UNL d   1      -2.152  -9.845   9.019 -0.10 +0.04    +0.190 C 
DOCKED: BRANCH  36  37
DOCKED: ATOM     37  O   UNL d   1      -3.240  -9.025   9.337 -0.25 -0.07    -0.399 OA
DOCKED: ATOM     38  H   UNL d   1      -3.076  -8.177   8.838 -0.45 -0.01    +0.209 HD
DOCKED: ENDBRANCH  36  37
DOCKED: ENDBRANCH  29  36
DOCKED: BRANCH  22  39
DOCKED: ATOM     39  C   UNL d   1      -5.002 -15.122   8.815 -0.10 +0.04    +0.052 C 
DOCKED: BRANCH  39  40
DOCKED: ATOM     40  C   UNL d   1      -6.186 -14.438   8.112 -0.24 +0.12    +0.115 C 
DOCKED: BRANCH  40  41
DOCKED: ATOM     41  C   UNL d   1      -6.755 -15.219   6.946 -0.19 +0.28    +0.139 C 
DOCKED: ATOM     42  O   UNL d   1      -7.886 -14.969   6.554 +0.09 -1.76    -0.650 OA
DOCKED: BRANCH  41  43
DOCKED: ATOM     43  O   UNL d   1      -6.016 -16.125   6.269 -0.47 -1.73    -0.776 OA
DOCKED: ATOM     44  H   UNL d   1      -5.292 -16.616   6.680 +0.03 +0.23    +0.167 HD
DOCKED: ENDBRANCH  41  43
DOCKED: ENDBRANCH  40  41
DOCKED: ENDBRANCH  39  40
DOCKED: ENDBRANCH  22  39
DOCKED: BRANCH  12  45
DOCKED: ATOM     45  C   UNL d   1       3.106  -7.644  10.924 -0.10 +0.00    +0.004 C 
DOCKED: ATOM     46  C   UNL d   1       3.353  -6.601  10.136 -0.18 +0.00    +0.012 C 
DOCKED: ENDBRANCH  12  45
DOCKED: BRANCH  17  47
DOCKED: ATOM     47  C   UNL d   1       1.066 -12.067   4.812 -0.25 +0.00    +0.004 C 
DOCKED: ATOM     48  C   UNL d   1       1.604 -11.377   3.803 -0.33 +0.00    +0.012 C 
DOCKED: ENDBRANCH  17  47
DOCKED: TORSDOF 12
DOCKED: TER
DOCKED: ENDMDL
________________________________________________________________________________


	BEGINNING GENETIC ALGORITHM DOCKING 84 of 100
Run: 84 Seed: 1405184270 391362462 [ Run 84 of 100 GA/GALS ]
Beginning LAMARCKIAN GENETIC ALGORITHM (LGA), with a maximum of 25000000 energy evaluations.

Final-Value: -9.882


	FINAL GENETIC ALGORITHM DOCKED STATE
	_______________________________________________


Detailed state:  trans -10.800 -20.137 9.885 quatxyzw -0.150414 -0.679974 -0.185462 -0.693264 center 8.781 34.984 -0.736 ntor 12 21.9107 13.0891 91.8725 -89.9223 -84.7461 103.0325 117.4247 -13.4742 -82.8621 97.7228 180.0000 -147.6528
State:	-10.800 -20.137   9.885  -0.209 -0.944 -0.257 -92.222     21.91   13.09   91.87  -89.92  -84.75  103.03  117.42  -13.47  -82.86   97.72  180.00 -147.65

DOCKED: MODEL       84
DOCKED: USER    Run = 84
DOCKED: USER    DPF = D:/Protein_go_brrr/autodock/final/AncB/heme_Co/dock.dpf
DOCKED: USER  
DOCKED: USER    Estimated Free Energy of Binding    =   -5.30 kcal/mol  [=(1)+(2)+(3)-(4)]
DOCKED: USER    Estimated Inhibition Constant, Ki   =  131.25 uM (micromolar)  [Temperature = 298.15 K]
DOCKED: USER    
DOCKED: USER    (1) Final Intermolecular Energy     =   -8.88 kcal/mol
DOCKED: USER        vdW + Hbond + desolv Energy     =   -3.33 kcal/mol
DOCKED: USER        Electrostatic Energy            =   -5.54 kcal/mol
DOCKED: USER    (2) Final Total Internal Energy     =   -1.01 kcal/mol
DOCKED: USER    (3) Torsional Free Energy           =   +3.58 kcal/mol
DOCKED: USER    (4) Unbound System's Energy  [=(2)] =   -1.01 kcal/mol
DOCKED: USER    
DOCKED: USER    
DOCKED: USER    NEWDPF move heme_Co_opt.pdbqt
DOCKED: USER    NEWDPF about 8.781000 34.984000 -0.736000
DOCKED: USER    NEWDPF tran0 -10.800447 -20.137055 9.884532
DOCKED: USER    NEWDPF quaternion0 -0.150414 -0.679974 -0.185462 -0.693264
DOCKED: USER    NEWDPF axisangle0 -0.208710 -0.943512 -0.257342 -92.221879
DOCKED: USER    NEWDPF quat0 -0.208710 -0.943512 -0.257342 -92.221879
DOCKED: USER    NEWDPF dihe0 21.91 13.09 91.87 -89.92 -84.75 103.03 117.42 -13.47 -82.86 97.72 180.00 -147.65 
DOCKED: USER  keepresnum = 1 
DOCKED: USER  
DOCKED: REMARK  12 active torsions:
DOCKED: REMARK  status: ('A' for Active; 'I' for Inactive)
DOCKED: REMARK    1  A    between atoms: C_6  and  C_10 
DOCKED: REMARK    2  A    between atoms: C_10  and  C_11 
DOCKED: REMARK    3  A    between atoms: C_11  and  C_12 
DOCKED: REMARK    4  A    between atoms: C_12  and  O_14 
DOCKED: REMARK    5  A    between atoms: C_17  and  C_20 
DOCKED: REMARK    6  A    between atoms: C_24  and  C_27 
DOCKED: REMARK    7  A    between atoms: C_31  and  C_34 
DOCKED: REMARK    8  A    between atoms: C_34  and  C_35 
DOCKED: REMARK    9  A    between atoms: C_35  and  C_36 
DOCKED: REMARK   10  A    between atoms: C_36  and  O_38 
DOCKED: REMARK   11  A    between atoms: FE_43  and  C_44 
DOCKED: REMARK   12  A    between atoms: C_44  and  O_45 
DOCKED: USER                              x       y       z     vdW  Elec       q    Type
DOCKED: USER                           _______ _______ _______ _____ _____    ______ ____
DOCKED: ROOT
DOCKED: ATOM      1  C   UNL d   1      -9.829 -19.985   7.949 -0.06 +0.08    +0.064 A 
DOCKED: ATOM      2  C   UNL d   1     -14.362 -20.687   9.202 -0.03 +0.02    +0.064 C 
DOCKED: ATOM      3  C   UNL d   1     -13.095 -20.907  13.803 -0.00 +0.01    +0.064 A 
DOCKED: ATOM      4  C   UNL d   1      -8.516 -19.807  12.582 -0.01 +0.03    +0.064 A 
DOCKED: ATOM      5  C   UNL d   1     -11.155 -20.197   7.950 -0.07 +0.07    +0.066 A 
DOCKED: ATOM      6  C   UNL d   1     -11.923 -20.137   6.770 -0.08 -0.02    -0.021 A 
DOCKED: ATOM      7  C   UNL d   1     -13.240 -20.319   7.143 -0.07 -0.01    -0.025 A 
DOCKED: ATOM      8  C   UNL d   1     -13.218 -20.498   8.530 -0.05 +0.03    +0.066 A 
DOCKED: ATOM      9  C   UNL d   1     -14.483 -20.325   6.239 -0.06 +0.02    +0.051 C 
DOCKED: ATOM     10  C   UNL d   1     -14.435 -20.906  10.625 -0.01 +0.02    +0.066 A 
DOCKED: ATOM     11  C   UNL d   1     -15.586 -21.249  11.367 -0.00 -0.00    -0.021 A 
DOCKED: ATOM     12  C   UNL d   1     -15.187 -21.311  12.705 -0.00 +0.00    +0.000 A 
DOCKED: ATOM     13  C   UNL d   1     -13.824 -21.014  12.679 -0.00 +0.02    +0.070 A 
DOCKED: ATOM     14  C   UNL d   1     -16.943 -21.585  10.804 -0.00 +0.01    +0.052 C 
DOCKED: ATOM     15  C   UNL d   1     -11.696 -20.559  13.963 -0.01 +0.02    +0.066 A 
DOCKED: ATOM     16  C   UNL d   1     -11.038 -20.323  15.162 -0.01 -0.00    -0.021 A 
DOCKED: ATOM     17  C   UNL d   1      -9.718 -20.003  14.815 -0.01 +0.00    +0.000 A 
DOCKED: ATOM     18  C   UNL d   1      -9.671 -20.085  13.427 -0.01 +0.02    +0.070 A 
DOCKED: ATOM     19  C   UNL d   1     -11.664 -20.405  16.536 -0.00 +0.01    +0.052 C 
DOCKED: ATOM     20  C   UNL d   1      -8.469 -19.796  11.228 -0.03 +0.04    +0.066 A 
DOCKED: ATOM     21  C   UNL d   1      -7.308 -19.478  10.527 -0.03 -0.02    -0.025 A 
DOCKED: ATOM     22  C   UNL d   1      -7.648 -19.549   9.189 -0.05 -0.02    -0.021 A 
DOCKED: ATOM     23  C   UNL d   1      -9.014 -19.899   9.139 -0.05 +0.07    +0.066 A 
DOCKED: ATOM     24  C   UNL d   1      -5.945 -19.103  11.104 -0.00 +0.02    +0.051 C 
DOCKED: ATOM     25  N   UNL d   1     -11.939 -20.433   9.056 -0.03 -0.17    -0.248 N 
DOCKED: ATOM     26  N   UNL d   1     -13.360 -20.825  11.415 -0.00 -0.08    -0.248 N 
DOCKED: ATOM     27  N   UNL d   1     -10.874 -20.389  12.952 -0.00 -0.08    -0.248 N 
DOCKED: ATOM     28  N   UNL d   1      -9.515 -20.047  10.372 -0.03 -0.20    -0.248 N 
DOCKED: ATOM     29 FE   UNL d   1     -11.371 -20.409  11.119 -0.01 +0.00    +0.000 Fe
DOCKED: ENDROOT
DOCKED: BRANCH   6  30
DOCKED: ATOM     30  C   UNL d   1     -11.410 -19.836   5.366 -0.07 +0.05    +0.052 C 
DOCKED: BRANCH  30  31
DOCKED: ATOM     31  C   UNL d   1     -11.585 -18.354   5.037 -0.15 +0.14    +0.115 C 
DOCKED: BRANCH  31  32
DOCKED: ATOM     32  C   UNL d   1     -10.333 -17.549   5.315 -0.05 +0.31    +0.139 C 
DOCKED: ATOM     33  O   UNL d   1      -9.424 -18.055   5.956 -0.10 -1.67    -0.650 OA
DOCKED: BRANCH  32  34
DOCKED: ATOM     34  O   UNL d   1     -10.164 -16.295   4.835 -0.56 -2.05    -0.776 OA
DOCKED: ATOM     35  H   UNL d   1     -10.883 -15.737   4.509 +0.04 +0.31    +0.167 HD
DOCKED: ENDBRANCH  32  34
DOCKED: ENDBRANCH  31  32
DOCKED: ENDBRANCH  30  31
DOCKED: ENDBRANCH   6  30
DOCKED: BRANCH  29  36
DOCKED: ATOM     36  C   UNL d   1     -11.805 -18.358  11.098 -0.10 +0.18    +0.190 C 
DOCKED: BRANCH  36  37
DOCKED: ATOM     37  O   UNL d   1     -11.542 -17.171  10.408 -0.61 -0.69    -0.399 OA
DOCKED: ATOM     38  H   UNL d   1     -10.848 -16.705  10.954 -0.23 +0.33    +0.209 HD
DOCKED: ENDBRANCH  36  37
DOCKED: ENDBRANCH  29  36
DOCKED: BRANCH  22  39
DOCKED: ATOM     39  C   UNL d   1      -6.724 -19.233   8.028 -0.04 +0.05    +0.052 C 
DOCKED: BRANCH  39  40
DOCKED: ATOM     40  C   UNL d   1      -5.966 -17.919   8.280 -0.05 +0.12    +0.115 C 
DOCKED: BRANCH  40  41
DOCKED: ATOM     41  C   UNL d   1      -6.695 -16.677   7.812 -0.08 +0.26    +0.139 C 
DOCKED: ATOM     42  O   UNL d   1      -6.906 -15.772   8.607 -0.43 -1.14    -0.650 OA
DOCKED: BRANCH  41  43
DOCKED: ATOM     43  O   UNL d   1      -7.043 -16.503   6.518 -0.19 -2.19    -0.776 OA
DOCKED: ATOM     44  H   UNL d   1      -7.930 -16.694   6.189 +0.04 +0.57    +0.167 HD
DOCKED: ENDBRANCH  41  43
DOCKED: ENDBRANCH  40  41
DOCKED: ENDBRANCH  39  40
DOCKED: ENDBRANCH  22  39
DOCKED: BRANCH  12  45
DOCKED: ATOM     45  C   UNL d   1     -15.928 -21.632  13.996 -0.00 +0.00    +0.004 C 
DOCKED: ATOM     46  C   UNL d   1     -16.450 -20.828  14.918 -0.00 +0.00    +0.012 C 
DOCKED: ENDBRANCH  12  45
DOCKED: BRANCH  17  47
DOCKED: ATOM     47  C   UNL d   1      -8.575 -19.595  15.685 -0.00 +0.00    +0.004 C 
DOCKED: ATOM     48  C   UNL d   1      -8.107 -18.346  15.750 -0.01 +0.00    +0.012 C 
DOCKED: ENDBRANCH  17  47
DOCKED: TORSDOF 12
DOCKED: TER
DOCKED: ENDMDL
________________________________________________________________________________


	BEGINNING GENETIC ALGORITHM DOCKING 85 of 100
Run: 85 Seed: 982017924 1396037879 [ Run 85 of 100 GA/GALS ]
Beginning LAMARCKIAN GENETIC ALGORITHM (LGA), with a maximum of 25000000 energy evaluations.

Final-Value: -11.702


	FINAL GENETIC ALGORITHM DOCKED STATE
	_______________________________________________


Detailed state:  trans 3.555 -0.150 -15.792 quatxyzw -0.940990 0.304663 0.097743 0.110291 center 8.781 34.984 -0.736 ntor 12 -2.6515 117.6548 -174.7853 116.5576 66.0064 113.4584 -135.1134 147.5181 -0.2515 80.5207 -175.1319 166.4511
State:	  3.555  -0.150 -15.792  -0.947  0.307  0.098 167.336     -2.65  117.65 -174.79  116.56   66.01  113.46 -135.11  147.52   -0.25   80.52 -175.13  166.45

DOCKED: MODEL       85
DOCKED: USER    Run = 85
DOCKED: USER    DPF = D:/Protein_go_brrr/autodock/final/AncB/heme_Co/dock.dpf
DOCKED: USER  
DOCKED: USER    Estimated Free Energy of Binding    =   -5.76 kcal/mol  [=(1)+(2)+(3)-(4)]
DOCKED: USER    Estimated Inhibition Constant, Ki   =   60.37 uM (micromolar)  [Temperature = 298.15 K]
DOCKED: USER    
DOCKED: USER    (1) Final Intermolecular Energy     =   -9.34 kcal/mol
DOCKED: USER        vdW + Hbond + desolv Energy     =   -5.94 kcal/mol
DOCKED: USER        Electrostatic Energy            =   -3.40 kcal/mol
DOCKED: USER    (2) Final Total Internal Energy     =   -2.37 kcal/mol
DOCKED: USER    (3) Torsional Free Energy           =   +3.58 kcal/mol
DOCKED: USER    (4) Unbound System's Energy  [=(2)] =   -2.37 kcal/mol
DOCKED: USER    
DOCKED: USER    
DOCKED: USER    NEWDPF move heme_Co_opt.pdbqt
DOCKED: USER    NEWDPF about 8.781000 34.984000 -0.736000
DOCKED: USER    NEWDPF tran0 3.554519 -0.149597 -15.791664
DOCKED: USER    NEWDPF quaternion0 -0.940990 0.304663 0.097743 0.110291
DOCKED: USER    NEWDPF axisangle0 -0.946766 0.306533 0.098343 167.335807
DOCKED: USER    NEWDPF quat0 -0.946766 0.306533 0.098343 167.335807
DOCKED: USER    NEWDPF dihe0 -2.65 117.65 -174.79 116.56 66.01 113.46 -135.11 147.52 -0.25 80.52 -175.13 166.45 
DOCKED: USER  keepresnum = 1 
DOCKED: USER  
DOCKED: REMARK  12 active torsions:
DOCKED: REMARK  status: ('A' for Active; 'I' for Inactive)
DOCKED: REMARK    1  A    between atoms: C_6  and  C_10 
DOCKED: REMARK    2  A    between atoms: C_10  and  C_11 
DOCKED: REMARK    3  A    between atoms: C_11  and  C_12 
DOCKED: REMARK    4  A    between atoms: C_12  and  O_14 
DOCKED: REMARK    5  A    between atoms: C_17  and  C_20 
DOCKED: REMARK    6  A    between atoms: C_24  and  C_27 
DOCKED: REMARK    7  A    between atoms: C_31  and  C_34 
DOCKED: REMARK    8  A    between atoms: C_34  and  C_35 
DOCKED: REMARK    9  A    between atoms: C_35  and  C_36 
DOCKED: REMARK   10  A    between atoms: C_36  and  O_38 
DOCKED: REMARK   11  A    between atoms: FE_43  and  C_44 
DOCKED: REMARK   12  A    between atoms: C_44  and  O_45 
DOCKED: USER                              x       y       z     vdW  Elec       q    Type
DOCKED: USER                           _______ _______ _______ _____ _____    ______ ____
DOCKED: ROOT
DOCKED: ATOM      1  C   UNL d   1       1.954   0.733 -14.619 -0.18 +0.03    +0.064 A 
DOCKED: ATOM      2  C   UNL d   1       3.485   1.533 -19.050 -0.08 +0.03    +0.064 C 
DOCKED: ATOM      3  C   UNL d   1       7.102  -1.519 -18.391 -0.10 +0.01    +0.064 A 
DOCKED: ATOM      4  C   UNL d   1       5.336  -2.643 -13.999 -0.10 +0.01    +0.064 A 
DOCKED: ATOM      5  C   UNL d   1       2.127   1.203 -15.866 -0.11 +0.03    +0.066 A 
DOCKED: ATOM      6  C   UNL d   1       1.210   2.088 -16.465 -0.08 -0.01    -0.021 A 
DOCKED: ATOM      7  C   UNL d   1       1.647   2.299 -17.758 -0.05 -0.01    -0.025 A 
DOCKED: ATOM      8  C   UNL d   1       2.820   1.547 -17.887 -0.08 +0.03    +0.066 A 
DOCKED: ATOM      9  C   UNL d   1       0.996   3.170 -18.843 -0.02 +0.03    +0.051 C 
DOCKED: ATOM     10  C   UNL d   1       4.713   0.811 -19.268 -0.06 +0.03    +0.066 A 
DOCKED: ATOM     11  C   UNL d   1       5.532   0.867 -20.417 -0.06 -0.01    -0.021 A 
DOCKED: ATOM     12  C   UNL d   1       6.582  -0.029 -20.196 -0.09 +0.00    +0.000 A 
DOCKED: ATOM     13  C   UNL d   1       6.333  -0.555 -18.928 -0.11 +0.02    +0.070 A 
DOCKED: ATOM     14  C   UNL d   1       5.357   1.793 -21.593 -0.06 +0.02    +0.052 C 
DOCKED: ATOM     15  C   UNL d   1       6.961  -2.208 -17.123 -0.14 +0.01    +0.066 A 
DOCKED: ATOM     16  C   UNL d   1       7.705  -3.297 -16.691 -0.16 -0.00    -0.021 A 
DOCKED: ATOM     17  C   UNL d   1       7.198  -3.626 -15.426 -0.31 +0.00    +0.000 A 
DOCKED: ATOM     18  C   UNL d   1       6.192  -2.698 -15.178 -0.21 +0.01    +0.070 A 
DOCKED: ATOM     19  C   UNL d   1       8.823  -3.958 -17.466 -0.09 +0.01    +0.052 C 
DOCKED: ATOM     20  C   UNL d   1       4.296  -1.805 -13.774 -0.27 +0.01    +0.066 A 
DOCKED: ATOM     21  C   UNL d   1       3.525  -1.872 -12.616 -0.38 -0.01    -0.025 A 
DOCKED: ATOM     22  C   UNL d   1       2.559  -0.891 -12.754 -0.34 -0.01    -0.021 A 
DOCKED: ATOM     23  C   UNL d   1       2.785  -0.277 -14.005 -0.25 +0.02    +0.066 A 
DOCKED: ATOM     24  C   UNL d   1       3.686  -2.836 -11.444 -0.32 +0.02    +0.051 C 
DOCKED: ATOM     25  N   UNL d   1       3.145   0.863 -16.728 -0.07 -0.11    -0.248 N 
DOCKED: ATOM     26  N   UNL d   1       5.235  -0.004 -18.345 -0.08 -0.10    -0.248 N 
DOCKED: ATOM     27  N   UNL d   1       6.058  -1.888 -16.223 -0.12 -0.03    -0.248 N 
DOCKED: ATOM     28  N   UNL d   1       3.833  -0.829 -14.627 -0.15 -0.06    -0.248 N 
DOCKED: ATOM     29 FE   UNL d   1       4.687  -0.595 -16.457 -0.04 +0.00    +0.000 Fe
DOCKED: ENDROOT
DOCKED: BRANCH   6  30
DOCKED: ATOM     30  C   UNL d   1      -0.069   2.634 -15.840 -0.11 +0.04    +0.052 C 
DOCKED: BRANCH  30  31
DOCKED: ATOM     31  C   UNL d   1      -1.254   1.723 -16.160 -0.05 +0.11    +0.115 C 
DOCKED: BRANCH  31  32
DOCKED: ATOM     32  C   UNL d   1      -2.538   2.199 -15.514 -0.02 +0.23    +0.139 C 
DOCKED: ATOM     33  O   UNL d   1      -3.312   2.893 -16.156 -0.12 -1.20    -0.650 OA
DOCKED: BRANCH  32  34
DOCKED: ATOM     34  O   UNL d   1      -2.886   1.839 -14.257 -0.26 -1.46    -0.776 OA
DOCKED: ATOM     35  H   UNL d   1      -2.403   1.192 -13.724 +0.04 +0.25    +0.167 HD
DOCKED: ENDBRANCH  32  34
DOCKED: ENDBRANCH  31  32
DOCKED: ENDBRANCH  30  31
DOCKED: ENDBRANCH   6  30
DOCKED: BRANCH  29  36
DOCKED: ATOM     36  C   UNL d   1       3.357  -1.990 -17.281 -0.06 +0.06    +0.190 C 
DOCKED: BRANCH  36  37
DOCKED: ATOM     37  O   UNL d   1       2.017  -2.389 -17.277 -0.04 -0.16    -0.399 OA
DOCKED: ATOM     38  H   UNL d   1       1.551  -1.718 -16.703 +0.04 +0.10    +0.209 HD
DOCKED: ENDBRANCH  36  37
DOCKED: ENDBRANCH  29  36
DOCKED: BRANCH  22  39
DOCKED: ATOM     39  C   UNL d   1       1.445  -0.608 -11.764 +0.19 +0.03    +0.052 C 
DOCKED: BRANCH  39  40
DOCKED: ATOM     40  C   UNL d   1       0.181  -1.403 -12.129 -0.11 +0.09    +0.115 C 
DOCKED: BRANCH  40  41
DOCKED: ATOM     41  C   UNL d   1      -0.921  -0.573 -12.754 -0.21 +0.17    +0.139 C 
DOCKED: ATOM     42  O   UNL d   1      -1.579   0.178 -12.047 +0.04 -0.70    -0.650 OA
DOCKED: BRANCH  41  43
DOCKED: ATOM     43  O   UNL d   1      -1.141  -0.574 -14.087 -0.16 -1.18    -0.776 OA
DOCKED: ATOM     44  H   UNL d   1      -1.723   0.066 -14.517 +0.03 +0.26    +0.167 HD
DOCKED: ENDBRANCH  41  43
DOCKED: ENDBRANCH  40  41
DOCKED: ENDBRANCH  39  40
DOCKED: ENDBRANCH  22  39
DOCKED: BRANCH  12  45
DOCKED: ATOM     45  C   UNL d   1       7.794  -0.433 -21.025 -0.07 +0.00    +0.004 C 
DOCKED: ATOM     46  C   UNL d   1       9.085  -0.158 -20.861 -0.10 +0.00    +0.012 C 
DOCKED: ENDBRANCH  12  45
DOCKED: BRANCH  17  47
DOCKED: ATOM     47  C   UNL d   1       7.567  -4.749 -14.513 -0.46 +0.00    +0.004 C 
DOCKED: ATOM     48  C   UNL d   1       8.828  -5.105 -14.255 -0.39 +0.00    +0.012 C 
DOCKED: ENDBRANCH  17  47
DOCKED: TORSDOF 12
DOCKED: TER
DOCKED: ENDMDL
________________________________________________________________________________


	BEGINNING GENETIC ALGORITHM DOCKING 86 of 100
Run: 86 Seed: 1909345244 1089705284 [ Run 86 of 100 GA/GALS ]
Beginning LAMARCKIAN GENETIC ALGORITHM (LGA), with a maximum of 25000000 energy evaluations.

Final-Value: -11.108


	FINAL GENETIC ALGORITHM DOCKED STATE
	_______________________________________________


Detailed state:  trans 20.005 2.454 -3.159 quatxyzw -0.239149 -0.030989 -0.706125 -0.665759 center 8.781 34.984 -0.736 ntor 12 31.0216 118.3570 -128.0414 115.7932 133.2438 130.5882 -139.1945 124.4917 -179.1369 -116.2100 5.3525 -2.8133
State:	 20.005   2.454  -3.159  -0.321 -0.042 -0.946 -96.519     31.02  118.36 -128.04  115.79  133.24  130.59 -139.19  124.49 -179.14 -116.21    5.35   -2.81

DOCKED: MODEL       86
DOCKED: USER    Run = 86
DOCKED: USER    DPF = D:/Protein_go_brrr/autodock/final/AncB/heme_Co/dock.dpf
DOCKED: USER  
DOCKED: USER    Estimated Free Energy of Binding    =   -5.14 kcal/mol  [=(1)+(2)+(3)-(4)]
DOCKED: USER    Estimated Inhibition Constant, Ki   =  171.25 uM (micromolar)  [Temperature = 298.15 K]
DOCKED: USER    
DOCKED: USER    (1) Final Intermolecular Energy     =   -8.72 kcal/mol
DOCKED: USER        vdW + Hbond + desolv Energy     =   -5.91 kcal/mol
DOCKED: USER        Electrostatic Energy            =   -2.81 kcal/mol
DOCKED: USER    (2) Final Total Internal Energy     =   -2.39 kcal/mol
DOCKED: USER    (3) Torsional Free Energy           =   +3.58 kcal/mol
DOCKED: USER    (4) Unbound System's Energy  [=(2)] =   -2.39 kcal/mol
DOCKED: USER    
DOCKED: USER    
DOCKED: USER    NEWDPF move heme_Co_opt.pdbqt
DOCKED: USER    NEWDPF about 8.781000 34.984000 -0.736000
DOCKED: USER    NEWDPF tran0 20.004809 2.453997 -3.159194
DOCKED: USER    NEWDPF quaternion0 -0.239149 -0.030989 -0.706125 -0.665759
DOCKED: USER    NEWDPF axisangle0 -0.320504 -0.041531 -0.946336 -96.518886
DOCKED: USER    NEWDPF quat0 -0.320504 -0.041531 -0.946336 -96.518886
DOCKED: USER    NEWDPF dihe0 31.02 118.36 -128.04 115.79 133.24 130.59 -139.19 124.49 -179.14 -116.21 5.35 -2.81 
DOCKED: USER  keepresnum = 1 
DOCKED: USER  
DOCKED: REMARK  12 active torsions:
DOCKED: REMARK  status: ('A' for Active; 'I' for Inactive)
DOCKED: REMARK    1  A    between atoms: C_6  and  C_10 
DOCKED: REMARK    2  A    between atoms: C_10  and  C_11 
DOCKED: REMARK    3  A    between atoms: C_11  and  C_12 
DOCKED: REMARK    4  A    between atoms: C_12  and  O_14 
DOCKED: REMARK    5  A    between atoms: C_17  and  C_20 
DOCKED: REMARK    6  A    between atoms: C_24  and  C_27 
DOCKED: REMARK    7  A    between atoms: C_31  and  C_34 
DOCKED: REMARK    8  A    between atoms: C_34  and  C_35 
DOCKED: REMARK    9  A    between atoms: C_35  and  C_36 
DOCKED: REMARK   10  A    between atoms: C_36  and  O_38 
DOCKED: REMARK   11  A    between atoms: FE_43  and  C_44 
DOCKED: REMARK   12  A    between atoms: C_44  and  O_45 
DOCKED: USER                              x       y       z     vdW  Elec       q    Type
DOCKED: USER                           _______ _______ _______ _____ _____    ______ ____
DOCKED: ROOT
DOCKED: ATOM      1  C   UNL d   1      20.228   3.881  -4.781 -0.10 +0.03    +0.064 A 
DOCKED: ATOM      2  C   UNL d   1      18.796   4.366  -0.272 -0.22 +0.00    +0.064 C 
DOCKED: ATOM      3  C   UNL d   1      19.042  -0.365   0.354 -0.21 +0.00    +0.064 A 
DOCKED: ATOM      4  C   UNL d   1      20.875  -0.849  -4.126 -0.11 +0.01    +0.064 A 
DOCKED: ATOM      5  C   UNL d   1      19.784   4.357  -3.606 -0.13 +0.02    +0.066 A 
DOCKED: ATOM      6  C   UNL d   1      19.645   5.738  -3.364 -0.12 -0.01    -0.021 A 
DOCKED: ATOM      7  C   UNL d   1      19.251   5.874  -2.047 -0.15 -0.00    -0.025 A 
DOCKED: ATOM      8  C   UNL d   1      19.150   4.571  -1.547 -0.19 +0.01    +0.066 A 
DOCKED: ATOM      9  C   UNL d   1      18.977   7.173  -1.275 -0.15 +0.01    +0.051 C 
DOCKED: ATOM     10  C   UNL d   1      18.640   3.062   0.322 -0.24 -0.00    +0.066 A 
DOCKED: ATOM     11  C   UNL d   1      18.137   2.776   1.610 -0.20 +0.00    -0.021 A 
DOCKED: ATOM     12  C   UNL d   1      18.216   1.389   1.765 -0.21 -0.00    +0.000 A 
DOCKED: ATOM     13  C   UNL d   1      18.749   0.932   0.559 -0.22 +0.00    +0.070 A 
DOCKED: ATOM     14  C   UNL d   1      17.536   3.767   2.573 -0.27 +0.00    +0.052 C 
DOCKED: ATOM     15  C   UNL d   1      19.641  -1.000  -0.803 -0.18 +0.01    +0.066 A 
DOCKED: ATOM     16  C   UNL d   1      20.051  -2.322  -0.896 -0.13 -0.00    -0.021 A 
DOCKED: ATOM     17  C   UNL d   1      20.583  -2.466  -2.185 -0.12 +0.00    +0.000 A 
DOCKED: ATOM     18  C   UNL d   1      20.439  -1.220  -2.786 -0.15 +0.01    +0.070 A 
DOCKED: ATOM     19  C   UNL d   1      19.930  -3.357   0.201 -0.12 +0.00    +0.052 C 
DOCKED: ATOM     20  C   UNL d   1      20.824   0.377  -4.700 -0.09 +0.02    +0.066 A 
DOCKED: ATOM     21  C   UNL d   1      21.308   0.618  -5.984 -0.07 -0.01    -0.025 A 
DOCKED: ATOM     22  C   UNL d   1      21.108   1.967  -6.211 -0.08 -0.01    -0.021 A 
DOCKED: ATOM     23  C   UNL d   1      20.518   2.489  -5.040 -0.07 +0.02    +0.066 A 
DOCKED: ATOM     24  C   UNL d   1      21.948  -0.384  -6.941 -0.03 +0.01    +0.051 C 
DOCKED: ATOM     25  N   UNL d   1      19.469   3.611  -2.493 -0.06 -0.05    -0.248 N 
DOCKED: ATOM     26  N   UNL d   1      18.952   1.938  -0.332 -0.16 -0.02    -0.248 N 
DOCKED: ATOM     27  N   UNL d   1      19.902  -0.364  -1.923 -0.12 -0.04    -0.248 N 
DOCKED: ATOM     28  N   UNL d   1      20.347   1.530  -4.122 +0.04 -0.07    -0.248 N 
DOCKED: ATOM     29 FE   UNL d   1      19.699   1.505  -2.195 -0.05 +0.00    +0.000 Fe
DOCKED: ENDROOT
DOCKED: BRANCH   6  30
DOCKED: ATOM     30  C   UNL d   1      19.960   6.869  -4.338 -0.10 +0.02    +0.052 C 
DOCKED: BRANCH  30  31
DOCKED: ATOM     31  C   UNL d   1      18.729   7.213  -5.177 -0.22 +0.06    +0.115 C 
DOCKED: BRANCH  31  32
DOCKED: ATOM     32  C   UNL d   1      17.541   6.337  -4.845 -0.35 +0.12    +0.139 C 
DOCKED: ATOM     33  O   UNL d   1      16.747   6.699  -3.989 -0.10 -0.34    -0.650 OA
DOCKED: BRANCH  32  34
DOCKED: ATOM     34  O   UNL d   1      17.297   5.179  -5.502 +0.11 -1.30    -0.776 OA
DOCKED: ATOM     35  H   UNL d   1      17.979   4.640  -5.925 +0.07 +0.28    +0.167 HD
DOCKED: ENDBRANCH  32  34
DOCKED: ENDBRANCH  31  32
DOCKED: ENDBRANCH  30  31
DOCKED: ENDBRANCH   6  30
DOCKED: BRANCH  29  36
DOCKED: ATOM     36  C   UNL d   1      21.636   1.928  -1.514 -0.04 +0.03    +0.190 C 
DOCKED: BRANCH  36  37
DOCKED: ATOM     37  O   UNL d   1      22.665   2.871  -1.596 -0.00 -0.05    -0.399 OA
DOCKED: ATOM     38  H   UNL d   1      22.284   3.621  -2.133 +0.01 +0.03    +0.209 HD
DOCKED: ENDBRANCH  36  37
DOCKED: ENDBRANCH  29  36
DOCKED: BRANCH  22  39
DOCKED: ATOM     39  C   UNL d   1      21.523   2.720  -7.461 -0.03 +0.02    +0.052 C 
DOCKED: BRANCH  39  40
DOCKED: ATOM     40  C   UNL d   1      20.329   2.888  -8.415 -0.07 +0.06    +0.115 C 
DOCKED: BRANCH  40  41
DOCKED: ATOM     41  C   UNL d   1      19.146   3.616  -7.812 -0.08 +0.15    +0.139 C 
DOCKED: ATOM     42  O   UNL d   1      18.213   2.968  -7.358 -0.13 -0.83    -0.650 OA
DOCKED: BRANCH  41  43
DOCKED: ATOM     43  O   UNL d   1      19.130   4.961  -7.683 -0.40 -1.20    -0.776 OA
DOCKED: ATOM     44  H   UNL d   1      19.020   5.399  -6.829 +0.05 +0.22    +0.167 HD
DOCKED: ENDBRANCH  41  43
DOCKED: ENDBRANCH  40  41
DOCKED: ENDBRANCH  39  40
DOCKED: ENDBRANCH  22  39
DOCKED: BRANCH  12  45
DOCKED: ATOM     45  C   UNL d   1      17.834   0.447   2.899 -0.23 -0.00    +0.004 C 
DOCKED: ATOM     46  C   UNL d   1      16.826  -0.414   3.007 -0.33 -0.00    +0.012 C 
DOCKED: ENDBRANCH  12  45
DOCKED: BRANCH  17  47
DOCKED: ATOM     47  C   UNL d   1      21.232  -3.651  -2.823 -0.07 +0.00    +0.004 C 
DOCKED: ATOM     48  C   UNL d   1      20.686  -4.338  -3.829 -0.09 +0.00    +0.012 C 
DOCKED: ENDBRANCH  17  47
DOCKED: TORSDOF 12
DOCKED: TER
DOCKED: ENDMDL
________________________________________________________________________________


	BEGINNING GENETIC ALGORITHM DOCKING 87 of 100
Run: 87 Seed: 535139455 1453580627 [ Run 87 of 100 GA/GALS ]
Beginning LAMARCKIAN GENETIC ALGORITHM (LGA), with a maximum of 25000000 energy evaluations.

Final-Value: -11.651


	FINAL GENETIC ALGORITHM DOCKED STATE
	_______________________________________________


Detailed state:  trans -2.118 -10.977 9.751 quatxyzw -0.863666 -0.098905 -0.203984 0.450210 center 8.781 34.984 -0.736 ntor 12 -83.1721 117.9387 112.9318 27.6781 137.7620 137.5008 178.4302 11.5654 72.4787 33.0725 177.1579 126.6110
State:	 -2.118 -10.977   9.751  -0.967 -0.111 -0.228 126.486    -83.17  117.94  112.93   27.68  137.76  137.50  178.43   11.57   72.48   33.07  177.16  126.61

DOCKED: MODEL       87
DOCKED: USER    Run = 87
DOCKED: USER    DPF = D:/Protein_go_brrr/autodock/final/AncB/heme_Co/dock.dpf
DOCKED: USER  
DOCKED: USER    Estimated Free Energy of Binding    =   -7.43 kcal/mol  [=(1)+(2)+(3)-(4)]
DOCKED: USER    Estimated Inhibition Constant, Ki   =    3.58 uM (micromolar)  [Temperature = 298.15 K]
DOCKED: USER    
DOCKED: USER    (1) Final Intermolecular Energy     =  -11.01 kcal/mol
DOCKED: USER        vdW + Hbond + desolv Energy     =   -7.58 kcal/mol
DOCKED: USER        Electrostatic Energy            =   -3.43 kcal/mol
DOCKED: USER    (2) Final Total Internal Energy     =   -0.64 kcal/mol
DOCKED: USER    (3) Torsional Free Energy           =   +3.58 kcal/mol
DOCKED: USER    (4) Unbound System's Energy  [=(2)] =   -0.64 kcal/mol
DOCKED: USER    
DOCKED: USER    
DOCKED: USER    NEWDPF move heme_Co_opt.pdbqt
DOCKED: USER    NEWDPF about 8.781000 34.984000 -0.736000
DOCKED: USER    NEWDPF tran0 -2.117792 -10.977454 9.751042
DOCKED: USER    NEWDPF quaternion0 -0.863666 -0.098905 -0.203984 0.450210
DOCKED: USER    NEWDPF axisangle0 -0.967235 -0.110766 -0.228445 126.485727
DOCKED: USER    NEWDPF quat0 -0.967235 -0.110766 -0.228445 126.485727
DOCKED: USER    NEWDPF dihe0 -83.17 117.94 112.93 27.68 137.76 137.50 178.43 11.57 72.48 33.07 177.16 126.61 
DOCKED: USER  keepresnum = 1 
DOCKED: USER  
DOCKED: REMARK  12 active torsions:
DOCKED: REMARK  status: ('A' for Active; 'I' for Inactive)
DOCKED: REMARK    1  A    between atoms: C_6  and  C_10 
DOCKED: REMARK    2  A    between atoms: C_10  and  C_11 
DOCKED: REMARK    3  A    between atoms: C_11  and  C_12 
DOCKED: REMARK    4  A    between atoms: C_12  and  O_14 
DOCKED: REMARK    5  A    between atoms: C_17  and  C_20 
DOCKED: REMARK    6  A    between atoms: C_24  and  C_27 
DOCKED: REMARK    7  A    between atoms: C_31  and  C_34 
DOCKED: REMARK    8  A    between atoms: C_34  and  C_35 
DOCKED: REMARK    9  A    between atoms: C_35  and  C_36 
DOCKED: REMARK   10  A    between atoms: C_36  and  O_38 
DOCKED: REMARK   11  A    between atoms: FE_43  and  C_44 
DOCKED: REMARK   12  A    between atoms: C_44  and  O_45 
DOCKED: USER                              x       y       z     vdW  Elec       q    Type
DOCKED: USER                           _______ _______ _______ _____ _____    ______ ____
DOCKED: ROOT
DOCKED: ATOM      1  C   UNL d   1      -4.236 -11.324  10.084 -0.22 +0.02    +0.064 A 
DOCKED: ATOM      2  C   UNL d   1      -1.423 -12.102   6.330 -0.11 +0.02    +0.064 C 
DOCKED: ATOM      3  C   UNL d   1       2.230 -10.004   8.584 -0.08 +0.01    +0.064 A 
DOCKED: ATOM      4  C   UNL d   1      -0.514  -9.544  12.575 -0.08 +0.01    +0.064 A 
DOCKED: ATOM      5  C   UNL d   1      -3.745 -11.658   8.879 -0.20 +0.02    +0.066 A 
DOCKED: ATOM      6  C   UNL d   1      -4.508 -12.371   7.934 -0.25 -0.01    -0.021 A 
DOCKED: ATOM      7  C   UNL d   1      -3.680 -12.614   6.856 -0.25 -0.01    -0.025 A 
DOCKED: ATOM      8  C   UNL d   1      -2.454 -12.025   7.182 -0.24 +0.02    +0.066 A 
DOCKED: ATOM      9  C   UNL d   1      -4.015 -13.371   5.562 -0.06 +0.03    +0.051 C 
DOCKED: ATOM     10  C   UNL d   1      -0.133 -11.504   6.568 -0.20 +0.01    +0.066 A 
DOCKED: ATOM     11  C   UNL d   1       0.943 -11.428   5.656 -0.24 -0.00    -0.021 A 
DOCKED: ATOM     12  C   UNL d   1       1.993 -10.808   6.338 -0.17 +0.00    +0.000 A 
DOCKED: ATOM     13  C   UNL d   1       1.479 -10.541   7.607 -0.11 +0.01    +0.070 A 
DOCKED: ATOM     14  C   UNL d   1       0.914 -11.839   4.206 -0.22 +0.01    +0.052 C 
DOCKED: ATOM     15  C   UNL d   1       1.878  -9.711   9.960 -0.07 +0.01    +0.066 A 
DOCKED: ATOM     16  C   UNL d   1       2.744  -9.290  10.959 -0.05 -0.00    -0.021 A 
DOCKED: ATOM     17  C   UNL d   1       1.957  -9.159  12.113 -0.05 +0.00    +0.000 A 
DOCKED: ATOM     18  C   UNL d   1       0.666  -9.494  11.720 -0.07 +0.01    +0.070 A 
DOCKED: ATOM     19  C   UNL d   1       4.226  -9.041  10.789 -0.03 +0.00    +0.052 C 
DOCKED: ATOM     20  C   UNL d   1      -1.761  -9.950  12.236 -0.12 +0.01    +0.066 A 
DOCKED: ATOM     21  C   UNL d   1      -2.806  -9.988  13.156 -0.14 -0.01    -0.025 A 
DOCKED: ATOM     22  C   UNL d   1      -3.899 -10.469  12.459 -0.19 -0.01    -0.021 A 
DOCKED: ATOM     23  C   UNL d   1      -3.460 -10.715  11.141 -0.19 +0.02    +0.066 A 
DOCKED: ATOM     24  C   UNL d   1      -2.762  -9.603  14.633 -0.12 +0.01    +0.051 C 
DOCKED: ATOM     25  N   UNL d   1      -2.467 -11.420   8.427 -0.14 -0.07    -0.248 N 
DOCKED: ATOM     26  N   UNL d   1       0.176 -10.911   7.726 -0.11 -0.04    -0.248 N 
DOCKED: ATOM     27  N   UNL d   1       0.662  -9.846  10.439 -0.05 -0.03    -0.248 N 
DOCKED: ATOM     28  N   UNL d   1      -2.166 -10.404  11.002 -0.09 -0.06    -0.248 N 
DOCKED: ATOM     29 FE   UNL d   1      -0.812 -10.586   9.496 -0.04 +0.00    +0.000 Fe
DOCKED: ENDROOT
DOCKED: BRANCH   6  30
DOCKED: ATOM     30  C   UNL d   1      -5.941 -12.863   8.106 -0.32 +0.04    +0.052 C 
DOCKED: BRANCH  30  31
DOCKED: ATOM     31  C   UNL d   1      -5.959 -14.339   8.504 -0.23 +0.10    +0.115 C 
DOCKED: BRANCH  31  32
DOCKED: ATOM     32  C   UNL d   1      -6.465 -15.231   7.391 -0.21 +0.23    +0.139 C 
DOCKED: ATOM     33  O   UNL d   1      -6.006 -15.107   6.266 -0.44 -1.32    -0.650 OA
DOCKED: BRANCH  32  34
DOCKED: ATOM     34  O   UNL d   1      -7.382 -16.202   7.611 -0.26 -2.16    -0.776 OA
DOCKED: ATOM     35  H   UNL d   1      -7.164 -17.103   7.885 +0.02 +0.40    +0.167 HD
DOCKED: ENDBRANCH  32  34
DOCKED: ENDBRANCH  31  32
DOCKED: ENDBRANCH  30  31
DOCKED: ENDBRANCH   6  30
DOCKED: BRANCH  29  36
DOCKED: ATOM     36  C   UNL d   1      -0.364 -12.541  10.103 -0.02 +0.03    +0.190 C 
DOCKED: BRANCH  36  37
DOCKED: ATOM     37  O   UNL d   1      -0.906 -13.826  10.212 +0.00 -0.08    -0.399 OA
DOCKED: ATOM     38  H   UNL d   1      -1.810 -13.759   9.797 +0.02 +0.05    +0.209 HD
DOCKED: ENDBRANCH  36  37
DOCKED: ENDBRANCH  29  36
DOCKED: BRANCH  22  39
DOCKED: ATOM     39  C   UNL d   1      -5.270 -10.739  13.050 +0.03 +0.03    +0.052 C 
DOCKED: BRANCH  39  40
DOCKED: ATOM     40  C   UNL d   1      -5.778 -12.128  12.633 -0.21 +0.06    +0.115 C 
DOCKED: BRANCH  40  41
DOCKED: ATOM     41  C   UNL d   1      -7.286 -12.253  12.582 -0.33 +0.09    +0.139 C 
DOCKED: ATOM     42  O   UNL d   1      -7.796 -13.029  11.785 -0.27 -0.43    -0.650 OA
DOCKED: BRANCH  41  43
DOCKED: ATOM     43  O   UNL d   1      -8.083 -11.596  13.453 -0.50 -0.61    -0.776 OA
DOCKED: ATOM     44  H   UNL d   1      -8.742 -10.950  13.168 -0.51 +0.15    +0.167 HD
DOCKED: ENDBRANCH  41  43
DOCKED: ENDBRANCH  40  41
DOCKED: ENDBRANCH  39  40
DOCKED: ENDBRANCH  22  39
DOCKED: BRANCH  12  45
DOCKED: ATOM     45  C   UNL d   1       3.410 -10.422   5.933 -0.18 +0.00    +0.004 C 
DOCKED: ATOM     46  C   UNL d   1       3.953 -10.260   4.730 -0.21 +0.00    +0.012 C 
DOCKED: ENDBRANCH  12  45
DOCKED: BRANCH  17  47
DOCKED: ATOM     47  C   UNL d   1       2.360  -8.799  13.506 -0.03 +0.00    +0.004 C 
DOCKED: ATOM     48  C   UNL d   1       1.944  -7.695  14.131 -0.06 +0.00    +0.012 C 
DOCKED: ENDBRANCH  17  47
DOCKED: TORSDOF 12
DOCKED: TER
DOCKED: ENDMDL
________________________________________________________________________________


	BEGINNING GENETIC ALGORITHM DOCKING 88 of 100
Run: 88 Seed: 2054398464 3165993 [ Run 88 of 100 GA/GALS ]
Beginning LAMARCKIAN GENETIC ALGORITHM (LGA), with a maximum of 25000000 energy evaluations.

Final-Value: -12.980


	FINAL GENETIC ALGORITHM DOCKED STATE
	_______________________________________________


Detailed state:  trans -7.429 -1.270 -12.927 quatxyzw -0.481881 -0.227831 -0.763999 -0.363579 center 8.781 34.984 -0.736 ntor 12 -127.3919 126.9115 4.2715 120.8624 108.2697 130.9538 34.5292 -20.7959 171.1927 -29.4739 178.4187 178.5713
State:	 -7.429  -1.270 -12.927  -0.517 -0.245 -0.820 -137.360   -127.39  126.91    4.27  120.86  108.27  130.95   34.53  -20.80  171.19  -29.47  178.42  178.57

DOCKED: MODEL       88
DOCKED: USER    Run = 88
DOCKED: USER    DPF = D:/Protein_go_brrr/autodock/final/AncB/heme_Co/dock.dpf
DOCKED: USER  
DOCKED: USER    Estimated Free Energy of Binding    =   -7.48 kcal/mol  [=(1)+(2)+(3)-(4)]
DOCKED: USER    Estimated Inhibition Constant, Ki   =    3.26 uM (micromolar)  [Temperature = 298.15 K]
DOCKED: USER    
DOCKED: USER    (1) Final Intermolecular Energy     =  -11.06 kcal/mol
DOCKED: USER        vdW + Hbond + desolv Energy     =   -6.67 kcal/mol
DOCKED: USER        Electrostatic Energy            =   -4.39 kcal/mol
DOCKED: USER    (2) Final Total Internal Energy     =   -1.92 kcal/mol
DOCKED: USER    (3) Torsional Free Energy           =   +3.58 kcal/mol
DOCKED: USER    (4) Unbound System's Energy  [=(2)] =   -1.92 kcal/mol
DOCKED: USER    
DOCKED: USER    
DOCKED: USER    NEWDPF move heme_Co_opt.pdbqt
DOCKED: USER    NEWDPF about 8.781000 34.984000 -0.736000
DOCKED: USER    NEWDPF tran0 -7.428691 -1.269752 -12.926510
DOCKED: USER    NEWDPF quaternion0 -0.481881 -0.227831 -0.763999 -0.363579
DOCKED: USER    NEWDPF axisangle0 -0.517282 -0.244569 -0.820125 -137.359668
DOCKED: USER    NEWDPF quat0 -0.517282 -0.244569 -0.820125 -137.359668
DOCKED: USER    NEWDPF dihe0 -127.39 126.91 4.27 120.86 108.27 130.95 34.53 -20.80 171.19 -29.47 178.42 178.57 
DOCKED: USER  keepresnum = 1 
DOCKED: USER  
DOCKED: REMARK  12 active torsions:
DOCKED: REMARK  status: ('A' for Active; 'I' for Inactive)
DOCKED: REMARK    1  A    between atoms: C_6  and  C_10 
DOCKED: REMARK    2  A    between atoms: C_10  and  C_11 
DOCKED: REMARK    3  A    between atoms: C_11  and  C_12 
DOCKED: REMARK    4  A    between atoms: C_12  and  O_14 
DOCKED: REMARK    5  A    between atoms: C_17  and  C_20 
DOCKED: REMARK    6  A    between atoms: C_24  and  C_27 
DOCKED: REMARK    7  A    between atoms: C_31  and  C_34 
DOCKED: REMARK    8  A    between atoms: C_34  and  C_35 
DOCKED: REMARK    9  A    between atoms: C_35  and  C_36 
DOCKED: REMARK   10  A    between atoms: C_36  and  O_38 
DOCKED: REMARK   11  A    between atoms: FE_43  and  C_44 
DOCKED: REMARK   12  A    between atoms: C_44  and  O_45 
DOCKED: USER                              x       y       z     vdW  Elec       q    Type
DOCKED: USER                           _______ _______ _______ _____ _____    ______ ____
DOCKED: ROOT
DOCKED: ATOM      1  C   UNL d   1      -7.002  -1.529 -15.040 -0.05 +0.07    +0.064 A 
DOCKED: ATOM      2  C   UNL d   1      -7.274   2.338 -12.286 -0.11 +0.05    +0.064 C 
DOCKED: ATOM      3  C   UNL d   1      -8.688  -0.345  -8.594 -0.14 +0.02    +0.064 A 
DOCKED: ATOM      4  C   UNL d   1      -8.046  -4.352 -11.277 -0.21 +0.04    +0.064 A 
DOCKED: ATOM      5  C   UNL d   1      -7.008  -0.271 -14.569 -0.03 +0.06    +0.066 A 
DOCKED: ATOM      6  C   UNL d   1      -6.576   0.821 -15.347 -0.03 -0.02    -0.021 A 
DOCKED: ATOM      7  C   UNL d   1      -6.635   1.937 -14.536 -0.07 -0.02    -0.025 A 
DOCKED: ATOM      8  C   UNL d   1      -7.116   1.482 -13.303 -0.06 +0.05    +0.066 A 
DOCKED: ATOM      9  C   UNL d   1      -6.256   3.382 -14.892 +0.04 +0.07    +0.051 C 
DOCKED: ATOM     10  C   UNL d   1      -7.787   1.967 -10.991 -0.09 +0.03    +0.066 A 
DOCKED: ATOM     11  C   UNL d   1      -8.108   2.839  -9.928 -0.17 -0.01    -0.021 A 
DOCKED: ATOM     12  C   UNL d   1      -8.522   2.031  -8.866 -0.20 +0.00    +0.000 A 
DOCKED: ATOM     13  C   UNL d   1      -8.435   0.730  -9.361 -0.11 +0.02    +0.070 A 
DOCKED: ATOM     14  C   UNL d   1      -8.105   4.346  -9.979 -0.21 +0.02    +0.052 C 
DOCKED: ATOM     15  C   UNL d   1      -8.597  -1.754  -8.925 -0.13 +0.02    +0.066 A 
DOCKED: ATOM     16  C   UNL d   1      -8.732  -2.817  -8.043 -0.24 -0.01    -0.021 A 
DOCKED: ATOM     17  C   UNL d   1      -8.545  -3.975  -8.812 -0.29 +0.00    +0.000 A 
DOCKED: ATOM     18  C   UNL d   1      -8.327  -3.525 -10.110 -0.17 +0.03    +0.070 A 
DOCKED: ATOM     19  C   UNL d   1      -9.020  -2.698  -6.563 -0.38 +0.01    +0.052 C 
DOCKED: ATOM     20  C   UNL d   1      -7.746  -3.934 -12.530 -0.14 +0.05    +0.066 A 
DOCKED: ATOM     21  C   UNL d   1      -7.458  -4.826 -13.561 -0.16 -0.02    -0.025 A 
DOCKED: ATOM     22  C   UNL d   1      -7.182  -4.041 -14.666 -0.11 -0.02    -0.021 A 
DOCKED: ATOM     23  C   UNL d   1      -7.303  -2.699 -14.247 -0.08 +0.07    +0.066 A 
DOCKED: ATOM     24  C   UNL d   1      -7.429  -6.350 -13.494 -0.28 +0.03    +0.051 C 
DOCKED: ATOM     25  N   UNL d   1      -7.361   0.119 -13.297 -0.01 -0.19    -0.248 N 
DOCKED: ATOM     26  N   UNL d   1      -8.044   0.696 -10.663 -0.03 -0.11    -0.248 N 
DOCKED: ATOM     27  N   UNL d   1      -8.335  -2.197 -10.134 -0.06 -0.11    -0.248 N 
DOCKED: ATOM     28  N   UNL d   1      -7.642  -2.630 -12.954 -0.05 -0.20    -0.248 N 
DOCKED: ATOM     29 FE   UNL d   1      -7.877  -1.110 -11.624 -0.02 +0.00    +0.000 Fe
DOCKED: ENDROOT
DOCKED: BRANCH   6  30
DOCKED: ATOM     30  C   UNL d   1      -6.054   0.767 -16.779 -0.01 +0.04    +0.052 C 
DOCKED: BRANCH  30  31
DOCKED: ATOM     31  C   UNL d   1      -4.525   0.752 -16.793 -0.03 +0.12    +0.115 C 
DOCKED: BRANCH  31  32
DOCKED: ATOM     32  C   UNL d   1      -3.932   1.052 -15.434 -0.09 +0.20    +0.139 C 
DOCKED: ATOM     33  O   UNL d   1      -3.603   2.197 -15.162 -0.51 -1.33    -0.650 OA
DOCKED: BRANCH  32  34
DOCKED: ATOM     34  O   UNL d   1      -3.797   0.099 -14.483 -0.01 -1.53    -0.776 OA
DOCKED: ATOM     35  H   UNL d   1      -4.076   0.205 -13.563 +0.03 +0.30    +0.167 HD
DOCKED: ENDBRANCH  32  34
DOCKED: ENDBRANCH  31  32
DOCKED: ENDBRANCH  30  31
DOCKED: ENDBRANCH   6  30
DOCKED: BRANCH  29  36
DOCKED: ATOM     36  C   UNL d   1      -5.830  -1.159 -11.172 -0.13 +0.18    +0.190 C 
DOCKED: BRANCH  36  37
DOCKED: ATOM     37  O   UNL d   1      -4.560  -1.018 -11.740 -0.42 -0.65    -0.399 OA
DOCKED: ATOM     38  H   UNL d   1      -4.724  -0.607 -12.635 +0.05 +0.39    +0.209 HD
DOCKED: ENDBRANCH  36  37
DOCKED: ENDBRANCH  29  36
DOCKED: BRANCH  22  39
DOCKED: ATOM     39  C   UNL d   1      -6.761  -4.557 -16.029 -0.11 +0.05    +0.052 C 
DOCKED: BRANCH  39  40
DOCKED: ATOM     40  C   UNL d   1      -5.263  -4.907 -16.038 -0.12 +0.15    +0.115 C 
DOCKED: BRANCH  40  41
DOCKED: ATOM     41  C   UNL d   1      -4.906  -6.103 -16.896 -0.18 +0.20    +0.139 C 
DOCKED: ATOM     42  O   UNL d   1      -4.165  -5.950 -17.856 -0.05 -1.00    -0.650 OA
DOCKED: BRANCH  41  43
DOCKED: ATOM     43  O   UNL d   1      -5.314  -7.352 -16.579 -0.27 -1.65    -0.776 OA
DOCKED: ATOM     44  H   UNL d   1      -5.967  -7.525 -15.889 +0.05 +0.21    +0.167 HD
DOCKED: ENDBRANCH  41  43
DOCKED: ENDBRANCH  40  41
DOCKED: ENDBRANCH  39  40
DOCKED: ENDBRANCH  22  39
DOCKED: BRANCH  12  45
DOCKED: ATOM     45  C   UNL d   1      -9.005   2.337  -7.455 -0.21 +0.00    +0.004 C 
DOCKED: ATOM     46  C   UNL d   1     -10.201   2.178  -6.895 -0.26 +0.00    +0.012 C 
DOCKED: ENDBRANCH  12  45
DOCKED: BRANCH  17  47
DOCKED: ATOM     47  C   UNL d   1      -8.515  -5.406  -8.388 -0.32 +0.00    +0.004 C 
DOCKED: ATOM     48  C   UNL d   1      -9.608  -6.167  -8.281 -0.52 +0.00    +0.012 C 
DOCKED: ENDBRANCH  17  47
DOCKED: TORSDOF 12
DOCKED: TER
DOCKED: ENDMDL
________________________________________________________________________________


	BEGINNING GENETIC ALGORITHM DOCKING 89 of 100
Run: 89 Seed: 1081788208 1463669279 [ Run 89 of 100 GA/GALS ]
Beginning LAMARCKIAN GENETIC ALGORITHM (LGA), with a maximum of 25000000 energy evaluations.

Final-Value: -11.434


	FINAL GENETIC ALGORITHM DOCKED STATE
	_______________________________________________


Detailed state:  trans -4.498 -10.424 12.830 quatxyzw 0.499956 0.077522 0.862458 -0.014186 center 8.781 34.984 -0.736 ntor 12 179.9423 109.2171 38.0910 104.4949 139.0586 132.3111 36.4304 85.3883 150.0921 -23.0672 -147.7761 -156.8995
State:	 -4.498 -10.424  12.830   0.500  0.078  0.863 -178.374    179.94  109.22   38.09  104.49  139.06  132.31   36.43   85.39  150.09  -23.07 -147.78 -156.90

DOCKED: MODEL       89
DOCKED: USER    Run = 89
DOCKED: USER    DPF = D:/Protein_go_brrr/autodock/final/AncB/heme_Co/dock.dpf
DOCKED: USER  
DOCKED: USER    Estimated Free Energy of Binding    =   -5.72 kcal/mol  [=(1)+(2)+(3)-(4)]
DOCKED: USER    Estimated Inhibition Constant, Ki   =   64.16 uM (micromolar)  [Temperature = 298.15 K]
DOCKED: USER    
DOCKED: USER    (1) Final Intermolecular Energy     =   -9.30 kcal/mol
DOCKED: USER        vdW + Hbond + desolv Energy     =   -7.08 kcal/mol
DOCKED: USER        Electrostatic Energy            =   -2.22 kcal/mol
DOCKED: USER    (2) Final Total Internal Energy     =   -2.13 kcal/mol
DOCKED: USER    (3) Torsional Free Energy           =   +3.58 kcal/mol
DOCKED: USER    (4) Unbound System's Energy  [=(2)] =   -2.13 kcal/mol
DOCKED: USER    
DOCKED: USER    
DOCKED: USER    NEWDPF move heme_Co_opt.pdbqt
DOCKED: USER    NEWDPF about 8.781000 34.984000 -0.736000
DOCKED: USER    NEWDPF tran0 -4.497762 -10.423698 12.830260
DOCKED: USER    NEWDPF quaternion0 0.499956 0.077522 0.862458 -0.014186
DOCKED: USER    NEWDPF axisangle0 0.500006 0.077529 0.862545 -178.374361
DOCKED: USER    NEWDPF quat0 0.500006 0.077529 0.862545 -178.374361
DOCKED: USER    NEWDPF dihe0 179.94 109.22 38.09 104.49 139.06 132.31 36.43 85.39 150.09 -23.07 -147.78 -156.90 
DOCKED: USER  keepresnum = 1 
DOCKED: USER  
DOCKED: REMARK  12 active torsions:
DOCKED: REMARK  status: ('A' for Active; 'I' for Inactive)
DOCKED: REMARK    1  A    between atoms: C_6  and  C_10 
DOCKED: REMARK    2  A    between atoms: C_10  and  C_11 
DOCKED: REMARK    3  A    between atoms: C_11  and  C_12 
DOCKED: REMARK    4  A    between atoms: C_12  and  O_14 
DOCKED: REMARK    5  A    between atoms: C_17  and  C_20 
DOCKED: REMARK    6  A    between atoms: C_24  and  C_27 
DOCKED: REMARK    7  A    between atoms: C_31  and  C_34 
DOCKED: REMARK    8  A    between atoms: C_34  and  C_35 
DOCKED: REMARK    9  A    between atoms: C_35  and  C_36 
DOCKED: REMARK   10  A    between atoms: C_36  and  O_38 
DOCKED: REMARK   11  A    between atoms: FE_43  and  C_44 
DOCKED: REMARK   12  A    between atoms: C_44  and  O_45 
DOCKED: USER                              x       y       z     vdW  Elec       q    Type
DOCKED: USER                           _______ _______ _______ _____ _____    ______ ____
DOCKED: ROOT
DOCKED: ATOM      1  C   UNL d   1      -4.239 -11.215  10.825 -0.21 +0.02    +0.064 A 
DOCKED: ATOM      2  C   UNL d   1      -1.780  -8.014  13.337 -0.21 +0.01    +0.064 C 
DOCKED: ATOM      3  C   UNL d   1      -4.995  -8.257  16.864 -0.14 +0.01    +0.064 A 
DOCKED: ATOM      4  C   UNL d   1      -7.315 -11.810  14.487 -0.24 +0.04    +0.064 A 
DOCKED: ATOM      5  C   UNL d   1      -3.351 -10.296  11.236 -0.22 +0.02    +0.066 A 
DOCKED: ATOM      6  C   UNL d   1      -2.195  -9.988  10.493 -0.25 -0.00    -0.021 A 
DOCKED: ATOM      7  C   UNL d   1      -1.474  -9.075  11.237 -0.25 -0.00    -0.025 A 
DOCKED: ATOM      8  C   UNL d   1      -2.227  -8.853  12.395 -0.15 +0.02    +0.066 A 
DOCKED: ATOM      9  C   UNL d   1      -0.125  -8.429  10.886 -0.11 +0.01    +0.051 C 
DOCKED: ATOM     10  C   UNL d   1      -2.499  -7.703  14.548 -0.18 +0.01    +0.066 A 
DOCKED: ATOM     11  C   UNL d   1      -2.152  -6.727  15.508 -0.20 -0.00    -0.021 A 
DOCKED: ATOM     12  C   UNL d   1      -3.108  -6.817  16.523 -0.16 -0.00    +0.000 A 
DOCKED: ATOM     13  C   UNL d   1      -3.972  -7.829  16.103 -0.16 +0.01    +0.070 A 
DOCKED: ATOM     14  C   UNL d   1      -1.034  -5.723  15.396 -0.26 -0.00    +0.052 C 
DOCKED: ATOM     15  C   UNL d   1      -5.948  -9.319  16.610 -0.11 +0.03    +0.066 A 
DOCKED: ATOM     16  C   UNL d   1      -6.892  -9.808  17.502 -0.11 -0.01    -0.021 A 
DOCKED: ATOM     17  C   UNL d   1      -7.562 -10.835  16.822 -0.13 +0.00    +0.000 A 
DOCKED: ATOM     18  C   UNL d   1      -6.983 -10.880  15.558 -0.15 +0.04    +0.070 A 
DOCKED: ATOM     19  C   UNL d   1      -7.112  -9.303  18.911 -0.06 +0.00    +0.052 C 
DOCKED: ATOM     20  C   UNL d   1      -6.708 -11.930  13.281 -0.27 +0.04    +0.066 A 
DOCKED: ATOM     21  C   UNL d   1      -7.094 -12.889  12.347 -0.31 -0.01    -0.025 A 
DOCKED: ATOM     22  C   UNL d   1      -6.243 -12.722  11.269 -0.24 -0.01    -0.021 A 
DOCKED: ATOM     23  C   UNL d   1      -5.367 -11.669  11.607 -0.22 +0.03    +0.066 A 
DOCKED: ATOM     24  C   UNL d   1      -8.205 -13.926  12.481 -0.28 +0.02    +0.051 C 
DOCKED: ATOM     25  N   UNL d   1      -3.398  -9.592  12.418 -0.11 -0.09    -0.248 N 
DOCKED: ATOM     26  N   UNL d   1      -3.634  -8.324  14.882 -0.07 -0.07    -0.248 N 
DOCKED: ATOM     27  N   UNL d   1      -6.006  -9.984  15.478 -0.03 -0.20    -0.248 N 
DOCKED: ATOM     28  N   UNL d   1      -5.643 -11.189  12.825 -0.14 -0.15    -0.248 N 
DOCKED: ATOM     29 FE   UNL d   1      -4.781  -9.802  14.037 -0.05 +0.00    +0.000 Fe
DOCKED: ENDROOT
DOCKED: BRANCH   6  30
DOCKED: ATOM     30  C   UNL d   1      -1.774 -10.611   9.166 -0.25 +0.01    +0.052 C 
DOCKED: BRANCH  30  31
DOCKED: ATOM     31  C   UNL d   1      -1.501 -12.106   9.338 -0.09 +0.03    +0.115 C 
DOCKED: BRANCH  31  32
DOCKED: ATOM     32  C   UNL d   1      -0.963 -12.440  10.712 -0.03 +0.03    +0.139 C 
DOCKED: ATOM     33  O   UNL d   1       0.245 -12.489  10.889 +0.01 -0.10    -0.650 OA
DOCKED: BRANCH  32  34
DOCKED: ATOM     34  O   UNL d   1      -1.780 -12.642  11.773 +0.04 -0.16    -0.776 OA
DOCKED: ATOM     35  H   UNL d   1      -1.475 -12.914  12.649 +0.01 +0.03    +0.167 HD
DOCKED: ENDBRANCH  32  34
DOCKED: ENDBRANCH  31  32
DOCKED: ENDBRANCH  30  31
DOCKED: ENDBRANCH   6  30
DOCKED: BRANCH  29  36
DOCKED: ATOM     36  C   UNL d   1      -3.481 -11.252  14.812 -0.04 +0.05    +0.190 C 
DOCKED: BRANCH  36  37
DOCKED: ATOM     37  O   UNL d   1      -2.468 -12.146  14.452 +0.00 -0.07    -0.399 OA
DOCKED: ATOM     38  H   UNL d   1      -2.396 -12.067  13.460 +0.02 +0.04    +0.209 HD
DOCKED: ENDBRANCH  36  37
DOCKED: ENDBRANCH  29  36
DOCKED: BRANCH  22  39
DOCKED: ATOM     39  C   UNL d   1      -6.237 -13.574  10.014 -0.23 +0.03    +0.052 C 
DOCKED: BRANCH  39  40
DOCKED: ATOM     40  C   UNL d   1      -6.070 -15.061  10.368 -0.15 +0.08    +0.115 C 
DOCKED: BRANCH  40  41
DOCKED: ATOM     41  C   UNL d   1      -6.703 -16.014   9.376 -0.14 +0.18    +0.139 C 
DOCKED: ATOM     42  O   UNL d   1      -7.341 -16.971   9.791 -0.19 -1.01    -0.650 OA
DOCKED: BRANCH  41  43
DOCKED: ATOM     43  O   UNL d   1      -6.656 -15.789   8.045 -0.46 -1.32    -0.776 OA
DOCKED: ATOM     44  H   UNL d   1      -5.850 -15.504   7.594 +0.04 +0.22    +0.167 HD
DOCKED: ENDBRANCH  41  43
DOCKED: ENDBRANCH  40  41
DOCKED: ENDBRANCH  39  40
DOCKED: ENDBRANCH  22  39
DOCKED: BRANCH  12  45
DOCKED: ATOM     45  C   UNL d   1      -3.315  -6.055  17.825 -0.13 -0.00    +0.004 C 
DOCKED: ATOM     46  C   UNL d   1      -4.092  -5.012  18.104 -0.18 -0.00    +0.012 C 
DOCKED: ENDBRANCH  12  45
DOCKED: BRANCH  17  47
DOCKED: ATOM     47  C   UNL d   1      -8.632 -11.759  17.304 -0.10 +0.00    +0.004 C 
DOCKED: ATOM     48  C   UNL d   1      -9.861 -11.798  16.785 -0.19 +0.00    +0.012 C 
DOCKED: ENDBRANCH  17  47
DOCKED: TORSDOF 12
DOCKED: TER
DOCKED: ENDMDL
________________________________________________________________________________


	BEGINNING GENETIC ALGORITHM DOCKING 90 of 100
Run: 90 Seed: 176518284 370462324 [ Run 90 of 100 GA/GALS ]
Beginning LAMARCKIAN GENETIC ALGORITHM (LGA), with a maximum of 25000000 energy evaluations.

Final-Value: -10.576


	FINAL GENETIC ALGORITHM DOCKED STATE
	_______________________________________________


Detailed state:  trans 16.363 -1.110 -11.320 quatxyzw 0.098291 -0.604926 0.513679 0.600448 center 8.781 34.984 -0.736 ntor 12 124.7098 84.8101 -105.7808 -99.9282 142.0963 153.2860 -164.9222 3.9542 -53.9293 -28.4040 -180.0000 49.0120
State:	 16.363  -1.110 -11.320   0.123 -0.756  0.642 106.196    124.71   84.81 -105.78  -99.93  142.10  153.29 -164.92    3.95  -53.93  -28.40 -180.00   49.01

DOCKED: MODEL       90
DOCKED: USER    Run = 90
DOCKED: USER    DPF = D:/Protein_go_brrr/autodock/final/AncB/heme_Co/dock.dpf
DOCKED: USER  
DOCKED: USER    Estimated Free Energy of Binding    =   -4.93 kcal/mol  [=(1)+(2)+(3)-(4)]
DOCKED: USER    Estimated Inhibition Constant, Ki   =  245.24 uM (micromolar)  [Temperature = 298.15 K]
DOCKED: USER    
DOCKED: USER    (1) Final Intermolecular Energy     =   -8.51 kcal/mol
DOCKED: USER        vdW + Hbond + desolv Energy     =   -6.39 kcal/mol
DOCKED: USER        Electrostatic Energy            =   -2.11 kcal/mol
DOCKED: USER    (2) Final Total Internal Energy     =   -2.07 kcal/mol
DOCKED: USER    (3) Torsional Free Energy           =   +3.58 kcal/mol
DOCKED: USER    (4) Unbound System's Energy  [=(2)] =   -2.07 kcal/mol
DOCKED: USER    
DOCKED: USER    
DOCKED: USER    NEWDPF move heme_Co_opt.pdbqt
DOCKED: USER    NEWDPF about 8.781000 34.984000 -0.736000
DOCKED: USER    NEWDPF tran0 16.363224 -1.109583 -11.319880
DOCKED: USER    NEWDPF quaternion0 0.098291 -0.604926 0.513679 0.600448
DOCKED: USER    NEWDPF axisangle0 0.122915 -0.756475 0.642369 106.196048
DOCKED: USER    NEWDPF quat0 0.122915 -0.756475 0.642369 106.196048
DOCKED: USER    NEWDPF dihe0 124.71 84.81 -105.78 -99.93 142.10 153.29 -164.92 3.95 -53.93 -28.40 -180.00 49.01 
DOCKED: USER  keepresnum = 1 
DOCKED: USER  
DOCKED: REMARK  12 active torsions:
DOCKED: REMARK  status: ('A' for Active; 'I' for Inactive)
DOCKED: REMARK    1  A    between atoms: C_6  and  C_10 
DOCKED: REMARK    2  A    between atoms: C_10  and  C_11 
DOCKED: REMARK    3  A    between atoms: C_11  and  C_12 
DOCKED: REMARK    4  A    between atoms: C_12  and  O_14 
DOCKED: REMARK    5  A    between atoms: C_17  and  C_20 
DOCKED: REMARK    6  A    between atoms: C_24  and  C_27 
DOCKED: REMARK    7  A    between atoms: C_31  and  C_34 
DOCKED: REMARK    8  A    between atoms: C_34  and  C_35 
DOCKED: REMARK    9  A    between atoms: C_35  and  C_36 
DOCKED: REMARK   10  A    between atoms: C_36  and  O_38 
DOCKED: REMARK   11  A    between atoms: FE_43  and  C_44 
DOCKED: REMARK   12  A    between atoms: C_44  and  O_45 
DOCKED: USER                              x       y       z     vdW  Elec       q    Type
DOCKED: USER                           _______ _______ _______ _____ _____    ______ ____
DOCKED: ROOT
DOCKED: ATOM      1  C   UNL d   1      16.411   0.968 -10.690 -0.27 +0.03    +0.064 A 
DOCKED: ATOM      2  C   UNL d   1      17.850  -3.043  -8.581 -0.19 +0.02    +0.064 C 
DOCKED: ATOM      3  C   UNL d   1      16.047  -5.624 -12.175 -0.12 +0.03    +0.064 A 
DOCKED: ATOM      4  C   UNL d   1      14.911  -1.523 -14.533 -0.16 +0.02    +0.064 A 
DOCKED: ATOM      5  C   UNL d   1      16.904   0.060  -9.833 -0.28 +0.02    +0.066 A 
DOCKED: ATOM      6  C   UNL d   1      17.593   0.434  -8.662 -0.28 -0.01    -0.021 A 
DOCKED: ATOM      7  C   UNL d   1      18.028  -0.734  -8.066 -0.24 -0.01    -0.025 A 
DOCKED: ATOM      8  C   UNL d   1      17.573  -1.770  -8.888 -0.22 +0.02    +0.066 A 
DOCKED: ATOM      9  C   UNL d   1      18.843  -0.884  -6.772 -0.29 +0.02    +0.051 C 
DOCKED: ATOM     10  C   UNL d   1      17.401  -4.176  -9.352 -0.16 +0.03    +0.066 A 
DOCKED: ATOM     11  C   UNL d   1      17.538  -5.538  -9.009 -0.13 -0.01    -0.021 A 
DOCKED: ATOM     12  C   UNL d   1      17.001  -6.268 -10.072 -0.13 +0.00    +0.000 A 
DOCKED: ATOM     13  C   UNL d   1      16.565  -5.300 -10.977 -0.13 +0.04    +0.070 A 
DOCKED: ATOM     14  C   UNL d   1      18.063  -6.081  -7.704 -0.10 +0.02    +0.052 C 
DOCKED: ATOM     15  C   UNL d   1      15.597  -4.758 -13.247 -0.12 +0.03    +0.066 A 
DOCKED: ATOM     16  C   UNL d   1      15.206  -5.156 -14.518 -0.08 -0.01    -0.021 A 
DOCKED: ATOM     17  C   UNL d   1      14.880  -3.977 -15.202 -0.10 +0.00    +0.000 A 
DOCKED: ATOM     18  C   UNL d   1      15.082  -2.950 -14.286 -0.10 +0.02    +0.070 A 
DOCKED: ATOM     19  C   UNL d   1      15.161  -6.584 -15.015 -0.04 +0.01    +0.052 C 
DOCKED: ATOM     20  C   UNL d   1      15.183  -0.502 -13.686 -0.17 +0.02    +0.066 A 
DOCKED: ATOM     21  C   UNL d   1      15.012   0.832 -14.050 -0.21 -0.01    -0.025 A 
DOCKED: ATOM     22  C   UNL d   1      15.409   1.572 -12.951 -0.22 -0.01    -0.021 A 
DOCKED: ATOM     23  C   UNL d   1      15.817   0.647 -11.968 -0.23 +0.02    +0.066 A 
DOCKED: ATOM     24  C   UNL d   1      14.513   1.376 -15.386 -0.14 +0.02    +0.051 C 
DOCKED: ATOM     25  N   UNL d   1      16.868  -1.308  -9.987 -0.17 -0.08    -0.248 N 
DOCKED: ATOM     26  N   UNL d   1      16.757  -4.036 -10.516 -0.12 -0.11    -0.248 N 
DOCKED: ATOM     27  N   UNL d   1      15.537  -3.449 -13.143 -0.06 -0.09    -0.248 N 
DOCKED: ATOM     28  N   UNL d   1      15.685  -0.610 -12.409 -0.14 -0.08    -0.248 N 
DOCKED: ATOM     29 FE   UNL d   1      16.162  -2.439 -11.660 -0.05 +0.00    +0.000 Fe
DOCKED: ENDROOT
DOCKED: BRANCH   6  30
DOCKED: ATOM     30  C   UNL d   1      17.884   1.855  -8.193 -0.18 +0.04    +0.052 C 
DOCKED: BRANCH  30  31
DOCKED: ATOM     31  C   UNL d   1      19.282   2.290  -8.633 -0.13 +0.07    +0.115 C 
DOCKED: BRANCH  31  32
DOCKED: ATOM     32  C   UNL d   1      19.260   3.569  -9.443 -0.10 +0.11    +0.139 C 
DOCKED: ATOM     33  O   UNL d   1      18.908   4.611  -8.911 -0.42 -0.89    -0.650 OA
DOCKED: BRANCH  32  34
DOCKED: ATOM     34  O   UNL d   1      19.666   3.608 -10.733 +0.05 -0.38    -0.776 OA
DOCKED: ATOM     35  H   UNL d   1      19.105   3.880 -11.472 +0.03 +0.08    +0.167 HD
DOCKED: ENDBRANCH  32  34
DOCKED: ENDBRANCH  31  32
DOCKED: ENDBRANCH  30  31
DOCKED: ENDBRANCH   6  30
DOCKED: BRANCH  29  36
DOCKED: ATOM     36  C   UNL d   1      18.100  -2.280 -12.442 -0.03 +0.05    +0.190 C 
DOCKED: BRANCH  36  37
DOCKED: ATOM     37  O   UNL d   1      19.362  -1.732 -12.190 +0.00 -0.09    -0.399 OA
DOCKED: ATOM     38  H   UNL d   1      19.184  -0.919 -11.640 +0.02 +0.05    +0.209 HD
DOCKED: ENDBRANCH  36  37
DOCKED: ENDBRANCH  29  36
DOCKED: BRANCH  22  39
DOCKED: ATOM     39  C   UNL d   1      15.452   3.087 -12.881 -0.21 +0.02    +0.052 C 
DOCKED: BRANCH  39  40
DOCKED: ATOM     40  C   UNL d   1      15.218   3.571 -11.440 -0.20 +0.08    +0.115 C 
DOCKED: BRANCH  40  41
DOCKED: ATOM     41  C   UNL d   1      15.983   4.824 -11.070 -0.29 +0.13    +0.139 C 
DOCKED: ATOM     42  O   UNL d   1      15.449   5.662 -10.356 -0.05 -0.90    -0.650 OA
DOCKED: BRANCH  41  43
DOCKED: ATOM     43  O   UNL d   1      17.272   5.003 -11.434 +0.04 -0.59    -0.776 OA
DOCKED: ATOM     44  H   UNL d   1      18.009   4.841 -10.831 +0.05 +0.15    +0.167 HD
DOCKED: ENDBRANCH  41  43
DOCKED: ENDBRANCH  40  41
DOCKED: ENDBRANCH  39  40
DOCKED: ENDBRANCH  22  39
DOCKED: BRANCH  12  45
DOCKED: ATOM     45  C   UNL d   1      16.832  -7.760 -10.327 -0.09 +0.00    +0.004 C 
DOCKED: ATOM     46  C   UNL d   1      17.463  -8.571 -11.173 -0.04 +0.00    +0.012 C 
DOCKED: ENDBRANCH  12  45
DOCKED: BRANCH  17  47
DOCKED: ATOM     47  C   UNL d   1      14.458  -3.783 -16.622 -0.06 +0.00    +0.004 C 
DOCKED: ATOM     48  C   UNL d   1      13.295  -3.231 -16.976 -0.11 +0.00    +0.012 C 
DOCKED: ENDBRANCH  17  47
DOCKED: TORSDOF 12
DOCKED: TER
DOCKED: ENDMDL
________________________________________________________________________________


	BEGINNING GENETIC ALGORITHM DOCKING 91 of 100
Run: 91 Seed: 455563184 726432140 [ Run 91 of 100 GA/GALS ]
Beginning LAMARCKIAN GENETIC ALGORITHM (LGA), with a maximum of 25000000 energy evaluations.

Final-Value: -12.220


	FINAL GENETIC ALGORITHM DOCKED STATE
	_______________________________________________


Detailed state:  trans -6.910 -16.755 9.497 quatxyzw 0.636508 0.366458 0.661431 -0.151906 center 8.781 34.984 -0.736 ntor 12 -29.7777 100.4546 13.0177 -66.5929 -101.2822 164.7387 -151.6645 -175.7765 -126.4219 134.4410 -23.9328 42.7352
State:	 -6.910 -16.755   9.497   0.644  0.371  0.669 -162.525    -29.78  100.45   13.02  -66.59 -101.28  164.74 -151.66 -175.78 -126.42  134.44  -23.93   42.74

DOCKED: MODEL       91
DOCKED: USER    Run = 91
DOCKED: USER    DPF = D:/Protein_go_brrr/autodock/final/AncB/heme_Co/dock.dpf
DOCKED: USER  
DOCKED: USER    Estimated Free Energy of Binding    =   -6.76 kcal/mol  [=(1)+(2)+(3)-(4)]
DOCKED: USER    Estimated Inhibition Constant, Ki   =   11.14 uM (micromolar)  [Temperature = 298.15 K]
DOCKED: USER    
DOCKED: USER    (1) Final Intermolecular Energy     =  -10.34 kcal/mol
DOCKED: USER        vdW + Hbond + desolv Energy     =   -5.75 kcal/mol
DOCKED: USER        Electrostatic Energy            =   -4.58 kcal/mol
DOCKED: USER    (2) Final Total Internal Energy     =   -1.88 kcal/mol
DOCKED: USER    (3) Torsional Free Energy           =   +3.58 kcal/mol
DOCKED: USER    (4) Unbound System's Energy  [=(2)] =   -1.88 kcal/mol
DOCKED: USER    
DOCKED: USER    
DOCKED: USER    NEWDPF move heme_Co_opt.pdbqt
DOCKED: USER    NEWDPF about 8.781000 34.984000 -0.736000
DOCKED: USER    NEWDPF tran0 -6.909623 -16.755233 9.497441
DOCKED: USER    NEWDPF quaternion0 0.636508 0.366458 0.661431 -0.151906
DOCKED: USER    NEWDPF axisangle0 0.643981 0.370761 0.669197 -162.525250
DOCKED: USER    NEWDPF quat0 0.643981 0.370761 0.669197 -162.525250
DOCKED: USER    NEWDPF dihe0 -29.78 100.45 13.02 -66.59 -101.28 164.74 -151.66 -175.78 -126.42 134.44 -23.93 42.74 
DOCKED: USER  keepresnum = 1 
DOCKED: USER  
DOCKED: REMARK  12 active torsions:
DOCKED: REMARK  status: ('A' for Active; 'I' for Inactive)
DOCKED: REMARK    1  A    between atoms: C_6  and  C_10 
DOCKED: REMARK    2  A    between atoms: C_10  and  C_11 
DOCKED: REMARK    3  A    between atoms: C_11  and  C_12 
DOCKED: REMARK    4  A    between atoms: C_12  and  O_14 
DOCKED: REMARK    5  A    between atoms: C_17  and  C_20 
DOCKED: REMARK    6  A    between atoms: C_24  and  C_27 
DOCKED: REMARK    7  A    between atoms: C_31  and  C_34 
DOCKED: REMARK    8  A    between atoms: C_34  and  C_35 
DOCKED: REMARK    9  A    between atoms: C_35  and  C_36 
DOCKED: REMARK   10  A    between atoms: C_36  and  O_38 
DOCKED: REMARK   11  A    between atoms: FE_43  and  C_44 
DOCKED: REMARK   12  A    between atoms: C_44  and  O_45 
DOCKED: USER                              x       y       z     vdW  Elec       q    Type
DOCKED: USER                           _______ _______ _______ _____ _____    ______ ____
DOCKED: ROOT
DOCKED: ATOM      1  C   UNL d   1      -7.310 -18.636   8.489 -0.05 +0.09    +0.064 A 
DOCKED: ATOM      2  C   UNL d   1      -4.636 -14.885   7.310 -0.12 +0.05    +0.064 C 
DOCKED: ATOM      3  C   UNL d   1      -6.178 -12.526  11.169 -0.22 +0.03    +0.064 A 
DOCKED: ATOM      4  C   UNL d   1      -8.616 -16.485  12.599 -0.18 +0.03    +0.064 A 
DOCKED: ATOM      5  C   UNL d   1      -6.494 -17.771   7.864 -0.08 +0.10    +0.066 A 
DOCKED: ATOM      6  C   UNL d   1      -5.776 -18.125   6.705 -0.06 -0.03    -0.021 A 
DOCKED: ATOM      7  C   UNL d   1      -4.985 -17.040   6.381 -0.06 -0.03    -0.025 A 
DOCKED: ATOM      8  C   UNL d   1      -5.265 -16.066   7.345 -0.09 +0.08    +0.066 A 
DOCKED: ATOM      9  C   UNL d   1      -3.996 -16.911   5.211 -0.08 +0.05    +0.051 C 
DOCKED: ATOM     10  C   UNL d   1      -4.879 -13.813   8.244 -0.14 +0.04    +0.066 A 
DOCKED: ATOM     11  C   UNL d   1      -4.357 -12.503   8.179 -0.21 -0.01    -0.021 A 
DOCKED: ATOM     12  C   UNL d   1      -4.825 -11.836   9.314 -0.25 +0.00    +0.000 A 
DOCKED: ATOM     13  C   UNL d   1      -5.607 -12.781   9.979 -0.21 +0.04    +0.070 A 
DOCKED: ATOM     14  C   UNL d   1      -3.545 -11.921   7.050 -0.33 +0.02    +0.052 C 
DOCKED: ATOM     15  C   UNL d   1      -6.969 -13.398  12.015 -0.26 +0.03    +0.066 A 
DOCKED: ATOM     16  C   UNL d   1      -7.408 -13.119  13.302 -0.28 -0.01    -0.021 A 
DOCKED: ATOM     17  C   UNL d   1      -8.110 -14.259  13.719 -0.23 +0.00    +0.000 A 
DOCKED: ATOM     18  C   UNL d   1      -8.058 -15.140  12.644 -0.20 +0.03    +0.070 A 
DOCKED: ATOM     19  C   UNL d   1      -7.154 -11.834  14.056 -0.30 +0.03    +0.052 C 
DOCKED: ATOM     20  C   UNL d   1      -8.504 -17.391  11.598 -0.13 +0.06    +0.066 A 
DOCKED: ATOM     21  C   UNL d   1      -9.055 -18.668  11.686 -0.11 -0.02    -0.025 A 
DOCKED: ATOM     22  C   UNL d   1      -8.719 -19.301  10.503 -0.08 -0.02    -0.021 A 
DOCKED: ATOM     23  C   UNL d   1      -7.963 -18.376   9.751 +0.13 +0.10    +0.066 A 
DOCKED: ATOM     24  C   UNL d   1      -9.845 -19.264  12.847 -0.06 +0.02    +0.051 C 
DOCKED: ATOM     25  N   UNL d   1      -6.201 -16.490   8.273 -0.09 -0.35    -0.248 N 
DOCKED: ATOM     26  N   UNL d   1      -5.684 -13.958   9.302 -0.13 -0.17    -0.248 N 
DOCKED: ATOM     27  N   UNL d   1      -7.345 -14.606  11.658 -0.14 -0.13    -0.248 N 
DOCKED: ATOM     28  N   UNL d   1      -7.829 -17.220  10.412 -0.08 -0.35    -0.248 N 
DOCKED: ATOM     29 FE   UNL d   1      -6.809 -15.495  10.067 -0.04 +0.00    +0.000 Fe
DOCKED: ENDROOT
DOCKED: BRANCH   6  30
DOCKED: ATOM     30  C   UNL d   1      -5.797 -19.476   5.999 -0.02 +0.05    +0.052 C 
DOCKED: BRANCH  30  31
DOCKED: ATOM     31  C   UNL d   1      -7.210 -19.814   5.526 -0.03 +0.13    +0.115 C 
DOCKED: BRANCH  31  32
DOCKED: ATOM     32  C   UNL d   1      -7.831 -18.695   4.718 -0.03 +0.27    +0.139 C 
DOCKED: ATOM     33  O   UNL d   1      -7.513 -18.552   3.546 -0.12 -1.46    -0.650 OA
DOCKED: BRANCH  32  34
DOCKED: ATOM     34  O   UNL d   1      -8.769 -17.869   5.237 -0.11 -2.06    -0.776 OA
DOCKED: ATOM     35  H   UNL d   1      -9.433 -18.140   5.885 +0.02 +0.41    +0.167 HD
DOCKED: ENDBRANCH  32  34
DOCKED: ENDBRANCH  31  32
DOCKED: ENDBRANCH  30  31
DOCKED: ENDBRANCH   6  30
DOCKED: BRANCH  29  36
DOCKED: ATOM     36  C   UNL d   1      -5.094 -16.302  10.962 -0.02 +0.09    +0.190 C 
DOCKED: BRANCH  36  37
DOCKED: ATOM     37  O   UNL d   1      -3.906 -16.984  10.680 +0.01 -0.15    -0.399 OA
DOCKED: ATOM     38  H   UNL d   1      -4.008 -17.299   9.739 +0.01 +0.10    +0.209 HD
DOCKED: ENDBRANCH  36  37
DOCKED: ENDBRANCH  29  36
DOCKED: BRANCH  22  39
DOCKED: ATOM     39  C   UNL d   1      -9.053 -20.738  10.149 -0.02 +0.03    +0.052 C 
DOCKED: BRANCH  39  40
DOCKED: ATOM     40  C   UNL d   1      -9.365 -20.869   8.649 -0.03 +0.09    +0.115 C 
DOCKED: BRANCH  40  41
DOCKED: ATOM     41  C   UNL d   1     -10.393 -19.882   8.136 -0.01 +0.18    +0.139 C 
DOCKED: ATOM     42  O   UNL d   1     -11.345 -19.588   8.844 -0.07 -0.79    -0.650 OA
DOCKED: BRANCH  41  43
DOCKED: ATOM     43  O   UNL d   1     -10.241 -19.250   6.952 -0.51 -1.43    -0.776 OA
DOCKED: ATOM     44  H   UNL d   1      -9.648 -19.574   6.262 +0.02 +0.24    +0.167 HD
DOCKED: ENDBRANCH  41  43
DOCKED: ENDBRANCH  40  41
DOCKED: ENDBRANCH  39  40
DOCKED: ENDBRANCH  22  39
DOCKED: BRANCH  12  45
DOCKED: ATOM     45  C   UNL d   1      -4.641 -10.417   9.834 -0.17 +0.00    +0.004 C 
DOCKED: ATOM     46  C   UNL d   1      -3.596  -9.837  10.419 -0.37 +0.00    +0.012 C 
DOCKED: ENDBRANCH  12  45
DOCKED: BRANCH  17  47
DOCKED: ATOM     47  C   UNL d   1      -8.749 -14.557  15.036 -0.16 +0.00    +0.004 C 
DOCKED: ATOM     48  C   UNL d   1      -8.442 -15.622  15.780 -0.08 +0.00    +0.012 C 
DOCKED: ENDBRANCH  17  47
DOCKED: TORSDOF 12
DOCKED: TER
DOCKED: ENDMDL
________________________________________________________________________________


	BEGINNING GENETIC ALGORITHM DOCKING 92 of 100
Run: 92 Seed: 113369707 777167921 [ Run 92 of 100 GA/GALS ]
Beginning LAMARCKIAN GENETIC ALGORITHM (LGA), with a maximum of 25000000 energy evaluations.

Final-Value: -11.311


	FINAL GENETIC ALGORITHM DOCKED STATE
	_______________________________________________


Detailed state:  trans -7.053 -1.436 -12.455 quatxyzw -0.043126 0.400713 -0.840996 -0.360963 center 8.781 34.984 -0.736 ntor 12 127.5733 127.1970 35.6610 -97.8395 -84.6760 -111.9265 -180.0000 -54.2457 -71.9703 133.0517 -154.1279 -153.3526
State:	 -7.053  -1.436 -12.455  -0.046  0.430 -0.902 -137.681    127.57  127.20   35.66  -97.84  -84.68 -111.93 -180.00  -54.25  -71.97  133.05 -154.13 -153.35

DOCKED: MODEL       92
DOCKED: USER    Run = 92
DOCKED: USER    DPF = D:/Protein_go_brrr/autodock/final/AncB/heme_Co/dock.dpf
DOCKED: USER  
DOCKED: USER    Estimated Free Energy of Binding    =   -6.00 kcal/mol  [=(1)+(2)+(3)-(4)]
DOCKED: USER    Estimated Inhibition Constant, Ki   =   39.99 uM (micromolar)  [Temperature = 298.15 K]
DOCKED: USER    
DOCKED: USER    (1) Final Intermolecular Energy     =   -9.58 kcal/mol
DOCKED: USER        vdW + Hbond + desolv Energy     =   -5.69 kcal/mol
DOCKED: USER        Electrostatic Energy            =   -3.89 kcal/mol
DOCKED: USER    (2) Final Total Internal Energy     =   -1.73 kcal/mol
DOCKED: USER    (3) Torsional Free Energy           =   +3.58 kcal/mol
DOCKED: USER    (4) Unbound System's Energy  [=(2)] =   -1.73 kcal/mol
DOCKED: USER    
DOCKED: USER    
DOCKED: USER    NEWDPF move heme_Co_opt.pdbqt
DOCKED: USER    NEWDPF about 8.781000 34.984000 -0.736000
DOCKED: USER    NEWDPF tran0 -7.052510 -1.436050 -12.455474
DOCKED: USER    NEWDPF quaternion0 -0.043126 0.400713 -0.840996 -0.360963
DOCKED: USER    NEWDPF axisangle0 -0.046244 0.429682 -0.901795 -137.681333
DOCKED: USER    NEWDPF quat0 -0.046244 0.429682 -0.901795 -137.681333
DOCKED: USER    NEWDPF dihe0 127.57 127.20 35.66 -97.84 -84.68 -111.93 -180.00 -54.25 -71.97 133.05 -154.13 -153.35 
DOCKED: USER  keepresnum = 1 
DOCKED: USER  
DOCKED: REMARK  12 active torsions:
DOCKED: REMARK  status: ('A' for Active; 'I' for Inactive)
DOCKED: REMARK    1  A    between atoms: C_6  and  C_10 
DOCKED: REMARK    2  A    between atoms: C_10  and  C_11 
DOCKED: REMARK    3  A    between atoms: C_11  and  C_12 
DOCKED: REMARK    4  A    between atoms: C_12  and  O_14 
DOCKED: REMARK    5  A    between atoms: C_17  and  C_20 
DOCKED: REMARK    6  A    between atoms: C_24  and  C_27 
DOCKED: REMARK    7  A    between atoms: C_31  and  C_34 
DOCKED: REMARK    8  A    between atoms: C_34  and  C_35 
DOCKED: REMARK    9  A    between atoms: C_35  and  C_36 
DOCKED: REMARK   10  A    between atoms: C_36  and  O_38 
DOCKED: REMARK   11  A    between atoms: FE_43  and  C_44 
DOCKED: REMARK   12  A    between atoms: C_44  and  O_45 
DOCKED: USER                              x       y       z     vdW  Elec       q    Type
DOCKED: USER                           _______ _______ _______ _____ _____    ______ ____
DOCKED: ROOT
DOCKED: ATOM      1  C   UNL d   1      -5.651   0.143 -12.962 -0.11 +0.08    +0.064 A 
DOCKED: ATOM      2  C   UNL d   1      -6.749  -1.953  -8.837 -0.15 +0.03    +0.064 C 
DOCKED: ATOM      3  C   UNL d   1     -10.199  -4.463 -10.988 -0.11 +0.03    +0.064 A 
DOCKED: ATOM      4  C   UNL d   1      -8.842  -2.623 -15.282 -0.01 +0.04    +0.064 A 
DOCKED: ATOM      5  C   UNL d   1      -5.721  -0.218 -11.670 -0.13 +0.06    +0.066 A 
DOCKED: ATOM      6  C   UNL d   1      -4.807   0.258 -10.710 -0.22 -0.02    -0.021 A 
DOCKED: ATOM      7  C   UNL d   1      -5.116  -0.371  -9.520 -0.25 -0.01    -0.025 A 
DOCKED: ATOM      8  C   UNL d   1      -6.215  -1.191  -9.800 -0.16 +0.04    +0.066 A 
DOCKED: ATOM      9  C   UNL d   1      -4.414  -0.217  -8.162 -0.41 +0.02    +0.051 C 
DOCKED: ATOM     10  C   UNL d   1      -7.895  -2.807  -9.026 -0.18 +0.03    +0.066 A 
DOCKED: ATOM     11  C   UNL d   1      -8.587  -3.523  -8.025 -0.29 -0.01    -0.021 A 
DOCKED: ATOM     12  C   UNL d   1      -9.591  -4.243  -8.680 -0.24 +0.00    +0.000 A 
DOCKED: ATOM     13  C   UNL d   1      -9.445  -3.904 -10.025 -0.13 +0.03    +0.070 A 
DOCKED: ATOM     14  C   UNL d   1      -8.351  -3.434  -6.539 -0.45 +0.01    +0.052 C 
DOCKED: ATOM     15  C   UNL d   1     -10.148  -4.270 -12.424 -0.07 +0.04    +0.066 A 
DOCKED: ATOM     16  C   UNL d   1     -10.858  -4.987 -13.377 -0.09 -0.01    -0.021 A 
DOCKED: ATOM     17  C   UNL d   1     -10.468  -4.462 -14.617 -0.03 +0.00    +0.000 A 
DOCKED: ATOM     18  C   UNL d   1      -9.560  -3.450 -14.321 -0.01 +0.04    +0.070 A 
DOCKED: ATOM     19  C   UNL d   1     -11.839  -6.101 -13.085 +0.03 +0.06    +0.052 C 
DOCKED: ATOM     20  C   UNL d   1      -7.892  -1.694 -15.022 -0.02 +0.05    +0.066 A 
DOCKED: ATOM     21  C   UNL d   1      -7.246  -0.987 -16.034 -0.02 -0.02    -0.025 A 
DOCKED: ATOM     22  C   UNL d   1      -6.341  -0.161 -15.394 -0.04 -0.02    -0.021 A 
DOCKED: ATOM     23  C   UNL d   1      -6.472  -0.415 -14.012 -0.06 +0.07    +0.066 A 
DOCKED: ATOM     24  C   UNL d   1      -7.466  -1.107 -17.540 +0.00 +0.03    +0.051 C 
DOCKED: ATOM     25  N   UNL d   1      -6.615  -1.112 -11.124 -0.06 -0.18    -0.248 N 
DOCKED: ATOM     26  N   UNL d   1      -8.455  -2.993 -10.226 -0.07 -0.11    -0.248 N 
DOCKED: ATOM     27  N   UNL d   1      -9.371  -3.385 -13.008 -0.01 -0.14    -0.248 N 
DOCKED: ATOM     28  N   UNL d   1      -7.408  -1.344 -13.783 -0.03 -0.22    -0.248 N 
DOCKED: ATOM     29 FE   UNL d   1      -8.074  -2.314 -12.125 -0.02 +0.00    +0.000 Fe
DOCKED: ENDROOT
DOCKED: BRANCH   6  30
DOCKED: ATOM     30  C   UNL d   1      -3.643   1.211 -10.956 -0.14 +0.05    +0.052 C 
DOCKED: BRANCH  30  31
DOCKED: ATOM     31  C   UNL d   1      -2.548   0.522 -11.769 -0.26 +0.13    +0.115 C 
DOCKED: BRANCH  31  32
DOCKED: ATOM     32  C   UNL d   1      -2.503   1.004 -13.204 -0.20 +0.20    +0.139 C 
DOCKED: ATOM     33  O   UNL d   1      -2.474   2.204 -13.434 -0.14 -1.17    -0.650 OA
DOCKED: BRANCH  32  34
DOCKED: ATOM     34  O   UNL d   1      -2.446   0.145 -14.248 -0.22 -1.42    -0.776 OA
DOCKED: ATOM     35  H   UNL d   1      -3.087   0.126 -14.972 +0.02 +0.31    +0.167 HD
DOCKED: ENDBRANCH  32  34
DOCKED: ENDBRANCH  31  32
DOCKED: ENDBRANCH  30  31
DOCKED: ENDBRANCH   6  30
DOCKED: BRANCH  29  36
DOCKED: ATOM     36  C   UNL d   1      -6.571  -3.760 -12.339 -0.16 +0.19    +0.190 C 
DOCKED: BRANCH  36  37
DOCKED: ATOM     37  O   UNL d   1      -6.029  -4.900 -11.737 -0.21 -0.33    -0.399 OA
DOCKED: ATOM     38  H   UNL d   1      -6.707  -5.181 -11.061 +0.09 +0.13    +0.209 HD
DOCKED: ENDBRANCH  36  37
DOCKED: ENDBRANCH  29  36
DOCKED: BRANCH  22  39
DOCKED: ATOM     39  C   UNL d   1      -5.361   0.771 -16.081 -0.05 +0.05    +0.052 C 
DOCKED: BRANCH  39  40
DOCKED: ATOM     40  C   UNL d   1      -4.546   0.015 -17.143 -0.03 +0.11    +0.115 C 
DOCKED: BRANCH  40  41
DOCKED: ATOM     41  C   UNL d   1      -3.869  -1.240 -16.634 +0.01 +0.22    +0.139 C 
DOCKED: ATOM     42  O   UNL d   1      -4.504  -2.285 -16.585 -0.07 -1.09    -0.650 OA
DOCKED: BRANCH  41  43
DOCKED: ATOM     43  O   UNL d   1      -2.556  -1.259 -16.315 -0.28 -1.48    -0.776 OA
DOCKED: ATOM     44  H   UNL d   1      -2.129  -0.541 -15.830 +0.01 +0.28    +0.167 HD
DOCKED: ENDBRANCH  41  43
DOCKED: ENDBRANCH  40  41
DOCKED: ENDBRANCH  39  40
DOCKED: ENDBRANCH  22  39
DOCKED: BRANCH  12  45
DOCKED: ATOM     45  C   UNL d   1     -10.677  -5.191  -8.189 -0.29 +0.00    +0.004 C 
DOCKED: ATOM     46  C   UNL d   1     -10.778  -6.514  -8.283 -0.41 +0.00    +0.012 C 
DOCKED: ENDBRANCH  12  45
DOCKED: BRANCH  17  47
DOCKED: ATOM     47  C   UNL d   1     -10.856  -4.884 -15.996 -0.02 +0.00    +0.004 C 
DOCKED: ATOM     48  C   UNL d   1     -10.041  -5.546 -16.821 -0.01 +0.01    +0.012 C 
DOCKED: ENDBRANCH  17  47
DOCKED: TORSDOF 12
DOCKED: TER
DOCKED: ENDMDL
________________________________________________________________________________


	BEGINNING GENETIC ALGORITHM DOCKING 93 of 100
Run: 93 Seed: 1371122431 688579065 [ Run 93 of 100 GA/GALS ]
Beginning LAMARCKIAN GENETIC ALGORITHM (LGA), with a maximum of 25000000 energy evaluations.

Final-Value: -12.635


	FINAL GENETIC ALGORITHM DOCKED STATE
	_______________________________________________


Detailed state:  trans -7.503 -1.840 -12.437 quatxyzw 0.005121 0.624260 -0.470058 0.623954 center 8.781 34.984 -0.736 ntor 12 -16.4989 101.4771 162.2466 117.1811 75.1504 99.9429 -72.9081 140.7753 -45.5042 170.3329 -12.9441 -16.9006
State:	 -7.503  -1.840 -12.437   0.007  0.799 -0.602 102.789    -16.50  101.48  162.25  117.18   75.15   99.94  -72.91  140.78  -45.50  170.33  -12.94  -16.90

DOCKED: MODEL       93
DOCKED: USER    Run = 93
DOCKED: USER    DPF = D:/Protein_go_brrr/autodock/final/AncB/heme_Co/dock.dpf
DOCKED: USER  
DOCKED: USER    Estimated Free Energy of Binding    =   -8.35 kcal/mol  [=(1)+(2)+(3)-(4)]
DOCKED: USER    Estimated Inhibition Constant, Ki   =  758.98 nM (nanomolar)  [Temperature = 298.15 K]
DOCKED: USER    
DOCKED: USER    (1) Final Intermolecular Energy     =  -11.93 kcal/mol
DOCKED: USER        vdW + Hbond + desolv Energy     =   -7.56 kcal/mol
DOCKED: USER        Electrostatic Energy            =   -4.37 kcal/mol
DOCKED: USER    (2) Final Total Internal Energy     =   -0.71 kcal/mol
DOCKED: USER    (3) Torsional Free Energy           =   +3.58 kcal/mol
DOCKED: USER    (4) Unbound System's Energy  [=(2)] =   -0.71 kcal/mol
DOCKED: USER    
DOCKED: USER    
DOCKED: USER    NEWDPF move heme_Co_opt.pdbqt
DOCKED: USER    NEWDPF about 8.781000 34.984000 -0.736000
DOCKED: USER    NEWDPF tran0 -7.502774 -1.840080 -12.437430
DOCKED: USER    NEWDPF quaternion0 0.005121 0.624260 -0.470058 0.623954
DOCKED: USER    NEWDPF axisangle0 0.006553 0.798837 -0.601512 102.789110
DOCKED: USER    NEWDPF quat0 0.006553 0.798837 -0.601512 102.789110
DOCKED: USER    NEWDPF dihe0 -16.50 101.48 162.25 117.18 75.15 99.94 -72.91 140.78 -45.50 170.33 -12.94 -16.90 
DOCKED: USER  keepresnum = 1 
DOCKED: USER  
DOCKED: REMARK  12 active torsions:
DOCKED: REMARK  status: ('A' for Active; 'I' for Inactive)
DOCKED: REMARK    1  A    between atoms: C_6  and  C_10 
DOCKED: REMARK    2  A    between atoms: C_10  and  C_11 
DOCKED: REMARK    3  A    between atoms: C_11  and  C_12 
DOCKED: REMARK    4  A    between atoms: C_12  and  O_14 
DOCKED: REMARK    5  A    between atoms: C_17  and  C_20 
DOCKED: REMARK    6  A    between atoms: C_24  and  C_27 
DOCKED: REMARK    7  A    between atoms: C_31  and  C_34 
DOCKED: REMARK    8  A    between atoms: C_34  and  C_35 
DOCKED: REMARK    9  A    between atoms: C_35  and  C_36 
DOCKED: REMARK   10  A    between atoms: C_36  and  O_38 
DOCKED: REMARK   11  A    between atoms: FE_43  and  C_44 
DOCKED: REMARK   12  A    between atoms: C_44  and  O_45 
DOCKED: USER                              x       y       z     vdW  Elec       q    Type
DOCKED: USER                           _______ _______ _______ _____ _____    ______ ____
DOCKED: ROOT
DOCKED: ATOM      1  C   UNL d   1      -6.698  -2.216 -14.419 -0.07 +0.08    +0.064 A 
DOCKED: ATOM      2  C   UNL d   1      -8.361  -5.122 -11.042 -0.30 +0.03    +0.064 C 
DOCKED: ATOM      3  C   UNL d   1      -8.873  -1.424  -8.060 -0.17 +0.02    +0.064 A 
DOCKED: ATOM      4  C   UNL d   1      -7.543   1.614 -11.619 -0.08 +0.04    +0.064 A 
DOCKED: ATOM      5  C   UNL d   1      -7.080  -3.286 -13.703 -0.11 +0.07    +0.066 A 
DOCKED: ATOM      6  C   UNL d   1      -7.141  -4.577 -14.264 -0.14 -0.02    -0.021 A 
DOCKED: ATOM      7  C   UNL d   1      -7.645  -5.412 -13.286 -0.20 -0.02    -0.025 A 
DOCKED: ATOM      8  C   UNL d   1      -7.856  -4.599 -12.167 -0.19 +0.04    +0.066 A 
DOCKED: ATOM      9  C   UNL d   1      -7.925  -6.920 -13.387 -0.26 +0.03    +0.051 C 
DOCKED: ATOM     10  C   UNL d   1      -8.587  -4.369  -9.834 -0.24 +0.03    +0.066 A 
DOCKED: ATOM     11  C   UNL d   1      -8.981  -4.885  -8.580 -0.36 -0.01    -0.021 A 
DOCKED: ATOM     12  C   UNL d   1      -9.119  -3.786  -7.728 -0.31 +0.00    +0.000 A 
DOCKED: ATOM     13  C   UNL d   1      -8.788  -2.685  -8.519 -0.18 +0.02    +0.070 A 
DOCKED: ATOM     14  C   UNL d   1      -9.117  -6.342  -8.218 -0.40 +0.02    +0.052 C 
DOCKED: ATOM     15  C   UNL d   1      -8.621  -0.175  -8.751 -0.13 +0.02    +0.066 A 
DOCKED: ATOM     16  C   UNL d   1      -8.868   1.100  -8.262 -0.21 -0.00    -0.021 A 
DOCKED: ATOM     17  C   UNL d   1      -8.488   1.980  -9.286 -0.16 +0.00    +0.000 A 
DOCKED: ATOM     18  C   UNL d   1      -8.022   1.169 -10.316 -0.08 +0.03    +0.070 A 
DOCKED: ATOM     19  C   UNL d   1      -9.434   1.422  -6.897 -0.22 +0.01    +0.052 C 
DOCKED: ATOM     20  C   UNL d   1      -7.166   0.842 -12.666 -0.05 +0.05    +0.066 A 
DOCKED: ATOM     21  C   UNL d   1      -6.758   1.386 -13.882 -0.07 -0.02    -0.025 A 
DOCKED: ATOM     22  C   UNL d   1      -6.480   0.306 -14.699 -0.05 -0.02    -0.021 A 
DOCKED: ATOM     23  C   UNL d   1      -6.746  -0.853 -13.939 -0.06 +0.07    +0.066 A 
DOCKED: ATOM     24  C   UNL d   1      -6.656   2.863 -14.254 -0.09 +0.05    +0.051 C 
DOCKED: ATOM     25  N   UNL d   1      -7.509  -3.278 -12.395 -0.08 -0.19    -0.248 N 
DOCKED: ATOM     26  N   UNL d   1      -8.412  -3.045  -9.775 -0.09 -0.10    -0.248 N 
DOCKED: ATOM     27  N   UNL d   1      -8.144  -0.109  -9.974 -0.03 -0.10    -0.248 N 
DOCKED: ATOM     28  N   UNL d   1      -7.164  -0.533 -12.709 -0.03 -0.20    -0.248 N 
DOCKED: ATOM     29 FE   UNL d   1      -7.844  -1.597 -11.115 -0.02 +0.00    +0.000 Fe
DOCKED: ENDROOT
DOCKED: BRANCH   6  30
DOCKED: ATOM     30  C   UNL d   1      -6.803  -4.962 -15.700 -0.13 +0.05    +0.052 C 
DOCKED: BRANCH  30  31
DOCKED: ATOM     31  C   UNL d   1      -5.296  -4.878 -15.939 -0.12 +0.16    +0.115 C 
DOCKED: BRANCH  31  32
DOCKED: ATOM     32  C   UNL d   1      -4.754  -6.105 -16.640 -0.21 +0.20    +0.139 C 
DOCKED: ATOM     33  O   UNL d   1      -3.702  -6.029 -17.257 -0.04 -0.98    -0.650 OA
DOCKED: BRANCH  32  34
DOCKED: ATOM     34  O   UNL d   1      -5.374  -7.306 -16.567 -0.31 -1.58    -0.776 OA
DOCKED: ATOM     35  H   UNL d   1      -6.002  -7.552 -15.874 +0.05 +0.20    +0.167 HD
DOCKED: ENDBRANCH  32  34
DOCKED: ENDBRANCH  31  32
DOCKED: ENDBRANCH  30  31
DOCKED: ENDBRANCH   6  30
DOCKED: BRANCH  29  36
DOCKED: ATOM     36  C   UNL d   1      -9.794  -1.545 -11.882 -0.01 +0.08    +0.190 C 
DOCKED: BRANCH  36  37
DOCKED: ATOM     37  O   UNL d   1     -10.521  -1.476 -13.075 +0.00 -0.16    -0.399 OA
DOCKED: ATOM     38  H   UNL d   1      -9.846  -1.245 -13.774 +0.01 +0.10    +0.209 HD
DOCKED: ENDBRANCH  36  37
DOCKED: ENDBRANCH  29  36
DOCKED: BRANCH  22  39
DOCKED: ATOM     39  C   UNL d   1      -6.046   0.390 -16.151 -0.03 +0.05    +0.052 C 
DOCKED: BRANCH  39  40
DOCKED: ATOM     40  C   UNL d   1      -4.525   0.593 -16.251 -0.05 +0.13    +0.115 C 
DOCKED: BRANCH  40  41
DOCKED: ATOM     41  C   UNL d   1      -3.866   1.023 -14.958 -0.10 +0.22    +0.139 C 
DOCKED: ATOM     42  O   UNL d   1      -3.904   2.201 -14.630 -0.53 -1.50    -0.650 OA
DOCKED: BRANCH  41  43
DOCKED: ATOM     43  O   UNL d   1      -3.310   0.128 -14.112 -0.08 -1.55    -0.776 OA
DOCKED: ATOM     44  H   UNL d   1      -2.750   0.392 -13.370 +0.04 +0.28    +0.167 HD
DOCKED: ENDBRANCH  41  43
DOCKED: ENDBRANCH  40  41
DOCKED: ENDBRANCH  39  40
DOCKED: ENDBRANCH  22  39
DOCKED: BRANCH  12  45
DOCKED: ATOM     45  C   UNL d   1      -9.505  -3.651  -6.261 -0.47 +0.00    +0.004 C 
DOCKED: ATOM     46  C   UNL d   1      -8.772  -3.332  -5.198 -0.62 +0.00    +0.012 C 
DOCKED: ENDBRANCH  12  45
DOCKED: BRANCH  17  47
DOCKED: ATOM     47  C   UNL d   1      -8.588   3.469  -9.351 -0.21 +0.00    +0.004 C 
DOCKED: ATOM     48  C   UNL d   1      -8.089   4.282  -8.417 -0.36 +0.00    +0.012 C 
DOCKED: ENDBRANCH  17  47
DOCKED: TORSDOF 12
DOCKED: TER
DOCKED: ENDMDL
________________________________________________________________________________


	BEGINNING GENETIC ALGORITHM DOCKING 94 of 100
Run: 94 Seed: 141302280 1866287889 [ Run 94 of 100 GA/GALS ]
Beginning LAMARCKIAN GENETIC ALGORITHM (LGA), with a maximum of 25000000 energy evaluations.

Final-Value: -12.371


	FINAL GENETIC ALGORITHM DOCKED STATE
	_______________________________________________


Detailed state:  trans -7.289 -18.094 11.507 quatxyzw 0.086412 -0.786516 0.355075 -0.497842 center 8.781 34.984 -0.736 ntor 12 -122.0193 148.7685 -176.5507 -96.0202 147.4183 17.3100 9.1119 104.5238 -82.5900 94.3116 167.1254 -173.2429
State:	 -7.289 -18.094  11.507   0.100 -0.907  0.409 -120.285   -122.02  148.77 -176.55  -96.02  147.42   17.31    9.11  104.52  -82.59   94.31  167.13 -173.24

DOCKED: MODEL       94
DOCKED: USER    Run = 94
DOCKED: USER    DPF = D:/Protein_go_brrr/autodock/final/AncB/heme_Co/dock.dpf
DOCKED: USER  
DOCKED: USER    Estimated Free Energy of Binding    =   -6.24 kcal/mol  [=(1)+(2)+(3)-(4)]
DOCKED: USER    Estimated Inhibition Constant, Ki   =   26.84 uM (micromolar)  [Temperature = 298.15 K]
DOCKED: USER    
DOCKED: USER    (1) Final Intermolecular Energy     =   -9.82 kcal/mol
DOCKED: USER        vdW + Hbond + desolv Energy     =   -4.80 kcal/mol
DOCKED: USER        Electrostatic Energy            =   -5.02 kcal/mol
DOCKED: USER    (2) Final Total Internal Energy     =   -2.55 kcal/mol
DOCKED: USER    (3) Torsional Free Energy           =   +3.58 kcal/mol
DOCKED: USER    (4) Unbound System's Energy  [=(2)] =   -2.55 kcal/mol
DOCKED: USER    
DOCKED: USER    
DOCKED: USER    NEWDPF move heme_Co_opt.pdbqt
DOCKED: USER    NEWDPF about 8.781000 34.984000 -0.736000
DOCKED: USER    NEWDPF tran0 -7.289031 -18.093908 11.507293
DOCKED: USER    NEWDPF quaternion0 0.086412 -0.786516 0.355075 -0.497842
DOCKED: USER    NEWDPF axisangle0 0.099637 -0.906890 0.409417 -120.285301
DOCKED: USER    NEWDPF quat0 0.099637 -0.906890 0.409417 -120.285301
DOCKED: USER    NEWDPF dihe0 -122.02 148.77 -176.55 -96.02 147.42 17.31 9.11 104.52 -82.59 94.31 167.13 -173.24 
DOCKED: USER  keepresnum = 1 
DOCKED: USER  
DOCKED: REMARK  12 active torsions:
DOCKED: REMARK  status: ('A' for Active; 'I' for Inactive)
DOCKED: REMARK    1  A    between atoms: C_6  and  C_10 
DOCKED: REMARK    2  A    between atoms: C_10  and  C_11 
DOCKED: REMARK    3  A    between atoms: C_11  and  C_12 
DOCKED: REMARK    4  A    between atoms: C_12  and  O_14 
DOCKED: REMARK    5  A    between atoms: C_17  and  C_20 
DOCKED: REMARK    6  A    between atoms: C_24  and  C_27 
DOCKED: REMARK    7  A    between atoms: C_31  and  C_34 
DOCKED: REMARK    8  A    between atoms: C_34  and  C_35 
DOCKED: REMARK    9  A    between atoms: C_35  and  C_36 
DOCKED: REMARK   10  A    between atoms: C_36  and  O_38 
DOCKED: REMARK   11  A    between atoms: FE_43  and  C_44 
DOCKED: REMARK   12  A    between atoms: C_44  and  O_45 
DOCKED: USER                              x       y       z     vdW  Elec       q    Type
DOCKED: USER                           _______ _______ _______ _____ _____    ______ ____
DOCKED: ROOT
DOCKED: ATOM      1  C   UNL d   1      -5.973 -17.601   9.852 -0.05 +0.05    +0.064 A 
DOCKED: ATOM      2  C   UNL d   1      -7.983 -21.684  11.230 +0.00 +0.02    +0.064 C 
DOCKED: ATOM      3  C   UNL d   1      -9.746 -19.546  15.122 -0.01 +0.01    +0.064 A 
DOCKED: ATOM      4  C   UNL d   1      -8.029 -15.279  13.540 -0.16 +0.02    +0.064 A 
DOCKED: ATOM      5  C   UNL d   1      -6.362 -18.882   9.961 -0.02 +0.05    +0.066 A 
DOCKED: ATOM      6  C   UNL d   1      -6.095 -19.833   8.957 -0.00 -0.01    -0.021 A 
DOCKED: ATOM      7  C   UNL d   1      -6.700 -21.010   9.351 +0.00 -0.01    -0.025 A 
DOCKED: ATOM      8  C   UNL d   1      -7.296 -20.732  10.586 +0.00 +0.03    +0.066 A 
DOCKED: ATOM      9  C   UNL d   1      -6.725 -22.353   8.605 +0.01 +0.02    +0.051 C 
DOCKED: ATOM     10  C   UNL d   1      -8.607 -21.499  12.516 +0.01 +0.02    +0.066 A 
DOCKED: ATOM     11  C   UNL d   1      -9.221 -22.494  13.307 +0.00 -0.00    -0.021 A 
DOCKED: ATOM     12  C   UNL d   1      -9.723 -21.844  14.438 +0.00 +0.00    +0.000 A 
DOCKED: ATOM     13  C   UNL d   1      -9.368 -20.507  14.260 +0.00 +0.02    +0.070 A 
DOCKED: ATOM     14  C   UNL d   1      -9.231 -23.975  13.029 +0.00 +0.01    +0.052 C 
DOCKED: ATOM     15  C   UNL d   1      -9.514 -18.116  15.066 -0.04 +0.02    +0.066 A 
DOCKED: ATOM     16  C   UNL d   1     -10.055 -17.161  15.914 -0.07 -0.00    -0.021 A 
DOCKED: ATOM     17  C   UNL d   1      -9.565 -15.928  15.460 -0.08 +0.00    +0.000 A 
DOCKED: ATOM     18  C   UNL d   1      -8.746 -16.232  14.377 -0.10 +0.02    +0.070 A 
DOCKED: ATOM     19  C   UNL d   1     -10.982 -17.443  17.075 -0.04 +0.01    +0.052 C 
DOCKED: ATOM     20  C   UNL d   1      -7.297 -15.543  12.431 -0.14 +0.03    +0.066 A 
DOCKED: ATOM     21  C   UNL d   1      -6.684 -14.537  11.688 -0.19 -0.01    -0.025 A 
DOCKED: ATOM     22  C   UNL d   1      -6.059 -15.180  10.634 -0.14 -0.01    -0.021 A 
DOCKED: ATOM     23  C   UNL d   1      -6.335 -16.556  10.782 -0.09 +0.05    +0.066 A 
DOCKED: ATOM     24  C   UNL d   1      -6.707 -13.035  11.956 -0.31 +0.03    +0.051 C 
DOCKED: ATOM     25  N   UNL d   1      -7.098 -19.423  10.991 -0.01 -0.15    -0.248 N 
DOCKED: ATOM     26  N   UNL d   1      -8.646 -20.309  13.125 +0.00 -0.08    -0.248 N 
DOCKED: ATOM     27  N   UNL d   1      -8.764 -17.541  14.153 -0.04 -0.08    -0.248 N 
DOCKED: ATOM     28  N   UNL d   1      -7.086 -16.780  11.867 -0.06 -0.14    -0.248 N 
DOCKED: ATOM     29 FE   UNL d   1      -7.978 -18.423  12.665 -0.01 +0.00    +0.000 Fe
DOCKED: ENDROOT
DOCKED: BRANCH   6  30
DOCKED: ATOM     30  C   UNL d   1      -5.360 -19.586   7.643 +0.00 +0.04    +0.052 C 
DOCKED: BRANCH  30  31
DOCKED: ATOM     31  C   UNL d   1      -6.334 -19.632   6.466 -0.01 +0.11    +0.115 C 
DOCKED: BRANCH  31  32
DOCKED: ATOM     32  C   UNL d   1      -6.824 -18.256   6.069 -0.05 +0.25    +0.139 C 
DOCKED: ATOM     33  O   UNL d   1      -8.021 -18.012   6.104 -0.03 -1.55    -0.650 OA
DOCKED: BRANCH  32  34
DOCKED: ATOM     34  O   UNL d   1      -5.973 -17.265   5.718 -0.18 -1.68    -0.776 OA
DOCKED: ATOM     35  H   UNL d   1      -5.964 -16.387   6.123 +0.04 +0.39    +0.167 HD
DOCKED: ENDBRANCH  32  34
DOCKED: ENDBRANCH  31  32
DOCKED: ENDBRANCH  30  31
DOCKED: ENDBRANCH   6  30
DOCKED: BRANCH  29  36
DOCKED: ATOM     36  C   UNL d   1      -9.664 -18.124  11.455 -0.12 +0.20    +0.190 C 
DOCKED: BRANCH  36  37
DOCKED: ATOM     37  O   UNL d   1     -10.626 -17.173  11.100 -0.89 -0.60    -0.399 OA
DOCKED: ATOM     38  H   UNL d   1     -10.139 -16.302  11.104 -0.53 +0.26    +0.209 HD
DOCKED: ENDBRANCH  36  37
DOCKED: ENDBRANCH  29  36
DOCKED: BRANCH  22  39
DOCKED: ATOM     39  C   UNL d   1      -5.296 -14.497   9.515 -0.14 +0.03    +0.052 C 
DOCKED: BRANCH  39  40
DOCKED: ATOM     40  C   UNL d   1      -6.261 -13.765   8.568 -0.24 +0.10    +0.115 C 
DOCKED: BRANCH  40  41
DOCKED: ATOM     41  C   UNL d   1      -6.738 -14.598   7.396 -0.25 +0.22    +0.139 C 
DOCKED: ATOM     42  O   UNL d   1      -6.459 -14.246   6.259 -0.18 -1.16    -0.650 OA
DOCKED: BRANCH  41  43
DOCKED: ATOM     43  O   UNL d   1      -7.389 -15.769   7.576 -0.43 -2.02    -0.776 OA
DOCKED: ATOM     44  H   UNL d   1      -7.576 -16.376   6.848 +0.02 +0.51    +0.167 HD
DOCKED: ENDBRANCH  41  43
DOCKED: ENDBRANCH  40  41
DOCKED: ENDBRANCH  39  40
DOCKED: ENDBRANCH  22  39
DOCKED: BRANCH  12  45
DOCKED: ATOM     45  C   UNL d   1     -10.476 -22.333  15.668 +0.00 +0.00    +0.004 C 
DOCKED: ATOM     46  C   UNL d   1     -11.761 -22.227  15.996 +0.00 +0.00    +0.012 C 
DOCKED: ENDBRANCH  12  45
DOCKED: BRANCH  17  47
DOCKED: ATOM     47  C   UNL d   1      -9.860 -14.547  15.945 -0.13 +0.00    +0.004 C 
DOCKED: ATOM     48  C   UNL d   1      -8.916 -13.678  16.315 -0.13 +0.00    +0.012 C 
DOCKED: ENDBRANCH  17  47
DOCKED: TORSDOF 12
DOCKED: TER
DOCKED: ENDMDL
________________________________________________________________________________


	BEGINNING GENETIC ALGORITHM DOCKING 95 of 100
Run: 95 Seed: 1596928196 591276842 [ Run 95 of 100 GA/GALS ]
Beginning LAMARCKIAN GENETIC ALGORITHM (LGA), with a maximum of 25000000 energy evaluations.

Final-Value: -12.736


	FINAL GENETIC ALGORITHM DOCKED STATE
	_______________________________________________


Detailed state:  trans -7.629 -1.757 -11.843 quatxyzw -0.037600 0.641382 -0.499535 0.581102 center 8.781 34.984 -0.736 ntor 12 66.9816 92.9619 -179.7930 137.2738 118.7590 80.5562 -165.8220 163.7857 -42.8855 138.8173 51.0664 14.7102
State:	 -7.629  -1.757 -11.843  -0.046  0.788 -0.614 108.944     66.98   92.96 -179.79  137.27  118.76   80.56 -165.82  163.79  -42.89  138.82   51.07   14.71

DOCKED: MODEL       95
DOCKED: USER    Run = 95
DOCKED: USER    DPF = D:/Protein_go_brrr/autodock/final/AncB/heme_Co/dock.dpf
DOCKED: USER  
DOCKED: USER    Estimated Free Energy of Binding    =   -8.35 kcal/mol  [=(1)+(2)+(3)-(4)]
DOCKED: USER    Estimated Inhibition Constant, Ki   =  751.95 nM (nanomolar)  [Temperature = 298.15 K]
DOCKED: USER    
DOCKED: USER    (1) Final Intermolecular Energy     =  -11.93 kcal/mol
DOCKED: USER        vdW + Hbond + desolv Energy     =   -7.93 kcal/mol
DOCKED: USER        Electrostatic Energy            =   -4.00 kcal/mol
DOCKED: USER    (2) Final Total Internal Energy     =   -0.80 kcal/mol
DOCKED: USER    (3) Torsional Free Energy           =   +3.58 kcal/mol
DOCKED: USER    (4) Unbound System's Energy  [=(2)] =   -0.80 kcal/mol
DOCKED: USER    
DOCKED: USER    
DOCKED: USER    NEWDPF move heme_Co_opt.pdbqt
DOCKED: USER    NEWDPF about 8.781000 34.984000 -0.736000
DOCKED: USER    NEWDPF tran0 -7.628663 -1.756932 -11.842750
DOCKED: USER    NEWDPF quaternion0 -0.037600 0.641382 -0.499535 0.581102
DOCKED: USER    NEWDPF axisangle0 -0.046201 0.788103 -0.613807 108.943813
DOCKED: USER    NEWDPF quat0 -0.046201 0.788103 -0.613807 108.943813
DOCKED: USER    NEWDPF dihe0 66.98 92.96 -179.79 137.27 118.76 80.56 -165.82 163.79 -42.89 138.82 51.07 14.71 
DOCKED: USER  keepresnum = 1 
DOCKED: USER  
DOCKED: REMARK  12 active torsions:
DOCKED: REMARK  status: ('A' for Active; 'I' for Inactive)
DOCKED: REMARK    1  A    between atoms: C_6  and  C_10 
DOCKED: REMARK    2  A    between atoms: C_10  and  C_11 
DOCKED: REMARK    3  A    between atoms: C_11  and  C_12 
DOCKED: REMARK    4  A    between atoms: C_12  and  O_14 
DOCKED: REMARK    5  A    between atoms: C_17  and  C_20 
DOCKED: REMARK    6  A    between atoms: C_24  and  C_27 
DOCKED: REMARK    7  A    between atoms: C_31  and  C_34 
DOCKED: REMARK    8  A    between atoms: C_34  and  C_35 
DOCKED: REMARK    9  A    between atoms: C_35  and  C_36 
DOCKED: REMARK   10  A    between atoms: C_36  and  O_38 
DOCKED: REMARK   11  A    between atoms: FE_43  and  C_44 
DOCKED: REMARK   12  A    between atoms: C_44  and  O_45 
DOCKED: USER                              x       y       z     vdW  Elec       q    Type
DOCKED: USER                           _______ _______ _______ _____ _____    ______ ____
DOCKED: ROOT
DOCKED: ATOM      1  C   UNL d   1      -6.718  -1.957 -13.804 -0.09 +0.08    +0.064 A 
DOCKED: ATOM      2  C   UNL d   1      -8.094  -5.168 -10.579 -0.35 +0.03    +0.064 C 
DOCKED: ATOM      3  C   UNL d   1      -9.182  -1.673  -7.508 -0.20 +0.02    +0.064 A 
DOCKED: ATOM      4  C   UNL d   1      -8.147   1.633 -10.923 -0.07 +0.03    +0.064 A 
DOCKED: ATOM      5  C   UNL d   1      -6.980  -3.092 -13.135 -0.13 +0.07    +0.066 A 
DOCKED: ATOM      6  C   UNL d   1      -6.853  -4.359 -13.735 -0.16 -0.02    -0.021 A 
DOCKED: ATOM      7  C   UNL d   1      -7.275  -5.286 -12.803 -0.26 -0.02    -0.025 A 
DOCKED: ATOM      8  C   UNL d   1      -7.626  -4.546 -11.668 -0.23 +0.04    +0.066 A 
DOCKED: ATOM      9  C   UNL d   1      -7.352  -6.813 -12.959 -0.33 +0.03    +0.051 C 
DOCKED: ATOM     10  C   UNL d   1      -8.456  -4.493  -9.357 -0.28 +0.03    +0.066 A 
DOCKED: ATOM     11  C   UNL d   1      -8.819  -5.099  -8.134 -0.43 -0.01    -0.021 A 
DOCKED: ATOM     12  C   UNL d   1      -9.127  -4.056  -7.255 -0.37 +0.00    +0.000 A 
DOCKED: ATOM     13  C   UNL d   1      -8.917  -2.896  -8.000 -0.21 +0.02    +0.070 A 
DOCKED: ATOM     14  C   UNL d   1      -8.775  -6.572  -7.821 -0.34 +0.02    +0.052 C 
DOCKED: ATOM     15  C   UNL d   1      -9.073  -0.378  -8.151 -0.16 +0.02    +0.066 A 
DOCKED: ATOM     16  C   UNL d   1      -9.501   0.836  -7.634 -0.24 -0.00    -0.021 A 
DOCKED: ATOM     17  C   UNL d   1      -9.206   1.793  -8.617 -0.17 +0.00    +0.000 A 
DOCKED: ATOM     18  C   UNL d   1      -8.605   1.085  -9.653 -0.09 +0.02    +0.070 A 
DOCKED: ATOM     19  C   UNL d   1     -10.147   1.035  -6.282 -0.10 +0.00    +0.052 C 
DOCKED: ATOM     20  C   UNL d   1      -7.639   0.952 -11.979 -0.05 +0.04    +0.066 A 
DOCKED: ATOM     21  C   UNL d   1      -7.266   1.586 -13.162 -0.06 -0.02    -0.025 A 
DOCKED: ATOM     22  C   UNL d   1      -6.823   0.580 -14.001 -0.05 -0.02    -0.021 A 
DOCKED: ATOM     23  C   UNL d   1      -6.960  -0.629 -13.286 -0.06 +0.06    +0.066 A 
DOCKED: ATOM     24  C   UNL d   1      -7.347   3.076 -13.486 -0.10 +0.04    +0.051 C 
DOCKED: ATOM     25  N   UNL d   1      -7.448  -3.184 -11.844 -0.09 -0.18    -0.248 N 
DOCKED: ATOM     26  N   UNL d   1      -8.458  -3.160  -9.253 -0.11 -0.10    -0.248 N 
DOCKED: ATOM     27  N   UNL d   1      -8.570  -0.209  -9.354 -0.05 -0.08    -0.248 N 
DOCKED: ATOM     28  N   UNL d   1      -7.455  -0.408 -12.063 -0.02 -0.17    -0.248 N 
DOCKED: ATOM     29 FE   UNL d   1      -8.041  -1.606 -10.527 -0.02 +0.00    +0.000 Fe
DOCKED: ENDROOT
DOCKED: BRANCH   6  30
DOCKED: ATOM     30  C   UNL d   1      -6.422  -4.647 -15.170 -0.14 +0.06    +0.052 C 
DOCKED: BRANCH  30  31
DOCKED: ATOM     31  C   UNL d   1      -5.411  -5.793 -15.207 +0.01 +0.14    +0.115 C 
DOCKED: BRANCH  31  32
DOCKED: ATOM     32  C   UNL d   1      -5.713  -6.794 -16.301 -0.13 +0.19    +0.139 C 
DOCKED: ATOM     33  O   UNL d   1      -5.651  -6.444 -17.470 -0.20 -1.05    -0.650 OA
DOCKED: BRANCH  32  34
DOCKED: ATOM     34  O   UNL d   1      -6.006  -8.087 -16.030 -0.44 -1.08    -0.776 OA
DOCKED: ATOM     35  H   UNL d   1      -6.778  -8.375 -15.523 +0.06 +0.13    +0.167 HD
DOCKED: ENDBRANCH  32  34
DOCKED: ENDBRANCH  31  32
DOCKED: ENDBRANCH  30  31
DOCKED: ENDBRANCH   6  30
DOCKED: BRANCH  29  36
DOCKED: ATOM     36  C   UNL d   1      -9.956  -1.780 -11.363 -0.01 +0.07    +0.190 C 
DOCKED: BRANCH  36  37
DOCKED: ATOM     37  O   UNL d   1     -10.700  -1.494 -12.512 +0.00 -0.15    -0.399 OA
DOCKED: ATOM     38  H   UNL d   1     -10.187  -0.776 -12.977 +0.00 +0.08    +0.209 HD
DOCKED: ENDBRANCH  36  37
DOCKED: ENDBRANCH  29  36
DOCKED: BRANCH  22  39
DOCKED: ATOM     39  C   UNL d   1      -6.357   0.769 -15.432 -0.04 +0.05    +0.052 C 
DOCKED: BRANCH  39  40
DOCKED: ATOM     40  C   UNL d   1      -4.873   0.395 -15.574 -0.07 +0.15    +0.115 C 
DOCKED: BRANCH  40  41
DOCKED: ATOM     41  C   UNL d   1      -3.976   0.978 -14.502 -0.12 +0.23    +0.139 C 
DOCKED: ATOM     42  O   UNL d   1      -3.932   2.191 -14.353 -0.50 -1.53    -0.650 OA
DOCKED: BRANCH  41  43
DOCKED: ATOM     43  O   UNL d   1      -3.289   0.190 -13.645 -0.01 -1.50    -0.776 OA
DOCKED: ATOM     44  H   UNL d   1      -2.788   0.547 -12.900 +0.05 +0.25    +0.167 HD
DOCKED: ENDBRANCH  41  43
DOCKED: ENDBRANCH  40  41
DOCKED: ENDBRANCH  39  40
DOCKED: ENDBRANCH  22  39
DOCKED: BRANCH  12  45
DOCKED: ATOM     45  C   UNL d   1      -9.575  -4.023  -5.800 -0.50 +0.00    +0.004 C 
DOCKED: ATOM     46  C   UNL d   1      -9.094  -3.345  -4.762 -0.64 +0.00    +0.012 C 
DOCKED: ENDBRANCH  12  45
DOCKED: BRANCH  17  47
DOCKED: ATOM     47  C   UNL d   1      -9.498   3.257  -8.641 -0.17 +0.00    +0.004 C 
DOCKED: ATOM     48  C   UNL d   1      -8.610   4.191  -8.293 -0.30 +0.00    +0.012 C 
DOCKED: ENDBRANCH  17  47
DOCKED: TORSDOF 12
DOCKED: TER
DOCKED: ENDMDL
________________________________________________________________________________


	BEGINNING GENETIC ALGORITHM DOCKING 96 of 100
Run: 96 Seed: 1299713231 2129935745 [ Run 96 of 100 GA/GALS ]
Beginning LAMARCKIAN GENETIC ALGORITHM (LGA), with a maximum of 25000000 energy evaluations.

Final-Value: -11.441


	FINAL GENETIC ALGORITHM DOCKED STATE
	_______________________________________________


Detailed state:  trans 18.253 4.936 -10.462 quatxyzw -0.273614 0.568646 -0.658638 -0.409845 center 8.781 34.984 -0.736 ntor 12 65.5893 128.1848 -144.6334 23.8356 176.0971 98.3561 41.1375 109.0540 141.5054 143.3515 -145.4474 172.8855
State:	 18.253   4.936 -10.462  -0.300  0.623 -0.722 -131.610     65.59  128.18 -144.63   23.84  176.10   98.36   41.14  109.05  141.51  143.35 -145.45  172.89

DOCKED: MODEL       96
DOCKED: USER    Run = 96
DOCKED: USER    DPF = D:/Protein_go_brrr/autodock/final/AncB/heme_Co/dock.dpf
DOCKED: USER  
DOCKED: USER    Estimated Free Energy of Binding    =   -3.95 kcal/mol  [=(1)+(2)+(3)-(4)]
DOCKED: USER    Estimated Inhibition Constant, Ki   =    1.28 mM (millimolar)  [Temperature = 298.15 K]
DOCKED: USER    
DOCKED: USER    (1) Final Intermolecular Energy     =   -7.53 kcal/mol
DOCKED: USER        vdW + Hbond + desolv Energy     =   -6.77 kcal/mol
DOCKED: USER        Electrostatic Energy            =   -0.76 kcal/mol
DOCKED: USER    (2) Final Total Internal Energy     =   -3.91 kcal/mol
DOCKED: USER    (3) Torsional Free Energy           =   +3.58 kcal/mol
DOCKED: USER    (4) Unbound System's Energy  [=(2)] =   -3.91 kcal/mol
DOCKED: USER    
DOCKED: USER    
DOCKED: USER    NEWDPF move heme_Co_opt.pdbqt
DOCKED: USER    NEWDPF about 8.781000 34.984000 -0.736000
DOCKED: USER    NEWDPF tran0 18.253134 4.935744 -10.462398
DOCKED: USER    NEWDPF quaternion0 -0.273614 0.568646 -0.658638 -0.409845
DOCKED: USER    NEWDPF axisangle0 -0.299964 0.623409 -0.722068 -131.609853
DOCKED: USER    NEWDPF quat0 -0.299964 0.623409 -0.722068 -131.609853
DOCKED: USER    NEWDPF dihe0 65.59 128.18 -144.63 23.84 176.10 98.36 41.14 109.05 141.51 143.35 -145.45 172.89 
DOCKED: USER  keepresnum = 1 
DOCKED: USER  
DOCKED: REMARK  12 active torsions:
DOCKED: REMARK  status: ('A' for Active; 'I' for Inactive)
DOCKED: REMARK    1  A    between atoms: C_6  and  C_10 
DOCKED: REMARK    2  A    between atoms: C_10  and  C_11 
DOCKED: REMARK    3  A    between atoms: C_11  and  C_12 
DOCKED: REMARK    4  A    between atoms: C_12  and  O_14 
DOCKED: REMARK    5  A    between atoms: C_17  and  C_20 
DOCKED: REMARK    6  A    between atoms: C_24  and  C_27 
DOCKED: REMARK    7  A    between atoms: C_31  and  C_34 
DOCKED: REMARK    8  A    between atoms: C_34  and  C_35 
DOCKED: REMARK    9  A    between atoms: C_35  and  C_36 
DOCKED: REMARK   10  A    between atoms: C_36  and  O_38 
DOCKED: REMARK   11  A    between atoms: FE_43  and  C_44 
DOCKED: REMARK   12  A    between atoms: C_44  and  O_45 
DOCKED: USER                              x       y       z     vdW  Elec       q    Type
DOCKED: USER                           _______ _______ _______ _____ _____    ______ ____
DOCKED: ROOT
DOCKED: ATOM      1  C   UNL d   1      18.660   7.020 -10.917 +0.18 +0.05    +0.064 A 
DOCKED: ATOM      2  C   UNL d   1      20.491   4.035  -7.700 -0.09 +0.04    +0.064 C 
DOCKED: ATOM      3  C   UNL d   1      17.354   0.667  -8.985 -0.26 +0.03    +0.064 A 
DOCKED: ATOM      4  C   UNL d   1      15.722   3.561 -12.538 -0.18 +0.03    +0.064 A 
DOCKED: ATOM      5  C   UNL d   1      19.367   6.464  -9.919 -0.17 +0.05    +0.066 A 
DOCKED: ATOM      6  C   UNL d   1      20.452   7.126  -9.313 -0.13 -0.01    -0.021 A 
DOCKED: ATOM      7  C   UNL d   1      20.994   6.247  -8.396 -0.08 -0.01    -0.025 A 
DOCKED: ATOM      8  C   UNL d   1      20.207   5.093  -8.470 -0.09 +0.05    +0.066 A 
DOCKED: ATOM      9  C   UNL d   1      22.207   6.470  -7.479 -0.03 +0.01    +0.051 C 
DOCKED: ATOM     10  C   UNL d   1      19.722   2.815  -7.689 -0.13 +0.04    +0.066 A 
DOCKED: ATOM     11  C   UNL d   1      19.884   1.725  -6.806 -0.14 -0.01    -0.021 A 
DOCKED: ATOM     12  C   UNL d   1      18.954   0.759  -7.201 -0.23 +0.00    +0.000 A 
DOCKED: ATOM     13  C   UNL d   1      18.287   1.334  -8.283 -0.24 +0.04    +0.070 A 
DOCKED: ATOM     14  C   UNL d   1      20.804   1.670  -5.614 -0.11 +0.02    +0.052 C 
DOCKED: ATOM     15  C   UNL d   1      16.608   1.087 -10.155 -0.28 +0.03    +0.066 A 
DOCKED: ATOM     16  C   UNL d   1      15.763   0.296 -10.920 -0.35 -0.01    -0.021 A 
DOCKED: ATOM     17  C   UNL d   1      15.292   1.125 -11.947 -0.29 +0.00    +0.000 A 
DOCKED: ATOM     18  C   UNL d   1      15.876   2.366 -11.717 -0.22 +0.03    +0.070 A 
DOCKED: ATOM     19  C   UNL d   1      15.449  -1.161 -10.657 -0.28 +0.02    +0.052 C 
DOCKED: ATOM     20  C   UNL d   1      16.347   4.753 -12.383 -0.20 +0.03    +0.066 A 
DOCKED: ATOM     21  C   UNL d   1      16.144   5.817 -13.260 -0.24 -0.01    -0.025 A 
DOCKED: ATOM     22  C   UNL d   1      16.956   6.838 -12.800 -0.28 -0.01    -0.021 A 
DOCKED: ATOM     23  C   UNL d   1      17.628   6.338 -11.665 -0.25 +0.04    +0.066 A 
DOCKED: ATOM     24  C   UNL d   1      15.237   5.854 -14.486 -0.25 +0.01    +0.051 C 
DOCKED: ATOM     25  N   UNL d   1      19.188   5.202  -9.401 -0.10 -0.25    -0.248 N 
DOCKED: ATOM     26  N   UNL d   1      18.715   2.599  -8.541 -0.12 -0.21    -0.248 N 
DOCKED: ATOM     27  N   UNL d   1      16.677   2.299 -10.659 -0.14 -0.16    -0.248 N 
DOCKED: ATOM     28  N   UNL d   1      17.264   5.076 -11.410 -0.15 -0.19    -0.248 N 
DOCKED: ATOM     29 FE   UNL d   1      17.856   3.666 -10.070 -0.04 +0.00    +0.000 Fe
DOCKED: ENDROOT
DOCKED: BRANCH   6  30
DOCKED: ATOM     30  C   UNL d   1      20.985   8.511  -9.666 -0.13 +0.01    +0.052 C 
DOCKED: BRANCH  30  31
DOCKED: ATOM     31  C   UNL d   1      21.468   8.547 -11.116 -0.07 +0.03    +0.115 C 
DOCKED: BRANCH  31  32
DOCKED: ATOM     32  C   UNL d   1      22.208   7.286 -11.509 -0.02 +0.03    +0.139 C 
DOCKED: ATOM     33  O   UNL d   1      23.413   7.213 -11.323 +0.01 -0.12    -0.650 OA
DOCKED: BRANCH  32  34
DOCKED: ATOM     34  O   UNL d   1      21.568   6.208 -12.020 +0.03 -0.20    -0.776 OA
DOCKED: ATOM     35  H   UNL d   1      21.067   6.215 -12.847 +0.02 +0.04    +0.167 HD
DOCKED: ENDBRANCH  32  34
DOCKED: ENDBRANCH  31  32
DOCKED: ENDBRANCH  30  31
DOCKED: ENDBRANCH   6  30
DOCKED: BRANCH  29  36
DOCKED: ATOM     36  C   UNL d   1      19.392   3.052 -11.358 -0.02 +0.08    +0.190 C 
DOCKED: BRANCH  36  37
DOCKED: ATOM     37  O   UNL d   1      20.234   3.501 -12.380 +0.01 -0.12    -0.399 OA
DOCKED: ATOM     38  H   UNL d   1      20.169   4.496 -12.348 +0.02 +0.07    +0.209 HD
DOCKED: ENDBRANCH  36  37
DOCKED: ENDBRANCH  29  36
DOCKED: BRANCH  22  39
DOCKED: ATOM     39  C   UNL d   1      17.122   8.195 -13.459 -0.24 +0.02    +0.052 C 
DOCKED: BRANCH  39  40
DOCKED: ATOM     40  C   UNL d   1      18.197   8.136 -14.558 -0.12 +0.03    +0.115 C 
DOCKED: BRANCH  40  41
DOCKED: ATOM     41  C   UNL d   1      19.432   7.346 -14.182 -0.05 +0.04    +0.139 C 
DOCKED: ATOM     42  O   UNL d   1      20.498   7.931 -14.044 +0.02 -0.16    -0.650 OA
DOCKED: BRANCH  41  43
DOCKED: ATOM     43  O   UNL d   1      19.374   6.024 -13.909 +0.05 -0.22    -0.776 OA
DOCKED: ATOM     44  H   UNL d   1      19.863   5.622 -13.179 +0.02 +0.05    +0.167 HD
DOCKED: ENDBRANCH  41  43
DOCKED: ENDBRANCH  40  41
DOCKED: ENDBRANCH  39  40
DOCKED: ENDBRANCH  22  39
DOCKED: BRANCH  12  45
DOCKED: ATOM     45  C   UNL d   1      18.607  -0.626  -6.671 -0.32 +0.00    +0.004 C 
DOCKED: ATOM     46  C   UNL d   1      18.908  -1.211  -5.515 -0.36 +0.00    +0.012 C 
DOCKED: ENDBRANCH  12  45
DOCKED: BRANCH  17  47
DOCKED: ATOM     47  C   UNL d   1      14.403   0.801 -13.103 -0.33 +0.00    +0.004 C 
DOCKED: ATOM     48  C   UNL d   1      13.640   1.705 -13.722 -0.39 +0.00    +0.012 C 
DOCKED: ENDBRANCH  17  47
DOCKED: TORSDOF 12
DOCKED: TER
DOCKED: ENDMDL
________________________________________________________________________________


	BEGINNING GENETIC ALGORITHM DOCKING 97 of 100
Run: 97 Seed: 383596668 784172046 [ Run 97 of 100 GA/GALS ]
Beginning LAMARCKIAN GENETIC ALGORITHM (LGA), with a maximum of 25000000 energy evaluations.

Final-Value: -12.255


	FINAL GENETIC ALGORITHM DOCKED STATE
	_______________________________________________


Detailed state:  trans -4.914 -10.981 12.643 quatxyzw 0.695635 0.173868 0.659498 -0.225664 center 8.781 34.984 -0.736 ntor 12 17.5347 98.8725 -65.1962 79.4773 132.6542 134.5293 -14.3297 61.1425 22.4687 83.4939 -9.2141 168.1543
State:	 -4.914 -10.981  12.643   0.714  0.178  0.677 -153.916     17.53   98.87  -65.20   79.48  132.65  134.53  -14.33   61.14   22.47   83.49   -9.21  168.15

DOCKED: MODEL       97
DOCKED: USER    Run = 97
DOCKED: USER    DPF = D:/Protein_go_brrr/autodock/final/AncB/heme_Co/dock.dpf
DOCKED: USER  
DOCKED: USER    Estimated Free Energy of Binding    =   -6.90 kcal/mol  [=(1)+(2)+(3)-(4)]
DOCKED: USER    Estimated Inhibition Constant, Ki   =    8.79 uM (micromolar)  [Temperature = 298.15 K]
DOCKED: USER    
DOCKED: USER    (1) Final Intermolecular Energy     =  -10.48 kcal/mol
DOCKED: USER        vdW + Hbond + desolv Energy     =   -7.76 kcal/mol
DOCKED: USER        Electrostatic Energy            =   -2.72 kcal/mol
DOCKED: USER    (2) Final Total Internal Energy     =   -1.78 kcal/mol
DOCKED: USER    (3) Torsional Free Energy           =   +3.58 kcal/mol
DOCKED: USER    (4) Unbound System's Energy  [=(2)] =   -1.78 kcal/mol
DOCKED: USER    
DOCKED: USER    
DOCKED: USER    NEWDPF move heme_Co_opt.pdbqt
DOCKED: USER    NEWDPF about 8.781000 34.984000 -0.736000
DOCKED: USER    NEWDPF tran0 -4.913586 -10.980680 12.642778
DOCKED: USER    NEWDPF quaternion0 0.695635 0.173868 0.659498 -0.225664
DOCKED: USER    NEWDPF axisangle0 0.714054 0.178472 0.676960 -153.916167
DOCKED: USER    NEWDPF quat0 0.714054 0.178472 0.676960 -153.916167
DOCKED: USER    NEWDPF dihe0 17.53 98.87 -65.20 79.48 132.65 134.53 -14.33 61.14 22.47 83.49 -9.21 168.15 
DOCKED: USER  keepresnum = 1 
DOCKED: USER  
DOCKED: REMARK  12 active torsions:
DOCKED: REMARK  status: ('A' for Active; 'I' for Inactive)
DOCKED: REMARK    1  A    between atoms: C_6  and  C_10 
DOCKED: REMARK    2  A    between atoms: C_10  and  C_11 
DOCKED: REMARK    3  A    between atoms: C_11  and  C_12 
DOCKED: REMARK    4  A    between atoms: C_12  and  O_14 
DOCKED: REMARK    5  A    between atoms: C_17  and  C_20 
DOCKED: REMARK    6  A    between atoms: C_24  and  C_27 
DOCKED: REMARK    7  A    between atoms: C_31  and  C_34 
DOCKED: REMARK    8  A    between atoms: C_34  and  C_35 
DOCKED: REMARK    9  A    between atoms: C_35  and  C_36 
DOCKED: REMARK   10  A    between atoms: C_36  and  O_38 
DOCKED: REMARK   11  A    between atoms: FE_43  and  C_44 
DOCKED: REMARK   12  A    between atoms: C_44  and  O_45 
DOCKED: USER                              x       y       z     vdW  Elec       q    Type
DOCKED: USER                           _______ _______ _______ _____ _____    ______ ____
DOCKED: ROOT
DOCKED: ATOM      1  C   UNL d   1      -5.923 -12.371  11.314 -0.23 +0.03    +0.064 A 
DOCKED: ATOM      2  C   UNL d   1      -1.967  -9.779  10.820 -0.25 +0.01    +0.064 C 
DOCKED: ATOM      3  C   UNL d   1      -2.761  -7.692  15.044 -0.16 +0.01    +0.064 A 
DOCKED: ATOM      4  C   UNL d   1      -6.594 -10.604  15.747 -0.11 +0.04    +0.064 A 
DOCKED: ATOM      5  C   UNL d   1      -4.803 -11.790  10.853 -0.20 +0.03    +0.066 A 
DOCKED: ATOM      6  C   UNL d   1      -4.196 -12.191   9.647 -0.18 -0.01    -0.021 A 
DOCKED: ATOM      7  C   UNL d   1      -3.036 -11.452   9.519 -0.18 -0.01    -0.025 A 
DOCKED: ATOM      8  C   UNL d   1      -2.994 -10.620  10.644 -0.20 +0.02    +0.066 A 
DOCKED: ATOM      9  C   UNL d   1      -1.997 -11.515   8.389 -0.23 +0.01    +0.051 C 
DOCKED: ATOM     10  C   UNL d   1      -1.851  -8.868  11.931 -0.22 +0.01    +0.066 A 
DOCKED: ATOM     11  C   UNL d   1      -0.872  -7.865  12.101 -0.24 -0.00    -0.021 A 
DOCKED: ATOM     12  C   UNL d   1      -1.130  -7.269  13.339 -0.25 +0.00    +0.000 A 
DOCKED: ATOM     13  C   UNL d   1      -2.250  -7.943  13.825 -0.13 +0.01    +0.070 A 
DOCKED: ATOM     14  C   UNL d   1       0.170  -7.455  11.092 -0.29 +0.00    +0.052 C 
DOCKED: ATOM     15  C   UNL d   1      -3.875  -8.326  15.722 -0.14 +0.01    +0.066 A 
DOCKED: ATOM     16  C   UNL d   1      -4.261  -8.120  17.039 -0.11 -0.00    -0.021 A 
DOCKED: ATOM     17  C   UNL d   1      -5.364  -8.960  17.248 -0.12 +0.00    +0.000 A 
DOCKED: ATOM     18  C   UNL d   1      -5.576  -9.601  16.032 -0.10 +0.04    +0.070 A 
DOCKED: ATOM     19  C   UNL d   1      -3.592  -7.174  18.012 -0.07 -0.00    +0.052 C 
DOCKED: ATOM     20  C   UNL d   1      -6.764 -11.304  14.600 -0.19 +0.04    +0.066 A 
DOCKED: ATOM     21  C   UNL d   1      -7.758 -12.270  14.459 -0.27 -0.01    -0.025 A 
DOCKED: ATOM     22  C   UNL d   1      -7.607 -12.776  13.180 -0.31 -0.01    -0.021 A 
DOCKED: ATOM     23  C   UNL d   1      -6.512 -12.096  12.605 -0.27 +0.04    +0.066 A 
DOCKED: ATOM     24  C   UNL d   1      -8.788 -12.705  15.497 -0.21 +0.02    +0.051 C 
DOCKED: ATOM     25  N   UNL d   1      -4.079 -10.804  11.484 -0.13 -0.10    -0.248 N 
DOCKED: ATOM     26  N   UNL d   1      -2.719  -8.870  12.948 -0.09 -0.07    -0.248 N 
DOCKED: ATOM     27  N   UNL d   1      -4.652  -9.221  15.156 -0.09 -0.13    -0.248 N 
DOCKED: ATOM     28  N   UNL d   1      -5.998 -11.206  13.462 -0.13 -0.16    -0.248 N 
DOCKED: ATOM     29 FE   UNL d   1      -4.386  -9.968  13.429 -0.05 +0.00    +0.000 Fe
DOCKED: ENDROOT
DOCKED: BRANCH   6  30
DOCKED: ATOM     30  C   UNL d   1      -4.676 -13.294   8.710 -0.17 +0.03    +0.052 C 
DOCKED: BRANCH  30  31
DOCKED: ATOM     31  C   UNL d   1      -5.894 -12.830   7.912 -0.29 +0.09    +0.115 C 
DOCKED: BRANCH  31  32
DOCKED: ATOM     32  C   UNL d   1      -6.698 -13.987   7.360 -0.30 +0.18    +0.139 C 
DOCKED: ATOM     33  O   UNL d   1      -7.225 -13.884   6.262 -0.06 -1.17    -0.650 OA
DOCKED: BRANCH  32  34
DOCKED: ATOM     34  O   UNL d   1      -6.817 -15.159   8.025 -0.22 -1.25    -0.776 OA
DOCKED: ATOM     35  H   UNL d   1      -6.571 -15.287   8.952 +0.03 +0.20    +0.167 HD
DOCKED: ENDBRANCH  32  34
DOCKED: ENDBRANCH  31  32
DOCKED: ENDBRANCH  30  31
DOCKED: ENDBRANCH   6  30
DOCKED: BRANCH  29  36
DOCKED: ATOM     36  C   UNL d   1      -3.161 -11.504  14.159 -0.04 +0.05    +0.190 C 
DOCKED: BRANCH  36  37
DOCKED: ATOM     37  O   UNL d   1      -2.656 -12.771  13.847 +0.00 -0.08    -0.399 OA
DOCKED: ATOM     38  H   UNL d   1      -3.212 -13.086  13.080 +0.02 +0.05    +0.209 HD
DOCKED: ENDBRANCH  36  37
DOCKED: ENDBRANCH  29  36
DOCKED: BRANCH  22  39
DOCKED: ATOM     39  C   UNL d   1      -8.431 -13.897  12.575 -0.15 +0.03    +0.052 C 
DOCKED: BRANCH  39  40
DOCKED: ATOM     40  C   UNL d   1      -7.775 -15.260  12.846 -0.18 +0.05    +0.115 C 
DOCKED: BRANCH  40  41
DOCKED: ATOM     41  C   UNL d   1      -7.025 -15.838  11.665 -0.12 +0.08    +0.139 C 
DOCKED: ATOM     42  O   UNL d   1      -6.776 -17.035  11.642 +0.02 -0.39    -0.650 OA
DOCKED: BRANCH  41  43
DOCKED: ATOM     43  O   UNL d   1      -6.698 -15.084  10.592 +0.01 -0.54    -0.776 OA
DOCKED: ATOM     44  H   UNL d   1      -7.361 -14.626  10.058 -0.23 +0.14    +0.167 HD
DOCKED: ENDBRANCH  41  43
DOCKED: ENDBRANCH  40  41
DOCKED: ENDBRANCH  39  40
DOCKED: ENDBRANCH  22  39
DOCKED: BRANCH  12  45
DOCKED: ATOM     45  C   UNL d   1      -0.461  -6.135  14.105 -0.33 +0.00    +0.004 C 
DOCKED: ATOM     46  C   UNL d   1      -0.445  -4.825  13.872 -0.39 -0.00    +0.012 C 
DOCKED: ENDBRANCH  12  45
DOCKED: BRANCH  17  47
DOCKED: ATOM     47  C   UNL d   1      -6.153  -9.207  18.491 -0.07 +0.00    +0.004 C 
DOCKED: ATOM     48  C   UNL d   1      -7.417  -8.810  18.654 -0.11 -0.00    +0.012 C 
DOCKED: ENDBRANCH  17  47
DOCKED: TORSDOF 12
DOCKED: TER
DOCKED: ENDMDL
________________________________________________________________________________


	BEGINNING GENETIC ALGORITHM DOCKING 98 of 100
Run: 98 Seed: 743523431 1824841108 [ Run 98 of 100 GA/GALS ]
Beginning LAMARCKIAN GENETIC ALGORITHM (LGA), with a maximum of 25000000 energy evaluations.

Final-Value: -9.950


	FINAL GENETIC ALGORITHM DOCKED STATE
	_______________________________________________


Detailed state:  trans 19.273 4.276 -1.771 quatxyzw 0.343160 0.183299 0.669390 0.632898 center 8.781 34.984 -0.736 ntor 12 -153.6799 109.9022 -53.7010 130.3587 133.6259 143.7730 -134.5806 6.8706 -120.9568 -59.5953 -31.3078 -13.3331
State:	 19.273   4.276  -1.771   0.443  0.237  0.865 101.472   -153.68  109.90  -53.70  130.36  133.63  143.77 -134.58    6.87 -120.96  -59.60  -31.31  -13.33

DOCKED: MODEL       98
DOCKED: USER    Run = 98
DOCKED: USER    DPF = D:/Protein_go_brrr/autodock/final/AncB/heme_Co/dock.dpf
DOCKED: USER  
DOCKED: USER    Estimated Free Energy of Binding    =   -5.66 kcal/mol  [=(1)+(2)+(3)-(4)]
DOCKED: USER    Estimated Inhibition Constant, Ki   =   70.53 uM (micromolar)  [Temperature = 298.15 K]
DOCKED: USER    
DOCKED: USER    (1) Final Intermolecular Energy     =   -9.24 kcal/mol
DOCKED: USER        vdW + Hbond + desolv Energy     =   -6.90 kcal/mol
DOCKED: USER        Electrostatic Energy            =   -2.34 kcal/mol
DOCKED: USER    (2) Final Total Internal Energy     =   -0.71 kcal/mol
DOCKED: USER    (3) Torsional Free Energy           =   +3.58 kcal/mol
DOCKED: USER    (4) Unbound System's Energy  [=(2)] =   -0.71 kcal/mol
DOCKED: USER    
DOCKED: USER    
DOCKED: USER    NEWDPF move heme_Co_opt.pdbqt
DOCKED: USER    NEWDPF about 8.781000 34.984000 -0.736000
DOCKED: USER    NEWDPF tran0 19.273280 4.276047 -1.770723
DOCKED: USER    NEWDPF quaternion0 0.343160 0.183299 0.669390 0.632898
DOCKED: USER    NEWDPF axisangle0 0.443225 0.236748 0.864582 101.471539
DOCKED: USER    NEWDPF quat0 0.443225 0.236748 0.864582 101.471539
DOCKED: USER    NEWDPF dihe0 -153.68 109.90 -53.70 130.36 133.63 143.77 -134.58 6.87 -120.96 -59.60 -31.31 -13.33 
DOCKED: USER  keepresnum = 1 
DOCKED: USER  
DOCKED: REMARK  12 active torsions:
DOCKED: REMARK  status: ('A' for Active; 'I' for Inactive)
DOCKED: REMARK    1  A    between atoms: C_6  and  C_10 
DOCKED: REMARK    2  A    between atoms: C_10  and  C_11 
DOCKED: REMARK    3  A    between atoms: C_11  and  C_12 
DOCKED: REMARK    4  A    between atoms: C_12  and  O_14 
DOCKED: REMARK    5  A    between atoms: C_17  and  C_20 
DOCKED: REMARK    6  A    between atoms: C_24  and  C_27 
DOCKED: REMARK    7  A    between atoms: C_31  and  C_34 
DOCKED: REMARK    8  A    between atoms: C_34  and  C_35 
DOCKED: REMARK    9  A    between atoms: C_35  and  C_36 
DOCKED: REMARK   10  A    between atoms: C_36  and  O_38 
DOCKED: REMARK   11  A    between atoms: FE_43  and  C_44 
DOCKED: REMARK   12  A    between atoms: C_44  and  O_45 
DOCKED: USER                              x       y       z     vdW  Elec       q    Type
DOCKED: USER                           _______ _______ _______ _____ _____    ______ ____
DOCKED: ROOT
DOCKED: ATOM      1  C   UNL d   1      19.495   5.029  -3.796 -0.14 +0.02    +0.064 A 
DOCKED: ATOM      2  C   UNL d   1      17.802   7.009   0.182 -0.08 +0.01    +0.064 C 
DOCKED: ATOM      3  C   UNL d   1      18.299   2.863   2.503 -0.17 +0.00    +0.064 A 
DOCKED: ATOM      4  C   UNL d   1      20.390   0.923  -1.437 -0.12 +0.01    +0.064 A 
DOCKED: ATOM      5  C   UNL d   1      18.962   5.865  -2.889 -0.17 +0.02    +0.066 A 
DOCKED: ATOM      6  C   UNL d   1      18.728   7.224  -3.173 -0.17 -0.01    -0.021 A 
DOCKED: ATOM      7  C   UNL d   1      18.258   7.799  -2.009 -0.20 -0.01    -0.025 A 
DOCKED: ATOM      8  C   UNL d   1      18.210   6.764  -1.070 -0.17 +0.01    +0.066 A 
DOCKED: ATOM      9  C   UNL d   1      17.866   9.266  -1.774 -0.20 +0.01    +0.051 C 
DOCKED: ATOM     10  C   UNL d   1      17.694   6.003   1.208 -0.21 +0.00    +0.066 A 
DOCKED: ATOM     11  C   UNL d   1      17.142   6.168   2.497 -0.21 -0.00    -0.021 A 
DOCKED: ATOM     12  C   UNL d   1      17.296   4.942   3.151 -0.21 +0.00    +0.000 A 
DOCKED: ATOM     13  C   UNL d   1      17.918   4.119   2.212 -0.22 +0.00    +0.070 A 
DOCKED: ATOM     14  C   UNL d   1      16.432   7.393   3.014 -0.18 +0.01    +0.052 C 
DOCKED: ATOM     15  C   UNL d   1      18.995   1.897   1.676 -0.15 +0.00    +0.066 A 
DOCKED: ATOM     16  C   UNL d   1      19.488   0.667   2.085 -0.10 -0.00    -0.021 A 
DOCKED: ATOM     17  C   UNL d   1      20.095   0.104   0.953 -0.10 +0.00    +0.000 A 
DOCKED: ATOM     18  C   UNL d   1      19.907   1.033  -0.066 -0.14 +0.01    +0.070 A 
DOCKED: ATOM     19  C   UNL d   1      19.372   0.095   3.481 -0.06 +0.00    +0.052 C 
DOCKED: ATOM     20  C   UNL d   1      20.295   1.849  -2.421 -0.01 +0.01    +0.066 A 
DOCKED: ATOM     21  C   UNL d   1      20.831   1.642  -3.691 -0.02 -0.01    -0.025 A 
DOCKED: ATOM     22  C   UNL d   1      20.562   2.798  -4.401 -0.07 -0.01    -0.021 A 
DOCKED: ATOM     23  C   UNL d   1      19.882   3.664  -3.519 -0.02 +0.02    +0.066 A 
DOCKED: ATOM     24  C   UNL d   1      21.579   0.412  -4.197 -0.08 +0.01    +0.051 C 
DOCKED: ATOM     25  N   UNL d   1      18.634   5.553  -1.589 -0.10 -0.01    -0.248 N 
DOCKED: ATOM     26  N   UNL d   1      18.107   4.745   1.019 -0.17 +0.00    -0.248 N 
DOCKED: ATOM     27  N   UNL d   1      19.276   2.101   0.408 -0.12 -0.01    -0.248 N 
DOCKED: ATOM     28  N   UNL d   1      19.720   3.094  -2.319 -0.01 -0.05    -0.248 N 
DOCKED: ATOM     29 FE   UNL d   1      18.975   3.723  -0.535 -0.04 +0.00    +0.000 Fe
DOCKED: ENDROOT
DOCKED: BRANCH   6  30
DOCKED: ATOM     30  C   UNL d   1      19.025   7.944  -4.485 -0.20 +0.02    +0.052 C 
DOCKED: BRANCH  30  31
DOCKED: ATOM     31  C   UNL d   1      18.385   7.205  -5.660 -0.23 +0.08    +0.115 C 
DOCKED: BRANCH  31  32
DOCKED: ATOM     32  C   UNL d   1      16.889   7.045  -5.496 -0.34 +0.16    +0.139 C 
DOCKED: ATOM     33  O   UNL d   1      16.137   7.852  -6.022 -0.34 -0.63    -0.650 OA
DOCKED: BRANCH  32  34
DOCKED: ATOM     34  O   UNL d   1      16.347   6.005  -4.820 -0.46 -0.79    -0.776 OA
DOCKED: ATOM     35  H   UNL d   1      15.441   5.691  -4.941 -0.38 +0.15    +0.167 HD
DOCKED: ENDBRANCH  32  34
DOCKED: ENDBRANCH  31  32
DOCKED: ENDBRANCH  30  31
DOCKED: ENDBRANCH   6  30
DOCKED: BRANCH  29  36
DOCKED: ATOM     36  C   UNL d   1      20.845   4.508  -0.004 -0.03 +0.02    +0.190 C 
DOCKED: BRANCH  36  37
DOCKED: ATOM     37  O   UNL d   1      21.732   5.555  -0.276 -0.00 -0.05    -0.399 OA
DOCKED: ATOM     38  H   UNL d   1      21.302   6.069  -1.015 +0.02 +0.03    +0.209 HD
DOCKED: ENDBRANCH  36  37
DOCKED: ENDBRANCH  29  36
DOCKED: BRANCH  22  39
DOCKED: ATOM     39  C   UNL d   1      20.996   3.074  -5.829 -0.08 +0.02    +0.052 C 
DOCKED: BRANCH  39  40
DOCKED: ATOM     40  C   UNL d   1      19.949   2.551  -6.825 -0.13 +0.06    +0.115 C 
DOCKED: BRANCH  40  41
DOCKED: ATOM     41  C   UNL d   1      19.263   3.631  -7.635 -0.08 +0.15    +0.139 C 
DOCKED: ATOM     42  O   UNL d   1      18.951   3.402  -8.795 -0.22 -0.65    -0.650 OA
DOCKED: BRANCH  41  43
DOCKED: ATOM     43  O   UNL d   1      18.908   4.814  -7.085 -0.37 -1.21    -0.776 OA
DOCKED: ATOM     44  H   UNL d   1      18.442   4.875  -6.241 +0.06 +0.26    +0.167 HD
DOCKED: ENDBRANCH  41  43
DOCKED: ENDBRANCH  40  41
DOCKED: ENDBRANCH  39  40
DOCKED: ENDBRANCH  22  39
DOCKED: BRANCH  12  45
DOCKED: ATOM     45  C   UNL d   1      16.913   4.451   4.541 -0.16 +0.00    +0.004 C 
DOCKED: ATOM     46  C   UNL d   1      16.138   3.437   4.918 -0.15 +0.00    +0.012 C 
DOCKED: ENDBRANCH  12  45
DOCKED: BRANCH  17  47
DOCKED: ATOM     47  C   UNL d   1      20.846  -1.178   0.811 -0.07 +0.00    +0.004 C 
DOCKED: ATOM     48  C   UNL d   1      20.400  -2.220   0.105 -0.11 +0.00    +0.012 C 
DOCKED: ENDBRANCH  17  47
DOCKED: TORSDOF 12
DOCKED: TER
DOCKED: ENDMDL
________________________________________________________________________________


	BEGINNING GENETIC ALGORITHM DOCKING 99 of 100
Run: 99 Seed: 666157402 974210696 [ Run 99 of 100 GA/GALS ]
Beginning LAMARCKIAN GENETIC ALGORITHM (LGA), with a maximum of 25000000 energy evaluations.

Final-Value: -12.335


	FINAL GENETIC ALGORITHM DOCKED STATE
	_______________________________________________


Detailed state:  trans -7.479 -1.151 -13.050 quatxyzw -0.485790 -0.232289 -0.743635 -0.396304 center 8.781 34.984 -0.736 ntor 12 -165.9017 122.6024 -47.3298 114.9028 71.2856 133.9428 35.2097 -179.9839 177.2196 -33.1559 -177.3876 175.5679
State:	 -7.479  -1.151 -13.050  -0.529 -0.253 -0.810 -133.305   -165.90  122.60  -47.33  114.90   71.29  133.94   35.21 -179.98  177.22  -33.16 -177.39  175.57

DOCKED: MODEL       99
DOCKED: USER    Run = 99
DOCKED: USER    DPF = D:/Protein_go_brrr/autodock/final/AncB/heme_Co/dock.dpf
DOCKED: USER  
DOCKED: USER    Estimated Free Energy of Binding    =   -6.66 kcal/mol  [=(1)+(2)+(3)-(4)]
DOCKED: USER    Estimated Inhibition Constant, Ki   =   13.23 uM (micromolar)  [Temperature = 298.15 K]
DOCKED: USER    
DOCKED: USER    (1) Final Intermolecular Energy     =  -10.23 kcal/mol
DOCKED: USER        vdW + Hbond + desolv Energy     =   -6.23 kcal/mol
DOCKED: USER        Electrostatic Energy            =   -4.00 kcal/mol
DOCKED: USER    (2) Final Total Internal Energy     =   -2.10 kcal/mol
DOCKED: USER    (3) Torsional Free Energy           =   +3.58 kcal/mol
DOCKED: USER    (4) Unbound System's Energy  [=(2)] =   -2.10 kcal/mol
DOCKED: USER    
DOCKED: USER    
DOCKED: USER    NEWDPF move heme_Co_opt.pdbqt
DOCKED: USER    NEWDPF about 8.781000 34.984000 -0.736000
DOCKED: USER    NEWDPF tran0 -7.478691 -1.150526 -13.049797
DOCKED: USER    NEWDPF quaternion0 -0.485790 -0.232289 -0.743635 -0.396304
DOCKED: USER    NEWDPF axisangle0 -0.529114 -0.253005 -0.809955 -133.305334
DOCKED: USER    NEWDPF quat0 -0.529114 -0.253005 -0.809955 -133.305334
DOCKED: USER    NEWDPF dihe0 -165.90 122.60 -47.33 114.90 71.29 133.94 35.21 -179.98 177.22 -33.16 -177.39 175.57 
DOCKED: USER  keepresnum = 1 
DOCKED: USER  
DOCKED: REMARK  12 active torsions:
DOCKED: REMARK  status: ('A' for Active; 'I' for Inactive)
DOCKED: REMARK    1  A    between atoms: C_6  and  C_10 
DOCKED: REMARK    2  A    between atoms: C_10  and  C_11 
DOCKED: REMARK    3  A    between atoms: C_11  and  C_12 
DOCKED: REMARK    4  A    between atoms: C_12  and  O_14 
DOCKED: REMARK    5  A    between atoms: C_17  and  C_20 
DOCKED: REMARK    6  A    between atoms: C_24  and  C_27 
DOCKED: REMARK    7  A    between atoms: C_31  and  C_34 
DOCKED: REMARK    8  A    between atoms: C_34  and  C_35 
DOCKED: REMARK    9  A    between atoms: C_35  and  C_36 
DOCKED: REMARK   10  A    between atoms: C_36  and  O_38 
DOCKED: REMARK   11  A    between atoms: FE_43  and  C_44 
DOCKED: REMARK   12  A    between atoms: C_44  and  O_45 
DOCKED: USER                              x       y       z     vdW  Elec       q    Type
DOCKED: USER                           _______ _______ _______ _____ _____    ______ ____
DOCKED: ROOT
DOCKED: ATOM      1  C   UNL d   1      -7.116  -1.356 -15.181 -0.04 +0.06    +0.064 A 
DOCKED: ATOM      2  C   UNL d   1      -7.542   2.452 -12.365 -0.10 +0.04    +0.064 C 
DOCKED: ATOM      3  C   UNL d   1      -8.633  -0.362  -8.661 -0.14 +0.02    +0.064 A 
DOCKED: ATOM      4  C   UNL d   1      -7.826  -4.286 -11.421 -0.21 +0.04    +0.064 A 
DOCKED: ATOM      5  C   UNL d   1      -7.188  -0.107 -14.692 -0.02 +0.05    +0.066 A 
DOCKED: ATOM      6  C   UNL d   1      -6.859   1.020 -15.471 -0.02 -0.02    -0.021 A 
DOCKED: ATOM      7  C   UNL d   1      -6.963   2.120 -14.643 -0.06 -0.02    -0.025 A 
DOCKED: ATOM      8  C   UNL d   1      -7.365   1.620 -13.400 -0.05 +0.05    +0.066 A 
DOCKED: ATOM      9  C   UNL d   1      -6.696   3.592 -14.993 -0.08 +0.06    +0.051 C 
DOCKED: ATOM     10  C   UNL d   1      -7.980   2.032 -11.057 -0.08 +0.03    +0.066 A 
DOCKED: ATOM     11  C   UNL d   1      -8.319   2.869  -9.972 -0.15 -0.01    -0.021 A 
DOCKED: ATOM     12  C   UNL d   1      -8.637   2.023  -8.907 -0.18 +0.00    +0.000 A 
DOCKED: ATOM     13  C   UNL d   1      -8.481   0.736  -9.422 -0.10 +0.02    +0.070 A 
DOCKED: ATOM     14  C   UNL d   1      -8.419   4.373 -10.002 -0.17 +0.02    +0.052 C 
DOCKED: ATOM     15  C   UNL d   1      -8.460  -1.758  -9.015 -0.14 +0.02    +0.066 A 
DOCKED: ATOM     16  C   UNL d   1      -8.491  -2.837  -8.144 -0.25 -0.01    -0.021 A 
DOCKED: ATOM     17  C   UNL d   1      -8.256  -3.971  -8.935 -0.29 +0.00    +0.000 A 
DOCKED: ATOM     18  C   UNL d   1      -8.117  -3.493 -10.233 -0.17 +0.03    +0.070 A 
DOCKED: ATOM     19  C   UNL d   1      -8.730  -2.755  -6.652 -0.39 +0.01    +0.052 C 
DOCKED: ATOM     20  C   UNL d   1      -7.601  -3.835 -12.679 -0.14 +0.05    +0.066 A 
DOCKED: ATOM     21  C   UNL d   1      -7.294  -4.693 -13.732 -0.16 -0.02    -0.025 A 
DOCKED: ATOM     22  C   UNL d   1      -7.112  -3.879 -14.836 -0.10 -0.02    -0.021 A 
DOCKED: ATOM     23  C   UNL d   1      -7.308  -2.553 -14.394 -0.07 +0.07    +0.066 A 
DOCKED: ATOM     24  C   UNL d   1      -7.160  -6.213 -13.687 -0.27 +0.03    +0.051 C 
DOCKED: ATOM     25  N   UNL d   1      -7.518   0.244 -13.403 -0.01 -0.18    -0.248 N 
DOCKED: ATOM     26  N   UNL d   1      -8.139   0.743 -10.738 -0.02 -0.11    -0.248 N 
DOCKED: ATOM     27  N   UNL d   1      -8.215  -2.168 -10.239 -0.06 -0.11    -0.248 N 
DOCKED: ATOM     28  N   UNL d   1      -7.601  -2.522 -13.088 -0.05 -0.21    -0.248 N 
DOCKED: ATOM     29 FE   UNL d   1      -7.887  -1.037 -11.729 -0.02 +0.00    +0.000 Fe
DOCKED: ENDROOT
DOCKED: BRANCH   6  30
DOCKED: ATOM     30  C   UNL d   1      -6.389   1.018 -16.922 -0.01 +0.04    +0.052 C 
DOCKED: BRANCH  30  31
DOCKED: ATOM     31  C   UNL d   1      -4.863   1.001 -16.991 -0.02 +0.11    +0.115 C 
DOCKED: BRANCH  31  32
DOCKED: ATOM     32  C   UNL d   1      -4.221   1.106 -15.625 -0.08 +0.19    +0.139 C 
DOCKED: ATOM     33  O   UNL d   1      -3.885   2.202 -15.200 -0.54 -1.33    -0.650 OA
DOCKED: BRANCH  32  34
DOCKED: ATOM     34  O   UNL d   1      -4.048   0.025 -14.829 +0.03 -1.48    -0.776 OA
DOCKED: ATOM     35  H   UNL d   1      -3.772   0.070 -13.903 +0.03 +0.34    +0.167 HD
DOCKED: ENDBRANCH  32  34
DOCKED: ENDBRANCH  31  32
DOCKED: ENDBRANCH  30  31
DOCKED: ENDBRANCH   6  30
DOCKED: BRANCH  29  36
DOCKED: ATOM     36  C   UNL d   1      -5.826  -0.952 -11.354 -0.12 +0.18    +0.190 C 
DOCKED: BRANCH  36  37
DOCKED: ATOM     37  O   UNL d   1      -4.595  -0.676 -11.956 -0.26 -0.63    -0.399 OA
DOCKED: ATOM     38  H   UNL d   1      -4.825  -0.290 -12.847 +0.04 +0.35    +0.209 HD
DOCKED: ENDBRANCH  36  37
DOCKED: ENDBRANCH  29  36
DOCKED: BRANCH  22  39
DOCKED: ATOM     39  C   UNL d   1      -6.709  -4.350 -16.220 -0.10 +0.05    +0.052 C 
DOCKED: BRANCH  39  40
DOCKED: ATOM     40  C   UNL d   1      -5.184  -4.526 -16.311 -0.07 +0.16    +0.115 C 
DOCKED: BRANCH  40  41
DOCKED: ATOM     41  C   UNL d   1      -4.741  -5.729 -17.117 -0.18 +0.19    +0.139 C 
DOCKED: ATOM     42  O   UNL d   1      -5.336  -6.789 -16.986 -0.38 -1.21    -0.650 OA
DOCKED: BRANCH  41  43
DOCKED: ATOM     43  O   UNL d   1      -3.760  -5.642 -18.042 -0.00 -1.05    -0.776 OA
DOCKED: ATOM     44  H   UNL d   1      -3.682  -4.892 -18.647 +0.03 +0.17    +0.167 HD
DOCKED: ENDBRANCH  41  43
DOCKED: ENDBRANCH  40  41
DOCKED: ENDBRANCH  39  40
DOCKED: ENDBRANCH  22  39
DOCKED: BRANCH  12  45
DOCKED: ATOM     45  C   UNL d   1      -9.086   2.280  -7.474 -0.23 +0.00    +0.004 C 
DOCKED: ATOM     46  C   UNL d   1     -10.276   2.131  -6.900 -0.26 +0.00    +0.012 C 
DOCKED: ENDBRANCH  12  45
DOCKED: BRANCH  17  47
DOCKED: ATOM     47  C   UNL d   1      -8.114  -5.402  -8.532 -0.09 +0.00    +0.004 C 
DOCKED: ATOM     48  C   UNL d   1      -8.982  -6.035  -7.739 -0.50 +0.00    +0.012 C 
DOCKED: ENDBRANCH  17  47
DOCKED: TORSDOF 12
DOCKED: TER
DOCKED: ENDMDL
________________________________________________________________________________


	BEGINNING GENETIC ALGORITHM DOCKING 100 of 100
Run: 100 Seed: 1606164900 998233757 [ Run 100 of 100 GA/GALS ]
Beginning LAMARCKIAN GENETIC ALGORITHM (LGA), with a maximum of 25000000 energy evaluations.

Final-Value: -12.979


	FINAL GENETIC ALGORITHM DOCKED STATE
	_______________________________________________


Detailed state:  trans -7.743 -1.497 -12.669 quatxyzw 0.458057 0.222946 0.768209 0.387730 center 8.781 34.984 -0.736 ntor 12 -133.3151 131.0175 -8.5509 91.0077 105.4373 128.3796 12.0870 -9.1382 -169.0057 -32.7266 165.6336 179.7790
State:	 -7.743  -1.497 -12.669   0.497  0.242  0.833 134.373   -133.32  131.02   -8.55   91.01  105.44  128.38   12.09   -9.14 -169.01  -32.73  165.63  179.78

DOCKED: MODEL      100
DOCKED: USER    Run = 100
DOCKED: USER    DPF = D:/Protein_go_brrr/autodock/final/AncB/heme_Co/dock.dpf
DOCKED: USER  
DOCKED: USER    Estimated Free Energy of Binding    =   -7.61 kcal/mol  [=(1)+(2)+(3)-(4)]
DOCKED: USER    Estimated Inhibition Constant, Ki   =    2.63 uM (micromolar)  [Temperature = 298.15 K]
DOCKED: USER    
DOCKED: USER    (1) Final Intermolecular Energy     =  -11.19 kcal/mol
DOCKED: USER        vdW + Hbond + desolv Energy     =   -6.82 kcal/mol
DOCKED: USER        Electrostatic Energy            =   -4.37 kcal/mol
DOCKED: USER    (2) Final Total Internal Energy     =   -1.79 kcal/mol
DOCKED: USER    (3) Torsional Free Energy           =   +3.58 kcal/mol
DOCKED: USER    (4) Unbound System's Energy  [=(2)] =   -1.79 kcal/mol
DOCKED: USER    
DOCKED: USER    
DOCKED: USER    NEWDPF move heme_Co_opt.pdbqt
DOCKED: USER    NEWDPF about 8.781000 34.984000 -0.736000
DOCKED: USER    NEWDPF tran0 -7.742578 -1.497317 -12.668689
DOCKED: USER    NEWDPF quaternion0 0.458057 0.222946 0.768209 0.387730
DOCKED: USER    NEWDPF axisangle0 0.496930 0.241866 0.833403 134.373328
DOCKED: USER    NEWDPF quat0 0.496930 0.241866 0.833403 134.373328
DOCKED: USER    NEWDPF dihe0 -133.32 131.02 -8.55 91.01 105.44 128.38 12.09 -9.14 -169.01 -32.73 165.63 179.78 
DOCKED: USER  keepresnum = 1 
DOCKED: USER  
DOCKED: REMARK  12 active torsions:
DOCKED: REMARK  status: ('A' for Active; 'I' for Inactive)
DOCKED: REMARK    1  A    between atoms: C_6  and  C_10 
DOCKED: REMARK    2  A    between atoms: C_10  and  C_11 
DOCKED: REMARK    3  A    between atoms: C_11  and  C_12 
DOCKED: REMARK    4  A    between atoms: C_12  and  O_14 
DOCKED: REMARK    5  A    between atoms: C_17  and  C_20 
DOCKED: REMARK    6  A    between atoms: C_24  and  C_27 
DOCKED: REMARK    7  A    between atoms: C_31  and  C_34 
DOCKED: REMARK    8  A    between atoms: C_34  and  C_35 
DOCKED: REMARK    9  A    between atoms: C_35  and  C_36 
DOCKED: REMARK   10  A    between atoms: C_36  and  O_38 
DOCKED: REMARK   11  A    between atoms: FE_43  and  C_44 
DOCKED: REMARK   12  A    between atoms: C_44  and  O_45 
DOCKED: USER                              x       y       z     vdW  Elec       q    Type
DOCKED: USER                           _______ _______ _______ _____ _____    ______ ____
DOCKED: ROOT
DOCKED: ATOM      1  C   UNL d   1      -7.253  -1.632 -14.780 -0.05 +0.06    +0.064 A 
DOCKED: ATOM      2  C   UNL d   1      -7.751   2.077 -11.846 -0.09 +0.04    +0.064 C 
DOCKED: ATOM      3  C   UNL d   1      -9.146  -0.843  -8.331 -0.14 +0.02    +0.064 A 
DOCKED: ATOM      4  C   UNL d   1      -8.275  -4.681 -11.191 -0.23 +0.03    +0.064 A 
DOCKED: ATOM      5  C   UNL d   1      -7.322  -0.401 -14.248 -0.03 +0.05    +0.066 A 
DOCKED: ATOM      6  C   UNL d   1      -6.915   0.745 -14.959 -0.03 -0.02    -0.021 A 
DOCKED: ATOM      7  C   UNL d   1      -7.040   1.815 -14.095 -0.06 -0.02    -0.025 A 
DOCKED: ATOM      8  C   UNL d   1      -7.532   1.280 -12.900 -0.04 +0.05    +0.066 A 
DOCKED: ATOM      9  C   UNL d   1      -6.711   3.291 -14.370 -0.08 +0.06    +0.051 C 
DOCKED: ATOM     10  C   UNL d   1      -8.280   1.621 -10.586 -0.07 +0.03    +0.066 A 
DOCKED: ATOM     11  C   UNL d   1      -8.663   2.425  -9.490 -0.14 -0.01    -0.021 A 
DOCKED: ATOM     12  C   UNL d   1      -9.070   1.549  -8.481 -0.19 +0.00    +0.000 A 
DOCKED: ATOM     13  C   UNL d   1      -8.917   0.278  -9.037 -0.10 +0.02    +0.070 A 
DOCKED: ATOM     14  C   UNL d   1      -8.720   3.931  -9.467 -0.17 +0.02    +0.052 C 
DOCKED: ATOM     15  C   UNL d   1      -8.990  -2.228  -8.729 -0.14 +0.02    +0.066 A 
DOCKED: ATOM     16  C   UNL d   1      -9.103  -3.339  -7.905 -0.25 -0.01    -0.021 A 
DOCKED: ATOM     17  C   UNL d   1      -8.851  -4.448  -8.724 -0.33 +0.00    +0.000 A 
DOCKED: ATOM     18  C   UNL d   1      -8.619  -3.925  -9.992 -0.19 +0.03    +0.070 A 
DOCKED: ATOM     19  C   UNL d   1      -9.433  -3.306  -6.429 -0.41 +0.01    +0.052 C 
DOCKED: ATOM     20  C   UNL d   1      -7.961  -4.189 -12.413 -0.14 +0.04    +0.066 A 
DOCKED: ATOM     21  C   UNL d   1      -7.612  -5.015 -13.479 -0.17 -0.02    -0.025 A 
DOCKED: ATOM     22  C   UNL d   1      -7.340  -4.165 -14.536 -0.11 -0.02    -0.021 A 
DOCKED: ATOM     23  C   UNL d   1      -7.527  -2.852 -14.054 -0.08 +0.06    +0.066 A 
DOCKED: ATOM     24  C   UNL d   1      -7.522  -6.539 -13.487 -0.28 +0.03    +0.051 C 
DOCKED: ATOM     25  N   UNL d   1      -7.722  -0.090 -12.968 -0.01 -0.17    -0.248 N 
DOCKED: ATOM     26  N   UNL d   1      -8.493   0.326 -10.328 -0.02 -0.10    -0.248 N 
DOCKED: ATOM     27  N   UNL d   1      -8.680  -2.599  -9.951 -0.05 -0.10    -0.248 N 
DOCKED: ATOM     28  N   UNL d   1      -7.900  -2.862 -12.769 -0.04 -0.18    -0.248 N 
DOCKED: ATOM     29 FE   UNL d   1      -8.229  -1.422 -11.372 -0.02 +0.00    +0.000 Fe
DOCKED: ENDROOT
DOCKED: BRANCH   6  30
DOCKED: ATOM     30  C   UNL d   1      -6.356   0.784 -16.377 -0.02 +0.04    +0.052 C 
DOCKED: BRANCH  30  31
DOCKED: ATOM     31  C   UNL d   1      -4.871   1.145 -16.359 -0.04 +0.12    +0.115 C 
DOCKED: BRANCH  31  32
DOCKED: ATOM     32  C   UNL d   1      -4.295   1.152 -14.960 -0.10 +0.21    +0.139 C 
DOCKED: ATOM     33  O   UNL d   1      -3.851   2.192 -14.498 -0.52 -1.53    -0.650 OA
DOCKED: BRANCH  32  34
DOCKED: ATOM     34  O   UNL d   1      -4.299   0.048 -14.177 +0.10 -1.46    -0.776 OA
DOCKED: ATOM     35  H   UNL d   1      -4.518   0.050 -13.235 +0.03 +0.29    +0.167 HD
DOCKED: ENDBRANCH  32  34
DOCKED: ENDBRANCH  31  32
DOCKED: ENDBRANCH  30  31
DOCKED: ENDBRANCH   6  30
DOCKED: BRANCH  29  36
DOCKED: ATOM     36  C   UNL d   1      -6.194  -1.413 -10.868 -0.12 +0.15    +0.190 C 
DOCKED: BRANCH  36  37
DOCKED: ATOM     37  O   UNL d   1      -4.915  -1.230 -11.403 -0.30 -0.54    -0.399 OA
DOCKED: ATOM     38  H   UNL d   1      -5.064  -0.756 -12.269 +0.05 +0.33    +0.209 HD
DOCKED: ENDBRANCH  36  37
DOCKED: ENDBRANCH  29  36
DOCKED: BRANCH  22  39
DOCKED: ATOM     39  C   UNL d   1      -6.865  -4.595 -15.911 -0.11 +0.05    +0.052 C 
DOCKED: BRANCH  39  40
DOCKED: ATOM     40  C   UNL d   1      -5.361  -4.914 -15.890 -0.14 +0.15    +0.115 C 
DOCKED: BRANCH  40  41
DOCKED: ATOM     41  C   UNL d   1      -4.961  -6.101 -16.741 -0.20 +0.20    +0.139 C 
DOCKED: ATOM     42  O   UNL d   1      -4.047  -5.981 -17.545 -0.07 -1.00    -0.650 OA
DOCKED: BRANCH  41  43
DOCKED: ATOM     43  O   UNL d   1      -5.529  -7.316 -16.576 -0.35 -1.51    -0.776 OA
DOCKED: ATOM     44  H   UNL d   1      -6.189  -7.493 -15.893 +0.05 +0.19    +0.167 HD
DOCKED: ENDBRANCH  41  43
DOCKED: ENDBRANCH  40  41
DOCKED: ENDBRANCH  39  40
DOCKED: ENDBRANCH  22  39
DOCKED: BRANCH  12  45
DOCKED: ATOM     45  C   UNL d   1      -9.599   1.764  -7.070 -0.23 +0.00    +0.004 C 
DOCKED: ATOM     46  C   UNL d   1     -10.827   2.043  -6.638 -0.21 -0.00    +0.012 C 
DOCKED: ENDBRANCH  12  45
DOCKED: BRANCH  17  47
DOCKED: ATOM     47  C   UNL d   1      -8.773  -5.897  -8.371 -0.52 +0.00    +0.004 C 
DOCKED: ATOM     48  C   UNL d   1      -9.842  -6.692  -8.278 -0.46 +0.00    +0.012 C 
DOCKED: ENDBRANCH  17  47
DOCKED: TORSDOF 12
DOCKED: TER
DOCKED: ENDMDL
________________________________________________________________________________

DPF> analysis                             # perform a ranked cluster analysis


		CLUSTER ANALYSIS OF CONFORMATIONS
		_________________________________

Number of conformations = 100

RMSD cluster analysis will be performed using the ligand atoms only (48 / 48 total atoms).

Outputting structurally similar clusters, ranked in order of increasing energy.


________________________________________________________________________________

Number of distinct conformational clusters found = 33,  out of 100 runs,
Using an rmsd-tolerance of 2.0 A


	CLUSTERING HISTOGRAM
	____________________

________________________________________________________________________________
     |           |     |           |     |                                    
Clus | Lowest    | Run | Mean      | Num | Histogram                          
-ter | Binding   |     | Binding   | in  |                                    
Rank | Energy    |     | Energy    | Clus|    5    10   15   20   25   30   35
_____|___________|_____|___________|_____|____:____|____:____|____:____|____:___
   1 |     -8.81 |  62 |     -7.59 |  29 |#############################
   2 |     -8.25 |  38 |     -7.28 |   3 |###
   3 |     -7.96 |  19 |     -7.96 |   1 |#
   4 |     -7.82 |   7 |     -7.15 |   3 |###
   5 |     -7.82 |  65 |     -6.86 |  14 |##############
   6 |     -7.43 |  87 |     -6.84 |   3 |###
   7 |     -6.88 |  75 |     -6.88 |   1 |#
   8 |     -6.85 |  39 |     -6.81 |   2 |##
   9 |     -6.80 |  44 |     -6.61 |   2 |##
  10 |     -6.53 |  52 |     -5.63 |   9 |#########
  11 |     -6.46 |  15 |     -5.58 |   6 |######
  12 |     -6.44 |   6 |     -6.44 |   1 |#
  13 |     -6.24 |   4 |     -6.24 |   1 |#
  14 |     -6.24 |  94 |     -6.24 |   1 |#
  15 |     -6.16 |  54 |     -6.16 |   1 |#
  16 |     -6.11 |  70 |     -6.11 |   1 |#
  17 |     -6.09 |  46 |     -6.09 |   1 |#
  18 |     -6.00 |  92 |     -6.00 |   1 |#
  19 |     -5.76 |  85 |     -5.57 |   2 |##
  20 |     -5.73 |  34 |     -5.73 |   1 |#
  21 |     -5.56 |   1 |     -5.27 |   2 |##
  22 |     -5.54 |  27 |     -5.54 |   1 |#
  23 |     -5.48 |  58 |     -5.48 |   1 |#
  24 |     -5.30 |  84 |     -5.30 |   1 |#
  25 |     -5.22 |  26 |     -5.22 |   1 |#
  26 |     -4.90 |  22 |     -4.90 |   1 |#
  27 |     -4.81 |  17 |     -4.81 |   1 |#
  28 |     -4.71 |  79 |     -4.71 |   1 |#
  29 |     -4.63 |   8 |     -4.63 |   1 |#
  30 |     -4.32 |  77 |     -4.32 |   1 |#
  31 |     -3.99 |  37 |     -3.71 |   3 |###
  32 |     -3.95 |  96 |     -3.93 |   2 |##
  33 |     -3.70 |  50 |     -3.70 |   1 |#
_____|___________|_____|___________|_____|______________________________________


Number of multi-member conformational clusters found = 13, out of 100 runs.

	RMSD TABLE
	__________

_____________________________________________________________________
     |      |      |           |         |                 |
Rank | Sub- | Run  | Binding   | Cluster | Reference       | Grep
     | Rank |      | Energy    | RMSD    | RMSD            | Pattern
_____|______|______|___________|_________|_________________|___________
   1      1     62       -8.81      0.00     39.96           RANKING
   1      2     80       -8.61      0.68     39.94           RANKING
   1      3     60       -8.45      0.84     39.77           RANKING
   1      4     18       -8.44      0.53     39.83           RANKING
   1      5     71       -8.43      0.95     39.73           RANKING
   1      6     95       -8.35      0.77     39.86           RANKING
   1      7     93       -8.35      1.06     39.87           RANKING
   1      8     51       -8.21      0.83     40.01           RANKING
   1      9     61       -8.16      0.60     39.93           RANKING
   1     10     42       -8.14      1.05     39.81           RANKING
   1     11     53       -8.13      1.56     39.63           RANKING
   1     12     69       -8.12      1.05     39.68           RANKING
   1     13     35       -8.06      1.09     39.84           RANKING
   1     14     63       -7.88      1.56     39.64           RANKING
   1     15      9       -7.64      1.58     39.65           RANKING
   1     16    100       -7.61      1.58     39.73           RANKING
   1     17     66       -7.59      1.56     39.69           RANKING
   1     18     88       -7.48      1.67     39.51           RANKING
   1     19     31       -7.41      1.65     39.15           RANKING
   1     20     81       -7.26      1.66     39.45           RANKING
   1     21     11       -7.05      1.78     39.41           RANKING
   1     22     55       -6.67      1.13     39.54           RANKING
   1     23     99       -6.66      1.80     39.40           RANKING
   1     24     64       -6.59      1.12     39.51           RANKING
   1     25     10       -6.53      1.10     39.49           RANKING
   1     26     47       -6.38      1.16     39.75           RANKING
   1     27      3       -6.38      1.27     39.50           RANKING
   1     28      5       -6.33      1.34     39.36           RANKING
   1     29     23       -6.26      1.59     39.45           RANKING
   2      1     38       -8.25      0.00     37.83           RANKING
   2      2     59       -6.80      1.81     37.46           RANKING
   2      3     40       -6.79      1.82     37.40           RANKING
   3      1     19       -7.96      0.00     37.08           RANKING
   4      1      7       -7.82      0.00     48.42           RANKING
   4      2     72       -7.39      1.73     47.97           RANKING
   4      3     36       -6.24      1.37     47.83           RANKING
   5      1     65       -7.82      0.00     47.53           RANKING
   5      2     29       -7.55      0.63     47.32           RANKING
   5      3     28       -7.48      1.35     46.61           RANKING
   5      4      2       -7.48      0.60     47.23           RANKING
   5      5     25       -7.14      1.24     47.91           RANKING
   5      6     12       -7.11      0.49     47.59           RANKING
   5      7     67       -7.08      1.72     46.37           RANKING
   5      8     48       -6.93      1.41     46.50           RANKING
   5      9     97       -6.90      0.87     46.81           RANKING
   5     10     20       -6.77      1.58     48.53           RANKING
   5     11     16       -6.35      0.94     47.20           RANKING
   5     12     14       -5.96      1.46     46.67           RANKING
   5     13     73       -5.76      1.70     46.95           RANKING
   5     14     89       -5.72      1.56     46.65           RANKING
   6      1     87       -7.43      0.00     45.84           RANKING
   6      2     83       -6.77      1.80     45.93           RANKING
   6      3     30       -6.33      1.47     46.43           RANKING
   7      1     75       -6.88      0.00     38.72           RANKING
   8      1     39       -6.85      0.00     51.75           RANKING
   8      2     91       -6.76      1.45     51.73           RANKING
   9      1     44       -6.80      0.00     39.46           RANKING
   9      2     45       -6.43      0.45     39.51           RANKING
  10      1     52       -6.53      0.00     36.59           RANKING
  10      2     56       -6.44      0.62     36.60           RANKING
  10      3     68       -6.43      0.49     36.71           RANKING
  10      4     43       -6.01      0.57     36.83           RANKING
  10      5     33       -5.89      0.51     36.62           RANKING
  10      6     76       -5.89      0.38     36.66           RANKING
  10      7     90       -4.93      1.29     37.15           RANKING
  10      8     13       -4.74      0.93     36.72           RANKING
  10      9     78       -3.83      0.97     36.89           RANKING
  11      1     15       -6.46      0.00     31.33           RANKING
  11      2     24       -6.07      1.09     31.55           RANKING
  11      3     98       -5.66      1.54     30.02           RANKING
  11      4     74       -5.15      1.25     31.92           RANKING
  11      5     86       -5.14      1.08     32.15           RANKING
  11      6     41       -5.01      1.63     31.37           RANKING
  12      1      6       -6.44      0.00     36.54           RANKING
  13      1      4       -6.24      0.00     42.00           RANKING
  14      1     94       -6.24      0.00     53.84           RANKING
  15      1     54       -6.16      0.00     37.14           RANKING
  16      1     70       -6.11      0.00     46.44           RANKING
  17      1     46       -6.09      0.00     43.55           RANKING
  18      1     92       -6.00      0.00     40.21           RANKING
  19      1     85       -5.76      0.00     37.99           RANKING
  19      2     49       -5.38      1.51     37.50           RANKING
  20      1     34       -5.73      0.00     50.98           RANKING
  21      1      1       -5.56      0.00     40.82           RANKING
  21      2     32       -4.98      1.41     39.54           RANKING
  22      1     27       -5.54      0.00     48.90           RANKING
  23      1     58       -5.48      0.00     43.80           RANKING
  24      1     84       -5.30      0.00     56.01           RANKING
  25      1     26       -5.22      0.00     46.66           RANKING
  26      1     22       -4.90      0.00     37.52           RANKING
  27      1     17       -4.81      0.00     27.01           RANKING
  28      1     79       -4.71      0.00     40.15           RANKING
  29      1      8       -4.63      0.00     35.62           RANKING
  30      1     77       -4.32      0.00     29.64           RANKING
  31      1     37       -3.99      0.00     39.03           RANKING
  31      2     21       -3.58      1.32     38.40           RANKING
  31      3     82       -3.57      1.29     38.48           RANKING
  32      1     96       -3.95      0.00     32.47           RANKING
  32      2     57       -3.91      0.98     32.72           RANKING
  33      1     50       -3.70      0.00     56.21           RANKING
_______________________________________________________________________



	INFORMATION ENTROPY ANALYSIS FOR THIS CLUSTERING
	________________________________________________


Information entropy for this clustering = 0.60  (rmstol = 2.00 Angstrom)

_______________________________________________________________________


	STATISTICAL MECHANICAL ANALYSIS
	_______________________________


Partition function, Q =   101.09            at Temperature, T = 298.15 K
Free energy,        A ~ -2734.92 kcal/mol   at Temperature, T = 298.15 K
Internal energy,    U =    -6.44 kcal/mol   at Temperature, T = 298.15 K
Entropy,            S =     9.15 kcal/mol/K at Temperature, T = 298.15 K

_______________________________________________________________________


	LOWEST ENERGY DOCKED CONFORMATION from EACH CLUSTER
	___________________________________________________



Keeping original residue number (specified in the input PDBQ file) for outputting.

MODEL       62
USER    Run = 62
USER    Cluster Rank = 1
USER    Number of conformations in this cluster = 29
USER  
USER    RMSD from reference structure       = 39.958 A
USER  
USER    Estimated Free Energy of Binding    =   -8.81 kcal/mol  [=(1)+(2)+(3)-(4)]
USER    Estimated Inhibition Constant, Ki   =  349.28 nM (nanomolar)  [Temperature = 298.15 K]
USER    
USER    (1) Final Intermolecular Energy     =  -12.39 kcal/mol
USER        vdW + Hbond + desolv Energy     =   -8.47 kcal/mol
USER        Electrostatic Energy            =   -3.91 kcal/mol
USER    (2) Final Total Internal Energy     =   -0.51 kcal/mol
USER    (3) Torsional Free Energy           =   +3.58 kcal/mol
USER    (4) Unbound System's Energy  [=(2)] =   -0.51 kcal/mol
USER    
USER    
USER  
USER    DPF = D:/Protein_go_brrr/autodock/final/AncB/heme_Co/dock.dpf
USER    NEWDPF move	heme_Co_opt.pdbqt
USER    NEWDPF about	8.781000 34.984000 -0.736000
USER    NEWDPF tran0	-7.617591 -1.894593 -11.726277
USER    NEWDPF axisangle0	-0.036212 0.780768 -0.623770 109.064063
USER    NEWDPF quaternion0	-0.029493 0.635889 -0.508023 0.580248
USER    NEWDPF dihe0	1.25 94.65 78.03 134.05 115.62 81.43 178.52 83.94 41.19 -100.31 132.23 -52.34 
USER  
USER                              x       y       z    vdW   Elec        q     RMS 
ATOM      1  C   UNL d   1      -6.700  -2.144 -13.679 -0.09 +0.08    +0.064    39.958
ATOM      2  C   UNL d   1      -8.085  -5.272 -10.376 -0.37 +0.03    +0.064    39.958
ATOM      3  C   UNL d   1      -9.186  -1.700  -7.400 -0.21 +0.01    +0.064    39.958
ATOM      4  C   UNL d   1      -8.141   1.517 -10.896 -0.06 +0.03    +0.064    39.958
ATOM      5  C   UNL d   1      -6.964  -3.262 -12.982 -0.14 +0.07    +0.066    39.958
ATOM      6  C   UNL d   1      -6.833  -4.544 -13.549 -0.18 -0.02    -0.021    39.958
ATOM      7  C   UNL d   1      -7.258  -5.447 -12.594 -0.29 -0.02    -0.025    39.958
ATOM      8  C   UNL d   1      -7.614  -4.678 -11.480 -0.26 +0.04    +0.066    39.958
ATOM      9  C   UNL d   1      -7.334  -6.977 -12.711 -0.17 +0.02    +0.051    39.958
ATOM     10  C   UNL d   1      -8.451  -4.567  -9.174 -0.29 +0.03    +0.066    39.958
ATOM     11  C   UNL d   1      -8.819  -5.141  -7.937 -0.44 -0.01    -0.021    39.958
ATOM     12  C   UNL d   1      -9.131  -4.076  -7.087 -0.38 +0.00    +0.000    39.958
ATOM     13  C   UNL d   1      -8.919  -2.935  -7.860 -0.22 +0.02    +0.070    39.958
ATOM     14  C   UNL d   1      -8.775  -6.605  -7.586 -0.42 +0.02    +0.052    39.958
ATOM     15  C   UNL d   1      -9.076  -0.423  -8.077 -0.16 +0.02    +0.066    39.958
ATOM     16  C   UNL d   1      -9.506   0.805  -7.592 -0.24 -0.00    -0.021    39.958
ATOM     17  C   UNL d   1      -9.209   1.735  -8.598 -0.17 +0.00    +0.000    39.958
ATOM     18  C   UNL d   1      -8.604   1.002  -9.613 -0.09 +0.02    +0.070    39.958
ATOM     19  C   UNL d   1     -10.158   1.037  -6.248 -0.10 +0.00    +0.052    39.958
ATOM     20  C   UNL d   1      -7.629   0.810 -11.932 -0.05 +0.04    +0.066    39.958
ATOM     21  C   UNL d   1      -7.253   1.414 -13.130 -0.06 -0.02    -0.025    39.958
ATOM     22  C   UNL d   1      -6.806   0.386 -13.941 -0.05 -0.02    -0.021    39.958
ATOM     23  C   UNL d   1      -6.945  -0.804 -13.196 -0.06 +0.06    +0.066    39.958
ATOM     24  C   UNL d   1      -7.333   2.894 -13.492 -0.10 +0.04    +0.051    39.958
ATOM     25  N   UNL d   1      -7.436  -3.322 -11.690 -0.09 -0.17    -0.248    39.958
ATOM     26  N   UNL d   1      -8.455  -3.231  -9.104 -0.12 -0.09    -0.248    39.958
ATOM     27  N   UNL d   1      -8.569  -0.284  -9.281 -0.05 -0.08    -0.248    39.958
ATOM     28  N   UNL d   1      -7.445  -0.552 -11.980 -0.02 -0.17    -0.248    39.958
ATOM     29 FE   UNL d   1      -8.035  -1.710 -10.417 -0.03 +0.00    +0.000    39.958
ATOM     30  C   UNL d   1      -6.397  -4.869 -14.974 -0.14 +0.06    +0.052    39.958
ATOM     31  C   UNL d   1      -7.168  -6.075 -15.510 -0.12 +0.09    +0.115    39.958
ATOM     32  C   UNL d   1      -6.297  -6.997 -16.335 -0.09 +0.17    +0.139    39.958
ATOM     33  O   UNL d   1      -5.216  -7.356 -15.894 -0.51 -0.96    -0.650    39.958
ATOM     34  O   UNL d   1      -6.697  -7.479 -17.534 -0.28 -1.15    -0.776    39.958
ATOM     35  H   UNL d   1      -7.565  -7.310 -17.927 +0.02 +0.16    +0.167    39.958
ATOM     36  C   UNL d   1      -9.946  -1.908 -11.254 -0.02 +0.07    +0.190    39.958
ATOM     37  O   UNL d   1     -10.684  -1.663 -12.417 +0.00 -0.16    -0.399    39.958
ATOM     38  H   UNL d   1     -10.151  -0.987 -12.922 +0.01 +0.09    +0.209    39.958
ATOM     39  C   UNL d   1      -6.336   0.539 -15.375 -0.04 +0.05    +0.052    39.958
ATOM     40  C   UNL d   1      -5.314   1.682 -15.492 -0.07 +0.14    +0.115    39.958
ATOM     41  C   UNL d   1      -3.944   1.355 -14.937 -0.10 +0.22    +0.139    39.958
ATOM     42  O   UNL d   1      -3.350   2.195 -14.275 -0.41 -1.51    -0.650    39.958
ATOM     43  O   UNL d   1      -3.394   0.129 -15.078 -0.24 -1.42    -0.776    39.958
ATOM     44  H   UNL d   1      -2.908  -0.134 -15.871 +0.01 +0.27    +0.167    39.958
ATOM     45  C   UNL d   1      -9.583  -4.006  -5.634 -0.51 +0.00    +0.004    39.958
ATOM     46  C   UNL d   1      -9.072  -3.345  -4.599 -0.61 +0.00    +0.012    39.958
ATOM     47  C   UNL d   1      -9.502   3.199  -8.661 -0.17 +0.00    +0.004    39.958
ATOM     48  C   UNL d   1      -8.636   4.140  -8.277 -0.30 +0.00    +0.012    39.958
TER
ENDMDL
MODEL       38
USER    Run = 38
USER    Cluster Rank = 2
USER    Number of conformations in this cluster = 3
USER  
USER    RMSD from reference structure       = 37.825 A
USER  
USER    Estimated Free Energy of Binding    =   -8.25 kcal/mol  [=(1)+(2)+(3)-(4)]
USER    Estimated Inhibition Constant, Ki   =  904.16 nM (nanomolar)  [Temperature = 298.15 K]
USER    
USER    (1) Final Intermolecular Energy     =  -11.82 kcal/mol
USER        vdW + Hbond + desolv Energy     =   -8.61 kcal/mol
USER        Electrostatic Energy            =   -3.22 kcal/mol
USER    (2) Final Total Internal Energy     =   -0.52 kcal/mol
USER    (3) Torsional Free Energy           =   +3.58 kcal/mol
USER    (4) Unbound System's Energy  [=(2)] =   -0.52 kcal/mol
USER    
USER    
USER  
USER    DPF = D:/Protein_go_brrr/autodock/final/AncB/heme_Co/dock.dpf
USER    NEWDPF move	heme_Co_opt.pdbqt
USER    NEWDPF about	8.781000 34.984000 -0.736000
USER    NEWDPF tran0	4.533824 0.078967 -17.577471
USER    NEWDPF axisangle0	0.129180 -0.556307 0.820875 35.162133
USER    NEWDPF quaternion0	0.039019 -0.168035 0.247949 0.953291
USER    NEWDPF dihe0	-11.37 156.86 -46.31 -104.54 -85.38 -58.64 -13.62 119.08 25.29 84.41 139.70 -156.65 
USER  
USER                              x       y       z    vdW   Elec        q     RMS 
ATOM      1  C   UNL d   1       2.887   1.463 -17.873 -0.08 +0.03    +0.064    37.825
ATOM      2  C   UNL d   1       3.966  -1.507 -14.320 -0.27 +0.01    +0.064    37.825
ATOM      3  C   UNL d   1       7.655  -3.223 -16.825 -0.14 +0.01    +0.064    37.825
ATOM      4  C   UNL d   1       6.806   0.068 -20.305 -0.08 +0.02    +0.064    37.825
ATOM      5  C   UNL d   1       2.889   0.752 -16.733 -0.10 +0.03    +0.066    37.825
ATOM      6  C   UNL d   1       1.982   1.014 -15.688 -0.12 -0.01    -0.021    37.825
ATOM      7  C   UNL d   1       2.314   0.165 -14.650 -0.19 -0.01    -0.025    37.825
ATOM      8  C   UNL d   1       3.398  -0.590 -15.113 -0.18 +0.02    +0.066    37.825
ATOM      9  C   UNL d   1       1.647   0.056 -13.271 -0.26 +0.03    +0.051    37.825
ATOM     10  C   UNL d   1       5.067  -2.348 -14.718 -0.19 +0.01    +0.066    37.825
ATOM     11  C   UNL d   1       5.616  -3.423 -13.986 -0.43 -0.00    -0.021    37.825
ATOM     12  C   UNL d   1       6.687  -3.908 -14.741 -0.40 +0.00    +0.000    37.825
ATOM     13  C   UNL d   1       6.705  -3.103 -15.881 -0.22 +0.01    +0.070    37.825
ATOM     14  C   UNL d   1       5.076  -3.993 -12.699 -0.35 +0.01    +0.052    37.825
ATOM     15  C   UNL d   1       7.855  -2.446 -18.032 -0.09 +0.01    +0.066    37.825
ATOM     16  C   UNL d   1       8.941  -2.526 -18.892 -0.07 -0.00    -0.021    37.825
ATOM     17  C   UNL d   1       8.702  -1.577 -19.896 -0.07 +0.00    +0.000    37.825
ATOM     18  C   UNL d   1       7.476  -1.003 -19.578 -0.08 +0.02    +0.070    37.825
ATOM     19  C   UNL d   1      10.118  -3.462 -18.733 -0.06 +0.01    +0.052    37.825
ATOM     20  C   UNL d   1       5.657   0.701 -19.967 -0.06 +0.03    +0.066    37.825
ATOM     21  C   UNL d   1       5.131   1.742 -20.728 -0.04 -0.01    -0.025    37.825
ATOM     22  C   UNL d   1       3.985   2.145 -20.067 -0.06 -0.01    -0.021    37.825
ATOM     23  C   UNL d   1       3.875   1.331 -18.919 -0.00 +0.03    +0.066    37.825
ATOM     24  C   UNL d   1       5.701   2.339 -22.012 -0.05 +0.02    +0.051    37.825
ATOM     25  N   UNL d   1       3.771  -0.251 -16.402 -0.07 -0.09    -0.248    37.825
ATOM     26  N   UNL d   1       5.691  -2.198 -15.892 -0.13 -0.03    -0.248    37.825
ATOM     27  N   UNL d   1       7.015  -1.523 -18.445 -0.05 -0.05    -0.248    37.825
ATOM     28  N   UNL d   1       4.887   0.457 -18.854 -0.05 -0.12    -0.248    37.825
ATOM     29 FE   UNL d   1       5.489  -0.923 -17.487 -0.03 +0.00    +0.000    37.825
ATOM     30  C   UNL d   1       0.902   2.091 -15.668 -0.13 +0.03    +0.052    37.825
ATOM     31  C   UNL d   1       0.885   2.809 -14.319 -0.20 +0.09    +0.115    37.825
ATOM     32  C   UNL d   1      -0.453   3.452 -14.025 -0.21 +0.19    +0.139    37.825
ATOM     33  O   UNL d   1      -0.489   4.528 -13.447 -0.78 -0.99    -0.650    37.825
ATOM     34  O   UNL d   1      -1.620   2.896 -14.425 +0.03 -1.47    -0.776    37.825
ATOM     35  H   UNL d   1      -1.689   2.196 -15.090 +0.03 +0.24    +0.167    37.825
ATOM     36  C   UNL d   1       6.575   0.541 -16.453 -0.14 +0.07    +0.190    37.825
ATOM     37  O   UNL d   1       7.833   0.817 -15.906 -0.80 -0.13    -0.399    37.825
ATOM     38  H   UNL d   1       8.485   0.507 -16.594 -0.48 +0.02    +0.209    37.825
ATOM     39  C   UNL d   1       3.085   3.293 -20.485 -0.07 +0.02    +0.052    37.825
ATOM     40  C   UNL d   1       3.894   4.594 -20.621 -0.11 +0.07    +0.115    37.825
ATOM     41  C   UNL d   1       3.760   5.539 -19.446 -0.20 +0.14    +0.139    37.825
ATOM     42  O   UNL d   1       3.040   6.522 -19.548 -0.00 -0.76    -0.650    37.825
ATOM     43  O   UNL d   1       4.346   5.280 -18.256 -0.13 -0.75    -0.776    37.825
ATOM     44  H   UNL d   1       4.375   4.394 -17.873 -0.49 +0.06    +0.167    37.825
ATOM     45  C   UNL d   1       7.678  -5.044 -14.527 -0.42 +0.00    +0.004    37.825
ATOM     46  C   UNL d   1       8.991  -5.019 -14.310 -0.40 +0.00    +0.012    37.825
ATOM     47  C   UNL d   1       9.558  -1.175 -21.052 -0.06 +0.00    +0.004    37.825
ATOM     48  C   UNL d   1      10.215  -0.014 -21.115 -0.09 +0.00    +0.012    37.825
TER
ENDMDL
MODEL       19
USER    Run = 19
USER    Cluster Rank = 3
USER    Number of conformations in this cluster = 1
USER  
USER    RMSD from reference structure       = 37.081 A
USER  
USER    Estimated Free Energy of Binding    =   -7.96 kcal/mol  [=(1)+(2)+(3)-(4)]
USER    Estimated Inhibition Constant, Ki   =    1.46 uM (micromolar)  [Temperature = 298.15 K]
USER    
USER    (1) Final Intermolecular Energy     =  -11.54 kcal/mol
USER        vdW + Hbond + desolv Energy     =   -9.53 kcal/mol
USER        Electrostatic Energy            =   -2.01 kcal/mol
USER    (2) Final Total Internal Energy     =   -0.72 kcal/mol
USER    (3) Torsional Free Energy           =   +3.58 kcal/mol
USER    (4) Unbound System's Energy  [=(2)] =   -0.72 kcal/mol
USER    
USER    
USER  
USER    DPF = D:/Protein_go_brrr/autodock/final/AncB/heme_Co/dock.dpf
USER    NEWDPF move	heme_Co_opt.pdbqt
USER    NEWDPF about	8.781000 34.984000 -0.736000
USER    NEWDPF tran0	-0.091966 -0.299935 -12.033551
USER    NEWDPF axisangle0	-0.501330 0.424829 -0.753783 148.307557
USER    NEWDPF quaternion0	-0.482278 0.408685 -0.725138 0.273056
USER    NEWDPF dihe0	53.27 84.89 79.63 -27.06 -104.61 13.66 -0.13 -109.43 -51.43 78.84 11.96 -155.49 
USER  
USER                              x       y       z    vdW   Elec        q     RMS 
ATOM      1  C   UNL d   1      -0.145   0.166 -14.154 -0.16 +0.06    +0.064    37.081
ATOM      2  C   UNL d   1       3.250  -1.654 -11.366 -0.48 +0.02    +0.064    37.081
ATOM      3  C   UNL d   1       0.486  -1.021  -7.521 +0.39 +0.04    +0.064    37.081
ATOM      4  C   UNL d   1      -3.141   0.483 -10.393 -0.28 +0.05    +0.064    37.081
ATOM      5  C   UNL d   1       1.000  -0.344 -13.670 -0.19 +0.04    +0.066    37.081
ATOM      6  C   UNL d   1       2.057  -0.740 -14.513 -0.18 -0.01    -0.021    37.081
ATOM      7  C   UNL d   1       3.030  -1.288 -13.701 -0.27 -0.01    -0.025    37.081
ATOM      8  C   UNL d   1       2.533  -1.189 -12.397 -0.32 +0.02    +0.066    37.081
ATOM      9  C   UNL d   1       4.380  -1.888 -14.121 -0.32 +0.01    +0.051    37.081
ATOM     10  C   UNL d   1       2.833  -1.572  -9.989 -0.42 +0.02    +0.066    37.081
ATOM     11  C   UNL d   1       3.599  -1.913  -8.853 -0.45 -0.01    -0.021    37.081
ATOM     12  C   UNL d   1       2.770  -1.715  -7.746 -0.41 +0.00    +0.000    37.081
ATOM     13  C   UNL d   1       1.567  -1.257  -8.285 +0.03 +0.04    +0.070    37.081
ATOM     14  C   UNL d   1       5.053  -2.307  -8.844 -0.38 +0.01    +0.052    37.081
ATOM     15  C   UNL d   1      -0.844  -0.597  -7.915 -0.32 +0.03    +0.066    37.081
ATOM     16  C   UNL d   1      -1.958  -0.511  -7.092 -0.38 -0.01    -0.021    37.081
ATOM     17  C   UNL d   1      -3.007  -0.080  -7.917 -0.45 +0.00    +0.000    37.081
ATOM     18  C   UNL d   1      -2.444   0.080  -9.178 -0.35 +0.04    +0.070    37.081
ATOM     19  C   UNL d   1      -1.983  -0.830  -5.614 -0.34 +0.01    +0.052    37.081
ATOM     20  C   UNL d   1      -2.635   0.562 -11.647 -0.25 +0.07    +0.066    37.081
ATOM     21  C   UNL d   1      -3.415   0.927 -12.742 -0.19 -0.04    -0.025    37.081
ATOM     22  C   UNL d   1      -2.570   0.873 -13.836 -0.18 -0.03    -0.021    37.081
ATOM     23  C   UNL d   1      -1.310   0.462 -13.352 -0.18 +0.08    +0.066    37.081
ATOM     24  C   UNL d   1      -4.897   1.291 -12.750 -0.15 +0.07    +0.051    37.081
ATOM     25  N   UNL d   1       1.279  -0.602 -12.347 -0.13 -0.14    -0.248    37.081
ATOM     26  N   UNL d   1       1.625  -1.117  -9.636 +0.21 -0.13    -0.248    37.081
ATOM     27  N   UNL d   1      -1.162  -0.266  -9.147 -0.15 -0.12    -0.248    37.081
ATOM     28  N   UNL d   1      -1.346   0.270 -12.028 +0.04 -0.25    -0.248    37.081
ATOM     29 FE   UNL d   1      -0.016  -0.422 -10.654 -0.06 +0.00    +0.000    37.081
ATOM     30  C   UNL d   1       2.083  -0.664 -16.036 -0.11 +0.02    +0.052    37.081
ATOM     31  C   UNL d   1       2.786   0.611 -16.499 -0.11 +0.05    +0.115    37.081
ATOM     32  C   UNL d   1       3.904   0.330 -17.480 -0.09 +0.06    +0.139    37.081
ATOM     33  O   UNL d   1       5.008   0.818 -17.289 -0.50 -0.46    -0.650    37.081
ATOM     34  O   UNL d   1       3.735  -0.488 -18.545 +0.04 -0.27    -0.776    37.081
ATOM     35  H   UNL d   1       2.995  -0.428 -19.165 +0.01 +0.06    +0.167    37.081
ATOM     36  C   UNL d   1      -0.609  -2.396 -11.041 +0.15 +0.14    +0.190    37.081
ATOM     37  O   UNL d   1      -1.722  -3.244 -11.046 -0.27 -0.41    -0.399    37.081
ATOM     38  H   UNL d   1      -2.336  -2.866 -10.357 +0.10 +0.19    +0.209    37.081
ATOM     39  C   UNL d   1      -2.975   1.138 -15.274 -0.11 +0.08    +0.052    37.081
ATOM     40  C   UNL d   1      -4.167   0.253 -15.675 -0.06 +0.17    +0.115    37.081
ATOM     41  C   UNL d   1      -3.813  -0.884 -16.610 -0.02 +0.20    +0.139    37.081
ATOM     42  O   UNL d   1      -2.689  -1.364 -16.570 -0.33 -1.06    -0.650    37.081
ATOM     43  O   UNL d   1      -4.733  -1.444 -17.427 +0.01 -0.80    -0.776    37.081
ATOM     44  H   UNL d   1      -4.935  -1.087 -18.302 +0.01 +0.12    +0.167    37.081
ATOM     45  C   UNL d   1       2.980  -1.887  -6.247 -0.51 +0.00    +0.004    37.081
ATOM     46  C   UNL d   1       3.688  -2.787  -5.570 -0.56 +0.00    +0.012    37.081
ATOM     47  C   UNL d   1      -4.450   0.127  -7.594 -0.46 +0.00    +0.004    37.081
ATOM     48  C   UNL d   1      -5.447  -0.438  -8.278 -0.37 +0.00    +0.012    37.081
TER
ENDMDL
MODEL        7
USER    Run = 7
USER    Cluster Rank = 4
USER    Number of conformations in this cluster = 3
USER  
USER    RMSD from reference structure       = 48.415 A
USER  
USER    Estimated Free Energy of Binding    =   -7.82 kcal/mol  [=(1)+(2)+(3)-(4)]
USER    Estimated Inhibition Constant, Ki   =    1.85 uM (micromolar)  [Temperature = 298.15 K]
USER    
USER    (1) Final Intermolecular Energy     =  -11.40 kcal/mol
USER        vdW + Hbond + desolv Energy     =   -6.39 kcal/mol
USER        Electrostatic Energy            =   -5.01 kcal/mol
USER    (2) Final Total Internal Energy     =   -0.22 kcal/mol
USER    (3) Torsional Free Energy           =   +3.58 kcal/mol
USER    (4) Unbound System's Energy  [=(2)] =   -0.22 kcal/mol
USER    
USER    
USER  
USER    DPF = D:/Protein_go_brrr/autodock/final/AncB/heme_Co/dock.dpf
USER    NEWDPF move	heme_Co_opt.pdbqt
USER    NEWDPF about	8.781000 34.984000 -0.736000
USER    NEWDPF tran0	-1.125447 -14.720590 4.678699
USER    NEWDPF axisangle0	-0.875593 -0.405301 -0.262806 110.031301
USER    NEWDPF quaternion0	-0.717381 -0.332067 -0.215319 0.573353
USER    NEWDPF dihe0	-4.06 109.85 -20.10 -113.42 78.72 149.29 -170.14 -61.21 102.95 66.80 59.30 102.40 
USER  
USER                              x       y       z    vdW   Elec        q     RMS 
ATOM      1  C   UNL d   1      -2.926 -15.603   5.512 -0.07 +0.04    +0.064    48.415
ATOM      2  C   UNL d   1      -0.096 -16.907   1.920 -0.09 +0.02    +0.064    48.415
ATOM      3  C   UNL d   1       2.459 -12.902   2.430 -0.18 +0.01    +0.064    48.415
ATOM      4  C   UNL d   1      -0.178 -11.734   6.348 -0.21 +0.01    +0.064    48.415
ATOM      5  C   UNL d   1      -2.363 -16.236   4.470 -0.05 +0.04    +0.066    48.415
ATOM      6  C   UNL d   1      -2.794 -17.508   4.046 -0.05 -0.01    -0.021    48.415
ATOM      7  C   UNL d   1      -1.955 -17.892   3.018 -0.05 -0.01    -0.025    48.415
ATOM      8  C   UNL d   1      -1.058 -16.831   2.848 -0.07 +0.03    +0.066    48.415
ATOM      9  C   UNL d   1      -1.982 -19.203   2.218 -0.03 +0.02    +0.051    48.415
ATOM     10  C   UNL d   1       0.854 -15.855   1.655 -0.12 +0.02    +0.066    48.415
ATOM     11  C   UNL d   1       1.797 -15.815   0.604 -0.14 -0.00    -0.021    48.415
ATOM     12  C   UNL d   1       2.526 -14.635   0.775 -0.16 +0.00    +0.000    48.415
ATOM     13  C   UNL d   1       1.967 -14.038   1.906 -0.16 +0.01    +0.070    48.415
ATOM     14  C   UNL d   1       1.911 -16.800  -0.530 -0.17 +0.00    +0.052    48.415
ATOM     15  C   UNL d   1       2.042 -12.180   3.616 -0.19 +0.01    +0.066    48.415
ATOM     16  C   UNL d   1       2.685 -11.090   4.186 -0.21 -0.00    -0.021    48.415
ATOM     17  C   UNL d   1       1.930 -10.752   5.318 -0.24 +0.00    +0.000    48.415
ATOM     18  C   UNL d   1       0.871 -11.654   5.339 -0.21 +0.01    +0.070    48.415
ATOM     19  C   UNL d   1       3.943 -10.440   3.656 -0.27 -0.00    +0.052    48.415
ATOM     20  C   UNL d   1      -1.167 -12.656   6.437 -0.11 +0.02    +0.066    48.415
ATOM     21  C   UNL d   1      -2.096 -12.650   7.475 -0.16 -0.01    -0.025    48.415
ATOM     22  C   UNL d   1      -2.919 -13.738   7.244 -0.11 -0.01    -0.021    48.415
ATOM     23  C   UNL d   1      -2.439 -14.364   6.075 +0.03 +0.03    +0.066    48.415
ATOM     24  C   UNL d   1      -2.185 -11.669   8.641 -0.20 +0.01    +0.051    48.415
ATOM     25  N   UNL d   1      -1.291 -15.789   3.730 -0.06 -0.13    -0.248    48.415
ATOM     26  N   UNL d   1       0.921 -14.749   2.403 -0.11 -0.07    -0.248    48.415
ATOM     27  N   UNL d   1       0.987 -12.508   4.329 -0.14 -0.06    -0.248    48.415
ATOM     28  N   UNL d   1      -1.377 -13.714   5.584 +0.10 -0.08    -0.248    48.415
ATOM     29 FE   UNL d   1      -0.087 -14.051   4.049 -0.05 +0.00    +0.000    48.415
ATOM     30  C   UNL d   1      -3.911 -18.343   4.664 -0.04 +0.04    +0.052    48.415
ATOM     31  C   UNL d   1      -4.678 -19.101   3.580 -0.07 +0.12    +0.115    48.415
ATOM     32  C   UNL d   1      -5.671 -18.221   2.853 +0.05 +0.28    +0.139    48.415
ATOM     33  O   UNL d   1      -5.272 -17.238   2.247 -0.20 -1.48    -0.650    48.415
ATOM     34  O   UNL d   1      -6.992 -18.513   2.809 -0.24 -1.80    -0.776    48.415
ATOM     35  H   UNL d   1      -7.376 -19.341   3.129 +0.01 +0.27    +0.167    48.415
ATOM     36  C   UNL d   1       1.111 -15.246   5.287 -0.03 +0.04    +0.190    48.415
ATOM     37  O   UNL d   1       1.201 -16.520   5.856 +0.00 -0.08    -0.399    48.415
ATOM     38  H   UNL d   1       0.362 -16.984   5.581 +0.01 +0.05    +0.209    48.415
ATOM     39  C   UNL d   1      -4.061 -14.182   8.139 -0.09 +0.03    +0.052    48.415
ATOM     40  C   UNL d   1      -4.358 -15.677   7.938 -0.04 +0.08    +0.115    48.415
ATOM     41  C   UNL d   1      -5.754 -15.975   7.435 -0.13 +0.19    +0.139    48.415
ATOM     42  O   UNL d   1      -6.017 -15.792   6.255 -0.53 -1.49    -0.650    48.415
ATOM     43  O   UNL d   1      -6.696 -16.521   8.236 -0.58 -1.38    -0.776    48.415
ATOM     44  H   UNL d   1      -6.484 -16.922   9.089 +0.02 +0.22    +0.167    48.415
ATOM     45  C   UNL d   1       3.666 -13.996  -0.007 -0.23 +0.00    +0.004    48.415
ATOM     46  C   UNL d   1       4.890 -13.646   0.378 -0.24 -0.00    +0.012    48.415
ATOM     47  C   UNL d   1       2.178  -9.703   6.351 -0.26 +0.00    +0.004    48.415
ATOM     48  C   UNL d   1       2.318  -8.406   6.066 -0.30 +0.00    +0.012    48.415
TER
ENDMDL
MODEL       65
USER    Run = 65
USER    Cluster Rank = 5
USER    Number of conformations in this cluster = 14
USER  
USER    RMSD from reference structure       = 47.527 A
USER  
USER    Estimated Free Energy of Binding    =   -7.82 kcal/mol  [=(1)+(2)+(3)-(4)]
USER    Estimated Inhibition Constant, Ki   =    1.86 uM (micromolar)  [Temperature = 298.15 K]
USER    
USER    (1) Final Intermolecular Energy     =  -11.40 kcal/mol
USER        vdW + Hbond + desolv Energy     =   -7.43 kcal/mol
USER        Electrostatic Energy            =   -3.97 kcal/mol
USER    (2) Final Total Internal Energy     =   -1.62 kcal/mol
USER    (3) Torsional Free Energy           =   +3.58 kcal/mol
USER    (4) Unbound System's Energy  [=(2)] =   -1.62 kcal/mol
USER    
USER    
USER  
USER    DPF = D:/Protein_go_brrr/autodock/final/AncB/heme_Co/dock.dpf
USER    NEWDPF move	heme_Co_opt.pdbqt
USER    NEWDPF about	8.781000 34.984000 -0.736000
USER    NEWDPF tran0	-5.142979 -11.581510 12.588416
USER    NEWDPF axisangle0	-0.698858 -0.197928 -0.687329 155.289223
USER    NEWDPF quaternion0	-0.682672 -0.193344 -0.671410 0.213975
USER    NEWDPF dihe0	-33.14 110.15 -22.24 36.27 133.07 165.42 33.09 85.93 20.92 29.02 -20.87 -179.99 
USER  
USER                              x       y       z    vdW   Elec        q     RMS 
ATOM      1  C   UNL d   1      -6.050 -13.037  11.256 -0.22 +0.03    +0.064    47.527
ATOM      2  C   UNL d   1      -2.225 -10.246  10.813 -0.22 +0.01    +0.064    47.527
ATOM      3  C   UNL d   1      -3.216  -8.160  14.995 -0.15 +0.01    +0.064    47.527
ATOM      4  C   UNL d   1      -6.906 -11.261  15.653 -0.14 +0.03    +0.064    47.527
ATOM      5  C   UNL d   1      -4.953 -12.403  10.810 -0.17 +0.03    +0.066    47.527
ATOM      6  C   UNL d   1      -4.300 -12.784   9.622 -0.14 -0.01    -0.021    47.527
ATOM      7  C   UNL d   1      -3.178 -11.986   9.510 -0.14 -0.01    -0.025    47.527
ATOM      8  C   UNL d   1      -3.203 -11.142  10.625 -0.16 +0.02    +0.066    47.527
ATOM      9  C   UNL d   1      -2.114 -12.007   8.402 -0.18 +0.01    +0.051    47.527
ATOM     10  C   UNL d   1      -2.180  -9.319  11.915 -0.18 +0.02    +0.066    47.527
ATOM     11  C   UNL d   1      -1.259  -8.264  12.093 -0.24 -0.00    -0.021    47.527
ATOM     12  C   UNL d   1      -1.574  -7.669  13.318 -0.20 +0.00    +0.000    47.527
ATOM     13  C   UNL d   1      -2.668  -8.395  13.790 -0.07 +0.02    +0.070    47.527
ATOM     14  C   UNL d   1      -0.219  -7.811  11.101 -0.29 +0.01    +0.052    47.527
ATOM     15  C   UNL d   1      -4.309  -8.843  15.658 -0.13 +0.02    +0.066    47.527
ATOM     16  C   UNL d   1      -4.733  -8.644  16.964 -0.12 -0.00    -0.021    47.527
ATOM     17  C   UNL d   1      -5.796  -9.538  17.159 -0.11 +0.00    +0.000    47.527
ATOM     18  C   UNL d   1      -5.948 -10.202  15.947 -0.12 +0.04    +0.070    47.527
ATOM     19  C   UNL d   1      -4.136  -7.654  17.938 -0.07 -0.00    +0.052    47.527
ATOM     20  C   UNL d   1      -7.015 -11.980  14.511 -0.20 +0.03    +0.066    47.527
ATOM     21  C   UNL d   1      -7.953 -12.999  14.361 -0.24 -0.01    -0.025    47.527
ATOM     22  C   UNL d   1      -7.750 -13.510  13.092 -0.29 -0.01    -0.021    47.527
ATOM     23  C   UNL d   1      -6.680 -12.780  12.531 -0.25 +0.03    +0.066    47.527
ATOM     24  C   UNL d   1      -8.982 -13.476  15.383 -0.16 +0.02    +0.051    47.527
ATOM     25  N   UNL d   1      -4.295 -11.374  11.445 -0.11 -0.10    -0.248    47.527
ATOM     26  N   UNL d   1      -3.068  -9.356  12.914 -0.08 -0.08    -0.248    47.527
ATOM     27  N   UNL d   1      -5.026  -9.784  15.086 -0.08 -0.15    -0.248    47.527
ATOM     28  N   UNL d   1      -6.231 -11.855  13.387 -0.14 -0.14    -0.248    47.527
ATOM     29 FE   UNL d   1      -4.685 -10.534  13.373 -0.05 +0.00    +0.000    47.527
ATOM     30  C   UNL d   1      -4.702 -13.921   8.688 -0.13 +0.03    +0.052    47.527
ATOM     31  C   UNL d   1      -6.076 -13.653   8.075 -0.27 +0.10    +0.115    47.527
ATOM     32  C   UNL d   1      -6.718 -14.909   7.527 -0.24 +0.22    +0.139    47.527
ATOM     33  O   UNL d   1      -6.616 -15.166   6.337 -0.24 -1.61    -0.650    47.527
ATOM     34  O   UNL d   1      -7.367 -15.789   8.324 -0.36 -1.89    -0.776    47.527
ATOM     35  H   UNL d   1      -7.086 -16.022   9.220 +0.01 +0.28    +0.167    47.527
ATOM     36  C   UNL d   1      -3.398 -11.996  14.147 -0.03 +0.05    +0.190    47.527
ATOM     37  O   UNL d   1      -2.468 -12.972  13.773 +0.00 -0.08    -0.399    47.527
ATOM     38  H   UNL d   1      -2.470 -12.960  12.776 +0.02 +0.04    +0.209    47.527
ATOM     39  C   UNL d   1      -8.501 -14.679  12.483 -0.01 +0.02    +0.052    47.527
ATOM     40  C   UNL d   1      -7.958 -16.013  13.021 -0.15 +0.05    +0.115    47.527
ATOM     41  C   UNL d   1      -8.214 -17.201  12.118 -0.14 +0.09    +0.139    47.527
ATOM     42  O   UNL d   1      -8.604 -18.252  12.608 +0.02 -0.34    -0.650    47.527
ATOM     43  O   UNL d   1      -8.107 -17.108  10.774 -0.03 -1.01    -0.776    47.527
ATOM     44  H   UNL d   1      -8.087 -16.260  10.312 -0.29 +0.25    +0.167    47.527
ATOM     45  C   UNL d   1      -0.982  -6.494  14.085 -0.32 +0.00    +0.004    47.527
ATOM     46  C   UNL d   1      -0.344  -5.410  13.650 -0.43 -0.00    +0.012    47.527
ATOM     47  C   UNL d   1      -6.597  -9.814  18.389 -0.06 +0.00    +0.004    47.527
ATOM     48  C   UNL d   1      -7.885  -9.489  18.518 -0.10 +0.00    +0.012    47.527
TER
ENDMDL
MODEL       87
USER    Run = 87
USER    Cluster Rank = 6
USER    Number of conformations in this cluster = 3
USER  
USER    RMSD from reference structure       = 45.837 A
USER  
USER    Estimated Free Energy of Binding    =   -7.43 kcal/mol  [=(1)+(2)+(3)-(4)]
USER    Estimated Inhibition Constant, Ki   =    3.58 uM (micromolar)  [Temperature = 298.15 K]
USER    
USER    (1) Final Intermolecular Energy     =  -11.01 kcal/mol
USER        vdW + Hbond + desolv Energy     =   -7.58 kcal/mol
USER        Electrostatic Energy            =   -3.43 kcal/mol
USER    (2) Final Total Internal Energy     =   -0.64 kcal/mol
USER    (3) Torsional Free Energy           =   +3.58 kcal/mol
USER    (4) Unbound System's Energy  [=(2)] =   -0.64 kcal/mol
USER    
USER    
USER  
USER    DPF = D:/Protein_go_brrr/autodock/final/AncB/heme_Co/dock.dpf
USER    NEWDPF move	heme_Co_opt.pdbqt
USER    NEWDPF about	8.781000 34.984000 -0.736000
USER    NEWDPF tran0	-2.117792 -10.977454 9.751042
USER    NEWDPF axisangle0	-0.967235 -0.110766 -0.228445 126.485727
USER    NEWDPF quaternion0	-0.863666 -0.098905 -0.203984 0.450210
USER    NEWDPF dihe0	-83.17 117.94 112.93 27.68 137.76 137.50 178.43 11.57 72.48 33.07 177.16 126.61 
USER  
USER                              x       y       z    vdW   Elec        q     RMS 
ATOM      1  C   UNL d   1      -4.236 -11.324  10.084 -0.22 +0.02    +0.064    45.837
ATOM      2  C   UNL d   1      -1.423 -12.102   6.330 -0.11 +0.02    +0.064    45.837
ATOM      3  C   UNL d   1       2.230 -10.004   8.584 -0.08 +0.01    +0.064    45.837
ATOM      4  C   UNL d   1      -0.514  -9.544  12.575 -0.08 +0.01    +0.064    45.837
ATOM      5  C   UNL d   1      -3.745 -11.658   8.879 -0.20 +0.02    +0.066    45.837
ATOM      6  C   UNL d   1      -4.508 -12.371   7.934 -0.25 -0.01    -0.021    45.837
ATOM      7  C   UNL d   1      -3.680 -12.614   6.856 -0.25 -0.01    -0.025    45.837
ATOM      8  C   UNL d   1      -2.454 -12.025   7.182 -0.24 +0.02    +0.066    45.837
ATOM      9  C   UNL d   1      -4.015 -13.371   5.562 -0.06 +0.03    +0.051    45.837
ATOM     10  C   UNL d   1      -0.133 -11.504   6.568 -0.20 +0.01    +0.066    45.837
ATOM     11  C   UNL d   1       0.943 -11.428   5.656 -0.24 -0.00    -0.021    45.837
ATOM     12  C   UNL d   1       1.993 -10.808   6.338 -0.17 +0.00    +0.000    45.837
ATOM     13  C   UNL d   1       1.479 -10.541   7.607 -0.11 +0.01    +0.070    45.837
ATOM     14  C   UNL d   1       0.914 -11.839   4.206 -0.22 +0.01    +0.052    45.837
ATOM     15  C   UNL d   1       1.878  -9.711   9.960 -0.07 +0.01    +0.066    45.837
ATOM     16  C   UNL d   1       2.744  -9.290  10.959 -0.05 -0.00    -0.021    45.837
ATOM     17  C   UNL d   1       1.957  -9.159  12.113 -0.05 +0.00    +0.000    45.837
ATOM     18  C   UNL d   1       0.666  -9.494  11.720 -0.07 +0.01    +0.070    45.837
ATOM     19  C   UNL d   1       4.226  -9.041  10.789 -0.03 +0.00    +0.052    45.837
ATOM     20  C   UNL d   1      -1.761  -9.950  12.236 -0.12 +0.01    +0.066    45.837
ATOM     21  C   UNL d   1      -2.806  -9.988  13.156 -0.14 -0.01    -0.025    45.837
ATOM     22  C   UNL d   1      -3.899 -10.469  12.459 -0.19 -0.01    -0.021    45.837
ATOM     23  C   UNL d   1      -3.460 -10.715  11.141 -0.19 +0.02    +0.066    45.837
ATOM     24  C   UNL d   1      -2.762  -9.603  14.633 -0.12 +0.01    +0.051    45.837
ATOM     25  N   UNL d   1      -2.467 -11.420   8.427 -0.14 -0.07    -0.248    45.837
ATOM     26  N   UNL d   1       0.176 -10.911   7.726 -0.11 -0.04    -0.248    45.837
ATOM     27  N   UNL d   1       0.662  -9.846  10.439 -0.05 -0.03    -0.248    45.837
ATOM     28  N   UNL d   1      -2.166 -10.404  11.002 -0.09 -0.06    -0.248    45.837
ATOM     29 FE   UNL d   1      -0.812 -10.586   9.496 -0.04 +0.00    +0.000    45.837
ATOM     30  C   UNL d   1      -5.941 -12.863   8.106 -0.32 +0.04    +0.052    45.837
ATOM     31  C   UNL d   1      -5.959 -14.339   8.504 -0.23 +0.10    +0.115    45.837
ATOM     32  C   UNL d   1      -6.465 -15.231   7.391 -0.21 +0.23    +0.139    45.837
ATOM     33  O   UNL d   1      -6.006 -15.107   6.266 -0.44 -1.32    -0.650    45.837
ATOM     34  O   UNL d   1      -7.382 -16.202   7.611 -0.26 -2.16    -0.776    45.837
ATOM     35  H   UNL d   1      -7.164 -17.103   7.885 +0.02 +0.40    +0.167    45.837
ATOM     36  C   UNL d   1      -0.364 -12.541  10.103 -0.02 +0.03    +0.190    45.837
ATOM     37  O   UNL d   1      -0.906 -13.826  10.212 +0.00 -0.08    -0.399    45.837
ATOM     38  H   UNL d   1      -1.810 -13.759   9.797 +0.02 +0.05    +0.209    45.837
ATOM     39  C   UNL d   1      -5.270 -10.739  13.050 +0.03 +0.03    +0.052    45.837
ATOM     40  C   UNL d   1      -5.778 -12.128  12.633 -0.21 +0.06    +0.115    45.837
ATOM     41  C   UNL d   1      -7.286 -12.253  12.582 -0.33 +0.09    +0.139    45.837
ATOM     42  O   UNL d   1      -7.796 -13.029  11.785 -0.27 -0.43    -0.650    45.837
ATOM     43  O   UNL d   1      -8.083 -11.596  13.453 -0.50 -0.61    -0.776    45.837
ATOM     44  H   UNL d   1      -8.742 -10.950  13.168 -0.51 +0.15    +0.167    45.837
ATOM     45  C   UNL d   1       3.410 -10.422   5.933 -0.18 +0.00    +0.004    45.837
ATOM     46  C   UNL d   1       3.953 -10.260   4.730 -0.21 +0.00    +0.012    45.837
ATOM     47  C   UNL d   1       2.360  -8.799  13.506 -0.03 +0.00    +0.004    45.837
ATOM     48  C   UNL d   1       1.944  -7.695  14.131 -0.06 +0.00    +0.012    45.837
TER
ENDMDL
MODEL       75
USER    Run = 75
USER    Cluster Rank = 7
USER    Number of conformations in this cluster = 1
USER  
USER    RMSD from reference structure       = 38.720 A
USER  
USER    Estimated Free Energy of Binding    =   -6.88 kcal/mol  [=(1)+(2)+(3)-(4)]
USER    Estimated Inhibition Constant, Ki   =    9.10 uM (micromolar)  [Temperature = 298.15 K]
USER    
USER    (1) Final Intermolecular Energy     =  -10.46 kcal/mol
USER        vdW + Hbond + desolv Energy     =   -6.83 kcal/mol
USER        Electrostatic Energy            =   -3.63 kcal/mol
USER    (2) Final Total Internal Energy     =   -1.91 kcal/mol
USER    (3) Torsional Free Energy           =   +3.58 kcal/mol
USER    (4) Unbound System's Energy  [=(2)] =   -1.91 kcal/mol
USER    
USER    
USER  
USER    DPF = D:/Protein_go_brrr/autodock/final/AncB/heme_Co/dock.dpf
USER    NEWDPF move	heme_Co_opt.pdbqt
USER    NEWDPF about	8.781000 34.984000 -0.736000
USER    NEWDPF tran0	-7.616284 -1.013602 -11.769744
USER    NEWDPF axisangle0	0.491227 0.330952 0.805709 137.526822
USER    NEWDPF quaternion0	0.457869 0.308478 0.750995 0.362220
USER    NEWDPF dihe0	-165.96 112.43 69.97 113.27 -179.99 129.27 23.94 -173.96 178.67 -62.79 -179.17 38.05 
USER  
USER                              x       y       z    vdW   Elec        q     RMS 
ATOM      1  C   UNL d   1      -6.983  -1.456 -13.799 -0.07 +0.07    +0.064    38.720
ATOM      2  C   UNL d   1      -7.848   2.640 -11.544 -0.11 +0.04    +0.064    38.720
ATOM      3  C   UNL d   1      -9.333   0.245  -7.685 -0.21 +0.01    +0.064    38.720
ATOM      4  C   UNL d   1      -8.094  -3.945  -9.825 -0.23 +0.03    +0.064    38.720
ATOM      5  C   UNL d   1      -7.144  -0.162 -13.479 -0.04 +0.06    +0.066    38.720
ATOM      6  C   UNL d   1      -6.746   0.877 -14.344 -0.04 -0.02    -0.021    38.720
ATOM      7  C   UNL d   1      -6.978   2.063 -13.675 -0.08 -0.02    -0.025    38.720
ATOM      8  C   UNL d   1      -7.523   1.698 -12.439 -0.06 +0.04    +0.066    38.720
ATOM      9  C   UNL d   1      -6.703   3.492 -14.167 -0.06 +0.06    +0.051    38.720
ATOM     10  C   UNL d   1      -8.438   2.361 -10.258 -0.09 +0.03    +0.066    38.720
ATOM     11  C   UNL d   1      -8.930   3.308  -9.333 -0.14 -0.01    -0.021    38.720
ATOM     12  C   UNL d   1      -9.360   2.582  -8.219 -0.20 +0.00    +0.000    38.720
ATOM     13  C   UNL d   1      -9.112   1.250  -8.551 -0.15 +0.02    +0.070    38.720
ATOM     14  C   UNL d   1      -9.059   4.792  -9.559 -0.14 +0.02    +0.052    38.720
ATOM     15  C   UNL d   1      -9.086  -1.175  -7.842 -0.18 +0.02    +0.066    38.720
ATOM     16  C   UNL d   1      -9.201  -2.144  -6.855 -0.29 -0.00    -0.021    38.720
ATOM     17  C   UNL d   1      -8.842  -3.354  -7.467 -0.32 +0.00    +0.000    38.720
ATOM     18  C   UNL d   1      -8.552  -3.028  -8.788 -0.19 +0.02    +0.070    38.720
ATOM     19  C   UNL d   1      -9.628  -1.894  -5.426 -0.32 +0.01    +0.052    38.720
ATOM     20  C   UNL d   1      -7.723  -3.638 -11.091 -0.17 +0.04    +0.066    38.720
ATOM     21  C   UNL d   1      -7.266  -4.602 -11.986 -0.26 -0.02    -0.025    38.720
ATOM     22  C   UNL d   1      -6.965  -3.918 -13.150 -0.17 -0.02    -0.021    38.720
ATOM     23  C   UNL d   1      -7.245  -2.558 -12.901 -0.11 +0.06    +0.066    38.720
ATOM     24  C   UNL d   1      -7.104  -6.100 -11.739 -0.38 +0.03    +0.051    38.720
ATOM     25  N   UNL d   1      -7.643   0.327 -12.293 -0.01 -0.16    -0.248    38.720
ATOM     26  N   UNL d   1      -8.606   1.114  -9.806 -0.04 -0.09    -0.248    38.720
ATOM     27  N   UNL d   1      -8.678  -1.718  -8.967 -0.07 -0.08    -0.248    38.720
ATOM     28  N   UNL d   1      -7.702  -2.383 -11.655 -0.05 -0.16    -0.248    38.720
ATOM     29 FE   UNL d   1      -8.191  -0.760 -10.533 -0.02 +0.00    +0.000    38.720
ATOM     30  C   UNL d   1      -6.096   0.720 -15.715 -0.04 +0.05    +0.052    38.720
ATOM     31  C   UNL d   1      -4.574   0.798 -15.600 -0.08 +0.15    +0.115    38.720
ATOM     32  C   UNL d   1      -4.116   1.085 -14.186 -0.12 +0.23    +0.139    38.720
ATOM     33  O   UNL d   1      -3.698   2.198 -13.904 -0.38 -1.50    -0.650    38.720
ATOM     34  O   UNL d   1      -4.198   0.158 -13.203 +0.02 -1.33    -0.776    38.720
ATOM     35  H   UNL d   1      -4.046   0.344 -12.267 +0.05 +0.23    +0.167    38.720
ATOM     36  C   UNL d   1      -6.196  -0.553  -9.921 -0.14 +0.11    +0.190    38.720
ATOM     37  O   UNL d   1      -4.896  -0.372 -10.403 -0.08 -0.32    -0.399    38.720
ATOM     38  H   UNL d   1      -4.992  -0.344 -11.396 +0.07 +0.23    +0.209    38.720
ATOM     39  C   UNL d   1      -6.380  -4.535 -14.406 -0.04 +0.06    +0.052    38.720
ATOM     40  C   UNL d   1      -7.039  -3.939 -15.661 -0.08 +0.11    +0.115    38.720
ATOM     41  C   UNL d   1      -6.120  -3.074 -16.498 -0.07 +0.16    +0.139    38.720
ATOM     42  O   UNL d   1      -5.285  -2.374 -15.942 -0.26 -1.26    -0.650    38.720
ATOM     43  O   UNL d   1      -6.138  -3.118 -17.849 +0.03 -0.61    -0.776    38.720
ATOM     44  H   UNL d   1      -6.831  -2.697 -18.373 +0.01 +0.10    +0.167    38.720
ATOM     45  C   UNL d   1      -9.992   2.990  -6.895 -0.17 +0.00    +0.004    38.720
ATOM     46  C   UNL d   1     -11.248   2.891  -6.468 -0.24 -0.00    +0.012    38.720
ATOM     47  C   UNL d   1      -8.719  -4.721  -6.878 -0.53 +0.00    +0.004    38.720
ATOM     48  C   UNL d   1      -8.776  -5.843  -7.601 -0.57 +0.00    +0.012    38.720
TER
ENDMDL
MODEL       39
USER    Run = 39
USER    Cluster Rank = 8
USER    Number of conformations in this cluster = 2
USER  
USER    RMSD from reference structure       = 51.753 A
USER  
USER    Estimated Free Energy of Binding    =   -6.85 kcal/mol  [=(1)+(2)+(3)-(4)]
USER    Estimated Inhibition Constant, Ki   =    9.47 uM (micromolar)  [Temperature = 298.15 K]
USER    
USER    (1) Final Intermolecular Energy     =  -10.43 kcal/mol
USER        vdW + Hbond + desolv Energy     =   -6.27 kcal/mol
USER        Electrostatic Energy            =   -4.16 kcal/mol
USER    (2) Final Total Internal Energy     =   -1.60 kcal/mol
USER    (3) Torsional Free Energy           =   +3.58 kcal/mol
USER    (4) Unbound System's Energy  [=(2)] =   -1.60 kcal/mol
USER    
USER    
USER  
USER    DPF = D:/Protein_go_brrr/autodock/final/AncB/heme_Co/dock.dpf
USER    NEWDPF move	heme_Co_opt.pdbqt
USER    NEWDPF about	8.781000 34.984000 -0.736000
USER    NEWDPF tran0	-7.423071 -16.382791 11.103003
USER    NEWDPF axisangle0	0.686201 0.395771 0.610323 -156.915972
USER    NEWDPF quaternion0	0.672324 0.387768 0.597981 -0.200086
USER    NEWDPF dihe0	62.98 104.87 13.72 -41.78 133.74 158.53 -118.76 168.17 125.72 176.67 38.60 16.29 
USER  
USER                              x       y       z    vdW   Elec        q     RMS 
ATOM      1  C   UNL d   1      -8.067 -18.329  10.387 -0.07 +0.08    +0.064    51.753
ATOM      2  C   UNL d   1      -5.255 -14.997   8.490 -0.13 +0.05    +0.064    51.753
ATOM      3  C   UNL d   1      -6.204 -12.064  12.140 -0.24 +0.04    +0.064    51.753
ATOM      4  C   UNL d   1      -8.772 -15.592  14.290 -0.09 +0.02    +0.064    51.753
ATOM      5  C   UNL d   1      -7.258 -17.621   9.583 +0.08 +0.10    +0.066    51.753
ATOM      6  C   UNL d   1      -6.693 -18.173   8.416 -0.08 -0.03    -0.021    51.753
ATOM      7  C   UNL d   1      -5.860 -17.210   7.882 -0.08 -0.03    -0.025    51.753
ATOM      8  C   UNL d   1      -5.964 -16.106   8.735 -0.13 +0.07    +0.066    51.753
ATOM      9  C   UNL d   1      -4.992 -17.310   6.619 -0.06 +0.06    +0.051    51.753
ATOM     10  C   UNL d   1      -5.317 -13.804   9.296 -0.16 +0.04    +0.066    51.753
ATOM     11  C   UNL d   1      -4.707 -12.562   9.014 -0.20 -0.01    -0.021    51.753
ATOM     12  C   UNL d   1      -5.003 -11.724  10.093 -0.26 +0.00    +0.000    51.753
ATOM     13  C   UNL d   1      -5.781 -12.510  10.944 -0.22 +0.04    +0.070    51.753
ATOM     14  C   UNL d   1      -3.976 -12.194   7.749 -0.26 +0.02    +0.052    51.753
ATOM     15  C   UNL d   1      -6.966 -12.754  13.162 -0.25 +0.03    +0.066    51.753
ATOM     16  C   UNL d   1      -7.247 -12.285  14.438 -0.22 -0.01    -0.021    51.753
ATOM     17  C   UNL d   1      -7.985 -13.300  15.062 -0.17 +0.00    +0.000    51.753
ATOM     18  C   UNL d   1      -8.112 -14.305  14.109 -0.17 +0.03    +0.070    51.753
ATOM     19  C   UNL d   1      -6.819 -10.945  14.993 -0.22 +0.04    +0.052    51.753
ATOM     20  C   UNL d   1      -8.834 -16.618  13.408 -0.12 +0.03    +0.066    51.753
ATOM     21  C   UNL d   1      -9.467 -17.822  13.711 -0.10 -0.01    -0.025    51.753
ATOM     22  C   UNL d   1      -9.305 -18.620  12.593 -0.09 -0.01    -0.021    51.753
ATOM     23  C   UNL d   1      -8.564 -17.862  11.661 -0.13 +0.06    +0.066    51.753
ATOM     24  C   UNL d   1     -10.176 -18.201  15.008 -0.07 +0.01    +0.051    51.753
ATOM     25  N   UNL d   1      -6.828 -16.330   9.794 -0.10 -0.30    -0.248    51.753
ATOM     26  N   UNL d   1      -6.016 -13.748  10.435 -0.15 -0.14    -0.248    51.753
ATOM     27  N   UNL d   1      -7.467 -13.959  13.000 -0.16 -0.11    -0.248    51.753
ATOM     28  N   UNL d   1      -8.275 -16.651  12.151 -0.12 -0.16    -0.248    51.753
ATOM     29 FE   UNL d   1      -7.169 -15.077  11.493 -0.04 +0.00    +0.000    51.753
ATOM     30  C   UNL d   1      -6.889 -19.593   7.895 -0.03 +0.05    +0.052    51.753
ATOM     31  C   UNL d   1      -7.447 -19.571   6.473 -0.05 +0.14    +0.115    51.753
ATOM     32  C   UNL d   1      -8.740 -18.790   6.372 +0.04 +0.27    +0.139    51.753
ATOM     33  O   UNL d   1      -8.757 -17.733   5.759 -0.09 -1.81    -0.650    51.753
ATOM     34  O   UNL d   1      -9.898 -19.248   6.901 -0.42 -1.43    -0.776    51.753
ATOM     35  H   UNL d   1     -10.024 -19.457   7.837 +0.02 +0.31    +0.167    51.753
ATOM     36  C   UNL d   1      -5.436 -15.918  12.321 -0.02 +0.07    +0.190    51.753
ATOM     37  O   UNL d   1      -4.387 -16.802  12.048 +0.01 -0.13    -0.399    51.753
ATOM     38  H   UNL d   1      -4.633 -17.231  11.181 +0.01 +0.08    +0.209    51.753
ATOM     39  C   UNL d   1      -9.782 -20.054  12.460 -0.03 +0.02    +0.052    51.753
ATOM     40  C   UNL d   1     -10.818 -20.179  11.331 -0.05 +0.07    +0.115    51.753
ATOM     41  C   UNL d   1     -11.286 -18.855  10.763 -0.15 +0.14    +0.139    51.753
ATOM     42  O   UNL d   1     -11.726 -18.001  11.519 -0.57 -0.63    -0.650    51.753
ATOM     43  O   UNL d   1     -11.149 -18.558   9.452 +0.09 -1.49    -0.776    51.753
ATOM     44  H   UNL d   1     -11.024 -19.236   8.775 +0.02 +0.27    +0.167    51.753
ATOM     45  C   UNL d   1      -4.659 -10.274  10.407 -0.39 +0.00    +0.004    51.753
ATOM     46  C   UNL d   1      -3.492  -9.637  10.386 -0.39 +0.00    +0.012    51.753
ATOM     47  C   UNL d   1      -8.505 -13.380  16.460 -0.11 +0.00    +0.004    51.753
ATOM     48  C   UNL d   1      -9.804 -13.346  16.767 -0.14 +0.00    +0.012    51.753
TER
ENDMDL
MODEL       44
USER    Run = 44
USER    Cluster Rank = 9
USER    Number of conformations in this cluster = 2
USER  
USER    RMSD from reference structure       = 39.463 A
USER  
USER    Estimated Free Energy of Binding    =   -6.80 kcal/mol  [=(1)+(2)+(3)-(4)]
USER    Estimated Inhibition Constant, Ki   =   10.33 uM (micromolar)  [Temperature = 298.15 K]
USER    
USER    (1) Final Intermolecular Energy     =  -10.38 kcal/mol
USER        vdW + Hbond + desolv Energy     =   -6.85 kcal/mol
USER        Electrostatic Energy            =   -3.54 kcal/mol
USER    (2) Final Total Internal Energy     =   -1.62 kcal/mol
USER    (3) Torsional Free Energy           =   +3.58 kcal/mol
USER    (4) Unbound System's Energy  [=(2)] =   -1.62 kcal/mol
USER    
USER    
USER  
USER    DPF = D:/Protein_go_brrr/autodock/final/AncB/heme_Co/dock.dpf
USER    NEWDPF move	heme_Co_opt.pdbqt
USER    NEWDPF about	8.781000 34.984000 -0.736000
USER    NEWDPF tran0	1.014408 -1.743720 -16.352087
USER    NEWDPF axisangle0	-0.582257 0.786356 -0.206446 -113.354351
USER    NEWDPF quaternion0	-0.486527 0.657071 -0.172504 -0.549356
USER    NEWDPF dihe0	86.85 103.06 -7.43 105.48 76.02 111.77 160.41 -141.55 -25.77 8.53 -155.83 146.96 
USER  
USER                              x       y       z    vdW   Elec        q     RMS 
ATOM      1  C   UNL d   1      -0.115  -0.168 -15.373 -0.10 +0.06    +0.064    39.463
ATOM      2  C   UNL d   1       4.501  -1.305 -15.304 -0.23 +0.01    +0.064    39.463
ATOM      3  C   UNL d   1       3.624  -5.189 -17.945 -0.17 +0.01    +0.064    39.463
ATOM      4  C   UNL d   1      -1.033  -3.842 -18.354 -0.11 +0.04    +0.064    39.463
ATOM      5  C   UNL d   1       1.205  -0.213 -15.130 -0.11 +0.04    +0.066    39.463
ATOM      6  C   UNL d   1       1.871   0.812 -14.431 -0.21 -0.01    -0.021    39.463
ATOM      7  C   UNL d   1       3.214   0.489 -14.434 -0.29 -0.01    -0.025    39.463
ATOM      8  C   UNL d   1       3.307  -0.727 -15.119 -0.18 +0.02    +0.066    39.463
ATOM      9  C   UNL d   1       4.376   1.284 -13.819 -0.43 +0.01    +0.051    39.463
ATOM     10  C   UNL d   1       4.693  -2.567 -15.974 -0.17 +0.01    +0.066    39.463
ATOM     11  C   UNL d   1       5.899  -3.293 -16.077 -0.22 -0.00    -0.021    39.463
ATOM     12  C   UNL d   1       5.614  -4.423 -16.849 -0.20 +0.00    +0.000    39.463
ATOM     13  C   UNL d   1       4.256  -4.310 -17.147 -0.15 +0.01    +0.070    39.463
ATOM     14  C   UNL d   1       7.202  -2.960 -15.396 -0.28 +0.01    +0.052    39.463
ATOM     15  C   UNL d   1       2.247  -5.195 -18.398 -0.18 +0.02    +0.066    39.463
ATOM     16  C   UNL d   1       1.693  -6.052 -19.339 -0.17 -0.01    -0.021    39.463
ATOM     17  C   UNL d   1       0.351  -5.666 -19.462 -0.15 +0.00    +0.000    39.463
ATOM     18  C   UNL d   1       0.186  -4.611 -18.570 -0.14 +0.04    +0.070    39.463
ATOM     19  C   UNL d   1       2.431  -7.159 -20.058 -0.15 +0.01    +0.052    39.463
ATOM     20  C   UNL d   1      -1.194  -2.758 -17.558 -0.11 +0.06    +0.066    39.463
ATOM     21  C   UNL d   1      -2.407  -2.081 -17.460 -0.09 -0.03    -0.025    39.463
ATOM     22  C   UNL d   1      -2.181  -1.034 -16.585 -0.04 -0.03    -0.021    39.463
ATOM     23  C   UNL d   1      -0.826  -1.119 -16.198 -0.09 +0.07    +0.066    39.463
ATOM     24  C   UNL d   1      -3.714  -2.403 -18.180 -0.06 +0.05    +0.051    39.463
ATOM     25  N   UNL d   1       2.077  -1.188 -15.557 -0.07 -0.12    -0.248    39.463
ATOM     26  N   UNL d   1       3.688  -3.217 -16.571 -0.01 -0.06    -0.248    39.463
ATOM     27  N   UNL d   1       1.343  -4.338 -17.977 -0.11 -0.10    -0.248    39.463
ATOM     28  N   UNL d   1      -0.225  -2.159 -16.787 -0.09 -0.20    -0.248    39.463
ATOM     29 FE   UNL d   1       1.685  -2.856 -16.838 -0.03 +0.00    +0.000    39.463
ATOM     30  C   UNL d   1       1.245   2.081 -13.863 -0.25 +0.03    +0.052    39.463
ATOM     31  C   UNL d   1       0.857   3.040 -14.989 -0.21 +0.09    +0.115    39.463
ATOM     32  C   UNL d   1      -0.302   3.936 -14.610 -0.22 +0.18    +0.139    39.463
ATOM     33  O   UNL d   1      -0.451   4.266 -13.443 -0.78 -0.98    -0.650    39.463
ATOM     34  O   UNL d   1      -1.159   4.429 -15.534 -0.10 -1.34    -0.776    39.463
ATOM     35  H   UNL d   1      -1.916   3.941 -15.889 +0.02 +0.32    +0.167    39.463
ATOM     36  C   UNL d   1       2.130  -1.583 -18.444 -0.03 +0.07    +0.190    39.463
ATOM     37  O   UNL d   1       1.919  -0.290 -18.932 +0.00 -0.16    -0.399    39.463
ATOM     38  H   UNL d   1       1.218   0.098 -18.337 +0.02 +0.09    +0.209    39.463
ATOM     39  C   UNL d   1      -3.197   0.024 -16.197 -0.03 +0.07    +0.052    39.463
ATOM     40  C   UNL d   1      -2.796   1.395 -16.766 -0.04 +0.12    +0.115    39.463
ATOM     41  C   UNL d   1      -3.718   2.529 -16.370 +0.11 +0.21    +0.139    39.463
ATOM     42  O   UNL d   1      -4.716   2.285 -15.706 -0.27 -1.02    -0.650    39.463
ATOM     43  O   UNL d   1      -3.423   3.817 -16.655 +0.03 -1.36    -0.776    39.463
ATOM     44  H   UNL d   1      -2.610   4.075 -17.109 +0.01 +0.22    +0.167    39.463
ATOM     45  C   UNL d   1       6.458  -5.599 -17.320 -0.20 +0.00    +0.004    39.463
ATOM     46  C   UNL d   1       6.599  -6.821 -16.814 -0.31 +0.00    +0.012    39.463
ATOM     47  C   UNL d   1      -0.712  -6.188 -20.372 -0.12 +0.00    +0.004    39.463
ATOM     48  C   UNL d   1      -1.050  -7.477 -20.448 -0.14 +0.01    +0.012    39.463
TER
ENDMDL
MODEL       52
USER    Run = 52
USER    Cluster Rank = 10
USER    Number of conformations in this cluster = 9
USER  
USER    RMSD from reference structure       = 36.588 A
USER  
USER    Estimated Free Energy of Binding    =   -6.53 kcal/mol  [=(1)+(2)+(3)-(4)]
USER    Estimated Inhibition Constant, Ki   =   16.39 uM (micromolar)  [Temperature = 298.15 K]
USER    
USER    (1) Final Intermolecular Energy     =  -10.11 kcal/mol
USER        vdW + Hbond + desolv Energy     =   -7.94 kcal/mol
USER        Electrostatic Energy            =   -2.17 kcal/mol
USER    (2) Final Total Internal Energy     =   -1.86 kcal/mol
USER    (3) Torsional Free Energy           =   +3.58 kcal/mol
USER    (4) Unbound System's Energy  [=(2)] =   -1.86 kcal/mol
USER    
USER    
USER  
USER    DPF = D:/Protein_go_brrr/autodock/final/AncB/heme_Co/dock.dpf
USER    NEWDPF move	heme_Co_opt.pdbqt
USER    NEWDPF about	8.781000 34.984000 -0.736000
USER    NEWDPF tran0	15.834180 -0.443562 -11.687689
USER    NEWDPF axisangle0	-0.025166 0.855357 -0.517427 -110.655575
USER    NEWDPF quaternion0	-0.020697 0.703463 -0.425542 -0.568881
USER    NEWDPF dihe0	-179.86 77.87 35.69 112.02 -85.65 156.86 -154.79 129.97 -48.05 2.23 -171.08 157.36 
USER  
USER                              x       y       z    vdW   Elec        q     RMS 
ATOM      1  C   UNL d   1      16.047   1.356 -10.492 -0.28 +0.03    +0.064    36.588
ATOM      2  C   UNL d   1      17.449  -3.132  -9.787 -0.19 +0.02    +0.064    36.588
ATOM      3  C   UNL d   1      15.204  -4.500 -13.777 -0.11 +0.02    +0.064    36.588
ATOM      4  C   UNL d   1      14.087   0.140 -14.723 -0.26 +0.02    +0.064    36.588
ATOM      5  C   UNL d   1      16.564   0.224  -9.987 -0.32 +0.02    +0.066    36.588
ATOM      6  C   UNL d   1      17.371   0.221  -8.832 -0.24 -0.01    -0.021    36.588
ATOM      7  C   UNL d   1      17.794  -1.080  -8.645 -0.24 -0.01    -0.025    36.588
ATOM      8  C   UNL d   1      17.214  -1.818  -9.683 -0.23 +0.02    +0.066    36.588
ATOM      9  C   UNL d   1      18.709  -1.624  -7.538 -0.24 +0.02    +0.051    36.588
ATOM     10  C   UNL d   1      16.875  -3.977 -10.804 -0.15 +0.03    +0.066    36.588
ATOM     11  C   UNL d   1      16.969  -5.384 -10.885 -0.13 -0.01    -0.021    36.588
ATOM     12  C   UNL d   1      16.302  -5.756 -12.056 -0.13 +0.00    +0.000    36.588
ATOM     13  C   UNL d   1      15.842  -4.554 -12.594 -0.08 +0.03    +0.070    36.588
ATOM     14  C   UNL d   1      17.576  -6.298  -9.852 -0.10 +0.02    +0.052    36.588
ATOM     15  C   UNL d   1      14.710  -3.346 -14.503 -0.14 +0.02    +0.066    36.588
ATOM     16  C   UNL d   1      14.189  -3.344 -15.789 -0.11 -0.00    -0.021    36.588
ATOM     17  C   UNL d   1      13.868  -2.008 -16.067 -0.17 +0.00    +0.000    36.588
ATOM     18  C   UNL d   1      14.203  -1.300 -14.918 -0.19 +0.02    +0.070    36.588
ATOM     19  C   UNL d   1      14.025  -4.562 -16.671 -0.05 +0.01    +0.052    36.588
ATOM     20  C   UNL d   1      14.486   0.861 -13.648 -0.27 +0.02    +0.066    36.588
ATOM     21  C   UNL d   1      14.355   2.246 -13.591 -0.29 -0.01    -0.025    36.588
ATOM     22  C   UNL d   1      14.885   2.622 -12.371 -0.29 -0.01    -0.021    36.588
ATOM     23  C   UNL d   1      15.328   1.439 -11.743 -0.27 +0.03    +0.066    36.588
ATOM     24  C   UNL d   1      13.771   3.171 -14.657 -0.22 +0.02    +0.051    36.588
ATOM     25  N   UNL d   1      16.442  -1.036 -10.526 -0.19 -0.08    -0.248    36.588
ATOM     26  N   UNL d   1      16.140  -3.486 -11.808 -0.10 -0.10    -0.248    36.588
ATOM     27  N   UNL d   1      14.729  -2.124 -14.019 -0.09 -0.08    -0.248    36.588
ATOM     28  N   UNL d   1      15.091   0.370 -12.513 -0.18 -0.08    -0.248    36.588
ATOM     29 FE   UNL d   1      15.533  -1.609 -12.376 -0.06 +0.00    +0.000    36.588
ATOM     30  C   UNL d   1      17.777   1.435  -8.003 -0.20 +0.03    +0.052    36.588
ATOM     31  C   UNL d   1      19.042   2.077  -8.574 -0.16 +0.07    +0.115    36.588
ATOM     32  C   UNL d   1      18.894   3.571  -8.766 -0.09 +0.15    +0.139    36.588
ATOM     33  O   UNL d   1      18.941   4.309  -7.793 -0.54 -1.02    -0.650    36.588
ATOM     34  O   UNL d   1      18.759   4.127  -9.992 -0.02 -0.71    -0.776    36.588
ATOM     35  H   UNL d   1      18.608   5.070 -10.147 +0.04 +0.17    +0.167    36.588
ATOM     36  C   UNL d   1      17.402  -1.277 -13.267 -0.04 +0.05    +0.190    36.588
ATOM     37  O   UNL d   1      18.722  -0.911 -12.984 +0.00 -0.09    -0.399    36.588
ATOM     38  H   UNL d   1      18.650  -0.242 -12.247 +0.03 +0.05    +0.209    36.588
ATOM     39  C   UNL d   1      15.015   4.048 -11.870 -0.38 +0.03    +0.052    36.588
ATOM     40  C   UNL d   1      16.458   4.554 -12.040 -0.22 +0.07    +0.115    36.588
ATOM     41  C   UNL d   1      16.664   6.000 -11.640 -0.29 +0.10    +0.139    36.588
ATOM     42  O   UNL d   1      16.555   6.876 -12.486 -0.16 -0.36    -0.650    36.588
ATOM     43  O   UNL d   1      16.881   6.356 -10.355 -0.18 -1.00    -0.776    36.588
ATOM     44  H   UNL d   1      17.465   5.858  -9.769 +0.01 +0.31    +0.167    36.588
ATOM     45  C   UNL d   1      16.033  -7.103 -12.713 -0.10 +0.00    +0.004    36.588
ATOM     46  C   UNL d   1      14.925  -7.838 -12.760 -0.12 +0.01    +0.012    36.588
ATOM     47  C   UNL d   1      13.334  -1.396 -17.321 -0.10 +0.00    +0.004    36.588
ATOM     48  C   UNL d   1      14.065  -0.632 -18.137 -0.10 +0.00    +0.012    36.588
TER
ENDMDL
MODEL       15
USER    Run = 15
USER    Cluster Rank = 11
USER    Number of conformations in this cluster = 6
USER  
USER    RMSD from reference structure       = 31.331 A
USER  
USER    Estimated Free Energy of Binding    =   -6.46 kcal/mol  [=(1)+(2)+(3)-(4)]
USER    Estimated Inhibition Constant, Ki   =   18.54 uM (micromolar)  [Temperature = 298.15 K]
USER    
USER    (1) Final Intermolecular Energy     =  -10.04 kcal/mol
USER        vdW + Hbond + desolv Energy     =   -6.88 kcal/mol
USER        Electrostatic Energy            =   -3.15 kcal/mol
USER    (2) Final Total Internal Energy     =   -0.75 kcal/mol
USER    (3) Torsional Free Energy           =   +3.58 kcal/mol
USER    (4) Unbound System's Energy  [=(2)] =   -0.75 kcal/mol
USER    
USER    
USER  
USER    DPF = D:/Protein_go_brrr/autodock/final/AncB/heme_Co/dock.dpf
USER    NEWDPF move	heme_Co_opt.pdbqt
USER    NEWDPF about	8.781000 34.984000 -0.736000
USER    NEWDPF tran0	19.812243 3.200903 -2.812705
USER    NEWDPF axisangle0	-0.345009 -0.117326 -0.931238 -92.496466
USER    NEWDPF quaternion0	-0.249215 -0.084749 -0.672673 -0.691535
USER    NEWDPF dihe0	131.54 114.89 -13.04 109.09 132.44 137.34 -179.84 127.33 -125.21 -103.19 -12.11 -16.03 
USER  
USER                              x       y       z    vdW   Elec        q     RMS 
ATOM      1  C   UNL d   1      19.956   4.515  -4.536 -0.12 +0.03    +0.064    31.331
ATOM      2  C   UNL d   1      18.285   5.188  -0.135 -0.13 -0.00    +0.064    31.331
ATOM      3  C   UNL d   1      18.995   0.573   0.881 -0.19 +0.00    +0.064    31.331
ATOM      4  C   UNL d   1      21.063  -0.054  -3.477 -0.10 +0.01    +0.064    31.331
ATOM      5  C   UNL d   1      19.414   5.030  -3.420 -0.15 +0.02    +0.066    31.331
ATOM      6  C   UNL d   1      19.121   6.402  -3.295 -0.15 -0.01    -0.021    31.331
ATOM      7  C   UNL d   1      18.658   6.595  -2.009 -0.18 -0.00    -0.025    31.331
ATOM      8  C   UNL d   1      18.672   5.332  -1.409 -0.06 +0.00    +0.066    31.331
ATOM      9  C   UNL d   1      18.217   7.913  -1.354 -0.20 +0.01    +0.051    31.331
ATOM     10  C   UNL d   1      18.241   3.924   0.557 -0.26 -0.00    +0.066    31.331
ATOM     11  C   UNL d   1      17.713   3.686   1.845 -0.27 +0.00    -0.021    31.331
ATOM     12  C   UNL d   1      17.930   2.331   2.114 -0.16 -0.00    +0.000    31.331
ATOM     13  C   UNL d   1      18.560   1.842   0.970 -0.19 -0.00    +0.070    31.331
ATOM     14  C   UNL d   1      16.971   4.678   2.703 -0.28 +0.00    +0.052    31.331
ATOM     15  C   UNL d   1      19.707  -0.081  -0.199 -0.17 +0.01    +0.066    31.331
ATOM     16  C   UNL d   1      20.257  -1.355  -0.170 -0.12 -0.00    -0.021    31.331
ATOM     17  C   UNL d   1      20.857  -1.540  -1.424 -0.10 +0.00    +0.000    31.331
ATOM     18  C   UNL d   1      20.610  -0.366  -2.128 -0.13 +0.01    +0.070    31.331
ATOM     19  C   UNL d   1      20.196  -2.310   1.002 -0.09 +0.00    +0.052    31.331
ATOM     20  C   UNL d   1      20.910   1.112  -4.150 -0.07 +0.02    +0.066    31.331
ATOM     21  C   UNL d   1      21.422   1.304  -5.431 -0.07 -0.01    -0.025    31.331
ATOM     22  C   UNL d   1      21.093   2.602  -5.774 -0.08 -0.01    -0.021    31.331
ATOM     23  C   UNL d   1      20.401   3.147  -4.671 -0.08 +0.02    +0.066    31.331
ATOM     24  C   UNL d   1      22.204   0.306  -6.281 -0.03 +0.01    +0.051    31.331
ATOM     25  N   UNL d   1      19.130   4.342  -2.262 -0.14 -0.04    -0.248    31.331
ATOM     26  N   UNL d   1      18.696   2.793   0.007 -0.19 -0.00    -0.248    31.331
ATOM     27  N   UNL d   1      19.950   0.491  -1.357 -0.11 -0.04    -0.248    31.331
ATOM     28  N   UNL d   1      20.290   2.248  -3.685 +0.00 -0.07    -0.248    31.331
ATOM     29 FE   UNL d   1      19.565   2.302  -1.786 -0.05 +0.00    +0.000    31.331
ATOM     30  C   UNL d   1      19.359   7.482  -4.346 -0.15 +0.02    +0.052    31.331
ATOM     31  C   UNL d   1      18.361   7.342  -5.495 -0.26 +0.07    +0.115    31.331
ATOM     32  C   UNL d   1      16.927   7.299  -5.011 -0.44 +0.11    +0.139    31.331
ATOM     33  O   UNL d   1      16.526   8.159  -4.241 -0.10 -0.32    -0.650    31.331
ATOM     34  O   UNL d   1      16.052   6.361  -5.443 -0.38 -1.33    -0.776    31.331
ATOM     35  H   UNL d   1      15.527   5.797  -4.858 -0.32 +0.14    +0.167    31.331
ATOM     36  C   UNL d   1      21.416   2.981  -1.073 -0.04 +0.02    +0.190    31.331
ATOM     37  O   UNL d   1      22.298   4.065  -1.119 -0.00 -0.05    -0.399    31.331
ATOM     38  H   UNL d   1      21.839   4.745  -1.688 +0.02 +0.03    +0.209    31.331
ATOM     39  C   UNL d   1      21.482   3.297  -7.065 -0.04 +0.02    +0.052    31.331
ATOM     40  C   UNL d   1      20.466   2.985  -8.177 -0.07 +0.06    +0.115    31.331
ATOM     41  C   UNL d   1      19.118   3.650  -7.996 -0.05 +0.16    +0.139    31.331
ATOM     42  O   UNL d   1      18.216   3.035  -7.446 -0.17 -0.88    -0.650    31.331
ATOM     43  O   UNL d   1      18.909   4.939  -8.347 -0.43 -1.32    -0.776    31.331
ATOM     44  H   UNL d   1      19.623   5.520  -8.639 +0.04 +0.15    +0.167    31.331
ATOM     45  C   UNL d   1      17.599   1.444   3.307 -0.23 -0.00    +0.004    31.331
ATOM     46  C   UNL d   1      16.610   0.573   3.490 -0.29 -0.00    +0.012    31.331
ATOM     47  C   UNL d   1      21.653  -2.693  -1.940 -0.06 +0.00    +0.004    31.331
ATOM     48  C   UNL d   1      21.220  -3.519  -2.895 -0.07 +0.00    +0.012    31.331
TER
ENDMDL
MODEL        6
USER    Run = 6
USER    Cluster Rank = 12
USER    Number of conformations in this cluster = 1
USER  
USER    RMSD from reference structure       = 36.543 A
USER  
USER    Estimated Free Energy of Binding    =   -6.44 kcal/mol  [=(1)+(2)+(3)-(4)]
USER    Estimated Inhibition Constant, Ki   =   18.99 uM (micromolar)  [Temperature = 298.15 K]
USER    
USER    (1) Final Intermolecular Energy     =  -10.02 kcal/mol
USER        vdW + Hbond + desolv Energy     =   -6.35 kcal/mol
USER        Electrostatic Energy            =   -3.67 kcal/mol
USER    (2) Final Total Internal Energy     =   -2.17 kcal/mol
USER    (3) Torsional Free Energy           =   +3.58 kcal/mol
USER    (4) Unbound System's Energy  [=(2)] =   -2.17 kcal/mol
USER    
USER    
USER  
USER    DPF = D:/Protein_go_brrr/autodock/final/AncB/heme_Co/dock.dpf
USER    NEWDPF move	heme_Co_opt.pdbqt
USER    NEWDPF about	8.781000 34.984000 -0.736000
USER    NEWDPF tran0	-4.791788 1.581620 -13.490985
USER    NEWDPF axisangle0	-0.394225 0.499784 -0.771235 147.349204
USER    NEWDPF quaternion0	-0.378330 0.479633 -0.740139 0.281092
USER    NEWDPF dihe0	-91.83 103.85 97.39 0.43 88.00 117.33 40.74 175.95 167.98 146.08 -168.02 7.22 
USER  
USER                              x       y       z    vdW   Elec        q     RMS 
ATOM      1  C   UNL d   1      -4.352   2.072 -15.560 +0.09 +0.10    +0.064    36.543
ATOM      2  C   UNL d   1      -1.895  -0.291 -12.245 -0.22 +0.09    +0.064    36.543
ATOM      3  C   UNL d   1      -5.236   0.732  -8.986 -0.29 +0.03    +0.064    36.543
ATOM      4  C   UNL d   1      -7.949   2.820 -12.442 -0.07 +0.04    +0.064    36.543
ATOM      5  C   UNL d   1      -3.418   1.383 -14.885 -0.10 +0.11    +0.066    36.543
ATOM      6  C   UNL d   1      -2.288   0.833 -15.523 -0.09 -0.03    -0.021    36.543
ATOM      7  C   UNL d   1      -1.591   0.129 -14.561 -0.11 -0.04    -0.025    36.543
ATOM      8  C   UNL d   1      -2.315   0.293 -13.375 -0.13 +0.11    +0.066    36.543
ATOM      9  C   UNL d   1      -0.291  -0.672 -14.736 -0.17 +0.05    +0.051    36.543
ATOM     10  C   UNL d   1      -2.559  -0.158 -10.973 -0.26 +0.07    +0.066    36.543
ATOM     11  C   UNL d   1      -2.095  -0.628  -9.725 -0.34 -0.01    -0.021    36.543
ATOM     12  C   UNL d   1      -3.086  -0.313  -8.792 -0.39 +0.00    +0.000    36.543
ATOM     13  C   UNL d   1      -4.074   0.335  -9.535 -0.28 +0.04    +0.070    36.543
ATOM     14  C   UNL d   1      -0.748  -1.247  -9.450 -0.29 +0.03    +0.052    36.543
ATOM     15  C   UNL d   1      -6.380   1.365  -9.612 -0.22 +0.03    +0.066    36.543
ATOM     16  C   UNL d   1      -7.608   1.617  -9.018 -0.24 -0.01    -0.021    36.543
ATOM     17  C   UNL d   1      -8.395   2.217 -10.011 -0.12 +0.00    +0.000    36.543
ATOM     18  C   UNL d   1      -7.576   2.299 -11.132 -0.11 +0.04    +0.070    36.543
ATOM     19  C   UNL d   1      -7.974   1.291  -7.587 -0.32 +0.01    +0.052    36.543
ATOM     20  C   UNL d   1      -7.199   2.830 -13.569 -0.08 +0.06    +0.066    36.543
ATOM     21  C   UNL d   1      -7.681   3.326 -14.779 -0.05 -0.02    -0.025    36.543
ATOM     22  C   UNL d   1      -6.655   3.150 -15.689 -0.06 -0.02    -0.021    36.543
ATOM     23  C   UNL d   1      -5.594   2.540 -14.988 +0.10 +0.10    +0.066    36.543
ATOM     24  C   UNL d   1      -9.059   3.920 -15.059 -0.02 +0.02    +0.051    36.543
ATOM     25  N   UNL d   1      -3.448   1.069 -13.545 -0.13 -0.40    -0.248    36.543
ATOM     26  N   UNL d   1      -3.729   0.478 -10.842 -0.15 -0.23    -0.248    36.543
ATOM     27  N   UNL d   1      -6.393   1.754 -10.867 -0.11 -0.17    -0.248    36.543
ATOM     28  N   UNL d   1      -5.920   2.343 -13.705 -0.06 -0.32    -0.248    36.543
ATOM     29 FE   UNL d   1      -5.010   1.434 -12.129 -0.04 +0.00    +0.000    36.543
ATOM     30  C   UNL d   1      -1.950   0.920 -17.008 -0.03 +0.05    +0.052    36.543
ATOM     31  C   UNL d   1      -2.681  -0.172 -17.789 -0.02 +0.10    +0.115    36.543
ATOM     32  C   UNL d   1      -3.262  -1.238 -16.886 +0.01 +0.20    +0.139    36.543
ATOM     33  O   UNL d   1      -2.579  -2.205 -16.582 -0.13 -1.13    -0.650    36.543
ATOM     34  O   UNL d   1      -4.504  -1.134 -16.359 -0.00 -1.25    -0.776    36.543
ATOM     35  H   UNL d   1      -4.693  -0.791 -15.475 +0.01 +0.33    +0.167    36.543
ATOM     36  C   UNL d   1      -5.810  -0.416 -12.705 -0.09 +0.24    +0.190    36.543
ATOM     37  O   UNL d   1      -6.007  -1.249 -13.810 -0.16 -0.65    -0.399    36.543
ATOM     38  H   UNL d   1      -5.758  -0.691 -14.600 +0.02 +0.32    +0.209    36.543
ATOM     39  C   UNL d   1      -6.722   3.492 -17.166 -0.02 +0.04    +0.052    36.543
ATOM     40  C   UNL d   1      -5.855   4.722 -17.478 -0.04 +0.10    +0.115    36.543
ATOM     41  C   UNL d   1      -5.914   5.811 -16.428 +0.00 +0.16    +0.139    36.543
ATOM     42  O   UNL d   1      -6.999   6.154 -15.981 -0.03 -0.51    -0.650    36.543
ATOM     43  O   UNL d   1      -4.792   6.355 -15.905 -0.43 -1.56    -0.776    36.543
ATOM     44  H   UNL d   1      -4.471   7.229 -16.161 +0.01 +0.21    +0.167    36.543
ATOM     45  C   UNL d   1      -3.205  -0.531  -7.290 -0.52 +0.00    +0.004    36.543
ATOM     46  C   UNL d   1      -2.438  -1.223  -6.452 -0.50 +0.00    +0.012    36.543
ATOM     47  C   UNL d   1      -9.825   2.647  -9.966 -0.07 +0.00    +0.004    36.543
ATOM     48  C   UNL d   1     -10.271   3.641  -9.195 -0.08 +0.00    +0.012    36.543
TER
ENDMDL
MODEL        4
USER    Run = 4
USER    Cluster Rank = 13
USER    Number of conformations in this cluster = 1
USER  
USER    RMSD from reference structure       = 42.001 A
USER  
USER    Estimated Free Energy of Binding    =   -6.24 kcal/mol  [=(1)+(2)+(3)-(4)]
USER    Estimated Inhibition Constant, Ki   =   26.59 uM (micromolar)  [Temperature = 298.15 K]
USER    
USER    (1) Final Intermolecular Energy     =   -9.82 kcal/mol
USER        vdW + Hbond + desolv Energy     =   -6.41 kcal/mol
USER        Electrostatic Energy            =   -3.41 kcal/mol
USER    (2) Final Total Internal Energy     =   -1.67 kcal/mol
USER    (3) Torsional Free Energy           =   +3.58 kcal/mol
USER    (4) Unbound System's Energy  [=(2)] =   -1.67 kcal/mol
USER    
USER    
USER  
USER    DPF = D:/Protein_go_brrr/autodock/final/AncB/heme_Co/dock.dpf
USER    NEWDPF move	heme_Co_opt.pdbqt
USER    NEWDPF about	8.781000 34.984000 -0.736000
USER    NEWDPF tran0	0.886850 -4.031618 -17.657506
USER    NEWDPF axisangle0	0.992684 0.110226 0.049276 97.864614
USER    NEWDPF quaternion0	0.748418 0.083103 0.037151 0.656950
USER    NEWDPF dihe0	35.07 87.99 -50.36 -90.03 134.06 158.16 -123.37 178.78 79.10 41.25 25.59 121.50 
USER  
USER                              x       y       z    vdW   Elec        q     RMS 
ATOM      1  C   UNL d   1      -0.884  -5.080 -18.350 -0.18 +0.04    +0.064    42.001
ATOM      2  C   UNL d   1      -0.307  -0.962 -16.044 -0.12 +0.06    +0.064    42.001
ATOM      3  C   UNL d   1       4.392  -1.762 -15.715 -0.18 +0.01    +0.064    42.001
ATOM      4  C   UNL d   1       3.883  -5.783 -18.405 -0.04 +0.00    +0.064    42.001
ATOM      5  C   UNL d   1      -1.077  -3.914 -17.712 -0.16 +0.05    +0.066    42.001
ATOM      6  C   UNL d   1      -2.340  -3.294 -17.653 -0.12 -0.02    -0.021    42.001
ATOM      7  C   UNL d   1      -2.162  -2.089 -17.003 -0.01 -0.03    -0.025    42.001
ATOM      8  C   UNL d   1      -0.803  -2.032 -16.679 -0.12 +0.07    +0.066    42.001
ATOM      9  C   UNL d   1      -3.222  -1.021 -16.692 +0.01 +0.08    +0.051    42.001
ATOM     10  C   UNL d   1       1.072  -0.827 -15.647 -0.10 +0.04    +0.066    42.001
ATOM     11  C   UNL d   1       1.625   0.205 -14.857 -0.15 -0.01    -0.021    42.001
ATOM     12  C   UNL d   1       2.996  -0.055 -14.774 -0.23 +0.00    +0.000    42.001
ATOM     13  C   UNL d   1       3.175  -1.229 -15.506 -0.14 +0.02    +0.070    42.001
ATOM     14  C   UNL d   1       0.862   1.301 -14.159 -0.21 +0.04    +0.052    42.001
ATOM     15  C   UNL d   1       4.764  -2.932 -16.485 -0.14 +0.01    +0.066    42.001
ATOM     16  C   UNL d   1       6.055  -3.346 -16.783 -0.14 -0.00    -0.021    42.001
ATOM     17  C   UNL d   1       5.913  -4.504 -17.561 -0.13 +0.00    +0.000    42.001
ATOM     18  C   UNL d   1       4.542  -4.716 -17.662 -0.16 +0.01    +0.070    42.001
ATOM     19  C   UNL d   1       7.323  -2.653 -16.336 -0.25 +0.01    +0.052    42.001
ATOM     20  C   UNL d   1       2.553  -5.959 -18.590 -0.15 +0.01    +0.066    42.001
ATOM     21  C   UNL d   1       2.040  -7.004 -19.356 -0.19 -0.01    -0.025    42.001
ATOM     22  C   UNL d   1       0.667  -6.844 -19.334 -0.20 -0.01    -0.021    42.001
ATOM     23  C   UNL d   1       0.408  -5.693 -18.560 -0.20 +0.03    +0.066    42.001
ATOM     24  C   UNL d   1       2.821  -8.091 -20.090 -0.16 +0.01    +0.051    42.001
ATOM     25  N   UNL d   1      -0.107  -3.152 -17.101 -0.10 -0.18    -0.248    42.001
ATOM     26  N   UNL d   1       2.003  -1.724 -15.986 -0.02 -0.12    -0.248    42.001
ATOM     27  N   UNL d   1       3.888  -3.743 -17.036 -0.06 -0.05    -0.248    42.001
ATOM     28  N   UNL d   1       1.547  -5.153 -18.110 -0.15 -0.08    -0.248    42.001
ATOM     29 FE   UNL d   1       2.009  -3.469 -17.068 -0.04 +0.00    +0.000    42.001
ATOM     30  C   UNL d   1      -3.636  -3.810 -18.270 -0.11 +0.05    +0.052    42.001
ATOM     31  C   UNL d   1      -4.604  -4.270 -17.181 -0.14 +0.14    +0.115    42.001
ATOM     32  C   UNL d   1      -4.648  -5.777 -17.046 -0.18 +0.20    +0.139    42.001
ATOM     33  O   UNL d   1      -4.124  -6.309 -16.079 -0.09 -0.95    -0.650    42.001
ATOM     34  O   UNL d   1      -5.295  -6.558 -17.942 +0.08 -1.55    -0.776    42.001
ATOM     35  H   UNL d   1      -5.392  -6.344 -18.880 +0.01 +0.27    +0.167    42.001
ATOM     36  C   UNL d   1       2.089  -2.362 -18.847 -0.04 +0.07    +0.190    42.001
ATOM     37  O   UNL d   1       1.300  -1.631 -19.741 +0.00 -0.14    -0.399    42.001
ATOM     38  H   UNL d   1       0.379  -1.999 -19.630 +0.01 +0.09    +0.209    42.001
ATOM     39  C   UNL d   1      -0.332  -7.714 -20.073 -0.17 +0.03    +0.052    42.001
ATOM     40  C   UNL d   1      -1.421  -6.852 -20.732 -0.11 +0.08    +0.115    42.001
ATOM     41  C   UNL d   1      -2.799  -7.479 -20.735 +0.06 +0.18    +0.139    42.001
ATOM     42  O   UNL d   1      -2.916  -8.664 -21.014 -0.18 -0.88    -0.650    42.001
ATOM     43  O   UNL d   1      -3.895  -6.788 -20.353 -0.52 -1.24    -0.776    42.001
ATOM     44  H   UNL d   1      -3.906  -6.223 -19.569 +0.01 +0.26    +0.167    42.001
ATOM     45  C   UNL d   1       4.147   0.656 -14.075 -0.45 +0.00    +0.004    42.001
ATOM     46  C   UNL d   1       5.052   1.509 -14.546 -0.54 +0.00    +0.012    42.001
ATOM     47  C   UNL d   1       6.957  -5.345 -18.218 -0.09 +0.00    +0.004    42.001
ATOM     48  C   UNL d   1       7.236  -6.597 -17.848 -0.14 +0.00    +0.012    42.001
TER
ENDMDL
MODEL       94
USER    Run = 94
USER    Cluster Rank = 14
USER    Number of conformations in this cluster = 1
USER  
USER    RMSD from reference structure       = 53.841 A
USER  
USER    Estimated Free Energy of Binding    =   -6.24 kcal/mol  [=(1)+(2)+(3)-(4)]
USER    Estimated Inhibition Constant, Ki   =   26.84 uM (micromolar)  [Temperature = 298.15 K]
USER    
USER    (1) Final Intermolecular Energy     =   -9.82 kcal/mol
USER        vdW + Hbond + desolv Energy     =   -4.80 kcal/mol
USER        Electrostatic Energy            =   -5.02 kcal/mol
USER    (2) Final Total Internal Energy     =   -2.55 kcal/mol
USER    (3) Torsional Free Energy           =   +3.58 kcal/mol
USER    (4) Unbound System's Energy  [=(2)] =   -2.55 kcal/mol
USER    
USER    
USER  
USER    DPF = D:/Protein_go_brrr/autodock/final/AncB/heme_Co/dock.dpf
USER    NEWDPF move	heme_Co_opt.pdbqt
USER    NEWDPF about	8.781000 34.984000 -0.736000
USER    NEWDPF tran0	-7.289031 -18.093908 11.507293
USER    NEWDPF axisangle0	0.099637 -0.906890 0.409417 -120.285301
USER    NEWDPF quaternion0	0.086412 -0.786516 0.355075 -0.497842
USER    NEWDPF dihe0	-122.02 148.77 -176.55 -96.02 147.42 17.31 9.11 104.52 -82.59 94.31 167.13 -173.24 
USER  
USER                              x       y       z    vdW   Elec        q     RMS 
ATOM      1  C   UNL d   1      -5.973 -17.601   9.852 -0.05 +0.05    +0.064    53.841
ATOM      2  C   UNL d   1      -7.983 -21.684  11.230 +0.00 +0.02    +0.064    53.841
ATOM      3  C   UNL d   1      -9.746 -19.546  15.122 -0.01 +0.01    +0.064    53.841
ATOM      4  C   UNL d   1      -8.029 -15.279  13.540 -0.16 +0.02    +0.064    53.841
ATOM      5  C   UNL d   1      -6.362 -18.882   9.961 -0.02 +0.05    +0.066    53.841
ATOM      6  C   UNL d   1      -6.095 -19.833   8.957 -0.00 -0.01    -0.021    53.841
ATOM      7  C   UNL d   1      -6.700 -21.010   9.351 +0.00 -0.01    -0.025    53.841
ATOM      8  C   UNL d   1      -7.296 -20.732  10.586 +0.00 +0.03    +0.066    53.841
ATOM      9  C   UNL d   1      -6.725 -22.353   8.605 +0.01 +0.02    +0.051    53.841
ATOM     10  C   UNL d   1      -8.607 -21.499  12.516 +0.01 +0.02    +0.066    53.841
ATOM     11  C   UNL d   1      -9.221 -22.494  13.307 +0.00 -0.00    -0.021    53.841
ATOM     12  C   UNL d   1      -9.723 -21.844  14.438 +0.00 +0.00    +0.000    53.841
ATOM     13  C   UNL d   1      -9.368 -20.507  14.260 +0.00 +0.02    +0.070    53.841
ATOM     14  C   UNL d   1      -9.231 -23.975  13.029 +0.00 +0.01    +0.052    53.841
ATOM     15  C   UNL d   1      -9.514 -18.116  15.066 -0.04 +0.02    +0.066    53.841
ATOM     16  C   UNL d   1     -10.055 -17.161  15.914 -0.07 -0.00    -0.021    53.841
ATOM     17  C   UNL d   1      -9.565 -15.928  15.460 -0.08 +0.00    +0.000    53.841
ATOM     18  C   UNL d   1      -8.746 -16.232  14.377 -0.10 +0.02    +0.070    53.841
ATOM     19  C   UNL d   1     -10.982 -17.443  17.075 -0.04 +0.01    +0.052    53.841
ATOM     20  C   UNL d   1      -7.297 -15.543  12.431 -0.14 +0.03    +0.066    53.841
ATOM     21  C   UNL d   1      -6.684 -14.537  11.688 -0.19 -0.01    -0.025    53.841
ATOM     22  C   UNL d   1      -6.059 -15.180  10.634 -0.14 -0.01    -0.021    53.841
ATOM     23  C   UNL d   1      -6.335 -16.556  10.782 -0.09 +0.05    +0.066    53.841
ATOM     24  C   UNL d   1      -6.707 -13.035  11.956 -0.31 +0.03    +0.051    53.841
ATOM     25  N   UNL d   1      -7.098 -19.423  10.991 -0.01 -0.15    -0.248    53.841
ATOM     26  N   UNL d   1      -8.646 -20.309  13.125 +0.00 -0.08    -0.248    53.841
ATOM     27  N   UNL d   1      -8.764 -17.541  14.153 -0.04 -0.08    -0.248    53.841
ATOM     28  N   UNL d   1      -7.086 -16.780  11.867 -0.06 -0.14    -0.248    53.841
ATOM     29 FE   UNL d   1      -7.978 -18.423  12.665 -0.01 +0.00    +0.000    53.841
ATOM     30  C   UNL d   1      -5.360 -19.586   7.643 +0.00 +0.04    +0.052    53.841
ATOM     31  C   UNL d   1      -6.334 -19.632   6.466 -0.01 +0.11    +0.115    53.841
ATOM     32  C   UNL d   1      -6.824 -18.256   6.069 -0.05 +0.25    +0.139    53.841
ATOM     33  O   UNL d   1      -8.021 -18.012   6.104 -0.03 -1.55    -0.650    53.841
ATOM     34  O   UNL d   1      -5.973 -17.265   5.718 -0.18 -1.68    -0.776    53.841
ATOM     35  H   UNL d   1      -5.964 -16.387   6.123 +0.04 +0.39    +0.167    53.841
ATOM     36  C   UNL d   1      -9.664 -18.124  11.455 -0.12 +0.20    +0.190    53.841
ATOM     37  O   UNL d   1     -10.626 -17.173  11.100 -0.89 -0.60    -0.399    53.841
ATOM     38  H   UNL d   1     -10.139 -16.302  11.104 -0.53 +0.26    +0.209    53.841
ATOM     39  C   UNL d   1      -5.296 -14.497   9.515 -0.14 +0.03    +0.052    53.841
ATOM     40  C   UNL d   1      -6.261 -13.765   8.568 -0.24 +0.10    +0.115    53.841
ATOM     41  C   UNL d   1      -6.738 -14.598   7.396 -0.25 +0.22    +0.139    53.841
ATOM     42  O   UNL d   1      -6.459 -14.246   6.259 -0.18 -1.16    -0.650    53.841
ATOM     43  O   UNL d   1      -7.389 -15.769   7.576 -0.43 -2.02    -0.776    53.841
ATOM     44  H   UNL d   1      -7.576 -16.376   6.848 +0.02 +0.51    +0.167    53.841
ATOM     45  C   UNL d   1     -10.476 -22.333  15.668 +0.00 +0.00    +0.004    53.841
ATOM     46  C   UNL d   1     -11.761 -22.227  15.996 +0.00 +0.00    +0.012    53.841
ATOM     47  C   UNL d   1      -9.860 -14.547  15.945 -0.13 +0.00    +0.004    53.841
ATOM     48  C   UNL d   1      -8.916 -13.678  16.315 -0.13 +0.00    +0.012    53.841
TER
ENDMDL
MODEL       54
USER    Run = 54
USER    Cluster Rank = 15
USER    Number of conformations in this cluster = 1
USER  
USER    RMSD from reference structure       = 37.142 A
USER  
USER    Estimated Free Energy of Binding    =   -6.16 kcal/mol  [=(1)+(2)+(3)-(4)]
USER    Estimated Inhibition Constant, Ki   =   30.47 uM (micromolar)  [Temperature = 298.15 K]
USER    
USER    (1) Final Intermolecular Energy     =   -9.74 kcal/mol
USER        vdW + Hbond + desolv Energy     =   -6.24 kcal/mol
USER        Electrostatic Energy            =   -3.50 kcal/mol
USER    (2) Final Total Internal Energy     =   -3.41 kcal/mol
USER    (3) Torsional Free Energy           =   +3.58 kcal/mol
USER    (4) Unbound System's Energy  [=(2)] =   -3.41 kcal/mol
USER    
USER    
USER  
USER    DPF = D:/Protein_go_brrr/autodock/final/AncB/heme_Co/dock.dpf
USER    NEWDPF move	heme_Co_opt.pdbqt
USER    NEWDPF about	8.781000 34.984000 -0.736000
USER    NEWDPF tran0	-2.549166 -0.102108 -14.710917
USER    NEWDPF axisangle0	-0.681866 -0.536885 -0.496803 -56.604986
USER    NEWDPF quaternion0	-0.323291 -0.254552 -0.235548 -0.880457
USER    NEWDPF dihe0	105.40 87.64 94.36 -3.74 50.23 119.13 20.35 -45.40 147.16 -156.90 -146.46 155.32 
USER  
USER                              x       y       z    vdW   Elec        q     RMS 
ATOM      1  C   UNL d   1      -3.478   0.136 -16.659 -0.05 +0.08    +0.064    37.142
ATOM      2  C   UNL d   1      -5.168   0.586 -12.238 -0.17 +0.07    +0.064    37.142
ATOM      3  C   UNL d   1      -0.999  -0.916 -10.451 -0.12 +0.04    +0.064    37.142
ATOM      4  C   UNL d   1       0.874  -1.015 -14.939 -0.14 +0.04    +0.064    37.142
ATOM      5  C   UNL d   1      -4.258   0.334 -15.584 -0.06 +0.10    +0.066    37.142
ATOM      6  C   UNL d   1      -5.562   0.855 -15.692 -0.05 -0.02    -0.021    37.142
ATOM      7  C   UNL d   1      -6.040   1.005 -14.405 -0.08 -0.03    -0.025    37.142
ATOM      8  C   UNL d   1      -5.013   0.554 -13.568 -0.12 +0.09    +0.066    37.142
ATOM      9  C   UNL d   1      -7.407   1.550 -13.964 -0.05 +0.04    +0.051    37.142
ATOM     10  C   UNL d   1      -4.179   0.120 -11.299 -0.20 +0.07    +0.066    37.142
ATOM     11  C   UNL d   1      -4.335  -0.005  -9.901 -0.27 -0.01    -0.021    37.142
ATOM     12  C   UNL d   1      -3.106  -0.448  -9.406 -0.34 +0.00    +0.000    37.142
ATOM     13  C   UNL d   1      -2.297  -0.574 -10.535 -0.28 +0.06    +0.070    37.142
ATOM     14  C   UNL d   1      -5.610   0.200  -9.124 -0.30 +0.02    +0.052    37.142
ATOM     15  C   UNL d   1      -0.011  -1.041 -11.503 +0.09 +0.05    +0.066    37.142
ATOM     16  C   UNL d   1       1.350  -1.257 -11.334 -0.29 -0.01    -0.021    37.142
ATOM     17  C   UNL d   1       1.895  -1.284 -12.625 -0.24 +0.00    +0.000    37.142
ATOM     18  C   UNL d   1       0.817  -1.098 -13.485 -0.21 +0.05    +0.070    37.142
ATOM     19  C   UNL d   1       2.052  -1.421 -10.004 -0.41 +0.02    +0.052    37.142
ATOM     20  C   UNL d   1      -0.146  -0.749 -15.790 -0.10 +0.06    +0.066    37.142
ATOM     21  C   UNL d   1       0.040  -0.659 -17.168 -0.04 -0.02    -0.025    37.142
ATOM     22  C   UNL d   1      -1.204  -0.357 -17.693 -0.02 -0.02    -0.021    37.142
ATOM     23  C   UNL d   1      -2.091  -0.265 -16.599 -0.05 +0.08    +0.066    37.142
ATOM     24  C   UNL d   1       1.342  -0.832 -17.945 -0.04 +0.02    +0.051    37.142
ATOM     25  N   UNL d   1      -3.900   0.128 -14.271 -0.05 -0.48    -0.248    37.142
ATOM     26  N   UNL d   1      -2.964  -0.284 -11.684 -0.14 -0.34    -0.248    37.142
ATOM     27  N   UNL d   1      -0.297  -0.927 -12.781 -0.17 -0.25    -0.248    37.142
ATOM     28  N   UNL d   1      -1.454  -0.500 -15.445 -0.03 -0.37    -0.248    37.142
ATOM     29 FE   UNL d   1      -1.990  -0.432 -13.485 -0.05 +0.00    +0.000    37.142
ATOM     30  C   UNL d   1      -6.275   1.263 -16.978 -0.01 +0.04    +0.052    37.142
ATOM     31  C   UNL d   1      -5.528   2.404 -17.667 -0.01 +0.09    +0.115    37.142
ATOM     32  C   UNL d   1      -4.894   3.359 -16.679 -0.02 +0.19    +0.139    37.142
ATOM     33  O   UNL d   1      -5.357   4.482 -16.547 -0.17 -0.94    -0.650    37.142
ATOM     34  O   UNL d   1      -3.853   2.994 -15.894 +0.01 -1.70    -0.776    37.142
ATOM     35  H   UNL d   1      -2.932   3.230 -16.069 +0.01 +0.34    +0.167    37.142
ATOM     36  C   UNL d   1      -1.547   1.616 -13.411 -0.17 +0.24    +0.190    37.142
ATOM     37  O   UNL d   1      -1.751   2.825 -14.083 -0.10 -0.78    -0.399    37.142
ATOM     38  H   UNL d   1      -1.917   2.566 -15.032 +0.04 +0.37    +0.209    37.142
ATOM     39  C   UNL d   1      -1.502  -0.107 -19.159 +0.00 +0.03    +0.052    37.142
ATOM     40  C   UNL d   1      -1.668   1.397 -19.430 +0.01 +0.06    +0.115    37.142
ATOM     41  C   UNL d   1      -1.105   2.293 -18.347 +0.01 +0.09    +0.139    37.142
ATOM     42  O   UNL d   1       0.044   2.701 -18.444 +0.03 -0.36    -0.650    37.142
ATOM     43  O   UNL d   1      -1.866   2.726 -17.317 +0.03 -0.71    -0.776    37.142
ATOM     44  H   UNL d   1      -1.830   2.323 -16.440 +0.02 +0.19    +0.167    37.142
ATOM     45  C   UNL d   1      -2.611  -0.784  -8.005 -0.47 +0.00    +0.004    37.142
ATOM     46  C   UNL d   1      -3.154  -0.547  -6.814 -0.53 +0.00    +0.012    37.142
ATOM     47  C   UNL d   1       3.318  -1.418 -13.057 -0.41 +0.00    +0.004    37.142
ATOM     48  C   UNL d   1       4.245  -2.068 -12.349 -0.54 +0.00    +0.012    37.142
TER
ENDMDL
MODEL       70
USER    Run = 70
USER    Cluster Rank = 16
USER    Number of conformations in this cluster = 1
USER  
USER    RMSD from reference structure       = 46.441 A
USER  
USER    Estimated Free Energy of Binding    =   -6.11 kcal/mol  [=(1)+(2)+(3)-(4)]
USER    Estimated Inhibition Constant, Ki   =   33.38 uM (micromolar)  [Temperature = 298.15 K]
USER    
USER    (1) Final Intermolecular Energy     =   -9.69 kcal/mol
USER        vdW + Hbond + desolv Energy     =   -7.07 kcal/mol
USER        Electrostatic Energy            =   -2.61 kcal/mol
USER    (2) Final Total Internal Energy     =   -2.22 kcal/mol
USER    (3) Torsional Free Energy           =   +3.58 kcal/mol
USER    (4) Unbound System's Energy  [=(2)] =   -2.22 kcal/mol
USER    
USER    
USER  
USER    DPF = D:/Protein_go_brrr/autodock/final/AncB/heme_Co/dock.dpf
USER    NEWDPF move	heme_Co_opt.pdbqt
USER    NEWDPF about	8.781000 34.984000 -0.736000
USER    NEWDPF tran0	-3.527360 -11.293560 10.662772
USER    NEWDPF axisangle0	-0.642144 -0.115098 -0.757894 161.885091
USER    NEWDPF quaternion0	-0.634137 -0.113663 -0.748444 0.157425
USER    NEWDPF dihe0	-166.02 127.18 32.16 110.95 136.00 129.15 48.44 170.75 164.38 18.98 -157.95 122.69 
USER  
USER                              x       y       z    vdW   Elec        q     RMS 
ATOM      1  C   UNL d   1      -4.127 -12.465   8.935 -0.16 +0.03    +0.064    46.441
ATOM      2  C   UNL d   1      -0.389  -9.637   9.736 +0.21 +0.01    +0.064    46.441
ATOM      3  C   UNL d   1      -2.188  -8.399  13.986 -0.15 +0.01    +0.064    46.441
ATOM      4  C   UNL d   1      -5.821 -11.573  13.358 -0.19 +0.03    +0.064    46.441
ATOM      5  C   UNL d   1      -2.992 -11.755   8.827 -0.17 +0.02    +0.066    46.441
ATOM      6  C   UNL d   1      -2.123 -11.899   7.727 -0.23 -0.01    -0.021    46.441
ATOM      7  C   UNL d   1      -1.029 -11.094   7.975 -0.22 -0.01    -0.025    46.441
ATOM      8  C   UNL d   1      -1.284 -10.481   9.207 -0.14 +0.01    +0.066    46.441
ATOM      9  C   UNL d   1       0.216 -10.899   7.097 -0.21 +0.01    +0.051    46.441
ATOM     10  C   UNL d   1      -0.576  -8.940  10.984 -0.16 +0.01    +0.066    46.441
ATOM     11  C   UNL d   1       0.259  -7.938  11.524 -0.22 -0.00    -0.021    46.441
ATOM     12  C   UNL d   1      -0.291  -7.592  12.762 -0.23 +0.00    +0.000    46.441
ATOM     13  C   UNL d   1      -1.425  -8.397  12.879 -0.18 +0.01    +0.070    46.441
ATOM     14  C   UNL d   1       1.443  -7.301  10.844 -0.20 +0.00    +0.052    46.441
ATOM     15  C   UNL d   1      -3.357  -9.199  14.295 -0.11 +0.02    +0.066    46.441
ATOM     16  C   UNL d   1      -4.015  -9.257  15.516 -0.13 -0.01    -0.021    46.441
ATOM     17  C   UNL d   1      -5.062 -10.173  15.341 -0.14 +0.00    +0.000    46.441
ATOM     18  C   UNL d   1      -4.970 -10.590  14.017 -0.07 +0.04    +0.070    46.441
ATOM     19  C   UNL d   1      -3.639  -8.472  16.753 -0.10 +0.00    +0.052    46.441
ATOM     20  C   UNL d   1      -5.698 -12.058  12.099 -0.21 +0.03    +0.066    46.441
ATOM     21  C   UNL d   1      -6.556 -13.030  11.590 -0.28 -0.01    -0.025    46.441
ATOM     22  C   UNL d   1      -6.110 -13.285  10.306 -0.23 -0.01    -0.021    46.441
ATOM     23  C   UNL d   1      -4.985 -12.460  10.099 -0.19 +0.03    +0.066    46.441
ATOM     24  C   UNL d   1      -7.733 -13.697  12.297 -0.29 +0.03    +0.051    46.441
ATOM     25  N   UNL d   1      -2.496 -10.868   9.754 -0.11 -0.06    -0.248    46.441
ATOM     26  N   UNL d   1      -1.627  -9.171  11.779 -0.13 -0.05    -0.248    46.441
ATOM     27  N   UNL d   1      -3.925 -10.013  13.434 -0.11 -0.10    -0.248    46.441
ATOM     28  N   UNL d   1      -4.730 -11.717  11.183 -0.12 -0.10    -0.248    46.441
ATOM     29 FE   UNL d   1      -3.256 -10.417  11.702 -0.04 +0.00    +0.000    46.441
ATOM     30  C   UNL d   1      -2.310 -12.835   6.537 -0.13 +0.02    +0.052    46.441
ATOM     31  C   UNL d   1      -2.040 -14.283   6.945 -0.08 +0.04    +0.115    46.441
ATOM     32  C   UNL d   1      -1.269 -14.383   8.244 -0.02 +0.04    +0.139    46.441
ATOM     33  O   UNL d   1      -0.055 -14.241   8.235 +0.02 -0.13    -0.650    46.441
ATOM     34  O   UNL d   1      -1.887 -14.578   9.432 +0.03 -0.22    -0.776    46.441
ATOM     35  H   UNL d   1      -1.448 -14.511  10.291 +0.01 +0.04    +0.167    46.441
ATOM     36  C   UNL d   1      -2.076 -12.000  12.406 -0.03 +0.04    +0.190    46.441
ATOM     37  O   UNL d   1      -1.478 -13.203  12.017 -0.00 -0.08    -0.399    46.441
ATOM     38  H   UNL d   1      -1.520 -13.199  11.020 +0.02 +0.04    +0.209    46.441
ATOM     39  C   UNL d   1      -6.698 -14.315   9.359 -0.22 +0.05    +0.052    46.441
ATOM     40  C   UNL d   1      -5.581 -15.111   8.663 -0.15 +0.10    +0.115    46.441
ATOM     41  C   UNL d   1      -6.045 -15.932   7.478 -0.16 +0.21    +0.139    46.441
ATOM     42  O   UNL d   1      -7.000 -16.684   7.608 -0.42 -1.51    -0.650    46.441
ATOM     43  O   UNL d   1      -5.488 -15.791   6.254 -0.51 -1.39    -0.776    46.441
ATOM     44  H   UNL d   1      -4.541 -15.648   6.129 +0.04 +0.19    +0.167    46.441
ATOM     45  C   UNL d   1       0.111  -6.586  13.832 -0.25 +0.00    +0.004    46.441
ATOM     46  C   UNL d   1      -0.385  -5.387  14.123 -0.41 -0.00    +0.012    46.441
ATOM     47  C   UNL d   1      -6.060 -10.682  16.329 -0.13 +0.00    +0.004    46.441
ATOM     48  C   UNL d   1      -7.370 -10.435  16.247 -0.19 +0.01    +0.012    46.441
TER
ENDMDL
MODEL       46
USER    Run = 46
USER    Cluster Rank = 17
USER    Number of conformations in this cluster = 1
USER  
USER    RMSD from reference structure       = 43.554 A
USER  
USER    Estimated Free Energy of Binding    =   -6.09 kcal/mol  [=(1)+(2)+(3)-(4)]
USER    Estimated Inhibition Constant, Ki   =   34.54 uM (micromolar)  [Temperature = 298.15 K]
USER    
USER    (1) Final Intermolecular Energy     =   -9.67 kcal/mol
USER        vdW + Hbond + desolv Energy     =   -6.15 kcal/mol
USER        Electrostatic Energy            =   -3.52 kcal/mol
USER    (2) Final Total Internal Energy     =   -0.86 kcal/mol
USER    (3) Torsional Free Energy           =   +3.58 kcal/mol
USER    (4) Unbound System's Energy  [=(2)] =   -0.86 kcal/mol
USER    
USER    
USER  
USER    DPF = D:/Protein_go_brrr/autodock/final/AncB/heme_Co/dock.dpf
USER    NEWDPF move	heme_Co_opt.pdbqt
USER    NEWDPF about	8.781000 34.984000 -0.736000
USER    NEWDPF tran0	2.950013 -5.454454 -18.535470
USER    NEWDPF axisangle0	-0.822695 0.433067 -0.368274 -98.565556
USER    NEWDPF quaternion0	-0.623552 0.328238 -0.279129 -0.652326
USER    NEWDPF dihe0	-25.44 111.24 67.50 72.32 132.49 135.54 63.33 -98.03 -83.27 66.94 -22.57 13.35 
USER  
USER                              x       y       z    vdW   Elec        q     RMS 
ATOM      1  C   UNL d   1       1.051  -4.460 -18.884 -0.11 +0.02    +0.064    43.554
ATOM      2  C   UNL d   1       4.862  -3.257 -16.307 -0.18 +0.01    +0.064    43.554
ATOM      3  C   UNL d   1       6.893  -7.473 -17.274 -0.21 +0.00    +0.064    43.554
ATOM      4  C   UNL d   1       3.184  -8.569 -20.224 -0.12 +0.01    +0.064    43.554
ATOM      5  C   UNL d   1       1.927  -3.836 -18.079 -0.12 +0.02    +0.066    43.554
ATOM      6  C   UNL d   1       1.720  -2.518 -17.628 -0.08 -0.01    -0.021    43.554
ATOM      7  C   UNL d   1       2.840  -2.166 -16.899 -0.05 -0.01    -0.025    43.554
ATOM      8  C   UNL d   1       3.674  -3.289 -16.924 -0.01 +0.02    +0.066    43.554
ATOM      9  C   UNL d   1       3.128  -0.828 -16.202 -0.14 +0.02    +0.051    43.554
ATOM     10  C   UNL d   1       5.776  -4.371 -16.257 -0.22 +0.01    +0.066    43.554
ATOM     11  C   UNL d   1       6.972  -4.449 -15.510 -0.30 -0.00    -0.021    43.554
ATOM     12  C   UNL d   1       7.541  -5.690 -15.808 -0.26 +0.00    +0.000    43.554
ATOM     13  C   UNL d   1       6.647  -6.281 -16.701 -0.24 +0.00    +0.070    43.554
ATOM     14  C   UNL d   1       7.468  -3.434 -14.513 -0.22 +0.01    +0.052    43.554
ATOM     15  C   UNL d   1       6.110  -8.202 -18.251 -0.16 -0.00    +0.066    43.554
ATOM     16  C   UNL d   1       6.491  -9.361 -18.913 -0.08 -0.00    -0.021    43.554
ATOM     17  C   UNL d   1       5.425  -9.680 -19.766 -0.13 +0.00    +0.000    43.554
ATOM     18  C   UNL d   1       4.467  -8.696 -19.545 -0.16 +0.00    +0.070    43.554
ATOM     19  C   UNL d   1       7.801 -10.091 -18.718 -0.11 +0.00    +0.052    43.554
ATOM     20  C   UNL d   1       2.274  -7.574 -20.088 -0.14 +0.01    +0.066    43.554
ATOM     21  C   UNL d   1       1.091  -7.543 -20.823 -0.10 -0.01    -0.025    43.554
ATOM     22  C   UNL d   1       0.442  -6.384 -20.436 -0.10 -0.01    -0.021    43.554
ATOM     23  C   UNL d   1       1.274  -5.755 -19.486 -0.14 +0.02    +0.066    43.554
ATOM     24  C   UNL d   1       0.611  -8.556 -21.858 -0.05 +0.02    +0.051    43.554
ATOM     25  N   UNL d   1       3.131  -4.341 -17.643 -0.10 -0.05    -0.248    43.554
ATOM     26  N   UNL d   1       5.553  -5.507 -16.927 -0.16 -0.01    -0.248    43.554
ATOM     27  N   UNL d   1       4.921  -7.816 -18.659 -0.12 +0.01    -0.248    43.554
ATOM     28  N   UNL d   1       2.385  -6.471 -19.274 -0.11 -0.05    -0.248    43.554
ATOM     29 FE   UNL d   1       4.076  -6.182 -18.183 -0.05 -0.00    +0.000    43.554
ATOM     30  C   UNL d   1       0.533  -1.620 -17.957 -0.06 +0.03    +0.052    43.554
ATOM     31  C   UNL d   1      -0.767  -2.238 -17.444 -0.10 +0.09    +0.115    43.554
ATOM     32  C   UNL d   1      -1.154  -1.716 -16.077 -0.04 +0.19    +0.139    43.554
ATOM     33  O   UNL d   1      -0.452  -1.980 -15.112 -0.09 -0.83    -0.650    43.554
ATOM     34  O   UNL d   1      -2.234  -0.922 -15.892 -0.41 -1.50    -0.776    43.554
ATOM     35  H   UNL d   1      -2.580  -0.311 -16.557 +0.01 +0.22    +0.167    43.554
ATOM     36  C   UNL d   1       4.953  -5.136 -19.774 -0.04 +0.03    +0.190    43.554
ATOM     37  O   UNL d   1       4.830  -3.977 -20.547 +0.00 -0.08    -0.399    43.554
ATOM     38  H   UNL d   1       4.011  -3.524 -20.202 +0.02 +0.05    +0.209    43.554
ATOM     39  C   UNL d   1      -0.873  -5.883 -21.001 -0.07 +0.03    +0.052    43.554
ATOM     40  C   UNL d   1      -1.967  -5.890 -19.920 -0.12 +0.09    +0.115    43.554
ATOM     41  C   UNL d   1      -3.145  -6.790 -20.229 +0.19 +0.20    +0.139    43.554
ATOM     42  O   UNL d   1      -2.945  -7.883 -20.741 -0.43 -0.97    -0.650    43.554
ATOM     43  O   UNL d   1      -4.405  -6.456 -19.875 -0.23 -1.26    -0.776    43.554
ATOM     44  H   UNL d   1      -4.910  -5.773 -20.335 +0.01 +0.16    +0.167    43.554
ATOM     45  C   UNL d   1       8.811  -6.389 -15.339 -0.28 +0.00    +0.004    43.554
ATOM     46  C   UNL d   1       9.171  -6.811 -14.130 -0.39 +0.00    +0.012    43.554
ATOM     47  C   UNL d   1       5.300 -10.784 -20.764 -0.08 +0.00    +0.004    43.554
ATOM     48  C   UNL d   1       4.468 -11.818 -20.619 -0.09 +0.00    +0.012    43.554
TER
ENDMDL
MODEL       92
USER    Run = 92
USER    Cluster Rank = 18
USER    Number of conformations in this cluster = 1
USER  
USER    RMSD from reference structure       = 40.211 A
USER  
USER    Estimated Free Energy of Binding    =   -6.00 kcal/mol  [=(1)+(2)+(3)-(4)]
USER    Estimated Inhibition Constant, Ki   =   39.99 uM (micromolar)  [Temperature = 298.15 K]
USER    
USER    (1) Final Intermolecular Energy     =   -9.58 kcal/mol
USER        vdW + Hbond + desolv Energy     =   -5.69 kcal/mol
USER        Electrostatic Energy            =   -3.89 kcal/mol
USER    (2) Final Total Internal Energy     =   -1.73 kcal/mol
USER    (3) Torsional Free Energy           =   +3.58 kcal/mol
USER    (4) Unbound System's Energy  [=(2)] =   -1.73 kcal/mol
USER    
USER    
USER  
USER    DPF = D:/Protein_go_brrr/autodock/final/AncB/heme_Co/dock.dpf
USER    NEWDPF move	heme_Co_opt.pdbqt
USER    NEWDPF about	8.781000 34.984000 -0.736000
USER    NEWDPF tran0	-7.052510 -1.436050 -12.455474
USER    NEWDPF axisangle0	-0.046244 0.429682 -0.901795 -137.681333
USER    NEWDPF quaternion0	-0.043126 0.400713 -0.840996 -0.360963
USER    NEWDPF dihe0	127.57 127.20 35.66 -97.84 -84.68 -111.93 -180.00 -54.25 -71.97 133.05 -154.13 -153.35 
USER  
USER                              x       y       z    vdW   Elec        q     RMS 
ATOM      1  C   UNL d   1      -5.651   0.143 -12.962 -0.11 +0.08    +0.064    40.211
ATOM      2  C   UNL d   1      -6.749  -1.953  -8.837 -0.15 +0.03    +0.064    40.211
ATOM      3  C   UNL d   1     -10.199  -4.463 -10.988 -0.11 +0.03    +0.064    40.211
ATOM      4  C   UNL d   1      -8.842  -2.623 -15.282 -0.01 +0.04    +0.064    40.211
ATOM      5  C   UNL d   1      -5.721  -0.218 -11.670 -0.13 +0.06    +0.066    40.211
ATOM      6  C   UNL d   1      -4.807   0.258 -10.710 -0.22 -0.02    -0.021    40.211
ATOM      7  C   UNL d   1      -5.116  -0.371  -9.520 -0.25 -0.01    -0.025    40.211
ATOM      8  C   UNL d   1      -6.215  -1.191  -9.800 -0.16 +0.04    +0.066    40.211
ATOM      9  C   UNL d   1      -4.414  -0.217  -8.162 -0.41 +0.02    +0.051    40.211
ATOM     10  C   UNL d   1      -7.895  -2.807  -9.026 -0.18 +0.03    +0.066    40.211
ATOM     11  C   UNL d   1      -8.587  -3.523  -8.025 -0.29 -0.01    -0.021    40.211
ATOM     12  C   UNL d   1      -9.591  -4.243  -8.680 -0.24 +0.00    +0.000    40.211
ATOM     13  C   UNL d   1      -9.445  -3.904 -10.025 -0.13 +0.03    +0.070    40.211
ATOM     14  C   UNL d   1      -8.351  -3.434  -6.539 -0.45 +0.01    +0.052    40.211
ATOM     15  C   UNL d   1     -10.148  -4.270 -12.424 -0.07 +0.04    +0.066    40.211
ATOM     16  C   UNL d   1     -10.858  -4.987 -13.377 -0.09 -0.01    -0.021    40.211
ATOM     17  C   UNL d   1     -10.468  -4.462 -14.617 -0.03 +0.00    +0.000    40.211
ATOM     18  C   UNL d   1      -9.560  -3.450 -14.321 -0.01 +0.04    +0.070    40.211
ATOM     19  C   UNL d   1     -11.839  -6.101 -13.085 +0.03 +0.06    +0.052    40.211
ATOM     20  C   UNL d   1      -7.892  -1.694 -15.022 -0.02 +0.05    +0.066    40.211
ATOM     21  C   UNL d   1      -7.246  -0.987 -16.034 -0.02 -0.02    -0.025    40.211
ATOM     22  C   UNL d   1      -6.341  -0.161 -15.394 -0.04 -0.02    -0.021    40.211
ATOM     23  C   UNL d   1      -6.472  -0.415 -14.012 -0.06 +0.07    +0.066    40.211
ATOM     24  C   UNL d   1      -7.466  -1.107 -17.540 +0.00 +0.03    +0.051    40.211
ATOM     25  N   UNL d   1      -6.615  -1.112 -11.124 -0.06 -0.18    -0.248    40.211
ATOM     26  N   UNL d   1      -8.455  -2.993 -10.226 -0.07 -0.11    -0.248    40.211
ATOM     27  N   UNL d   1      -9.371  -3.385 -13.008 -0.01 -0.14    -0.248    40.211
ATOM     28  N   UNL d   1      -7.408  -1.344 -13.783 -0.03 -0.22    -0.248    40.211
ATOM     29 FE   UNL d   1      -8.074  -2.314 -12.125 -0.02 +0.00    +0.000    40.211
ATOM     30  C   UNL d   1      -3.643   1.211 -10.956 -0.14 +0.05    +0.052    40.211
ATOM     31  C   UNL d   1      -2.548   0.522 -11.769 -0.26 +0.13    +0.115    40.211
ATOM     32  C   UNL d   1      -2.503   1.004 -13.204 -0.20 +0.20    +0.139    40.211
ATOM     33  O   UNL d   1      -2.474   2.204 -13.434 -0.14 -1.17    -0.650    40.211
ATOM     34  O   UNL d   1      -2.446   0.145 -14.248 -0.22 -1.42    -0.776    40.211
ATOM     35  H   UNL d   1      -3.087   0.126 -14.972 +0.02 +0.31    +0.167    40.211
ATOM     36  C   UNL d   1      -6.571  -3.760 -12.339 -0.16 +0.19    +0.190    40.211
ATOM     37  O   UNL d   1      -6.029  -4.900 -11.737 -0.21 -0.33    -0.399    40.211
ATOM     38  H   UNL d   1      -6.707  -5.181 -11.061 +0.09 +0.13    +0.209    40.211
ATOM     39  C   UNL d   1      -5.361   0.771 -16.081 -0.05 +0.05    +0.052    40.211
ATOM     40  C   UNL d   1      -4.546   0.015 -17.143 -0.03 +0.11    +0.115    40.211
ATOM     41  C   UNL d   1      -3.869  -1.240 -16.634 +0.01 +0.22    +0.139    40.211
ATOM     42  O   UNL d   1      -4.504  -2.285 -16.585 -0.07 -1.09    -0.650    40.211
ATOM     43  O   UNL d   1      -2.556  -1.259 -16.315 -0.28 -1.48    -0.776    40.211
ATOM     44  H   UNL d   1      -2.129  -0.541 -15.830 +0.01 +0.28    +0.167    40.211
ATOM     45  C   UNL d   1     -10.677  -5.191  -8.189 -0.29 +0.00    +0.004    40.211
ATOM     46  C   UNL d   1     -10.778  -6.514  -8.283 -0.41 +0.00    +0.012    40.211
ATOM     47  C   UNL d   1     -10.856  -4.884 -15.996 -0.02 +0.00    +0.004    40.211
ATOM     48  C   UNL d   1     -10.041  -5.546 -16.821 -0.01 +0.01    +0.012    40.211
TER
ENDMDL
MODEL       85
USER    Run = 85
USER    Cluster Rank = 19
USER    Number of conformations in this cluster = 2
USER  
USER    RMSD from reference structure       = 37.995 A
USER  
USER    Estimated Free Energy of Binding    =   -5.76 kcal/mol  [=(1)+(2)+(3)-(4)]
USER    Estimated Inhibition Constant, Ki   =   60.37 uM (micromolar)  [Temperature = 298.15 K]
USER    
USER    (1) Final Intermolecular Energy     =   -9.34 kcal/mol
USER        vdW + Hbond + desolv Energy     =   -5.94 kcal/mol
USER        Electrostatic Energy            =   -3.40 kcal/mol
USER    (2) Final Total Internal Energy     =   -2.37 kcal/mol
USER    (3) Torsional Free Energy           =   +3.58 kcal/mol
USER    (4) Unbound System's Energy  [=(2)] =   -2.37 kcal/mol
USER    
USER    
USER  
USER    DPF = D:/Protein_go_brrr/autodock/final/AncB/heme_Co/dock.dpf
USER    NEWDPF move	heme_Co_opt.pdbqt
USER    NEWDPF about	8.781000 34.984000 -0.736000
USER    NEWDPF tran0	3.554519 -0.149597 -15.791664
USER    NEWDPF axisangle0	-0.946766 0.306533 0.098343 167.335807
USER    NEWDPF quaternion0	-0.940990 0.304663 0.097743 0.110291
USER    NEWDPF dihe0	-2.65 117.65 -174.79 116.56 66.01 113.46 -135.11 147.52 -0.25 80.52 -175.13 166.45 
USER  
USER                              x       y       z    vdW   Elec        q     RMS 
ATOM      1  C   UNL d   1       1.954   0.733 -14.619 -0.18 +0.03    +0.064    37.995
ATOM      2  C   UNL d   1       3.485   1.533 -19.050 -0.08 +0.03    +0.064    37.995
ATOM      3  C   UNL d   1       7.102  -1.519 -18.391 -0.10 +0.01    +0.064    37.995
ATOM      4  C   UNL d   1       5.336  -2.643 -13.999 -0.10 +0.01    +0.064    37.995
ATOM      5  C   UNL d   1       2.127   1.203 -15.866 -0.11 +0.03    +0.066    37.995
ATOM      6  C   UNL d   1       1.210   2.088 -16.465 -0.08 -0.01    -0.021    37.995
ATOM      7  C   UNL d   1       1.647   2.299 -17.758 -0.05 -0.01    -0.025    37.995
ATOM      8  C   UNL d   1       2.820   1.547 -17.887 -0.08 +0.03    +0.066    37.995
ATOM      9  C   UNL d   1       0.996   3.170 -18.843 -0.02 +0.03    +0.051    37.995
ATOM     10  C   UNL d   1       4.713   0.811 -19.268 -0.06 +0.03    +0.066    37.995
ATOM     11  C   UNL d   1       5.532   0.867 -20.417 -0.06 -0.01    -0.021    37.995
ATOM     12  C   UNL d   1       6.582  -0.029 -20.196 -0.09 +0.00    +0.000    37.995
ATOM     13  C   UNL d   1       6.333  -0.555 -18.928 -0.11 +0.02    +0.070    37.995
ATOM     14  C   UNL d   1       5.357   1.793 -21.593 -0.06 +0.02    +0.052    37.995
ATOM     15  C   UNL d   1       6.961  -2.208 -17.123 -0.14 +0.01    +0.066    37.995
ATOM     16  C   UNL d   1       7.705  -3.297 -16.691 -0.16 -0.00    -0.021    37.995
ATOM     17  C   UNL d   1       7.198  -3.626 -15.426 -0.31 +0.00    +0.000    37.995
ATOM     18  C   UNL d   1       6.192  -2.698 -15.178 -0.21 +0.01    +0.070    37.995
ATOM     19  C   UNL d   1       8.823  -3.958 -17.466 -0.09 +0.01    +0.052    37.995
ATOM     20  C   UNL d   1       4.296  -1.805 -13.774 -0.27 +0.01    +0.066    37.995
ATOM     21  C   UNL d   1       3.525  -1.872 -12.616 -0.38 -0.01    -0.025    37.995
ATOM     22  C   UNL d   1       2.559  -0.891 -12.754 -0.34 -0.01    -0.021    37.995
ATOM     23  C   UNL d   1       2.785  -0.277 -14.005 -0.25 +0.02    +0.066    37.995
ATOM     24  C   UNL d   1       3.686  -2.836 -11.444 -0.32 +0.02    +0.051    37.995
ATOM     25  N   UNL d   1       3.145   0.863 -16.728 -0.07 -0.11    -0.248    37.995
ATOM     26  N   UNL d   1       5.235  -0.004 -18.345 -0.08 -0.10    -0.248    37.995
ATOM     27  N   UNL d   1       6.058  -1.888 -16.223 -0.12 -0.03    -0.248    37.995
ATOM     28  N   UNL d   1       3.833  -0.829 -14.627 -0.15 -0.06    -0.248    37.995
ATOM     29 FE   UNL d   1       4.687  -0.595 -16.457 -0.04 +0.00    +0.000    37.995
ATOM     30  C   UNL d   1      -0.069   2.634 -15.840 -0.11 +0.04    +0.052    37.995
ATOM     31  C   UNL d   1      -1.254   1.723 -16.160 -0.05 +0.11    +0.115    37.995
ATOM     32  C   UNL d   1      -2.538   2.199 -15.514 -0.02 +0.23    +0.139    37.995
ATOM     33  O   UNL d   1      -3.312   2.893 -16.156 -0.12 -1.20    -0.650    37.995
ATOM     34  O   UNL d   1      -2.886   1.839 -14.257 -0.26 -1.46    -0.776    37.995
ATOM     35  H   UNL d   1      -2.403   1.192 -13.724 +0.04 +0.25    +0.167    37.995
ATOM     36  C   UNL d   1       3.357  -1.990 -17.281 -0.06 +0.06    +0.190    37.995
ATOM     37  O   UNL d   1       2.017  -2.389 -17.277 -0.04 -0.16    -0.399    37.995
ATOM     38  H   UNL d   1       1.551  -1.718 -16.703 +0.04 +0.10    +0.209    37.995
ATOM     39  C   UNL d   1       1.445  -0.608 -11.764 +0.19 +0.03    +0.052    37.995
ATOM     40  C   UNL d   1       0.181  -1.403 -12.129 -0.11 +0.09    +0.115    37.995
ATOM     41  C   UNL d   1      -0.921  -0.573 -12.754 -0.21 +0.17    +0.139    37.995
ATOM     42  O   UNL d   1      -1.579   0.178 -12.047 +0.04 -0.70    -0.650    37.995
ATOM     43  O   UNL d   1      -1.141  -0.574 -14.087 -0.16 -1.18    -0.776    37.995
ATOM     44  H   UNL d   1      -1.723   0.066 -14.517 +0.03 +0.26    +0.167    37.995
ATOM     45  C   UNL d   1       7.794  -0.433 -21.025 -0.07 +0.00    +0.004    37.995
ATOM     46  C   UNL d   1       9.085  -0.158 -20.861 -0.10 +0.00    +0.012    37.995
ATOM     47  C   UNL d   1       7.567  -4.749 -14.513 -0.46 +0.00    +0.004    37.995
ATOM     48  C   UNL d   1       8.828  -5.105 -14.255 -0.39 +0.00    +0.012    37.995
TER
ENDMDL
MODEL       34
USER    Run = 34
USER    Cluster Rank = 20
USER    Number of conformations in this cluster = 1
USER  
USER    RMSD from reference structure       = 50.978 A
USER  
USER    Estimated Free Energy of Binding    =   -5.73 kcal/mol  [=(1)+(2)+(3)-(4)]
USER    Estimated Inhibition Constant, Ki   =   62.56 uM (micromolar)  [Temperature = 298.15 K]
USER    
USER    (1) Final Intermolecular Energy     =   -9.31 kcal/mol
USER        vdW + Hbond + desolv Energy     =   -4.75 kcal/mol
USER        Electrostatic Energy            =   -4.57 kcal/mol
USER    (2) Final Total Internal Energy     =   -1.75 kcal/mol
USER    (3) Torsional Free Energy           =   +3.58 kcal/mol
USER    (4) Unbound System's Energy  [=(2)] =   -1.75 kcal/mol
USER    
USER    
USER  
USER    DPF = D:/Protein_go_brrr/autodock/final/AncB/heme_Co/dock.dpf
USER    NEWDPF move	heme_Co_opt.pdbqt
USER    NEWDPF about	8.781000 34.984000 -0.736000
USER    NEWDPF tran0	-3.420018 -17.324719 4.129000
USER    NEWDPF axisangle0	-0.941221 -0.336720 -0.026872 119.384350
USER    NEWDPF quaternion0	-0.812581 -0.290700 -0.023199 0.504646
USER    NEWDPF dihe0	-12.62 106.87 36.63 -29.91 128.69 139.65 7.30 84.90 69.56 -132.19 10.88 -27.51 
USER  
USER                              x       y       z    vdW   Elec        q     RMS 
ATOM      1  C   UNL d   1      -5.083 -17.759   5.456 -0.04 +0.09    +0.064    50.978
ATOM      2  C   UNL d   1      -3.996 -19.292   1.088 -0.11 +0.07    +0.064    50.978
ATOM      3  C   UNL d   1      -0.261 -16.317   0.933 -0.18 +0.02    +0.064    50.978
ATOM      4  C   UNL d   1      -1.123 -15.015   5.540 -0.06 +0.02    +0.064    50.978
ATOM      5  C   UNL d   1      -5.082 -18.370   4.260 -0.07 +0.09    +0.066    50.978
ATOM      6  C   UNL d   1      -6.002 -19.388   3.939 -0.07 -0.03    -0.021    50.978
ATOM      7  C   UNL d   1      -5.668 -19.844   2.680 -0.02 -0.03    -0.025    50.978
ATOM      8  C   UNL d   1      -4.569 -19.076   2.279 -0.10 +0.08    +0.066    50.978
ATOM      9  C   UNL d   1      -6.346 -20.961   1.871 -0.01 +0.05    +0.051    50.978
ATOM     10  C   UNL d   1      -2.880 -18.534   0.580 -0.14 +0.05    +0.066    50.978
ATOM     11  C   UNL d   1      -2.323 -18.617  -0.715 -0.19 -0.01    -0.021    50.978
ATOM     12  C   UNL d   1      -1.238 -17.736  -0.734 -0.23 +0.00    +0.000    50.978
ATOM     13  C   UNL d   1      -1.221 -17.173   0.543 -0.17 +0.03    +0.070    50.978
ATOM     14  C   UNL d   1      -2.867 -19.418  -1.870 -0.19 +0.02    +0.052    50.978
ATOM     15  C   UNL d   1      -0.061 -15.685   2.222 -0.14 +0.02    +0.066    50.978
ATOM     16  C   UNL d   1       1.035 -14.923   2.604 -0.15 -0.01    -0.021    50.978
ATOM     17  C   UNL d   1       0.792 -14.547   3.933 -0.11 +0.00    +0.000    50.978
ATOM     18  C   UNL d   1      -0.445 -15.097   4.252 +0.02 +0.03    +0.070    50.978
ATOM     19  C   UNL d   1       2.223 -14.595   1.728 -0.15 +0.01    +0.052    50.978
ATOM     20  C   UNL d   1      -2.283 -15.614   5.901 -0.06 +0.03    +0.066    50.978
ATOM     21  C   UNL d   1      -2.817 -15.490   7.181 -0.04 -0.01    -0.025    50.978
ATOM     22  C   UNL d   1      -3.974 -16.247   7.178 -0.03 -0.02    -0.021    50.978
ATOM     23  C   UNL d   1      -4.084 -16.809   5.889 -0.05 +0.06    +0.066    50.978
ATOM     24  C   UNL d   1      -2.243 -14.705   8.358 -0.03 +0.02    +0.051    50.978
ATOM     25  N   UNL d   1      -4.189 -18.151   3.236 -0.08 -0.28    -0.248    50.978
ATOM     26  N   UNL d   1      -2.248 -17.615   1.317 -0.09 -0.16    -0.248    50.978
ATOM     27  N   UNL d   1      -0.909 -15.793   3.220 -0.07 -0.12    -0.248    50.978
ATOM     28  N   UNL d   1      -3.061 -16.431   5.113 -0.04 -0.17    -0.248    50.978
ATOM     29 FE   UNL d   1      -2.453 -16.900   3.231 -0.03 +0.00    +0.000    50.978
ATOM     30  C   UNL d   1      -7.096 -19.943   4.845 -0.04 +0.06    +0.052    50.978
ATOM     31  C   UNL d   1      -8.427 -19.242   4.571 -0.09 +0.17    +0.115    50.978
ATOM     32  C   UNL d   1      -8.877 -18.383   5.733 -0.03 +0.30    +0.139    50.978
ATOM     33  O   UNL d   1      -9.962 -18.596   6.253 -0.42 -1.42    -0.650    50.978
ATOM     34  O   UNL d   1      -8.092 -17.411   6.253 -0.03 -2.25    -0.776    50.978
ATOM     35  H   UNL d   1      -7.140 -17.341   6.100 +0.02 +0.44    +0.167    50.978
ATOM     36  C   UNL d   1      -1.396 -18.557   3.961 +0.00 +0.07    +0.190    50.978
ATOM     37  O   UNL d   1      -1.564 -19.818   4.542 +0.01 -0.13    -0.399    50.978
ATOM     38  H   UNL d   1      -2.543 -19.891   4.718 +0.01 +0.09    +0.209    50.978
ATOM     39  C   UNL d   1      -4.885 -16.466   8.371 -0.05 +0.04    +0.052    50.978
ATOM     40  C   UNL d   1      -5.706 -15.199   8.667 -0.16 +0.11    +0.115    50.978
ATOM     41  C   UNL d   1      -6.259 -14.511   7.437 -0.25 +0.18    +0.139    50.978
ATOM     42  O   UNL d   1      -6.200 -13.292   7.357 -0.05 -0.62    -0.650    50.978
ATOM     43  O   UNL d   1      -6.736 -15.212   6.385 -0.15 -1.97    -0.776    50.978
ATOM     44  H   UNL d   1      -7.301 -15.989   6.492 +0.03 +0.51    +0.167    50.978
ATOM     45  C   UNL d   1      -0.234 -17.349  -1.811 -0.32 +0.00    +0.004    50.978
ATOM     46  C   UNL d   1       0.364 -18.087  -2.743 -0.37 -0.00    +0.012    50.978
ATOM     47  C   UNL d   1       1.653 -13.776   4.878 -0.10 +0.00    +0.004    50.978
ATOM     48  C   UNL d   1       1.404 -12.515   5.242 -0.17 +0.00    +0.012    50.978
TER
ENDMDL
MODEL        1
USER    Run = 1
USER    Cluster Rank = 21
USER    Number of conformations in this cluster = 2
USER  
USER    RMSD from reference structure       = 40.819 A
USER  
USER    Estimated Free Energy of Binding    =   -5.56 kcal/mol  [=(1)+(2)+(3)-(4)]
USER    Estimated Inhibition Constant, Ki   =   83.36 uM (micromolar)  [Temperature = 298.15 K]
USER    
USER    (1) Final Intermolecular Energy     =   -9.14 kcal/mol
USER        vdW + Hbond + desolv Energy     =   -6.16 kcal/mol
USER        Electrostatic Energy            =   -2.99 kcal/mol
USER    (2) Final Total Internal Energy     =   -2.13 kcal/mol
USER    (3) Torsional Free Energy           =   +3.58 kcal/mol
USER    (4) Unbound System's Energy  [=(2)] =   -2.13 kcal/mol
USER    
USER    
USER  
USER    DPF = D:/Protein_go_brrr/autodock/final/AncB/heme_Co/dock.dpf
USER    NEWDPF move	heme_Co_opt.pdbqt
USER    NEWDPF about	8.781000 34.984000 -0.736000
USER    NEWDPF tran0	-8.522692 -2.108668 -12.126906
USER    NEWDPF axisangle0	-0.683091 0.130679 -0.718547 -178.168162
USER    NEWDPF quaternion0	-0.683004 0.130662 -0.718455 -0.015985
USER    NEWDPF dihe0	160.13 110.40 25.63 -49.48 137.83 142.19 -124.92 75.51 -140.16 -80.46 176.22 -178.46 
USER  
USER                              x       y       z    vdW   Elec        q     RMS 
ATOM      1  C   UNL d   1      -9.309  -2.060 -14.150 -0.00 +0.03    +0.064    40.819
ATOM      2  C   UNL d   1      -5.298  -0.365 -12.240 -0.15 +0.08    +0.064    40.819
ATOM      3  C   UNL d   1      -6.768  -1.685  -7.889 +0.04 +0.02    +0.064    40.819
ATOM      4  C   UNL d   1     -10.697  -3.768  -9.863 -0.08 +0.02    +0.064    40.819
ATOM      5  C   UNL d   1      -8.122  -1.467 -13.943 -0.02 +0.05    +0.066    40.819
ATOM      6  C   UNL d   1      -7.325  -0.999 -15.006 -0.03 -0.02    -0.021    40.819
ATOM      7  C   UNL d   1      -6.152  -0.529 -14.448 -0.07 -0.03    -0.025    40.819
ATOM      8  C   UNL d   1      -6.290  -0.715 -13.068 -0.08 +0.08    +0.066    40.819
ATOM      9  C   UNL d   1      -4.939   0.074 -15.172 -0.06 +0.08    +0.051    40.819
ATOM     10  C   UNL d   1      -5.361  -0.494 -10.805 -0.16 +0.06    +0.066    40.819
ATOM     11  C   UNL d   1      -4.414  -0.018  -9.873 -0.27 -0.01    -0.021    40.819
ATOM     12  C   UNL d   1      -4.869  -0.413  -8.612 -0.33 +0.00    +0.000    40.819
ATOM     13  C   UNL d   1      -6.063  -1.088  -8.867 -0.20 +0.03    +0.070    40.819
ATOM     14  C   UNL d   1      -3.212   0.839 -10.181 -0.34 +0.04    +0.052    40.819
ATOM     15  C   UNL d   1      -7.987  -2.464  -7.980 -0.23 +0.02    +0.066    40.819
ATOM     16  C   UNL d   1      -8.587  -3.177  -6.950 -0.36 -0.01    -0.021    40.819
ATOM     17  C   UNL d   1      -9.719  -3.781  -7.515 -0.27 +0.00    +0.000    40.819
ATOM     18  C   UNL d   1      -9.730  -3.375  -8.846 -0.13 +0.02    +0.070    40.819
ATOM     19  C   UNL d   1      -8.081  -3.254  -5.527 -0.46 +0.01    +0.052    40.819
ATOM     20  C   UNL d   1     -10.679  -3.455 -11.181 -0.04 +0.03    +0.066    40.819
ATOM     21  C   UNL d   1     -11.646  -3.923 -12.069 -0.05 -0.01    -0.025    40.819
ATOM     22  C   UNL d   1     -11.288  -3.423 -13.307 -0.02 -0.01    -0.021    40.819
ATOM     23  C   UNL d   1     -10.105  -2.678 -13.114 -0.01 +0.03    +0.066    40.819
ATOM     24  C   UNL d   1     -12.841  -4.820 -11.757 -0.09 +0.04    +0.051    40.819
ATOM     25  N   UNL d   1      -7.503  -1.289 -12.727 -0.03 -0.19    -0.248    40.819
ATOM     26  N   UNL d   1      -6.387  -1.088 -10.187 -0.09 -0.15    -0.248    40.819
ATOM     27  N   UNL d   1      -8.668  -2.616  -9.094 -0.08 -0.09    -0.248    40.819
ATOM     28  N   UNL d   1      -9.732  -2.697 -11.829 -0.01 -0.11    -0.248    40.819
ATOM     29 FE   UNL d   1      -8.123  -1.993 -10.804 -0.02 +0.00    +0.000    40.819
ATOM     30  C   UNL d   1      -7.652  -1.081 -16.493 -0.01 +0.03    +0.052    40.819
ATOM     31  C   UNL d   1      -6.923  -2.259 -17.140 -0.02 +0.09    +0.115    40.819
ATOM     32  C   UNL d   1      -6.867  -3.470 -16.234 -0.06 +0.13    +0.139    40.819
ATOM     33  O   UNL d   1      -7.590  -4.428 -16.466 +0.03 -0.48    -0.650    40.819
ATOM     34  O   UNL d   1      -6.004  -3.550 -15.195 -0.52 -1.30    -0.776    40.819
ATOM     35  H   UNL d   1      -6.139  -4.109 -14.417 +0.03 +0.25    +0.167    40.819
ATOM     36  C   UNL d   1      -7.056  -3.747 -11.227 -0.14 +0.13    +0.190    40.819
ATOM     37  O   UNL d   1      -6.423  -4.444 -12.261 -0.13 -0.37    -0.399    40.819
ATOM     38  H   UNL d   1      -6.584  -3.893 -13.078 +0.05 +0.24    +0.209    40.819
ATOM     39  C   UNL d   1     -12.011  -3.703 -14.612 -0.01 +0.03    +0.052    40.819
ATOM     40  C   UNL d   1     -11.665  -5.107 -15.133 -0.04 +0.07    +0.115    40.819
ATOM     41  C   UNL d   1     -12.644  -6.186 -14.719 -0.04 +0.16    +0.139    40.819
ATOM     42  O   UNL d   1     -12.232  -7.319 -14.509 -0.41 -1.25    -0.650    40.819
ATOM     43  O   UNL d   1     -13.947  -5.912 -14.490 -0.05 -0.84    -0.776    40.819
ATOM     44  H   UNL d   1     -14.424  -5.221 -14.966 +0.01 +0.11    +0.167    40.819
ATOM     45  C   UNL d   1      -4.327  -0.214  -7.203 -0.30 +0.00    +0.004    40.819
ATOM     46  C   UNL d   1      -3.158  -0.560  -6.669 -0.54 +0.00    +0.012    40.819
ATOM     47  C   UNL d   1     -10.708  -4.715  -6.900 -0.15 +0.00    +0.004    40.819
ATOM     48  C   UNL d   1     -12.001  -4.420  -6.741 -0.24 +0.00    +0.012    40.819
TER
ENDMDL
MODEL       27
USER    Run = 27
USER    Cluster Rank = 22
USER    Number of conformations in this cluster = 1
USER  
USER    RMSD from reference structure       = 48.899 A
USER  
USER    Estimated Free Energy of Binding    =   -5.54 kcal/mol  [=(1)+(2)+(3)-(4)]
USER    Estimated Inhibition Constant, Ki   =   87.31 uM (micromolar)  [Temperature = 298.15 K]
USER    
USER    (1) Final Intermolecular Energy     =   -9.12 kcal/mol
USER        vdW + Hbond + desolv Energy     =   -3.82 kcal/mol
USER        Electrostatic Energy            =   -5.30 kcal/mol
USER    (2) Final Total Internal Energy     =   -1.71 kcal/mol
USER    (3) Torsional Free Energy           =   +3.58 kcal/mol
USER    (4) Unbound System's Energy  [=(2)] =   -1.71 kcal/mol
USER    
USER    
USER  
USER    DPF = D:/Protein_go_brrr/autodock/final/AncB/heme_Co/dock.dpf
USER    NEWDPF move	heme_Co_opt.pdbqt
USER    NEWDPF about	8.781000 34.984000 -0.736000
USER    NEWDPF tran0	-0.499882 -15.597022 5.674565
USER    NEWDPF axisangle0	-0.990561 0.129815 -0.044007 -106.000699
USER    NEWDPF quaternion0	-0.791101 0.103676 -0.035146 -0.601810
USER    NEWDPF dihe0	-2.18 90.58 50.02 -82.83 -91.39 72.91 -21.77 12.60 52.63 69.55 12.84 164.78 
USER  
USER                              x       y       z    vdW   Elec        q     RMS 
ATOM      1  C   UNL d   1      -2.603 -16.128   5.562 -0.06 +0.04    +0.064    48.899
ATOM      2  C   UNL d   1      -0.376 -12.182   7.007 -0.18 +0.01    +0.064    48.899
ATOM      3  C   UNL d   1       3.860 -14.312   6.417 -0.00 +0.00    +0.064    48.899
ATOM      4  C   UNL d   1       1.625 -18.219   4.573 +0.00 +0.01    +0.064    48.899
ATOM      5  C   UNL d   1      -2.307 -14.906   6.034 -0.04 +0.03    +0.066    48.899
ATOM      6  C   UNL d   1      -3.300 -13.935   6.271 -0.14 -0.01    -0.021    48.899
ATOM      7  C   UNL d   1      -2.646 -12.785   6.669 -0.15 -0.01    -0.025    48.899
ATOM      8  C   UNL d   1      -1.285 -13.108   6.673 -0.11 +0.02    +0.066    48.899
ATOM      9  C   UNL d   1      -3.266 -11.427   7.033 -0.33 +0.02    +0.051    48.899
ATOM     10  C   UNL d   1       1.043 -12.429   7.065 -0.08 +0.01    +0.066    48.899
ATOM     11  C   UNL d   1       2.034 -11.544   7.542 -0.08 -0.00    -0.021    48.899
ATOM     12  C   UNL d   1       3.260 -12.192   7.362 -0.03 +0.00    +0.000    48.899
ATOM     13  C   UNL d   1       2.925 -13.425   6.802 -0.01 +0.01    +0.070    48.899
ATOM     14  C   UNL d   1       1.796 -10.213   8.208 -0.11 +0.01    +0.052    48.899
ATOM     15  C   UNL d   1       3.696 -15.603   5.779 +0.00 +0.01    +0.066    48.899
ATOM     16  C   UNL d   1       4.708 -16.407   5.274 +0.00 -0.00    -0.021    48.899
ATOM     17  C   UNL d   1       4.068 -17.533   4.739 +0.00 +0.00    +0.000    48.899
ATOM     18  C   UNL d   1       2.712 -17.335   4.975 +0.00 +0.01    +0.070    48.899
ATOM     19  C   UNL d   1       6.186 -16.086   5.316 +0.00 +0.00    +0.052    48.899
ATOM     20  C   UNL d   1       0.295 -18.006   4.714 +0.00 +0.02    +0.066    48.899
ATOM     21  C   UNL d   1      -0.656 -18.915   4.254 +0.00 -0.01    -0.025    48.899
ATOM     22  C   UNL d   1      -1.884 -18.352   4.552 -0.00 -0.01    -0.021    48.899
ATOM     23  C   UNL d   1      -1.619 -17.113   5.173 -0.02 +0.03    +0.066    48.899
ATOM     24  C   UNL d   1      -0.409 -20.245   3.547 +0.00 +0.01    +0.051    48.899
ATOM     25  N   UNL d   1      -1.046 -14.416   6.290 -0.06 -0.08    -0.248    48.899
ATOM     26  N   UNL d   1       1.581 -13.589   6.676 -0.01 -0.04    -0.248    48.899
ATOM     27  N   UNL d   1       2.525 -16.162   5.569 +0.00 -0.03    -0.248    48.899
ATOM     28  N   UNL d   1      -0.302 -16.899   5.271 -0.01 -0.07    -0.248    48.899
ATOM     29 FE   UNL d   1       0.844 -15.344   5.907 -0.01 +0.00    +0.000    48.899
ATOM     30  C   UNL d   1      -4.799 -14.094   6.043 -0.22 +0.05    +0.052    48.899
ATOM     31  C   UNL d   1      -5.505 -14.462   7.348 -0.19 +0.12    +0.115    48.899
ATOM     32  C   UNL d   1      -6.404 -15.670   7.197 -0.16 +0.25    +0.139    48.899
ATOM     33  O   UNL d   1      -7.388 -15.780   7.913 -0.45 -1.66    -0.650    48.899
ATOM     34  O   UNL d   1      -6.181 -16.618   6.257 -0.39 -1.77    -0.776    48.899
ATOM     35  H   UNL d   1      -5.503 -16.553   5.570 +0.03 +0.38    +0.167    48.899
ATOM     36  C   UNL d   1       0.759 -14.472   4.003 -0.08 +0.06    +0.190    48.899
ATOM     37  O   UNL d   1       0.216 -14.637   2.724 -0.57 -0.18    -0.399    48.899
ATOM     38  H   UNL d   1       0.019 -15.613   2.654 +0.06 +0.08    +0.209    48.899
ATOM     39  C   UNL d   1      -3.234 -18.947   4.197 -0.01 +0.03    +0.052    48.899
ATOM     40  C   UNL d   1      -3.739 -18.386   2.858 -0.10 +0.11    +0.115    48.899
ATOM     41  C   UNL d   1      -5.011 -17.571   2.962 -0.10 +0.25    +0.139    48.899
ATOM     42  O   UNL d   1      -5.212 -16.671   2.159 -0.06 -1.49    -0.650    48.899
ATOM     43  O   UNL d   1      -5.972 -17.866   3.865 -0.04 -1.83    -0.776    48.899
ATOM     44  H   UNL d   1      -5.796 -17.917   4.813 +0.02 +0.32    +0.167    48.899
ATOM     45  C   UNL d   1       4.698 -11.797   7.670 -0.05 +0.00    +0.004    48.899
ATOM     46  C   UNL d   1       5.607 -11.181   6.919 -0.09 +0.00    +0.012    48.899
ATOM     47  C   UNL d   1       4.646 -18.701   4.009 +0.00 +0.00    +0.004    48.899
ATOM     48  C   UNL d   1       4.410 -18.954   2.719 +0.00 +0.00    +0.012    48.899
TER
ENDMDL
MODEL       58
USER    Run = 58
USER    Cluster Rank = 23
USER    Number of conformations in this cluster = 1
USER  
USER    RMSD from reference structure       = 43.797 A
USER  
USER    Estimated Free Energy of Binding    =   -5.48 kcal/mol  [=(1)+(2)+(3)-(4)]
USER    Estimated Inhibition Constant, Ki   =   96.51 uM (micromolar)  [Temperature = 298.15 K]
USER    
USER    (1) Final Intermolecular Energy     =   -9.06 kcal/mol
USER        vdW + Hbond + desolv Energy     =   -5.84 kcal/mol
USER        Electrostatic Energy            =   -3.21 kcal/mol
USER    (2) Final Total Internal Energy     =   -0.71 kcal/mol
USER    (3) Torsional Free Energy           =   +3.58 kcal/mol
USER    (4) Unbound System's Energy  [=(2)] =   -0.71 kcal/mol
USER    
USER    
USER  
USER    DPF = D:/Protein_go_brrr/autodock/final/AncB/heme_Co/dock.dpf
USER    NEWDPF move	heme_Co_opt.pdbqt
USER    NEWDPF about	8.781000 34.984000 -0.736000
USER    NEWDPF tran0	-11.186865 -5.225298 -12.068912
USER    NEWDPF axisangle0	0.471472 0.841815 0.262795 98.219325
USER    NEWDPF quaternion0	0.356416 0.636382 0.198664 0.654613
USER    NEWDPF dihe0	-16.98 96.92 -175.79 -103.43 8.96 111.98 77.41 -160.10 -114.97 116.69 -29.33 -150.95 
USER  
USER                              x       y       z    vdW   Elec        q     RMS 
ATOM      1  C   UNL d   1     -10.458  -5.879 -14.007 -0.10 +0.05    +0.064    43.797
ATOM      2  C   UNL d   1     -14.799  -4.722 -12.451 -0.05 +0.04    +0.064    43.797
ATOM      3  C   UNL d   1     -13.113  -4.217  -8.009 -0.06 +0.01    +0.064    43.797
ATOM      4  C   UNL d   1      -8.602  -5.017  -9.644 -0.30 +0.03    +0.064    43.797
ATOM      5  C   UNL d   1     -11.775  -5.635 -13.902 -0.09 +0.06    +0.066    43.797
ATOM      6  C   UNL d   1     -12.624  -5.616 -15.025 -0.06 -0.02    -0.021    43.797
ATOM      7  C   UNL d   1     -13.878  -5.257 -14.571 -0.05 -0.02    -0.025    43.797
ATOM      8  C   UNL d   1     -13.744  -5.089 -13.188 -0.07 +0.06    +0.066    43.797
ATOM      9  C   UNL d   1     -15.162  -5.075 -15.394 -0.01 +0.03    +0.051    43.797
ATOM     10  C   UNL d   1     -14.764  -4.550 -11.020 -0.03 +0.04    +0.066    43.797
ATOM     11  C   UNL d   1     -15.865  -4.304 -10.172 -0.01 -0.01    -0.021    43.797
ATOM     12  C   UNL d   1     -15.346  -4.165  -8.882 -0.02 +0.00    +0.000    43.797
ATOM     13  C   UNL d   1     -13.971  -4.349  -9.036 -0.03 +0.02    +0.070    43.797
ATOM     14  C   UNL d   1     -17.318  -4.301 -10.574 +0.00 +0.02    +0.052    43.797
ATOM     15  C   UNL d   1     -11.667  -4.320  -7.999 -0.13 +0.01    +0.066    43.797
ATOM     16  C   UNL d   1     -10.828  -4.029  -6.933 -0.24 -0.00    -0.021    43.797
ATOM     17  C   UNL d   1      -9.526  -4.256  -7.400 -0.32 +0.00    +0.000    43.797
ATOM     18  C   UNL d   1      -9.675  -4.686  -8.715 -0.25 +0.02    +0.070    43.797
ATOM     19  C   UNL d   1     -11.277  -3.563  -5.566 -0.30 +0.00    +0.052    43.797
ATOM     20  C   UNL d   1      -8.719  -5.354 -10.951 -0.25 +0.03    +0.066    43.797
ATOM     21  C   UNL d   1      -7.610  -5.616 -11.753 -0.32 -0.01    -0.025    43.797
ATOM     22  C   UNL d   1      -8.116  -5.896 -13.009 -0.22 -0.01    -0.021    43.797
ATOM     23  C   UNL d   1      -9.519  -5.778 -12.914 -0.13 +0.04    +0.066    43.797
ATOM     24  C   UNL d   1      -6.139  -5.582 -11.348 -0.02 +0.03    +0.051    43.797
ATOM     25  N   UNL d   1     -12.453  -5.323 -12.745 -0.08 -0.23    -0.248    43.797
ATOM     26  N   UNL d   1     -13.628  -4.637 -10.319 -0.03 -0.13    -0.248    43.797
ATOM     27  N   UNL d   1     -10.961  -4.683  -9.047 -0.07 -0.09    -0.248    43.797
ATOM     28  N   UNL d   1      -9.887  -5.447 -11.670 -0.11 -0.15    -0.248    43.797
ATOM     29 FE   UNL d   1     -11.660  -4.985 -10.788 -0.02 +0.00    +0.000    43.797
ATOM     30  C   UNL d   1     -12.218  -5.852 -16.476 -0.02 +0.03    +0.052    43.797
ATOM     31  C   UNL d   1     -11.496  -7.192 -16.620 -0.04 +0.07    +0.115    43.797
ATOM     32  C   UNL d   1     -12.384  -8.367 -16.268 -0.06 +0.12    +0.139    43.797
ATOM     33  O   UNL d   1     -12.975  -8.374 -15.199 -0.42 -1.29    -0.650    43.797
ATOM     34  O   UNL d   1     -12.584  -9.396 -17.124 +0.01 -0.45    -0.776    43.797
ATOM     35  H   UNL d   1     -12.446  -9.344 -18.079 +0.01 +0.07    +0.167    43.797
ATOM     36  C   UNL d   1     -11.440  -2.976 -11.346 -0.01 +0.08    +0.190    43.797
ATOM     37  O   UNL d   1     -11.029  -2.150 -12.397 +0.00 -0.16    -0.399    43.797
ATOM     38  H   UNL d   1     -10.503  -2.746 -13.001 +0.02 +0.10    +0.209    43.797
ATOM     39  C   UNL d   1      -7.287  -6.195 -14.244 -0.21 +0.04    +0.052    43.797
ATOM     40  C   UNL d   1      -6.187  -5.136 -14.429 -0.01 +0.13    +0.115    43.797
ATOM     41  C   UNL d   1      -6.699  -3.762 -14.805 -0.11 +0.17    +0.139    43.797
ATOM     42  O   UNL d   1      -7.802  -3.655 -15.321 +0.01 -0.51    -0.650    43.797
ATOM     43  O   UNL d   1      -6.007  -2.640 -14.507 -0.46 -1.69    -0.776    43.797
ATOM     44  H   UNL d   1      -6.384  -1.756 -14.604 +0.01 +0.25    +0.167    43.797
ATOM     45  C   UNL d   1     -15.987  -3.899  -7.527 -0.04 +0.00    +0.004    43.797
ATOM     46  C   UNL d   1     -15.920  -2.836  -6.729 -0.10 -0.00    +0.012    43.797
ATOM     47  C   UNL d   1      -8.216  -4.048  -6.714 -0.50 +0.00    +0.004    43.797
ATOM     48  C   UNL d   1      -8.081  -3.366  -5.574 -0.53 +0.00    +0.012    43.797
TER
ENDMDL
MODEL       84
USER    Run = 84
USER    Cluster Rank = 24
USER    Number of conformations in this cluster = 1
USER  
USER    RMSD from reference structure       = 56.008 A
USER  
USER    Estimated Free Energy of Binding    =   -5.30 kcal/mol  [=(1)+(2)+(3)-(4)]
USER    Estimated Inhibition Constant, Ki   =  131.25 uM (micromolar)  [Temperature = 298.15 K]
USER    
USER    (1) Final Intermolecular Energy     =   -8.88 kcal/mol
USER        vdW + Hbond + desolv Energy     =   -3.33 kcal/mol
USER        Electrostatic Energy            =   -5.54 kcal/mol
USER    (2) Final Total Internal Energy     =   -1.01 kcal/mol
USER    (3) Torsional Free Energy           =   +3.58 kcal/mol
USER    (4) Unbound System's Energy  [=(2)] =   -1.01 kcal/mol
USER    
USER    
USER  
USER    DPF = D:/Protein_go_brrr/autodock/final/AncB/heme_Co/dock.dpf
USER    NEWDPF move	heme_Co_opt.pdbqt
USER    NEWDPF about	8.781000 34.984000 -0.736000
USER    NEWDPF tran0	-10.800447 -20.137055 9.884532
USER    NEWDPF axisangle0	-0.208710 -0.943512 -0.257342 -92.221879
USER    NEWDPF quaternion0	-0.150414 -0.679974 -0.185462 -0.693264
USER    NEWDPF dihe0	21.91 13.09 91.87 -89.92 -84.75 103.03 117.42 -13.47 -82.86 97.72 180.00 -147.65 
USER  
USER                              x       y       z    vdW   Elec        q     RMS 
ATOM      1  C   UNL d   1      -9.829 -19.985   7.949 -0.06 +0.08    +0.064    56.008
ATOM      2  C   UNL d   1     -14.362 -20.687   9.202 -0.03 +0.02    +0.064    56.008
ATOM      3  C   UNL d   1     -13.095 -20.907  13.803 -0.00 +0.01    +0.064    56.008
ATOM      4  C   UNL d   1      -8.516 -19.807  12.582 -0.01 +0.03    +0.064    56.008
ATOM      5  C   UNL d   1     -11.155 -20.197   7.950 -0.07 +0.07    +0.066    56.008
ATOM      6  C   UNL d   1     -11.923 -20.137   6.770 -0.08 -0.02    -0.021    56.008
ATOM      7  C   UNL d   1     -13.240 -20.319   7.143 -0.07 -0.01    -0.025    56.008
ATOM      8  C   UNL d   1     -13.218 -20.498   8.530 -0.05 +0.03    +0.066    56.008
ATOM      9  C   UNL d   1     -14.483 -20.325   6.239 -0.06 +0.02    +0.051    56.008
ATOM     10  C   UNL d   1     -14.435 -20.906  10.625 -0.01 +0.02    +0.066    56.008
ATOM     11  C   UNL d   1     -15.586 -21.249  11.367 -0.00 -0.00    -0.021    56.008
ATOM     12  C   UNL d   1     -15.187 -21.311  12.705 -0.00 +0.00    +0.000    56.008
ATOM     13  C   UNL d   1     -13.824 -21.014  12.679 -0.00 +0.02    +0.070    56.008
ATOM     14  C   UNL d   1     -16.943 -21.585  10.804 -0.00 +0.01    +0.052    56.008
ATOM     15  C   UNL d   1     -11.696 -20.559  13.963 -0.01 +0.02    +0.066    56.008
ATOM     16  C   UNL d   1     -11.038 -20.323  15.162 -0.01 -0.00    -0.021    56.008
ATOM     17  C   UNL d   1      -9.718 -20.003  14.815 -0.01 +0.00    +0.000    56.008
ATOM     18  C   UNL d   1      -9.671 -20.085  13.427 -0.01 +0.02    +0.070    56.008
ATOM     19  C   UNL d   1     -11.664 -20.405  16.536 -0.00 +0.01    +0.052    56.008
ATOM     20  C   UNL d   1      -8.469 -19.796  11.228 -0.03 +0.04    +0.066    56.008
ATOM     21  C   UNL d   1      -7.308 -19.478  10.527 -0.03 -0.02    -0.025    56.008
ATOM     22  C   UNL d   1      -7.648 -19.549   9.189 -0.05 -0.02    -0.021    56.008
ATOM     23  C   UNL d   1      -9.014 -19.899   9.139 -0.05 +0.07    +0.066    56.008
ATOM     24  C   UNL d   1      -5.945 -19.103  11.104 -0.00 +0.02    +0.051    56.008
ATOM     25  N   UNL d   1     -11.939 -20.433   9.056 -0.03 -0.17    -0.248    56.008
ATOM     26  N   UNL d   1     -13.360 -20.825  11.415 -0.00 -0.08    -0.248    56.008
ATOM     27  N   UNL d   1     -10.874 -20.389  12.952 -0.00 -0.08    -0.248    56.008
ATOM     28  N   UNL d   1      -9.515 -20.047  10.372 -0.03 -0.20    -0.248    56.008
ATOM     29 FE   UNL d   1     -11.371 -20.409  11.119 -0.01 +0.00    +0.000    56.008
ATOM     30  C   UNL d   1     -11.410 -19.836   5.366 -0.07 +0.05    +0.052    56.008
ATOM     31  C   UNL d   1     -11.585 -18.354   5.037 -0.15 +0.14    +0.115    56.008
ATOM     32  C   UNL d   1     -10.333 -17.549   5.315 -0.05 +0.31    +0.139    56.008
ATOM     33  O   UNL d   1      -9.424 -18.055   5.956 -0.10 -1.67    -0.650    56.008
ATOM     34  O   UNL d   1     -10.164 -16.295   4.835 -0.56 -2.05    -0.776    56.008
ATOM     35  H   UNL d   1     -10.883 -15.737   4.509 +0.04 +0.31    +0.167    56.008
ATOM     36  C   UNL d   1     -11.805 -18.358  11.098 -0.10 +0.18    +0.190    56.008
ATOM     37  O   UNL d   1     -11.542 -17.171  10.408 -0.61 -0.69    -0.399    56.008
ATOM     38  H   UNL d   1     -10.848 -16.705  10.954 -0.23 +0.33    +0.209    56.008
ATOM     39  C   UNL d   1      -6.724 -19.233   8.028 -0.04 +0.05    +0.052    56.008
ATOM     40  C   UNL d   1      -5.966 -17.919   8.280 -0.05 +0.12    +0.115    56.008
ATOM     41  C   UNL d   1      -6.695 -16.677   7.812 -0.08 +0.26    +0.139    56.008
ATOM     42  O   UNL d   1      -6.906 -15.772   8.607 -0.43 -1.14    -0.650    56.008
ATOM     43  O   UNL d   1      -7.043 -16.503   6.518 -0.19 -2.19    -0.776    56.008
ATOM     44  H   UNL d   1      -7.930 -16.694   6.189 +0.04 +0.57    +0.167    56.008
ATOM     45  C   UNL d   1     -15.928 -21.632  13.996 -0.00 +0.00    +0.004    56.008
ATOM     46  C   UNL d   1     -16.450 -20.828  14.918 -0.00 +0.00    +0.012    56.008
ATOM     47  C   UNL d   1      -8.575 -19.595  15.685 -0.00 +0.00    +0.004    56.008
ATOM     48  C   UNL d   1      -8.107 -18.346  15.750 -0.01 +0.00    +0.012    56.008
TER
ENDMDL
MODEL       26
USER    Run = 26
USER    Cluster Rank = 25
USER    Number of conformations in this cluster = 1
USER  
USER    RMSD from reference structure       = 46.661 A
USER  
USER    Estimated Free Energy of Binding    =   -5.22 kcal/mol  [=(1)+(2)+(3)-(4)]
USER    Estimated Inhibition Constant, Ki   =  149.51 uM (micromolar)  [Temperature = 298.15 K]
USER    
USER    (1) Final Intermolecular Energy     =   -8.80 kcal/mol
USER        vdW + Hbond + desolv Energy     =   -4.94 kcal/mol
USER        Electrostatic Energy            =   -3.86 kcal/mol
USER    (2) Final Total Internal Energy     =   -2.57 kcal/mol
USER    (3) Torsional Free Energy           =   +3.58 kcal/mol
USER    (4) Unbound System's Energy  [=(2)] =   -2.57 kcal/mol
USER    
USER    
USER  
USER    DPF = D:/Protein_go_brrr/autodock/final/AncB/heme_Co/dock.dpf
USER    NEWDPF move	heme_Co_opt.pdbqt
USER    NEWDPF about	8.781000 34.984000 -0.736000
USER    NEWDPF tran0	-1.723237 -12.874335 9.136469
USER    NEWDPF axisangle0	-0.916904 0.005216 0.399073 -93.101138
USER    NEWDPF quaternion0	-0.665656 0.003787 0.289720 -0.687714
USER    NEWDPF dihe0	-134.12 -0.01 -89.63 -63.72 -73.15 50.63 30.33 -160.81 -80.06 41.33 -172.74 170.19 
USER  
USER                              x       y       z    vdW   Elec        q     RMS 
ATOM      1  C   UNL d   1      -3.211 -14.443   9.340 -0.02 +0.02    +0.064    46.661
ATOM      2  C   UNL d   1      -2.511 -10.376  11.703 -0.17 +0.02    +0.064    46.661
ATOM      3  C   UNL d   1       1.504  -9.590   9.235 +0.02 +0.01    +0.064    46.661
ATOM      4  C   UNL d   1       0.607 -13.540   6.542 -0.07 +0.01    +0.064    46.661
ATOM      5  C   UNL d   1      -3.296 -13.408  10.192 -0.04 +0.02    +0.066    46.661
ATOM      6  C   UNL d   1      -4.396 -13.238  11.055 -0.09 -0.01    -0.021    46.661
ATOM      7  C   UNL d   1      -4.199 -12.044  11.722 -0.13 -0.01    -0.025    46.661
ATOM      8  C   UNL d   1      -2.980 -11.546  11.250 -0.10 +0.02    +0.066    46.661
ATOM      9  C   UNL d   1      -5.114 -11.385  12.765 -0.21 +0.02    +0.051    46.661
ATOM     10  C   UNL d   1      -1.256  -9.797  11.295 -0.15 +0.01    +0.066    46.661
ATOM     11  C   UNL d   1      -0.643  -8.645  11.836 -0.20 -0.00    -0.021    46.661
ATOM     12  C   UNL d   1       0.528  -8.441  11.100 -0.18 +0.00    +0.000    46.661
ATOM     13  C   UNL d   1       0.550  -9.487  10.177 +0.04 +0.01    +0.070    46.661
ATOM     14  C   UNL d   1      -1.112  -7.865  13.036 -0.24 +0.01    +0.052    46.661
ATOM     15  C   UNL d   1       1.650 -10.569   8.177 -0.10 +0.01    +0.066    46.661
ATOM     16  C   UNL d   1       2.578 -10.535   7.146 -0.12 -0.00    -0.021    46.661
ATOM     17  C   UNL d   1       2.322 -11.671   6.365 -0.09 +0.00    +0.000    46.661
ATOM     18  C   UNL d   1       1.264 -12.320   6.993 -0.07 +0.01    +0.070    46.661
ATOM     19  C   UNL d   1       3.630  -9.466   6.948 -0.13 +0.01    +0.052    46.661
ATOM     20  C   UNL d   1      -0.477 -14.142   7.088 -0.05 +0.02    +0.066    46.661
ATOM     21  C   UNL d   1      -1.041 -15.294   6.542 -0.04 -0.01    -0.025    46.661
ATOM     22  C   UNL d   1      -2.126 -15.594   7.345 -0.02 -0.01    -0.021    46.661
ATOM     23  C   UNL d   1      -2.178 -14.596   8.341 -0.02 +0.02    +0.066    46.661
ATOM     24  C   UNL d   1      -0.581 -16.060   5.305 -0.05 +0.02    +0.051    46.661
ATOM     25  N   UNL d   1      -2.395 -12.373  10.306 -0.02 -0.06    -0.248    46.661
ATOM     26  N   UNL d   1      -0.500 -10.337  10.333 -0.06 -0.04    -0.248    46.661
ATOM     27  N   UNL d   1       0.870 -11.620   8.051 -0.05 -0.04    -0.248    46.661
ATOM     28  N   UNL d   1      -1.183 -13.714   8.188 -0.02 -0.06    -0.248    46.661
ATOM     29 FE   UNL d   1      -0.666 -11.977   9.110 -0.02 +0.00    +0.000    46.661
ATOM     30  C   UNL d   1      -5.616 -14.147  11.164 -0.15 +0.02    +0.052    46.661
ATOM     31  C   UNL d   1      -6.696 -13.717  10.171 -0.22 +0.08    +0.115    46.661
ATOM     32  C   UNL d   1      -6.676 -14.543   8.903 -0.20 +0.15    +0.139    46.661
ATOM     33  O   UNL d   1      -6.130 -14.099   7.905 -0.05 -0.67    -0.650    46.661
ATOM     34  O   UNL d   1      -7.205 -15.788   8.849 -0.30 -1.49    -0.776    46.661
ATOM     35  H   UNL d   1      -6.792 -16.535   8.394 +0.03 +0.31    +0.167    46.661
ATOM     36  C   UNL d   1      -1.933 -10.896   7.836 -0.25 +0.04    +0.190    46.661
ATOM     37  O   UNL d   1      -2.590 -10.959   6.603 -0.24 -0.09    -0.399    46.661
ATOM     38  H   UNL d   1      -2.149 -10.261   6.042 -0.09 -0.00    +0.209    46.661
ATOM     39  C   UNL d   1      -3.095 -16.740   7.123 -0.01 +0.03    +0.052    46.661
ATOM     40  C   UNL d   1      -4.249 -16.305   6.204 -0.07 +0.12    +0.115    46.661
ATOM     41  C   UNL d   1      -5.589 -16.918   6.552 -0.02 +0.22    +0.139    46.661
ATOM     42  O   UNL d   1      -5.622 -17.964   7.186 +0.01 -0.73    -0.650    46.661
ATOM     43  O   UNL d   1      -6.753 -16.298   6.256 -0.15 -2.25    -0.776    46.661
ATOM     44  H   UNL d   1      -7.135 -15.614   6.821 +0.03 +0.43    +0.167    46.661
ATOM     45  C   UNL d   1       1.633  -7.396  11.176 -0.20 +0.00    +0.004    46.661
ATOM     46  C   UNL d   1       1.632  -6.109  10.837 -0.33 +0.00    +0.012    46.661
ATOM     47  C   UNL d   1       2.964 -12.119   5.093 -0.10 +0.00    +0.004    46.661
ATOM     48  C   UNL d   1       2.473 -11.842   3.882 -0.22 +0.00    +0.012    46.661
TER
ENDMDL
MODEL       22
USER    Run = 22
USER    Cluster Rank = 26
USER    Number of conformations in this cluster = 1
USER  
USER    RMSD from reference structure       = 37.518 A
USER  
USER    Estimated Free Energy of Binding    =   -4.90 kcal/mol  [=(1)+(2)+(3)-(4)]
USER    Estimated Inhibition Constant, Ki   =  254.95 uM (micromolar)  [Temperature = 298.15 K]
USER    
USER    (1) Final Intermolecular Energy     =   -8.48 kcal/mol
USER        vdW + Hbond + desolv Energy     =   -5.34 kcal/mol
USER        Electrostatic Energy            =   -3.15 kcal/mol
USER    (2) Final Total Internal Energy     =   -1.98 kcal/mol
USER    (3) Torsional Free Energy           =   +3.58 kcal/mol
USER    (4) Unbound System's Energy  [=(2)] =   -1.98 kcal/mol
USER    
USER    
USER  
USER    DPF = D:/Protein_go_brrr/autodock/final/AncB/heme_Co/dock.dpf
USER    NEWDPF move	heme_Co_opt.pdbqt
USER    NEWDPF about	8.781000 34.984000 -0.736000
USER    NEWDPF tran0	-8.640688 1.243767 -9.684442
USER    NEWDPF axisangle0	-0.120532 0.708614 -0.695225 178.254672
USER    NEWDPF quaternion0	-0.120518 0.708532 -0.695145 0.015230
USER    NEWDPF dihe0	-166.42 106.90 -57.00 -108.88 -87.40 138.61 29.03 -34.30 -177.50 46.92 -178.26 -165.57 
USER  
USER                              x       y       z    vdW   Elec        q     RMS 
ATOM      1  C   UNL d   1      -6.983   2.376 -10.512 -0.16 +0.04    +0.064    37.518
ATOM      2  C   UNL d   1      -7.149  -1.517  -7.787 -0.12 +0.02    +0.064    37.518
ATOM      3  C   UNL d   1     -11.900  -1.130  -7.458 -0.09 +0.00    +0.064    37.518
ATOM      4  C   UNL d   1     -11.795   2.621 -10.554 -0.01 +0.01    +0.064    37.518
ATOM      5  C   UNL d   1      -6.675   1.305  -9.762 -0.20 +0.03    +0.066    37.518
ATOM      6  C   UNL d   1      -5.358   0.815  -9.662 -0.27 -0.01    -0.021    37.518
ATOM      7  C   UNL d   1      -5.416  -0.328  -8.889 -0.28 -0.01    -0.025    37.518
ATOM      8  C   UNL d   1      -6.762  -0.477  -8.537 -0.23 +0.02    +0.066    37.518
ATOM      9  C   UNL d   1      -4.257  -1.254  -8.489 -0.14 +0.02    +0.051    37.518
ATOM     10  C   UNL d   1      -8.506  -1.739  -7.353 -0.19 +0.02    +0.066    37.518
ATOM     11  C   UNL d   1      -8.952  -2.730  -6.452 -0.37 -0.00    -0.021    37.518
ATOM     12  C   UNL d   1     -10.340  -2.592  -6.372 -0.31 +0.00    +0.000    37.518
ATOM     13  C   UNL d   1     -10.636  -1.522  -7.217 -0.17 +0.01    +0.070    37.518
ATOM     14  C   UNL d   1      -8.083  -3.672  -5.660 -0.47 +0.01    +0.052    37.518
ATOM     15  C   UNL d   1     -12.387  -0.086  -8.337 -0.07 +0.00    +0.066    37.518
ATOM     16  C   UNL d   1     -13.713   0.173  -8.652 -0.06 -0.00    -0.021    37.518
ATOM     17  C   UNL d   1     -13.688   1.253  -9.547 -0.02 +0.00    +0.000    37.518
ATOM     18  C   UNL d   1     -12.344   1.579  -9.694 -0.01 +0.01    +0.070    37.518
ATOM     19  C   UNL d   1     -14.906  -0.585  -8.115 -0.07 -0.00    +0.052    37.518
ATOM     20  C   UNL d   1     -10.489   2.900 -10.780 -0.02 +0.02    +0.066    37.518
ATOM     21  C   UNL d   1     -10.084   3.903 -11.657 -0.02 -0.01    -0.025    37.518
ATOM     22  C   UNL d   1      -8.702   3.875 -11.643 -0.08 -0.01    -0.021    37.518
ATOM     23  C   UNL d   1      -8.329   2.840 -10.760 -0.10 +0.03    +0.066    37.518
ATOM     24  C   UNL d   1     -10.971   4.831 -12.484 -0.01 +0.02    +0.051    37.518
ATOM     25  N   UNL d   1      -7.564   0.523  -9.059 -0.11 -0.09    -0.248    37.518
ATOM     26  N   UNL d   1      -9.520  -0.972  -7.766 -0.10 -0.05    -0.248    37.518
ATOM     27  N   UNL d   1     -11.596   0.742  -8.983 -0.02 -0.04    -0.248    37.518
ATOM     28  N   UNL d   1      -9.408   2.245 -10.237 -0.02 -0.08    -0.248    37.518
ATOM     29 FE   UNL d   1      -9.699   0.642  -9.021 -0.02 +0.00    +0.000    37.518
ATOM     30  C   UNL d   1      -4.122   1.383 -10.352 -0.00 +0.04    +0.052    37.518
ATOM     31  C   UNL d   1      -3.865   0.659 -11.673 -0.22 +0.13    +0.115    37.518
ATOM     32  C   UNL d   1      -4.898  -0.409 -11.957 -0.12 +0.19    +0.139    37.518
ATOM     33  O   UNL d   1      -4.629  -1.580 -11.737 -0.36 -1.21    -0.650    37.518
ATOM     34  O   UNL d   1      -6.139  -0.106 -12.406 +0.05 -0.78    -0.776    37.518
ATOM     35  H   UNL d   1      -6.863  -0.743 -12.474 +0.03 +0.15    +0.167    37.518
ATOM     36  C   UNL d   1      -9.688  -0.645 -10.675 -0.02 +0.07    +0.190    37.518
ATOM     37  O   UNL d   1      -8.863  -1.162 -11.679 +0.00 -0.19    -0.399    37.518
ATOM     38  H   UNL d   1      -8.001  -0.669 -11.581 +0.03 +0.12    +0.209    37.518
ATOM     39  C   UNL d   1      -7.796   4.754 -12.485 -0.10 +0.04    +0.052    37.518
ATOM     40  C   UNL d   1      -7.986   4.455 -13.981 -0.07 +0.08    +0.115    37.518
ATOM     41  C   UNL d   1      -6.700   4.418 -14.780 -0.01 +0.17    +0.139    37.518
ATOM     42  O   UNL d   1      -6.235   3.338 -15.115 -0.04 -0.86    -0.650    37.518
ATOM     43  O   UNL d   1      -6.097   5.549 -15.208 -0.14 -1.21    -0.776    37.518
ATOM     44  H   UNL d   1      -6.571   6.241 -15.687 +0.01 +0.16    +0.167    37.518
ATOM     45  C   UNL d   1     -11.413  -3.331  -5.583 -0.36 +0.00    +0.004    37.518
ATOM     46  C   UNL d   1     -12.447  -4.059  -5.999 -0.28 +0.00    +0.012    37.518
ATOM     47  C   UNL d   1     -14.812   1.920 -10.269 -0.00 +0.00    +0.004    37.518
ATOM     48  C   UNL d   1     -15.016   1.806 -11.583 -0.00 +0.00    +0.012    37.518
TER
ENDMDL
MODEL       17
USER    Run = 17
USER    Cluster Rank = 27
USER    Number of conformations in this cluster = 1
USER  
USER    RMSD from reference structure       = 27.012 A
USER  
USER    Estimated Free Energy of Binding    =   -4.81 kcal/mol  [=(1)+(2)+(3)-(4)]
USER    Estimated Inhibition Constant, Ki   =  296.56 uM (micromolar)  [Temperature = 298.15 K]
USER    
USER    (1) Final Intermolecular Energy     =   -8.39 kcal/mol
USER        vdW + Hbond + desolv Energy     =   -6.53 kcal/mol
USER        Electrostatic Energy            =   -1.86 kcal/mol
USER    (2) Final Total Internal Energy     =   -2.08 kcal/mol
USER    (3) Torsional Free Energy           =   +3.58 kcal/mol
USER    (4) Unbound System's Energy  [=(2)] =   -2.08 kcal/mol
USER    
USER    
USER  
USER    DPF = D:/Protein_go_brrr/autodock/final/AncB/heme_Co/dock.dpf
USER    NEWDPF move	heme_Co_opt.pdbqt
USER    NEWDPF about	8.781000 34.984000 -0.736000
USER    NEWDPF tran0	20.403175 8.231469 -4.890587
USER    NEWDPF axisangle0	-0.026277 -0.786423 0.617130 -115.400783
USER    NEWDPF quaternion0	-0.022211 -0.664736 0.521638 -0.534347
USER    NEWDPF dihe0	-104.28 75.10 -46.30 -15.06 -98.81 138.05 36.33 -55.37 -179.96 -71.48 -174.58 -180.00 
USER  
USER                              x       y       z    vdW   Elec        q     RMS 
ATOM      1  C   UNL d   1      21.591   7.892  -6.676 -0.06 +0.01    +0.064    27.012
ATOM      2  C   UNL d   1      19.717   4.920  -3.473 -0.15 +0.02    +0.064    27.012
ATOM      3  C   UNL d   1      18.227   8.625  -0.850 -0.13 +0.01    +0.064    27.012
ATOM      4  C   UNL d   1      19.793  11.678  -4.299 -0.13 +0.02    +0.064    27.012
ATOM      5  C   UNL d   1      21.220   6.808  -5.975 -0.05 +0.02    +0.066    27.012
ATOM      6  C   UNL d   1      21.421   5.500  -6.460 -0.04 -0.01    -0.021    27.012
ATOM      7  C   UNL d   1      20.855   4.643  -5.537 -0.07 -0.01    -0.025    27.012
ATOM      8  C   UNL d   1      20.348   5.462  -4.522 -0.07 +0.02    +0.066    27.012
ATOM      9  C   UNL d   1      20.784   3.109  -5.595 -0.10 +0.02    +0.051    27.012
ATOM     10  C   UNL d   1      19.187   5.680  -2.369 -0.15 +0.01    +0.066    27.012
ATOM     11  C   UNL d   1      18.640   5.163  -1.174 -0.05 -0.00    -0.021    27.012
ATOM     12  C   UNL d   1      18.217   6.266  -0.426 -0.18 +0.00    +0.000    27.012
ATOM     13  C   UNL d   1      18.548   7.370  -1.211 -0.15 +0.01    +0.070    27.012
ATOM     14  C   UNL d   1      18.620   3.716  -0.754 -0.25 +0.00    +0.052    27.012
ATOM     15  C   UNL d   1      18.444   9.870  -1.560 -0.13 +0.02    +0.066    27.012
ATOM     16  C   UNL d   1      17.959  11.119  -1.199 -0.14 -0.01    -0.021    27.012
ATOM     17  C   UNL d   1      18.406  12.003  -2.192 -0.17 +0.00    +0.000    27.012
ATOM     18  C   UNL d   1      19.146  11.223  -3.075 -0.15 +0.02    +0.070    27.012
ATOM     19  C   UNL d   1      17.122  11.414   0.025 -0.13 +0.01    +0.052    27.012
ATOM     20  C   UNL d   1      20.444  10.924  -5.217 -0.13 +0.02    +0.066    27.012
ATOM     21  C   UNL d   1      20.995  11.472  -6.373 -0.14 -0.01    -0.025    27.012
ATOM     22  C   UNL d   1      21.545  10.408  -7.064 -0.10 -0.00    -0.021    27.012
ATOM     23  C   UNL d   1      21.291   9.253  -6.295 -0.07 +0.01    +0.066    27.012
ATOM     24  C   UNL d   1      20.980  12.934  -6.810 -0.12 +0.01    +0.051    27.012
ATOM     25  N   UNL d   1      20.566   6.807  -4.765 -0.02 -0.08    -0.248    27.012
ATOM     26  N   UNL d   1      19.184   7.017  -2.360 -0.06 -0.05    -0.248    27.012
ATOM     27  N   UNL d   1      19.122   9.954  -2.684 -0.07 -0.07    -0.248    27.012
ATOM     28  N   UNL d   1      20.622   9.561  -5.177 -0.07 -0.05    -0.248    27.012
ATOM     29 FE   UNL d   1      19.803   8.476  -3.665 -0.02 +0.00    +0.000    27.012
ATOM     30  C   UNL d   1      22.056   5.110  -7.790 -0.02 +0.02    +0.052    27.012
ATOM     31  C   UNL d   1      20.991   5.002  -8.882 -0.04 +0.05    +0.115    27.012
ATOM     32  C   UNL d   1      19.596   5.261  -8.356 -0.13 +0.14    +0.139    27.012
ATOM     33  O   UNL d   1      18.907   4.321  -7.989 -0.54 -1.03    -0.650    27.012
ATOM     34  O   UNL d   1      19.098   6.513  -8.231 -0.10 -0.80    -0.776    27.012
ATOM     35  H   UNL d   1      18.955   6.960  -7.385 -0.13 +0.14    +0.167    27.012
ATOM     36  C   UNL d   1      18.031   8.244  -4.761 -0.27 +0.08    +0.190    27.012
ATOM     37  O   UNL d   1      17.500   7.644  -5.907 -0.25 -0.33    -0.399    27.012
ATOM     38  H   UNL d   1      18.216   7.731  -6.597 -0.15 +0.12    +0.209    27.012
ATOM     39  C   UNL d   1      22.220  10.494  -8.421 -0.09 +0.01    +0.052    27.012
ATOM     40  C   UNL d   1      21.172  10.578  -9.543 -0.11 +0.02    +0.115    27.012
ATOM     41  C   UNL d   1      20.983  11.966 -10.119 -0.14 +0.03    +0.139    27.012
ATOM     42  O   UNL d   1      21.754  12.368 -10.979 +0.01 -0.13    -0.650    27.012
ATOM     43  O   UNL d   1      19.932  12.742  -9.771 +0.06 -0.14    -0.776    27.012
ATOM     44  H   UNL d   1      19.041  12.387  -9.653 -0.48 -0.01    +0.167    27.012
ATOM     45  C   UNL d   1      17.560   6.403   0.941 -0.25 +0.00    +0.004    27.012
ATOM     46  C   UNL d   1      16.832   5.538   1.642 -0.31 +0.00    +0.012    27.012
ATOM     47  C   UNL d   1      18.138  13.462  -2.362 -0.19 +0.00    +0.004    27.012
ATOM     48  C   UNL d   1      17.546  13.983  -3.439 -0.29 +0.01    +0.012    27.012
TER
ENDMDL
MODEL       79
USER    Run = 79
USER    Cluster Rank = 28
USER    Number of conformations in this cluster = 1
USER  
USER    RMSD from reference structure       = 40.155 A
USER  
USER    Estimated Free Energy of Binding    =   -4.71 kcal/mol  [=(1)+(2)+(3)-(4)]
USER    Estimated Inhibition Constant, Ki   =  352.37 uM (micromolar)  [Temperature = 298.15 K]
USER    
USER    (1) Final Intermolecular Energy     =   -8.29 kcal/mol
USER        vdW + Hbond + desolv Energy     =   -4.58 kcal/mol
USER        Electrostatic Energy            =   -3.71 kcal/mol
USER    (2) Final Total Internal Energy     =   -2.75 kcal/mol
USER    (3) Torsional Free Energy           =   +3.58 kcal/mol
USER    (4) Unbound System's Energy  [=(2)] =   -2.75 kcal/mol
USER    
USER    
USER  
USER    DPF = D:/Protein_go_brrr/autodock/final/AncB/heme_Co/dock.dpf
USER    NEWDPF move	heme_Co_opt.pdbqt
USER    NEWDPF about	8.781000 34.984000 -0.736000
USER    NEWDPF tran0	0.545983 -1.156646 -17.707078
USER    NEWDPF axisangle0	-0.925223 0.352922 0.139315 105.195295
USER    NEWDPF quaternion0	-0.734987 0.280358 0.110670 0.607408
USER    NEWDPF dihe0	9.58 80.82 -142.85 -103.24 -93.58 160.70 33.18 129.07 163.42 95.61 -162.97 -179.72 
USER  
USER                              x       y       z    vdW   Elec        q     RMS 
ATOM      1  C   UNL d   1      -0.748   0.555 -17.373 -0.01 +0.05    +0.064    40.155
ATOM      2  C   UNL d   1      -0.859  -2.957 -20.576 -0.01 +0.03    +0.064    40.155
ATOM      3  C   UNL d   1       3.300  -4.639 -18.933 -0.10 +0.01    +0.064    40.155
ATOM      4  C   UNL d   1       3.244  -1.291 -15.403 -0.14 +0.02    +0.064    40.155
ATOM      5  C   UNL d   1      -1.066  -0.260 -18.392 -0.00 +0.04    +0.066    40.155
ATOM      6  C   UNL d   1      -2.277  -0.134 -19.100 +0.00 -0.01    -0.021    40.155
ATOM      7  C   UNL d   1      -2.314  -1.169 -20.014 +0.00 -0.01    -0.025    40.155
ATOM      8  C   UNL d   1      -1.118  -1.873 -19.835 -0.01 +0.03    +0.066    40.155
ATOM      9  C   UNL d   1      -3.427  -1.498 -21.021 +0.00 +0.02    +0.051    40.155
ATOM     10  C   UNL d   1       0.355  -3.728 -20.482 -0.02 +0.02    +0.066    40.155
ATOM     11  C   UNL d   1       0.748  -4.791 -21.325 -0.02 -0.01    -0.021    40.155
ATOM     12  C   UNL d   1       1.966  -5.260 -20.826 -0.04 +0.00    +0.000    40.155
ATOM     13  C   UNL d   1       2.232  -4.444 -19.726 -0.06 +0.02    +0.070    40.155
ATOM     14  C   UNL d   1       0.040  -5.246 -22.575 -0.01 +0.02    +0.052    40.155
ATOM     15  C   UNL d   1       3.697  -3.928 -17.733 -0.12 +0.01    +0.066    40.155
ATOM     16  C   UNL d   1       4.734  -4.273 -16.878 -0.19 -0.00    -0.021    40.155
ATOM     17  C   UNL d   1       4.720  -3.312 -15.857 -0.15 +0.00    +0.000    40.155
ATOM     18  C   UNL d   1       3.683  -2.444 -16.180 +0.01 +0.02    +0.070    40.155
ATOM     19  C   UNL d   1       5.661  -5.455 -17.054 -0.25 +0.00    +0.052    40.155
ATOM     20  C   UNL d   1       2.184  -0.485 -15.652 -0.10 +0.03    +0.066    40.155
ATOM     21  C   UNL d   1       1.840   0.571 -14.811 -0.17 -0.01    -0.025    40.155
ATOM     22  C   UNL d   1       0.710   1.140 -15.369 -0.10 -0.01    -0.021    40.155
ATOM     23  C   UNL d   1       0.411   0.389 -16.526 -0.03 +0.04    +0.066    40.155
ATOM     24  C   UNL d   1       2.542   1.005 -13.527 -0.35 +0.02    +0.051    40.155
ATOM     25  N   UNL d   1      -0.323  -1.328 -18.841 -0.00 -0.13    -0.248    40.155
ATOM     26  N   UNL d   1       1.285  -3.483 -19.553 -0.02 -0.09    -0.248    40.155
ATOM     27  N   UNL d   1       3.077  -2.859 -17.287 -0.06 -0.08    -0.248    40.155
ATOM     28  N   UNL d   1       1.300  -0.597 -16.700 -0.03 -0.13    -0.248    40.155
ATOM     29 FE   UNL d   1       1.478  -2.136 -18.016 -0.02 +0.00    +0.000    40.155
ATOM     30  C   UNL d   1      -3.377   0.891 -18.845 +0.00 +0.03    +0.052    40.155
ATOM     31  C   UNL d   1      -4.230   0.475 -17.647 -0.01 +0.10    +0.115    40.155
ATOM     32  C   UNL d   1      -4.078  -0.993 -17.311 -0.05 +0.15    +0.139    40.155
ATOM     33  O   UNL d   1      -4.896  -1.794 -17.738 +0.00 -0.60    -0.650    40.155
ATOM     34  O   UNL d   1      -3.034  -1.459 -16.588 -0.24 -1.31    -0.776    40.155
ATOM     35  H   UNL d   1      -2.363  -0.897 -16.176 +0.01 +0.29    +0.167    40.155
ATOM     36  C   UNL d   1       0.253  -3.338 -16.812 -0.02 +0.13    +0.190    40.155
ATOM     37  O   UNL d   1      -1.080  -3.695 -16.584 -0.12 -0.43    -0.399    40.155
ATOM     38  H   UNL d   1      -1.606  -2.875 -16.802 +0.04 +0.26    +0.209    40.155
ATOM     39  C   UNL d   1      -0.073   2.300 -14.782 -0.19 +0.05    +0.052    40.155
ATOM     40  C   UNL d   1      -0.973   1.820 -13.632 -0.15 +0.13    +0.115    40.155
ATOM     41  C   UNL d   1      -2.359   1.389 -14.061 -0.17 +0.21    +0.139    40.155
ATOM     42  O   UNL d   1      -3.272   2.203 -14.042 -0.36 -1.49    -0.650    40.155
ATOM     43  O   UNL d   1      -2.600   0.151 -14.548 -0.29 -1.45    -0.776    40.155
ATOM     44  H   UNL d   1      -3.159  -0.003 -15.321 +0.02 +0.32    +0.167    40.155
ATOM     45  C   UNL d   1       2.914  -6.366 -21.270 -0.05 +0.00    +0.004    40.155
ATOM     46  C   UNL d   1       3.223  -7.524 -20.693 -0.09 +0.00    +0.012    40.155
ATOM     47  C   UNL d   1       5.565  -3.212 -14.629 -0.41 +0.00    +0.004    40.155
ATOM     48  C   UNL d   1       5.081  -3.320 -13.390 -0.53 +0.00    +0.012    40.155
TER
ENDMDL
MODEL        8
USER    Run = 8
USER    Cluster Rank = 29
USER    Number of conformations in this cluster = 1
USER  
USER    RMSD from reference structure       = 35.618 A
USER  
USER    Estimated Free Energy of Binding    =   -4.63 kcal/mol  [=(1)+(2)+(3)-(4)]
USER    Estimated Inhibition Constant, Ki   =  407.13 uM (micromolar)  [Temperature = 298.15 K]
USER    
USER    (1) Final Intermolecular Energy     =   -8.20 kcal/mol
USER        vdW + Hbond + desolv Energy     =   -6.50 kcal/mol
USER        Electrostatic Energy            =   -1.70 kcal/mol
USER    (2) Final Total Internal Energy     =   -2.23 kcal/mol
USER    (3) Torsional Free Energy           =   +3.58 kcal/mol
USER    (4) Unbound System's Energy  [=(2)] =   -2.23 kcal/mol
USER    
USER    
USER  
USER    DPF = D:/Protein_go_brrr/autodock/final/AncB/heme_Co/dock.dpf
USER    NEWDPF move	heme_Co_opt.pdbqt
USER    NEWDPF about	8.781000 34.984000 -0.736000
USER    NEWDPF tran0	16.909331 0.573311 -11.135187
USER    NEWDPF axisangle0	0.721790 -0.529554 -0.445636 -115.911918
USER    NEWDPF quaternion0	0.611818 -0.448871 -0.377740 -0.530571
USER    NEWDPF dihe0	-117.51 128.81 -18.61 -94.03 -89.01 91.33 -6.17 -88.30 93.14 -29.35 20.71 24.36 
USER  
USER                              x       y       z    vdW   Elec        q     RMS 
ATOM      1  C   UNL d   1      17.030   2.658 -10.540 -0.14 +0.05    +0.064    35.618
ATOM      2  C   UNL d   1      14.312   0.394 -13.718 -0.27 +0.02    +0.064    35.618
ATOM      3  C   UNL d   1      16.682  -3.673 -12.904 -0.09 +0.02    +0.064    35.618
ATOM      4  C   UNL d   1      19.213  -1.477  -9.377 -0.07 +0.02    +0.064    35.618
ATOM      5  C   UNL d   1      16.137   2.347 -11.495 -0.21 +0.03    +0.066    35.618
ATOM      6  C   UNL d   1      15.188   3.277 -11.962 -0.29 -0.01    -0.021    35.618
ATOM      7  C   UNL d   1      14.388   2.609 -12.867 -0.32 -0.01    -0.025    35.618
ATOM      8  C   UNL d   1      14.892   1.305 -12.926 -0.25 +0.02    +0.066    35.618
ATOM      9  C   UNL d   1      13.190   3.162 -13.655 -0.41 +0.01    +0.051    35.618
ATOM     10  C   UNL d   1      14.776  -0.963 -13.863 -0.16 +0.02    +0.066    35.618
ATOM     11  C   UNL d   1      14.299  -1.924 -14.780 -0.18 -0.01    -0.021    35.618
ATOM     12  C   UNL d   1      15.010  -3.100 -14.523 -0.15 +0.00    +0.000    35.618
ATOM     13  C   UNL d   1      15.875  -2.766 -13.481 -0.08 +0.02    +0.070    35.618
ATOM     14  C   UNL d   1      13.299  -1.687 -15.882 -0.21 +0.01    +0.052    35.618
ATOM     15  C   UNL d   1      17.596  -3.515 -11.789 -0.07 +0.02    +0.066    35.618
ATOM     16  C   UNL d   1      18.294  -4.528 -11.147 -0.04 -0.01    -0.021    35.618
ATOM     17  C   UNL d   1      19.024  -3.900 -10.128 -0.04 +0.00    +0.000    35.618
ATOM     18  C   UNL d   1      18.724  -2.546 -10.239 -0.05 +0.02    +0.070    35.618
ATOM     19  C   UNL d   1      18.243  -5.995 -11.511 -0.03 +0.02    +0.052    35.618
ATOM     20  C   UNL d   1      18.869  -0.168  -9.412 -0.09 +0.02    +0.066    35.618
ATOM     21  C   UNL d   1      19.380   0.760  -8.507 -0.12 -0.01    -0.025    35.618
ATOM     22  C   UNL d   1      18.790   1.966  -8.836 -0.17 -0.01    -0.021    35.618
ATOM     23  C   UNL d   1      17.933   1.711  -9.927 -0.16 +0.04    +0.066    35.618
ATOM     24  C   UNL d   1      20.366   0.505  -7.370 -0.10 +0.02    +0.051    35.618
ATOM     25  N   UNL d   1      15.980   1.116 -12.090 -0.12 -0.09    -0.248    35.618
ATOM     26  N   UNL d   1      15.772  -1.459 -13.120 -0.10 -0.08    -0.248    35.618
ATOM     27  N   UNL d   1      17.848  -2.358 -11.220 -0.04 -0.07    -0.248    35.618
ATOM     28  N   UNL d   1      17.976   0.420 -10.278 -0.06 -0.09    -0.248    35.618
ATOM     29 FE   UNL d   1      16.971  -0.722 -11.627 -0.03 +0.00    +0.000    35.618
ATOM     30  C   UNL d   1      15.018   4.718 -11.491 -0.38 +0.04    +0.052    35.618
ATOM     31  C   UNL d   1      15.568   5.692 -12.532 -0.34 +0.06    +0.115    35.618
ATOM     32  C   UNL d   1      17.039   5.984 -12.329 -0.24 +0.08    +0.139    35.618
ATOM     33  O   UNL d   1      17.439   7.136 -12.410 -0.05 -0.35    -0.650    35.618
ATOM     34  O   UNL d   1      17.926   5.013 -12.011 +0.06 -0.43    -0.776    35.618
ATOM     35  H   UNL d   1      18.478   5.020 -11.217 +0.04 +0.11    +0.167    35.618
ATOM     36  C   UNL d   1      15.443  -1.065 -10.233 -0.31 +0.07    +0.190    35.618
ATOM     37  O   UNL d   1      14.876  -0.565  -9.056 -0.20 -0.11    -0.399    35.618
ATOM     38  H   UNL d   1      15.235   0.362  -8.972 -0.43 +0.04    +0.209    35.618
ATOM     39  C   UNL d   1      18.994   3.276  -8.096 -0.15 +0.05    +0.052    35.618
ATOM     40  C   UNL d   1      19.446   4.381  -9.065 -0.09 +0.11    +0.115    35.618
ATOM     41  C   UNL d   1      18.911   5.759  -8.734 +0.10 +0.19    +0.139    35.618
ATOM     42  O   UNL d   1      19.021   6.185  -7.592 -0.22 -0.81    -0.650    35.618
ATOM     43  O   UNL d   1      18.393   6.567  -9.685 +0.03 -0.87    -0.776    35.618
ATOM     44  H   UNL d   1      18.492   6.388 -10.629 +0.04 +0.14    +0.167    35.618
ATOM     45  C   UNL d   1      14.986  -4.486 -15.153 -0.09 +0.00    +0.004    35.618
ATOM     46  C   UNL d   1      14.435  -5.620 -14.728 -0.11 +0.00    +0.012    35.618
ATOM     47  C   UNL d   1      19.903  -4.496  -9.078 -0.03 +0.00    +0.004    35.618
ATOM     48  C   UNL d   1      19.590  -4.520  -7.780 -0.07 +0.00    +0.012    35.618
TER
ENDMDL
MODEL       77
USER    Run = 77
USER    Cluster Rank = 30
USER    Number of conformations in this cluster = 1
USER  
USER    RMSD from reference structure       = 29.641 A
USER  
USER    Estimated Free Energy of Binding    =   -4.32 kcal/mol  [=(1)+(2)+(3)-(4)]
USER    Estimated Inhibition Constant, Ki   =  677.52 uM (micromolar)  [Temperature = 298.15 K]
USER    
USER    (1) Final Intermolecular Energy     =   -7.90 kcal/mol
USER        vdW + Hbond + desolv Energy     =   -6.69 kcal/mol
USER        Electrostatic Energy            =   -1.21 kcal/mol
USER    (2) Final Total Internal Energy     =   -2.29 kcal/mol
USER    (3) Torsional Free Energy           =   +3.58 kcal/mol
USER    (4) Unbound System's Energy  [=(2)] =   -2.29 kcal/mol
USER    
USER    
USER  
USER    DPF = D:/Protein_go_brrr/autodock/final/AncB/heme_Co/dock.dpf
USER    NEWDPF move	heme_Co_opt.pdbqt
USER    NEWDPF about	8.781000 34.984000 -0.736000
USER    NEWDPF tran0	17.775265 4.450946 1.205651
USER    NEWDPF axisangle0	0.159205 -0.123780 0.979455 80.953579
USER    NEWDPF quaternion0	0.103346 -0.080350 0.635804 0.760669
USER    NEWDPF dihe0	168.10 115.40 -1.62 122.04 137.46 138.21 -132.44 166.83 -141.52 93.81 -175.28 10.92 
USER  
USER                              x       y       z    vdW   Elec        q     RMS 
ATOM      1  C   UNL d   1      17.688   6.393   0.238 -0.06 +0.00    +0.064    29.641
ATOM      2  C   UNL d   1      16.332   4.907   4.546 -0.16 +0.01    +0.064    29.641
ATOM      3  C   UNL d   1      17.442   0.407   3.385 -0.19 +0.00    +0.064    29.641
ATOM      4  C   UNL d   1      19.194   1.954  -0.881 -0.04 +0.01    +0.064    29.641
ATOM      5  C   UNL d   1      17.202   6.312   1.487 -0.22 +0.01    +0.066    29.641
ATOM      6  C   UNL d   1      16.826   7.456   2.218 -0.16 -0.00    -0.021    29.641
ATOM      7  C   UNL d   1      16.454   7.021   3.475 -0.15 -0.00    -0.025    29.641
ATOM      8  C   UNL d   1      16.605   5.631   3.453 -0.18 +0.01    +0.066    29.641
ATOM      9  C   UNL d   1      15.975   7.870   4.662 -0.08 +0.01    +0.051    29.641
ATOM     10  C   UNL d   1      16.432   3.470   4.609 -0.09 +0.01    +0.066    29.641
ATOM     11  C   UNL d   1      16.027   2.643   5.679 -0.11 -0.00    -0.021    29.641
ATOM     12  C   UNL d   1      16.359   1.335   5.312 -0.14 +0.00    +0.000    29.641
ATOM     13  C   UNL d   1      16.928   1.460   4.045 -0.19 +0.00    +0.070    29.641
ATOM     14  C   UNL d   1      15.288   3.082   6.917 -0.08 +0.01    +0.052    29.641
ATOM     15  C   UNL d   1      18.110   0.364   2.099 -0.19 -0.00    +0.066    29.641
ATOM     16  C   UNL d   1      18.748  -0.734   1.540 -0.19 -0.00    -0.021    29.641
ATOM     17  C   UNL d   1      19.257  -0.292   0.310 -0.21 +0.00    +0.000    29.641
ATOM     18  C   UNL d   1      18.873   1.041   0.209 -0.23 +0.00    +0.070    29.641
ATOM     19  C   UNL d   1      18.848  -2.105   2.170 -0.13 +0.00    +0.052    29.641
ATOM     20  C   UNL d   1      18.906   3.275  -0.962 -0.20 +0.00    +0.066    29.641
ATOM     21  C   UNL d   1      19.299   4.057  -2.046 -0.17 -0.00    -0.025    29.641
ATOM     22  C   UNL d   1      18.854   5.336  -1.764 -0.18 -0.00    -0.021    29.641
ATOM     23  C   UNL d   1      18.216   5.272  -0.507 +0.02 -0.00    +0.066    29.641
ATOM     24  C   UNL d   1      20.079   3.613  -3.280 -0.09 +0.01    +0.051    29.641
ATOM     25  N   UNL d   1      17.061   5.163   2.232 -0.21 -0.02    -0.248    29.641
ATOM     26  N   UNL d   1      16.920   2.745   3.598 -0.16 -0.01    -0.248    29.641
ATOM     27  N   UNL d   1      18.218   1.406   1.305 -0.15 +0.02    -0.248    29.641
ATOM     28  N   UNL d   1      18.248   4.027  -0.017 -0.20 +0.02    -0.248    29.641
ATOM     29 FE   UNL d   1      17.675   3.174   1.738 -0.06 -0.00    +0.000    29.641
ATOM     30  C   UNL d   1      16.902   8.904   1.744 -0.00 +0.01    +0.052    29.641
ATOM     31  C   UNL d   1      18.248   9.522   2.123 -0.05 +0.02    +0.115    29.641
ATOM     32  C   UNL d   1      19.388   8.533   2.017 -0.03 +0.02    +0.139    29.641
ATOM     33  O   UNL d   1      20.088   8.528   1.016 +0.01 -0.08    -0.650    29.641
ATOM     34  O   UNL d   1      19.693   7.678   3.022 +0.02 -0.08    -0.776    29.641
ATOM     35  H   UNL d   1      20.252   6.896   2.919 +0.01 +0.02    +0.167    29.641
ATOM     36  C   UNL d   1      19.525   3.651   2.601 -0.05 +0.01    +0.190    29.641
ATOM     37  O   UNL d   1      20.316   4.727   3.015 -0.00 -0.03    -0.399    29.641
ATOM     38  H   UNL d   1      19.758   5.537   2.845 +0.02 +0.02    +0.209    29.641
ATOM     39  C   UNL d   1      19.088   6.559  -2.630 -0.16 +0.01    +0.052    29.641
ATOM     40  C   UNL d   1      17.766   7.057  -3.236 -0.29 +0.04    +0.115    29.641
ATOM     41  C   UNL d   1      17.445   6.478  -4.598 -0.37 +0.10    +0.139    29.641
ATOM     42  O   UNL d   1      18.261   6.589  -5.502 -0.02 -0.58    -0.650    29.641
ATOM     43  O   UNL d   1      16.319   5.766  -4.820 -0.45 -0.81    -0.776    29.641
ATOM     44  H   UNL d   1      15.637   5.649  -4.145 -0.36 +0.06    +0.167    29.641
ATOM     45  C   UNL d   1      16.187  -0.012   6.001 -0.12 +0.00    +0.004    29.641
ATOM     46  C   UNL d   1      15.433  -1.059   5.680 -0.18 +0.00    +0.012    29.641
ATOM     47  C   UNL d   1      20.088  -1.020  -0.695 -0.18 +0.00    +0.004    29.641
ATOM     48  C   UNL d   1      19.672  -1.298  -1.933 -0.25 +0.00    +0.012    29.641
TER
ENDMDL
MODEL       37
USER    Run = 37
USER    Cluster Rank = 31
USER    Number of conformations in this cluster = 3
USER  
USER    RMSD from reference structure       = 39.034 A
USER  
USER    Estimated Free Energy of Binding    =   -3.99 kcal/mol  [=(1)+(2)+(3)-(4)]
USER    Estimated Inhibition Constant, Ki   =    1.19 mM (millimolar)  [Temperature = 298.15 K]
USER    
USER    (1) Final Intermolecular Energy     =   -7.57 kcal/mol
USER        vdW + Hbond + desolv Energy     =   -6.82 kcal/mol
USER        Electrostatic Energy            =   -0.74 kcal/mol
USER    (2) Final Total Internal Energy     =   -1.94 kcal/mol
USER    (3) Torsional Free Energy           =   +3.58 kcal/mol
USER    (4) Unbound System's Energy  [=(2)] =   -1.94 kcal/mol
USER    
USER    
USER  
USER    DPF = D:/Protein_go_brrr/autodock/final/AncB/heme_Co/dock.dpf
USER    NEWDPF move	heme_Co_opt.pdbqt
USER    NEWDPF about	8.781000 34.984000 -0.736000
USER    NEWDPF tran0	16.212445 -3.235089 -11.801667
USER    NEWDPF axisangle0	0.793638 0.519079 0.317325 156.140420
USER    NEWDPF quaternion0	0.776497 0.507868 0.310472 0.206713
USER    NEWDPF dihe0	-151.75 114.64 76.81 56.60 121.70 126.42 45.40 104.90 151.06 -25.96 -154.06 -65.89 
USER  
USER                              x       y       z    vdW   Elec        q     RMS 
ATOM      1  C   UNL d   1      15.875  -5.253 -12.530 -0.12 +0.03    +0.064    39.034
ATOM      2  C   UNL d   1      14.819  -0.984 -14.340 -0.21 +0.02    +0.064    39.034
ATOM      3  C   UNL d   1      16.410   1.136 -10.364 -0.29 +0.03    +0.064    39.034
ATOM      4  C   UNL d   1      17.852  -3.183  -8.653 -0.16 +0.02    +0.064    39.034
ATOM      5  C   UNL d   1      15.436  -4.245 -13.302 -0.09 +0.03    +0.066    39.034
ATOM      6  C   UNL d   1      14.950  -4.459 -14.606 -0.11 -0.01    -0.021    39.034
ATOM      7  C   UNL d   1      14.666  -3.215 -15.135 -0.13 -0.01    -0.025    39.034
ATOM      8  C   UNL d   1      14.976  -2.297 -14.126 -0.09 +0.02    +0.066    39.034
ATOM      9  C   UNL d   1      14.125  -2.887 -16.535 -0.10 +0.01    +0.051    39.034
ATOM     10  C   UNL d   1      15.086   0.032 -13.353 -0.20 +0.02    +0.066    39.034
ATOM     11  C   UNL d   1      14.809   1.412 -13.466 -0.26 -0.01    -0.021    39.034
ATOM     12  C   UNL d   1      15.280   2.006 -12.292 -0.27 +0.00    +0.000    39.034
ATOM     13  C   UNL d   1      15.795   0.946 -11.545 -0.26 +0.03    +0.070    39.034
ATOM     14  C   UNL d   1      14.059   2.082 -14.588 -0.28 +0.02    +0.052    39.034
ATOM     15  C   UNL d   1      17.042   0.168  -9.490 -0.28 +0.02    +0.066    39.034
ATOM     16  C   UNL d   1      17.787   0.449  -8.353 -0.27 -0.01    -0.021    39.034
ATOM     17  C   UNL d   1      18.207  -0.794  -7.858 -0.28 +0.00    +0.000    39.034
ATOM     18  C   UNL d   1      17.669  -1.739  -8.725 -0.20 +0.02    +0.070    39.034
ATOM     19  C   UNL d   1      18.062   1.831  -7.804 -0.17 +0.04    +0.052    39.034
ATOM     20  C   UNL d   1      17.411  -4.114  -9.533 -0.15 +0.03    +0.066    39.034
ATOM     21  C   UNL d   1      17.681  -5.472  -9.375 -0.11 -0.01    -0.025    39.034
ATOM     22  C   UNL d   1      17.099  -6.097 -10.463 -0.11 -0.01    -0.021    39.034
ATOM     23  C   UNL d   1      16.508  -5.080 -11.243 -0.13 +0.03    +0.066    39.034
ATOM     24  C   UNL d   1      18.473  -6.141  -8.254 -0.07 +0.01    +0.051    39.034
ATOM     25  N   UNL d   1      15.449  -2.907 -12.977 +0.01 -0.10    -0.248    39.034
ATOM     26  N   UNL d   1      15.627  -0.253 -12.163 -0.16 -0.08    -0.248    39.034
ATOM     27  N   UNL d   1      17.007  -1.129  -9.702 -0.18 -0.08    -0.248    39.034
ATOM     28  N   UNL d   1      16.697  -3.878 -10.684 -0.12 -0.10    -0.248    39.034
ATOM     29 FE   UNL d   1      16.275  -1.968 -11.240 -0.05 +0.00    +0.000    39.034
ATOM     30  C   UNL d   1      14.846  -5.797 -15.330 -0.05 +0.01    +0.052    39.034
ATOM     31  C   UNL d   1      16.236  -6.330 -15.676 -0.01 +0.02    +0.115    39.034
ATOM     32  C   UNL d   1      17.233  -5.220 -15.930 -0.01 +0.03    +0.139    39.034
ATOM     33  O   UNL d   1      17.295  -4.710 -17.038 +0.00 -0.11    -0.650    39.034
ATOM     34  O   UNL d   1      18.032  -4.737 -14.951 +0.02 -0.15    -0.776    39.034
ATOM     35  H   UNL d   1      18.424  -3.852 -14.956 +0.01 +0.03    +0.167    39.034
ATOM     36  C   UNL d   1      18.080  -1.853 -12.300 -0.04 +0.05    +0.190    39.034
ATOM     37  O   UNL d   1      18.825  -2.481 -13.303 +0.00 -0.08    -0.399    39.034
ATOM     38  H   UNL d   1      18.254  -3.239 -13.611 +0.02 +0.05    +0.209    39.034
ATOM     39  C   UNL d   1      17.166  -7.582 -10.765 -0.08 +0.03    +0.052    39.034
ATOM     40  C   UNL d   1      17.131  -8.402  -9.465 -0.06 +0.06    +0.115    39.034
ATOM     41  C   UNL d   1      16.463  -9.754  -9.597 -0.02 +0.07    +0.139    39.034
ATOM     42  O   UNL d   1      15.447  -9.985  -8.956 -0.35 -0.54    -0.650    39.034
ATOM     43  O   UNL d   1      16.908 -10.685 -10.470 +0.02 -0.23    -0.776    39.034
ATOM     44  H   UNL d   1      17.641 -11.281 -10.265 +0.01 +0.03    +0.167    39.034
ATOM     45  C   UNL d   1      15.284   3.441 -11.783 -0.36 +0.00    +0.004    39.034
ATOM     46  C   UNL d   1      14.310   4.346 -11.735 -0.47 +0.01    +0.012    39.034
ATOM     47  C   UNL d   1      19.089  -1.108  -6.694 -0.28 +0.00    +0.004    39.034
ATOM     48  C   UNL d   1      18.627  -1.493  -5.502 -0.35 +0.00    +0.012    39.034
TER
ENDMDL
MODEL       96
USER    Run = 96
USER    Cluster Rank = 32
USER    Number of conformations in this cluster = 2
USER  
USER    RMSD from reference structure       = 32.474 A
USER  
USER    Estimated Free Energy of Binding    =   -3.95 kcal/mol  [=(1)+(2)+(3)-(4)]
USER    Estimated Inhibition Constant, Ki   =    1.28 mM (millimolar)  [Temperature = 298.15 K]
USER    
USER    (1) Final Intermolecular Energy     =   -7.53 kcal/mol
USER        vdW + Hbond + desolv Energy     =   -6.77 kcal/mol
USER        Electrostatic Energy            =   -0.76 kcal/mol
USER    (2) Final Total Internal Energy     =   -3.91 kcal/mol
USER    (3) Torsional Free Energy           =   +3.58 kcal/mol
USER    (4) Unbound System's Energy  [=(2)] =   -3.91 kcal/mol
USER    
USER    
USER  
USER    DPF = D:/Protein_go_brrr/autodock/final/AncB/heme_Co/dock.dpf
USER    NEWDPF move	heme_Co_opt.pdbqt
USER    NEWDPF about	8.781000 34.984000 -0.736000
USER    NEWDPF tran0	18.253134 4.935744 -10.462398
USER    NEWDPF axisangle0	-0.299964 0.623409 -0.722068 -131.609853
USER    NEWDPF quaternion0	-0.273614 0.568646 -0.658638 -0.409845
USER    NEWDPF dihe0	65.59 128.18 -144.63 23.84 176.10 98.36 41.14 109.05 141.51 143.35 -145.45 172.89 
USER  
USER                              x       y       z    vdW   Elec        q     RMS 
ATOM      1  C   UNL d   1      18.660   7.020 -10.917 +0.18 +0.05    +0.064    32.474
ATOM      2  C   UNL d   1      20.491   4.035  -7.700 -0.09 +0.04    +0.064    32.474
ATOM      3  C   UNL d   1      17.354   0.667  -8.985 -0.26 +0.03    +0.064    32.474
ATOM      4  C   UNL d   1      15.722   3.561 -12.538 -0.18 +0.03    +0.064    32.474
ATOM      5  C   UNL d   1      19.367   6.464  -9.919 -0.17 +0.05    +0.066    32.474
ATOM      6  C   UNL d   1      20.452   7.126  -9.313 -0.13 -0.01    -0.021    32.474
ATOM      7  C   UNL d   1      20.994   6.247  -8.396 -0.08 -0.01    -0.025    32.474
ATOM      8  C   UNL d   1      20.207   5.093  -8.470 -0.09 +0.05    +0.066    32.474
ATOM      9  C   UNL d   1      22.207   6.470  -7.479 -0.03 +0.01    +0.051    32.474
ATOM     10  C   UNL d   1      19.722   2.815  -7.689 -0.13 +0.04    +0.066    32.474
ATOM     11  C   UNL d   1      19.884   1.725  -6.806 -0.14 -0.01    -0.021    32.474
ATOM     12  C   UNL d   1      18.954   0.759  -7.201 -0.23 +0.00    +0.000    32.474
ATOM     13  C   UNL d   1      18.287   1.334  -8.283 -0.24 +0.04    +0.070    32.474
ATOM     14  C   UNL d   1      20.804   1.670  -5.614 -0.11 +0.02    +0.052    32.474
ATOM     15  C   UNL d   1      16.608   1.087 -10.155 -0.28 +0.03    +0.066    32.474
ATOM     16  C   UNL d   1      15.763   0.296 -10.920 -0.35 -0.01    -0.021    32.474
ATOM     17  C   UNL d   1      15.292   1.125 -11.947 -0.29 +0.00    +0.000    32.474
ATOM     18  C   UNL d   1      15.876   2.366 -11.717 -0.22 +0.03    +0.070    32.474
ATOM     19  C   UNL d   1      15.449  -1.161 -10.657 -0.28 +0.02    +0.052    32.474
ATOM     20  C   UNL d   1      16.347   4.753 -12.383 -0.20 +0.03    +0.066    32.474
ATOM     21  C   UNL d   1      16.144   5.817 -13.260 -0.24 -0.01    -0.025    32.474
ATOM     22  C   UNL d   1      16.956   6.838 -12.800 -0.28 -0.01    -0.021    32.474
ATOM     23  C   UNL d   1      17.628   6.338 -11.665 -0.25 +0.04    +0.066    32.474
ATOM     24  C   UNL d   1      15.237   5.854 -14.486 -0.25 +0.01    +0.051    32.474
ATOM     25  N   UNL d   1      19.188   5.202  -9.401 -0.10 -0.25    -0.248    32.474
ATOM     26  N   UNL d   1      18.715   2.599  -8.541 -0.12 -0.21    -0.248    32.474
ATOM     27  N   UNL d   1      16.677   2.299 -10.659 -0.14 -0.16    -0.248    32.474
ATOM     28  N   UNL d   1      17.264   5.076 -11.410 -0.15 -0.19    -0.248    32.474
ATOM     29 FE   UNL d   1      17.856   3.666 -10.070 -0.04 +0.00    +0.000    32.474
ATOM     30  C   UNL d   1      20.985   8.511  -9.666 -0.13 +0.01    +0.052    32.474
ATOM     31  C   UNL d   1      21.468   8.547 -11.116 -0.07 +0.03    +0.115    32.474
ATOM     32  C   UNL d   1      22.208   7.286 -11.509 -0.02 +0.03    +0.139    32.474
ATOM     33  O   UNL d   1      23.413   7.213 -11.323 +0.01 -0.12    -0.650    32.474
ATOM     34  O   UNL d   1      21.568   6.208 -12.020 +0.03 -0.20    -0.776    32.474
ATOM     35  H   UNL d   1      21.067   6.215 -12.847 +0.02 +0.04    +0.167    32.474
ATOM     36  C   UNL d   1      19.392   3.052 -11.358 -0.02 +0.08    +0.190    32.474
ATOM     37  O   UNL d   1      20.234   3.501 -12.380 +0.01 -0.12    -0.399    32.474
ATOM     38  H   UNL d   1      20.169   4.496 -12.348 +0.02 +0.07    +0.209    32.474
ATOM     39  C   UNL d   1      17.122   8.195 -13.459 -0.24 +0.02    +0.052    32.474
ATOM     40  C   UNL d   1      18.197   8.136 -14.558 -0.12 +0.03    +0.115    32.474
ATOM     41  C   UNL d   1      19.432   7.346 -14.182 -0.05 +0.04    +0.139    32.474
ATOM     42  O   UNL d   1      20.498   7.931 -14.044 +0.02 -0.16    -0.650    32.474
ATOM     43  O   UNL d   1      19.374   6.024 -13.909 +0.05 -0.22    -0.776    32.474
ATOM     44  H   UNL d   1      19.863   5.622 -13.179 +0.02 +0.05    +0.167    32.474
ATOM     45  C   UNL d   1      18.607  -0.626  -6.671 -0.32 +0.00    +0.004    32.474
ATOM     46  C   UNL d   1      18.908  -1.211  -5.515 -0.36 +0.00    +0.012    32.474
ATOM     47  C   UNL d   1      14.403   0.801 -13.103 -0.33 +0.00    +0.004    32.474
ATOM     48  C   UNL d   1      13.640   1.705 -13.722 -0.39 +0.00    +0.012    32.474
TER
ENDMDL
MODEL       50
USER    Run = 50
USER    Cluster Rank = 33
USER    Number of conformations in this cluster = 1
USER  
USER    RMSD from reference structure       = 56.205 A
USER  
USER    Estimated Free Energy of Binding    =   -3.70 kcal/mol  [=(1)+(2)+(3)-(4)]
USER    Estimated Inhibition Constant, Ki   =    1.95 mM (millimolar)  [Temperature = 298.15 K]
USER    
USER    (1) Final Intermolecular Energy     =   -7.28 kcal/mol
USER        vdW + Hbond + desolv Energy     =   -2.27 kcal/mol
USER        Electrostatic Energy            =   -5.01 kcal/mol
USER    (2) Final Total Internal Energy     =   -1.85 kcal/mol
USER    (3) Torsional Free Energy           =   +3.58 kcal/mol
USER    (4) Unbound System's Energy  [=(2)] =   -1.85 kcal/mol
USER    
USER    
USER  
USER    DPF = D:/Protein_go_brrr/autodock/final/AncB/heme_Co/dock.dpf
USER    NEWDPF move	heme_Co_opt.pdbqt
USER    NEWDPF about	8.781000 34.984000 -0.736000
USER    NEWDPF tran0	-13.210791 -19.210560 5.960033
USER    NEWDPF axisangle0	0.063367 0.393108 -0.917306 174.092688
USER    NEWDPF quaternion0	0.063283 0.392586 -0.916087 0.051528
USER    NEWDPF dihe0	57.51 100.18 113.94 115.94 137.00 150.98 -102.51 107.77 77.62 82.29 39.96 103.09 
USER  
USER                              x       y       z    vdW   Elec        q     RMS 
ATOM      1  C   UNL d   1     -11.191 -19.226   5.163 -0.09 +0.07    +0.064    56.205
ATOM      2  C   UNL d   1     -12.898 -19.881   9.552 -0.09 +0.04    +0.064    56.205
ATOM      3  C   UNL d   1     -17.308 -18.847   8.032 -0.06 +0.01    +0.064    56.205
ATOM      4  C   UNL d   1     -15.651 -18.550   3.468 -0.04 +0.02    +0.064    56.205
ATOM      5  C   UNL d   1     -11.328 -19.445   6.481 -0.09 +0.08    +0.066    56.205
ATOM      6  C   UNL d   1     -10.247 -19.854   7.287 +0.00 -0.03    -0.021    56.205
ATOM      7  C   UNL d   1     -10.753 -20.064   8.554 -0.08 -0.03    -0.025    56.205
ATOM      8  C   UNL d   1     -12.116 -19.760   8.472 -0.10 +0.06    +0.066    56.205
ATOM      9  C   UNL d   1      -9.995 -20.535   9.805 -0.05 +0.04    +0.051    56.205
ATOM     10  C   UNL d   1     -14.305 -19.566   9.569 -0.08 +0.03    +0.066    56.205
ATOM     11  C   UNL d   1     -15.149 -19.537  10.700 -0.05 -0.01    -0.021    56.205
ATOM     12  C   UNL d   1     -16.429 -19.229  10.229 -0.04 +0.00    +0.000    56.205
ATOM     13  C   UNL d   1     -16.268 -19.080   8.851 -0.07 +0.02    +0.070    56.205
ATOM     14  C   UNL d   1     -14.723 -19.701  12.137 -0.05 +0.01    +0.052    56.205
ATOM     15  C   UNL d   1     -17.331 -18.719   6.588 -0.05 +0.02    +0.066    56.205
ATOM     16  C   UNL d   1     -18.461 -18.622   5.788 -0.04 -0.00    -0.021    56.205
ATOM     17  C   UNL d   1     -17.988 -18.539   4.470 -0.04 +0.00    +0.000    56.205
ATOM     18  C   UNL d   1     -16.602 -18.574   4.572 -0.02 +0.02    +0.070    56.205
ATOM     19  C   UNL d   1     -19.889 -18.615   6.285 -0.02 +0.01    +0.052    56.205
ATOM     20  C   UNL d   1     -14.304 -18.670   3.537 -0.04 +0.03    +0.066    56.205
ATOM     21  C   UNL d   1     -13.498 -18.669   2.400 -0.03 -0.01    -0.025    56.205
ATOM     22  C   UNL d   1     -12.204 -18.833   2.860 -0.04 -0.02    -0.021    56.205
ATOM     23  C   UNL d   1     -12.286 -18.939   4.265 -0.07 +0.05    +0.066    56.205
ATOM     24  C   UNL d   1     -13.940 -18.538   0.945 -0.02 +0.02    +0.051    56.205
ATOM     25  N   UNL d   1     -12.499 -19.368   7.200 -0.10 -0.24    -0.248    56.205
ATOM     26  N   UNL d   1     -14.974 -19.229   8.461 -0.07 -0.10    -0.248    56.205
ATOM     27  N   UNL d   1     -16.247 -18.712   5.845 +0.05 -0.08    -0.248    56.205
ATOM     28  N   UNL d   1     -13.556 -18.844   4.678 -0.02 -0.15    -0.248    56.205
ATOM     29 FE   UNL d   1     -14.482 -19.020   6.479 -0.02 +0.00    +0.000    56.205
ATOM     30  C   UNL d   1      -8.815 -20.106   6.828 -0.05 +0.06    +0.052    56.205
ATOM     31  C   UNL d   1      -7.835 -19.256   7.636 -0.06 +0.16    +0.115    56.205
ATOM     32  C   UNL d   1      -7.317 -18.069   6.851 -0.07 +0.27    +0.139    56.205
ATOM     33  O   UNL d   1      -7.388 -16.950   7.337 -0.33 -1.77    -0.650    56.205
ATOM     34  O   UNL d   1      -6.730 -18.210   5.640 +0.01 -1.47    -0.776    56.205
ATOM     35  H   UNL d   1      -7.129 -18.678   4.894 +0.02 +0.30    +0.167    56.205
ATOM     36  C   UNL d   1     -14.633 -21.095   6.225 -0.02 +0.07    +0.190    56.205
ATOM     37  O   UNL d   1     -13.907 -22.286   6.328 +0.00 -0.13    -0.399    56.205
ATOM     38  H   UNL d   1     -12.956 -21.999   6.420 +0.01 +0.08    +0.209    56.205
ATOM     39  C   UNL d   1     -10.968 -18.947   1.987 -0.09 +0.05    +0.052    56.205
ATOM     40  C   UNL d   1      -9.851 -19.704   2.724 -0.07 +0.13    +0.115    56.205
ATOM     41  C   UNL d   1      -8.750 -18.819   3.269 -0.09 +0.25    +0.139    56.205
ATOM     42  O   UNL d   1      -7.622 -18.914   2.806 -0.09 -1.29    -0.650    56.205
ATOM     43  O   UNL d   1      -8.998 -17.865   4.194 +0.03 -2.07    -0.776    56.205
ATOM     44  H   UNL d   1      -8.574 -17.861   5.062 +0.02 +0.46    +0.167    56.205
ATOM     45  C   UNL d   1     -17.772 -19.040  10.920 -0.02 +0.00    +0.004    56.205
ATOM     46  C   UNL d   1     -18.479 -17.937  11.152 -0.02 +0.00    +0.012    56.205
ATOM     47  C   UNL d   1     -18.748 -18.482   3.186 -0.02 +0.00    +0.004    56.205
ATOM     48  C   UNL d   1     -18.729 -17.430   2.364 -0.02 +0.00    +0.012    56.205
TER
ENDMDL


AVSFLD: # AVS field file
AVSFLD: #
AVSFLD: # Created by AutoDock
AVSFLD: #
AVSFLD: ndim=2           # number of dimensions in the field
AVSFLD: nspace=1         # number of physical coordinates
AVSFLD: veclen=7         # vector size
AVSFLD: dim1=48          # atoms
AVSFLD: dim2=33          # conformations
AVSFLD: data=Real       # data type (byte,integer,Real,double)
AVSFLD: field=uniform    # field coordinate layout
AVSFLD: label= x y z vdW Elec q RMS
AVSFLD: variable 1 file = D:/Protein_go_brrr/autodock/final/AncB/heme_Co/dock.dlg.pdb filetype = ascii offset = 5 stride = 12
AVSFLD: variable 2 file = D:/Protein_go_brrr/autodock/final/AncB/heme_Co/dock.dlg.pdb filetype = ascii offset = 6 stride = 12
AVSFLD: variable 3 file = D:/Protein_go_brrr/autodock/final/AncB/heme_Co/dock.dlg.pdb filetype = ascii offset = 7 stride = 12
AVSFLD: variable 4 file = D:/Protein_go_brrr/autodock/final/AncB/heme_Co/dock.dlg.pdb filetype = ascii offset = 8 stride = 12
AVSFLD: variable 5 file = D:/Protein_go_brrr/autodock/final/AncB/heme_Co/dock.dlg.pdb filetype = ascii offset = 9 stride = 12
AVSFLD: variable 6 file = D:/Protein_go_brrr/autodock/final/AncB/heme_Co/dock.dlg.pdb filetype = ascii offset = 10 stride = 12
AVSFLD: variable 7 file = D:/Protein_go_brrr/autodock/final/AncB/heme_Co/dock.dlg.pdb filetype = ascii offset = 11 stride = 12
AVSFLD: # end of file

>>> Closing the docking parameter file (DPF)...
This docking finished at:			0:33 07" a.m., 01/17/2026


________________________________________________________________________________

D:/autodockScripts/autodock4.exe: Successful Completion on "ACER"

Real= 37h 08m 48.91s,  CPU= 2m 50.39s,  System= 2m 11.81s
________________________________________________________________________________

